Title
81336
    1CHL1    C3    1   4.567   1.094  10.371  0.2788 -0.5441  0.0556
    1CHL1    H3    2   4.587   1.199  10.340 -1.2768 -1.2166 -3.6457
    1CHL1    O3    3   4.548   1.088  10.508 -0.2071 -0.0982 -0.2201
    1CHL1   H3'    4   4.466   1.134  10.529 -1.5551 -1.8932 -1.2201
    1CHL1    C4    5   4.446   1.034  10.295  0.3834  0.0703  1.0239
    1CHL1   H4A    6   4.439   0.928  10.327  1.3201 -0.2132  0.3350
    1CHL1   H4B    7   4.359   1.098  10.321  1.6080  1.9926  0.6444
    1CHL1    C5    8   4.458   1.050  10.145  0.0848  0.1043 -0.4661
    1CHL1    C6    9   4.361   1.105  10.070  0.4159  0.8624  0.4861
    1CHL1    H6   10   4.258   1.113  10.105 -0.3948  1.1755 -1.8136
    1CHL1    C7   11   4.379   1.127   9.923  0.3626  0.0704 -0.2468
    1CHL1   H7A   12   4.284   1.100   9.872  0.9397  0.4026 -1.5328
    1CHL1   H7B   13   4.404   1.233   9.900  0.2495  0.7519  2.3753
    1CHL1    C8   14   4.496   1.048   9.856 -0.3202  0.2559 -0.0051
    1CHL1    H8   15   4.458   0.946   9.837 -2.5550  1.2843 -1.4229
    1CHL1   C14   16   4.529   1.119   9.728 -0.1468 -0.0503  0.2724
    1CHL1   H14   17   4.560   1.223   9.753 -2.7024  0.7459  0.4482
    1CHL1   C15   18   4.406   1.136   9.639 -1.1182 -0.3789 -0.0388
    1CHL1  H15A   19   4.357   1.037   9.632 -0.4202 -0.6385 -2.0794
    1CHL1  H15B   20   4.341   1.222   9.665  0.1904  0.9586 -0.9794
    1CHL1   C16   21   4.483   1.168   9.502  0.6266  0.2189 -0.6859
    1CHL1  H16A   22   4.445   1.094   9.429 -2.3815  1.1924 -0.2175
    1CHL1  H16B   23   4.454   1.269   9.465 -0.0590 -0.8072 -3.2072
    1CHL1   C17   24   4.636   1.138   9.517  0.3330  0.8241 -0.6812
    1CHL1   H17   25   4.678   1.238   9.541  0.9533  0.0134  1.9485
    1CHL1   C13   26   4.641   1.053   9.647 -0.9013 -0.3153 -0.4851
    1CHL1   C18   27   4.606   0.904   9.618 -0.1689 -1.1622 -0.6589
    1CHL1  H18A   28   4.690   0.844   9.578  0.2178  0.4360 -2.3380
    1CHL1  H18B   29   4.575   0.846   9.708 -1.6427 -0.9127 -0.9730
    1CHL1  H18C   30   4.516   0.899   9.553 -1.4717 -0.6527  1.0239
    1CHL1   C12   31   4.773   1.049   9.732  0.2840 -0.0975 -1.2124
    1CHL1  H12A   32   4.849   0.985   9.683 -1.5811 -2.6496 -0.9879
    1CHL1  H12B   33   4.811   1.152   9.741  2.0298 -0.7243 -1.1656
    1CHL1   C11   34   4.743   0.989   9.871 -0.1720  0.3669 -0.6586
    1CHL1  H11A   35   4.727   0.880   9.860 -0.2047  0.3327 -0.3105
    1CHL1  H11B   36   4.835   0.996   9.933 -1.2487  1.4876  0.9318
    1CHL1    C9   37   4.621   1.044   9.941 -0.2913  0.0267  0.1142
    1CHL1    H9   38   4.649   1.150   9.958  2.0891 -0.3407 -1.1343
    1CHL1   C10   39   4.594   0.999  10.089  0.0531 -0.5848 -0.1335
    1CHL1   C19   40   4.570   0.851  10.087 -0.1313  0.4438 -0.1908
    1CHL1  H19A   41   4.487   0.814  10.022  1.1001  0.6878 -1.9770
    1CHL1  H19B   42   4.649   0.794  10.033  0.0974  0.3744  0.2155
    1CHL1  H19C   43   4.574   0.806  10.188  2.0626  1.3200  0.1560
    1CHL1    C1   44   4.717   1.047  10.176 -0.1049 -0.1914 -0.1227
    1CHL1   H1A   45   4.810   0.994  10.148  1.4898  1.1455  2.3312
    1CHL1   H1B   46   4.740   1.155  10.169  0.0576 -0.3296 -3.3969
    1CHL1    C2   47   4.699   1.021  10.326 -0.0767 -0.7033  0.6365
    1CHL1   H2A   48   4.785   1.066  10.381 -0.2200  1.3007 -0.6710
    1CHL1   H2B   49   4.680   0.913  10.343 -3.6694 -0.3398 -0.1662
    1CHL1   C20   50   4.689   1.083   9.393 -0.0131  0.3511 -0.3041
    1CHL1   H20   51   4.648   0.981   9.376 -0.6908  0.5419  0.1610
    1CHL1   C21   52   4.844   1.058   9.398  0.3893  0.1886 -0.5210
    1CHL1  H21A   53   4.873   1.004   9.306  3.6587  0.5833  0.1412
    1CHL1  H21B   54   4.863   0.993   9.486 -1.8971  1.0043  0.6577
    1CHL1  H21C   55   4.909   1.149   9.391 -0.9780  1.1781 -0.6765
    1CHL1   C22   56   4.645   1.161   9.265 -0.0355 -0.0813 -0.3283
    1CHL1  H22A   57   4.537   1.180   9.249  0.0854 -0.0113 -1.0980
    1CHL1  H22B   58   4.682   1.260   9.299  1.3323  0.1477 -2.3229
    1CHL1   C23   59   4.701   1.128   9.127 -0.7674  0.6857  0.5895
    1CHL1  H23A   60   4.811   1.117   9.128 -0.8890 -0.8503  0.1765
    1CHL1  H23B   61   4.667   1.025   9.103  2.1612 -0.0494 -0.7497
    1CHL1   C24   62   4.664   1.224   9.015  0.7420 -0.2663  0.2577
    1CHL1  H24A   63   4.719   1.188   8.926  0.0264 -1.2020  0.1749
    1CHL1  H24B   64   4.554   1.232   8.998  1.0433  1.1370 -1.2229
    1CHL1   C25   65   4.704   1.370   9.036  0.2280 -0.2714  0.2669
    1CHL1   H25   66   4.687   1.397   9.143  0.4875 -1.6145  0.6664
    1CHL1   C26   67   4.854   1.388   9.017 -0.9201 -0.3049  0.1626
    1CHL1  H26A   68   4.894   1.353   8.919 -0.1970 -1.3740  0.8137
    1CHL1  H26B   69   4.886   1.494   9.023 -0.6095 -0.3507 -0.6314
    1CHL1  H26C   70   4.914   1.328   9.089  0.6664  1.0212 -0.0087
    1CHL1   C27   71   4.626   1.462   8.938 -1.0718 -0.2562 -0.3823
    1CHL1  H27A   72   4.515   1.455   8.950 -0.9388 -0.8110  0.5816
    1CHL1  H27B   73   4.654   1.567   8.959 -0.7421 -0.5824  0.8506
    1CHL1  H27C   74   4.660   1.449   8.833 -0.7637  0.8008 -0.4235
    2CHL1    C3   75   0.529   6.169  10.029 -0.0910 -0.2400 -0.0235
    2CHL1    H3   76   0.600   6.093   9.992  0.8300  0.3464  0.4850
    2CHL1    O3   77   0.526   6.167  10.169  0.4438 -0.1982 -0.0629
    2CHL1   H3'   78   0.447   6.217  10.190  0.1461 -0.4914 -0.4699
    2CHL1    C4   79   0.569   6.305   9.986  0.6000 -0.4892 -0.8033
    2CHL1   H4A   80   0.509   6.381  10.042 -0.8045 -1.6983 -0.5896
    2CHL1   H4B   81   0.667   6.335  10.028 -0.0630 -1.8016  1.9679
    2CHL1    C5   82   0.564   6.321   9.832  0.8450 -0.0513  0.4191
    2CHL1    C6   83   0.656   6.399   9.762  0.4554  0.4711  0.5304
    2CHL1    H6   84   0.747   6.445   9.806  0.7663  0.4411 -0.0714
    2CHL1    C7   85   0.639   6.444   9.621  0.1017  0.5255  0.4230
    2CHL1   H7A   86   0.649   6.554   9.610 -0.4034  0.4947 -0.4591
    2CHL1   H7B   87   0.722   6.396   9.564 -1.4368 -0.4602 -1.1038
    2CHL1    C8   88   0.511   6.394   9.547 -0.6385  0.1314 -0.1410
    2CHL1    H8   89   0.435   6.474   9.560  0.8711  1.4331  1.1221
    2CHL1   C14   90   0.537   6.369   9.404 -0.0941 -0.2925  0.2393
    2CHL1   H14   91   0.605   6.282   9.408  0.0202 -0.1881  0.6985
    2CHL1   C15   92   0.602   6.476   9.307  0.1724 -0.0006 -0.5464
    2CHL1  H15A   93   0.557   6.573   9.338  0.1300 -0.7902  2.0924
    2CHL1  H15B   94   0.712   6.477   9.319  0.4003 -0.2632 -2.3535
    2CHL1   C16   95   0.554   6.435   9.164 -0.3931 -0.3053  0.4206
    2CHL1  H16A   96   0.493   6.521   9.128 -2.0163 -1.1725  1.0098
    2CHL1  H16B   97   0.643   6.415   9.100 -1.3699 -3.1507 -0.2145
    2CHL1   C17   98   0.472   6.305   9.182 -0.3533 -0.3997 -0.1242
    2CHL1   H17   99   0.548   6.225   9.188 -0.4327 -0.4586  0.0815
    2CHL1   C13  100   0.419   6.314   9.325 -0.3686  0.6689  0.6072
    2CHL1   C18  101   0.296   6.409   9.327 -1.1040 -0.0248 -0.1134
    2CHL1  H18A  102   0.321   6.503   9.275 -0.7814  0.2927  0.5941
    2CHL1  H18B  103   0.204   6.376   9.275 -1.0795 -1.0947  0.4925
    2CHL1  H18C  104   0.278   6.451   9.429 -1.0584  2.3177 -1.0301
    2CHL1   C12  105   0.386   6.173   9.380 -0.5870 -0.2449  0.1415
    2CHL1  H12A  106   0.301   6.136   9.320 -0.7966  0.4643 -0.0101
    2CHL1  H12B  107   0.471   6.103   9.362 -0.2835  0.2491 -0.3633
    2CHL1   C11  108   0.365   6.179   9.530 -0.1937 -0.4718  0.2888
    2CHL1  H11A  109   0.264   6.218   9.550  0.1049  1.8134 -2.1130
    2CHL1  H11B  110   0.365   6.073   9.562  0.5209 -0.3933  0.5679
    2CHL1    C9  111   0.469   6.254   9.615 -0.3654 -0.0908 -0.4311
    2CHL1    H9  112   0.564   6.198   9.613  0.7609  1.6400  1.3616
    2CHL1   C10  113   0.442   6.256   9.767  0.2818  0.0048  0.3654
    2CHL1   C19  114   0.328   6.368   9.783 -0.3257  0.8284 -0.5343
    2CHL1  H19A  115   0.235   6.347   9.726  1.4938 -1.8905 -2.7906
    2CHL1  H19B  116   0.305   6.380   9.891 -0.3762 -0.7593 -0.3488
    2CHL1  H19C  117   0.352   6.468   9.741 -2.4606  1.2807 -0.7749
    2CHL1    C1  118   0.400   6.120   9.831 -0.5294  0.4879  0.3878
    2CHL1   H1A  119   0.299   6.092   9.793  0.1305 -1.8547  0.2354
    2CHL1   H1B  120   0.465   6.043   9.785  0.4146 -0.0232  2.4888
    2CHL1    C2  121   0.394   6.121   9.984 -0.3473 -0.0094 -0.2936
    2CHL1   H2A  122   0.371   6.021  10.028 -1.7401  0.4461  0.0640
    2CHL1   H2B  123   0.313   6.187  10.021 -1.2047 -0.4432 -1.3289
    2CHL1   C20  124   0.381   6.267   9.069 -0.8498  0.1392  0.8792
    2CHL1   H20  125   0.295   6.205   9.101 -0.6459  0.0760  1.3036
    2CHL1   C21  126   0.466   6.181   8.970  0.2312 -0.3415 -0.1043
    2CHL1  H21A  127   0.543   6.241   8.919  1.3637 -0.4835  1.3536
    2CHL1  H21B  128   0.390   6.132   8.906  0.1097 -0.1053 -0.1386
    2CHL1  H21C  129   0.524   6.101   9.021  0.7529  0.2080  0.1751
    2CHL1   C22  130   0.325   6.386   8.985 -0.1248 -0.0665 -0.7698
    2CHL1  H22A  131   0.290   6.458   9.063  0.8295  0.7543 -1.0747
    2CHL1  H22B  132   0.404   6.440   8.928 -0.0981  0.7924  0.0394
    2CHL1   C23  133   0.201   6.362   8.907 -0.0165 -0.3572 -0.4988
    2CHL1  H23A  134   0.203   6.273   8.841  0.4095 -0.1425 -0.7807
    2CHL1  H23B  135   0.117   6.351   8.979 -0.0035  1.5934 -0.1169
    2CHL1   C24  136   0.166   6.476   8.811  0.3250  0.1847 -0.4957
    2CHL1  H24A  137   0.117   6.554   8.873  4.6643  2.8377 -0.0216
    2CHL1  H24B  138   0.259   6.516   8.766 -0.1039  0.8524 -0.7949
    2CHL1   C25  139   0.078   6.424   8.696 -0.2858  0.2464  0.3884
    2CHL1   H25  140   0.135   6.343   8.645  0.6932  3.4286 -4.2275
    2CHL1   C26  141  -0.051   6.364   8.754  0.3623 -0.4984  0.0744
    2CHL1  H26A  142  -0.104   6.434   8.821  0.8338  1.2941 -1.3322
    2CHL1  H26B  143  -0.122   6.339   8.672  1.0953  0.9832 -1.0475
    2CHL1  H26C  144  -0.025   6.271   8.810 -0.8282 -0.6980  0.3081
    2CHL1   C27  145   0.037   6.531   8.587 -0.0655  0.8090  0.1950
    2CHL1  H27A  146   0.126   6.586   8.548 -0.6548  2.2530  0.8253
    2CHL1  H27B  147   0.007   6.470   8.499 -0.3236 -0.1415  0.9330
    2CHL1  H27C  148  -0.031   6.608   8.629 -1.4032 -1.1934  1.8211
    3CHL1    C3  149   0.434   4.680  10.125 -0.2370  0.1347 -0.1034
    3CHL1    H3  150   0.522   4.627  10.082  1.5119  1.0890  2.1314
    3CHL1    O3  151   0.397   4.628  10.253  0.1504 -0.0042 -0.1460
    3CHL1   H3'  152   0.320   4.575  10.231  0.0625 -0.0688  0.3168
    3CHL1    C4  153   0.475   4.823  10.136 -0.0170  0.0714 -0.2534
    3CHL1   H4A  154   0.412   4.877  10.210  0.9397  0.2943  0.4101
    3CHL1   H4B  155   0.577   4.812  10.179  0.3002  0.4568 -0.8907
    3CHL1    C5  156   0.493   4.892  10.009  0.1992 -0.5780  0.0736
    3CHL1    C6  157   0.599   4.967   9.974 -0.2224  1.1231  0.1451
    3CHL1    H6  158   0.676   4.976  10.052 -0.0628 -0.8347  0.2623
    3CHL1    C7  159   0.622   5.039   9.846 -0.5887  0.4000  0.1925
    3CHL1   H7A  160   0.671   5.136   9.868  0.9333 -0.5082  0.9519
    3CHL1   H7B  161   0.699   4.985   9.786  0.0737  0.2021  1.1953
    3CHL1    C8  162   0.493   5.053   9.757  0.0755  0.2049 -0.1625
    3CHL1    H8  163   0.430   5.128   9.810 -0.5801 -0.5927  0.2064
    3CHL1   C14  164   0.520   5.090   9.612 -0.5455  0.0426  0.2926
    3CHL1   H14  165   0.580   5.004   9.573 -0.2501  0.2785  0.2162
    3CHL1   C15  166   0.612   5.214   9.593 -0.6512 -0.7712 -0.0057
    3CHL1  H15A  167   0.589   5.288   9.673  0.7553 -0.6390  0.3141
    3CHL1  H15B  168   0.717   5.178   9.584 -0.0689  0.6726  0.5937
    3CHL1   C16  169   0.571   5.267   9.457  0.7672 -0.2207 -0.0462
    3CHL1  H16A  170   0.510   5.360   9.461 -0.3801 -0.6980 -3.5637
    3CHL1  H16B  171   0.659   5.277   9.391 -0.6406  0.2943 -1.9309
    3CHL1   C17  172   0.469   5.166   9.397  0.7962  0.2030  0.0893
    3CHL1   H17  173   0.527   5.084   9.350 -0.2230  0.4800 -1.7661
    3CHL1   C13  174   0.401   5.111   9.527  0.0476 -0.1459 -0.1369
    3CHL1   C18  175   0.316   5.226   9.594  0.4071  0.4683  0.4906
    3CHL1  H18A  176   0.236   5.256   9.523  0.1736  0.1012  0.5914
    3CHL1  H18B  177   0.263   5.185   9.683 -0.4682 -1.6545 -0.8994
    3CHL1  H18C  178   0.372   5.321   9.604 -0.0371  0.8290 -0.3368
    3CHL1   C12  179   0.327   4.985   9.514  0.1730  0.5597 -0.7292
    3CHL1  H12A  180   0.229   5.002   9.465  0.1878  1.4080 -0.4782
    3CHL1  H12B  181   0.380   4.914   9.448 -1.0165 -1.3434  0.2471
    3CHL1   C11  182   0.294   4.920   9.651  0.2683  0.5363  0.3566
    3CHL1  H11A  183   0.203   4.967   9.694 -1.8089 -3.6109  0.9240
    3CHL1  H11B  184   0.269   4.814   9.631 -0.6853  0.8822 -0.3574
    3CHL1    C9  185   0.413   4.926   9.763  0.2290  0.0572 -0.0896
    3CHL1    H9  186   0.483   4.847   9.728 -0.9810 -1.0090 -0.1907
    3CHL1   C10  187   0.380   4.874   9.908 -0.3212  0.0343  0.4276
    3CHL1   C19  188   0.262   4.956   9.960  0.4607  0.2079  0.1633
    3CHL1  H19A  189   0.230   4.937  10.064 -0.2137  1.1034  0.1364
    3CHL1  H19B  190   0.278   5.066   9.961 -0.3942  0.3798  3.1305
    3CHL1  H19C  191   0.170   4.937   9.899  0.4506  0.0235  0.2374
    3CHL1    C1  192   0.347   4.727   9.897 -0.4779  0.5723 -0.5705
    3CHL1   H1A  193   0.251   4.725   9.841 -1.4622 -1.9749  1.0542
    3CHL1   H1B  194   0.424   4.669   9.841 -0.9097  0.0688 -0.6525
    3CHL1    C2  195   0.316   4.658  10.028  0.4023 -0.1574 -0.2124
    3CHL1   H2A  196   0.281   4.555  10.007 -1.1895  0.2143  0.4441
    3CHL1   H2B  197   0.225   4.703  10.074  0.4153 -1.2233  0.9264
    3CHL1   C20  198   0.379   5.233   9.295  0.5263  0.1979 -0.4543
    3CHL1   H20  199   0.318   5.314   9.340 -0.9106  0.9878 -3.5339
    3CHL1   C21  200   0.270   5.139   9.232  0.0335 -0.5562 -0.4000
    3CHL1  H21A  201   0.320   5.043   9.205  1.8064  0.5590 -1.2952
    3CHL1  H21B  202   0.226   5.185   9.140  0.5896 -0.0343 -0.4151
    3CHL1  H21C  203   0.190   5.118   9.306  0.5611 -1.9250 -0.1946
    3CHL1   C22  204   0.461   5.299   9.183  0.2048 -0.9881  0.2867
    3CHL1  H22A  205   0.394   5.335   9.102 -0.6963 -1.1463  0.9486
    3CHL1  H22B  206   0.521   5.380   9.229 -1.0512  0.2290 -0.1589
    3CHL1   C23  207   0.558   5.206   9.113 -0.2663  0.4195 -0.3064
    3CHL1  H23A  208   0.629   5.162   9.186 -1.3713  1.2483  1.3046
    3CHL1  H23B  209   0.513   5.123   9.054  0.6565 -0.0302 -0.3936
    3CHL1   C24  210   0.647   5.301   9.030  0.1369  0.0534 -0.1519
    3CHL1  H24A  211   0.583   5.366   8.966 -3.5691 -3.4878 -0.4459
    3CHL1  H24B  212   0.699   5.372   9.098  0.3860 -0.0678 -0.2123
    3CHL1   C25  213   0.754   5.227   8.940  0.1366 -0.7163 -0.9480
    3CHL1   H25  214   0.833   5.191   9.009 -0.8169 -0.3841  0.3725
    3CHL1   C26  215   0.706   5.104   8.867 -0.1400  0.6481 -0.1973
    3CHL1  H26A  216   0.623   5.123   8.796  0.3095  3.7388 -0.0205
    3CHL1  H26B  217   0.780   5.047   8.807 -0.1502  0.4011  0.0220
    3CHL1  H26C  218   0.685   5.033   8.950  0.3639  0.4914 -0.1997
    3CHL1   C27  219   0.837   5.320   8.855  0.5141  0.0180  0.2563
    3CHL1  H27A  220   0.906   5.258   8.794 -1.2378 -0.4729 -1.3040
    3CHL1  H27B  221   0.773   5.374   8.782  0.7148 -0.0512  0.0307
    3CHL1  H27C  222   0.890   5.403   8.907 -0.8717  2.2481 -1.6847
    4CHL1    C3  223   6.585   0.369  10.443 -0.1517 -0.8833  0.0802
    4CHL1    H3  224   6.544   0.472  10.450  1.3679  0.0508 -3.1443
    4CHL1    O3  225   6.607   0.329  10.581  0.0777 -0.9775 -0.0255
    4CHL1   H3'  226   6.548   0.254  10.589  2.2063 -3.1293 -2.5955
    4CHL1    C4  227   6.475   0.282  10.375  1.0259  0.4621  0.3621
    4CHL1   H4A  228   6.496   0.174  10.394 -0.0111  0.6166  2.8086
    4CHL1   H4B  229   6.374   0.298  10.419  0.9107 -1.3094  0.8316
    4CHL1    C5  230   6.449   0.312  10.228  0.2479 -0.1762  0.3233
    4CHL1    C6  231   6.327   0.330  10.173  0.3041  0.0883 -0.5906
    4CHL1    H6  232   6.243   0.319  10.243  2.6962 -2.9132  2.0917
    4CHL1    C7  233   6.306   0.354  10.029  0.0218  0.1997  0.0983
    4CHL1   H7A  234   6.225   0.289   9.990  1.0763 -1.3035  0.3009
    4CHL1   H7B  235   6.278   0.459  10.008 -0.4068  0.2217  0.7337
    4CHL1    C8  236   6.429   0.316   9.945 -0.5176  0.4732  0.5815
    4CHL1    H8  237   6.428   0.205   9.948 -0.9211  0.2271 -3.2920
    4CHL1   C14  238   6.426   0.369   9.801 -0.1062  0.1817 -0.3871
    4CHL1   H14  239   6.442   0.477   9.818 -1.8078  0.1934  1.6980
    4CHL1   C15  240   6.296   0.345   9.730  0.2794  0.5171 -0.3122
    4CHL1  H15A  241   6.282   0.235   9.734 -1.5727  0.7004 -0.8803
    4CHL1  H15B  242   6.207   0.402   9.765  0.4376  0.9662 -0.6362
    4CHL1   C16  243   6.342   0.375   9.587  0.2322  0.6317 -0.1259
    4CHL1  H16A  244   6.327   0.284   9.526  1.1775  0.1060  0.4028
    4CHL1  H16B  245   6.278   0.456   9.546 -0.0286  1.8636  2.4665
    4CHL1   C17  246   6.498   0.394   9.584  0.2252  0.3991 -0.0355
    4CHL1   H17  247   6.520   0.498   9.615 -0.6871 -0.2933  3.2579
    4CHL1   C13  248   6.543   0.324   9.709 -0.0909  0.3525  0.1459
    4CHL1   C18  249   6.546   0.176   9.688  0.8829  0.2416  0.0716
    4CHL1  H18A  250   6.541   0.132   9.790 -0.7309  0.3850  0.0787
    4CHL1  H18B  251   6.470   0.132   9.621  1.0422  0.4200 -0.2300
    4CHL1  H18C  252   6.644   0.141   9.648 -0.3563 -1.3103 -1.7361
    4CHL1   C12  253   6.674   0.384   9.768  0.1147  0.4152  0.2339
    4CHL1  H12A  254   6.760   0.339   9.715  0.0874 -0.2935  0.7783
    4CHL1  H12B  255   6.674   0.495   9.761 -0.5969  0.3866 -0.3359
    4CHL1   C11  256   6.680   0.339   9.920 -0.1439 -0.5535  0.0948
    4CHL1  H11A  257   6.695   0.229   9.921  2.7894 -0.2310  0.8509
    4CHL1  H11B  258   6.770   0.385   9.967 -0.7732  0.3630  0.4378
    4CHL1    C9  259   6.556   0.369  10.009  0.0439  0.2618  0.8192
    4CHL1    H9  260   6.542   0.479  10.002 -2.3719  0.1709  2.9359
    4CHL1   C10  261   6.582   0.316  10.153 -0.2993 -0.2861 -0.6419
    4CHL1   C19  262   6.625   0.168  10.158  1.1388 -1.6098 -0.8192
    4CHL1  H19A  263   6.722   0.154  10.107  0.2100 -0.9806 -2.8584
    4CHL1  H19B  264   6.637   0.122  10.259  1.2405 -0.1225 -0.1375
    4CHL1  H19C  265   6.562   0.101  10.095  2.6997 -1.8289 -2.2168
    4CHL1    C1  266   6.686   0.406  10.229 -0.6230  0.8519  0.7491
    4CHL1   H1A  267   6.789   0.401  10.188 -0.0004 -0.9346  2.3757
    4CHL1   H1B  268   6.652   0.511  10.214  0.1598  0.8259 -1.7342
    4CHL1    C2  269   6.719   0.370  10.376 -0.7309  0.2819 -0.0320
    4CHL1   H2A  270   6.787   0.442  10.427 -1.4979  0.7995  0.2796
    4CHL1   H2B  271   6.759   0.266  10.372 -0.3209  0.4723 -1.3878
    4CHL1   C20  272   6.557   0.358   9.446  0.2039 -0.3358 -0.1230
    4CHL1   H20  273   6.539   0.249   9.430  0.9315 -0.4228 -0.4155
    4CHL1   C21  274   6.709   0.371   9.442  0.0126  0.1513  0.0021
    4CHL1  H21A  275   6.746   0.375   9.337  0.0188 -1.0885 -0.0577
    4CHL1  H21B  276   6.757   0.295   9.507 -0.1949 -1.4565 -1.6580
    4CHL1  H21C  277   6.726   0.469   9.490 -2.9553  0.9082 -0.2583
    4CHL1   C22  278   6.489   0.445   9.341  0.6256  0.0500 -0.2524
    4CHL1  H22A  279   6.380   0.461   9.348  0.4740 -0.7472 -0.6579
    4CHL1  H22B  280   6.536   0.546   9.349  2.4296 -0.7206 -0.4904
    4CHL1   C23  281   6.516   0.399   9.195  0.1499  0.1835 -0.5154
    4CHL1  H23A  282   6.625   0.399   9.173  0.4548  0.3468  0.9018
    4CHL1  H23B  283   6.484   0.294   9.180  2.5347 -0.4263 -1.7892
    4CHL1   C24  284   6.451   0.496   9.096  0.1419  0.6329  0.0835
    4CHL1  H24A  285   6.341   0.488   9.102  0.2127  0.0994  0.8639
    4CHL1  H24B  286   6.484   0.600   9.117 -1.9000  1.0929  1.2863
    4CHL1   C25  287   6.480   0.470   8.944 -0.7521  0.1750 -0.1178
    4CHL1   H25  288   6.454   0.363   8.924 -1.3463  0.8029 -3.1824
    4CHL1   C26  289   6.395   0.558   8.856  0.4821 -0.4652  0.0487
    4CHL1  H26A  290   6.284   0.552   8.862  0.1710  2.7279 -0.6076
    4CHL1  H26B  291   6.432   0.660   8.882  1.1845 -0.6271 -0.2798
    4CHL1  H26C  292   6.423   0.537   8.750 -0.6064 -0.8832 -0.1640
    4CHL1   C27  293   6.626   0.496   8.909 -0.0149  0.4286 -0.4874
    4CHL1  H27A  294   6.655   0.481   8.802  2.2828 -0.6783  0.2298
    4CHL1  H27B  295   6.633   0.605   8.927  0.7857  0.6215 -1.8194
    4CHL1  H27C  296   6.697   0.433   8.966 -0.4470 -0.1779 -0.6168
    5CHL1    C3  297   1.332   4.661  10.051 -0.5625 -0.3309  0.5221
    5CHL1    H3  298   1.246   4.731  10.054  0.1350  0.5578  0.3751
    5CHL1    O3  299   1.356   4.611  10.179  0.0288 -0.1142  0.4036
    5CHL1   H3'  300   1.405   4.675  10.232  0.4498 -0.1683  0.0872
    5CHL1    C4  301   1.327   4.542   9.955 -0.1989 -0.0972  1.1421
    5CHL1   H4A  302   1.412   4.471   9.971  1.4407  2.2352  3.6627
    5CHL1   H4B  303   1.225   4.502   9.974 -0.4569  1.0615  2.3847
    5CHL1    C5  304   1.323   4.586   9.806 -1.3705  0.1816  0.3747
    5CHL1    C6  305   1.222   4.543   9.724  0.4310  0.2114  0.5419
    5CHL1    H6  306   1.136   4.493   9.769 -1.3651  1.4535 -1.3400
    5CHL1    C7  307   1.214   4.562   9.578  0.2672 -0.7078 -0.0105
    5CHL1   H7A  308   1.184   4.464   9.536  1.3655 -0.9779 -0.1930
    5CHL1   H7B  309   1.141   4.644   9.557 -0.5019 -1.4675 -0.4039
    5CHL1    C8  310   1.348   4.612   9.523  0.3470 -0.0434  0.2059
    5CHL1    H8  311   1.416   4.525   9.511  0.7841  0.0089  1.9402
    5CHL1   C14  312   1.310   4.677   9.385 -0.4776 -0.6743  0.4542
    5CHL1   H14  313   1.241   4.762   9.401 -0.5741 -0.2100 -2.1430
    5CHL1   C15  314   1.245   4.577   9.286  0.7558 -0.5522 -0.4247
    5CHL1  H15A  315   1.300   4.481   9.285  0.7607 -0.5705  0.4135
    5CHL1  H15B  316   1.137   4.563   9.309  0.6278 -1.7791 -1.6331
    5CHL1   C16  317   1.280   4.637   9.145  0.5503 -0.0980  0.2327
    5CHL1  H16A  318   1.314   4.553   9.082 -0.5453 -0.9686  0.7813
    5CHL1  H16B  319   1.197   4.681   9.085 -0.4271 -1.6521  0.4044
    5CHL1   C17  320   1.385   4.749   9.167 -0.7590  0.2363 -0.4403
    5CHL1   H17  321   1.329   4.845   9.170  0.9980  1.3011 -0.0475
    5CHL1   C13  322   1.443   4.720   9.312  0.3724 -0.8004  0.1464
    5CHL1   C18  323   1.543   4.604   9.297  0.6421  0.3277 -0.2703
    5CHL1  H18A  324   1.638   4.626   9.244 -0.7736  0.3250 -3.0264
    5CHL1  H18B  325   1.559   4.569   9.401 -0.2861  2.8470  0.8021
    5CHL1  H18C  326   1.492   4.523   9.240 -2.1785  1.1087  0.9519
    5CHL1   C12  327   1.496   4.841   9.395 -0.4839 -0.0979 -0.1086
    5CHL1  H12A  328   1.589   4.879   9.347  0.0195 -1.9637 -0.7114
    5CHL1  H12B  329   1.431   4.930   9.383  1.8758  1.7013 -0.3056
    5CHL1   C11  330   1.525   4.798   9.542 -0.3753 -0.8929 -0.4301
    5CHL1  H11A  331   1.613   4.733   9.527  0.0489  0.1487 -2.8642
    5CHL1  H11B  332   1.552   4.889   9.601 -0.7115 -0.9174 -0.2320
    5CHL1    C9  333   1.412   4.722   9.612  0.0211 -0.4770 -0.4604
    5CHL1    H9  334   1.331   4.798   9.615 -0.4827 -1.0413  0.4105
    5CHL1   C10  335   1.440   4.676   9.759 -0.3503 -0.1725 -0.2318
    5CHL1   C19  336   1.573   4.595   9.751 -0.0424  0.0218 -0.0683
    5CHL1  H19A  337   1.559   4.508   9.684  0.2883 -0.9258  1.0615
    5CHL1  H19B  338   1.659   4.659   9.723  0.0977  0.6570  1.7072
    5CHL1  H19C  339   1.590   4.548   9.850  2.8304  1.5286  0.2483
    5CHL1    C1  340   1.450   4.791   9.852  0.0690  0.5899  0.1398
    5CHL1   H1A  341   1.528   4.865   9.824 -0.0994  0.3937 -0.8691
    5CHL1   H1B  342   1.355   4.847   9.843 -0.6684 -0.8748 -1.8569
    5CHL1    C2  343   1.447   4.757  10.002 -0.5688  0.7627 -0.2063
    5CHL1   H2A  344   1.447   4.843  10.072  2.1277  0.0946  0.7436
    5CHL1   H2B  345   1.536   4.704  10.041  0.0605  2.5609  0.8890
    5CHL1   C20  346   1.485   4.760   9.048 -0.0560  0.3120  0.0355
    5CHL1   H20  347   1.534   4.660   9.042 -1.5605 -0.4661  0.1826
    5CHL1   C21  348   1.580   4.871   9.066  0.0401 -0.1962  0.3809
    5CHL1  H21A  349   1.530   4.968   9.088  0.6915  0.8915 -2.4683
    5CHL1  H21B  350   1.639   4.889   8.973 -0.9216  1.4544  0.0449
    5CHL1  H21C  351   1.658   4.848   9.142  1.0922  2.0208  0.0668
    5CHL1   C22  352   1.400   4.786   8.918 -0.9524 -0.2157 -0.2112
    5CHL1  H22A  353   1.311   4.721   8.909 -1.7613  1.0049 -1.4187
    5CHL1  H22B  354   1.366   4.892   8.913 -1.2124 -0.2962 -0.1445
    5CHL1   C23  355   1.485   4.761   8.783  0.4621  0.2520  0.2466
    5CHL1  H23A  356   1.429   4.807   8.699  0.9346 -0.2374 -0.3422
    5CHL1  H23B  357   1.584   4.806   8.806  1.1146 -1.8642  1.9590
    5CHL1   C24  358   1.490   4.606   8.767 -0.8916 -0.0294 -0.3493
    5CHL1  H24A  359   1.567   4.566   8.837 -0.1361 -0.4053 -1.3699
    5CHL1  H24B  360   1.392   4.557   8.788 -0.9032  0.3128  0.4134
    5CHL1   C25  361   1.530   4.551   8.634 -0.5549  0.6530  0.3972
    5CHL1   H25  362   1.463   4.580   8.550  0.2454 -1.8493 -1.1943
    5CHL1   C26  363   1.675   4.606   8.602 -0.4273 -0.2408 -0.6218
    5CHL1  H26A  364   1.703   4.582   8.497 -0.5636 -1.7246 -0.3435
    5CHL1  H26B  365   1.666   4.717   8.609  0.4481 -0.2698  1.6313
    5CHL1  H26C  366   1.752   4.572   8.674 -0.8404 -2.0310 -0.9721
    5CHL1   C27  367   1.536   4.392   8.635 -0.1355 -0.7911  0.0279
    5CHL1  H27A  368   1.439   4.340   8.649 -0.1873 -0.1444  2.5578
    5CHL1  H27B  369   1.579   4.349   8.543  1.0259  0.4881 -0.0682
    5CHL1  H27C  370   1.609   4.350   8.708  0.3931 -0.1000 -0.0884
    6CHL1    C3  371   6.218   1.671  10.450 -0.5675 -0.5885 -0.1232
    6CHL1    H3  372   6.316   1.628  10.421  0.6482  1.6597  0.4070
    6CHL1    O3  373   6.189   1.679  10.594 -0.6049 -0.0508  0.7929
    6CHL1   H3'  374   6.115   1.739  10.604 -0.4290  0.2625  0.2494
    6CHL1    C4  375   6.219   1.816  10.392  0.1646  0.4503 -0.0172
    6CHL1   H4A  376   6.119   1.856  10.418 -1.0464 -1.5977 -1.2113
    6CHL1   H4B  377   6.294   1.874  10.449 -0.2537  0.6467  0.3404
    6CHL1    C5  378   6.223   1.823  10.240  0.3952 -0.0137 -0.0534
    6CHL1    C6  379   6.325   1.886  10.172  0.1053  0.8450  0.1271
    6CHL1    H6  380   6.409   1.931  10.226 -1.4645  1.2506  2.3612
    6CHL1    C7  381   6.325   1.884  10.022  0.5957  0.2443  0.6843
    6CHL1   H7A  382   6.360   1.983   9.985  1.1633  0.6646  2.2914
    6CHL1   H7B  383   6.392   1.804   9.985 -1.2679 -0.6188 -0.9864
    6CHL1    C8  384   6.188   1.856   9.954  1.2618  0.8169  0.3002
    6CHL1    H8  385   6.118   1.939   9.980  0.5155  0.8227 -1.5745
    6CHL1   C14  386   6.207   1.834   9.806  0.6379  0.7066  0.0281
    6CHL1   H14  387   6.265   1.739   9.798 -0.7625 -0.2363  0.6336
    6CHL1   C15  388   6.278   1.942   9.721 -0.4872 -0.0156  0.5691
    6CHL1  H15A  389   6.247   2.043   9.753  0.9111  0.5782  0.1165
    6CHL1  H15B  390   6.387   1.932   9.742 -0.7849 -0.2219  2.1356
    6CHL1   C16  391   6.246   1.901   9.578 -0.4067 -0.4640  0.3385
    6CHL1  H16A  392   6.213   1.991   9.523 -0.5410 -0.8109 -0.1499
    6CHL1  H16B  393   6.331   1.853   9.525 -0.8713  0.3654 -1.2040
    6CHL1   C17  394   6.129   1.789   9.590 -0.0762 -0.3227  0.3898
    6CHL1   H17  395   6.188   1.696   9.580  0.2393 -0.4065  2.5309
    6CHL1   C13  396   6.075   1.802   9.731  0.2941  0.0474  0.1375
    6CHL1   C18  397   5.978   1.919   9.736 -0.0622  0.2832 -0.9740
    6CHL1  H18A  398   5.886   1.906   9.675 -0.5619  0.4014 -0.2677
    6CHL1  H18B  399   5.947   1.928   9.843 -0.5875 -1.9048 -0.8876
    6CHL1  H18C  400   6.028   2.012   9.703  0.2203  0.4461 -0.1118
    6CHL1   C12  401   6.014   1.673   9.793  0.1416  0.1380  0.0525
    6CHL1  H12A  402   5.928   1.636   9.732 -0.0972  1.3149 -0.3411
    6CHL1  H12B  403   6.092   1.594   9.788  0.9138  0.9087 -0.0766
    6CHL1   C11  404   5.991   1.690   9.936 -1.0745 -0.3427 -0.8827
    6CHL1  H11A  405   5.907   1.762   9.946 -0.1143  0.7311 -0.2794
    6CHL1  H11B  406   5.960   1.597   9.988 -0.2850  0.6032  1.4198
    6CHL1    C9  407   6.120   1.734  10.021  0.1564  0.4172 -0.0254
    6CHL1    H9  408   6.196   1.653  10.008  0.0582  0.3009  0.1167
    6CHL1   C10  409   6.106   1.745  10.178 -0.0325  0.2863 -0.4172
    6CHL1   C19  410   5.959   1.811  10.199 -0.1194 -0.0564 -0.1355
    6CHL1  H19A  411   5.935   1.828  10.306  0.7574 -1.5990  0.3453
    6CHL1  H19B  412   5.951   1.906  10.143  1.7543  0.4978  0.4797
    6CHL1  H19C  413   5.883   1.740  10.158 -1.6075  1.4949 -0.1547
    6CHL1    C1  414   6.098   1.600  10.238  0.0001 -0.1152  0.2279
    6CHL1   H1A  415   6.017   1.542  10.189 -1.1513  1.3111  0.4159
    6CHL1   H1B  416   6.193   1.547  10.211  1.1693  1.9180  0.1321
    6CHL1    C2  417   6.097   1.599  10.392 -0.9185  0.1133 -0.3529
    6CHL1   H2A  418   6.078   1.498  10.433  0.6575 -1.1304 -2.4716
    6CHL1   H2B  419   6.012   1.665  10.418 -0.3599  1.5001 -1.8973
    6CHL1   C20  420   6.045   1.786   9.458 -0.3300 -1.0076 -0.3948
    6CHL1   H20  421   5.982   1.878   9.458  2.2116  0.9060  2.0788
    6CHL1   C21  422   5.957   1.661   9.455  0.0421 -0.0387  0.5837
    6CHL1  H21A  423   5.885   1.665   9.539 -1.0543 -0.0269 -0.3392
    6CHL1  H21B  424   6.026   1.574   9.458 -0.2868 -0.2970  0.6365
    6CHL1  H21C  425   5.899   1.646   9.361  0.4654  0.6430  0.2036
    6CHL1   C22  426   6.129   1.801   9.329  0.6032  0.0598 -0.0021
    6CHL1  H22A  427   6.170   1.905   9.325 -1.7551  1.0368 -0.5690
    6CHL1  H22B  428   6.212   1.728   9.326 -1.3724 -2.2942 -1.2973
    6CHL1   C23  429   6.059   1.792   9.196  0.3508  0.1718  0.6150
    6CHL1  H23A  430   6.018   1.690   9.181 -0.5738  0.2714  2.2851
    6CHL1  H23B  431   5.976   1.866   9.197  0.8087  0.7077  0.0163
    6CHL1   C24  432   6.152   1.817   9.079  0.1532  0.5872  0.7984
    6CHL1  H24A  433   6.204   1.915   9.089  1.7900 -0.2826  1.1886
    6CHL1  H24B  434   6.221   1.730   9.073 -0.6924 -0.0161 -0.7533
    6CHL1   C25  435   6.078   1.802   8.938  0.1000  0.1744 -0.3157
    6CHL1   H25  436   6.055   1.694   8.935 -1.4511  0.3909  1.7353
    6CHL1   C26  437   5.945   1.886   8.925  0.2399  0.6065 -0.2421
    6CHL1  H26A  438   5.861   1.850   8.988 -0.2708 -2.0665 -2.2682
    6CHL1  H26B  439   5.974   1.988   8.959  1.9157 -0.0855  0.4843
    6CHL1  H26C  440   5.909   1.891   8.820 -0.5659 -1.6162 -0.1169
    6CHL1   C27  441   6.175   1.841   8.829 -0.6634 -0.4483  0.7867
    6CHL1  H27A  442   6.132   1.832   8.727 -0.1972 -2.3595  0.7286
    6CHL1  H27B  443   6.208   1.947   8.837  2.1927 -1.2539  0.5986
    6CHL1  H27C  444   6.265   1.776   8.833 -0.4729 -0.1407  2.0289
    7CHL1    C3  445   2.386   5.515  10.174  0.4059  0.3521 -0.3055
    7CHL1    H3  446   2.284   5.483  10.143  1.6819 -0.9598 -3.5349
    7CHL1    O3  447   2.395   5.514  10.315  0.7431  0.5138  0.0989
    7CHL1   H3'  448   2.487   5.498  10.335  0.1176 -1.7659  1.5768
    7CHL1    C4  449   2.485   5.416  10.118  0.2199  0.3876 -0.5660
    7CHL1   H4A  450   2.588   5.433  10.155  0.8972 -0.0622 -2.1781
    7CHL1   H4B  451   2.449   5.315  10.149 -0.7376  0.3687 -1.7003
    7CHL1    C5  452   2.485   5.422   9.974  0.5458  0.2527  0.0532
    7CHL1    C6  453   2.454   5.312   9.910 -0.4615  0.3214  0.7010
    7CHL1    H6  454   2.447   5.212   9.954 -0.0400 -0.1362 -0.2251
    7CHL1    C7  455   2.455   5.321   9.749  0.2349 -0.3810  0.0738
    7CHL1   H7A  456   2.493   5.226   9.705  0.4586 -0.0385 -0.4713
    7CHL1   H7B  457   2.345   5.325   9.735  0.2259 -0.3390  0.1546
    7CHL1    C8  458   2.520   5.441   9.685  0.6922  0.0208  0.1873
    7CHL1    H8  459   2.631   5.440   9.700  0.6464 -2.8132  0.8032
    7CHL1   C14  460   2.489   5.455   9.536 -0.0928  0.8202  0.3521
    7CHL1   H14  461   2.379   5.472   9.541  0.0410  1.4388  1.4577
    7CHL1   C15  462   2.510   5.329   9.447 -0.2534  0.7606 -0.3298
    7CHL1  H15A  463   2.607   5.278   9.467  0.4321  2.0993 -0.0649
    7CHL1  H15B  464   2.426   5.258   9.452  0.3053  0.0554 -0.7531
    7CHL1   C16  465   2.505   5.382   9.298  0.2100  0.4400 -0.0503
    7CHL1  H16A  466   2.601   5.362   9.246  0.9530  1.1430  0.9982
    7CHL1  H16B  467   2.416   5.327   9.259 -0.0221  0.1186  0.9014
    7CHL1   C17  468   2.486   5.535   9.315  0.1876 -0.0600  0.1538
    7CHL1   H17  469   2.377   5.550   9.325  0.1672  0.3950 -0.6438
    7CHL1   C13  470   2.543   5.573   9.455  0.9485  0.7952  1.1796
    7CHL1   C18  471   2.695   5.570   9.463 -0.7332 -1.0103 -0.0096
    7CHL1  H18A  472   2.735   5.472   9.428  3.8053 -0.0944  1.8348
    7CHL1  H18B  473   2.748   5.650   9.406 -1.1582 -2.2478 -2.2907
    7CHL1  H18C  474   2.731   5.582   9.567  1.0190 -1.7529 -0.4820
    7CHL1   C12  475   2.476   5.691   9.523  0.2515  0.1341 -0.0490
    7CHL1  H12A  476   2.530   5.779   9.482  0.6635 -0.2843 -0.4240
    7CHL1  H12B  477   2.369   5.704   9.500  0.4512  0.0488 -1.0708
    7CHL1   C11  478   2.487   5.700   9.679  0.1377  0.8332  0.0432
    7CHL1  H11A  479   2.591   5.738   9.691  0.5091 -0.2981  0.5637
    7CHL1  H11B  480   2.414   5.772   9.721  0.2185  0.7804  0.2750
    7CHL1    C9  481   2.467   5.567   9.760  0.1671 -0.3485 -0.6634
    7CHL1    H9  482   2.358   5.546   9.764  0.5898 -2.5643  2.0636
    7CHL1   C10  483   2.500   5.562   9.914  0.6767  0.1270  0.5244
    7CHL1   C19  484   2.644   5.612   9.928  0.0726 -0.1550 -0.3425
    7CHL1  H19A  485   2.645   5.710   9.877  1.2180  0.4230  0.7323
    7CHL1  H19B  486   2.665   5.624  10.036  2.0354 -0.3563 -0.6547
    7CHL1  H19C  487   2.725   5.554   9.877  3.1703  2.4347  1.2876
    7CHL1    C1  488   2.403   5.661   9.983 -0.4459 -0.2010  0.3801
    7CHL1   H1A  489   2.421   5.765   9.948 -1.3826 -0.6907 -1.7686
    7CHL1   H1B  490   2.305   5.658   9.931  0.4494  0.5907 -1.4701
    7CHL1    C2  491   2.396   5.660  10.130  0.4164  0.7035  0.8877
    7CHL1   H2A  492   2.312   5.721  10.172 -0.9766 -0.8957  0.5191
    7CHL1   H2B  493   2.493   5.697  10.169  1.7198 -3.2222  1.7520
    7CHL1   C20  494   2.542   5.611   9.190 -0.7291 -0.2590  0.1698
    7CHL1   H20  495   2.651   5.593   9.197 -1.1329 -2.9192  0.5415
    7CHL1   C21  496   2.517   5.758   9.195  0.1087 -0.9204  0.2311
    7CHL1  H21A  497   2.429   5.793   9.254  0.6500 -2.4171  2.0394
    7CHL1  H21B  498   2.515   5.788   9.088 -1.3908 -2.0613 -0.0952
    7CHL1  H21C  499   2.601   5.806   9.249 -0.4693  0.9589 -0.4662
    7CHL1   C22  500   2.500   5.545   9.055  0.5071 -0.0069 -1.1511
    7CHL1  H22A  501   2.552   5.607   8.978 -0.0954  1.2131 -0.5992
    7CHL1  H22B  502   2.529   5.438   9.047 -0.8714 -0.7686  2.4575
    7CHL1   C23  503   2.347   5.550   9.019 -0.4257  0.4690 -0.4019
    7CHL1  H23A  504   2.291   5.486   9.091 -4.8472 -1.3844 -4.8257
    7CHL1  H23B  505   2.301   5.651   9.023  1.4895  1.3810 -0.4225
    7CHL1   C24  506   2.318   5.502   8.869 -0.0107  0.0478  0.5848
    7CHL1  H24A  507   2.379   5.561   8.797 -0.5807 -0.0514  0.0096
    7CHL1  H24B  508   2.345   5.395   8.879  0.8416 -0.0902 -2.2081
    7CHL1   C25  509   2.173   5.509   8.835  1.3644 -0.0499 -0.1743
    7CHL1   H25  510   2.130   5.494   8.936  0.2821 -0.3852 -0.6788
    7CHL1   C26  511   2.123   5.649   8.785 -0.4408 -0.0937 -0.4679
    7CHL1  H26A  512   2.166   5.722   8.857 -0.0450  1.0047 -1.7700
    7CHL1  H26B  513   2.162   5.668   8.682  1.3974 -1.7758 -0.1559
    7CHL1  H26C  514   2.013   5.647   8.778 -0.4666 -3.2304 -0.4537
    7CHL1   C27  515   2.120   5.400   8.732  0.1133  0.5713  0.3136
    7CHL1  H27A  516   2.175   5.410   8.636 -1.2903  0.8082 -0.4989
    7CHL1  H27B  517   2.145   5.304   8.782  0.3770  0.3313 -0.2713
    7CHL1  H27C  518   2.012   5.417   8.713  0.1471 -0.2105 -0.6701
    8CHL1    C3  519   1.228   0.188  10.556  0.1915 -0.0765 -0.1889
    8CHL1    H3  520   1.337   0.164  10.557  0.3397  0.5187 -1.1135
    8CHL1    O3  521   1.187   0.180  10.693  0.0282 -0.3051  0.0513
    8CHL1   H3'  522   1.133   0.259  10.704  1.2086  0.6212 -0.4338
    8CHL1    C4  523   1.220   0.332  10.498  0.1041 -0.0611 -0.1316
    8CHL1   H4A  524   1.118   0.374  10.514  1.1816  1.8914  2.3286
    8CHL1   H4B  525   1.273   0.407  10.561 -0.4723  1.1862 -1.0773
    8CHL1    C5  526   1.242   0.348  10.349 -0.6574 -0.2231 -0.1130
    8CHL1    C6  527   1.336   0.438  10.306  0.0319 -0.0164  0.0857
    8CHL1    H6  528   1.398   0.497  10.376  0.1899  2.2419 -1.8302
    8CHL1    C7  529   1.372   0.440  10.160 -0.3708 -0.3060  0.5285
    8CHL1   H7A  530   1.368   0.544  10.123 -0.1097 -0.1777  0.8528
    8CHL1   H7B  531   1.474   0.394  10.156 -1.2349 -2.5705  2.1198
    8CHL1    C8  532   1.276   0.369  10.061  0.0805  0.2970  0.7948
    8CHL1    H8  533   1.183   0.425  10.040 -1.7866 -2.6923  0.5212
    8CHL1   C14  534   1.344   0.351   9.920 -0.3308 -0.6958  0.9556
    8CHL1   H14  535   1.436   0.294   9.945  0.1783 -0.7566 -0.8639
    8CHL1   C15  536   1.395   0.470   9.844  0.0786 -0.3768 -0.5151
    8CHL1  H15A  537   1.334   0.558   9.876  1.0228 -0.4736  1.7562
    8CHL1  H15B  538   1.497   0.480   9.886  0.7234 -1.7336 -1.6771
    8CHL1   C16  539   1.394   0.440   9.693  0.1621  0.2019  0.0204
    8CHL1  H16A  540   1.324   0.512   9.643 -0.4155 -1.2349 -1.3578
    8CHL1  H16B  541   1.494   0.436   9.646  0.6625 -3.7597  1.0863
    8CHL1   C17  542   1.335   0.294   9.687  0.4005  0.4565  0.0478
    8CHL1   H17  543   1.416   0.220   9.708 -1.5789 -1.3480  1.8883
    8CHL1   C13  544   1.249   0.276   9.816 -0.1185 -0.3995 -0.9357
    8CHL1   C18  545   1.117   0.348   9.798  0.2079  0.0449 -0.2485
    8CHL1  H18A  546   1.131   0.453   9.764 -1.2239  0.5863  0.7452
    8CHL1  H18B  547   1.048   0.302   9.724  0.0939 -0.9224  0.4455
    8CHL1  H18C  548   1.051   0.356   9.887 -1.2472  2.7028 -1.4598
    8CHL1   C12  549   1.233   0.135   9.871 -0.7596  0.1635  0.7607
    8CHL1  H12A  550   1.164   0.080   9.803 -2.2181  0.2329  2.1504
    8CHL1  H12B  551   1.334   0.087   9.870 -0.4664  0.7748  0.6178
    8CHL1   C11  552   1.183   0.134  10.017 -0.0838 -0.9581 -0.8099
    8CHL1  H11A  553   1.078   0.167  10.008  0.2531  0.1196 -1.0559
    8CHL1  H11B  554   1.192   0.028  10.048  0.7997 -1.1505 -1.6591
    8CHL1    C9  555   1.251   0.231  10.119 -0.6475  0.9974 -0.3220
    8CHL1    H9  556   1.349   0.188  10.147 -0.5244  0.8999 -0.8990
    8CHL1   C10  557   1.179   0.242  10.261 -0.6311 -0.1174  0.0699
    8CHL1   C19  558   1.027   0.284  10.248 -0.8136  0.4383  0.5363
    8CHL1  H19A  559   0.977   0.211  10.182 -1.0935  0.9383  0.1876
    8CHL1  H19B  560   0.969   0.273  10.342 -1.3031 -0.1385  0.1700
    8CHL1  H19C  561   1.034   0.384  10.200  1.4070 -0.0499 -0.3009
    8CHL1    C1  562   1.187   0.104  10.323  0.2764  0.6545  0.1556
    8CHL1   H1A  563   1.135   0.026  10.263  0.4096 -0.9371  2.0230
    8CHL1   H1B  564   1.293   0.072  10.319  0.4784  1.3908 -1.3507
    8CHL1    C2  565   1.149   0.089  10.472 -0.6288 -0.1541  0.1435
    8CHL1   H2A  566   1.170  -0.012  10.514 -0.3548  0.6275  1.9949
    8CHL1   H2B  567   1.038   0.097  10.478 -0.9247 -3.2712  0.8408
    8CHL1   C20  568   1.278   0.269   9.542 -0.6516  0.2288  0.2562
    8CHL1   H20  569   1.197   0.344   9.532 -0.5412  0.3563  0.3146
    8CHL1   C21  570   1.232   0.121   9.529  0.0404 -0.0323  0.2718
    8CHL1  H21A  571   1.318   0.055   9.553  0.1833 -0.9528 -2.4844
    8CHL1  H21B  572   1.178   0.104   9.433 -0.3769  2.1564  0.0697
    8CHL1  H21C  573   1.155   0.112   9.609  1.6454  0.5503  1.9599
    8CHL1   C22  574   1.385   0.301   9.423 -0.1726  0.3726  0.2379
    8CHL1  H22A  575   1.444   0.391   9.453  1.5847 -0.1590 -1.4080
    8CHL1  H22B  576   1.457   0.217   9.410 -0.1241  0.4010  0.3163
    8CHL1   C23  577   1.335   0.325   9.283  1.0436  0.6712 -0.1399
    8CHL1  H23A  578   1.269   0.239   9.257 -1.1596  1.9902  0.7715
    8CHL1  H23B  579   1.266   0.411   9.278 -1.2049 -1.0580 -0.7865
    8CHL1   C24  580   1.439   0.351   9.179 -0.0920 -0.4789  0.5179
    8CHL1  H24A  581   1.499   0.441   9.205 -1.7331  0.9386 -0.4081
    8CHL1  H24B  582   1.504   0.261   9.177 -0.2322 -0.5661 -0.2243
    8CHL1   C25  583   1.374   0.373   9.035 -0.6698 -0.6115 -0.3707
    8CHL1   H25  584   1.281   0.312   9.031 -2.1322  1.5341 -0.8792
    8CHL1   C26  585   1.329   0.520   9.025 -0.5809  0.9155 -0.2132
    8CHL1  H26A  586   1.286   0.547   8.926 -0.0376  0.7856 -0.4868
    8CHL1  H26B  587   1.263   0.553   9.108 -0.4108  1.0659 -0.1383
    8CHL1  H26C  588   1.417   0.587   9.032 -1.2102  1.7101  0.3281
    8CHL1   C27  589   1.478   0.332   8.927  0.5382  0.0031  0.1562
    8CHL1  H27A  590   1.559   0.408   8.918  0.0597  0.6776  1.2930
    8CHL1  H27B  591   1.527   0.236   8.952  0.4570  0.1383  0.8781
    8CHL1  H27C  592   1.423   0.323   8.832  2.9754 -1.6948 -1.2072
    9CHL1    C3  593   5.627   2.054  10.214 -0.6045  0.4986 -0.6999
    9CHL1    H3  594   5.738   2.063  10.226 -0.6883 -1.3769  3.2628
    9CHL1    O3  595   5.582   2.031  10.346  0.4053  0.2405 -0.1008
    9CHL1   H3'  596   5.489   2.009  10.335  0.0851  1.7494 -0.6873
    9CHL1    C4  597   5.550   2.175  10.168 -0.7522 -0.6969 -0.3072
    9CHL1   H4A  598   5.443   2.151  10.184 -0.8847  0.5688  0.9029
    9CHL1   H4B  599   5.584   2.259  10.233 -0.0798 -2.5042  1.7991
    9CHL1    C5  600   5.562   2.198  10.020 -0.3930  0.8019 -0.1302
    9CHL1    C6  601   5.608   2.307   9.972 -0.0974 -0.0721  0.2005
    9CHL1    H6  602   5.627   2.386  10.046  0.9589  0.4831 -0.6319
    9CHL1    C7  603   5.630   2.341   9.832 -0.1703  0.0764 -0.0779
    9CHL1   H7A  604   5.583   2.440   9.812  2.5113  1.4310 -0.2106
    9CHL1   H7B  605   5.739   2.351   9.812 -0.1072 -1.0011 -0.3576
    9CHL1    C8  606   5.569   2.243   9.735 -0.0736  0.6850  0.7818
    9CHL1    H8  607   5.460   2.265   9.731 -0.1010  0.3993 -0.4997
    9CHL1   C14  608   5.631   2.253   9.594 -0.6474  0.3423  0.5179
    9CHL1   H14  609   5.733   2.209   9.593  0.2961  2.2827  2.8111
    9CHL1   C15  610   5.658   2.388   9.525 -0.3626  0.0333 -0.2732
    9CHL1  H15A  611   5.570   2.456   9.517 -0.9719 -0.7712 -0.6445
    9CHL1  H15B  612   5.735   2.443   9.583  0.4462  0.6971 -1.9196
    9CHL1   C16  613   5.699   2.340   9.390 -0.5541 -1.1243  0.9716
    9CHL1  H16A  614   5.642   2.401   9.316 -0.1161 -2.0887 -0.2047
    9CHL1  H16B  615   5.808   2.357   9.373 -1.0571  1.8519  0.1554
    9CHL1   C17  616   5.664   2.198   9.359 -0.7657  0.4012 -0.0147
    9CHL1   H17  617   5.759   2.145   9.385  0.0024  1.9236  0.3682
    9CHL1   C13  618   5.576   2.160   9.485 -0.2923  0.0446 -0.1967
    9CHL1   C18  619   5.431   2.196   9.446  0.0181 -0.2445  0.2372
    9CHL1  H18A  620   5.368   2.203   9.537  1.0257 -0.1925  0.9379
    9CHL1  H18B  621   5.429   2.295   9.396 -2.4479  0.0731  0.8128
    9CHL1  H18C  622   5.383   2.117   9.384  1.4000 -0.2783 -0.8400
    9CHL1   C12  623   5.589   2.011   9.539 -0.4512  1.5740  0.4458
    9CHL1  H12A  624   5.543   1.933   9.475 -2.3163  1.7415  1.5130
    9CHL1  H12B  625   5.699   2.004   9.552 -0.4916 -0.0849  0.0580
    9CHL1   C11  626   5.532   1.989   9.680  0.5821 -0.3777  0.2039
    9CHL1  H11A  627   5.422   1.995   9.670  0.6160  0.7790  0.4169
    9CHL1  H11B  628   5.569   1.887   9.706  1.4877 -0.4156 -1.1185
    9CHL1    C9  629   5.584   2.094   9.785  0.5893  0.8060  0.4680
    9CHL1    H9  630   5.692   2.068   9.794  0.4168  0.3537  1.3086
    9CHL1   C10  631   5.529   2.071   9.933  0.0502  0.4215 -0.0640
    9CHL1   C19  632   5.372   2.053   9.929 -0.1606 -0.0798 -0.9190
    9CHL1  H19A  633   5.356   1.959   9.871 -2.2142  0.3797 -1.1695
    9CHL1  H19B  634   5.325   2.038  10.028  0.7262 -2.6146 -0.8062
    9CHL1  H19C  635   5.325   2.133   9.868 -0.1460  1.0614  0.5179
    9CHL1    C1  636   5.599   1.945   9.986 -0.5589 -0.1981 -0.2928
    9CHL1   H1A  637   5.553   1.854   9.944 -0.0003 -1.1042  1.0033
    9CHL1   H1B  638   5.710   1.944   9.977 -0.4454 -2.6299  0.7309
    9CHL1    C2  639   5.579   1.925  10.136  0.1048 -0.1543  0.1311
    9CHL1   H2A  640   5.628   1.832  10.174 -1.8339 -0.1327  3.0305
    9CHL1   H2B  641   5.471   1.914  10.157  0.2800  0.5783  1.5286
    9CHL1   C20  642   5.616   2.169   9.219  0.4387 -0.7948  0.0387
    9CHL1   H20  643   5.519   2.219   9.195  0.4520 -0.3622  0.8669
    9CHL1   C21  644   5.601   2.018   9.205  0.0630 -0.0235  0.2830
    9CHL1  H21A  645   5.686   1.977   9.264 -1.0624  1.4203  3.1252
    9CHL1  H21B  646   5.614   1.969   9.106  0.7014 -3.3699  1.8853
    9CHL1  H21C  647   5.509   1.979   9.255  1.2306 -1.7797  1.1808
    9CHL1   C22  648   5.712   2.203   9.102  0.6436  0.0422  0.3643
    9CHL1  H22A  649   5.766   2.300   9.109 -2.0626  1.8320 -1.6500
    9CHL1  H22B  650   5.794   2.129   9.114  0.2463 -0.0811  2.9905
    9CHL1   C23  651   5.656   2.196   8.961  1.3626  0.1280  0.8609
    9CHL1  H23A  652   5.600   2.102   8.941  0.2057  0.4071  2.5970
    9CHL1  H23B  653   5.579   2.275   8.950  0.8417  0.0475  3.2896
    9CHL1   C24  654   5.768   2.223   8.863 -0.0492 -0.1965 -0.1310
    9CHL1  H24A  655   5.831   2.302   8.911  0.3253  1.9555 -3.7725
    9CHL1  H24B  656   5.830   2.131   8.867 -0.4897 -0.5215 -0.6933
    9CHL1   C25  657   5.736   2.274   8.718  0.9146  0.2396 -0.2754
    9CHL1   H25  658   5.680   2.192   8.668  0.6411 -0.2929  0.8493
    9CHL1   C26  659   5.645   2.393   8.719  0.6851  0.7232 -0.0595
    9CHL1  H26A  660   5.622   2.423   8.615 -4.0082 -1.0533  0.2338
    9CHL1  H26B  661   5.553   2.373   8.778  1.5387 -0.6890  0.8711
    9CHL1  H26C  662   5.708   2.470   8.769 -0.9827  1.9220  0.2652
    9CHL1   C27  663   5.865   2.300   8.634 -0.0737 -0.9315  0.6019
    9CHL1  H27A  664   5.834   2.316   8.529  0.9392 -1.9033  0.1330
    9CHL1  H27B  665   5.914   2.391   8.675  1.4915 -0.1520 -2.6610
    9CHL1  H27C  666   5.931   2.211   8.640  0.4483 -0.6831 -0.9963
   10CHL1    C3  667   2.871   5.084  10.138 -0.1164 -0.7822  0.5711
   10CHL1    H3  668   2.849   4.975  10.131  0.6977 -0.8590 -1.5931
   10CHL1    O3  669   2.861   5.126  10.270  0.1016 -0.3382 -0.7414
   10CHL1   H3'  670   2.897   5.049  10.315 -0.7364 -0.3272 -0.0164
   10CHL1    C4  671   3.015   5.116  10.085  0.4515 -0.2952 -0.1386
   10CHL1   H4A  672   3.046   5.219  10.111 -0.3220 -0.6564  2.6047
   10CHL1   H4B  673   3.089   5.056  10.143  1.3995  0.7330 -0.2432
   10CHL1    C5  674   3.033   5.098   9.935 -0.2495 -0.5316 -0.3018
   10CHL1    C6  675   3.128   5.017   9.892  0.3984 -0.6472 -0.3485
   10CHL1    H6  676   3.194   4.971   9.966  0.7902 -0.6093 -0.6681
   10CHL1    C7  677   3.154   5.008   9.742 -0.2397  0.3500 -0.2093
   10CHL1   H7A  678   3.264   5.004   9.728 -0.0196 -1.1387  1.6068
   10CHL1   H7B  679   3.117   4.914   9.696  0.6967  0.0949 -0.4738
   10CHL1    C8  680   3.083   5.114   9.660 -0.0726 -0.2323 -0.0277
   10CHL1    H8  681   3.131   5.213   9.667  1.1599 -0.8347  0.2386
   10CHL1   C14  682   3.080   5.073   9.511 -0.5443 -0.3540 -0.3725
   10CHL1   H14  683   3.022   4.978   9.507 -2.5579  0.8616 -1.1020
   10CHL1   C15  684   3.213   5.041   9.437  0.1106  0.1711 -0.9907
   10CHL1  H15A  685   3.293   5.113   9.466  0.0215 -0.1679  0.1468
   10CHL1  H15B  686   3.242   4.938   9.465 -0.5621  0.5605  1.3172
   10CHL1   C16  687   3.173   5.061   9.287 -0.4646 -0.3827  0.3945
   10CHL1  H16A  688   3.252   5.128   9.247 -2.2172  1.0745 -0.7486
   10CHL1  H16B  689   3.183   4.963   9.234  0.1326  0.8179 -1.8219
   10CHL1   C17  690   3.027   5.116   9.274  0.2646 -0.2083 -0.9984
   10CHL1   H17  691   2.960   5.028   9.265  0.9835 -0.8790  0.0720
   10CHL1   C13  692   3.007   5.176   9.416  0.1524 -0.0095  0.5186
   10CHL1   C18  693   3.066   5.314   9.409 -0.2450 -0.4824  0.3775
   10CHL1  H18A  694   3.172   5.305   9.376 -0.9158 -2.6562 -1.4050
   10CHL1  H18B  695   3.003   5.385   9.351 -1.2051 -2.1202 -0.6280
   10CHL1  H18C  696   3.083   5.363   9.508  1.5438  0.0895 -0.1631
   10CHL1   C12  697   2.860   5.188   9.456  0.4684  0.4264  0.1929
   10CHL1  H12A  698   2.802   5.269   9.407  1.8689  1.1759 -0.2843
   10CHL1  H12B  699   2.824   5.085   9.434  2.0285 -0.0567 -0.2263
   10CHL1   C11  700   2.851   5.224   9.611 -0.0695 -0.1576 -0.0342
   10CHL1  H11A  701   2.894   5.324   9.629  0.9153 -0.6800  0.6421
   10CHL1  H11B  702   2.744   5.215   9.639  0.0966 -0.7110  0.4286
   10CHL1    C9  703   2.938   5.132   9.701 -0.3141 -0.4862  0.5474
   10CHL1    H9  704   2.891   5.034   9.678 -1.7051  0.3905 -0.4947
   10CHL1   C10  705   2.928   5.163   9.849 -0.7814 -0.4127  0.5370
   10CHL1   C19  706   2.960   5.318   9.877  0.4637  0.0440  0.2751
   10CHL1  H19A  707   2.900   5.389   9.817  0.9541 -0.5447 -0.9729
   10CHL1  H19B  708   2.939   5.341   9.983  1.3308 -1.2728  0.7578
   10CHL1  H19C  709   3.064   5.351   9.855 -0.0898  0.5193 -1.8657
   10CHL1    C1  710   2.781   5.137   9.900  0.1566  0.2071 -0.2475
   10CHL1   H1A  711   2.707   5.198   9.844 -0.3968 -1.2696 -1.1993
   10CHL1   H1B  712   2.754   5.029   9.894 -0.6109  0.3847 -0.0849
   10CHL1    C2  713   2.764   5.164  10.057 -0.7789 -0.0320 -0.1738
   10CHL1   H2A  714   2.669   5.122  10.096  0.4393 -0.0881  3.0582
   10CHL1   H2B  715   2.766   5.273  10.076  0.1167 -0.0546 -0.0705
   10CHL1   C20  716   3.008   5.202   9.148  0.4138  0.0882  0.8733
   10CHL1   H20  717   3.080   5.287   9.146 -0.0691  0.4942 -1.2184
   10CHL1   C21  718   2.862   5.257   9.143 -0.0349  0.1169  0.8362
   10CHL1  H21A  719   2.832   5.266   9.036  0.6671 -2.2853  0.4002
   10CHL1  H21B  720   2.844   5.350   9.202  1.8629 -0.1346  1.8881
   10CHL1  H21C  721   2.789   5.177   9.165  1.0086 -0.7679  1.1399
   10CHL1   C22  722   3.041   5.118   9.019 -0.0657 -0.0585 -0.4935
   10CHL1  H22A  723   3.024   5.182   8.930 -2.4131 -0.9409 -0.7618
   10CHL1  H22B  724   3.148   5.088   9.024  0.4415  1.6905 -0.2213
   10CHL1   C23  725   2.964   4.988   9.001  0.2805 -0.3656 -0.2640
   10CHL1  H23A  726   2.995   4.913   9.075 -0.1640 -2.3076 -1.9513
   10CHL1  H23B  727   2.857   5.007   9.022 -0.1096 -2.1334 -0.4984
   10CHL1   C24  728   2.979   4.921   8.861 -0.2762 -1.3795 -0.5390
   10CHL1  H24A  729   2.907   4.962   8.787  0.5141  1.5643  0.1900
   10CHL1  H24B  730   3.078   4.953   8.821 -1.2176  1.1520 -1.0248
   10CHL1   C25  731   2.981   4.767   8.860  0.3923  0.3379  0.7392
   10CHL1   H25  732   3.071   4.739   8.918  0.3799 -0.4416  0.4005
   10CHL1   C26  733   2.856   4.691   8.918  0.0612 -0.1197  0.3568
   10CHL1  H26A  734   2.870   4.583   8.897  2.3185  0.3694 -1.0596
   10CHL1  H26B  735   2.856   4.704   9.028  0.8342  2.4289  0.1222
   10CHL1  H26C  736   2.763   4.730   8.872 -0.6717  1.6902  3.1680
   10CHL1   C27  737   2.999   4.727   8.713 -0.3650  0.9418  0.0913
   10CHL1  H27A  738   2.914   4.763   8.651 -0.3949 -0.7498 -0.9064
   10CHL1  H27B  739   3.092   4.768   8.670  0.8773 -0.3124  1.4476
   10CHL1  H27C  740   3.010   4.617   8.705  2.5042  1.0738  1.1765
   11CHL1    C3  741   6.401   4.701  10.113 -0.3900 -0.7537  0.4879
   11CHL1    H3  742   6.320   4.645  10.063  0.1655  1.0262 -2.6645
   11CHL1    O3  743   6.388   4.682  10.253  0.5348 -0.2062  0.2643
   11CHL1   H3'  744   6.480   4.670  10.280  0.4208  0.4909  0.9978
   11CHL1    C4  745   6.529   4.629  10.066  0.0957  0.5005 -0.0849
   11CHL1   H4A  746   6.613   4.677  10.119  0.2558 -0.3743  0.4813
   11CHL1   H4B  747   6.517   4.525  10.102 -1.7618  1.3292  1.8994
   11CHL1    C5  748   6.545   4.647   9.914 -0.6680  0.3501 -0.3940
   11CHL1    C6  749   6.560   4.545   9.828  0.1444  0.4697  0.0038
   11CHL1    H6  750   6.569   4.441   9.863  2.0126 -0.6977 -3.4858
   11CHL1    C7  751   6.592   4.567   9.685  0.2146 -0.2792 -0.7751
   11CHL1   H7A  752   6.693   4.522   9.678  0.3840 -0.2293  0.9098
   11CHL1   H7B  753   6.528   4.505   9.619 -0.8447  1.0639 -1.0773
   11CHL1    C8  754   6.608   4.716   9.640 -0.2007 -0.7397  0.3609
   11CHL1    H8  755   6.709   4.747   9.675 -1.1294  0.4773  2.1252
   11CHL1   C14  756   6.602   4.740   9.491  0.0516  0.2115 -0.2699
   11CHL1   H14  757   6.507   4.686   9.467  0.0690 -0.0630  0.2647
   11CHL1   C15  758   6.716   4.669   9.407  0.0692 -1.1732 -1.0633
   11CHL1  H15A  759   6.809   4.707   9.454 -1.6289  2.2260 -0.1653
   11CHL1  H15B  760   6.720   4.559   9.423 -2.5000 -1.6346 -2.8723
   11CHL1   C16  761   6.689   4.715   9.268  0.1663  0.0665  0.5261
   11CHL1  H16A  762   6.783   4.733   9.211  2.7824 -2.4227  3.6662
   11CHL1  H16B  763   6.624   4.645   9.211  0.7823 -1.4059  1.5737
   11CHL1   C17  764   6.610   4.844   9.274  0.2458 -0.1188 -0.1880
   11CHL1   H17  765   6.508   4.810   9.244  0.7071 -1.5059 -0.2655
   11CHL1   C13  766   6.609   4.878   9.426 -1.0209  0.3848 -0.0160
   11CHL1   C18  767   6.742   4.956   9.462  0.0686  0.3995 -0.1270
   11CHL1  H18A  768   6.780   4.932   9.564 -1.1002  1.0629  0.4762
   11CHL1  H18B  769   6.824   4.928   9.393 -0.2244 -1.0049  0.0528
   11CHL1  H18C  770   6.718   5.064   9.468 -1.0816  0.1228  0.5591
   11CHL1   C12  771   6.490   4.943   9.493  0.6460  0.3298 -0.3278
   11CHL1  H12A  772   6.488   5.048   9.458 -0.2147  0.4610  0.0962
   11CHL1  H12B  773   6.401   4.893   9.448  0.3084  0.7697 -0.1575
   11CHL1   C11  774   6.496   4.940   9.646  0.0846  0.1051  0.0294
   11CHL1  H11A  775   6.574   5.014   9.676 -0.1088  0.7504 -0.9940
   11CHL1  H11B  776   6.397   4.984   9.672  1.1794  1.3519  2.3788
   11CHL1    C9  777   6.508   4.801   9.711 -0.3732  0.0873  0.5368
   11CHL1    H9  778   6.409   4.762   9.682 -0.6341  2.4869 -2.2974
   11CHL1   C10  779   6.539   4.801   9.867  0.2536  0.4053 -0.3010
   11CHL1   C19  780   6.663   4.891   9.909  0.2828 -0.4943  0.3206
   11CHL1  H19A  781   6.754   4.850   9.860 -0.3006 -0.9929 -0.3615
   11CHL1  H19B  782   6.645   4.996   9.881  1.7633  0.3921  2.4459
   11CHL1  H19C  783   6.681   4.892  10.019 -1.4782  0.0790  0.6285
   11CHL1    C1  784   6.416   4.871   9.928 -0.1907 -0.4006  0.5026
   11CHL1   H1A  785   6.415   4.977   9.895  1.6037 -0.5730 -0.2591
   11CHL1   H1B  786   6.325   4.824   9.887  0.3380 -4.0452  3.0165
   11CHL1    C2  787   6.410   4.849  10.082 -0.0954 -0.6325 -0.1301
   11CHL1   H2A  788   6.317   4.905  10.109 -0.4050 -1.1045 -0.2213
   11CHL1   H2B  789   6.491   4.893  10.144 -1.3822 -0.4440  1.5217
   11CHL1   C20  790   6.634   4.962   9.177  0.2794 -0.2475  0.5837
   11CHL1   H20  791   6.722   5.025   9.204 -0.8443  0.3505  3.1261
   11CHL1   C21  792   6.514   5.059   9.185  0.1229  0.7641 -0.6243
   11CHL1  H21A  793   6.419   5.001   9.175  1.3749 -1.7398  0.9473
   11CHL1  H21B  794   6.518   5.133   9.103 -0.6680  0.9682 -0.4900
   11CHL1  H21C  795   6.516   5.116   9.280 -3.1730  1.4774 -0.8562
   11CHL1   C22  796   6.661   4.909   9.029  0.5996 -0.5721  0.2312
   11CHL1  H22A  797   6.686   5.000   8.970 -0.5175 -0.2615  0.2026
   11CHL1  H22B  798   6.749   4.841   9.029  1.1357  0.0979  1.6544
   11CHL1   C23  799   6.541   4.834   8.960  0.2497  0.3392  0.2226
   11CHL1  H23A  800   6.522   4.749   9.029 -1.0422  1.4969  1.3628
   11CHL1  H23B  801   6.453   4.902   8.965 -0.4095 -0.5655  1.1663
   11CHL1   C24  802   6.577   4.779   8.824 -0.1639  0.0446 -0.3187
   11CHL1  H24A  803   6.677   4.732   8.815  0.4510  1.2008  0.3368
   11CHL1  H24B  804   6.499   4.705   8.796 -2.8728  2.1194  1.2659
   11CHL1   C25  805   6.589   4.892   8.717  0.1606 -0.1100  0.2769
   11CHL1   H25  806   6.657   4.970   8.757 -0.6592  1.1698 -0.7252
   11CHL1   C26  807   6.648   4.829   8.588  0.2558  0.2952  0.4904
   11CHL1  H26A  808   6.578   4.748   8.558 -1.7653  1.9578  0.5620
   11CHL1  H26B  809   6.652   4.907   8.510  1.0629 -0.1938  0.0218
   11CHL1  H26C  810   6.748   4.790   8.617  0.4745  0.5606  0.1064
   11CHL1   C27  811   6.459   4.972   8.689  0.6092 -0.6292 -0.0478
   11CHL1  H27A  812   6.410   4.999   8.785  0.2055 -2.0775  0.1722
   11CHL1  H27B  813   6.474   5.064   8.628 -2.2449 -1.7697 -2.7762
   11CHL1  H27C  814   6.384   4.915   8.630  0.9171  0.0362 -1.1128
   12CHL1    C3  815   1.448   1.370  10.460  0.0466 -0.0651  0.7631
   12CHL1    H3  816   1.424   1.262  10.468 -2.0020  0.2400 -0.4639
   12CHL1    O3  817   1.493   1.400  10.592 -0.6444 -0.3696 -0.0664
   12CHL1   H3'  818   1.482   1.495  10.599 -3.1588 -0.5017 -1.1935
   12CHL1    C4  819   1.556   1.395  10.356  1.4093 -0.2520  0.0463
   12CHL1   H4A  820   1.603   1.496  10.365  1.1548 -0.1006 -0.2758
   12CHL1   H4B  821   1.629   1.321  10.394 -0.3174 -1.8036  0.4665
   12CHL1    C5  822   1.505   1.372  10.214  1.0109  0.0421  0.1570
   12CHL1    C6  823   1.571   1.293  10.128 -0.5884  0.2632 -0.5713
   12CHL1    H6  824   1.661   1.243  10.166 -1.3749 -1.6554 -1.0677
   12CHL1    C7  825   1.540   1.276   9.982  0.6172 -0.3163 -0.1167
   12CHL1   H7A  826   1.632   1.284   9.919  1.0992  1.0209  0.7199
   12CHL1   H7B  827   1.503   1.172   9.970 -3.2108  0.4721  2.8266
   12CHL1    C8  828   1.442   1.381   9.927 -0.1736 -0.2219  0.2272
   12CHL1    H8  829   1.492   1.479   9.910 -0.8371 -0.4257 -3.7907
   12CHL1   C14  830   1.387   1.324   9.792  0.0879 -0.0245 -0.2646
   12CHL1   H14  831   1.327   1.234   9.818  1.6525 -0.9885  0.1218
   12CHL1   C15  832   1.480   1.278   9.683  0.3408 -0.3474  0.4089
   12CHL1  H15A  833   1.560   1.355   9.675 -3.3761  3.8732 -0.4677
   12CHL1  H15B  834   1.531   1.181   9.697  3.0447  0.7642 -0.9127
   12CHL1   C16  835   1.400   1.283   9.554 -0.7936  0.4113 -0.2594
   12CHL1  H16A  836   1.447   1.355   9.483  1.6895 -0.7020  0.1479
   12CHL1  H16B  837   1.395   1.181   9.510  2.0862 -0.1334  0.4416
   12CHL1   C17  838   1.269   1.344   9.594  0.0223 -0.5758 -0.2658
   12CHL1   H17  839   1.197   1.265   9.622 -1.1901 -0.4025 -2.6867
   12CHL1   C13  840   1.286   1.423   9.724  0.5586 -0.4476 -0.4227
   12CHL1   C18  841   1.359   1.560   9.694 -0.2130  0.2111 -0.2680
   12CHL1  H18A  842   1.453   1.546   9.636  0.4012  4.0503 -0.5088
   12CHL1  H18B  843   1.289   1.622   9.635 -0.9250 -0.4861 -0.1668
   12CHL1  H18C  844   1.390   1.608   9.790 -1.0068  1.7632 -0.7537
   12CHL1   C12  845   1.162   1.437   9.816  0.5167 -0.0745  0.0398
   12CHL1  H12A  846   1.088   1.508   9.775 -0.6084 -1.4625 -0.4158
   12CHL1  H12B  847   1.127   1.331   9.810  0.0949  0.0907 -0.4769
   12CHL1   C11  848   1.208   1.483   9.961 -0.3649 -0.7714 -0.9614
   12CHL1  H11A  849   1.240   1.588   9.942 -2.2111 -0.0283 -0.2642
   12CHL1  H11B  850   1.122   1.480  10.031 -0.3948 -0.2510 -0.9725
   12CHL1    C9  851   1.327   1.395  10.028 -0.1920  0.0585 -0.0157
   12CHL1    H9  852   1.286   1.294  10.047  1.0700 -0.7892 -1.4871
   12CHL1   C10  853   1.372   1.443  10.179 -0.0604 -0.4597 -0.3665
   12CHL1   C19  854   1.400   1.591  10.162  0.5522 -0.0021  0.0357
   12CHL1  H19A  855   1.305   1.634  10.124 -0.0002 -3.3499 -2.8755
   12CHL1  H19B  856   1.416   1.645  10.258 -2.2881  2.8988 -0.9281
   12CHL1  H19C  857   1.481   1.616  10.090 -0.0400  0.0202 -0.6319
   12CHL1    C1  858   1.265   1.425  10.292 -0.5357 -0.2944 -1.0108
   12CHL1   H1A  859   1.176   1.483  10.262 -2.3793 -1.5419  1.6982
   12CHL1   H1B  860   1.248   1.315  10.290  0.9542 -0.6217  0.9757
   12CHL1    C2  861   1.315   1.455  10.437 -0.4380  0.0304 -0.3248
   12CHL1   H2A  862   1.243   1.423  10.516  0.3920 -0.0215  0.4250
   12CHL1   H2B  863   1.334   1.560  10.465  1.1825 -0.8967  2.4119
   12CHL1   C20  864   1.196   1.412   9.477 -0.7044  0.5361 -0.2739
   12CHL1   H20  865   1.260   1.493   9.437 -0.2091 -0.3643 -1.3480
   12CHL1   C21  866   1.055   1.469   9.513 -0.2758  0.2485  0.3207
   12CHL1  H21A  867   1.007   1.495   9.416  1.6791  1.3737 -0.3939
   12CHL1  H21B  868   1.071   1.562   9.572  0.3054  1.0275 -1.0177
   12CHL1  H21C  869   0.991   1.398   9.570 -0.5217 -0.1143 -0.3933
   12CHL1   C22  870   1.180   1.306   9.362  0.1244 -0.1572  0.8798
   12CHL1  H22A  871   1.264   1.233   9.365  1.6565  1.5354  1.1012
   12CHL1  H22B  872   1.084   1.251   9.368 -0.1254 -0.0852 -1.3756
   12CHL1   C23  873   1.192   1.376   9.228 -0.6857  1.1099  0.5140
   12CHL1  H23A  874   1.105   1.446   9.225 -0.5137  1.3996  1.8905
   12CHL1  H23B  875   1.281   1.443   9.221  1.8415 -2.1715 -2.0153
   12CHL1   C24  876   1.173   1.288   9.109  0.0511  0.5363 -0.1702
   12CHL1  H24A  877   1.242   1.202   9.124  0.5620  0.7147 -1.3775
   12CHL1  H24B  878   1.068   1.252   9.108  0.4168 -0.5675 -0.7994
   12CHL1   C25  879   1.206   1.345   8.971  0.3623 -0.5715 -0.4901
   12CHL1   H25  880   1.310   1.384   8.975 -0.3701  1.6331 -1.3631
   12CHL1   C26  881   1.210   1.237   8.865  0.5810 -0.1735  0.5985
   12CHL1  H26A  882   1.246   1.275   8.767  1.1893 -0.3044  0.7669
   12CHL1  H26B  883   1.278   1.154   8.895 -0.5820 -1.2039  0.4777
   12CHL1  H26C  884   1.104   1.209   8.844  1.1363 -0.8357 -1.5979
   12CHL1   C27  885   1.124   1.476   8.930 -0.4108 -0.1235  0.3126
   12CHL1  H27A  886   1.131   1.561   9.001  2.5950 -1.3146  1.6167
   12CHL1  H27B  887   1.160   1.509   8.830 -2.5446  0.9815 -0.1572
   12CHL1  H27C  888   1.015   1.455   8.921 -0.0301 -1.9728 -0.5070
   13CHL1    C3  889   2.115   0.948  10.226  0.4874  0.2892 -0.4951
   13CHL1    H3  890   2.211   1.002  10.230  1.0201 -0.5955 -0.9808
   13CHL1    O3  891   2.082   0.879  10.350 -0.3445 -0.1443  0.0751
   13CHL1   H3'  892   2.142   0.804  10.355 -0.4721 -0.1695  2.7395
   13CHL1    C4  893   1.994   1.047  10.203 -0.4029  0.2390 -0.3648
   13CHL1   H4A  894   1.903   0.989  10.231  0.3417 -0.2607  1.1447
   13CHL1   H4B  895   2.003   1.127  10.279 -2.4728 -1.4718  1.8227
   13CHL1    C5  896   2.001   1.107  10.065 -0.5163 -0.5007 -0.2176
   13CHL1    C6  897   2.019   1.236  10.040  0.1528 -0.2017  0.1047
   13CHL1    H6  898   2.034   1.304  10.125 -2.8710  1.6332 -0.6710
   13CHL1    C7  899   2.025   1.306   9.908 -0.4943  0.3500 -0.4556
   13CHL1   H7A  900   1.959   1.396   9.909 -0.7345  0.1985  1.7737
   13CHL1   H7B  901   2.126   1.350   9.893 -1.4498  2.8579  0.0381
   13CHL1    C8  902   1.989   1.207   9.795  0.3999 -0.0354 -0.2297
   13CHL1    H8  903   1.878   1.208   9.799  0.4177  1.7509  1.0668
   13CHL1   C14  904   2.034   1.269   9.671 -0.0635 -0.5191  0.6384
   13CHL1   H14  905   2.144   1.253   9.679 -0.3318 -2.4094  1.1793
   13CHL1   C15  906   2.013   1.420   9.644  0.6595  0.2691 -0.8485
   13CHL1  H15A  907   1.912   1.435   9.688  2.0906 -0.3638  3.0282
   13CHL1  H15B  908   2.082   1.487   9.699  2.3438 -2.9331  1.2180
   13CHL1   C16  909   2.031   1.437   9.493 -0.3068  0.5282 -0.5550
   13CHL1  H16A  910   1.956   1.500   9.441  0.2086  0.8036 -0.9716
   13CHL1  H16B  911   2.130   1.482   9.472  0.8014 -1.3011  0.5389
   13CHL1   C17  912   2.038   1.290   9.446 -0.1386  0.3136 -0.4396
   13CHL1   H17  913   2.146   1.264   9.456 -0.5071 -0.7480  1.1473
   13CHL1   C13  914   1.987   1.187   9.548  0.5841  0.5871 -0.1834
   13CHL1   C18  915   1.835   1.184   9.532 -0.0981  0.2231 -0.3146
   13CHL1  H18A  916   1.782   1.132   9.615  0.4178  0.1377 -0.0358
   13CHL1  H18B  917   1.798   1.289   9.538 -0.3575  0.3010 -2.4598
   13CHL1  H18C  918   1.801   1.138   9.436 -1.9622 -0.1921  0.4957
   13CHL1   C12  919   2.039   1.045   9.552  0.0985  0.7528 -0.3284
   13CHL1  H12A  920   2.005   0.995   9.459  1.4131  0.8067 -0.8612
   13CHL1  H12B  921   2.150   1.044   9.549  0.1218 -1.5952 -0.9274
   13CHL1   C11  922   1.990   0.981   9.682  0.0619 -0.6478  0.2707
   13CHL1  H11A  923   1.880   0.964   9.685 -0.3326  1.1882 -1.2578
   13CHL1  H11B  924   2.043   0.884   9.681  2.5625  0.6024 -1.6556
   13CHL1    C9  925   2.038   1.067   9.806 -0.4003 -0.5599  0.1615
   13CHL1    H9  926   2.149   1.078   9.806 -0.1735 -2.3453  1.8799
   13CHL1   C10  927   2.008   1.001   9.951  0.6057  0.8681 -0.1295
   13CHL1   C19  928   1.867   0.934   9.954 -0.0603 -0.6745  0.1407
   13CHL1  H19A  929   1.861   0.857   9.874  2.3265  0.9983 -1.7717
   13CHL1  H19B  930   1.830   0.892  10.050 -3.2753 -0.3637 -0.8558
   13CHL1  H19C  931   1.800   1.018   9.928 -0.7341 -1.0194  0.7093
   13CHL1    C1  932   2.118   0.896   9.969 -0.4920 -0.3461  0.4283
   13CHL1   H1A  933   2.105   0.819   9.890  0.0212 -0.2815  0.2793
   13CHL1   H1B  934   2.208   0.957   9.951 -1.8404  2.1108  1.5583
   13CHL1    C2  935   2.120   0.845  10.112 -0.5645 -0.4509 -0.1681
   13CHL1   H2A  936   2.216   0.794  10.136 -0.7706  0.2052  2.4599
   13CHL1   H2B  937   2.036   0.775  10.128  0.5045 -1.7592 -0.1343
   13CHL1   C20  938   2.006   1.275   9.295  0.4087  0.2287 -0.1266
   13CHL1   H20  939   1.896   1.289   9.286  0.2825 -0.5909  0.0150
   13CHL1   C21  940   2.038   1.131   9.240 -0.1360 -0.3061  0.4886
   13CHL1  H21A  941   1.967   1.050   9.265  0.6648 -0.6501  1.7618
   13CHL1  H21B  942   2.139   1.107   9.280 -0.8973 -1.6202  1.6685
   13CHL1  H21C  943   2.028   1.146   9.130 -3.4406 -0.4424  0.6944
   13CHL1   C22  944   2.075   1.382   9.207  0.0669 -0.9780  0.2972
   13CHL1  H22A  945   2.041   1.347   9.107  0.0054 -2.0195  0.6661
   13CHL1  H22B  946   2.038   1.484   9.228  1.3572 -0.9165  2.4614
   13CHL1   C23  947   2.228   1.369   9.197 -0.5312  0.0959  0.3008
   13CHL1  H23A  948   2.276   1.349   9.295 -0.6235 -1.1127  0.1051
   13CHL1  H23B  949   2.254   1.277   9.141 -1.3057  0.2782 -0.3740
   13CHL1   C24  950   2.305   1.491   9.140  0.0517 -0.3099  0.1466
   13CHL1  H24A  951   2.287   1.582   9.200 -3.5222 -0.1542 -0.9089
   13CHL1  H24B  952   2.414   1.469   9.145 -0.0805 -0.7193  1.5719
   13CHL1   C25  953   2.266   1.530   8.998  0.3662 -0.4139 -0.3321
   13CHL1   H25  954   2.158   1.550   8.987 -0.0614 -1.6810  1.2599
   13CHL1   C26  955   2.330   1.662   8.965 -0.7251 -0.4215  0.1291
   13CHL1  H26A  956   2.303   1.710   8.868  1.3335  1.9782  0.6195
   13CHL1  H26B  957   2.290   1.738   9.036 -0.4210 -1.0802  1.0231
   13CHL1  H26C  958   2.441   1.660   8.961 -0.6550  1.7667 -1.0768
   13CHL1   C27  959   2.316   1.431   8.890  0.2875 -0.1622 -0.2393
   13CHL1  H27A  960   2.421   1.401   8.911  0.1303 -0.2349  0.4770
   13CHL1  H27B  961   2.253   1.341   8.875 -0.2388  0.3425 -1.2110
   13CHL1  H27C  962   2.318   1.487   8.793  0.9404 -0.7070 -0.5462
   14CHL1    C3  963   1.273   6.500  10.365  0.4635  0.7072  0.1945
   14CHL1    H3  964   1.234   6.603  10.352 -2.6644 -0.2331  1.0412
   14CHL1    O3  965   1.291   6.472  10.502 -0.3714  0.6890  0.3935
   14CHL1   H3'  966   1.366   6.523  10.533  0.2802  0.0762 -0.1367
   14CHL1    C4  967   1.173   6.399  10.310 -0.8179 -0.1860 -0.2403
   14CHL1   H4A  968   1.201   6.295  10.335 -0.9143 -0.1398  0.0662
   14CHL1   H4B  969   1.072   6.410  10.354 -0.4829  0.8822  0.3087
   14CHL1    C5  970   1.155   6.412  10.162 -0.5417  0.8005 -0.2929
   14CHL1    C6  971   1.034   6.426  10.104  0.4431  0.1375 -0.2968
   14CHL1    H6  972   0.948   6.444  10.170  1.5257  0.3910  1.0992
   14CHL1    C7  973   1.009   6.423   9.956 -0.1608  0.0663  0.3811
   14CHL1   H7A  974   0.924   6.354   9.939 -1.2953  0.9564  2.1878
   14CHL1   H7B  975   0.976   6.524   9.923 -0.5491 -0.1251  0.1815
   14CHL1    C8  976   1.134   6.381   9.871  0.0165 -0.5891 -0.0822
   14CHL1    H8  977   1.115   6.274   9.853  0.8490 -0.7341 -0.1316
   14CHL1   C14  978   1.135   6.451   9.738  0.4790  0.0988 -0.2390
   14CHL1   H14  979   1.145   6.560   9.758  1.0318 -0.2441  1.5364
   14CHL1   C15  980   1.005   6.444   9.661  0.1513  0.0577  0.2406
   14CHL1  H15A  981   0.956   6.346   9.678  2.8196 -2.1594 -3.4105
   14CHL1  H15B  982   0.938   6.524   9.698  0.4307  0.0466  0.7940
   14CHL1   C16  983   1.040   6.459   9.514  0.4269 -0.4672  0.0318
   14CHL1  H16A  984   1.000   6.367   9.467 -1.8075  0.4900 -0.0544
   14CHL1  H16B  985   1.002   6.548   9.459 -0.4689 -0.9043 -0.0760
   14CHL1   C17  986   1.195   6.468   9.516  0.3046 -0.3852  1.1364
   14CHL1   H17  987   1.216   6.577   9.518  0.7322 -0.4394  0.0320
   14CHL1   C13  988   1.239   6.398   9.643 -0.0477  0.0037  0.3670
   14CHL1   C18  989   1.220   6.242   9.625 -0.2955  0.6592 -0.4293
   14CHL1  H18A  990   1.118   6.206   9.597 -0.9185  0.7213  1.6312
   14CHL1  H18B  991   1.294   6.202   9.552 -0.4236 -0.4924  0.0414
   14CHL1  H18C  992   1.237   6.181   9.716  0.8564 -2.4633 -2.5513
   14CHL1   C12  993   1.378   6.428   9.692  0.2609  0.2313 -0.0589
   14CHL1  H12A  994   1.454   6.376   9.629 -0.1688  0.6363 -0.9242
   14CHL1  H12B  995   1.386   6.538   9.676 -0.1877  0.2008 -0.5310
   14CHL1   C11  996   1.387   6.384   9.841 -0.3010  0.3827 -0.1071
   14CHL1  H11A  997   1.400   6.274   9.833  0.6433  0.0939  3.5252
   14CHL1  H11B  998   1.485   6.421   9.879  1.0883 -0.9190 -2.2228
   14CHL1    C9  999   1.268   6.422   9.931 -0.4419  0.1887 -0.5459
   14CHL1    H9 1000   1.269   6.533   9.936 -1.2682  0.1534  0.8111
   14CHL1   C10 1001   1.286   6.395  10.084  0.0836 -0.2229 -0.5674
   14CHL1   C19 1002   1.337   6.245  10.101  0.3066 -0.2461  0.2934
   14CHL1  H19A 1003   1.257   6.177  10.066 -1.3309  1.6370  0.2011
   14CHL1  H19B 1004   1.424   6.219  10.038 -0.5552 -2.8598  0.0639
   14CHL1  H19C 1005   1.363   6.220  10.206 -0.0276 -0.9350  0.2208
   14CHL1    C1 1006   1.395   6.487  10.144 -0.1698  1.0369  0.5193
   14CHL1   H1A 1007   1.495   6.454  10.108 -0.8800 -0.2210 -0.4066
   14CHL1   H1B 1008   1.369   6.590  10.114  1.1620  1.5257  0.9935
   14CHL1    C2 1009   1.406   6.481  10.300  0.4840  0.3517  0.1379
   14CHL1   H2A 1010   1.475   6.566  10.321  1.2821  0.0752 -1.1917
   14CHL1   H2B 1011   1.453   6.384  10.327 -0.4009 -0.0238  0.3526
   14CHL1   C20 1012   1.246   6.416   9.381 -0.0666  0.0266  0.1308
   14CHL1   H20 1013   1.220   6.311   9.357  1.3300 -0.6109  1.2199
   14CHL1   C21 1014   1.399   6.405   9.371 -0.0953  0.4319  0.3728
   14CHL1  H21A 1015   1.432   6.369   9.271 -1.3790  0.3722 -0.0458
   14CHL1  H21B 1016   1.443   6.322   9.429  2.1635  1.0844 -0.3213
   14CHL1  H21C 1017   1.455   6.501   9.382 -1.8839  1.4498  1.1015
   14CHL1   C22 1018   1.200   6.506   9.254  0.0717  0.7827 -0.1453
   14CHL1  H22A 1019   1.274   6.466   9.181  1.6667 -0.7900  2.2166
   14CHL1  H22B 1020   1.097   6.476   9.222 -0.6946  1.6043  1.4445
   14CHL1   C23 1021   1.212   6.655   9.279 -0.1345  0.0166 -0.1181
   14CHL1  H23A 1022   1.134   6.700   9.344  1.0570 -0.2103  1.5024
   14CHL1  H23B 1023   1.311   6.676   9.325 -0.2171 -0.8854  0.4814
   14CHL1   C24 1024   1.212   6.729   9.141 -0.2361 -0.5661  0.8113
   14CHL1  H24A 1025   1.117   6.705   9.088 -2.1388  0.2877  3.6234
   14CHL1  H24B 1026   1.207   6.837   9.167  4.1409 -0.8949  3.9564
   14CHL1   C25 1027   1.336   6.704   9.045  0.5860  0.2006 -0.0007
   14CHL1   H25 1028   1.333   6.596   9.021  0.5056 -0.1467  1.5105
   14CHL1   C26 1029   1.318   6.772   8.911  0.0099 -0.5829  0.4901
   14CHL1  H26A 1030   1.225   6.729   8.867 -0.3189  0.9006 -0.3137
   14CHL1  H26B 1031   1.297   6.878   8.938 -0.7051 -0.5793 -0.0409
   14CHL1  H26C 1032   1.415   6.766   8.858  0.5655 -0.0260  1.4134
   14CHL1   C27 1033   1.459   6.747   9.113 -0.1654 -0.1377 -0.8584
   14CHL1  H27A 1034   1.554   6.731   9.057 -0.2991 -0.5939 -0.9668
   14CHL1  H27B 1035   1.466   6.849   9.156  0.1322  0.0521 -1.3473
   14CHL1  H27C 1036   1.470   6.674   9.196 -1.4116 -2.0595 -2.2706
   15CHL1    C3 1037   1.626   2.141  10.277  1.2565 -0.5300 -0.7279
   15CHL1    H3 1038   1.646   2.249  10.258 -0.1671 -0.0502  0.3002
   15CHL1    O3 1039   1.644   2.111  10.417  0.7576 -0.2454 -0.2692
   15CHL1   H3' 1040   1.659   2.016  10.419 -2.3564 -0.8698  1.9758
   15CHL1    C4 1041   1.481   2.102  10.239  0.3347  0.3445 -0.4570
   15CHL1   H4A 1042   1.464   1.996  10.267 -1.5645  0.7452  0.0597
   15CHL1   H4B 1043   1.412   2.161  10.304 -1.7004 -2.9244  0.6153
   15CHL1    C5 1044   1.449   2.119  10.094 -0.2811  0.2642  0.1670
   15CHL1    C6 1045   1.346   2.188  10.048 -0.8741 -0.3462 -0.0478
   15CHL1    H6 1046   1.260   2.210  10.112 -0.6524 -1.5379  0.6825
   15CHL1    C7 1047   1.312   2.216   9.907 -0.1815 -0.3902  0.9006
   15CHL1   H7A 1048   1.206   2.217   9.875  0.3896  1.7395 -1.1470
   15CHL1   H7B 1049   1.350   2.317   9.881 -0.6555 -0.2603  0.7102
   15CHL1    C8 1050   1.379   2.116   9.809 -0.3685 -0.1708  0.2091
   15CHL1    H8 1051   1.321   2.021   9.809 -0.7772  0.0692  1.2115
   15CHL1   C14 1052   1.377   2.180   9.668 -0.5908 -0.3701 -0.9901
   15CHL1   H14 1053   1.435   2.273   9.684  1.6054 -1.3607 -2.6653
   15CHL1   C15 1054   1.238   2.234   9.619 -0.4078 -0.3135 -0.4880
   15CHL1  H15A 1055   1.155   2.165   9.645 -0.3510 -0.3822 -0.4883
   15CHL1  H15B 1056   1.209   2.333   9.660  0.9588 -0.3506  0.6789
   15CHL1   C16 1057   1.252   2.241   9.471 -0.3045  0.1325  0.1302
   15CHL1  H16A 1058   1.174   2.180   9.420 -0.1687 -1.2794  1.5414
   15CHL1  H16B 1059   1.242   2.345   9.432  1.1862 -0.1844 -1.1823
   15CHL1   C17 1060   1.395   2.184   9.437 -0.3149 -0.2285 -0.2012
   15CHL1   H17 1061   1.466   2.269   9.436  2.6600 -2.5506 -0.4736
   15CHL1   C13 1062   1.436   2.098   9.561  0.8226 -1.0724 -0.8569
   15CHL1   C18 1063   1.376   1.966   9.547  0.5867  0.8170  0.1605
   15CHL1  H18A 1064   1.425   1.906   9.468 -0.3973  0.7426 -0.4137
   15CHL1  H18B 1065   1.394   1.907   9.640 -0.4336  1.1696  0.6042
   15CHL1  H18C 1066   1.268   1.958   9.521  0.3451 -2.1906  1.6754
   15CHL1   C12 1067   1.590   2.087   9.595  0.4619  0.0323  0.4627
   15CHL1  H12A 1068   1.645   2.022   9.524  0.6585  0.7615 -0.0703
   15CHL1  H12B 1069   1.625   2.192   9.586 -0.7109  0.2562 -2.4249
   15CHL1   C11 1070   1.620   2.038   9.737 -0.8659 -0.2465 -0.6254
   15CHL1  H11A 1071   1.601   1.929   9.735 -1.1347 -0.2576  1.1713
   15CHL1  H11B 1072   1.730   2.041   9.751 -1.1157  0.3074  1.6748
   15CHL1    C9 1073   1.528   2.106   9.850  0.8108  0.1075 -0.9481
   15CHL1    H9 1074   1.558   2.213   9.860 -2.9043  1.2588 -0.8228
   15CHL1   C10 1075   1.548   2.051   9.999 -0.3490  0.1498 -0.1196
   15CHL1   C19 1076   1.515   1.898  10.004 -0.1878 -0.0098 -0.4304
   15CHL1  H19A 1077   1.414   1.878   9.961 -0.4259 -2.8798  1.2074
   15CHL1  H19B 1078   1.589   1.837   9.947 -1.1813 -0.8873 -0.8145
   15CHL1  H19C 1079   1.523   1.854  10.105 -0.7503 -0.8540 -0.7364
   15CHL1    C1 1080   1.694   2.088  10.044  0.6999 -0.8388  0.3097
   15CHL1   H1A 1081   1.757   2.023   9.978 -1.2933  1.1233 -3.8853
   15CHL1   H1B 1082   1.708   2.196  10.024  3.2349 -1.2508 -0.5698
   15CHL1    C2 1083   1.720   2.064  10.192 -0.2518  0.1367  1.0081
   15CHL1   H2A 1084   1.827   2.086  10.212 -0.3666 -0.6826  2.6831
   15CHL1   H2B 1085   1.706   1.959  10.226  2.6376 -0.1242  1.6372
   15CHL1   C20 1086   1.396   2.127   9.296 -0.2581 -0.4321  0.5121
   15CHL1   H20 1087   1.333   2.036   9.282 -0.1344 -0.5087  0.4546
   15CHL1   C21 1088   1.544   2.073   9.278  0.5987  0.0166  0.0322
   15CHL1  H21A 1089   1.615   2.158   9.294 -2.3558  2.8223 -0.6361
   15CHL1  H21B 1090   1.569   2.036   9.176 -1.9512 -2.1214  0.0873
   15CHL1  H21C 1091   1.565   1.989   9.347 -2.0050  1.4874  2.8678
   15CHL1   C22 1092   1.365   2.239   9.187 -0.5410 -0.5138 -0.3172
   15CHL1  H22A 1093   1.258   2.265   9.201 -0.5895 -0.3163 -1.0497
   15CHL1  H22B 1094   1.419   2.331   9.217 -1.0794  0.2119 -1.5350
   15CHL1   C23 1095   1.393   2.206   9.041 -0.5182  0.4726  0.2977
   15CHL1  H23A 1096   1.496   2.215   9.000 -0.9894  2.3970 -0.5655
   15CHL1  H23B 1097   1.356   2.102   9.035 -0.6270  0.5938 -1.5271
   15CHL1   C24 1098   1.319   2.295   8.941 -0.3657  0.2217 -0.5400
   15CHL1  H24A 1099   1.231   2.336   8.996  0.2803  0.8615  0.0503
   15CHL1  H24B 1100   1.374   2.389   8.918 -1.3410  1.3425  1.4575
   15CHL1   C25 1101   1.268   2.215   8.820  0.5669 -0.5217  0.0312
   15CHL1   H25 1102   1.215   2.123   8.852  0.4833 -0.7000 -0.6112
   15CHL1   C26 1103   1.163   2.297   8.737  0.1231  0.4298 -0.0392
   15CHL1  H26A 1104   1.068   2.309   8.793 -0.5061 -1.3971 -0.6440
   15CHL1  H26B 1105   1.212   2.396   8.726 -1.1025  1.0936  0.2475
   15CHL1  H26C 1106   1.137   2.234   8.648 -1.6077 -0.4668  1.0435
   15CHL1   C27 1107   1.387   2.168   8.735 -0.1364 -0.0623  0.5251
   15CHL1  H27A 1108   1.438   2.080   8.779  0.0506  0.4872  1.4367
   15CHL1  H27B 1109   1.350   2.140   8.634  1.3013  1.1555 -0.3930
   15CHL1  H27C 1110   1.461   2.248   8.712 -1.2904  0.9132  0.1339
   16CHL1    C3 1111   2.162   3.242  10.246  0.1838 -0.2031 -0.5166
   16CHL1    H3 1112   2.153   3.141  10.200  0.2358 -0.9338  0.9836
   16CHL1    O3 1113   2.145   3.230  10.389 -0.0119  0.5066  0.9653
   16CHL1   H3' 1114   2.051   3.224  10.402  0.0904  0.2863  1.6157
   16CHL1    C4 1115   2.301   3.302  10.213 -0.3341 -0.0713  0.8239
   16CHL1   H4A 1116   2.296   3.398  10.270  1.1117 -1.3139  3.1795
   16CHL1   H4B 1117   2.378   3.238  10.261 -1.1063 -1.3846  0.3667
   16CHL1    C5 1118   2.307   3.321  10.062 -0.4097 -0.1400  0.3766
   16CHL1    C6 1119   2.405   3.255   9.996  0.7008 -0.0200  0.1928
   16CHL1    H6 1120   2.471   3.202  10.066  1.0917  0.4331  0.1697
   16CHL1    C7 1121   2.418   3.262   9.849  0.2871  0.3926 -0.3864
   16CHL1   H7A 1122   2.527   3.257   9.831  0.7822 -0.6019  2.4865
   16CHL1   H7B 1123   2.373   3.167   9.812  1.7972 -0.0179 -1.2406
   16CHL1    C8 1124   2.347   3.380   9.779  0.0308  0.9761 -0.1031
   16CHL1    H8 1125   2.394   3.478   9.801  1.4140  0.4571 -0.6289
   16CHL1   C14 1126   2.346   3.342   9.627 -0.2393  0.6013 -0.4008
   16CHL1   H14 1127   2.289   3.247   9.630  1.1352 -0.2233  0.6341
   16CHL1   C15 1128   2.479   3.306   9.559 -0.4879  0.0806  0.3874
   16CHL1  H15A 1129   2.560   3.376   9.589 -1.1819  1.2297 -0.3645
   16CHL1  H15B 1130   2.516   3.204   9.584 -0.5763  0.0003  0.1929
   16CHL1   C16 1131   2.448   3.332   9.413 -0.5332  0.0070  0.1814
   16CHL1  H16A 1132   2.502   3.424   9.384  0.4878 -0.8831 -0.8536
   16CHL1  H16B 1133   2.486   3.250   9.349  2.7766  1.4906  0.0694
   16CHL1   C17 1134   2.298   3.378   9.393  0.4159 -0.5229  0.3303
   16CHL1   H17 1135   2.237   3.285   9.398  0.5556 -0.5497  1.9876
   16CHL1   C13 1136   2.267   3.443   9.539 -0.2244  0.3252  0.3659
   16CHL1   C18 1137   2.327   3.584   9.560  0.1039  0.3504 -0.9210
   16CHL1  H18A 1138   2.438   3.577   9.569 -0.0549 -1.4365  0.1555
   16CHL1  H18B 1139   2.305   3.643   9.468  1.2310  0.3923 -1.1788
   16CHL1  H18C 1140   2.296   3.635   9.653  0.2645 -0.1362 -0.5986
   16CHL1   C12 1141   2.122   3.442   9.601  0.0667 -0.2102 -0.0957
   16CHL1  H12A 1142   2.059   3.516   9.548  0.5179 -0.2258 -0.6666
   16CHL1  H12B 1143   2.071   3.344   9.588 -0.8330  0.0608  1.2385
   16CHL1   C11 1144   2.113   3.472   9.755 -0.7337 -0.0626  1.1669
   16CHL1  H11A 1145   2.151   3.575   9.771  0.1341 -0.2962  0.6430
   16CHL1  H11B 1146   2.009   3.462   9.794 -0.7397 -1.3090  0.8814
   16CHL1    C9 1147   2.203   3.377   9.830 -0.0400  0.3875  0.2667
   16CHL1    H9 1148   2.180   3.269   9.819  1.3175  0.2963 -2.2627
   16CHL1   C10 1149   2.201   3.402   9.988  0.3573  0.9014 -0.0697
   16CHL1   C19 1150   2.211   3.560  10.018  0.4586  1.0539 -0.0972
   16CHL1  H19A 1151   2.118   3.607   9.980  1.3826  2.6677 -0.4444
   16CHL1  H19B 1152   2.207   3.591  10.124  0.5067  1.4617 -0.2149
   16CHL1  H19C 1153   2.300   3.601   9.966 -0.2473  0.6644 -1.6937
   16CHL1    C1 1154   2.060   3.357  10.040  0.9476 -1.2018  0.4575
   16CHL1   H1A 1155   1.975   3.424  10.015  2.4208  0.4549 -0.4142
   16CHL1   H1B 1156   2.041   3.254  10.004 -1.4032 -0.4010 -0.7846
   16CHL1    C2 1157   2.049   3.333  10.198 -0.1106 -0.8485  0.7440
   16CHL1   H2A 1158   1.948   3.288  10.216 -0.1599 -0.3669  1.7188
   16CHL1   H2B 1159   2.049   3.434  10.245  1.7571 -0.3354 -0.3002
   16CHL1   C20 1160   2.265   3.461   9.264 -0.2452  0.9328  0.0442
   16CHL1   H20 1161   2.297   3.566   9.276  3.1438  0.0098  0.0338
   16CHL1   C21 1162   2.111   3.471   9.241 -0.0897 -0.1359 -0.0407
   16CHL1  H21A 1163   2.061   3.535   9.317 -1.3971 -0.8342 -0.2798
   16CHL1  H21B 1164   2.076   3.367   9.257 -0.5760  0.2691  1.7788
   16CHL1  H21C 1165   2.088   3.505   9.138 -1.0398  0.1064  0.2407
   16CHL1   C22 1166   2.339   3.395   9.147 -0.1937 -0.0796  0.2984
   16CHL1  H22A 1167   2.448   3.384   9.167  0.0992  1.0207 -0.5936
   16CHL1  H22B 1168   2.295   3.294   9.135 -0.4590 -0.0724  1.1265
   16CHL1   C23 1169   2.321   3.462   9.008  0.2560 -0.8094 -0.2400
   16CHL1  H23A 1170   2.212   3.469   8.991  0.6011  2.0181 -1.9981
   16CHL1  H23B 1171   2.367   3.563   9.010  1.2758 -1.2669  0.1075
   16CHL1   C24 1172   2.377   3.393   8.884 -0.1345 -0.7014 -0.1230
   16CHL1  H24A 1173   2.487   3.404   8.895 -0.0423 -0.7895 -0.9056
   16CHL1  H24B 1174   2.358   3.285   8.871  1.1155 -0.7717 -1.5854
   16CHL1   C25 1175   2.352   3.459   8.746  0.0340  0.2407  0.7279
   16CHL1   H25 1176   2.384   3.565   8.753 -0.0702  0.3674 -0.5863
   16CHL1   C26 1177   2.432   3.384   8.630  0.2893  0.0578  0.4321
   16CHL1  H26A 1178   2.390   3.282   8.622 -0.2273  0.3030 -0.0950
   16CHL1  H26B 1179   2.406   3.437   8.535 -2.3823 -1.5426  0.1904
   16CHL1  H26C 1180   2.541   3.382   8.651  0.1517  1.1410  1.3817
   16CHL1   C27 1181   2.206   3.457   8.698 -0.2597 -0.0798 -0.2140
   16CHL1  H27A 1182   2.174   3.356   8.666 -2.5615  0.1259  1.2129
   16CHL1  H27B 1183   2.134   3.484   8.778  1.2070 -1.1643  1.5708
   16CHL1  H27C 1184   2.191   3.524   8.611  0.4134 -0.4543 -0.6243
   17CHL1    C3 1185   3.700   1.073  10.434  0.0076  0.7656 -0.6256
   17CHL1    H3 1186   3.804   1.038  10.448 -0.2917 -0.2197 -0.7892
   17CHL1    O3 1187   3.635   1.096  10.558 -0.3154 -0.3478 -0.1572
   17CHL1   H3' 1188   3.636   1.016  10.610  2.1650  0.8331  1.7859
   17CHL1    C4 1189   3.712   1.203  10.355 -0.8712 -1.0410  0.1778
   17CHL1   H4A 1190   3.610   1.246  10.350  0.0844  1.5444  1.2061
   17CHL1   H4B 1191   3.763   1.280  10.417 -1.2362 -1.1312  0.5930
   17CHL1    C5 1192   3.768   1.184  10.217 -0.4836  0.5759  0.1668
   17CHL1    C6 1193   3.879   1.248  10.183 -0.2057 -0.1623 -0.8721
   17CHL1    H6 1194   3.915   1.327  10.250 -0.5627 -1.6052  1.0884
   17CHL1    C7 1195   3.936   1.236  10.043  0.0653  0.3188  0.5883
   17CHL1   H7A 1196   3.947   1.329   9.984  0.6570 -1.6159 -2.6253
   17CHL1   H7B 1197   4.033   1.182  10.044  1.2008  2.1428 -1.8769
   17CHL1    C8 1198   3.849   1.156   9.954  0.2350  0.1180  0.7074
   17CHL1    H8 1199   3.770   1.229   9.928  0.9072  0.4397 -0.5289
   17CHL1   C14 1200   3.929   1.109   9.833  0.3586 -0.3615  0.0983
   17CHL1   H14 1201   4.005   1.039   9.874 -0.2354  0.3039  2.5329
   17CHL1   C15 1202   3.999   1.211   9.746  1.1114  0.3145 -0.1465
   17CHL1  H15A 1203   3.935   1.300   9.727  2.2211  1.5790  1.7150
   17CHL1  H15B 1204   4.077   1.249   9.815  0.9081  0.5334 -0.0341
   17CHL1   C16 1205   4.044   1.143   9.620  0.1475 -0.2154  0.1527
   17CHL1  H16A 1206   4.028   1.209   9.532  0.8820  0.0868  0.2454
   17CHL1  H16B 1207   4.150   1.111   9.626  0.4728  0.8746  0.3578
   17CHL1   C17 1208   3.950   1.021   9.611  0.3175  0.3680 -0.3124
   17CHL1   H17 1209   4.011   0.933   9.642  0.7767  1.0368  0.7501
   17CHL1   C13 1210   3.846   1.034   9.729  0.3087  0.5413  0.3659
   17CHL1   C18 1211   3.731   1.135   9.676 -0.4411 -0.3029 -0.5295
   17CHL1  H18A 1212   3.773   1.209   9.605  0.9365  0.1681  0.7239
   17CHL1  H18B 1213   3.665   1.065   9.620  0.1214 -1.9131  0.7120
   17CHL1  H18C 1214   3.668   1.178   9.756  0.6421 -0.7625  0.6089
   17CHL1   C12 1215   3.790   0.902   9.787  0.4216  0.4281  0.9394
   17CHL1  H12A 1216   3.730   0.844   9.714  1.1831  1.2044 -0.3359
   17CHL1  H12B 1217   3.874   0.833   9.812  0.3803 -1.3658 -3.1781
   17CHL1   C11 1218   3.717   0.934   9.919  0.0286 -0.5752  0.0573
   17CHL1  H11A 1219   3.626   0.993   9.895  0.9357  0.4119 -1.0658
   17CHL1  H11B 1220   3.686   0.841   9.971 -1.4718 -1.4659 -2.2600
   17CHL1    C9 1221   3.787   1.034  10.014  0.2283  0.1491 -0.1196
   17CHL1    H9 1222   3.869   0.971  10.055 -1.2576 -0.5570  1.9391
   17CHL1   C10 1223   3.698   1.078  10.135  0.4034  0.1877  0.0516
   17CHL1   C19 1224   3.560   1.120  10.093  0.2258  0.4718 -0.2713
   17CHL1  H19A 1225   3.569   1.193  10.011 -0.2537 -0.2905 -1.0208
   17CHL1  H19B 1226   3.500   1.035  10.053  0.1211  0.9699 -1.2028
   17CHL1  H19C 1227   3.510   1.153  10.187  0.9333 -0.2122  0.3656
   17CHL1    C1 1228   3.681   0.947  10.221 -0.6041  0.1536  0.1769
   17CHL1   H1A 1229   3.610   0.884  10.163 -0.4835  1.7981 -1.8401
   17CHL1   H1B 1230   3.783   0.904  10.234  0.2999  2.0446 -0.2826
   17CHL1    C2 1231   3.620   0.968  10.360  0.0524 -0.2366 -1.0618
   17CHL1   H2A 1232   3.622   0.868  10.410 -0.5893  0.0306 -0.4891
   17CHL1   H2B 1233   3.512   0.988  10.350 -0.1892 -0.9252 -0.1021
   17CHL1   C20 1234   3.904   0.995   9.468  0.7214  0.4081 -0.2430
   17CHL1   H20 1235   3.834   1.074   9.435 -0.7166  0.3972  2.4853
   17CHL1   C21 1236   3.817   0.868   9.459 -0.5801  0.0641  0.3318
   17CHL1  H21A 1237   3.801   0.845   9.351  2.6559 -0.2186 -0.1925
   17CHL1  H21B 1238   3.722   0.903   9.504 -0.6244 -1.1769  1.2503
   17CHL1  H21C 1239   3.851   0.782   9.520 -1.3776 -0.3239  0.2420
   17CHL1   C22 1240   4.018   0.990   9.359  0.4527  0.5262  0.5714
   17CHL1  H22A 1241   3.982   0.954   9.260  0.2060 -0.0329  0.8639
   17CHL1  H22B 1242   4.055   1.093   9.341 -1.0781  1.0002  0.0040
   17CHL1   C23 1243   4.139   0.908   9.385  0.2213  0.5385 -0.6411
   17CHL1  H23A 1244   4.208   0.964   9.453  2.3431 -0.6777 -1.6974
   17CHL1  H23B 1245   4.123   0.808   9.431  0.6115  0.5366 -0.5001
   17CHL1   C24 1246   4.213   0.885   9.256  0.1130  0.2083 -0.2386
   17CHL1  H24A 1247   4.156   0.823   9.184  1.1003 -0.7613 -0.2259
   17CHL1  H24B 1248   4.224   0.985   9.208 -1.0811  0.9540  0.9777
   17CHL1   C25 1249   4.363   0.831   9.270 -0.4668  0.0319  0.2855
   17CHL1   H25 1250   4.415   0.891   9.347 -0.2797 -0.7384  0.7744
   17CHL1   C26 1251   4.367   0.682   9.322  0.0664  0.2241  0.1570
   17CHL1  H26A 1252   4.305   0.606   9.269 -0.4770  2.0239 -1.9474
   17CHL1  H26B 1253   4.469   0.639   9.318 -0.3567 -0.8522  0.5731
   17CHL1  H26C 1254   4.340   0.695   9.429  2.0596  0.3820  0.6795
   17CHL1   C27 1255   4.445   0.843   9.138 -0.1324 -0.2665 -1.1731
   17CHL1  H27A 1256   4.441   0.944   9.093  1.6891  1.5000  2.2166
   17CHL1  H27B 1257   4.550   0.827   9.171 -0.5222 -3.0569 -0.9900
   17CHL1  H27C 1258   4.421   0.769   9.058 -2.4320 -0.2689 -0.5391
   18CHL1    C3 1259   2.697   4.286  10.277  0.2923  0.4267  0.3621
   18CHL1    H3 1260   2.663   4.379  10.227  1.5772  1.1038  0.7267
   18CHL1    O3 1261   2.634   4.285  10.409 -0.0034 -0.2454 -0.3205
   18CHL1   H3' 1262   2.606   4.194  10.418 -0.3255 -0.1432 -0.2779
   18CHL1    C4 1263   2.647   4.169  10.188  0.4688  0.5898 -0.0565
   18CHL1   H4A 1264   2.663   4.078  10.250 -0.7416 -0.1580 -0.8151
   18CHL1   H4B 1265   2.536   4.169  10.185  0.3880 -0.5438  1.5825
   18CHL1    C5 1266   2.712   4.156  10.054  0.1130 -0.6147 -0.0862
   18CHL1    C6 1267   2.633   4.160   9.937  0.2778  0.3148 -1.4725
   18CHL1    H6 1268   2.523   4.163   9.934  0.3109  1.9678 -3.4013
   18CHL1    C7 1269   2.696   4.152   9.805 -1.0925  0.1194 -0.3717
   18CHL1   H7A 1270   2.642   4.078   9.743  0.6317  0.1073 -1.9627
   18CHL1   H7B 1271   2.693   4.251   9.754  2.6012  0.3114 -0.4694
   18CHL1    C8 1272   2.840   4.100   9.800  0.6538  0.4156 -0.0790
   18CHL1    H8 1273   2.846   3.991   9.820  0.5364  0.5928  0.9990
   18CHL1   C14 1274   2.906   4.131   9.667  0.3152  0.3821  0.2762
   18CHL1   H14 1275   2.907   4.242   9.666  1.5828  0.3809 -0.3850
   18CHL1   C15 1276   2.838   4.095   9.542  0.3930  0.0665  0.9237
   18CHL1  H15A 1277   2.806   3.988   9.547  0.8001 -0.1275 -0.1829
   18CHL1  H15B 1278   2.762   4.175   9.532  0.6011  0.4986  2.5486
   18CHL1   C16 1279   2.943   4.099   9.431  0.1257  0.0096 -0.3034
   18CHL1  H16A 1280   2.957   3.997   9.391 -0.1863 -0.6968  1.2994
   18CHL1  H16B 1281   2.906   4.174   9.357  0.7439  0.6955  0.0666
   18CHL1   C17 1282   3.081   4.141   9.503 -0.3319 -0.1659  0.0005
   18CHL1   H17 1283   3.075   4.252   9.512 -1.6221 -0.2854  0.9209
   18CHL1   C13 1284   3.059   4.100   9.655 -0.1265 -0.3405 -0.3188
   18CHL1   C18 1285   3.078   3.952   9.670 -0.2008  0.3272 -0.0259
   18CHL1  H18A 1286   3.183   3.924   9.651  0.1240  0.6905  1.1542
   18CHL1  H18B 1287   3.048   3.927   9.774 -2.0902 -0.2106 -0.6625
   18CHL1  H18C 1288   3.013   3.897   9.599 -1.8610  0.4118  1.3594
   18CHL1   C12 1289   3.128   4.193   9.767 -0.2347  1.1341 -0.3315
   18CHL1  H12A 1290   3.238   4.177   9.756 -0.2757  1.5427 -1.3797
   18CHL1  H12B 1291   3.110   4.301   9.746  0.2870  1.0319 -1.3683
   18CHL1   C11 1292   3.078   4.159   9.910  0.3006 -0.0771 -0.6205
   18CHL1  H11A 1293   3.106   4.054   9.933  0.9537  0.4442  1.1473
   18CHL1  H11B 1294   3.130   4.229   9.979 -0.2275 -0.5521  0.2885
   18CHL1    C9 1295   2.921   4.170   9.910  1.0275 -0.4279  0.3724
   18CHL1    H9 1296   2.896   4.276   9.888  1.6368 -0.1587  0.9470
   18CHL1   C10 1297   2.862   4.152  10.056  0.3918  0.2417 -0.0794
   18CHL1   C19 1298   2.911   4.016  10.113 -1.0597  0.7391 -0.0780
   18CHL1  H19A 1299   2.890   3.932  10.044 -0.5903 -0.0867  0.7575
   18CHL1  H19B 1300   3.019   4.007  10.137 -0.8886 -0.3772 -1.2119
   18CHL1  H19C 1301   2.861   3.995  10.210 -1.2188  0.7747 -0.1523
   18CHL1    C1 1302   2.921   4.268  10.146 -0.1994 -0.3277  0.2238
   18CHL1   H1A 1303   3.030   4.253  10.166 -0.4037 -1.0944  0.8141
   18CHL1   H1B 1304   2.909   4.358  10.082  1.7200  1.4088  2.1545
   18CHL1    C2 1305   2.845   4.287  10.286 -0.4002  0.2323  0.1896
   18CHL1   H2A 1306   2.872   4.379  10.342 -0.0664 -1.1226  2.3501
   18CHL1   H2B 1307   2.873   4.204  10.354 -1.5976  0.2064  0.6836
   18CHL1   C20 1308   3.195   4.092   9.424  0.1301 -0.0335  0.5172
   18CHL1   H20 1309   3.188   3.981   9.422  0.3817 -0.0589 -2.1594
   18CHL1   C21 1310   3.323   4.129   9.496 -0.1006  0.0192  0.8825
   18CHL1  H21A 1311   3.390   4.071   9.428 -1.2777 -1.7490  1.1487
   18CHL1  H21B 1312   3.335   4.089   9.599  1.1781 -1.2884  0.2611
   18CHL1  H21C 1313   3.352   4.236   9.494 -3.1583  0.9709  1.6496
   18CHL1   C22 1314   3.201   4.139   9.281  0.3585  0.5986 -0.2528
   18CHL1  H22A 1315   3.103   4.159   9.233  0.6185 -1.6706 -1.8862
   18CHL1  H22B 1316   3.262   4.232   9.275  0.7801  0.2520 -4.2585
   18CHL1   C23 1317   3.268   4.043   9.170  0.5115  0.6044 -0.3249
   18CHL1  H23A 1318   3.299   4.088   9.073 -1.9719 -1.3620 -2.1586
   18CHL1  H23B 1319   3.363   4.001   9.211  0.1922 -0.0012 -0.1913
   18CHL1   C24 1320   3.188   3.917   9.124 -0.3876 -0.1439 -0.2538
   18CHL1  H24A 1321   3.159   3.861   9.215 -0.1504 -2.1983 -1.3817
   18CHL1  H24B 1322   3.094   3.944   9.071 -0.9403  0.3498  0.9502
   18CHL1   C25 1323   3.260   3.810   9.035 -0.2402 -0.1381  0.5177
   18CHL1   H25 1324   3.342   3.770   9.097  0.2739  1.1872  0.7254
   18CHL1   C26 1325   3.164   3.706   8.983  0.4390  0.4174  1.3741
   18CHL1  H26A 1326   3.221   3.631   8.924 -0.6089  0.5021  0.2026
   18CHL1  H26B 1327   3.108   3.646   9.058 -1.8068  0.7631  0.0640
   18CHL1  H26C 1328   3.092   3.755   8.914  0.4456  1.4105  2.0445
   18CHL1   C27 1329   3.326   3.884   8.919 -0.0961  0.1682  0.6644
   18CHL1  H27A 1330   3.368   3.816   8.842 -2.0213 -2.2568  1.6062
   18CHL1  H27B 1331   3.253   3.954   8.874  1.1041  1.0738  0.0805
   18CHL1  H27C 1332   3.414   3.941   8.957  1.8677 -2.5571  0.4579
   19CHL1    C3 1333   0.441   2.018  10.145  0.7163 -0.3492 -0.4368
   19CHL1    H3 1334   0.452   2.126  10.118  1.2120 -0.5695 -1.1624
   19CHL1    O3 1335   0.430   2.000  10.285  0.7735 -0.2795  0.1374
   19CHL1   H3' 1336   0.366   1.929  10.300 -0.5729  0.9949  0.6898
   19CHL1    C4 1337   0.297   1.988  10.085 -0.2025 -0.1003 -0.4420
   19CHL1   H4A 1338   0.260   1.891  10.125  1.6445 -0.6602  0.0360
   19CHL1   H4B 1339   0.231   2.067  10.128 -0.4759 -0.0813 -0.8897
   19CHL1    C5 1340   0.296   2.010   9.940 -0.2777  0.9035  0.6667
   19CHL1    C6 1341   0.211   2.085   9.861  0.4489  0.7025  0.3444
   19CHL1    H6 1342   0.128   2.139   9.909 -0.6240 -0.1562 -0.4894
   19CHL1    C7 1343   0.210   2.092   9.715 -0.1492  0.3690 -0.3813
   19CHL1   H7A 1344   0.117   2.063   9.662 -1.0888  0.8055  0.9730
   19CHL1   H7B 1345   0.230   2.198   9.688  1.8108 -0.3262 -1.8935
   19CHL1    C8 1346   0.299   1.981   9.653  0.7245 -0.7271  0.2728
   19CHL1    H8 1347   0.236   1.889   9.656 -0.5390 -0.0128 -2.0470
   19CHL1   C14 1348   0.309   2.021   9.501 -0.3989  0.5887  0.4586
   19CHL1   H14 1349   0.364   2.117   9.506  2.1245 -0.7292 -0.1858
   19CHL1   C15 1350   0.190   2.037   9.413 -0.3006  0.4105  0.1225
   19CHL1  H15A 1351   0.140   1.938   9.419  3.9723 -2.2781 -2.9723
   19CHL1  H15B 1352   0.135   2.125   9.452  0.5319  0.9983 -0.0100
   19CHL1   C16 1353   0.253   2.045   9.273  0.5615  0.1832 -0.9703
   19CHL1  H16A 1354   0.190   1.983   9.206 -0.7066 -1.4888  1.5697
   19CHL1  H16B 1355   0.252   2.150   9.237 -1.0285  0.5890  0.1150
   19CHL1   C17 1356   0.395   1.990   9.286 -0.0340 -0.0350 -0.0633
   19CHL1   H17 1357   0.455   2.083   9.277 -2.7443  1.7856 -0.4220
   19CHL1   C13 1358   0.400   1.921   9.419  0.5997 -0.2344  0.8192
   19CHL1   C18 1359   0.345   1.782   9.410  0.1180  0.7060 -0.1971
   19CHL1  H18A 1360   0.320   1.761   9.516 -1.5098 -0.1879 -0.7202
   19CHL1  H18B 1361   0.255   1.773   9.345  0.1609 -0.4511 -0.1246
   19CHL1  H18C 1362   0.424   1.714   9.371  0.2290  1.4606 -1.3484
   19CHL1   C12 1363   0.537   1.923   9.486  0.5424 -0.2935 -0.3803
   19CHL1  H12A 1364   0.607   1.861   9.426 -1.2585 -1.5764 -1.2511
   19CHL1  H12B 1365   0.584   2.023   9.499 -2.2990  1.0292  0.5400
   19CHL1   C11 1366   0.530   1.874   9.633 -0.4099  0.4519 -0.4075
   19CHL1  H11A 1367   0.496   1.769   9.625  0.1222  0.3437 -1.3242
   19CHL1  H11B 1368   0.628   1.862   9.684 -0.3469 -1.9900 -0.9895
   19CHL1    C9 1369   0.433   1.967   9.718  0.1080 -0.6862 -0.3629
   19CHL1    H9 1370   0.482   2.067   9.722  0.5125 -0.8819 -0.2756
   19CHL1   C10 1371   0.412   1.927   9.874 -0.0397  0.0270  0.1572
   19CHL1   C19 1372   0.374   1.778   9.878  0.4872 -0.5220 -0.1627
   19CHL1  H19A 1373   0.304   1.747   9.798  1.0180 -1.5614 -0.2349
   19CHL1  H19B 1374   0.466   1.723   9.848 -0.5807 -1.9263 -0.9766
   19CHL1  H19C 1375   0.344   1.738   9.977  1.8189  1.0082  0.9147
   19CHL1    C1 1376   0.551   1.942   9.945  0.0808  1.1129  0.5948
   19CHL1   H1A 1377   0.630   1.875   9.905 -0.7184  1.2031 -1.2098
   19CHL1   H1B 1378   0.589   2.044   9.925  0.2662  0.7082 -1.3173
   19CHL1    C2 1379   0.551   1.930  10.092  0.3386 -0.7887  0.3581
   19CHL1   H2A 1380   0.647   1.974  10.125  0.2032 -1.4054  1.6400
   19CHL1   H2B 1381   0.542   1.821  10.116 -0.5861 -1.0894 -1.1925
   19CHL1   C20 1382   0.442   1.914   9.161 -0.0616 -0.3930  0.6362
   19CHL1   H20 1383   0.396   1.813   9.161  0.3270 -0.5819 -0.0397
   19CHL1   C21 1384   0.598   1.909   9.159  0.3682  0.1118 -0.4058
   19CHL1  H21A 1385   0.635   1.820   9.213  2.5204  1.8134  1.0682
   19CHL1  H21B 1386   0.648   1.995   9.209  1.0472 -0.5169  0.0126
   19CHL1  H21C 1387   0.630   1.904   9.053 -1.2091  0.6581 -0.9461
   19CHL1   C22 1388   0.406   1.987   9.029  1.1831 -0.2276  0.0082
   19CHL1  H22A 1389   0.296   2.001   9.025  0.6829 -3.3676  0.5269
   19CHL1  H22B 1390   0.451   2.087   9.010 -0.5361  0.1902 -2.3627
   19CHL1   C23 1391   0.431   1.900   8.895  0.3316 -0.1605 -0.4181
   19CHL1  H23A 1392   0.534   1.860   8.903 -0.2731 -1.4545  2.0856
   19CHL1  H23B 1393   0.366   1.811   8.908  0.2936 -0.1977 -0.8496
   19CHL1   C24 1394   0.386   1.979   8.773 -0.0440 -0.1926  0.9923
   19CHL1  H24A 1395   0.284   2.019   8.786 -0.3031  0.0239 -1.3033
   19CHL1  H24B 1396   0.460   2.061   8.757  0.3394 -0.9876 -1.9652
   19CHL1   C25 1397   0.381   1.898   8.640 -0.1631 -0.2134 -0.2057
   19CHL1   H25 1398   0.308   1.815   8.654  0.7060 -1.1010 -0.8109
   19CHL1   C26 1399   0.323   1.986   8.527 -0.4310  0.1939 -0.5427
   19CHL1  H26A 1400   0.295   1.928   8.436  0.1041  1.5495 -1.6082
   19CHL1  H26B 1401   0.231   2.037   8.564  0.6761  1.4267  0.5760
   19CHL1  H26C 1402   0.399   2.064   8.507  2.5103 -2.4578 -0.5475
   19CHL1   C27 1403   0.515   1.824   8.597 -0.5552  0.0093 -0.0905
   19CHL1  H27A 1404   0.503   1.770   8.501  0.0210 -1.1407  0.4555
   19CHL1  H27B 1405   0.596   1.896   8.572 -1.8685  1.7969  0.6087
   19CHL1  H27C 1406   0.568   1.751   8.663 -0.4480 -0.6245 -0.8558
   20CHL1    C3 1407   2.631   2.314  10.245  0.0286 -0.1776  0.2341
   20CHL1    H3 1408   2.640   2.423  10.223 -2.8147 -0.1599 -1.3307
   20CHL1    O3 1409   2.648   2.280  10.380 -0.7454  0.1378 -0.0806
   20CHL1   H3' 1410   2.735   2.312  10.404 -1.6943  0.7568  3.0155
   20CHL1    C4 1411   2.491   2.276  10.198  0.6156  0.1690  0.2093
   20CHL1   H4A 1412   2.476   2.169  10.222 -1.2770  0.5959  1.1215
   20CHL1   H4B 1413   2.423   2.343  10.256  1.1370  1.2610 -0.3988
   20CHL1    C5 1414   2.463   2.305  10.055 -0.5960  0.3882 -0.5604
   20CHL1    C6 1415   2.362   2.377  10.016  0.3484 -0.0534  0.2227
   20CHL1    H6 1416   2.309   2.422  10.101  0.4231  0.7121 -0.1304
   20CHL1    C7 1417   2.321   2.408   9.880 -0.2591 -0.5553  0.8669
   20CHL1   H7A 1418   2.213   2.389   9.861 -0.8184  2.8780 -0.1137
   20CHL1   H7B 1419   2.353   2.514   9.868  1.8109 -1.1807  0.3924
   20CHL1    C8 1420   2.400   2.323   9.767  0.0367 -0.7769 -0.3137
   20CHL1    H8 1421   2.346   2.226   9.777 -0.3890 -0.6421 -1.1955
   20CHL1   C14 1422   2.385   2.396   9.642  1.2224 -0.3853 -0.4128
   20CHL1   H14 1423   2.438   2.492   9.656 -1.4184  1.3621 -1.7057
   20CHL1   C15 1424   2.245   2.428   9.575 -0.6243  0.5736 -0.3092
   20CHL1  H15A 1425   2.160   2.357   9.578 -1.0198  0.9344 -1.9819
   20CHL1  H15B 1426   2.222   2.525   9.625 -0.2686  0.5402 -0.0698
   20CHL1   C16 1427   2.283   2.457   9.429  0.4658  0.1801 -0.0041
   20CHL1  H16A 1428   2.219   2.383   9.376  1.0012  0.2945 -0.8297
   20CHL1  H16B 1429   2.254   2.559   9.397 -0.9342  0.3453  1.6338
   20CHL1   C17 1430   2.431   2.415   9.405  0.1903  0.2986  0.3800
   20CHL1   H17 1431   2.496   2.502   9.431 -0.6470  0.8652  0.6408
   20CHL1   C13 1432   2.458   2.326   9.531 -0.2881  0.2300 -0.2852
   20CHL1   C18 1433   2.411   2.181   9.508  0.2684 -0.3407  0.1442
   20CHL1  H18A 1434   2.369   2.129   9.597  2.5086 -2.3083  0.1299
   20CHL1  H18B 1435   2.324   2.177   9.438 -1.6937 -1.8045  2.4764
   20CHL1  H18C 1436   2.497   2.118   9.477  0.0249 -0.0218 -1.2346
   20CHL1   C12 1437   2.612   2.317   9.576  0.1677 -0.5104  0.0108
   20CHL1  H12A 1438   2.669   2.279   9.488 -2.6507 -0.6648 -1.8869
   20CHL1  H12B 1439   2.628   2.426   9.588 -3.3287  0.3250 -1.6799
   20CHL1   C11 1440   2.634   2.244   9.708 -0.1523  0.0354 -0.7111
   20CHL1  H11A 1441   2.614   2.135   9.695  2.2536 -0.8155  1.7832
   20CHL1  H11B 1442   2.741   2.243   9.739 -1.1980 -0.1129  3.4636
   20CHL1    C9 1443   2.539   2.312   9.811  0.2531 -0.0953 -0.3640
   20CHL1    H9 1444   2.578   2.416   9.817 -0.0374  0.2377 -3.0682
   20CHL1   C10 1445   2.560   2.249   9.956 -0.0641  0.3249  0.2968
   20CHL1   C19 1446   2.547   2.087   9.950 -0.1817 -0.4410  0.6052
   20CHL1  H19A 1447   2.559   2.039  10.049 -2.8642 -1.0506  0.7144
   20CHL1  H19B 1448   2.455   2.050   9.900  1.4391 -2.0927 -1.3047
   20CHL1  H19C 1449   2.634   2.052   9.890 -0.9408 -0.5327 -0.4712
   20CHL1    C1 1450   2.701   2.282   9.999 -0.0599  0.3629 -0.9506
   20CHL1   H1A 1451   2.781   2.226   9.947 -0.9106 -1.1431 -0.7090
   20CHL1   H1B 1452   2.728   2.390   9.991  0.5616  0.3240  0.4072
   20CHL1    C2 1453   2.735   2.249  10.147 -0.6665  0.7631  0.0730
   20CHL1   H2A 1454   2.838   2.290  10.156 -0.2289 -0.3560  0.3797
   20CHL1   H2B 1455   2.739   2.138  10.153  1.0951  0.7036 -1.1732
   20CHL1   C20 1456   2.453   2.374   9.254 -0.5693  0.0979  0.6602
   20CHL1   H20 1457   2.401   2.278   9.241  1.1424 -0.6289 -1.5102
   20CHL1   C21 1458   2.607   2.350   9.225 -0.1961  0.2729 -0.0763
   20CHL1  H21A 1459   2.669   2.438   9.253  2.2329 -0.7780 -1.8466
   20CHL1  H21B 1460   2.633   2.333   9.119  0.7451  2.0300 -0.1605
   20CHL1  H21C 1461   2.636   2.264   9.289 -0.0523  1.7850  2.0039
   20CHL1   C22 1462   2.387   2.461   9.143 -0.3368 -0.0613 -0.3738
   20CHL1  H22A 1463   2.277   2.455   9.161 -0.4692 -0.1826 -1.1959
   20CHL1  H22B 1464   2.418   2.566   9.159  1.0744 -0.6425  1.0276
   20CHL1   C23 1465   2.404   2.406   9.002 -0.1385  0.2985  0.3861
   20CHL1  H23A 1466   2.513   2.412   8.980  0.2283  1.3943  2.3082
   20CHL1  H23B 1467   2.365   2.302   9.005  0.6473 -0.0869 -1.5037
   20CHL1   C24 1468   2.321   2.490   8.901  0.4463 -0.2333 -0.3752
   20CHL1  H24A 1469   2.222   2.520   8.942  1.0553  0.1035  0.9338
   20CHL1  H24B 1470   2.368   2.590   8.885 -0.5618  0.6852  1.9393
   20CHL1   C25 1471   2.289   2.420   8.767  0.0621  0.1936 -0.0738
   20CHL1   H25 1472   2.252   2.321   8.799  2.0542 -1.4274 -2.3889
   20CHL1   C26 1473   2.182   2.485   8.679 -0.5097  0.2270 -0.2246
   20CHL1  H26A 1474   2.220   2.577   8.631 -2.2753  1.1134 -0.0044
   20CHL1  H26B 1475   2.151   2.417   8.597 -1.1219 -1.1356  1.0739
   20CHL1  H26C 1476   2.094   2.512   8.741  0.4046 -0.0384  1.2593
   20CHL1   C27 1477   2.417   2.400   8.677 -0.5770 -0.2483  0.3854
   20CHL1  H27A 1478   2.398   2.361   8.574  0.7117  0.6409 -0.2215
   20CHL1  H27B 1479   2.452   2.505   8.662 -1.2821 -0.0696 -0.0539
   20CHL1  H27C 1480   2.490   2.328   8.720 -0.9274 -0.6912  0.2491
   21CHL1    C3 1481   2.997   6.097  10.444 -0.6720 -0.0136  0.6217
   21CHL1    H3 1482   3.095   6.114  10.395 -0.2409 -1.1941  1.0311
   21CHL1    O3 1483   3.010   6.084  10.584  0.5569  0.1299  0.2236
   21CHL1   H3' 1484   2.924   6.089  10.626  0.2279  1.5056 -0.5681
   21CHL1    C4 1485   2.899   6.207  10.408 -0.4036 -0.1009 -0.0213
   21CHL1   H4A 1486   2.799   6.185  10.451 -0.2614 -1.6292 -0.4243
   21CHL1   H4B 1487   2.937   6.301  10.455 -0.1686 -0.5870  0.7896
   21CHL1    C5 1488   2.884   6.211  10.258  0.5159 -0.2176  0.0013
   21CHL1    C6 1489   2.901   6.323  10.181 -0.5491  0.8144  0.1833
   21CHL1    H6 1490   2.938   6.417  10.225  2.0959 -0.3726  0.6818
   21CHL1    C7 1491   2.877   6.338  10.035 -0.8264  0.0883  0.7429
   21CHL1   H7A 1492   2.815   6.428  10.017  2.4633  2.4843  0.5741
   21CHL1   H7B 1493   2.973   6.362   9.985 -0.2863 -1.3676  1.0252
   21CHL1    C8 1494   2.809   6.214   9.978  0.0226  0.2019 -0.3483
   21CHL1    H8 1495   2.701   6.211  10.003 -0.0845  0.3438 -0.7759
   21CHL1   C14 1496   2.832   6.213   9.830 -0.0443 -0.1372 -0.4779
   21CHL1   H14 1497   2.942   6.212   9.820  0.2260  1.9964  1.4460
   21CHL1   C15 1498   2.786   6.335   9.748  0.3305 -0.1179 -0.3075
   21CHL1  H15A 1499   2.687   6.351   9.795 -0.5885  0.3294 -2.2843
   21CHL1  H15B 1500   2.852   6.422   9.767  0.5426  0.0815 -1.8368
   21CHL1   C16 1501   2.784   6.294   9.601  0.8243 -0.4864  0.1687
   21CHL1  H16A 1502   2.687   6.325   9.559  0.5777 -0.7576  0.5332
   21CHL1  H16B 1503   2.857   6.349   9.538 -0.3301  0.5826 -0.2696
   21CHL1   C17 1504   2.820   6.145   9.608  0.1056  0.1350 -0.1016
   21CHL1   H17 1505   2.930   6.135   9.603  0.3350  2.5451 -1.7131
   21CHL1   C13 1506   2.785   6.093   9.752 -0.0361 -0.3007  0.4754
   21CHL1   C18 1507   2.631   6.063   9.761 -0.2379  0.0108 -0.3654
   21CHL1  H18A 1508   2.595   5.961   9.737 -0.0317  0.3694 -2.3174
   21CHL1  H18B 1509   2.583   6.079   9.860  1.5902 -0.3474  0.6116
   21CHL1  H18C 1510   2.586   6.145   9.701 -2.7190  0.0726  1.3894
   21CHL1   C12 1511   2.852   5.970   9.807  0.4424 -1.0138 -0.4297
   21CHL1  H12A 1512   2.821   5.875   9.758  0.7252 -0.7067 -1.2119
   21CHL1  H12B 1513   2.961   5.992   9.803  0.1644  0.5091 -0.1880
   21CHL1   C11 1514   2.833   5.956   9.959 -0.0844  0.2064 -0.5379
   21CHL1  H11A 1515   2.726   5.931   9.979  0.2361  0.4390  1.6445
   21CHL1  H11B 1516   2.892   5.867   9.987  0.4523  0.3208 -1.2743
   21CHL1    C9 1517   2.863   6.081  10.035 -0.2217 -0.2565  0.8524
   21CHL1    H9 1518   2.972   6.078  10.016 -0.3461 -3.4947 -0.0864
   21CHL1   C10 1519   2.854   6.077  10.190 -0.0006  0.1052 -0.1172
   21CHL1   C19 1520   2.712   6.034  10.240  0.1071  0.0666  0.0583
   21CHL1  H19A 1521   2.698   6.025  10.350 -1.5073 -2.9135 -0.2710
   21CHL1  H19B 1522   2.628   6.086  10.190 -0.1908 -1.2912 -0.9070
   21CHL1  H19C 1523   2.706   5.934  10.191  0.6185  1.2805 -2.6010
   21CHL1    C1 1524   2.949   5.969  10.240  0.7765  0.6914 -0.2190
   21CHL1   H1A 1525   2.900   5.871  10.219 -0.8115  0.9924  1.7940
   21CHL1   H1B 1526   3.054   5.975  10.205  1.1879 -0.6144  0.7000
   21CHL1    C2 1527   2.961   5.968  10.396  0.0028 -0.1284  0.4239
   21CHL1   H2A 1528   3.028   5.882  10.419  1.9685  1.4224  0.8425
   21CHL1   H2B 1529   2.862   5.939  10.437 -0.9394  0.9906 -0.9876
   21CHL1   C20 1530   2.773   6.065   9.485  0.1590 -0.2249  0.2179
   21CHL1   H20 1531   2.664   6.048   9.476  0.2503  0.0565 -2.1718
   21CHL1   C21 1532   2.831   5.921   9.486  0.0280 -0.0644  0.2632
   21CHL1  H21A 1533   2.939   5.906   9.502 -0.2469 -1.2284  1.1737
   21CHL1  H21B 1534   2.814   5.876   9.387  0.9051 -1.3361  0.6742
   21CHL1  H21C 1535   2.768   5.866   9.559 -0.0075  0.0719  0.3369
   21CHL1   C22 1536   2.815   6.129   9.341 -0.4760  0.7888 -0.0285
   21CHL1  H22A 1537   2.790   6.238   9.337  2.3755  1.5000 -2.4470
   21CHL1  H22B 1538   2.920   6.098   9.324 -0.9244 -1.3982  0.8882
   21CHL1   C23 1539   2.730   6.079   9.218  0.0921  0.2988 -0.0462
   21CHL1  H23A 1540   2.724   5.968   9.219  2.4202  0.0664 -1.6683
   21CHL1  H23B 1541   2.626   6.115   9.234  0.9169  2.1661  1.5564
   21CHL1   C24 1542   2.800   6.114   9.084  0.3191  0.4721  0.4047
   21CHL1  H24A 1543   2.894   6.058   9.065 -0.0274  0.0479 -0.0829
   21CHL1  H24B 1544   2.743   6.077   8.996  2.5317 -1.0235 -0.4695
   21CHL1   C25 1545   2.832   6.265   9.059 -0.1902  0.5470  0.3117
   21CHL1   H25 1546   2.884   6.311   9.145  0.3665  0.2530  0.1320
   21CHL1   C26 1547   2.916   6.276   8.930 -0.4727 -0.0068  0.1060
   21CHL1  H26A 1548   2.869   6.235   8.838  0.1441 -1.3944  0.3849
   21CHL1  H26B 1549   2.956   6.379   8.922  0.4731 -0.3666  0.1506
   21CHL1  H26C 1550   3.010   6.217   8.928  0.0316  0.6468 -3.5395
   21CHL1   C27 1551   2.713   6.363   9.048  0.4126  0.7378  0.3039
   21CHL1  H27A 1552   2.745   6.469   9.045  1.1649  0.5109 -2.0892
   21CHL1  H27B 1553   2.671   6.348   8.946  0.6034  1.6767  0.0859
   21CHL1  H27C 1554   2.635   6.348   9.126 -1.8423  1.0791 -1.7686
   22CHL1    C3 1555   2.808   1.218  10.100  0.1670  0.8336  0.2108
   22CHL1    H3 1556   2.720   1.213  10.033 -0.6507  4.4022  0.8141
   22CHL1    O3 1557   2.768   1.183  10.233 -0.8877  0.0506  0.4379
   22CHL1   H3' 1558   2.741   1.262  10.282  1.4855  0.5539  1.0444
   22CHL1    C4 1559   2.912   1.114  10.054  0.0446  0.3416 -0.1546
   22CHL1   H4A 1560   2.991   1.107  10.131 -2.1090  2.6522  2.4576
   22CHL1   H4B 1561   2.868   1.011  10.054 -0.2728  0.4298  1.9610
   22CHL1    C5 1562   2.971   1.144   9.922  0.3140  0.3639  0.2346
   22CHL1    C6 1563   2.961   1.062   9.816 -0.0836 -0.4569 -0.2431
   22CHL1    H6 1564   2.915   0.963   9.825  0.9662 -0.8082  1.6988
   22CHL1    C7 1565   3.013   1.092   9.679  0.1064 -1.2731 -0.0884
   22CHL1   H7A 1566   3.063   1.003   9.635  1.4382  0.0096 -1.2712
   22CHL1   H7B 1567   2.936   1.127   9.607  0.4984  0.1845  0.1673
   22CHL1    C8 1568   3.115   1.210   9.684  0.1768 -0.0497 -0.3843
   22CHL1    H8 1569   3.207   1.171   9.732  0.0241  1.2014  1.0049
   22CHL1   C14 1570   3.155   1.251   9.540  0.2324  0.0948  0.4619
   22CHL1   H14 1571   3.065   1.295   9.493  1.8028 -0.8073 -3.8531
   22CHL1   C15 1572   3.192   1.136   9.441 -0.0538 -0.5476 -0.3965
   22CHL1  H15A 1573   3.249   1.061   9.499  3.0192 -0.4820 -3.0517
   22CHL1  H15B 1574   3.106   1.095   9.383 -0.1239 -2.2208  0.8234
   22CHL1   C16 1575   3.288   1.211   9.349  0.0007 -0.7320  0.4685
   22CHL1  H16A 1576   3.393   1.180   9.367  0.4146  1.5353  2.4273
   22CHL1  H16B 1577   3.279   1.187   9.241  1.5379 -2.1134  0.6036
   22CHL1   C17 1578   3.278   1.363   9.380 -0.3061 -0.2143  0.7543
   22CHL1   H17 1579   3.188   1.399   9.325  0.9824 -0.5124 -1.7089
   22CHL1   C13 1580   3.252   1.367   9.533  0.6259 -0.4893 -1.0279
   22CHL1   C18 1581   3.381   1.331   9.609 -0.0242  0.3174  0.3965
   22CHL1  H18A 1582   3.425   1.239   9.565  1.9934  1.3112  0.2353
   22CHL1  H18B 1583   3.463   1.404   9.591  1.2098 -0.8204  1.2266
   22CHL1  H18C 1584   3.368   1.335   9.719  2.8221  0.1290  0.8155
   22CHL1   C12 1585   3.184   1.491   9.595 -0.6888 -0.1137 -0.6824
   22CHL1  H12A 1586   3.262   1.571   9.596  1.0599 -1.6825 -2.4421
   22CHL1  H12B 1587   3.095   1.518   9.535 -1.0944  2.1095  0.8090
   22CHL1   C11 1588   3.136   1.463   9.740  0.8326 -0.0807  0.2160
   22CHL1  H11A 1589   3.224   1.469   9.808 -0.3909  1.3748  1.7666
   22CHL1  H11B 1590   3.072   1.541   9.787  0.0734  0.2900 -1.3645
   22CHL1    C9 1591   3.061   1.324   9.765 -0.5294 -1.3441  0.4549
   22CHL1    H9 1592   2.959   1.337   9.723  0.6720  0.5000 -2.1108
   22CHL1   C10 1593   3.032   1.286   9.913  0.7725  0.2050  0.4465
   22CHL1   C19 1594   3.162   1.278   9.995  0.2190  0.5852  0.6568
   22CHL1  H19A 1595   3.211   1.378   9.999 -0.3123  0.9032 -0.6094
   22CHL1  H19B 1596   3.139   1.245  10.099  1.7313  5.4349  2.8497
   22CHL1  H19C 1597   3.227   1.205   9.942  0.7888  1.4670  0.1212
   22CHL1    C1 1598   2.934   1.393   9.972 -0.2604  0.6935  0.3779
   22CHL1   H1A 1599   2.998   1.479  10.000 -2.8283  2.7176  0.4497
   22CHL1   H1B 1600   2.860   1.422   9.894  2.7252 -1.1146 -3.4120
   22CHL1    C2 1601   2.856   1.360  10.102 -0.3282 -0.9693 -0.6090
   22CHL1   H2A 1602   2.781   1.441  10.109  0.8992  0.2422 -1.2322
   22CHL1   H2B 1603   2.935   1.368  10.179 -2.5132  0.2561  1.6329
   22CHL1   C20 1604   3.394   1.442   9.314  0.8343 -0.7474 -0.0939
   22CHL1   H20 1605   3.492   1.400   9.346 -0.3719 -1.3975  3.0436
   22CHL1   C21 1606   3.386   1.586   9.362 -0.0195 -0.8182  0.1438
   22CHL1  H21A 1607   3.423   1.609   9.464 -4.4082 -0.0676  1.7857
   22CHL1  H21B 1608   3.279   1.618   9.361 -0.0391 -0.8820  0.1958
   22CHL1  H21C 1609   3.431   1.652   9.284 -0.8804 -0.6139 -0.1955
   22CHL1   C22 1610   3.396   1.428   9.162  0.9995  0.2201 -0.3736
   22CHL1  H22A 1611   3.499   1.455   9.131  0.2816  1.3555 -1.9050
   22CHL1  H22B 1612   3.399   1.321   9.133  0.5386  0.2794 -0.6519
   22CHL1   C23 1613   3.286   1.503   9.085 -0.1370  0.1709  0.2208
   22CHL1  H23A 1614   3.188   1.452   9.090  1.5475 -3.6356 -1.2313
   22CHL1  H23B 1615   3.272   1.608   9.116 -0.9848  0.2058 -0.2624
   22CHL1   C24 1616   3.322   1.527   8.935 -0.3434  0.7066 -0.9590
   22CHL1  H24A 1617   3.415   1.587   8.922 -0.7369  2.7175  3.5374
   22CHL1  H24B 1618   3.352   1.430   8.889  0.2467  0.5552 -0.2838
   22CHL1   C25 1619   3.206   1.590   8.847 -0.1937  0.7725  0.7132
   22CHL1   H25 1620   3.118   1.521   8.846  0.0178  0.4547 -1.6067
   22CHL1   C26 1621   3.171   1.730   8.900 -0.6801  0.1676 -0.3869
   22CHL1  H26A 1622   3.082   1.765   8.844 -0.4569  0.1241 -0.7713
   22CHL1  H26B 1623   3.153   1.726   9.010  1.6462 -3.5561  0.0309
   22CHL1  H26C 1624   3.261   1.795   8.892  0.1433 -0.5780  1.8647
   22CHL1   C27 1625   3.263   1.594   8.703  0.0045  0.5020 -0.7313
   22CHL1  H27A 1626   3.276   1.491   8.664 -0.0860 -0.3484  1.3285
   22CHL1  H27B 1627   3.189   1.647   8.639 -3.0246 -0.9619  1.3225
   22CHL1  H27C 1628   3.364   1.640   8.710 -0.1384  0.5831  1.5444
   23CHL1    C3 1629   0.151   2.620  10.203  0.0872  0.1379 -0.3119
   23CHL1    H3 1630   0.218   2.706  10.220  0.8511 -0.2023 -1.4659
   23CHL1    O3 1631   0.125   2.569  10.334  0.1392  0.1775  0.1499
   23CHL1   H3' 1632   0.211   2.543  10.366 -0.5305 -1.6435  0.6087
   23CHL1    C4 1633   0.017   2.660  10.146  0.1185  0.1154 -0.2458
   23CHL1   H4A 1634  -0.054   2.575  10.142  0.0766  0.1101  0.4790
   23CHL1   H4B 1635  -0.018   2.741  10.213  2.9509  1.8864 -0.7202
   23CHL1    C5 1636   0.032   2.715  10.001  0.3178 -0.6452  0.1008
   23CHL1    C6 1637  -0.016   2.833   9.971 -0.2447 -0.4124 -0.3933
   23CHL1    H6 1638  -0.071   2.892  10.046 -0.9877 -0.5865 -0.7980
   23CHL1    C7 1639  -0.019   2.888   9.828  0.9513 -0.4827  0.4568
   23CHL1   H7A 1640  -0.123   2.908   9.793  0.8403  1.4334  1.7589
   23CHL1   H7B 1641   0.035   2.985   9.825  3.1207 -1.5869  1.3987
   23CHL1    C8 1642   0.037   2.781   9.721 -0.3790 -0.3561 -1.4646
   23CHL1    H8 1643  -0.042   2.710   9.689 -0.2743 -1.6655  0.9715
   23CHL1   C14 1644   0.076   2.861   9.599  0.5532 -0.9066  0.2853
   23CHL1   H14 1645   0.134   2.952   9.626 -1.4176  0.2140  0.9435
   23CHL1   C15 1646  -0.036   2.937   9.531  0.5611 -0.4463  0.8932
   23CHL1  H15A 1647  -0.120   2.866   9.514 -0.2725  0.4896  1.0077
   23CHL1  H15B 1648  -0.073   3.027   9.585 -1.1923 -0.2581 -0.5091
   23CHL1   C16 1649   0.030   2.985   9.400  1.1613  0.3042 -0.4004
   23CHL1  H16A 1650  -0.051   2.968   9.327 -1.3302  0.1000  2.2293
   23CHL1  H16B 1651   0.045   3.095   9.402 -0.3970  0.6145 -2.5453
   23CHL1   C17 1652   0.164   2.896   9.382 -0.1586 -0.1479  0.3081
   23CHL1   H17 1653   0.248   2.958   9.419  2.7077 -2.0290 -2.5868
   23CHL1   C13 1654   0.152   2.782   9.485  0.2265 -0.3769  0.2113
   23CHL1   C18 1655   0.062   2.678   9.419 -0.0381 -0.1473 -0.1160
   23CHL1  H18A 1656  -0.039   2.706   9.383  0.0685 -0.5712 -0.7661
   23CHL1  H18B 1657   0.119   2.634   9.334  0.6369 -0.7372  0.6186
   23CHL1  H18C 1658   0.052   2.584   9.479 -1.7865 -0.4647 -0.8526
   23CHL1   C12 1659   0.278   2.722   9.547 -0.1239  0.3759 -0.5068
   23CHL1  H12A 1660   0.333   2.657   9.476  0.6479  0.4115  0.0349
   23CHL1  H12B 1661   0.349   2.797   9.589 -0.4558 -0.0249  0.8452
   23CHL1   C11 1662   0.238   2.632   9.674 -0.3496  0.2203 -0.4049
   23CHL1  H11A 1663   0.192   2.540   9.633 -1.3204  0.9165 -0.9295
   23CHL1  H11B 1664   0.336   2.600   9.714  0.5840  2.2089 -0.9562
   23CHL1    C9 1665   0.162   2.710   9.779  0.7401  0.4799  0.3088
   23CHL1    H9 1666   0.224   2.791   9.822 -0.3479  0.0185  3.0247
   23CHL1   C10 1667   0.118   2.629   9.904  1.0370  0.1097 -0.1422
   23CHL1   C19 1668   0.013   2.521   9.863 -1.0759 -0.3303 -0.3756
   23CHL1  H19A 1669   0.063   2.450   9.794 -2.4162 -0.5226 -1.1844
   23CHL1  H19B 1670  -0.019   2.457   9.948  1.0418  1.0061  1.5553
   23CHL1  H19C 1671  -0.074   2.564   9.808  0.9877  3.0537 -1.3143
   23CHL1    C1 1672   0.242   2.563   9.980 -0.2564  0.7563  0.1331
   23CHL1   H1A 1673   0.285   2.486   9.913 -1.1768 -0.7135  1.1569
   23CHL1   H1B 1674   0.309   2.650   9.993  0.4159  0.2013  0.4742
   23CHL1    C2 1675   0.215   2.510  10.125 -0.1239 -0.6710 -0.3324
   23CHL1   H2A 1676   0.319   2.498  10.162  0.3428  1.3619 -0.8590
   23CHL1   H2B 1677   0.155   2.417  10.121 -1.8966  0.4643 -2.5279
   23CHL1   C20 1678   0.199   2.867   9.234 -0.4443  0.2568  0.8748
   23CHL1   H20 1679   0.123   2.805   9.182 -1.2843  3.0638 -1.4646
   23CHL1   C21 1680   0.328   2.795   9.222  0.4209  0.3724 -0.1463
   23CHL1  H21A 1681   0.410   2.841   9.281 -0.1203  2.0829 -0.6784
   23CHL1  H21B 1682   0.363   2.779   9.118 -1.5471  2.7352 -1.2597
   23CHL1  H21C 1683   0.309   2.696   9.269 -1.5475  0.6739 -0.2253
   23CHL1   C22 1684   0.202   2.999   9.153  0.6633  0.1582 -0.4521
   23CHL1  H22A 1685   0.098   3.038   9.150 -0.7923 -3.1671  1.3040
   23CHL1  H22B 1686   0.260   3.077   9.207 -1.6725  0.9652  1.0953
   23CHL1   C23 1687   0.244   2.979   9.006 -0.1652 -0.7519 -0.1181
   23CHL1  H23A 1688   0.231   3.079   8.958  0.4165 -1.2503 -1.3691
   23CHL1  H23B 1689   0.354   2.965   9.003  0.2839  2.2064 -1.4430
   23CHL1   C24 1690   0.158   2.884   8.921 -0.8644  0.6958 -0.7078
   23CHL1  H24A 1691   0.144   2.783   8.967 -0.0851 -0.5121 -2.9803
   23CHL1  H24B 1692   0.053   2.920   8.911 -1.4852 -0.2340  1.6989
   23CHL1   C25 1693   0.212   2.864   8.778  0.1727  1.3398  0.0437
   23CHL1   H25 1694   0.225   2.967   8.739 -1.0356  2.8722  3.3014
   23CHL1   C26 1695   0.343   2.786   8.772  0.6477 -0.3583 -0.4225
   23CHL1  H26A 1696   0.311   2.680   8.783 -1.1092  0.2703  0.9388
   23CHL1  H26B 1697   0.387   2.799   8.671 -1.5978 -1.2391 -1.5940
   23CHL1  H26C 1698   0.417   2.813   8.850  1.9984 -1.1630 -1.3908
   23CHL1   C27 1699   0.106   2.786   8.696  0.3027  0.3141  0.1237
   23CHL1  H27A 1700   0.024   2.861   8.697  2.3005  2.6192  1.7405
   23CHL1  H27B 1701   0.140   2.768   8.592 -0.5420  1.5966 -0.3924
   23CHL1  H27C 1702   0.064   2.695   8.745  1.2556 -1.3202 -1.9379
   24CHL1    C3 1703   1.671   3.087  10.211 -0.5697  0.8828 -0.3325
   24CHL1    H3 1704   1.779   3.097  10.187  0.2199 -2.9263  0.9788
   24CHL1    O3 1705   1.657   3.070  10.351 -0.3554 -0.3020  0.0561
   24CHL1   H3' 1706   1.563   3.080  10.368 -1.0244 -2.2349 -2.0477
   24CHL1    C4 1707   1.587   3.205  10.159  0.0741 -0.1587 -0.0358
   24CHL1   H4A 1708   1.478   3.195  10.180 -0.6019  2.6537 -1.6658
   24CHL1   H4B 1709   1.616   3.296  10.217  0.2551  1.0326 -1.9272
   24CHL1    C5 1710   1.606   3.215  10.009  0.2565  0.3414 -0.6964
   24CHL1    C6 1711   1.651   3.330   9.959 -0.0158 -0.4020  0.3249
   24CHL1    H6 1712   1.658   3.419  10.023 -0.7187 -1.0108  1.2678
   24CHL1    C7 1713   1.679   3.349   9.808  0.9292 -0.4547 -0.2865
   24CHL1   H7A 1714   1.654   3.453   9.779 -4.0355 -1.2166  0.3461
   24CHL1   H7B 1715   1.789   3.339   9.799  0.8060 -2.0411 -0.3662
   24CHL1    C8 1716   1.607   3.248   9.714  0.1563  0.1413 -0.1643
   24CHL1    H8 1717   1.502   3.283   9.712 -0.4593 -1.4945  1.1323
   24CHL1   C14 1718   1.669   3.242   9.580  0.5454  0.7925  0.5138
   24CHL1   H14 1719   1.773   3.206   9.596  0.7961  2.0052  1.8392
   24CHL1   C15 1720   1.689   3.372   9.508 -0.5339  0.2078 -0.0970
   24CHL1  H15A 1721   1.596   3.433   9.508  0.2008  1.4204 -1.7663
   24CHL1  H15B 1722   1.775   3.423   9.557  1.0013 -1.3174 -1.0967
   24CHL1   C16 1723   1.724   3.328   9.368  0.4657  0.2369 -0.1805
   24CHL1  H16A 1724   1.662   3.388   9.299 -1.2800  0.3754  1.4281
   24CHL1  H16B 1725   1.828   3.347   9.334 -0.0009  1.9724 -0.7315
   24CHL1   C17 1726   1.687   3.174   9.357  0.5401 -0.8120  0.4360
   24CHL1   H17 1727   1.781   3.115   9.363  0.0092 -1.6803  0.4221
   24CHL1   C13 1728   1.611   3.145   9.480 -0.3086  0.2899  0.3360
   24CHL1   C18 1729   1.469   3.194   9.453  0.0859  0.4972 -0.2635
   24CHL1  H18A 1730   1.469   3.290   9.397  1.4130  0.9228  0.4275
   24CHL1  H18B 1731   1.408   3.111   9.412  0.4976 -0.2695  0.6510
   24CHL1  H18C 1732   1.420   3.215   9.550  1.5280  0.1440  0.5708
   24CHL1   C12 1733   1.633   3.006   9.538  0.7333 -0.8484  0.2064
   24CHL1  H12A 1734   1.582   2.928   9.478 -0.4941  1.6639 -2.2718
   24CHL1  H12B 1735   1.740   2.979   9.552  0.5601 -1.8401 -0.2621
   24CHL1   C11 1736   1.565   2.998   9.672 -0.1772 -0.8923  0.2678
   24CHL1  H11A 1737   1.455   3.009   9.656  0.0707 -0.8491 -1.6071
   24CHL1  H11B 1738   1.575   2.895   9.711  1.6016 -1.4088 -1.3979
   24CHL1    C9 1739   1.615   3.107   9.780 -0.3951  0.5010 -0.5745
   24CHL1    H9 1740   1.724   3.083   9.782 -0.3837  0.4470 -1.6984
   24CHL1   C10 1741   1.576   3.092   9.927  0.2196  0.3120 -0.3044
   24CHL1   C19 1742   1.419   3.075   9.923  0.1030  0.4554 -0.3896
   24CHL1  H19A 1743   1.383   3.160   9.861 -0.9903 -1.6552 -2.8673
   24CHL1  H19B 1744   1.376   2.981   9.881 -2.2744  1.4463 -0.3598
   24CHL1  H19C 1745   1.372   3.062  10.023  1.5572  0.8067  0.3584
   24CHL1    C1 1746   1.654   2.969   9.994 -0.0041 -0.3696  0.4550
   24CHL1   H1A 1747   1.624   2.872   9.950  0.0596 -0.0412 -0.3167
   24CHL1   H1B 1748   1.764   2.984   9.984 -0.4901  2.1358 -1.9327
   24CHL1    C2 1749   1.626   2.960  10.143  0.4510  0.6231  0.4605
   24CHL1   H2A 1750   1.682   2.871  10.180  0.1552  1.1407  2.2765
   24CHL1   H2B 1751   1.517   2.943  10.157  0.6469 -1.1993 -0.0606
   24CHL1   C20 1752   1.629   3.132   9.221  0.6207  0.5357  0.2310
   24CHL1   H20 1753   1.528   3.175   9.204  0.7099 -0.0319 -2.1402
   24CHL1   C21 1754   1.597   2.978   9.201 -0.1035  0.5350 -0.2135
   24CHL1  H21A 1755   1.518   2.956   9.275  0.9244  0.4365  0.8846
   24CHL1  H21B 1756   1.691   2.926   9.229 -0.9123  0.6693  3.0836
   24CHL1  H21C 1757   1.566   2.957   9.096  0.0878 -1.6300  0.1198
   24CHL1   C22 1758   1.719   3.175   9.101 -0.6084 -0.4484  0.2137
   24CHL1  H22A 1759   1.730   3.284   9.116  0.0518 -0.3617 -0.8105
   24CHL1  H22B 1760   1.815   3.120   9.113 -0.7244 -0.8255 -0.5487
   24CHL1   C23 1761   1.682   3.143   8.955  0.0994  1.0380 -0.3963
   24CHL1  H23A 1762   1.674   3.033   8.939  1.6493  0.8618 -0.1602
   24CHL1  H23B 1763   1.584   3.189   8.933 -0.2052  0.4271 -0.3274
   24CHL1   C24 1764   1.802   3.181   8.875 -0.1499  0.1424  0.6905
   24CHL1  H24A 1765   1.829   3.284   8.904 -0.3625  0.0624  1.1738
   24CHL1  H24B 1766   1.889   3.114   8.894 -0.5560 -1.0022 -1.1853
   24CHL1   C25 1767   1.780   3.172   8.719 -1.1528  0.3534 -0.2230
   24CHL1   H25 1768   1.683   3.220   8.696 -1.3692 -0.2538 -0.5932
   24CHL1   C26 1769   1.896   3.256   8.655 -0.2617 -0.4699  0.3770
   24CHL1  H26A 1770   1.990   3.200   8.642  0.1116  0.8024 -3.8010
   24CHL1  H26B 1771   1.862   3.297   8.557 -0.4142  1.6914  1.2644
   24CHL1  H26C 1772   1.915   3.338   8.728  1.1018 -0.7085  0.3001
   24CHL1   C27 1773   1.781   3.037   8.654 -0.0760 -0.4132  0.5787
   24CHL1  H27A 1774   1.691   2.988   8.699 -1.1374  0.1473 -0.8508
   24CHL1  H27B 1775   1.765   3.050   8.545 -0.3664 -1.4653  0.4812
   24CHL1  H27C 1776   1.876   2.988   8.683  1.4240  2.1399  0.2532
   25CHL1    C3 1777   1.601   5.248  10.367  0.2696 -0.3943 -0.1553
   25CHL1    H3 1778   1.710   5.260  10.349  0.5738 -1.6678  0.7070
   25CHL1    O3 1779   1.592   5.247  10.506  0.0181  0.3282  0.2867
   25CHL1   H3' 1780   1.515   5.192  10.522 -0.8084  0.9657 -1.3261
   25CHL1    C4 1781   1.515   5.372  10.310  0.1063  0.3136 -0.2410
   25CHL1   H4A 1782   1.412   5.342  10.337  0.3865 -0.6155 -0.1769
   25CHL1   H4B 1783   1.540   5.459  10.375 -0.8511 -0.6272  1.4304
   25CHL1    C5 1784   1.538   5.395  10.161 -0.0647 -0.4529 -1.0976
   25CHL1    C6 1785   1.606   5.503  10.112  0.2549  0.8853 -0.1710
   25CHL1    H6 1786   1.631   5.585  10.181  2.8634  1.2878 -1.5008
   25CHL1    C7 1787   1.651   5.523   9.971 -0.3035 -0.8366 -0.8906
   25CHL1   H7A 1788   1.649   5.629   9.936 -1.4454 -0.5376  0.0243
   25CHL1   H7B 1789   1.756   5.488   9.959  0.1240  0.0087  0.2101
   25CHL1    C8 1790   1.558   5.427   9.881 -0.2760 -0.1047  0.2120
   25CHL1    H8 1791   1.455   5.468   9.880  0.1371  0.9877  0.0638
   25CHL1   C14 1792   1.593   5.432   9.734  0.4972  0.3304 -0.0107
   25CHL1   H14 1793   1.701   5.405   9.732  0.1590 -1.2143  0.6113
   25CHL1   C15 1794   1.592   5.568   9.655 -0.4152  0.7266  0.0829
   25CHL1  H15A 1795   1.494   5.620   9.650 -0.9228 -0.3127 -3.5278
   25CHL1  H15B 1796   1.668   5.641   9.689  0.7776  0.4143 -1.7865
   25CHL1   C16 1797   1.626   5.526   9.511  0.8515 -0.5288 -0.0667
   25CHL1  H16A 1798   1.581   5.593   9.434  0.4731 -1.0379 -0.2988
   25CHL1  H16B 1799   1.737   5.527   9.504  0.9896  1.7997  1.6408
   25CHL1   C17 1800   1.590   5.373   9.498  0.0618  0.1986 -0.1317
   25CHL1   H17 1801   1.689   5.322   9.499  0.4958  1.0240 -0.0984
   25CHL1   C13 1802   1.523   5.336   9.636 -0.0171 -0.8179  0.1007
   25CHL1   C18 1803   1.377   5.381   9.628  0.4596 -0.6464  0.4248
   25CHL1  H18A 1804   1.366   5.475   9.570 -2.4005  0.8730  3.1145
   25CHL1  H18B 1805   1.310   5.309   9.576  0.0809  0.1348 -0.1851
   25CHL1  H18C 1806   1.333   5.401   9.728 -1.1145 -1.5471 -0.0543
   25CHL1   C12 1807   1.531   5.191   9.697 -0.4755  0.3692 -0.5817
   25CHL1  H12A 1808   1.488   5.115   9.628 -4.1043  0.7988  0.9187
   25CHL1  H12B 1809   1.638   5.162   9.699 -0.7386 -0.6641 -0.7132
   25CHL1   C11 1810   1.491   5.182   9.842  0.4454  0.2016  0.4055
   25CHL1  H11A 1811   1.381   5.201   9.840  0.7127  1.9101  0.3764
   25CHL1  H11B 1812   1.517   5.081   9.882 -0.3936  0.4297  1.6041
   25CHL1    C9 1813   1.560   5.280   9.939 -0.4442 -0.5361  0.1287
   25CHL1    H9 1814   1.665   5.246   9.950  0.6007  2.8643  1.8705
   25CHL1   C10 1815   1.503   5.267  10.086 -0.1911  0.1084 -0.3579
   25CHL1   C19 1816   1.350   5.251  10.078  0.0596  0.2545  0.4729
   25CHL1  H19A 1817   1.308   5.168  10.018 -2.9395  3.1987 -1.8470
   25CHL1  H19B 1818   1.298   5.239  10.176 -1.1950  2.3088  0.1247
   25CHL1  H19C 1819   1.292   5.341  10.050 -0.9253 -0.9393 -1.5447
   25CHL1    C1 1820   1.561   5.137  10.151 -0.5562  0.8612 -0.4377
   25CHL1   H1A 1821   1.505   5.051  10.108 -0.2132 -0.4305  1.5379
   25CHL1   H1B 1822   1.671   5.137  10.134 -0.3932  0.6480  0.5600
   25CHL1    C2 1823   1.540   5.124  10.302  0.0841 -0.4464 -0.3372
   25CHL1   H2A 1824   1.583   5.035  10.353  0.3420 -0.1578 -0.0503
   25CHL1   H2B 1825   1.432   5.115  10.324  0.0568 -0.4303 -0.4623
   25CHL1   C20 1826   1.522   5.332   9.359 -0.2338  0.0553  0.3192
   25CHL1   H20 1827   1.430   5.389   9.334  0.0598  0.0579 -0.8278
   25CHL1   C21 1828   1.492   5.184   9.356  0.6691  0.1025 -0.1574
   25CHL1  H21A 1829   1.581   5.118   9.358  0.0602 -0.7490 -0.0604
   25CHL1  H21B 1830   1.438   5.156   9.262  0.8009 -1.6406  0.2548
   25CHL1  H21C 1831   1.431   5.160   9.446 -0.6186  1.6150 -0.5947
   25CHL1   C22 1832   1.624   5.364   9.245  0.4467  0.2578 -0.6190
   25CHL1  H22A 1833   1.672   5.464   9.250  0.9064 -0.0274  2.3495
   25CHL1  H22B 1834   1.700   5.287   9.269 -0.7045 -0.7690 -0.1038
   25CHL1   C23 1835   1.567   5.335   9.100 -0.3233 -0.1885 -0.2533
   25CHL1  H23A 1836   1.535   5.229   9.089 -1.1458 -0.1024  1.0188
   25CHL1  H23B 1837   1.487   5.411   9.087 -0.0190  0.0479 -0.7354
   25CHL1   C24 1838   1.675   5.368   9.002 -0.7795 -0.3788  0.2755
   25CHL1  H24A 1839   1.690   5.476   9.022 -2.3353 -0.0622 -0.1222
   25CHL1  H24B 1840   1.772   5.317   9.020 -1.4642 -2.3467 -1.2342
   25CHL1   C25 1841   1.623   5.354   8.858 -0.5414 -0.1034 -0.9266
   25CHL1   H25 1842   1.516   5.384   8.865  0.2374  2.5265  0.9882
   25CHL1   C26 1843   1.695   5.448   8.766 -0.7053  0.0031  0.2816
   25CHL1  H26A 1844   1.667   5.552   8.794  0.0494 -0.3978  2.7794
   25CHL1  H26B 1845   1.804   5.433   8.782 -0.7718  0.4451  1.1871
   25CHL1  H26C 1846   1.670   5.444   8.658  1.5062 -0.1370 -0.2813
   25CHL1   C27 1847   1.640   5.214   8.817  0.4712  0.3033 -0.1985
   25CHL1  H27A 1848   1.744   5.180   8.799 -0.2387 -1.5041 -1.1695
   25CHL1  H27B 1849   1.592   5.148   8.893  0.7149  0.2744 -0.0709
   25CHL1  H27C 1850   1.578   5.188   8.728  0.9818 -1.8784  0.0407
   26CHL1    C3 1851   3.714   5.649   9.976 -0.1154  0.2910  0.1801
   26CHL1    H3 1852   3.663   5.569   9.916 -1.2932  0.8252  0.4324
   26CHL1    O3 1853   3.725   5.597  10.114 -0.3748 -0.3179  0.3458
   26CHL1   H3' 1854   3.777   5.664  10.159 -0.0809 -0.3227  0.0183
   26CHL1    C4 1855   3.853   5.679   9.912 -0.2170 -0.7396  0.2645
   26CHL1   H4A 1856   3.899   5.754   9.980 -3.3449  1.2861  0.3321
   26CHL1   H4B 1857   3.910   5.584   9.911 -0.4998 -0.9058 -0.9854
   26CHL1    C5 1858   3.843   5.752   9.778  1.1246 -0.1428  0.1530
   26CHL1    C6 1859   3.911   5.701   9.675  0.6404  1.1365  0.2466
   26CHL1    H6 1860   3.965   5.605   9.680  0.6269  1.1851  2.1431
   26CHL1    C7 1861   3.918   5.764   9.538  0.0985  0.5568 -0.4454
   26CHL1   H7A 1862   4.024   5.770   9.506  0.1438  1.3241 -0.1695
   26CHL1   H7B 1863   3.857   5.707   9.464  0.7112  0.4766 -0.8981
   26CHL1    C8 1864   3.868   5.910   9.533  0.4912 -0.2319 -0.2383
   26CHL1    H8 1865   3.958   5.965   9.568  0.5192 -0.8382  0.6722
   26CHL1   C14 1866   3.827   5.953   9.391  0.0508  0.6247  0.7248
   26CHL1   H14 1867   3.733   5.899   9.365 -0.6403  2.7106 -1.4616
   26CHL1   C15 1868   3.927   5.917   9.279  0.5394  0.2940  0.1057
   26CHL1  H15A 1869   4.029   5.930   9.322 -0.3435  0.0900  2.4310
   26CHL1  H15B 1870   3.921   5.810   9.251 -1.1689  0.0538  1.1835
   26CHL1   C16 1871   3.893   6.019   9.174  0.4762  0.2731  0.2113
   26CHL1  H16A 1872   3.981   6.086   9.166 -0.2767  1.1733 -0.7729
   26CHL1  H16B 1873   3.871   5.970   9.077  0.0124  0.2938  0.3004
   26CHL1   C17 1874   3.774   6.100   9.220  0.2025 -0.6674 -0.1250
   26CHL1   H17 1875   3.683   6.040   9.203  0.7965 -2.1033  1.5068
   26CHL1   C13 1876   3.798   6.100   9.377  0.0451  0.3548  0.1999
   26CHL1   C18 1877   3.920   6.182   9.421  0.4874 -0.0480  0.4360
   26CHL1  H18A 1878   3.906   6.288   9.389  0.1628  0.0238  0.8042
   26CHL1  H18B 1879   3.937   6.192   9.531  0.0952 -0.9464  0.5813
   26CHL1  H18C 1880   4.016   6.151   9.375  0.3813  1.6255 -1.0191
   26CHL1   C12 1881   3.672   6.117   9.467  0.2111  0.1391  0.1782
   26CHL1  H12A 1882   3.632   6.219   9.485 -0.8101 -0.4618  1.4859
   26CHL1  H12B 1883   3.597   6.042   9.434  0.0365  0.4464 -0.1214
   26CHL1   C11 1884   3.691   6.075   9.622 -0.2056  0.1509 -0.3444
   26CHL1  H11A 1885   3.771   6.147   9.649 -0.5862  1.6704 -2.9526
   26CHL1  H11B 1886   3.598   6.096   9.678 -0.5475  0.9450 -1.1887
   26CHL1    C9 1887   3.740   5.928   9.623 -0.4461  0.0376 -0.0718
   26CHL1    H9 1888   3.661   5.867   9.573 -1.4078  0.0564  1.3794
   26CHL1   C10 1889   3.754   5.876   9.768  0.0249 -0.3453 -0.0041
   26CHL1   C19 1890   3.827   5.991   9.847 -0.0545  0.6739  0.7020
   26CHL1  H19A 1891   3.763   6.081   9.860  0.4996  1.0184  1.0958
   26CHL1  H19B 1892   3.850   5.948   9.947 -0.5615  0.2440  0.6383
   26CHL1  H19C 1893   3.926   6.018   9.806  1.0292  1.3153  3.4725
   26CHL1    C1 1894   3.618   5.841   9.838 -0.0250  0.0403 -1.1380
   26CHL1   H1A 1895   3.566   5.938   9.856 -1.3281 -0.5354 -1.7545
   26CHL1   H1B 1896   3.558   5.783   9.766 -0.2206  0.5938 -1.4250
   26CHL1    C2 1897   3.629   5.777   9.975 -0.2676 -0.3314  0.1739
   26CHL1   H2A 1898   3.522   5.760  10.001  0.0327  1.3669  2.8480
   26CHL1   H2B 1899   3.668   5.845  10.053 -1.3748  2.0691 -1.2243
   26CHL1   C20 1900   3.765   6.237   9.155  0.1728  0.0944 -0.1543
   26CHL1   H20 1901   3.866   6.282   9.167  0.2942  0.7516 -2.9291
   26CHL1   C21 1902   3.650   6.323   9.203  0.4526  0.0955 -0.8751
   26CHL1  H21A 1903   3.655   6.334   9.313  0.4649 -1.7058 -0.6581
   26CHL1  H21B 1904   3.554   6.277   9.168  1.2203 -1.2614 -1.2919
   26CHL1  H21C 1905   3.666   6.428   9.170  1.2917  0.3885  0.4158
   26CHL1   C22 1906   3.753   6.218   9.003 -0.1962 -0.9945  0.0762
   26CHL1  H22A 1907   3.833   6.156   8.956 -1.0712 -1.7286 -0.4992
   26CHL1  H22B 1908   3.650   6.193   8.970 -0.3923 -2.2460  1.5198
   26CHL1   C23 1909   3.774   6.366   8.938 -0.0379  0.6947 -0.7177
   26CHL1  H23A 1910   3.710   6.436   8.997 -0.9414 -0.5393 -0.1931
   26CHL1  H23B 1911   3.879   6.397   8.958  0.3858 -2.2710  2.8230
   26CHL1   C24 1912   3.744   6.366   8.786 -0.0609  0.0212  0.2121
   26CHL1  H24A 1913   3.815   6.296   8.736  0.5888 -1.0409  2.4903
   26CHL1  H24B 1914   3.640   6.329   8.786 -0.3071  0.6903  1.1438
   26CHL1   C25 1915   3.747   6.497   8.709  0.0075 -0.5905 -0.0055
   26CHL1   H25 1916   3.850   6.518   8.674 -1.2081  2.7282 -2.0037
   26CHL1   C26 1917   3.671   6.479   8.578  0.1373 -0.9655  0.5642
   26CHL1  H26A 1918   3.720   6.394   8.525  0.6996 -0.4769  0.2740
   26CHL1  H26B 1919   3.564   6.456   8.595  0.4524 -2.1086  1.0857
   26CHL1  H26C 1920   3.683   6.562   8.505 -0.2712  0.4750  2.0777
   26CHL1   C27 1921   3.691   6.621   8.786  0.2336 -0.2120  0.0183
   26CHL1  H27A 1922   3.581   6.630   8.800  0.5675  1.8709  1.6498
   26CHL1  H27B 1923   3.722   6.646   8.889  0.1773  0.9190 -0.2301
   26CHL1  H27C 1924   3.710   6.710   8.723 -1.5406  0.2559  0.0996
   27CHL1    C3 1925   0.727   4.110  10.471  0.2469 -0.3942 -0.1890
   27CHL1    H3 1926   0.695   4.216  10.459 -1.2964 -0.6933  1.0370
   27CHL1    O3 1927   0.710   4.067  10.605  0.0229 -0.0860  0.0246
   27CHL1   H3' 1928   0.615   4.059  10.616 -0.1534  0.2108 -1.1562
   27CHL1    C4 1929   0.642   4.018  10.381 -0.7650  0.3998 -1.0677
   27CHL1   H4A 1930   0.683   3.916  10.397 -1.4273  0.5784  2.5387
   27CHL1   H4B 1931   0.538   4.010  10.419  0.1494 -2.3079  1.1949
   27CHL1    C5 1932   0.652   4.042  10.240 -0.7230  0.0070  0.0753
   27CHL1    C6 1933   0.542   4.082  10.172 -0.1821  0.6393 -0.1217
   27CHL1    H6 1934   0.443   4.074  10.220 -0.2669 -1.1636 -0.5496
   27CHL1    C7 1935   0.538   4.125  10.030 -0.0228 -0.0194  0.1009
   27CHL1   H7A 1936   0.448   4.081   9.983 -0.3469 -0.2382  0.9138
   27CHL1   H7B 1937   0.514   4.233  10.036 -0.2569 -0.1422  3.2246
   27CHL1    C8 1938   0.662   4.086   9.955 -0.6861  0.8443 -0.1561
   27CHL1    H8 1939   0.658   3.979   9.924  0.1821  0.7812 -0.0813
   27CHL1   C14 1940   0.672   4.174   9.829  0.3024 -0.3316 -0.5069
   27CHL1   H14 1941   0.676   4.280   9.862  0.1765 -0.0125 -1.4731
   27CHL1   C15 1942   0.557   4.164   9.732  0.1279 -0.1511 -0.0598
   27CHL1  H15A 1943   0.528   4.061   9.701 -1.4433  0.3700 -0.4053
   27CHL1  H15B 1944   0.463   4.206   9.774  0.8237 -1.2611  2.8457
   27CHL1   C16 1945   0.605   4.236   9.607  0.4257 -0.0057 -0.3967
   27CHL1  H16A 1946   0.558   4.199   9.514  1.5735  2.4368 -2.0551
   27CHL1  H16B 1947   0.575   4.343   9.610 -0.0573 -0.1515  0.4672
   27CHL1   C17 1948   0.761   4.233   9.618 -0.3362 -0.3081  0.6056
   27CHL1   H17 1949   0.785   4.338   9.644  1.4009 -0.7810  1.0171
   27CHL1   C13 1950   0.796   4.140   9.743 -0.0886  0.3335  0.6486
   27CHL1   C18 1951   0.802   3.993   9.706 -0.1373 -0.2104  0.5069
   27CHL1  H18A 1952   0.797   3.917   9.787  1.4470  0.1444  0.9731
   27CHL1  H18B 1953   0.726   3.973   9.627  1.2487 -2.8269 -0.2829
   27CHL1  H18C 1954   0.899   3.967   9.659 -1.0630  0.4132 -1.9189
   27CHL1   C12 1955   0.924   4.182   9.818  0.5002  0.3701 -0.6540
   27CHL1  H12A 1956   1.008   4.153   9.751 -1.4276  0.3389 -3.2187
   27CHL1  H12B 1957   0.912   4.292   9.829 -2.1816  0.1669 -0.8517
   27CHL1   C11 1958   0.926   4.112   9.957  0.3260  0.0867 -0.3642
   27CHL1  H11A 1959   0.954   4.005   9.947 -0.0569 -0.2854  2.0088
   27CHL1  H11B 1960   1.003   4.162  10.019  0.6451  0.0370 -0.7123
   27CHL1    C9 1961   0.791   4.121  10.037 -0.2930  0.1123  0.5856
   27CHL1    H9 1962   0.784   4.229  10.058 -2.2082 -0.1646  1.6035
   27CHL1   C10 1963   0.793   4.057  10.179 -0.0284  0.1863  0.1341
   27CHL1   C19 1964   0.855   3.914  10.172  0.8418 -0.0430 -0.2304
   27CHL1  H19A 1965   0.956   3.901  10.128  0.3398  0.4023 -1.5643
   27CHL1  H19B 1966   0.858   3.882  10.278  0.4353 -2.4080 -0.8767
   27CHL1  H19C 1967   0.784   3.847  10.120 -0.1056 -0.8736  2.0031
   27CHL1    C1 1968   0.869   4.141  10.272 -0.6593  0.4136 -0.4946
   27CHL1   H1A 1969   0.975   4.143  10.239  0.4514 -0.0246  2.6506
   27CHL1   H1B 1970   0.840   4.247  10.259 -0.1109  0.4765 -1.2810
   27CHL1    C2 1971   0.869   4.110  10.422  0.3089  0.3449  0.6249
   27CHL1   H2A 1972   0.921   4.194  10.473  1.2212  1.8142 -2.4390
   27CHL1   H2B 1973   0.932   4.023  10.449  2.7764  2.3317  1.6779
   27CHL1   C20 1974   0.834   4.210   9.489  0.0210 -0.5003  0.0029
   27CHL1   H20 1975   0.788   4.115   9.456  0.7143 -1.9268  2.8317
   27CHL1   C21 1976   0.987   4.193   9.494 -0.1333  0.4347  0.2365
   27CHL1  H21A 1977   1.031   4.275   9.554  1.0878  1.1535 -1.5441
   27CHL1  H21B 1978   1.034   4.204   9.394 -3.1364 -0.0464 -1.3159
   27CHL1  H21C 1979   1.012   4.094   9.538 -1.2743  0.0202 -0.0194
   27CHL1   C22 1980   0.789   4.315   9.382 -0.9625 -0.3432 -0.0866
   27CHL1  H22A 1981   0.683   4.349   9.386 -1.0793 -0.3633 -1.9814
   27CHL1  H22B 1982   0.849   4.408   9.394 -0.4393 -0.8308  1.2964
   27CHL1   C23 1983   0.797   4.261   9.232 -0.0714 -0.7756 -0.3765
   27CHL1  H23A 1984   0.905   4.262   9.207  0.0080  0.5181 -0.0275
   27CHL1  H23B 1985   0.750   4.160   9.243  2.2600 -1.8225  0.5829
   27CHL1   C24 1986   0.729   4.372   9.149 -0.0698  0.5218 -0.2923
   27CHL1  H24A 1987   0.638   4.404   9.204  0.7005 -0.4630  1.6471
   27CHL1  H24B 1988   0.804   4.453   9.141 -0.3623  0.9334  0.8606
   27CHL1   C25 1989   0.693   4.318   9.001  0.5550 -0.0186  0.2016
   27CHL1   H25 1990   0.659   4.408   8.945  2.0000 -0.2392 -1.1143
   27CHL1   C26 1991   0.804   4.239   8.935 -0.8989 -0.4470  0.1471
   27CHL1  H26A 1992   0.893   4.303   8.916  1.3805 -3.1862  0.8783
   27CHL1  H26B 1993   0.843   4.154   8.995 -0.2313 -1.6984 -1.9620
   27CHL1  H26C 1994   0.770   4.197   8.838 -0.7332 -2.3720  0.8825
   27CHL1   C27 1995   0.564   4.232   9.008  0.3066 -0.3990  0.7759
   27CHL1  H27A 1996   0.487   4.269   9.079 -0.3759 -1.8304  0.8282
   27CHL1  H27B 1997   0.524   4.198   8.910  4.9780 -3.2890 -0.4709
   27CHL1  H27C 1998   0.597   4.139   9.059 -0.6838 -1.3096 -0.1923
   28CHL1    C3 1999   0.854   2.389  10.098 -0.3665  0.4057  0.2086
   28CHL1    H3 2000   0.797   2.484  10.108 -0.0313  0.4617  1.7107
   28CHL1    O3 2001   0.896   2.346  10.221  0.0223 -0.1403  0.4866
   28CHL1   H3' 2002   0.818   2.312  10.266 -0.2958  0.5037  0.4236
   28CHL1    C4 2003   0.763   2.288  10.028 -0.3207 -0.0050  0.1589
   28CHL1   H4A 2004   0.805   2.186  10.014 -0.0966  0.2580 -1.3193
   28CHL1   H4B 2005   0.681   2.279  10.102 -0.8142 -0.9110 -0.4717
   28CHL1    C5 2006   0.716   2.341   9.888  0.4886 -0.7295 -0.3424
   28CHL1    C6 2007   0.586   2.340   9.850 -0.1615  0.6388  0.4523
   28CHL1    H6 2008   0.508   2.307   9.919 -0.4772 -0.1080 -0.2480
   28CHL1    C7 2009   0.543   2.382   9.714  0.2030 -0.4962  0.0911
   28CHL1   H7A 2010   0.454   2.324   9.681 -0.0402 -0.5098  0.7577
   28CHL1   H7B 2011   0.512   2.489   9.712 -2.3459 -1.1459 -2.3794
   28CHL1    C8 2012   0.652   2.364   9.609 -0.7444  0.5654 -0.4732
   28CHL1    H8 2013   0.686   2.258   9.605 -0.0694  0.7479  0.2240
   28CHL1   C14 2014   0.617   2.422   9.473  0.5820 -0.3192  0.3325
   28CHL1   H14 2015   0.587   2.523   9.509 -0.7293 -0.4657 -0.2827
   28CHL1   C15 2016   0.488   2.373   9.405 -0.1572  0.2308  0.2269
   28CHL1  H15A 2017   0.483   2.262   9.413 -3.6529  0.3575  1.3185
   28CHL1  H15B 2018   0.402   2.415   9.462 -0.7070  0.3835 -0.7036
   28CHL1   C16 2019   0.500   2.411   9.256 -0.6247 -0.1669  0.1667
   28CHL1  H16A 2020   0.496   2.314   9.203 -1.3453  0.0404 -0.1752
   28CHL1  H16B 2021   0.421   2.482   9.223 -1.5688 -0.7389  1.1408
   28CHL1   C17 2022   0.638   2.482   9.244 -0.2249  0.3618  0.1127
   28CHL1   H17 2023   0.624   2.588   9.271 -0.9560  0.2166  0.3140
   28CHL1   C13 2024   0.718   2.427   9.357 -0.2317  0.1477  0.1966
   28CHL1   C18 2025   0.760   2.286   9.325 -0.4472  0.2342 -0.3218
   28CHL1  H18A 2026   0.819   2.246   9.410  0.9256  0.6221 -1.0723
   28CHL1  H18B 2027   0.667   2.226   9.313 -2.1579  2.7679 -0.5392
   28CHL1  H18C 2028   0.829   2.280   9.239  0.1309 -0.7943  0.1946
   28CHL1   C12 2029   0.829   2.509   9.410 -0.8772 -0.6455  0.6680
   28CHL1  H12A 2030   0.915   2.513   9.339  1.5086 -3.3673  3.1724
   28CHL1  H12B 2031   0.797   2.615   9.420 -1.0378 -0.8162  2.0324
   28CHL1   C11 2032   0.886   2.463   9.548 -0.5965 -0.3433 -0.1410
   28CHL1  H11A 2033   0.950   2.374   9.526  2.1309  1.1672  1.1859
   28CHL1  H11B 2034   0.952   2.545   9.585  0.8108 -1.0566 -0.9586
   28CHL1    C9 2035   0.779   2.438   9.656  0.6111  0.5142 -0.1115
   28CHL1    H9 2036   0.744   2.540   9.680 -0.1180  0.2467  0.0025
   28CHL1   C10 2037   0.826   2.378   9.786 -0.5273  0.1449  0.1914
   28CHL1   C19 2038   0.901   2.243   9.751 -0.4130  0.9913  0.5324
   28CHL1  H19A 2039   0.992   2.249   9.687 -0.3557  1.2739  0.6364
   28CHL1  H19B 2040   0.920   2.182   9.842 -0.0349  1.8480  1.0471
   28CHL1  H19C 2041   0.824   2.183   9.699 -2.1842  1.7328  2.1818
   28CHL1    C1 2042   0.925   2.474   9.869 -0.1449  0.5708  0.4062
   28CHL1   H1A 2043   1.014   2.482   9.803  1.0739  0.2272  1.9363
   28CHL1   H1B 2044   0.874   2.573   9.876 -0.2786  0.6005 -0.8743
   28CHL1    C2 2045   0.972   2.429  10.009  0.5216 -0.5370 -0.1230
   28CHL1   H2A 2046   1.035   2.510  10.050  0.7044 -0.6762 -0.1314
   28CHL1   H2B 2047   1.035   2.340   9.990  3.6540  1.7341 -1.1995
   28CHL1   C20 2048   0.693   2.477   9.100 -0.3386  0.4444  0.2845
   28CHL1   H20 2049   0.686   2.368   9.080 -1.4038  0.8195 -1.5920
   28CHL1   C21 2050   0.839   2.531   9.085  0.2944  0.2944  0.0325
   28CHL1  H21A 2051   0.873   2.528   8.979  2.6814 -0.5001  0.7711
   28CHL1  H21B 2052   0.915   2.474   9.142  0.2571 -0.0690 -0.2783
   28CHL1  H21C 2053   0.834   2.635   9.122 -0.0500  1.2475 -2.4540
   28CHL1   C22 2054   0.589   2.545   8.999  0.3616  0.2410  0.5593
   28CHL1  H22A 2055   0.493   2.491   9.008  0.7297 -0.5163  0.0403
   28CHL1  H22B 2056   0.569   2.653   9.015 -1.1313  0.4142 -2.0117
   28CHL1   C23 2057   0.642   2.538   8.849 -0.1398  0.2607  0.2356
   28CHL1  H23A 2058   0.557   2.569   8.785  0.8705 -2.0670 -2.4556
   28CHL1  H23B 2059   0.726   2.608   8.825 -0.8734  1.2535  0.5263
   28CHL1   C24 2060   0.668   2.392   8.790 -0.3724 -0.0443  0.5739
   28CHL1  H24A 2061   0.766   2.346   8.814 -0.5590 -0.5591  0.3498
   28CHL1  H24B 2062   0.592   2.328   8.839 -1.2576  0.8677  0.4295
   28CHL1   C25 2063   0.665   2.384   8.636 -0.5274 -0.0607  0.5127
   28CHL1   H25 2064   0.587   2.448   8.590 -1.7952 -1.5105  0.5977
   28CHL1   C26 2065   0.787   2.454   8.583 -0.4991 -0.7507 -0.4859
   28CHL1  H26A 2066   0.880   2.441   8.642 -0.3991  0.8579 -0.2482
   28CHL1  H26B 2067   0.811   2.417   8.481  1.6310 -0.6324 -0.0678
   28CHL1  H26C 2068   0.769   2.563   8.571  2.9010  0.2055  1.7267
   28CHL1   C27 2069   0.638   2.249   8.571  0.1329 -0.3983 -0.7346
   28CHL1  H27A 2070   0.530   2.224   8.575  0.4070 -1.4304  1.8661
   28CHL1  H27B 2071   0.661   2.257   8.462 -0.2904 -0.3121 -0.8200
   28CHL1  H27C 2072   0.691   2.165   8.620 -0.9295 -0.7727 -0.2044
   29CHL1    C3 2073   2.295   2.415   7.114 -0.5172  0.6485 -0.2046
   29CHL1    H3 2074   2.393   2.367   7.131 -0.1125  1.4974 -0.1050
   29CHL1    O3 2075   2.293   2.459   6.982 -0.1494 -0.2629 -0.0308
   29CHL1   H3' 2076   2.204   2.486   6.957 -0.0521 -2.0574 -2.7223
   29CHL1    C4 2077   2.191   2.301   7.130 -0.5542 -0.7085  0.7374
   29CHL1   H4A 2078   2.094   2.330   7.084  0.5465 -1.8957 -2.5946
   29CHL1   H4B 2079   2.226   2.215   7.070  2.5939  0.4188  0.8099
   29CHL1    C5 2080   2.178   2.261   7.272  0.3327  0.8058 -0.6309
   29CHL1    C6 2081   2.180   2.129   7.307 -0.2101 -0.0190 -0.3393
   29CHL1    H6 2082   2.207   2.053   7.233 -2.3624 -0.4140 -0.7983
   29CHL1    C7 2083   2.159   2.074   7.440  0.2225  0.8336  0.4105
   29CHL1   H7A 2084   2.084   1.992   7.439  0.4753  0.6006  0.4266
   29CHL1   H7B 2085   2.254   2.028   7.475  0.0132 -1.4715 -1.7358
   29CHL1    C8 2086   2.092   2.173   7.534 -0.2659 -0.6839  0.2077
   29CHL1    H8 2087   1.987   2.176   7.498 -0.3399 -1.5160  0.3347
   29CHL1   C14 2088   2.102   2.120   7.681 -0.2135 -0.3021  0.0563
   29CHL1   H14 2089   2.211   2.126   7.702  0.0796 -3.3432 -0.1783
   29CHL1   C15 2090   2.054   1.979   7.709  0.1145  0.0602 -0.5073
   29CHL1  H15A 2091   1.960   1.949   7.657 -0.0059  1.0965 -0.9299
   29CHL1  H15B 2092   2.133   1.904   7.687  0.5850  0.6246 -0.7803
   29CHL1   C16 2093   2.041   1.976   7.865  0.8308  0.2104 -0.3230
   29CHL1  H16A 2094   1.947   1.929   7.901 -0.5071  3.3965  0.6347
   29CHL1  H16B 2095   2.131   1.930   7.912  0.3393  0.6323  1.0587
   29CHL1   C17 2096   2.042   2.130   7.907  0.1244 -0.3849  0.4131
   29CHL1   H17 2097   2.142   2.155   7.948  1.1941  0.1555 -2.3031
   29CHL1   C13 2098   2.023   2.205   7.777 -0.4952  0.3232 -0.0083
   29CHL1   C18 2099   1.872   2.207   7.736 -0.4300  0.0757  0.1104
   29CHL1  H18A 2100   1.836   2.102   7.728 -0.0397 -0.0157 -0.5733
   29CHL1  H18B 2101   1.801   2.260   7.802 -2.5773 -2.6153  0.1391
   29CHL1  H18C 2102   1.861   2.254   7.636 -0.9473  1.6855  0.8901
   29CHL1   C12 2103   2.082   2.345   7.776 -0.4600  0.0226  0.8669
   29CHL1  H12A 2104   2.013   2.415   7.828  1.0877  1.7196  0.7440
   29CHL1  H12B 2105   2.184   2.341   7.820 -1.0154 -1.6937  2.1344
   29CHL1   C11 2106   2.088   2.407   7.640  0.3360 -0.4184  0.4612
   29CHL1  H11A 2107   1.981   2.424   7.617  0.0804 -0.7161  1.4092
   29CHL1  H11B 2108   2.134   2.508   7.645 -0.3308 -0.1582  1.8059
   29CHL1    C9 2109   2.138   2.314   7.526 -0.0743  0.3404  0.0370
   29CHL1    H9 2110   2.249   2.307   7.535  0.3231 -1.0741 -3.8696
   29CHL1   C10 2111   2.141   2.369   7.377 -0.2487  0.9488  0.0829
   29CHL1   C19 2112   1.999   2.420   7.347  0.0540 -0.1589 -0.1653
   29CHL1  H19A 2113   1.989   2.460   7.244  1.0460 -1.5978 -0.8558
   29CHL1  H19B 2114   1.919   2.345   7.357  1.0442 -0.9802  2.3483
   29CHL1  H19C 2115   1.977   2.507   7.413  1.8224 -2.0274  3.1472
   29CHL1    C1 2116   2.253   2.480   7.350  0.2017 -0.2674  0.3162
   29CHL1   H1A 2117   2.236   2.570   7.415  0.1179 -0.1084  0.0749
   29CHL1   H1B 2118   2.351   2.438   7.383 -0.1308  0.4383  2.3738
   29CHL1    C2 2119   2.268   2.532   7.200  0.1699  1.1684  0.4906
   29CHL1   H2A 2120   2.352   2.603   7.185  1.0169  0.2928  0.9706
   29CHL1   H2B 2121   2.169   2.570   7.168 -0.9209 -2.8707 -1.5159
   29CHL1   C20 2122   1.950   2.158   8.023  0.4924  0.4537 -0.5051
   29CHL1   H20 2123   1.846   2.129   7.997 -0.8591  2.3214  2.3296
   29CHL1   C21 2124   1.965   2.301   8.078 -0.2226 -0.4858 -0.4008
   29CHL1  H21A 2125   1.911   2.372   8.012  0.6009  0.6977  0.1762
   29CHL1  H21B 2126   2.069   2.338   8.082 -0.9860  2.1854 -2.4729
   29CHL1  H21C 2127   1.920   2.318   8.179  0.1898 -0.7750 -0.1636
   29CHL1   C22 2128   1.976   2.062   8.147  0.5532  0.5114  0.0759
   29CHL1  H22A 2129   1.888   2.084   8.211 -1.0894  2.8217 -2.7517
   29CHL1  H22B 2130   1.970   1.953   8.126  1.9467  0.2854  0.7445
   29CHL1   C23 2131   2.103   2.086   8.228 -0.3434 -0.3675  0.2596
   29CHL1  H23A 2132   2.175   2.002   8.216 -1.5781 -1.2665 -1.2081
   29CHL1  H23B 2133   2.147   2.186   8.209  0.4237 -0.4378  1.5544
   29CHL1   C24 2134   2.074   2.091   8.379 -0.5106  0.8922 -0.6942
   29CHL1  H24A 2135   1.998   2.169   8.401 -1.7675 -1.2102  3.3429
   29CHL1  H24B 2136   2.030   1.992   8.406  3.1238 -0.4131  1.1186
   29CHL1   C25 2137   2.202   2.100   8.466 -0.0124 -0.3935 -0.1180
   29CHL1   H25 2138   2.245   2.200   8.446  0.5086 -0.5614  0.1547
   29CHL1   C26 2139   2.165   2.115   8.619  0.5096  0.8141 -0.1876
   29CHL1  H26A 2140   2.098   2.032   8.649  0.9150  1.5213  3.0183
   29CHL1  H26B 2141   2.263   2.112   8.672  0.4670  0.5876 -0.1202
   29CHL1  H26C 2142   2.097   2.201   8.633 -2.2662 -1.5056  1.6854
   29CHL1   C27 2143   2.303   1.988   8.443  0.8553 -0.1702 -0.2161
   29CHL1  H27A 2144   2.340   1.994   8.339 -0.8963 -0.4933 -0.8923
   29CHL1  H27B 2145   2.389   1.990   8.513 -0.3777 -0.3153  1.3673
   29CHL1  H27C 2146   2.253   1.893   8.473  1.2041  0.1760  1.6041
   30CHL1    C3 2147   5.484   0.013   7.248 -0.1012  0.4536  0.1807
   30CHL1    H3 2148   5.552  -0.074   7.252 -0.9805 -0.2098  1.5723
   30CHL1    O3 2149   5.390   0.001   7.145 -0.3129 -0.0767 -0.1928
   30CHL1   H3' 2150   5.354   0.090   7.144  1.6293  0.7957  1.2524
   30CHL1    C4 2151   5.410   0.032   7.379 -0.3769  0.6070  0.4018
   30CHL1   H4A 2152   5.349   0.124   7.363 -1.4449 -0.2429 -0.5810
   30CHL1   H4B 2153   5.338  -0.051   7.395 -0.3066  0.2939 -0.8306
   30CHL1    C5 2154   5.522   0.042   7.484 -0.7019  0.4328  0.0393
   30CHL1    C6 2155   5.546  -0.053   7.582  0.2039  0.4079  0.2351
   30CHL1    H6 2156   5.477  -0.139   7.581 -0.1190  0.6585 -1.3996
   30CHL1    C7 2157   5.643  -0.047   7.691  0.0564  0.2575 -0.2167
   30CHL1   H7A 2158   5.607  -0.084   7.789  2.6051  0.4514  0.8552
   30CHL1   H7B 2159   5.738  -0.101   7.673  0.6012 -0.5167  4.0243
   30CHL1    C8 2160   5.681   0.103   7.707  0.6454 -0.1803  0.1482
   30CHL1    H8 2161   5.594   0.155   7.753 -0.9222 -2.5700  0.0573
   30CHL1   C14 2162   5.782   0.114   7.815  0.4401  0.2185  0.1285
   30CHL1   H14 2163   5.864   0.055   7.770 -0.4224  1.1573 -2.9523
   30CHL1   C15 2164   5.741   0.071   7.958 -0.2119  0.0686  0.9394
   30CHL1  H15A 2165   5.647   0.119   7.993 -0.4190 -0.8327  1.6361
   30CHL1  H15B 2166   5.728  -0.038   7.967  1.0441 -0.1555  0.2937
   30CHL1   C16 2167   5.858   0.120   8.047  0.5681  0.2241 -0.0557
   30CHL1  H16A 2168   5.839   0.144   8.154 -3.2274  0.7460 -0.7188
   30CHL1  H16B 2169   5.925   0.031   8.048  2.6798  1.7425 -0.2749
   30CHL1   C17 2170   5.928   0.228   7.960  0.7976  0.9960 -0.1541
   30CHL1   H17 2171   6.012   0.176   7.909 -0.0464  0.8105 -1.4132
   30CHL1   C13 2172   5.842   0.251   7.834  0.7525  0.3524 -0.1664
   30CHL1   C18 2173   5.732   0.357   7.868  0.3004  0.0834  0.0367
   30CHL1  H18A 2174   5.775   0.460   7.866  1.4500 -0.3986 -0.9589
   30CHL1  H18B 2175   5.657   0.361   7.786 -2.2746  2.3816  2.2471
   30CHL1  H18C 2176   5.683   0.332   7.965 -0.2490  0.8004 -0.0467
   30CHL1   C12 2177   5.915   0.283   7.714  0.5810  0.0191 -0.1603
   30CHL1  H12A 2178   5.970   0.380   7.721  1.7254 -0.6852  1.2015
   30CHL1  H12B 2179   6.006   0.220   7.706  0.0026 -0.7201 -1.0626
   30CHL1   C11 2180   5.829   0.289   7.579  0.4330  0.3483 -0.7091
   30CHL1  H11A 2181   5.772   0.383   7.591  2.1001  1.1708  1.4130
   30CHL1  H11B 2182   5.889   0.302   7.486 -0.9937  0.5885 -1.6257
   30CHL1    C9 2183   5.735   0.161   7.576 -0.2170 -1.1402  0.5180
   30CHL1    H9 2184   5.807   0.082   7.544 -0.6128 -0.0626 -3.4999
   30CHL1   C10 2185   5.618   0.170   7.467  0.0189 -0.6261 -0.4692
   30CHL1   C19 2186   5.537   0.296   7.485  0.5354 -0.5642 -0.0251
   30CHL1  H19A 2187   5.473   0.293   7.576  2.5706  1.9358  1.6451
   30CHL1  H19B 2188   5.601   0.387   7.491  0.0610 -0.0395 -2.1502
   30CHL1  H19C 2189   5.469   0.315   7.400  1.2412 -0.8681 -0.6694
   30CHL1    C1 2190   5.677   0.174   7.320 -0.5456  0.4120  0.4645
   30CHL1   H1A 2191   5.730   0.270   7.303 -2.1589  1.2075 -0.2778
   30CHL1   H1B 2192   5.761   0.101   7.328 -0.0570  0.9963  0.7935
   30CHL1    C2 2193   5.572   0.138   7.213 -0.0860  0.2747 -0.3156
   30CHL1   H2A 2194   5.624   0.095   7.125 -1.7773 -2.2009 -0.2000
   30CHL1   H2B 2195   5.522   0.230   7.175  2.4653  2.2451  0.7516
   30CHL1   C20 2196   5.987   0.357   8.021 -1.1659 -0.2126  0.2240
   30CHL1   H20 2197   5.986   0.431   7.939 -0.5526  0.1776  0.5613
   30CHL1   C21 2198   6.132   0.314   8.060 -0.0855 -0.3757 -0.1277
   30CHL1  H21A 2199   6.138   0.218   8.115  0.3414  0.3720  1.1738
   30CHL1  H21B 2200   6.175   0.395   8.123 -0.5031 -1.6480  1.9032
   30CHL1  H21C 2201   6.200   0.293   7.975  0.7130 -1.2419  0.7015
   30CHL1   C22 2202   5.911   0.407   8.142  0.0975 -1.1067  0.7906
   30CHL1  H22A 2203   5.805   0.427   8.117  0.2109  0.4975  1.4603
   30CHL1  H22B 2204   5.904   0.335   8.227 -0.6643  0.5118  2.1730
   30CHL1   C23 2205   5.950   0.543   8.201 -0.6870 -0.2061 -0.0533
   30CHL1  H23A 2206   6.057   0.528   8.226 -0.0181  0.0698 -2.4513
   30CHL1  H23B 2207   5.944   0.627   8.128 -2.4885  0.1486  0.4475
   30CHL1   C24 2208   5.870   0.578   8.327 -0.3700  0.1246  0.5258
   30CHL1  H24A 2209   5.769   0.584   8.282  0.6262  0.1354 -1.8644
   30CHL1  H24B 2210   5.857   0.497   8.402  0.3293 -1.2370 -0.7418
   30CHL1   C25 2211   5.902   0.710   8.395  0.2933 -0.0802  0.3734
   30CHL1   H25 2212   5.929   0.777   8.310 -1.6814  1.7348  1.0847
   30CHL1   C26 2213   5.782   0.763   8.484 -0.2195  0.8121  0.7776
   30CHL1  H26A 2214   5.787   0.716   8.585  2.8966 -0.5243  0.1262
   30CHL1  H26B 2215   5.802   0.872   8.482  1.6204  0.5158 -2.1300
   30CHL1  H26C 2216   5.684   0.750   8.435 -0.4011  1.4062  0.9813
   30CHL1   C27 2217   6.019   0.690   8.485  0.0356 -0.4567 -0.0081
   30CHL1  H27A 2218   6.108   0.663   8.424 -1.6662 -2.0951 -1.8930
   30CHL1  H27B 2219   6.047   0.783   8.539  2.5947 -2.0792  1.6869
   30CHL1  H27C 2220   6.000   0.613   8.562  2.6135 -1.6857 -0.5118
   31CHL1    C3 2221   5.807   3.842   6.772 -0.3049 -0.4385 -0.9389
   31CHL1    H3 2222   5.815   3.733   6.795 -0.7729 -0.3531 -0.3393
   31CHL1    O3 2223   5.769   3.869   6.640 -0.3568  0.1225  0.2265
   31CHL1   H3' 2224   5.787   3.963   6.627  4.0993 -0.7190 -1.4872
   31CHL1    C4 2225   5.692   3.876   6.872  0.0128 -0.8696  0.3703
   31CHL1   H4A 2226   5.650   3.978   6.857  1.8220 -0.1447 -0.0717
   31CHL1   H4B 2227   5.608   3.805   6.854  0.1222 -0.8096 -0.4120
   31CHL1    C5 2228   5.741   3.875   7.016 -0.6869  0.0607  0.5522
   31CHL1    C6 2229   5.674   3.797   7.112  0.4776  0.3057  0.7963
   31CHL1    H6 2230   5.588   3.736   7.078 -0.7162  2.2766  0.0803
   31CHL1    C7 2231   5.694   3.797   7.257  0.0725  0.3075 -0.0600
   31CHL1   H7A 2232   5.605   3.804   7.324  2.3302 -0.6951  3.3426
   31CHL1   H7B 2233   5.747   3.702   7.280  0.8866  0.9335  0.7096
   31CHL1    C8 2234   5.783   3.920   7.294 -0.3511  0.0497 -0.1705
   31CHL1    H8 2235   5.723   4.013   7.285 -0.4367  0.0948  0.7704
   31CHL1   C14 2236   5.831   3.902   7.437  0.0653 -0.4961 -0.5848
   31CHL1   H14 2237   5.898   3.813   7.435  0.7973  0.0390 -0.2184
   31CHL1   C15 2238   5.729   3.872   7.540  0.3826 -0.0102 -0.2870
   31CHL1  H15A 2239   5.639   3.933   7.517 -0.9780 -2.2534 -1.3038
   31CHL1  H15B 2240   5.688   3.768   7.537 -0.1921  0.1375  1.1896
   31CHL1   C16 2241   5.786   3.912   7.672 -0.2859  0.2046  0.1526
   31CHL1  H16A 2242   5.719   3.983   7.725 -0.7252  0.2087 -0.3942
   31CHL1  H16B 2243   5.801   3.828   7.742 -0.0622 -0.8445 -1.1303
   31CHL1   C17 2244   5.926   3.973   7.634 -0.0438  0.0838 -0.4410
   31CHL1   H17 2245   5.986   3.879   7.635 -0.3954 -0.1612 -1.3901
   31CHL1   C13 2246   5.922   4.011   7.492  1.2092 -0.9907 -0.0888
   31CHL1   C18 2247   5.853   4.150   7.481 -0.0931 -0.3333  0.2865
   31CHL1  H18A 2248   5.815   4.177   7.380  0.5941  0.9232  0.3415
   31CHL1  H18B 2249   5.776   4.166   7.559  0.0892  2.9311 -0.0669
   31CHL1  H18C 2250   5.928   4.228   7.509 -1.5077  0.4079  2.2933
   31CHL1   C12 2251   6.051   4.008   7.399  0.4083 -0.0201  0.0083
   31CHL1  H12A 2252   6.116   4.093   7.429  1.7611 -0.7071 -0.8564
   31CHL1  H12B 2253   6.099   3.911   7.424  2.2906  1.1559  1.2325
   31CHL1   C11 2254   6.019   4.026   7.251 -0.1544  0.5591  0.1637
   31CHL1  H11A 2255   5.997   4.134   7.233 -0.7091  0.3045 -0.7317
   31CHL1  H11B 2256   6.104   4.001   7.184 -1.7914 -0.4139 -1.6470
   31CHL1    C9 2257   5.903   3.933   7.202 -0.3915 -0.0502  0.8401
   31CHL1    H9 2258   5.946   3.831   7.203  2.0629  0.8074 -2.3821
   31CHL1   C10 2259   5.865   3.960   7.050  0.8157 -0.1720 -0.3685
   31CHL1   C19 2260   5.825   4.115   7.034 -0.4332 -0.4641  0.1180
   31CHL1  H19A 2261   5.922   4.166   7.051 -0.8713  0.1582  0.8598
   31CHL1  H19B 2262   5.783   4.147   6.936  0.0762 -1.4531 -0.4368
   31CHL1  H19C 2263   5.754   4.144   7.114  0.7765  2.5056  0.2372
   31CHL1    C1 2264   5.974   3.909   6.962 -1.0347  0.1995 -0.5938
   31CHL1   H1A 2265   6.057   3.977   6.991 -0.1563 -1.4784  1.0236
   31CHL1   H1B 2266   5.999   3.803   6.985 -1.2992 -0.0305 -1.3514
   31CHL1    C2 2267   5.937   3.917   6.811 -0.5482 -0.1469  0.2051
   31CHL1   H2A 2268   6.011   3.860   6.751 -0.3654  0.9164 -0.6264
   31CHL1   H2B 2269   5.944   4.022   6.775 -0.1349 -0.0653  0.5244
   31CHL1   C20 2270   5.960   4.079   7.741 -0.3159  0.0086 -0.0342
   31CHL1   H20 2271   5.888   4.163   7.738 -0.1636  0.2099  1.4689
   31CHL1   C21 2272   6.105   4.123   7.722  0.0494 -0.7057 -0.2764
   31CHL1  H21A 2273   6.128   4.212   7.785 -1.3174 -2.5550  3.1095
   31CHL1  H21B 2274   6.129   4.135   7.614 -0.0295 -0.2834 -0.2472
   31CHL1  H21C 2275   6.171   4.043   7.763  0.1682  0.7130  2.5306
   31CHL1   C22 2276   5.938   4.034   7.889 -0.4509  0.8954  0.1784
   31CHL1  H22A 2277   5.834   3.996   7.904  0.2029 -0.5339  1.3159
   31CHL1  H22B 2278   6.005   3.947   7.904  2.0729  2.5116 -1.0957
   31CHL1   C23 2279   5.971   4.139   7.995  0.4404  0.1463  0.4012
   31CHL1  H23A 2280   6.064   4.187   7.957  0.3724 -1.2870 -1.7260
   31CHL1  H23B 2281   5.890   4.214   7.981 -0.2441 -0.4655  1.0123
   31CHL1   C24 2282   5.981   4.091   8.138  0.2967  0.8019 -0.8315
   31CHL1  H24A 2283   5.876   4.077   8.170 -0.3355  0.6345 -2.8360
   31CHL1  H24B 2284   6.036   3.995   8.128  0.6319  1.0502 -1.4824
   31CHL1   C25 2285   6.058   4.193   8.224  0.0756 -0.2315 -0.3088
   31CHL1   H25 2286   6.011   4.293   8.209  1.4801  0.2021 -2.1856
   31CHL1   C26 2287   6.055   4.153   8.375 -0.3384 -0.2070 -0.3572
   31CHL1  H26A 2288   5.953   4.116   8.399  0.0852 -0.9386  0.4092
   31CHL1  H26B 2289   6.126   4.069   8.392  0.9331  0.6120 -1.4366
   31CHL1  H26C 2290   6.079   4.241   8.439 -3.2917  0.4194  0.0140
   31CHL1   C27 2291   6.210   4.199   8.195 -0.5197 -0.8351 -0.0451
   31CHL1  H27A 2292   6.257   4.274   8.262  1.2033 -0.7974 -1.2095
   31CHL1  H27B 2293   6.230   4.246   8.096 -1.5583 -1.7259 -0.7021
   31CHL1  H27C 2294   6.267   4.104   8.206  2.3607  0.8610  0.8521
   32CHL1    C3 2295   0.696   0.249   7.117 -0.6042 -0.0140 -0.1403
   32CHL1    H3 2296   0.741   0.148   7.112  1.5289  0.7827  1.6522
   32CHL1    O3 2297   0.652   0.268   6.989  0.3545  0.1224  0.3973
   32CHL1   H3' 2298   0.607   0.352   6.987 -0.7409 -0.4381  1.0140
   32CHL1    C4 2299   0.579   0.249   7.213 -0.6081  0.8116  0.2836
   32CHL1   H4A 2300   0.523   0.345   7.203 -4.3091 -1.2376 -0.6390
   32CHL1   H4B 2301   0.500   0.176   7.185  0.2070  0.1118 -0.2134
   32CHL1    C5 2302   0.622   0.225   7.360  0.3966  0.2268 -0.3819
   32CHL1    C6 2303   0.572   0.123   7.435 -0.0051 -0.2906 -0.2878
   32CHL1    H6 2304   0.489   0.059   7.403 -1.0258  1.1231 -0.5566
   32CHL1    C7 2305   0.603   0.103   7.582 -0.5499 -0.7162  0.0010
   32CHL1   H7A 2306   0.514   0.077   7.643  1.3994 -1.6368  2.6231
   32CHL1   H7B 2307   0.672   0.018   7.600 -1.7542 -1.2940  2.2658
   32CHL1    C8 2308   0.679   0.231   7.638  0.1183  0.6352 -0.1441
   32CHL1    H8 2309   0.604   0.312   7.644 -1.1388 -0.3517 -1.7223
   32CHL1   C14 2310   0.739   0.199   7.774  0.0584  0.0569 -0.4705
   32CHL1   H14 2311   0.802   0.113   7.747 -0.4252 -0.3102 -0.4500
   32CHL1   C15 2312   0.635   0.143   7.876 -0.2755 -0.4230  0.4529
   32CHL1  H15A 2313   0.542   0.202   7.858 -0.2951 -1.2071 -2.5290
   32CHL1  H15B 2314   0.616   0.034   7.868  2.9599 -1.3046  2.8519
   32CHL1   C16 2315   0.714   0.174   8.007  0.5283 -0.2673 -0.0154
   32CHL1  H16A 2316   0.642   0.205   8.085  0.4125 -0.3074 -0.1062
   32CHL1  H16B 2317   0.744   0.070   8.033 -0.2890 -0.8477 -1.2786
   32CHL1   C17 2318   0.849   0.248   7.983  0.6934  0.3157  0.6465
   32CHL1   H17 2319   0.931   0.174   7.973 -1.1855 -1.8589  0.6516
   32CHL1   C13 2320   0.818   0.311   7.839  0.3891  0.9586  0.0511
   32CHL1   C18 2321   0.730   0.441   7.857  0.9073 -0.4372 -0.2324
   32CHL1  H18A 2322   0.666   0.421   7.945  1.1620 -2.2928 -0.4237
   32CHL1  H18B 2323   0.807   0.521   7.865  0.0001  0.3755  0.4937
   32CHL1  H18C 2324   0.681   0.463   7.760  0.4851  3.8702  0.7730
   32CHL1   C12 2325   0.938   0.335   7.747 -0.1402 -0.0009  0.5333
   32CHL1  H12A 2326   1.018   0.396   7.796 -1.5803  1.6456  0.9600
   32CHL1  H12B 2327   0.982   0.236   7.726 -2.0565 -0.8819  0.5003
   32CHL1   C11 2328   0.889   0.386   7.608 -0.0364  0.8190 -0.8396
   32CHL1  H11A 2329   0.849   0.487   7.628 -2.1026 -0.2324  0.6593
   32CHL1  H11B 2330   0.980   0.394   7.544 -0.1827  1.2076 -0.9990
   32CHL1    C9 2331   0.794   0.279   7.541 -0.0592  0.8644  0.0022
   32CHL1    H9 2332   0.858   0.191   7.523 -0.7953  0.0200  1.3515
   32CHL1   C10 2333   0.737   0.322   7.405  0.6570  0.0309 -0.5563
   32CHL1   C19 2334   0.664   0.461   7.405  0.3489  0.8493  0.0979
   32CHL1  H19A 2335   0.631   0.483   7.301 -1.1012 -0.9115  0.1413
   32CHL1  H19B 2336   0.579   0.464   7.476  0.3890  1.2601  0.1323
   32CHL1  H19C 2337   0.729   0.542   7.443  0.5063  0.1354  1.4032
   32CHL1    C1 2338   0.853   0.323   7.302  0.5646 -0.0053 -0.0326
   32CHL1   H1A 2339   0.936   0.391   7.332  0.0996  0.6130 -0.1302
   32CHL1   H1B 2340   0.900   0.222   7.298  3.2791  1.1643  0.0567
   32CHL1    C2 2341   0.810   0.347   7.154 -0.1769  0.0729  0.9195
   32CHL1   H2A 2342   0.890   0.318   7.084 -1.5193 -0.2255 -0.5551
   32CHL1   H2B 2343   0.775   0.451   7.135 -0.5610 -0.3407 -0.7872
   32CHL1   C20 2344   0.894   0.339   8.104  0.2754 -0.4534 -0.5041
   32CHL1   H20 2345   0.813   0.415   8.110 -1.0445 -1.7681 -0.9740
   32CHL1   C21 2346   1.029   0.407   8.069  0.7412  0.3220  0.4397
   32CHL1  H21A 2347   1.100   0.330   8.032  0.0802  0.5932 -1.5574
   32CHL1  H21B 2348   1.076   0.463   8.152  0.9319  2.0289 -0.7733
   32CHL1  H21C 2349   1.006   0.478   7.986 -0.9506  0.1071  0.6866
   32CHL1   C22 2350   0.895   0.252   8.238  0.6522  0.3583  0.2733
   32CHL1  H22A 2351   0.799   0.206   8.269 -1.0984  1.5443 -2.9161
   32CHL1  H22B 2352   0.958   0.162   8.224 -1.1241 -0.7564 -0.8532
   32CHL1   C23 2353   0.957   0.316   8.367 -0.8649  0.4492  0.5640
   32CHL1  H23A 2354   0.948   0.242   8.449 -0.4211 -0.6474 -0.3466
   32CHL1  H23B 2355   1.062   0.334   8.335 -0.8199 -2.4875 -1.4055
   32CHL1   C24 2356   0.894   0.440   8.421  1.0020 -0.3143  0.0351
   32CHL1  H24A 2357   0.943   0.471   8.516  0.1919  0.2554  0.2805
   32CHL1  H24B 2358   0.912   0.525   8.352 -1.5940  0.2842 -0.0156
   32CHL1   C25 2359   0.738   0.433   8.448 -0.3786  0.2788  0.3918
   32CHL1   H25 2360   0.696   0.406   8.349  2.3335  2.9922 -1.7146
   32CHL1   C26 2361   0.696   0.343   8.566 -0.1690 -0.4833 -0.3882
   32CHL1  H26A 2362   0.590   0.312   8.550 -0.5860  1.2243 -1.0920
   32CHL1  H26B 2363   0.757   0.253   8.589 -0.7185 -0.7375  0.1152
   32CHL1  H26C 2364   0.711   0.397   8.661  0.8012 -0.0178 -0.7919
   32CHL1   C27 2365   0.667   0.564   8.484  0.0218 -0.4439 -0.4143
   32CHL1  H27A 2366   0.731   0.617   8.558  1.3687  1.3710 -2.7318
   32CHL1  H27B 2367   0.654   0.640   8.403 -0.2170  1.0821  1.0043
   32CHL1  H27C 2368   0.565   0.551   8.524 -0.0173  0.3597 -0.2330
   33CHL1    C3 2369   1.330   6.306   7.073  0.0875  0.4376  0.1132
   33CHL1    H3 2370   1.270   6.371   7.141 -2.1614  0.7772 -2.0358
   33CHL1    O3 2371   1.364   6.380   6.953 -0.5411 -0.1392 -0.8676
   33CHL1   H3' 2372   1.295   6.367   6.887  0.6465  3.1898 -3.0203
   33CHL1    C4 2373   1.461   6.248   7.139  0.5978 -0.0553  0.6707
   33CHL1   H4A 2374   1.500   6.181   7.060 -0.6020 -0.0693  0.0637
   33CHL1   H4B 2375   1.527   6.338   7.148  1.4140 -0.8163  2.9231
   33CHL1    C5 2376   1.429   6.172   7.266 -0.0754  1.3327 -0.6183
   33CHL1    C6 2377   1.487   6.195   7.384 -0.1931 -0.3792  0.5527
   33CHL1    H6 2378   1.560   6.277   7.383 -0.1896 -0.3537 -1.4343
   33CHL1    C7 2379   1.478   6.113   7.510 -1.3322 -0.8027 -0.7109
   33CHL1   H7A 2380   1.573   6.088   7.562 -0.9270  0.0393 -1.0292
   33CHL1   H7B 2381   1.432   6.177   7.588  3.4045  0.7499  1.2005
   33CHL1    C8 2382   1.397   5.990   7.500  0.2744  0.8196 -0.3273
   33CHL1    H8 2383   1.455   5.899   7.472 -0.4512 -0.0585  0.9305
   33CHL1   C14 2384   1.326   5.957   7.637 -0.4623 -0.4013  0.2243
   33CHL1   H14 2385   1.254   6.037   7.663  0.9785  0.0247  3.2912
   33CHL1   C15 2386   1.418   5.954   7.762  0.0454 -0.0236  0.0591
   33CHL1  H15A 2387   1.523   5.924   7.744 -0.1772 -1.1404  0.5355
   33CHL1  H15B 2388   1.426   6.057   7.803 -1.9213 -0.5297  1.8804
   33CHL1   C16 2389   1.343   5.866   7.861 -0.0904  0.1298 -0.0648
   33CHL1  H16A 2390   1.407   5.776   7.874 -1.2396 -0.7662 -0.4113
   33CHL1  H16B 2391   1.310   5.925   7.949 -2.1401 -0.0442 -0.6568
   33CHL1   C17 2392   1.216   5.815   7.784 -0.0717 -0.4430 -0.3526
   33CHL1   H17 2393   1.159   5.908   7.802  4.0546  2.4872 -0.9323
   33CHL1   C13 2394   1.247   5.829   7.635  0.1942  0.1066  0.3442
   33CHL1   C18 2395   1.332   5.701   7.605 -0.2888  0.3330 -0.1883
   33CHL1  H18A 2396   1.374   5.702   7.502  0.1710 -2.4960 -0.1215
   33CHL1  H18B 2397   1.410   5.701   7.684  0.6617  3.5320 -0.9891
   33CHL1  H18C 2398   1.275   5.605   7.612 -0.6993  0.5973  0.1492
   33CHL1   C12 2399   1.130   5.848   7.525  0.0036 -0.5889  0.3431
   33CHL1  H12A 2400   1.083   5.748   7.509  1.1930 -0.7541 -2.8739
   33CHL1  H12B 2401   1.070   5.934   7.561  0.9493  0.5971 -0.8234
   33CHL1   C11 2402   1.187   5.892   7.393 -0.2316  0.0136 -0.0566
   33CHL1  H11A 2403   1.238   5.805   7.347 -0.2617 -0.8706  1.5246
   33CHL1  H11B 2404   1.104   5.917   7.323 -0.2692  1.8403  0.5829
   33CHL1    C9 2405   1.280   6.012   7.399 -0.3733  0.0908 -0.4378
   33CHL1    H9 2406   1.226   6.104   7.427 -0.1216 -0.1303  0.8275
   33CHL1   C10 2407   1.330   6.049   7.254  0.0857  0.3179 -0.7186
   33CHL1   C19 2408   1.414   5.933   7.196 -0.0116  0.0059 -0.5832
   33CHL1  H19A 2409   1.350   5.859   7.145 -1.0927  0.6479 -0.2046
   33CHL1  H19B 2410   1.473   5.979   7.113  1.9773 -1.3857  0.0012
   33CHL1  H19C 2411   1.494   5.902   7.267 -0.4965 -0.3672 -0.1928
   33CHL1    C1 2412   1.214   6.106   7.163 -0.0278 -0.3467  0.3995
   33CHL1   H1A 2413   1.158   6.018   7.125 -1.0864  0.2376  0.5730
   33CHL1   H1B 2414   1.151   6.171   7.227  0.6444 -1.6730  2.5002
   33CHL1    C2 2415   1.240   6.190   7.032 -0.2910  0.2950  0.2828
   33CHL1   H2A 2416   1.149   6.228   6.982  0.1792  0.5264 -0.4137
   33CHL1   H2B 2417   1.293   6.123   6.962 -1.8974  0.3285 -1.0274
   33CHL1   C20 2418   1.156   5.691   7.863  0.0630 -0.3121  0.0454
   33CHL1   H20 2419   1.219   5.600   7.853 -3.2024 -2.7542 -0.1818
   33CHL1   C21 2420   1.023   5.650   7.794  0.3096 -0.6669 -0.2619
   33CHL1  H21A 2421   1.037   5.619   7.688  1.6785 -0.4585 -0.1546
   33CHL1  H21B 2422   0.962   5.743   7.799  1.8282  0.3053  1.1025
   33CHL1  H21C 2423   0.975   5.568   7.851  1.0485 -1.6823 -1.0732
   33CHL1   C22 2424   1.138   5.721   8.019  0.2082  0.2635  0.1520
   33CHL1  H22A 2425   1.242   5.728   8.057  0.5594 -1.5352 -0.3789
   33CHL1  H22B 2426   1.084   5.818   8.032  0.9833  0.7459 -0.1739
   33CHL1   C23 2427   1.055   5.627   8.105 -0.5338  0.1584  0.0868
   33CHL1  H23A 2428   0.956   5.617   8.057  0.5207 -2.3166 -1.7839
   33CHL1  H23B 2429   1.090   5.523   8.089  3.1342  1.4315 -1.1482
   33CHL1   C24 2430   1.041   5.674   8.249 -0.3269  0.0163 -0.0577
   33CHL1  H24A 2431   1.138   5.687   8.302  0.0719 -1.3471 -0.4177
   33CHL1  H24B 2432   0.988   5.771   8.240 -0.5193  0.0984  1.6512
   33CHL1   C25 2433   0.935   5.586   8.327  0.3429 -0.2427 -0.0677
   33CHL1   H25 2434   0.846   5.569   8.263  1.4217 -0.0731 -1.6659
   33CHL1   C26 2435   0.990   5.452   8.373  0.2156  0.0557  0.7219
   33CHL1  H26A 2436   1.043   5.407   8.287  2.8430  1.8088  1.3000
   33CHL1  H26B 2437   1.083   5.462   8.434  2.3523 -1.1379 -2.1493
   33CHL1  H26C 2438   0.912   5.388   8.419  0.7564 -0.6666  0.6427
   33CHL1   C27 2439   0.880   5.658   8.453  0.0536 -0.6775  0.4962
   33CHL1  H27A 2440   0.954   5.654   8.535 -1.0136 -1.6949  1.4363
   33CHL1  H27B 2441   0.846   5.761   8.426 -1.1225 -1.2831 -0.4405
   33CHL1  H27C 2442   0.792   5.611   8.502 -0.1798  0.5289  1.2718
   34CHL1    C3 2443   5.765   1.079   7.196  0.2040  1.2005 -0.2614
   34CHL1    H3 2444   5.802   0.985   7.242 -0.9602  0.2733 -1.1303
   34CHL1    O3 2445   5.790   1.068   7.057  0.7945 -0.1197  0.2031
   34CHL1   H3' 2446   5.879   1.101   7.047  1.4089 -1.7682 -0.0051
   34CHL1    C4 2447   5.608   1.091   7.212 -0.2051 -0.4152  0.1306
   34CHL1   H4A 2448   5.570   1.181   7.159  0.8136  0.9432  1.5917
   34CHL1   H4B 2449   5.558   1.000   7.173  0.0466  0.2636 -1.8920
   34CHL1    C5 2450   5.578   1.091   7.365 -0.0543  0.1276 -1.0070
   34CHL1    C6 2451   5.497   1.001   7.425  0.0805  0.2504  0.0678
   34CHL1    H6 2452   5.442   0.925   7.368  1.6967  1.0712 -2.7870
   34CHL1    C7 2453   5.472   1.003   7.574  0.3174 -0.4416 -0.1495
   34CHL1   H7A 2454   5.366   0.980   7.600 -0.0333  2.2700  1.1912
   34CHL1   H7B 2455   5.533   0.927   7.625 -1.6412 -0.8344  1.7487
   34CHL1    C8 2456   5.512   1.134   7.644  0.4775 -0.8151  0.3302
   34CHL1    H8 2457   5.432   1.205   7.617  0.0607 -2.0774 -2.0050
   34CHL1   C14 2458   5.521   1.120   7.796  0.2577  0.6518 -0.0291
   34CHL1   H14 2459   5.595   1.038   7.809 -0.4646 -0.5289 -2.6392
   34CHL1   C15 2460   5.396   1.068   7.868  0.0997 -0.4916 -1.1141
   34CHL1  H15A 2461   5.307   1.128   7.841 -2.3148 -2.6380  1.4875
   34CHL1  H15B 2462   5.367   0.962   7.850  0.4151 -0.5900 -1.0412
   34CHL1   C16 2463   5.432   1.096   8.014 -0.0489  0.2912  0.1706
   34CHL1  H16A 2464   5.344   1.115   8.080  1.2535  1.0422  1.7492
   34CHL1  H16B 2465   5.482   1.003   8.049  1.5028  0.9788 -0.1363
   34CHL1   C17 2466   5.548   1.202   8.027  0.0507  0.6284  0.4274
   34CHL1   H17 2467   5.637   1.135   8.041 -0.7329 -0.2906  1.2285
   34CHL1   C13 2468   5.558   1.248   7.876  0.5776 -0.1803 -0.4492
   34CHL1   C18 2469   5.449   1.360   7.861  0.1910  0.9251  0.4321
   34CHL1  H18A 2470   5.345   1.340   7.893 -0.8250 -1.2121 -3.5404
   34CHL1  H18B 2471   5.479   1.452   7.916  1.9075  0.6788 -0.0424
   34CHL1  H18C 2472   5.450   1.393   7.755 -0.5570 -1.7024 -0.4670
   34CHL1   C12 2473   5.697   1.283   7.832  0.4122 -0.3925  0.2211
   34CHL1  H12A 2474   5.732   1.378   7.879 -2.1164  1.2621 -1.0057
   34CHL1  H12B 2475   5.770   1.205   7.860  0.6666 -1.6215 -3.3490
   34CHL1   C11 2476   5.709   1.300   7.677  0.0388 -0.1496  0.1513
   34CHL1  H11A 2477   5.656   1.394   7.655 -0.3017 -0.6698 -1.3875
   34CHL1  H11B 2478   5.814   1.329   7.654 -0.1074  1.5728  1.5119
   34CHL1    C9 2479   5.655   1.180   7.598 -0.2333 -0.0476  0.3384
   34CHL1    H9 2480   5.726   1.101   7.628  1.1789  0.9221 -0.3093
   34CHL1   C10 2481   5.662   1.201   7.448 -0.6994  0.5573 -0.0396
   34CHL1   C19 2482   5.609   1.338   7.407  0.0432 -0.0381 -0.8107
   34CHL1  H19A 2483   5.511   1.364   7.453 -0.3876  0.2606 -1.8685
   34CHL1  H19B 2484   5.672   1.425   7.434 -0.3844  0.0230  0.0250
   34CHL1  H19C 2485   5.594   1.353   7.298 -0.6032  1.3492 -0.5485
   34CHL1    C1 2486   5.814   1.189   7.414 -0.5435  0.0958  0.2202
   34CHL1   H1A 2487   5.879   1.273   7.448  0.7899 -0.9287  0.3013
   34CHL1   H1B 2488   5.853   1.091   7.449  1.7513  0.7033 -0.4437
   34CHL1    C2 2489   5.835   1.196   7.263  0.4474 -0.0726 -0.2026
   34CHL1   H2A 2490   5.941   1.191   7.231  0.2920 -2.7072 -0.4662
   34CHL1   H2B 2491   5.797   1.292   7.221  0.7385 -0.4127 -1.2639
   34CHL1   C20 2492   5.541   1.283   8.152  0.6889 -0.1560  0.4825
   34CHL1   H20 2493   5.451   1.349   8.160  1.9156  1.6518  0.0345
   34CHL1   C21 2494   5.656   1.380   8.158 -0.7442  0.0749 -0.2617
   34CHL1  H21A 2495   5.665   1.434   8.255  2.2132 -0.1984 -0.2787
   34CHL1  H21B 2496   5.659   1.446   8.069 -2.6630 -0.1537 -0.5256
   34CHL1  H21C 2497   5.753   1.326   8.162 -1.2110 -0.9023 -1.5277
   34CHL1   C22 2498   5.535   1.193   8.274  0.3836  0.5797  0.7807
   34CHL1  H22A 2499   5.433   1.149   8.268 -0.2092  1.8457  1.1368
   34CHL1  H22B 2500   5.608   1.111   8.258  0.5503  1.1595 -1.7241
   34CHL1   C23 2501   5.534   1.251   8.415 -0.5468  0.2410 -0.4404
   34CHL1  H23A 2502   5.623   1.314   8.436 -0.4604 -0.7025  2.5538
   34CHL1  H23B 2503   5.438   1.307   8.412 -0.7814 -0.2126 -2.2533
   34CHL1   C24 2504   5.509   1.136   8.511  0.0227 -0.2268  0.1477
   34CHL1  H24A 2505   5.407   1.092   8.498 -0.1645  0.3536 -0.3904
   34CHL1  H24B 2506   5.577   1.055   8.476 -0.4141 -1.5503  2.1919
   34CHL1   C25 2507   5.541   1.164   8.662  1.0222 -0.3137 -0.3140
   34CHL1   H25 2508   5.650   1.184   8.674  0.6579  1.9544 -0.3030
   34CHL1   C26 2509   5.459   1.296   8.713 -0.8983  0.2840  0.2800
   34CHL1  H26A 2510   5.460   1.298   8.824  0.1582 -0.8236  0.3114
   34CHL1  H26B 2511   5.506   1.377   8.654  0.7763 -1.1604 -0.4714
   34CHL1  H26C 2512   5.359   1.286   8.665  0.4333  0.0147 -2.6945
   34CHL1   C27 2513   5.516   1.038   8.754 -0.0777 -0.0364  0.7516
   34CHL1  H27A 2514   5.409   1.028   8.783 -0.3628  0.0811 -0.2266
   34CHL1  H27B 2515   5.543   0.946   8.698  1.5761  1.1695 -0.5117
   34CHL1  H27C 2516   5.567   1.051   8.852  0.6927 -0.8374  0.4683
   35CHL1    C3 2517   3.891   6.065   7.034 -0.3402  0.1054 -0.1861
   35CHL1    H3 2518   3.896   5.954   7.036  2.8279  0.1668 -0.2054
   35CHL1    O3 2519   3.894   6.107   6.902 -0.5117 -0.0101  0.3840
   35CHL1   H3' 2520   3.925   6.197   6.899  2.3242 -0.8450  1.4745
   35CHL1    C4 2521   3.766   6.128   7.108  0.0078  0.3444  0.0580
   35CHL1   H4A 2522   3.764   6.239   7.099 -0.6515  0.6566  3.0588
   35CHL1   H4B 2523   3.677   6.090   7.053 -0.1400  0.3818  0.2714
   35CHL1    C5 2524   3.761   6.091   7.256  0.1103  0.9346  0.1812
   35CHL1    C6 2525   3.655   6.026   7.302  0.1252 -0.4992  0.2158
   35CHL1    H6 2526   3.571   6.006   7.233  0.3948  0.4523 -0.4024
   35CHL1    C7 2527   3.657   5.982   7.440 -0.1151  1.1601  0.0484
   35CHL1   H7A 2528   3.560   5.993   7.494 -1.6605 -1.0519 -2.0978
   35CHL1   H7B 2529   3.688   5.875   7.440 -1.2343  0.7178  3.3350
   35CHL1    C8 2530   3.753   6.061   7.537  0.4106  0.5615 -0.1846
   35CHL1    H8 2531   3.712   6.164   7.540 -0.1425  0.4080  3.7310
   35CHL1   C14 2532   3.748   6.003   7.675 -0.0594 -0.7994  0.0180
   35CHL1   H14 2533   3.792   5.902   7.675 -1.8834 -1.6456  1.0137
   35CHL1   C15 2534   3.615   6.002   7.745  0.2064  0.2669  0.7619
   35CHL1  H15A 2535   3.569   6.097   7.709  0.8491  1.6661  3.3499
   35CHL1  H15B 2536   3.562   5.916   7.699  2.5405 -0.4495 -0.7634
   35CHL1   C16 2537   3.656   6.000   7.887  0.4480  0.5579 -0.8552
   35CHL1  H16A 2538   3.605   6.084   7.939 -1.4777  0.1328 -1.9356
   35CHL1  H16B 2539   3.609   5.908   7.928 -1.6435  0.8651 -2.3683
   35CHL1   C17 2540   3.814   6.005   7.904 -0.2343  0.1747  0.4726
   35CHL1   H17 2541   3.854   5.903   7.884  0.0504  0.6807 -1.7000
   35CHL1   C13 2542   3.847   6.076   7.770 -0.1030 -0.7831  0.6967
   35CHL1   C18 2543   3.804   6.220   7.794 -0.1585  0.5487  0.0948
   35CHL1  H18A 2544   3.705   6.229   7.842  0.0813 -2.5350  1.3866
   35CHL1  H18B 2545   3.882   6.268   7.858  3.2271 -1.9262 -1.8357
   35CHL1  H18C 2546   3.801   6.277   7.698  0.5778 -0.5014 -0.5747
   35CHL1   C12 2547   3.989   6.066   7.708  0.2147  0.3009 -0.0399
   35CHL1  H12A 2548   4.072   6.104   7.772 -2.0453  2.8797  1.5555
   35CHL1  H12B 2549   4.008   5.958   7.691  1.6630  0.8164 -2.1182
   35CHL1   C11 2550   3.999   6.131   7.573  0.3839  0.0483  0.3990
   35CHL1  H11A 2551   3.998   6.241   7.585 -2.9508  0.3568 -1.4971
   35CHL1  H11B 2552   4.102   6.105   7.540  0.7564 -1.1449  2.3800
   35CHL1    C9 2553   3.896   6.069   7.475  0.1909  0.8910  0.6514
   35CHL1    H9 2554   3.929   5.963   7.468 -0.3418  0.6803  1.2185
   35CHL1   C10 2555   3.897   6.125   7.331 -0.0460  0.1650  0.3204
   35CHL1   C19 2556   3.909   6.286   7.347 -0.0863  0.2577 -0.0210
   35CHL1  H19A 2557   3.844   6.325   7.429  0.2143  0.7654 -0.0165
   35CHL1  H19B 2558   4.014   6.299   7.381 -0.3105  0.8557  0.4597
   35CHL1  H19C 2559   3.902   6.337   7.249 -2.2920  0.0600 -0.0225
   35CHL1    C1 2560   4.012   6.066   7.246 -0.6146  0.2939 -0.3107
   35CHL1   H1A 2561   4.099   6.099   7.307 -1.8506 -0.3354  1.8685
   35CHL1   H1B 2562   4.016   5.957   7.265 -0.7628  0.4935  0.9080
   35CHL1    C2 2563   4.020   6.106   7.097  0.1480  1.1585 -0.6935
   35CHL1   H2A 2564   4.103   6.050   7.048 -0.2934  0.0006 -0.1763
   35CHL1   H2B 2565   4.044   6.214   7.095  0.6367  1.0792  0.4871
   35CHL1   C20 2566   3.860   6.057   8.042  1.2893  0.2871 -0.5873
   35CHL1   H20 2567   3.806   6.150   8.073 -1.1797 -1.7757  1.7937
   35CHL1   C21 2568   4.004   6.089   8.041 -0.6820 -0.8215  0.2927
   35CHL1  H21A 2569   4.052   6.075   8.140  3.5126 -2.0422 -1.6530
   35CHL1  H21B 2570   4.020   6.192   8.001 -0.3029 -0.6461  0.8786
   35CHL1  H21C 2571   4.066   6.020   7.980  0.1220 -1.5279  1.8398
   35CHL1   C22 2572   3.828   5.957   8.157 -0.2661  0.7372 -0.8362
   35CHL1  H22A 2573   3.734   5.901   8.143  0.4001 -0.5252 -0.4057
   35CHL1  H22B 2574   3.902   5.874   8.158 -0.6970  0.3385  0.8372
   35CHL1   C23 2575   3.821   6.030   8.290  0.2607  0.3165  0.0025
   35CHL1  H23A 2576   3.910   6.092   8.314 -0.2825  0.9462  0.4706
   35CHL1  H23B 2577   3.733   6.098   8.283 -0.3100 -0.2552  1.3196
   35CHL1   C24 2578   3.782   5.939   8.410  0.5213  0.3077  0.7308
   35CHL1  H24A 2579   3.678   5.904   8.393  0.5541 -0.0593  1.2452
   35CHL1  H24B 2580   3.844   5.847   8.398  2.7260  2.0234 -3.2201
   35CHL1   C25 2581   3.804   6.006   8.548  0.3575 -0.2021  0.5981
   35CHL1   H25 2582   3.760   6.106   8.525 -0.0778  0.1154  2.6469
   35CHL1   C26 2583   3.729   5.941   8.663  0.2879  0.2791 -1.1109
   35CHL1  H26A 2584   3.760   5.835   8.674 -0.1977  0.1518 -0.9886
   35CHL1  H26B 2585   3.753   5.993   8.758 -2.1235  1.6140 -1.1734
   35CHL1  H26C 2586   3.619   5.938   8.648 -0.5163 -1.8791  3.6260
   35CHL1   C27 2587   3.957   6.023   8.582 -0.1546  0.1794  0.5535
   35CHL1  H27A 2588   3.973   6.067   8.683  1.7675 -0.3577  0.5174
   35CHL1  H27B 2589   4.000   6.093   8.507 -0.3489  0.2218  0.4801
   35CHL1  H27C 2590   4.011   5.926   8.574 -0.1632  0.2753 -1.0468
   36CHL1    C3 2591   5.877   0.501   7.100 -0.0340 -0.2088  0.2461
   36CHL1    H3 2592   5.831   0.411   7.147 -0.1646  0.9364  2.4427
   36CHL1    O3 2593   5.856   0.487   6.956 -0.0917 -0.4768 -0.5825
   36CHL1   H3' 2594   5.879   0.573   6.919 -1.8373  0.4039  0.2537
   36CHL1    C4 2595   5.812   0.637   7.153  0.1361  0.7345  0.3061
   36CHL1   H4A 2596   5.849   0.726   7.099 -0.7331  1.6874  1.2185
   36CHL1   H4B 2597   5.704   0.627   7.129  0.5826 -1.0784 -1.1226
   36CHL1    C5 2598   5.847   0.656   7.302  0.1023  0.4967  0.4163
   36CHL1    C6 2599   5.751   0.674   7.395  0.6210 -0.0490 -0.3124
   36CHL1    H6 2600   5.646   0.678   7.362  0.7270  0.9486 -0.5511
   36CHL1    C7 2601   5.775   0.708   7.543 -0.1304  0.1852 -0.1995
   36CHL1   H7A 2602   5.705   0.790   7.570  1.3391  1.4165 -0.0122
   36CHL1   H7B 2603   5.757   0.619   7.607 -0.1305  0.9660  0.8975
   36CHL1    C8 2604   5.924   0.746   7.569  0.4723  0.1371  0.3074
   36CHL1    H8 2605   5.930   0.846   7.521 -0.3502  0.7822  1.4779
   36CHL1   C14 2606   5.956   0.744   7.714 -0.2746  0.0163 -0.7841
   36CHL1   H14 2607   5.940   0.640   7.749 -1.3586 -0.0455 -1.3997
   36CHL1   C15 2608   5.873   0.828   7.820 -0.3233  0.3059 -0.0708
   36CHL1  H15A 2609   5.835   0.922   7.772 -1.0707  0.9309  1.6828
   36CHL1  H15B 2610   5.786   0.767   7.850  0.1196  0.0682  0.7608
   36CHL1   C16 2611   5.967   0.865   7.929  0.0038  0.9410  0.0732
   36CHL1  H16A 2612   5.984   0.975   7.931  2.3340  0.6688 -1.3441
   36CHL1  H16B 2613   5.935   0.817   8.024  1.5587 -0.9696 -0.3014
   36CHL1   C17 2614   6.101   0.796   7.896 -0.4683 -0.3029 -0.1948
   36CHL1   H17 2615   6.107   0.693   7.938  0.5675  0.3629  1.3879
   36CHL1   C13 2616   6.107   0.783   7.737  0.0141 -0.1016 -0.6450
   36CHL1   C18 2617   6.138   0.918   7.674 -0.1364  0.7188 -0.7067
   36CHL1  H18A 2618   6.119   0.921   7.565  0.9544 -0.4361 -0.9437
   36CHL1  H18B 2619   6.081   1.006   7.713  0.0644 -0.4064  2.3950
   36CHL1  H18C 2620   6.248   0.931   7.680 -0.0629  1.4733 -2.8531
   36CHL1   C12 2621   6.194   0.669   7.680 -0.0208 -0.0077 -0.3874
   36CHL1  H12A 2622   6.301   0.695   7.692 -0.1790  0.2530  0.5253
   36CHL1  H12B 2623   6.157   0.585   7.743 -0.8814  0.4321 -0.2998
   36CHL1   C11 2624   6.182   0.658   7.527  0.7742 -0.1207 -0.3735
   36CHL1  H11A 2625   6.237   0.741   7.477  1.0398 -0.5896 -0.8709
   36CHL1  H11B 2626   6.229   0.561   7.503 -0.2942 -0.9064  0.6307
   36CHL1    C9 2627   6.025   0.651   7.490  0.4027 -0.0244 -0.4056
   36CHL1    H9 2628   5.995   0.553   7.534  0.2844  0.2272  0.0870
   36CHL1   C10 2629   5.999   0.651   7.338  0.3658 -0.1212 -0.0272
   36CHL1   C19 2630   6.073   0.764   7.270  0.4276  0.7621 -0.8205
   36CHL1  H19A 2631   6.038   0.772   7.165  0.1863 -0.7027 -0.8654
   36CHL1  H19B 2632   6.052   0.860   7.322 -0.5845  0.2229 -0.2016
   36CHL1  H19C 2633   6.181   0.741   7.271 -0.1858 -2.6878  1.5230
   36CHL1    C1 2634   6.052   0.514   7.283  0.6633  0.4372  0.2042
   36CHL1   H1A 2635   6.160   0.505   7.306  0.5716 -1.2837  0.0852
   36CHL1   H1B 2636   6.000   0.430   7.334 -0.6679 -0.5060 -2.5246
   36CHL1    C2 2637   6.027   0.493   7.132  0.0052 -0.3586  0.6128
   36CHL1   H2A 2638   6.080   0.401   7.097 -1.1575 -0.9019  0.2398
   36CHL1   H2B 2639   6.089   0.573   7.086  1.4436 -0.9692  1.4289
   36CHL1   C20 2640   6.222   0.858   7.971  0.0666 -0.5734  0.6426
   36CHL1   H20 2641   6.242   0.963   7.940  0.4595 -0.4537  1.2952
   36CHL1   C21 2642   6.352   0.773   7.951  0.0708  1.2099  0.0406
   36CHL1  H21A 2643   6.325   0.667   7.971  0.0250  1.2698  0.2991
   36CHL1  H21B 2644   6.440   0.799   8.014  0.8176 -0.4707 -0.2484
   36CHL1  H21C 2645   6.390   0.783   7.847  1.1620 -1.2302  0.1257
   36CHL1   C22 2646   6.205   0.869   8.125 -0.1085  0.4425  0.0711
   36CHL1  H22A 2647   6.101   0.895   8.154 -0.5297  1.6189 -2.2403
   36CHL1  H22B 2648   6.233   0.771   8.169  0.7234 -0.3153 -1.9735
   36CHL1   C23 2649   6.284   0.980   8.190  1.0392 -0.0155  0.2918
   36CHL1  H23A 2650   6.389   0.959   8.161  1.2724  1.6250 -0.1451
   36CHL1  H23B 2651   6.260   1.076   8.138 -0.2663 -1.5149 -2.0385
   36CHL1   C24 2652   6.252   0.990   8.336  0.2832  0.3254 -0.5590
   36CHL1  H24A 2653   6.146   1.025   8.331 -0.3668 -1.7041 -3.5505
   36CHL1  H24B 2654   6.267   0.892   8.385  0.3248 -0.2505 -1.6836
   36CHL1   C25 2655   6.348   1.090   8.401 -0.1210 -0.1078 -0.4040
   36CHL1   H25 2656   6.451   1.053   8.383 -0.1102  0.6869 -2.2388
   36CHL1   C26 2657   6.331   1.230   8.342 -0.0444 -0.1094  0.0730
   36CHL1  H26A 2658   6.222   1.249   8.331 -0.3299 -2.1428 -1.1400
   36CHL1  H26B 2659   6.374   1.314   8.400 -0.8468  1.0544 -0.9669
   36CHL1  H26C 2660   6.377   1.227   8.241  0.1742  0.3108  0.1594
   36CHL1   C27 2661   6.322   1.091   8.547  0.4048 -0.1791 -0.4046
   36CHL1  H27A 2662   6.221   1.132   8.567  1.3120  0.9910  2.1946
   36CHL1  H27B 2663   6.327   0.990   8.593 -0.1987  0.3088  0.7827
   36CHL1  H27C 2664   6.399   1.157   8.591  0.2200 -0.0575 -0.2660
   37CHL1    C3 2665   2.378   0.701   7.046  0.2364 -0.0559 -0.1740
   37CHL1    H3 2666   2.471   0.735   7.096 -0.0462  0.7032 -0.1383
   37CHL1    O3 2667   2.404   0.660   6.917 -0.3795 -0.7897 -0.1893
   37CHL1   H3' 2668   2.400   0.739   6.862 -0.2988 -0.5536  0.1470
   37CHL1    C4 2669   2.316   0.583   7.128 -0.8928  0.1763  0.5438
   37CHL1   H4A 2670   2.246   0.523   7.066  0.8478 -2.2344  0.7668
   37CHL1   H4B 2671   2.404   0.515   7.135 -0.2606  0.8680 -0.4650
   37CHL1    C5 2672   2.260   0.633   7.261 -0.7863 -0.3910  0.3560
   37CHL1    C6 2673   2.299   0.577   7.374 -0.7552 -1.2346  0.2306
   37CHL1    H6 2674   2.361   0.487   7.363 -0.2819 -0.8111 -0.6115
   37CHL1    C7 2675   2.258   0.623   7.505 -0.5226 -0.1384 -0.2617
   37CHL1   H7A 2676   2.231   0.536   7.569 -1.9752  1.6443  1.6935
   37CHL1   H7B 2677   2.346   0.668   7.557 -1.5517 -0.7633  2.1505
   37CHL1    C8 2678   2.139   0.715   7.510  0.4890 -0.5257  0.1369
   37CHL1    H8 2679   2.053   0.654   7.473  1.0384 -0.1451 -1.8770
   37CHL1   C14 2680   2.108   0.772   7.647  0.0581  0.2118  0.6868
   37CHL1   H14 2681   2.199   0.831   7.672 -0.1990  0.1793  1.7283
   37CHL1   C15 2682   2.097   0.680   7.769  0.2985 -0.2763 -0.4309
   37CHL1  H15A 2683   2.024   0.606   7.730 -0.4486  0.0087  0.3969
   37CHL1  H15B 2684   2.191   0.628   7.797  0.6518 -1.3538 -3.2597
   37CHL1   C16 2685   2.028   0.758   7.877 -0.3964 -0.5018  0.0859
   37CHL1  H16A 2686   1.933   0.704   7.898 -0.5912 -1.7697 -3.4265
   37CHL1  H16B 2687   2.089   0.764   7.970  0.6265  0.6900 -0.6364
   37CHL1   C17 2688   2.000   0.900   7.814 -0.2762  1.0789  0.4715
   37CHL1   H17 2689   2.095   0.951   7.842  0.4169  0.2230 -0.2765
   37CHL1   C13 2690   2.000   0.877   7.659  0.3692  0.1218 -0.7109
   37CHL1   C18 2691   1.853   0.827   7.625 -0.8855 -0.3089  0.3572
   37CHL1  H18A 2692   1.847   0.799   7.517 -0.7412  2.3607 -0.4137
   37CHL1  H18B 2693   1.829   0.728   7.670 -1.9979 -0.7104 -1.0253
   37CHL1  H18C 2694   1.777   0.903   7.652  0.3242  0.1954  2.5949
   37CHL1   C12 2695   2.040   0.988   7.571 -0.0367 -0.3701 -0.4570
   37CHL1  H12A 2696   1.958   1.061   7.587  0.5687  0.0546  0.8097
   37CHL1  H12B 2697   2.129   1.048   7.603 -0.2939  0.9560 -2.0717
   37CHL1   C11 2698   2.058   0.947   7.427  0.2157 -0.9207 -0.0757
   37CHL1  H11A 2699   1.960   0.917   7.384  0.3974  0.4990 -1.5656
   37CHL1  H11B 2700   2.086   1.039   7.370  0.9295 -2.4575 -2.3337
   37CHL1    C9 2701   2.160   0.831   7.405 -0.2343  0.3633 -0.2777
   37CHL1    H9 2702   2.262   0.872   7.424  0.6618 -1.5138 -0.7893
   37CHL1   C10 2703   2.179   0.774   7.263 -0.2046  0.0619 -0.2727
   37CHL1   C19 2704   2.044   0.735   7.208 -0.3906  0.0082 -0.0194
   37CHL1  H19A 2705   1.992   0.662   7.274 -0.8328 -0.6892 -1.1031
   37CHL1  H19B 2706   1.983   0.826   7.193  1.2909  1.4157  1.2341
   37CHL1  H19C 2707   2.054   0.693   7.105 -0.6407 -1.9125  0.6945
   37CHL1    C1 2708   2.255   0.875   7.168  0.4368 -0.0883 -0.1432
   37CHL1   H1A 2709   2.185   0.958   7.144  0.1454  0.3466  2.0111
   37CHL1   H1B 2710   2.344   0.923   7.214 -0.0709 -0.1694  0.9511
   37CHL1    C2 2711   2.285   0.819   7.028  0.3601  0.2354 -0.6330
   37CHL1   H2A 2712   2.340   0.900   6.976 -0.1582  2.0726  1.5315
   37CHL1   H2B 2713   2.187   0.802   6.979 -0.2062  0.7386  0.2973
   37CHL1   C20 2714   1.896   0.989   7.895  0.0436 -0.2885  0.6143
   37CHL1   H20 2715   1.801   0.933   7.895 -0.0407 -0.2338 -1.7816
   37CHL1   C21 2716   1.874   1.127   7.831 -0.0782  0.4649  0.1009
   37CHL1  H21A 2717   1.970   1.180   7.813  0.4653 -0.1670  1.0646
   37CHL1  H21B 2718   1.826   1.196   7.903 -1.7028  0.2073 -0.6855
   37CHL1  H21C 2719   1.807   1.126   7.742 -1.5984  0.1978  1.2027
   37CHL1   C22 2720   1.943   1.006   8.041  0.0724 -0.3763  0.5348
   37CHL1  H22A 2721   1.967   0.908   8.087 -1.7266 -1.2563 -0.3345
   37CHL1  H22B 2722   2.029   1.076   8.044 -1.7368  1.9680  0.9065
   37CHL1   C23 2723   1.835   1.068   8.129  0.3723  0.6226  0.5605
   37CHL1  H23A 2724   1.837   1.177   8.108  2.4304  0.3460 -0.9170
   37CHL1  H23B 2725   1.737   1.018   8.116 -0.6480  2.1680  1.8546
   37CHL1   C24 2726   1.859   1.039   8.280 -0.2363  0.7721  0.6711
   37CHL1  H24A 2727   1.863   0.930   8.300  3.2821  0.7601  0.3804
   37CHL1  H24B 2728   1.966   1.067   8.290  0.0683 -0.4798  1.1857
   37CHL1   C25 2729   1.760   1.117   8.366  0.1023 -0.1999 -0.1026
   37CHL1   H25 2730   1.660   1.110   8.317  0.1971  1.0872 -0.5221
   37CHL1   C26 2731   1.757   1.082   8.511 -0.3131  0.0687 -0.4984
   37CHL1  H26A 2732   1.716   0.979   8.520  0.4010 -0.3377 -1.5834
   37CHL1  H26B 2733   1.857   1.075   8.559 -0.6327 -1.4515 -0.0173
   37CHL1  H26C 2734   1.698   1.157   8.568 -0.1727 -0.5464  0.4787
   37CHL1   C27 2735   1.777   1.269   8.348 -0.1295  0.1740 -0.1560
   37CHL1  H27A 2736   1.733   1.316   8.438  0.5120  2.0241 -0.7570
   37CHL1  H27B 2737   1.881   1.308   8.358  0.1430 -0.6217  0.2180
   37CHL1  H27C 2738   1.728   1.317   8.260  0.1594 -0.7512 -0.8343
   38CHL1    C3 2739   6.694   3.477   6.674  0.4199 -0.1719 -0.4047
   38CHL1    H3 2740   6.719   3.369   6.679 -2.1605 -0.7704  2.2058
   38CHL1    O3 2741   6.652   3.522   6.546 -0.1038  0.1051 -0.1024
   38CHL1   H3' 2742   6.660   3.618   6.547 -1.1152  0.1945  0.9189
   38CHL1    C4 2743   6.570   3.488   6.765 -0.4066  0.3186  0.1095
   38CHL1   H4A 2744   6.534   3.589   6.738 -1.1730 -0.7549 -3.3789
   38CHL1   H4B 2745   6.493   3.422   6.720  0.0328 -0.1067 -0.0334
   38CHL1    C5 2746   6.601   3.458   6.909  0.0253  0.1262 -0.7117
   38CHL1    C6 2747   6.536   3.365   6.981  0.7196 -0.2630  0.4882
   38CHL1    H6 2748   6.451   3.314   6.934  0.5382 -0.6673  1.2432
   38CHL1    C7 2749   6.561   3.345   7.130 -0.2338 -0.6985  0.1529
   38CHL1   H7A 2750   6.466   3.329   7.185 -0.3344  2.2346  0.9886
   38CHL1   H7B 2751   6.630   3.258   7.140 -2.7338 -2.5966  2.3494
   38CHL1    C8 2752   6.644   3.460   7.194  0.3012 -0.6770  0.3550
   38CHL1    H8 2753   6.572   3.545   7.196  0.0753 -0.8238 -1.1099
   38CHL1   C14 2754   6.679   3.415   7.334  0.4565  0.7960  0.7177
   38CHL1   H14 2755   6.742   3.326   7.312 -0.4759  0.6827 -1.7874
   38CHL1   C15 2756   6.565   3.369   7.423  0.4614  0.1394  0.5793
   38CHL1  H15A 2757   6.483   3.444   7.428 -0.9963 -1.4178  0.8889
   38CHL1  H15B 2758   6.530   3.265   7.404  3.9369 -1.2790  1.1971
   38CHL1   C16 2759   6.630   3.364   7.564 -0.0928  0.4837 -0.3820
   38CHL1  H16A 2760   6.567   3.425   7.632  1.7756 -0.1050  2.0251
   38CHL1  H16B 2761   6.632   3.258   7.597 -1.7327  0.0831 -1.4693
   38CHL1   C17 2762   6.773   3.421   7.548 -0.0255 -0.6922 -0.0651
   38CHL1   H17 2763   6.845   3.340   7.524 -1.0694 -1.0821 -2.1033
   38CHL1   C13 2764   6.771   3.504   7.418  0.7010 -0.4269 -0.2537
   38CHL1   C18 2765   6.704   3.646   7.449  0.7934 -0.1252  0.1839
   38CHL1  H18A 2766   6.767   3.704   7.520 -0.9346  0.8358  0.9934
   38CHL1  H18B 2767   6.697   3.709   7.358  1.4152  1.2112  1.0322
   38CHL1  H18C 2768   6.605   3.638   7.498  0.3787  0.1472 -0.6035
   38CHL1   C12 2769   6.900   3.523   7.333  0.3946 -0.0088 -0.4963
   38CHL1  H12A 2770   6.958   3.600   7.388 -2.2185  1.1982  0.7498
   38CHL1  H12B 2771   6.943   3.421   7.330  0.5549  0.0406  0.0759
   38CHL1   C11 2772   6.864   3.581   7.192  0.1271 -0.2205 -0.6967
   38CHL1  H11A 2773   6.834   3.688   7.203  2.1218  0.6137 -2.6942
   38CHL1  H11B 2774   6.958   3.592   7.134  0.0525  1.3472 -0.5708
   38CHL1    C9 2775   6.764   3.503   7.112  0.1577  0.5922  0.0721
   38CHL1    H9 2776   6.823   3.412   7.088  1.4454  1.8441 -1.7859
   38CHL1   C10 2777   6.725   3.545   6.966  0.3289  0.1616 -0.5497
   38CHL1   C19 2778   6.676   3.692   6.981  0.3934  0.1882 -0.7989
   38CHL1  H19A 2779   6.650   3.719   6.877  0.7586 -0.7919 -1.1590
   38CHL1  H19B 2780   6.588   3.691   7.048  0.9288 -1.4076 -0.0750
   38CHL1  H19C 2781   6.756   3.756   7.025 -0.3836  0.1350  0.7435
   38CHL1    C1 2782   6.844   3.528   6.873 -0.2515 -0.1473 -0.0130
   38CHL1   H1A 2783   6.933   3.584   6.909 -0.6814 -0.7181  2.1000
   38CHL1   H1B 2784   6.876   3.422   6.862  0.1939 -0.2424  1.9076
   38CHL1    C2 2785   6.815   3.569   6.732  0.3971  0.0024  0.5515
   38CHL1   H2A 2786   6.899   3.544   6.664  1.4140  2.6511  0.7330
   38CHL1   H2B 2787   6.783   3.674   6.716  1.1582  0.4645  1.9467
   38CHL1   C20 2788   6.823   3.483   7.682  0.0212 -0.6458  0.3149
   38CHL1   H20 2789   6.748   3.562   7.706 -0.2646 -0.5185 -0.9375
   38CHL1   C21 2790   6.963   3.546   7.658  0.0653 -0.7475  0.0653
   38CHL1  H21A 2791   6.978   3.589   7.759 -1.4875 -0.7652  0.3345
   38CHL1  H21B 2792   6.960   3.626   7.582 -1.7620 -1.5569 -0.7827
   38CHL1  H21C 2793   7.041   3.471   7.632  0.8513 -0.1708  0.7038
   38CHL1   C22 2794   6.820   3.378   7.799  0.1031 -0.4388  0.7386
   38CHL1  H22A 2795   6.712   3.360   7.813 -0.1634 -0.9608 -1.5051
   38CHL1  H22B 2796   6.869   3.281   7.774 -0.8257 -1.2836  2.0874
   38CHL1   C23 2797   6.880   3.431   7.935 -0.8626  0.1885  0.2085
   38CHL1  H23A 2798   6.991   3.425   7.935 -0.7813  1.4316  1.1519
   38CHL1  H23B 2799   6.845   3.535   7.946 -0.8360  0.3328 -0.9346
   38CHL1   C24 2800   6.832   3.355   8.060  0.4280  0.2924  0.3902
   38CHL1  H24A 2801   6.722   3.348   8.048  0.1977  3.3180  0.0132
   38CHL1  H24B 2802   6.871   3.252   8.066 -0.3711 -0.0290  0.2310
   38CHL1   C25 2803   6.859   3.420   8.197 -0.0204  0.5287 -0.1072
   38CHL1   H25 2804   6.809   3.519   8.192 -0.1818  0.4235 -0.6505
   38CHL1   C26 2805   6.789   3.341   8.310  0.1346  0.2619 -0.1044
   38CHL1  H26A 2806   6.803   3.401   8.402  1.8213 -0.5601  0.2184
   38CHL1  H26B 2807   6.684   3.350   8.277  0.9136  0.4535 -2.7758
   38CHL1  H26C 2808   6.819   3.234   8.312 -0.4649  0.0962  1.1896
   38CHL1   C27 2809   7.011   3.437   8.231  0.9182  0.0499 -0.1553
   38CHL1  H27A 2810   7.073   3.486   8.152  0.3669  1.8450  0.4766
   38CHL1  H27B 2811   7.023   3.489   8.328 -0.7288  0.2420 -0.0272
   38CHL1  H27C 2812   7.062   3.339   8.240  1.5589  0.2529 -1.2662
   39CHL1    C3 2813   0.063   3.114   6.828 -0.0937  0.8351  1.1521
   39CHL1    H3 2814   0.007   3.196   6.879 -5.1192 -0.5226 -1.5005
   39CHL1    O3 2815   0.040   3.102   6.682 -0.0496 -0.2175 -0.8386
   39CHL1   H3' 2816   0.110   3.040   6.658  0.0029 -0.5974  0.2456
   39CHL1    C4 2817   0.210   3.110   6.866  0.2522 -0.0286  0.2264
   39CHL1   H4A 2818   0.263   3.026   6.815  2.1190  2.0697 -1.5627
   39CHL1   H4B 2819   0.256   3.198   6.815 -0.8792  1.4077  1.5925
   39CHL1    C5 2820   0.252   3.108   7.013  0.1308  0.0913 -0.0241
   39CHL1    C6 2821   0.330   3.193   7.076 -0.1710 -0.7077 -0.2265
   39CHL1    H6 2822   0.368   3.278   7.017 -1.5584  0.3372  0.3420
   39CHL1    C7 2823   0.363   3.182   7.223 -0.7487  0.4181  0.4408
   39CHL1   H7A 2824   0.473   3.183   7.238 -0.2655 -1.1842 -2.2371
   39CHL1   H7B 2825   0.318   3.265   7.281  2.0105  1.7399  0.8653
   39CHL1    C8 2826   0.311   3.056   7.295 -0.0363 -0.3906 -0.3047
   39CHL1    H8 2827   0.389   2.978   7.281  2.0633  1.7020 -0.9175
   39CHL1   C14 2828   0.290   3.084   7.443  0.3868  0.1434  0.3611
   39CHL1   H14 2829   0.219   3.169   7.447  0.5632  0.2640  2.6622
   39CHL1   C15 2830   0.413   3.145   7.522  0.3539  0.0768  0.0861
   39CHL1  H15A 2831   0.505   3.099   7.481 -0.5758 -0.4592 -1.4657
   39CHL1  H15B 2832   0.397   3.254   7.508  0.6922  0.0676 -0.4048
   39CHL1   C16 2833   0.386   3.124   7.664  0.2532  0.0838 -0.0917
   39CHL1  H16A 2834   0.479   3.077   7.702 -0.0440  0.5063  1.1891
   39CHL1  H16B 2835   0.365   3.223   7.709 -0.4810  0.5185 -1.3335
   39CHL1   C17 2836   0.255   3.041   7.674 -0.0417  0.0778 -0.4161
   39CHL1   H17 2837   0.177   3.120   7.669 -0.6985 -0.6370 -2.7503
   39CHL1   C13 2838   0.237   2.970   7.536 -0.3388 -0.1625  0.0418
   39CHL1   C18 2839   0.321   2.844   7.528  0.2398 -0.2996  0.1783
   39CHL1  H18A 2840   0.429   2.859   7.551 -0.1108  1.3687  0.9071
   39CHL1  H18B 2841   0.281   2.767   7.598 -1.4927  0.6092  0.2332
   39CHL1  H18C 2842   0.326   2.798   7.427  0.4922  1.3899 -0.6032
   39CHL1   C12 2843   0.099   2.936   7.485 -0.3072  0.4442  0.4025
   39CHL1  H12A 2844   0.067   2.847   7.542  0.9476  0.8091  1.7456
   39CHL1  H12B 2845   0.032   3.023   7.503 -1.2029 -0.1645  0.0465
   39CHL1   C11 2846   0.099   2.906   7.331  0.6905  0.3413  0.1773
   39CHL1  H11A 2847   0.155   2.812   7.315  0.1903  0.0905 -0.1179
   39CHL1  H11B 2848  -0.008   2.890   7.305  0.3933  0.9377  0.9957
   39CHL1    C9 2849   0.169   3.019   7.246 -0.2151  0.0268  0.9976
   39CHL1    H9 2850   0.111   3.114   7.247 -1.1150 -0.5049  0.7659
   39CHL1   C10 2851   0.173   2.997   7.091 -0.5974 -0.6431  0.4601
   39CHL1   C19 2852   0.258   2.865   7.060  0.4355 -0.5574 -0.5159
   39CHL1  H19A 2853   0.199   2.783   7.106 -0.8241  1.9332  2.7477
   39CHL1  H19B 2854   0.279   2.850   6.952 -0.8574  1.1410 -1.0605
   39CHL1  H19C 2855   0.356   2.859   7.113  0.8941 -2.9862 -1.5294
   39CHL1    C1 2856   0.025   2.980   7.049  0.1944 -1.1655  0.2993
   39CHL1   H1A 2857  -0.016   2.884   7.087 -0.1643 -0.0110  3.0447
   39CHL1   H1B 2858  -0.040   3.061   7.086 -0.0514 -1.0788 -0.3113
   39CHL1    C2 2859   0.009   2.985   6.894 -0.0437  0.0109 -0.3314
   39CHL1   H2A 2860  -0.095   2.978   6.858 -0.6011  1.6168  0.8493
   39CHL1   H2B 2861   0.069   2.907   6.844 -0.9065  0.4236 -2.0605
   39CHL1   C20 2862   0.244   2.951   7.803  0.0847 -0.3646  0.0632
   39CHL1   H20 2863   0.294   2.853   7.788 -0.8285 -0.8465  0.0738
   39CHL1   C21 2864   0.094   2.922   7.817  0.1047 -0.3561 -0.4632
   39CHL1  H21A 2865   0.070   2.863   7.908 -1.7403  1.4714  0.3262
   39CHL1  H21B 2866   0.051   2.868   7.730 -0.4343 -1.0968  0.2496
   39CHL1  H21C 2867   0.041   3.020   7.817  2.3058  0.8881  0.2047
   39CHL1   C22 2868   0.302   3.025   7.928  0.0521  0.3274 -0.0387
   39CHL1  H22A 2869   0.409   3.045   7.910 -0.2992 -0.0239 -3.0454
   39CHL1  H22B 2870   0.242   3.117   7.943  0.2380  0.3678  0.4636
   39CHL1   C23 2871   0.296   2.928   8.052  0.0707 -0.2606  0.7572
   39CHL1  H23A 2872   0.191   2.898   8.072 -0.8214  1.6926 -0.6485
   39CHL1  H23B 2873   0.358   2.839   8.026 -1.5083 -0.7382 -1.7180
   39CHL1   C24 2874   0.367   2.999   8.172 -0.1525  0.0118  0.1802
   39CHL1  H24A 2875   0.476   2.984   8.161 -0.2927 -2.0253  1.1568
   39CHL1  H24B 2876   0.351   3.109   8.160 -2.1642  0.1981  3.3139
   39CHL1   C25 2877   0.339   2.940   8.307  0.0952 -0.3073  0.0968
   39CHL1   H25 2878   0.340   2.829   8.305  2.1445 -0.3631  1.3875
   39CHL1   C26 2879   0.430   2.998   8.417 -0.3717 -0.0394 -0.3249
   39CHL1  H26A 2880   0.531   2.957   8.393 -0.7877 -0.6869 -0.9900
   39CHL1  H26B 2881   0.412   3.108   8.421 -4.8351 -0.5623 -0.8472
   39CHL1  H26C 2882   0.403   2.947   8.512  0.2632  0.4208  0.1132
   39CHL1   C27 2883   0.198   2.992   8.342 -0.2065  0.1256 -0.1626
   39CHL1  H27A 2884   0.195   3.103   8.351  0.7310  0.2421 -1.1239
   39CHL1  H27B 2885   0.120   2.970   8.266 -0.3432  1.1517 -0.3369
   39CHL1  H27C 2886   0.172   2.949   8.441 -0.9493 -0.1003 -0.4475
   40CHL1    C3 2887   1.454   0.132   6.882 -0.8218 -1.2037  0.4280
   40CHL1    H3 2888   1.550   0.076   6.887 -1.4803 -2.4172 -0.0128
   40CHL1    O3 2889   1.426   0.159   6.746 -0.2061  0.0975  0.4387
   40CHL1   H3' 2890   1.378   0.242   6.743  1.0511  0.9186  1.7033
   40CHL1    C4 2891   1.359   0.029   6.942  0.4698  0.2472  0.8733
   40CHL1   H4A 2892   1.256   0.054   6.911  2.2580  2.8430 -4.0324
   40CHL1   H4B 2893   1.378  -0.069   6.894 -1.7509  0.6301 -0.9337
   40CHL1    C5 2894   1.375   0.011   7.093 -0.2515 -0.4570  0.7280
   40CHL1    C6 2895   1.391  -0.110   7.140 -0.6192  0.2356  0.4745
   40CHL1    H6 2896   1.387  -0.202   7.080  0.9575 -1.7680  3.2098
   40CHL1    C7 2897   1.412  -0.137   7.290  0.6328 -0.0299  0.6857
   40CHL1   H7A 2898   1.347  -0.225   7.309  0.4072  0.0855  0.4514
   40CHL1   H7B 2899   1.511  -0.180   7.317  0.3115 -0.8202  0.6413
   40CHL1    C8 2900   1.373  -0.022   7.383  0.6814 -0.1517  0.1910
   40CHL1    H8 2901   1.263  -0.019   7.375  0.7629 -0.6679 -1.2569
   40CHL1   C14 2902   1.416  -0.036   7.527  0.1297  1.0708 -0.5654
   40CHL1   H14 2903   1.527  -0.036   7.532  0.1428 -1.9504  1.5577
   40CHL1   C15 2904   1.363  -0.175   7.587  0.2387  0.0818 -0.1329
   40CHL1  H15A 2905   1.260  -0.210   7.566 -0.4033  0.9252  1.4889
   40CHL1  H15B 2906   1.436  -0.250   7.550  1.2310  0.7033  0.5294
   40CHL1   C16 2907   1.388  -0.162   7.739  0.0515  0.2555 -0.1681
   40CHL1  H16A 2908   1.291  -0.189   7.788  1.4668 -0.4207  2.4593
   40CHL1  H16B 2909   1.472  -0.222   7.780  1.2795  1.5054 -0.7958
   40CHL1   C17 2910   1.418  -0.006   7.764  0.3338  0.5676 -1.0303
   40CHL1   H17 2911   1.529  -0.005   7.770  0.3246 -2.1764  2.5766
   40CHL1   C13 2912   1.380   0.068   7.633  0.1901  0.5931 -0.3268
   40CHL1   C18 2913   1.226   0.080   7.644  0.3245  0.5351  0.5140
   40CHL1  H18A 2914   1.182  -0.019   7.671 -0.4956  0.9147  0.5982
   40CHL1  H18B 2915   1.189   0.151   7.721 -2.8569 -1.6165  1.1741
   40CHL1  H18C 2916   1.189   0.112   7.544  0.4822 -2.2355 -0.5414
   40CHL1   C12 2917   1.459   0.194   7.584 -0.2254 -0.3170  0.9022
   40CHL1  H12A 2918   1.437   0.283   7.647 -2.2263  0.4160 -0.6979
   40CHL1  H12B 2919   1.568   0.173   7.586  0.1460  1.4465  1.3725
   40CHL1   C11 2920   1.427   0.219   7.431 -0.3418  0.0236  0.0086
   40CHL1  H11A 2921   1.321   0.250   7.443 -0.1347  0.7478  0.0198
   40CHL1  H11B 2922   1.490   0.304   7.395  0.3963 -0.7063 -0.4556
   40CHL1    C9 2923   1.438   0.106   7.326  0.0435 -0.2157 -0.0286
   40CHL1    H9 2924   1.546   0.084   7.319 -0.0661 -0.4133 -1.3293
   40CHL1   C10 2925   1.389   0.140   7.182 -0.1712  0.0215  0.1205
   40CHL1   C19 2926   1.254   0.213   7.187  0.0889 -0.3504 -1.1445
   40CHL1  H19A 2927   1.280   0.316   7.220 -0.7798  0.4205 -2.7356
   40CHL1  H19B 2928   1.216   0.225   7.083 -1.6377  2.0263 -0.3102
   40CHL1  H19C 2929   1.180   0.165   7.254  0.0823  0.8623 -0.2554
   40CHL1    C1 2930   1.495   0.230   7.116  0.9366  0.2344  0.1135
   40CHL1   H1A 2931   1.503   0.325   7.173 -0.0521  1.2933 -1.4429
   40CHL1   H1B 2932   1.594   0.179   7.122  0.6242 -0.2473  1.8278
   40CHL1    C2 2933   1.462   0.263   6.963  0.7676  0.7232  0.1730
   40CHL1   H2A 2934   1.540   0.326   6.914 -0.5021  0.6093 -2.1505
   40CHL1   H2B 2935   1.365   0.316   6.968  1.2052  1.4974  1.0035
   40CHL1   C20 2936   1.369   0.041   7.904  0.0833 -0.2634  0.7564
   40CHL1   H20 2937   1.258   0.040   7.908 -0.1336  1.5278 -2.2649
   40CHL1   C21 2938   1.399   0.195   7.922  1.1607 -0.3696 -0.5331
   40CHL1  H21A 2939   1.372   0.233   8.023 -2.1763 -3.9090  0.1257
   40CHL1  H21B 2940   1.344   0.243   7.838 -0.0588 -1.3607 -0.3211
   40CHL1  H21C 2941   1.507   0.224   7.919  0.2044  4.3905  1.5538
   40CHL1   C22 2942   1.423  -0.034   8.031  0.2442 -0.0974 -0.1348
   40CHL1  H22A 2943   1.407  -0.141   8.011 -1.7890 -0.3144  2.1421
   40CHL1  H22B 2944   1.533  -0.017   8.029  0.4409 -1.0791  1.1577
   40CHL1   C23 2945   1.350  -0.010   8.159  0.2280 -0.7554  0.4008
   40CHL1  H23A 2946   1.359   0.098   8.184  2.4860 -1.1725  1.5677
   40CHL1  H23B 2947   1.247  -0.050   8.143  0.3395 -1.8915  2.1825
   40CHL1   C24 2948   1.396  -0.087   8.279  0.2890 -0.0033  0.6137
   40CHL1  H24A 2949   1.397  -0.196   8.258 -0.2337 -0.2950  1.9528
   40CHL1  H24B 2950   1.499  -0.049   8.297  0.7303  1.0780 -3.3617
   40CHL1   C25 2951   1.312  -0.056   8.407 -0.1178  0.0819 -0.1930
   40CHL1   H25 2952   1.204  -0.063   8.384 -0.1766  0.4803 -0.0504
   40CHL1   C26 2953   1.345  -0.147   8.525 -0.3107  0.1713 -0.4686
   40CHL1  H26A 2954   1.455  -0.163   8.519 -0.3114  0.6781 -2.2700
   40CHL1  H26B 2955   1.320  -0.108   8.626 -0.0325 -0.1978 -0.2552
   40CHL1  H26C 2956   1.296  -0.247   8.517 -0.8194  0.4447 -0.8258
   40CHL1   C27 2957   1.339   0.089   8.449 -0.0897 -1.4155 -0.4603
   40CHL1  H27A 2958   1.293   0.160   8.377  3.3983  1.4807 -0.1277
   40CHL1  H27B 2959   1.282   0.118   8.540  0.3399 -0.3550 -0.5127
   40CHL1  H27C 2960   1.445   0.119   8.460  0.5097 -3.0210 -1.5301
   41CHL1    C3 2961   2.171   1.872   6.952  0.2502  0.0852  0.2001
   41CHL1    H3 2962   2.176   1.958   7.022 -2.7967 -1.8194  3.0363
   41CHL1    O3 2963   2.216   1.903   6.820 -0.3954  0.0421  0.0273
   41CHL1   H3' 2964   2.162   1.855   6.757 -1.1879  1.4179 -0.3632
   41CHL1    C4 2965   2.268   1.761   7.005 -0.1016 -0.1685  0.3620
   41CHL1   H4A 2966   2.267   1.681   6.929 -2.6423 -2.1800  2.3136
   41CHL1   H4B 2967   2.371   1.802   7.013  0.0041 -0.3503 -0.0475
   41CHL1    C5 2968   2.212   1.721   7.140  0.2079  0.2992  1.0116
   41CHL1    C6 2969   2.297   1.707   7.242  0.0304  0.3575 -0.1090
   41CHL1    H6 2970   2.400   1.742   7.226  0.2619 -0.5904 -0.7631
   41CHL1    C7 2971   2.255   1.659   7.378  0.5012  0.0493 -0.1583
   41CHL1   H7A 2972   2.331   1.610   7.442  0.9390  0.3280 -0.4538
   41CHL1   H7B 2973   2.242   1.757   7.429 -1.1190 -0.7656  1.0652
   41CHL1    C8 2974   2.115   1.592   7.393 -0.1759  0.2917  0.0620
   41CHL1    H8 2975   2.115   1.484   7.364 -2.5993 -0.3406  2.1177
   41CHL1   C14 2976   2.060   1.613   7.531 -0.9823 -0.2134 -0.1088
   41CHL1   H14 2977   2.044   1.722   7.550 -1.0654 -0.5029  1.6406
   41CHL1   C15 2978   2.155   1.571   7.645  0.2497 -0.0780  0.4090
   41CHL1  H15A 2979   2.184   1.466   7.623 -0.0906  0.1789 -1.4119
   41CHL1  H15B 2980   2.238   1.644   7.651  0.5456 -0.4503  0.9491
   41CHL1   C16 2981   2.060   1.589   7.763  0.3138  0.3955 -0.4239
   41CHL1  H16A 2982   2.077   1.499   7.826 -2.3689 -0.2223 -0.4907
   41CHL1  H16B 2983   2.066   1.683   7.822  0.5369 -1.8767  3.5346
   41CHL1   C17 2984   1.913   1.581   7.709  0.2466  0.5024 -0.3380
   41CHL1   H17 2985   1.890   1.689   7.700 -1.0758  0.0857 -3.0426
   41CHL1   C13 2986   1.931   1.543   7.561  0.1307  0.1864 -0.2169
   41CHL1   C18 2987   1.939   1.383   7.542  0.6727 -0.6525  0.4597
   41CHL1  H18A 2988   1.966   1.357   7.438 -1.4331 -0.2168 -0.2476
   41CHL1  H18B 2989   2.012   1.327   7.605  2.4199 -1.0350 -1.7809
   41CHL1  H18C 2990   1.836   1.343   7.551  0.3096  0.3942  1.1351
   41CHL1   C12 2991   1.821   1.601   7.462 -0.4229 -0.2256  0.0667
   41CHL1  H12A 2992   1.722   1.551   7.468 -1.5787  1.7898 -1.1530
   41CHL1  H12B 2993   1.801   1.709   7.481 -1.8109 -0.6433  1.1075
   41CHL1   C11 2994   1.869   1.604   7.313 -0.0566 -0.0397 -0.0494
   41CHL1  H11A 2995   1.859   1.498   7.280  0.0302  0.2936 -1.1963
   41CHL1  H11B 2996   1.804   1.674   7.257  0.5012  3.0147  2.8213
   41CHL1    C9 2997   2.016   1.656   7.291  0.4990 -0.1027 -0.1050
   41CHL1    H9 2998   2.012   1.762   7.322 -0.5556  0.4291 -1.8593
   41CHL1   C10 2999   2.065   1.674   7.143  0.7574 -0.3867  0.0960
   41CHL1   C19 3000   2.051   1.535   7.077 -0.8953 -0.1979  0.4050
   41CHL1  H19A 3001   2.086   1.530   6.971 -0.2815 -2.1512  0.6725
   41CHL1  H19B 3002   2.128   1.465   7.113  0.4252 -0.3017 -2.3159
   41CHL1  H19C 3003   1.951   1.491   7.093 -2.0279  1.9060 -0.3623
   41CHL1    C1 3004   1.970   1.777   7.073 -0.5314  0.2238  0.6324
   41CHL1   H1A 3005   1.882   1.715   7.048 -0.1626 -0.5554  1.2310
   41CHL1   H1B 3006   1.948   1.861   7.142  1.3408  0.4663  0.9947
   41CHL1    C2 3007   2.022   1.837   6.942 -0.0910 -0.0017  0.4377
   41CHL1   H2A 3008   1.961   1.925   6.912  1.1483 -0.1989 -3.2251
   41CHL1   H2B 3009   2.008   1.761   6.862  1.1872  1.7900 -1.6101
   41CHL1   C20 3010   1.816   1.511   7.795  0.1040  0.0987 -0.3400
   41CHL1   H20 3011   1.828   1.400   7.802 -0.5526  0.0590  0.2792
   41CHL1   C21 3012   1.668   1.535   7.751 -0.2364 -0.1931 -0.2002
   41CHL1  H21A 3013   1.640   1.642   7.755 -0.2356 -0.1898 -0.2825
   41CHL1  H21B 3014   1.595   1.484   7.817 -0.9300 -1.0811 -1.6098
   41CHL1  H21C 3015   1.656   1.488   7.651 -0.6390 -0.6505  0.0578
   41CHL1   C22 3016   1.833   1.560   7.944  0.2653 -0.3271  0.1421
   41CHL1  H22A 3017   1.932   1.539   7.988  1.4987  1.2154 -1.7176
   41CHL1  H22B 3018   1.839   1.671   7.952  2.1223 -0.5025  1.9082
   41CHL1   C23 3019   1.739   1.516   8.049 -0.0043  0.6236 -0.1558
   41CHL1  H23A 3020   1.638   1.541   8.011 -0.5698  1.0223  1.5240
   41CHL1  H23B 3021   1.739   1.405   8.060 -0.7472  0.6963  0.7656
   41CHL1   C24 3022   1.746   1.595   8.184 -1.1650  0.1480 -0.2544
   41CHL1  H24A 3023   1.679   1.551   8.261  1.9793 -1.2716  1.9136
   41CHL1  H24B 3024   1.849   1.599   8.225 -0.3800 -0.2417 -2.1051
   41CHL1   C25 3025   1.705   1.744   8.171 -0.0722 -0.1650  0.1515
   41CHL1   H25 3026   1.782   1.796   8.110  2.1665 -0.9603  2.1620
   41CHL1   C26 3027   1.569   1.760   8.099 -0.3450 -0.0212 -0.6107
   41CHL1  H26A 3028   1.478   1.707   8.135 -0.0644 -2.0830 -2.6778
   41CHL1  H26B 3029   1.546   1.869   8.100  0.1273  0.0804 -0.2016
   41CHL1  H26C 3030   1.562   1.739   7.990 -1.3859 -1.9138 -0.2283
   41CHL1   C27 3031   1.701   1.816   8.307 -0.1692 -1.0691  0.3892
   41CHL1  H27A 3032   1.642   1.909   8.292  0.3949 -0.7742 -0.0408
   41CHL1  H27B 3033   1.647   1.760   8.386 -1.6399 -0.1316  0.0765
   41CHL1  H27C 3034   1.800   1.856   8.338 -0.1522  1.2351 -2.2406
   42CHL1    C3 3035   3.614   3.816   7.071  0.3860  0.2597 -0.1961
   42CHL1    H3 3036   3.558   3.905   7.107  1.2513  1.2520 -1.2643
   42CHL1    O3 3037   3.659   3.841   6.943 -0.1225 -0.2757  1.0299
   42CHL1   H3' 3038   3.737   3.895   6.951 -1.1465  1.4887 -0.2913
   42CHL1    C4 3039   3.730   3.790   7.165 -0.7244 -0.3531  0.0389
   42CHL1   H4A 3040   3.795   3.713   7.119 -0.4846 -0.4299  0.4985
   42CHL1   H4B 3041   3.791   3.883   7.162  0.2414 -0.9873 -2.5356
   42CHL1    C5 3042   3.683   3.757   7.303  0.3184  0.6084 -0.9692
   42CHL1    C6 3043   3.721   3.830   7.403 -0.1860  0.2819 -0.0292
   42CHL1    H6 3044   3.786   3.917   7.387  2.7926 -1.8240 -0.1739
   42CHL1    C7 3045   3.680   3.808   7.544  0.5818  0.0973  0.6740
   42CHL1   H7A 3046   3.772   3.804   7.608  2.4727 -0.2805 -1.9088
   42CHL1   H7B 3047   3.613   3.886   7.585  0.8666  0.6824  0.0390
   42CHL1    C8 3048   3.616   3.670   7.577  0.6596  0.2322 -0.1642
   42CHL1    H8 3049   3.698   3.595   7.577 -0.7745 -1.4243 -1.3676
   42CHL1   C14 3050   3.528   3.670   7.706  0.5398 -0.4014 -0.0235
   42CHL1   H14 3051   3.444   3.740   7.688  0.7918  0.4192  1.7356
   42CHL1   C15 3052   3.583   3.736   7.836 -0.1243 -0.3223 -0.0223
   42CHL1  H15A 3053   3.693   3.733   7.851 -0.1550 -0.9619  0.0782
   42CHL1  H15B 3054   3.564   3.846   7.841  3.4285  0.5973 -2.5119
   42CHL1   C16 3055   3.504   3.669   7.952 -0.3014 -1.0218 -0.4569
   42CHL1  H16A 3056   3.575   3.600   8.002  0.9675 -0.1770 -1.0442
   42CHL1  H16B 3057   3.465   3.740   8.028 -1.5331 -0.2061 -1.7986
   42CHL1   C17 3058   3.399   3.579   7.876 -0.8743 -0.1532  0.2833
   42CHL1   H17 3059   3.317   3.649   7.847 -0.5059  0.8012  1.4408
   42CHL1   C13 3060   3.463   3.539   7.737 -0.1515 -0.4827 -0.0756
   42CHL1   C18 3061   3.573   3.436   7.769 -0.4006  0.0787  0.6433
   42CHL1  H18A 3062   3.631   3.454   7.862 -0.8371  0.4920  0.8407
   42CHL1  H18B 3063   3.517   3.340   7.773 -0.2161  0.0197  2.0467
   42CHL1  H18C 3064   3.644   3.432   7.684  0.1254 -1.5216  1.1364
   42CHL1   C12 3065   3.375   3.494   7.617  0.3480 -0.3492 -0.2340
   42CHL1  H12A 3066   3.327   3.396   7.638 -0.9859  0.5140  1.0091
   42CHL1  H12B 3067   3.292   3.565   7.597 -0.1249 -1.6566 -3.5497
   42CHL1   C11 3068   3.452   3.499   7.479  0.7293  0.6638  0.1486
   42CHL1  H11A 3069   3.526   3.416   7.483  1.2635  1.1355  0.1657
   42CHL1  H11B 3070   3.382   3.462   7.400  1.2150 -2.5308  1.0531
   42CHL1    C9 3071   3.519   3.631   7.459 -0.1775 -0.0790  0.0643
   42CHL1    H9 3072   3.442   3.711   7.464 -0.8810 -0.4822 -2.4888
   42CHL1   C10 3073   3.587   3.642   7.324  0.1139  0.2293 -0.5453
   42CHL1   C19 3074   3.680   3.516   7.303  0.6515 -0.4201  0.7608
   42CHL1  H19A 3075   3.746   3.506   7.392  0.6894 -0.9199  0.6780
   42CHL1  H19B 3076   3.627   3.418   7.301 -1.1510  0.5301  0.1478
   42CHL1  H19C 3077   3.739   3.530   7.211 -0.9314 -0.2268 -0.2608
   42CHL1    C1 3078   3.482   3.652   7.210 -0.9605  0.4771 -0.3618
   42CHL1   H1A 3079   3.414   3.564   7.211 -0.2033 -0.1094 -0.1535
   42CHL1   H1B 3080   3.416   3.738   7.236 -1.5788  0.5909 -2.1493
   42CHL1    C2 3081   3.524   3.693   7.069 -0.7084 -0.2397 -0.1542
   42CHL1   H2A 3082   3.438   3.721   7.005  2.0143  2.1547 -3.0573
   42CHL1   H2B 3083   3.583   3.620   7.009 -0.0191  0.5318 -0.4316
   42CHL1   C20 3084   3.341   3.469   7.965 -0.0677 -0.3135  0.8185
   42CHL1   H20 3085   3.423   3.399   7.994  0.3064  0.1516  0.8902
   42CHL1   C21 3086   3.228   3.387   7.890 -0.4071  0.3911  0.4278
   42CHL1  H21A 3087   3.171   3.465   7.834  0.3520  0.5066 -0.1997
   42CHL1  H21B 3088   3.170   3.345   7.974  1.4475 -1.3476  0.8996
   42CHL1  H21C 3089   3.286   3.314   7.830  2.2669  0.5707  2.6101
   42CHL1   C22 3090   3.295   3.523   8.098 -0.3934 -0.2829 -0.5076
   42CHL1  H22A 3091   3.370   3.596   8.136 -0.4064  0.6615 -2.2174
   42CHL1  H22B 3092   3.197   3.574   8.089  0.2337  1.1289  0.2604
   42CHL1   C23 3093   3.294   3.420   8.209  0.2221 -0.0451 -0.6782
   42CHL1  H23A 3094   3.240   3.331   8.172  0.8297 -0.4111 -0.6964
   42CHL1  H23B 3095   3.400   3.387   8.221 -0.2552 -1.7418 -0.8966
   42CHL1   C24 3096   3.238   3.477   8.337  0.3921 -0.4601 -0.6213
   42CHL1  H24A 3097   3.278   3.581   8.345 -0.3345 -0.2231  0.0801
   42CHL1  H24B 3098   3.128   3.488   8.336  0.5476  1.7653  0.2914
   42CHL1   C25 3099   3.289   3.402   8.465  0.3005  0.3341 -0.2424
   42CHL1   H25 3100   3.399   3.395   8.457  0.1476 -3.4037 -0.9072
   42CHL1   C26 3101   3.241   3.482   8.589 -0.0354 -0.8021  0.3985
   42CHL1  H26A 3102   3.297   3.577   8.601  2.8301 -2.2506 -0.6060
   42CHL1  H26B 3103   3.132   3.500   8.588  0.2912  1.5989  0.9558
   42CHL1  H26C 3104   3.261   3.425   8.682 -2.9400 -0.5445  1.2840
   42CHL1   C27 3105   3.231   3.266   8.466  0.4729 -0.4563  0.0788
   42CHL1  H27A 3106   3.243   3.224   8.568 -0.6429 -0.6131  0.1595
   42CHL1  H27B 3107   3.284   3.203   8.391 -0.2220 -0.9568 -0.0019
   42CHL1  H27C 3108   3.121   3.266   8.451  0.7884  0.2646 -3.0894
   43CHL1    C3 3109   3.195   1.896   6.908  0.3679 -0.2394 -0.2867
   43CHL1    H3 3110   3.086   1.878   6.902  0.3187 -0.8397  1.7485
   43CHL1    O3 3111   3.244   1.895   6.773 -0.4542  0.2842 -0.2064
   43CHL1   H3' 3112   3.337   1.893   6.794 -0.3879 -0.0147 -0.5093
   43CHL1    C4 3113   3.217   2.024   6.988 -0.6534  0.0547  0.5046
   43CHL1   H4A 3114   3.325   2.042   7.007 -0.8004  0.7649  0.6970
   43CHL1   H4B 3115   3.174   2.114   6.939  1.0222 -0.8789 -2.9804
   43CHL1    C5 3116   3.166   2.005   7.131 -0.4492 -0.7420 -0.6584
   43CHL1    C6 3117   3.079   2.095   7.184 -0.1638  0.8539  0.5987
   43CHL1    H6 3118   3.049   2.175   7.115  0.3689  0.3892 -0.1949
   43CHL1    C7 3119   3.045   2.095   7.326 -0.1310 -0.4382 -0.3132
   43CHL1   H7A 3120   3.048   2.200   7.361  0.3364  0.5915 -3.1979
   43CHL1   H7B 3121   2.940   2.064   7.347 -0.0238 -0.2887  0.4764
   43CHL1    C8 3122   3.137   2.003   7.417  0.2278 -0.0334 -0.6072
   43CHL1    H8 3123   3.234   2.057   7.426  1.0901 -1.8672  3.6560
   43CHL1   C14 3124   3.069   1.984   7.554  0.1494  0.6371  0.6744
   43CHL1   H14 3125   2.983   1.915   7.544  0.0923  0.7246  0.5648
   43CHL1   C15 3126   3.017   2.108   7.624  0.7831  0.4170 -0.1731
   43CHL1  H15A 3127   3.095   2.186   7.613  0.3985  0.8415  0.0914
   43CHL1  H15B 3128   2.917   2.137   7.585 -0.4045 -2.3693  0.5535
   43CHL1   C16 3129   3.001   2.064   7.772 -0.1979 -0.0872  0.8500
   43CHL1  H16A 3130   3.064   2.135   7.829 -0.0581 -0.8717  1.6942
   43CHL1  H16B 3131   2.898   2.075   7.814  0.2425  1.0900  1.6398
   43CHL1   C17 3132   3.066   1.927   7.784 -0.1595  0.2229  0.1779
   43CHL1   H17 3133   2.973   1.868   7.790 -0.5380  0.8510  0.6091
   43CHL1   C13 3134   3.150   1.909   7.651  0.8884 -0.2096  0.6675
   43CHL1   C18 3135   3.288   1.979   7.662  0.1339  0.0240  0.3850
   43CHL1  H18A 3136   3.277   2.084   7.696 -0.8059  0.5491 -1.4042
   43CHL1  H18B 3137   3.352   1.928   7.736  2.5157 -1.9089 -2.7498
   43CHL1  H18C 3138   3.343   1.978   7.565  1.8608 -0.2451  1.3284
   43CHL1   C12 3139   3.161   1.768   7.586  0.3377  0.0632 -0.1891
   43CHL1  H12A 3140   3.220   1.709   7.660  0.8858 -0.1777 -0.8067
   43CHL1  H12B 3141   3.064   1.716   7.595 -0.2118  1.3243  1.9448
   43CHL1   C11 3142   3.212   1.763   7.443  0.1222 -0.8845  0.0363
   43CHL1  H11A 3143   3.323   1.769   7.445  0.0974 -0.6955  1.1382
   43CHL1  H11B 3144   3.186   1.664   7.399  0.3175 -1.1534  0.5195
   43CHL1    C9 3145   3.152   1.875   7.351 -0.1092  0.0654 -0.0707
   43CHL1    H9 3146   3.045   1.848   7.338 -0.3956 -0.6474  2.8972
   43CHL1   C10 3147   3.222   1.884   7.212  0.3360 -0.1597 -0.7837
   43CHL1   C19 3148   3.370   1.910   7.242 -0.6783 -0.6211  0.5770
   43CHL1  H19A 3149   3.392   1.978   7.327 -3.7966 -1.0488  1.8738
   43CHL1  H19B 3150   3.426   1.817   7.263  0.5102  0.2543  1.3855
   43CHL1  H19C 3151   3.436   1.943   7.159  2.3466 -1.9003  2.3409
   43CHL1    C1 3152   3.186   1.758   7.131 -0.2477  0.1601  0.4294
   43CHL1   H1A 3153   3.215   1.661   7.178 -1.5920 -1.3434 -1.6490
   43CHL1   H1B 3154   3.075   1.763   7.122 -0.1369 -0.1577 -1.3200
   43CHL1    C2 3155   3.248   1.768   6.989 -0.3137 -0.3407 -0.5529
   43CHL1   H2A 3156   3.216   1.684   6.924 -0.6222 -0.9663  0.3962
   43CHL1   H2B 3157   3.357   1.769   7.008 -0.5662  2.5367  1.4634
   43CHL1   C20 3158   3.140   1.897   7.915 -0.0143 -0.7688  0.2357
   43CHL1   H20 3159   3.227   1.966   7.925 -1.5894  1.2869  0.2723
   43CHL1   C21 3160   3.173   1.747   7.914  0.0289 -0.2887 -0.9721
   43CHL1  H21A 3161   3.111   1.691   7.841 -1.7409  0.6552 -0.2615
   43CHL1  H21B 3162   3.172   1.698   8.014  1.6561  0.5876 -0.4912
   43CHL1  H21C 3163   3.279   1.736   7.882  0.4943  1.4194 -0.1351
   43CHL1   C22 3164   3.054   1.931   8.045 -0.0458  0.4098 -0.0394
   43CHL1  H22A 3165   3.019   2.036   8.048 -2.2504 -0.2966  1.4661
   43CHL1  H22B 3166   2.964   1.866   8.053  0.4642 -0.6836 -2.4005
   43CHL1   C23 3167   3.138   1.905   8.176  0.4030 -0.0635 -1.0709
   43CHL1  H23A 3168   3.166   1.797   8.173 -0.2964 -0.2869 -0.0961
   43CHL1  H23B 3169   3.234   1.961   8.165  0.7140 -0.5183 -0.7347
   43CHL1   C24 3170   3.068   1.954   8.300 -0.3373 -0.0581 -0.4091
   43CHL1  H24A 3171   3.051   2.062   8.281 -1.4176 -0.6132 -2.8992
   43CHL1  H24B 3172   2.963   1.919   8.306 -0.3634  0.1248  0.3001
   43CHL1   C25 3173   3.147   1.923   8.432  0.8475  0.5546  0.8559
   43CHL1   H25 3174   3.179   1.816   8.431 -3.3211 -0.9569 -2.4886
   43CHL1   C26 3175   3.264   2.018   8.447 -0.4231  0.3734 -0.6383
   43CHL1  H26A 3176   3.220   2.115   8.478 -2.1880 -0.2646 -1.0299
   43CHL1  H26B 3177   3.342   1.975   8.512  0.7946  1.4067 -1.3713
   43CHL1  H26C 3178   3.305   2.047   8.348 -0.2454 -0.2059 -0.7348
   43CHL1   C27 3179   3.054   1.954   8.553 -0.4378  0.2128  0.4118
   43CHL1  H27A 3180   3.108   1.928   8.646 -1.4430  0.5774  1.1156
   43CHL1  H27B 3181   3.033   2.063   8.549  1.3658  0.5627 -0.8680
   43CHL1  H27C 3182   2.961   1.896   8.533  0.4158 -0.8793 -0.5807
   44CHL1    C3 3183   2.888   0.358   6.957  0.2043  0.4167 -0.2928
   44CHL1    H3 3184   2.995   0.330   6.959  0.5225  1.2674 -2.5069
   44CHL1    O3 3185   2.846   0.363   6.823 -0.0355  0.1431 -0.3366
   44CHL1   H3' 3186   2.752   0.381   6.821 -0.3590 -1.2339 -2.9423
   44CHL1    C4 3187   2.799   0.263   7.041  0.1928 -0.5640  0.2454
   44CHL1   H4A 3188   2.691   0.281   7.021 -1.1642 -5.3741  1.8318
   44CHL1   H4B 3189   2.808   0.163   6.995  0.9642 -0.4310  0.0967
   44CHL1    C5 3190   2.825   0.261   7.191 -0.1316  0.1751 -0.7724
   44CHL1    C6 3191   2.854   0.146   7.259  0.0806  0.0818 -0.8874
   44CHL1    H6 3192   2.865   0.052   7.202 -1.4805  0.3818 -1.7493
   44CHL1    C7 3193   2.854   0.147   7.411  0.1998 -0.2891 -0.4426
   44CHL1   H7A 3194   2.791   0.060   7.440 -2.1492  2.1017  2.2112
   44CHL1   H7B 3195   2.956   0.118   7.444  0.2672  0.1344 -0.2786
   44CHL1    C8 3196   2.795   0.274   7.470 -0.3322  1.0171 -0.1178
   44CHL1    H8 3197   2.686   0.263   7.457 -0.1911 -0.8306  0.0091
   44CHL1   C14 3198   2.834   0.287   7.617  0.0029 -0.4625  0.1894
   44CHL1   H14 3199   2.944   0.295   7.617  0.0049 -0.3347 -0.9608
   44CHL1   C15 3200   2.791   0.171   7.711  0.3769  1.0402 -0.1474
   44CHL1  H15A 3201   2.684   0.143   7.695  0.1634  2.4553 -1.4045
   44CHL1  H15B 3202   2.858   0.083   7.705  1.2619  1.5812  1.3097
   44CHL1   C16 3203   2.792   0.222   7.851  0.6282 -0.7097  0.0317
   44CHL1  H16A 3204   2.692   0.199   7.894  0.8571 -1.5071  0.1570
   44CHL1  H16B 3205   2.870   0.183   7.920  0.0762  2.2216  2.5360
   44CHL1   C17 3206   2.826   0.371   7.837  0.3199  0.0461 -0.1211
   44CHL1   H17 3207   2.935   0.391   7.845  0.2397 -0.2109  2.3955
   44CHL1   C13 3208   2.789   0.415   7.693  0.9515 -0.4398  0.4733
   44CHL1   C18 3209   2.633   0.428   7.672  0.2550 -0.5077 -0.2447
   44CHL1  H18A 3210   2.578   0.358   7.738  0.5732  1.8073  2.7104
   44CHL1  H18B 3211   2.600   0.526   7.713  0.5551 -0.8799  0.9491
   44CHL1  H18C 3212   2.603   0.424   7.566  0.9070  2.6985 -0.6376
   44CHL1   C12 3213   2.870   0.533   7.631  0.6785 -0.1657 -0.3108
   44CHL1  H12A 3214   2.831   0.628   7.672 -0.4783 -1.0450  0.6876
   44CHL1  H12B 3215   2.974   0.527   7.671 -0.2871  1.5307  2.7826
   44CHL1   C11 3216   2.843   0.532   7.483 -0.3768 -0.4615 -0.3109
   44CHL1  H11A 3217   2.743   0.580   7.476 -0.8607 -1.3395  0.4318
   44CHL1  H11B 3218   2.916   0.604   7.438 -0.3606  0.4091  1.0299
   44CHL1    C9 3219   2.853   0.398   7.397  0.3490 -0.0033  0.4085
   44CHL1    H9 3220   2.963   0.379   7.393  0.0742 -1.9820  1.1545
   44CHL1   C10 3221   2.809   0.403   7.252  0.3085  0.0955  0.6739
   44CHL1   C19 3222   2.663   0.447   7.243  0.2171 -0.0064  0.6181
   44CHL1  H19A 3223   2.610   0.425   7.339 -0.8889  0.7959  0.2248
   44CHL1  H19B 3224   2.648   0.556   7.230 -0.3795  0.1177  2.0495
   44CHL1  H19C 3225   2.599   0.392   7.171  0.7656  0.2725 -0.0865
   44CHL1    C1 3226   2.903   0.501   7.167 -0.0292 -0.4325 -0.2418
   44CHL1   H1A 3227   2.891   0.602   7.212 -0.0683 -1.0336  1.1647
   44CHL1   H1B 3228   3.005   0.462   7.184  0.1479  0.0212 -0.2368
   44CHL1    C2 3229   2.874   0.500   7.018 -0.1285 -0.3662  0.0967
   44CHL1   H2A 3230   2.942   0.565   6.960  0.9618 -1.0741  0.5479
   44CHL1   H2B 3231   2.772   0.529   6.986  0.3598  0.5525 -0.6459
   44CHL1   C20 3232   2.761   0.449   7.960 -0.5526 -0.6571  0.6454
   44CHL1   H20 3233   2.651   0.452   7.943 -0.8105 -0.7302  2.1912
   44CHL1   C21 3234   2.807   0.594   7.953  0.7945 -0.1155  0.2669
   44CHL1  H21A 3235   2.764   0.664   7.878 -0.7418  0.6182  1.7659
   44CHL1  H21B 3236   2.918   0.594   7.950  0.8078 -1.2049  0.5040
   44CHL1  H21C 3237   2.776   0.642   8.049 -2.2005  0.9658 -1.1364
   44CHL1   C22 3238   2.787   0.379   8.098  0.4190  0.2297  0.6230
   44CHL1  H22A 3239   2.743   0.440   8.180 -1.4004  0.9564 -0.8310
   44CHL1  H22B 3240   2.740   0.279   8.103 -0.2713  0.3716 -1.9189
   44CHL1   C23 3241   2.937   0.377   8.145  0.3955 -0.6029 -0.5949
   44CHL1  H23A 3242   3.001   0.360   8.056  0.2916  0.0988 -0.8132
   44CHL1  H23B 3243   2.973   0.478   8.175  2.1916 -1.1226 -0.8829
   44CHL1   C24 3244   2.977   0.282   8.263  0.5697 -0.6141  0.0476
   44CHL1  H24A 3245   2.906   0.304   8.345  1.4119  1.4152  0.2954
   44CHL1  H24B 3246   2.981   0.176   8.231 -0.5904 -1.0368  1.2260
   44CHL1   C25 3247   3.121   0.309   8.312 -0.6468  0.3788  0.1641
   44CHL1   H25 3248   3.189   0.265   8.236 -2.0650 -0.5853 -0.5893
   44CHL1   C26 3249   3.161   0.456   8.348 -0.1214  0.6114 -0.1982
   44CHL1  H26A 3250   3.268   0.457   8.380  0.9690 -0.4500 -3.3884
   44CHL1  H26B 3251   3.160   0.519   8.257  3.9545 -0.1234 -0.9898
   44CHL1  H26C 3252   3.096   0.497   8.428 -0.2567 -2.6985  1.5719
   44CHL1   C27 3253   3.152   0.223   8.438 -0.4458 -0.5926 -0.2838
   44CHL1  H27A 3254   3.140   0.113   8.439 -1.5233 -0.4971 -0.8077
   44CHL1  H27B 3255   3.258   0.241   8.465  0.0064 -0.4620 -2.0399
   44CHL1  H27C 3256   3.081   0.273   8.507 -1.3613  1.8416 -2.7533
   45CHL1    C3 3257   4.241   3.584   6.869  0.9595 -0.1748  0.6291
   45CHL1    H3 3258   4.151   3.519   6.882 -0.9680  2.4055  1.0016
   45CHL1    O3 3259   4.259   3.585   6.724 -0.7134 -0.1502 -0.1432
   45CHL1   H3' 3260   4.171   3.585   6.687 -0.7731 -1.1421 -0.0130
   45CHL1    C4 3261   4.191   3.721   6.912 -0.2114  0.2599 -0.5972
   45CHL1   H4A 3262   4.251   3.804   6.870  0.2830  0.9459  1.3385
   45CHL1   H4B 3263   4.086   3.726   6.875 -0.4379  1.6820  0.1756
   45CHL1    C5 3264   4.197   3.741   7.065 -0.4399 -0.7722  0.8724
   45CHL1    C6 3265   4.091   3.786   7.129  0.6546 -0.1395  1.0078
   45CHL1    H6 3266   4.003   3.825   7.076  0.8248 -0.6024  0.3692
   45CHL1    C7 3267   4.083   3.816   7.277 -0.2418  0.1889 -0.1912
   45CHL1   H7A 3268   4.026   3.911   7.291  1.8985  1.2248  2.4740
   45CHL1   H7B 3269   4.016   3.745   7.330 -1.2201  0.0031 -1.6225
   45CHL1    C8 3270   4.228   3.825   7.343  0.7557  0.6904  0.4325
   45CHL1    H8 3271   4.275   3.917   7.302  0.0674  1.0905  0.5294
   45CHL1   C14 3272   4.220   3.830   7.492  0.5929 -0.1232 -0.0333
   45CHL1   H14 3273   4.181   3.733   7.531 -3.5562  2.0490  1.9028
   45CHL1   C15 3274   4.121   3.936   7.558  0.0096  0.2953 -0.0135
   45CHL1  H15A 3275   4.126   4.024   7.491 -0.5513  1.0462  0.8972
   45CHL1  H15B 3276   4.023   3.885   7.548  1.0421 -2.0143  0.7635
   45CHL1   C16 3277   4.176   3.951   7.703  0.3465 -0.0835 -0.4306
   45CHL1  H16A 3278   4.193   4.059   7.724  0.9314 -0.4546  1.0963
   45CHL1  H16B 3279   4.095   3.927   7.775 -1.7329  2.5300 -1.6999
   45CHL1   C17 3280   4.308   3.868   7.702  0.2704  0.0672 -0.8387
   45CHL1   H17 3281   4.279   3.767   7.736  0.1501  0.1126 -0.8061
   45CHL1   C13 3282   4.356   3.848   7.556 -0.4844  0.4749 -0.3877
   45CHL1   C18 3283   4.425   3.979   7.513  0.1092 -0.4436  0.1481
   45CHL1  H18A 3284   4.445   3.988   7.404 -1.1504  2.4765  0.0626
   45CHL1  H18B 3285   4.361   4.062   7.549 -0.7657 -0.1674 -1.9085
   45CHL1  H18C 3286   4.520   3.994   7.569  0.2638  1.0887 -0.4807
   45CHL1   C12 3287   4.437   3.720   7.530 -0.2834 -0.7198 -0.1239
   45CHL1  H12A 3288   4.542   3.728   7.565 -0.8112 -0.0305  1.3904
   45CHL1  H12B 3289   4.388   3.630   7.572 -1.0803 -0.2154  0.0517
   45CHL1   C11 3290   4.446   3.695   7.374 -0.6715 -0.4609 -1.1735
   45CHL1  H11A 3291   4.513   3.773   7.332  0.6435  0.0397  1.6163
   45CHL1  H11B 3292   4.485   3.594   7.348  0.2799 -0.2119 -0.7484
   45CHL1    C9 3293   4.313   3.712   7.294  0.4609 -0.2390  0.1161
   45CHL1    H9 3294   4.261   3.617   7.319 -1.4159  0.4940 -0.8019
   45CHL1   C10 3295   4.323   3.696   7.138  0.9498  0.3776 -0.2460
   45CHL1   C19 3296   4.437   3.794   7.086 -0.4919  0.2265 -0.0796
   45CHL1  H19A 3297   4.438   3.889   7.143 -1.0840 -0.7843  1.7079
   45CHL1  H19B 3298   4.538   3.754   7.109  0.0219  0.9058 -1.1105
   45CHL1  H19C 3299   4.422   3.816   6.978 -2.1267 -0.4191 -0.0258
   45CHL1    C1 3300   4.346   3.556   7.093 -0.0033 -0.2813 -0.0372
   45CHL1   H1A 3301   4.436   3.522   7.148 -0.2258  2.5074  2.2095
   45CHL1   H1B 3302   4.266   3.486   7.126  0.9610 -1.0179  0.7882
   45CHL1    C2 3303   4.362   3.537   6.940  0.3902 -0.4030 -0.3865
   45CHL1   H2A 3304   4.386   3.430   6.921  1.9651 -0.0083 -0.7418
   45CHL1   H2B 3305   4.448   3.594   6.899 -0.0663  1.5743  1.2117
   45CHL1   C20 3306   4.398   3.925   7.811  0.6496 -0.9124  0.9536
   45CHL1   H20 3307   4.435   4.026   7.785  0.0700 -1.0005 -0.2716
   45CHL1   C21 3308   4.521   3.830   7.828  0.6281  0.2225 -0.3087
   45CHL1  H21A 3309   4.598   3.852   7.751  0.9088  2.1131  0.4561
   45CHL1  H21B 3310   4.482   3.727   7.814  1.1686 -0.0149 -0.1009
   45CHL1  H21C 3311   4.573   3.832   7.926 -1.4923 -1.8278  0.9792
   45CHL1   C22 3312   4.330   3.940   7.947  0.1142 -0.0626  0.1607
   45CHL1  H22A 3313   4.416   3.970   8.011  1.2286  0.4596 -1.5173
   45CHL1  H22B 3314   4.252   4.020   7.940 -0.8063 -1.0873 -1.9809
   45CHL1   C23 3315   4.246   3.822   8.005  0.5408  0.4797 -1.0435
   45CHL1  H23A 3316   4.169   3.793   7.930  1.3453 -0.2574 -1.6047
   45CHL1  H23B 3317   4.303   3.729   8.024  0.1770  0.4411 -0.1169
   45CHL1   C24 3318   4.172   3.875   8.131 -0.2305  0.3373  0.3835
   45CHL1  H24A 3319   4.244   3.867   8.215 -1.5369  0.6238  1.5783
   45CHL1  H24B 3320   4.133   3.978   8.118 -0.7800  0.0556 -0.2934
   45CHL1   C25 3321   4.051   3.791   8.173 -0.5508  0.4241  0.2307
   45CHL1   H25 3322   4.086   3.687   8.153 -0.0795  1.0150 -2.4836
   45CHL1   C26 3323   4.015   3.818   8.322  0.4272  0.2344 -0.2547
   45CHL1  H26A 3324   3.972   3.921   8.328 -0.1792  0.0386 -0.9584
   45CHL1  H26B 3325   3.926   3.757   8.348  0.1501  1.6913  2.5820
   45CHL1  H26C 3326   4.106   3.816   8.385  3.1076  1.8506 -3.7155
   45CHL1   C27 3327   3.924   3.805   8.090 -0.2563  0.0527  0.6653
   45CHL1  H27A 3328   3.867   3.895   8.120 -1.0517 -0.6604  1.3662
   45CHL1  H27B 3329   3.944   3.805   7.981  2.1636  0.9270  1.0375
   45CHL1  H27C 3330   3.853   3.722   8.111 -0.2790  0.2630  1.4601
   46CHL1    C3 3331   2.017   5.445   7.071  0.6728  0.5502 -0.0422
   46CHL1    H3 3332   2.118   5.481   7.103  0.0268  2.8750 -0.4188
   46CHL1    O3 3333   1.976   5.483   6.938  0.1093 -0.8866  0.1639
   46CHL1   H3' 3334   1.901   5.428   6.915 -0.5965  0.2778 -0.4152
   46CHL1    C4 3335   2.007   5.291   7.086  0.3054 -0.0215 -0.3310
   46CHL1   H4A 3336   1.905   5.267   7.048  0.8842  0.5611 -2.3579
   46CHL1   H4B 3337   2.070   5.252   7.003 -0.6197 -1.1890 -0.5202
   46CHL1    C5 3338   2.042   5.239   7.227  0.3591  0.4024  0.0591
   46CHL1    C6 3339   2.143   5.150   7.247  0.0453  0.7403 -0.4128
   46CHL1    H6 3340   2.205   5.112   7.164  2.5822 -2.0812  2.5027
   46CHL1    C7 3341   2.194   5.107   7.384  0.6716  0.5166  0.3244
   46CHL1   H7A 3342   2.189   4.996   7.387 -1.8073  0.4871 -1.6964
   46CHL1   H7B 3343   2.297   5.139   7.409  2.7177 -4.3894 -0.6879
   46CHL1    C8 3344   2.101   5.145   7.498 -0.3707  0.3606 -0.1328
   46CHL1    H8 3345   2.016   5.073   7.495 -0.4047  0.4250 -2.6402
   46CHL1   C14 3346   2.178   5.129   7.627 -0.3716 -0.1988 -0.3751
   46CHL1   H14 3347   2.267   5.194   7.610  0.2806 -0.8647  0.4010
   46CHL1   C15 3348   2.243   4.997   7.663  0.2270 -0.0138  0.3542
   46CHL1  H15A 3349   2.185   4.910   7.625 -2.0316  1.0649  1.1514
   46CHL1  H15B 3350   2.347   4.994   7.623  0.2756  1.6423  0.2936
   46CHL1   C16 3351   2.257   4.995   7.813  0.2686 -0.4658 -0.3814
   46CHL1  H16A 3352   2.192   4.909   7.838 -0.4688  0.0297 -0.5642
   46CHL1  H16B 3353   2.359   4.996   7.855 -0.0753 -0.3083  0.4643
   46CHL1   C17 3354   2.200   5.135   7.863 -0.4185 -0.1722 -0.0360
   46CHL1   H17 3355   2.283   5.209   7.856 -1.2993  1.0236  1.5746
   46CHL1   C13 3356   2.097   5.171   7.751  0.3037  0.2307  0.2312
   46CHL1   C18 3357   1.972   5.078   7.761  0.9201 -0.0135 -0.4611
   46CHL1  H18A 3358   1.912   5.083   7.667 -0.3684 -0.5460  0.3013
   46CHL1  H18B 3359   1.999   4.973   7.785  3.6734  0.9813  1.1954
   46CHL1  H18C 3360   1.907   5.125   7.838  0.3076 -2.0364  0.3180
   46CHL1   C12 3361   2.061   5.321   7.735 -0.1915  0.2031  0.5477
   46CHL1  H12A 3362   1.997   5.376   7.807 -3.3918 -1.4506 -0.8332
   46CHL1  H12B 3363   2.159   5.374   7.737  0.6387 -1.2902  1.1729
   46CHL1   C11 3364   1.985   5.348   7.603 -0.5566 -0.0860  0.0046
   46CHL1  H11A 3365   1.884   5.304   7.619 -0.0705 -0.8818  0.9644
   46CHL1  H11B 3366   1.970   5.454   7.575  0.8235  0.0073 -0.4329
   46CHL1    C9 3367   2.049   5.287   7.477 -0.2416  0.5922 -0.2350
   46CHL1    H9 3368   2.140   5.349   7.466 -1.0897  1.8526 -0.2744
   46CHL1   C10 3369   1.973   5.311   7.346 -0.4233  0.4202  0.4889
   46CHL1   C19 3370   1.836   5.246   7.351 -0.0003 -0.0994  0.4901
   46CHL1  H19A 3371   1.840   5.143   7.392 -1.5210  0.7746  3.0758
   46CHL1  H19B 3372   1.780   5.301   7.430 -0.9074  1.1293 -0.9484
   46CHL1  H19C 3373   1.774   5.244   7.259 -3.9200 -3.0677  2.8773
   46CHL1    C1 3374   1.967   5.465   7.310  0.1144 -0.4688 -0.8343
   46CHL1   H1A 3375   1.895   5.506   7.384  1.3395 -2.8678  1.8803
   46CHL1   H1B 3376   2.066   5.512   7.329 -0.1244  0.3543 -1.5601
   46CHL1    C2 3377   1.918   5.505   7.170  0.9809 -0.1796  0.3024
   46CHL1   H2A 3378   1.901   5.614   7.153 -2.3135 -0.4396  1.2452
   46CHL1   H2B 3379   1.822   5.456   7.146  1.4918 -0.1415 -2.0383
   46CHL1   C20 3380   2.152   5.137   8.010  0.4727  0.4657  0.0865
   46CHL1   H20 3381   2.083   5.050   8.020  0.7201  0.4119  1.4497
   46CHL1   C21 3382   2.085   5.269   8.045 -0.4512 -0.3754  0.2632
   46CHL1  H21A 3383   2.076   5.271   8.155  0.1225  0.0281  0.3074
   46CHL1  H21B 3384   1.979   5.267   8.010 -0.0873  0.9080 -1.0444
   46CHL1  H21C 3385   2.139   5.361   8.015 -0.4384 -0.4853 -0.0559
   46CHL1   C22 3386   2.269   5.114   8.104 -0.6352 -0.2161 -0.7930
   46CHL1  H22A 3387   2.344   5.043   8.063 -1.5121 -2.8434  1.8473
   46CHL1  H22B 3388   2.318   5.213   8.115 -1.7637  0.1233  1.8681
   46CHL1   C23 3389   2.240   5.081   8.254 -0.0091  0.6799  0.2576
   46CHL1  H23A 3390   2.193   5.162   8.313 -2.7250 -1.6846  1.5860
   46CHL1  H23B 3391   2.166   4.998   8.247  0.9202 -0.6416  3.9252
   46CHL1   C24 3392   2.356   5.024   8.336  0.0816 -0.6035  0.0635
   46CHL1  H24A 3393   2.392   4.937   8.278 -1.0190  0.4092 -2.2538
   46CHL1  H24B 3394   2.434   5.103   8.328  0.1676 -0.6784  0.1690
   46CHL1   C25 3395   2.325   4.986   8.475  0.3204 -0.0192 -0.2106
   46CHL1   H25 3396   2.289   5.082   8.519 -3.0926 -2.4197  2.7565
   46CHL1   C26 3397   2.218   4.884   8.484  0.1028  0.2977  0.1655
   46CHL1  H26A 3398   2.261   4.791   8.442  0.2766  0.9752 -1.2051
   46CHL1  H26B 3399   2.198   4.862   8.591 -1.4586 -0.1093 -0.1945
   46CHL1  H26C 3400   2.122   4.910   8.435  1.2786  0.2315 -2.3008
   46CHL1   C27 3401   2.453   4.947   8.549 -0.0565  0.1247 -0.0098
   46CHL1  H27A 3402   2.501   4.865   8.492 -0.3391  0.2314 -0.4134
   46CHL1  H27B 3403   2.521   5.034   8.564 -0.4617  0.1449  2.0811
   46CHL1  H27C 3404   2.429   4.912   8.652  0.7341  0.3528  0.2599
   47CHL1    C3 3405   1.958   4.337   6.815 -0.5672  0.0668 -0.3119
   47CHL1    H3 3406   2.070   4.338   6.817 -0.4876  3.1606 -0.8451
   47CHL1    O3 3407   1.927   4.381   6.685 -0.1624  0.4428 -0.7781
   47CHL1   H3' 3408   1.891   4.302   6.645 -1.3814  0.2510  0.6010
   47CHL1    C4 3409   1.902   4.198   6.846  0.4108  0.5808 -0.1204
   47CHL1   H4A 3410   1.792   4.187   6.850  0.6393 -2.5120  2.2654
   47CHL1   H4B 3411   1.943   4.124   6.773  0.3743 -0.5199  0.9293
   47CHL1    C5 3412   1.936   4.162   6.989 -1.1853  0.4605 -0.0882
   47CHL1    C6 3413   2.004   4.047   7.016  0.2558 -0.2610 -1.1514
   47CHL1    H6 3414   2.002   3.977   6.931  0.2035  0.7297 -1.9865
   47CHL1    C7 3415   2.030   3.993   7.157 -0.3733  0.3556 -0.2519
   47CHL1   H7A 3416   1.997   3.887   7.166  2.4213 -0.4459  2.1011
   47CHL1   H7B 3417   2.140   3.987   7.167 -0.2629 -0.9314 -1.7394
   47CHL1    C8 3418   1.963   4.073   7.268  0.3264 -0.2277 -0.5784
   47CHL1    H8 3419   1.857   4.041   7.272  1.2032 -3.3355  2.2220
   47CHL1   C14 3420   2.029   4.044   7.403  0.1155  0.2028  0.5274
   47CHL1   H14 3421   2.126   4.095   7.383 -0.9784  2.6734  1.1546
   47CHL1   C15 3422   2.054   3.899   7.452 -0.4964 -0.6996  0.9943
   47CHL1  H15A 3423   1.964   3.840   7.428 -0.9298 -0.8515  2.8538
   47CHL1  H15B 3424   2.143   3.858   7.399 -1.2033 -1.3684  0.2940
   47CHL1   C16 3425   2.094   3.917   7.594 -0.6119  0.1294  0.4837
   47CHL1  H16A 3426   2.028   3.855   7.658  0.4108 -1.2758  0.2088
   47CHL1  H16B 3427   2.202   3.902   7.613 -0.4537  1.0064  0.3233
   47CHL1   C17 3428   2.063   4.069   7.640  0.2440  0.2564  0.4429
   47CHL1   H17 3429   2.159   4.124   7.630  0.9655 -0.8674  1.0006
   47CHL1   C13 3430   1.974   4.122   7.529  0.0878  0.9376 -0.6525
   47CHL1   C18 3431   1.834   4.063   7.546  0.2389  0.2014 -1.0150
   47CHL1  H18A 3432   1.830   3.953   7.562 -1.0601  0.3759  0.0513
   47CHL1  H18B 3433   1.800   4.108   7.642  1.2106  0.6202 -0.8579
   47CHL1  H18C 3434   1.770   4.102   7.464 -0.6096 -0.7173 -0.8034
   47CHL1   C12 3435   1.987   4.271   7.494 -0.0531  0.0010  0.2672
   47CHL1  H12A 3436   1.928   4.333   7.565  0.3955  1.2729 -0.4502
   47CHL1  H12B 3437   2.095   4.298   7.501 -0.3880  1.7289 -0.8228
   47CHL1   C11 3438   1.932   4.317   7.361 -0.1810 -0.5617  0.6656
   47CHL1  H11A 3439   1.821   4.313   7.366 -0.3066  0.8408 -0.3496
   47CHL1  H11B 3440   1.954   4.422   7.331 -1.7303 -0.9023 -2.0636
   47CHL1    C9 3441   1.977   4.227   7.241 -0.2690  1.0633  0.1305
   47CHL1    H9 3442   2.087   4.245   7.232 -0.2202  0.0372 -1.7667
   47CHL1   C10 3443   1.907   4.265   7.102  0.0156 -0.5517 -0.3637
   47CHL1   C19 3444   1.755   4.270   7.112 -0.5680  0.2575  0.2486
   47CHL1  H19A 3445   1.708   4.298   7.016 -2.3945  3.1368  1.8145
   47CHL1  H19B 3446   1.719   4.169   7.139 -0.9277  0.5574  0.9263
   47CHL1  H19C 3447   1.718   4.346   7.185 -1.3504  0.4490 -0.3392
   47CHL1    C1 3448   1.960   4.399   7.052 -0.9454  0.2214 -0.1009
   47CHL1   H1A 3449   1.921   4.481   7.116  1.1366  0.7886  0.5156
   47CHL1   H1B 3450   2.070   4.406   7.053 -0.9822  1.0088 -0.6388
   47CHL1    C2 3451   1.913   4.440   6.914 -0.1687 -0.0600 -0.3923
   47CHL1   H2A 3452   1.951   4.541   6.887 -0.7226  0.1222 -0.5139
   47CHL1   H2B 3453   1.802   4.447   6.902 -0.3861  0.1774  1.4721
   47CHL1   C20 3454   2.022   4.088   7.793  0.3619 -0.3759  0.6011
   47CHL1   H20 3455   1.918   4.050   7.803  1.6424 -4.5007  0.0915
   47CHL1   C21 3456   2.019   4.234   7.825 -0.0162 -1.1076  0.0901
   47CHL1  H21A 3457   2.120   4.279   7.839 -0.9184  0.4217  2.2709
   47CHL1  H21B 3458   1.953   4.262   7.910  0.9429  1.9700 -0.0690
   47CHL1  H21C 3459   1.976   4.299   7.745  3.0303 -0.0019 -0.7756
   47CHL1   C22 3460   2.111   4.009   7.895 -0.0479  0.7017  0.6652
   47CHL1  H22A 3461   2.138   3.907   7.861  1.7770  0.8299  1.5542
   47CHL1  H22B 3462   2.211   4.055   7.908  0.8645 -0.4709 -1.5935
   47CHL1   C23 3463   2.045   4.001   8.038  0.5713 -0.0143 -0.5166
   47CHL1  H23A 3464   2.018   4.102   8.075 -0.4648 -1.2863  2.5009
   47CHL1  H23B 3465   1.956   3.935   8.033  0.6859 -0.0729 -2.3442
   47CHL1   C24 3466   2.129   3.920   8.135 -0.2023  0.3234 -0.0842
   47CHL1  H24A 3467   2.145   3.818   8.094  0.0250 -0.7209  2.4011
   47CHL1  H24B 3468   2.232   3.962   8.143  0.5208 -1.2836 -0.5474
   47CHL1   C25 3469   2.047   3.907   8.271 -0.9699 -0.0392 -0.1102
   47CHL1   H25 3470   1.942   3.880   8.245 -1.0768 -1.3988  1.5653
   47CHL1   C26 3471   2.105   3.792   8.358 -0.5908 -0.7484  0.2040
   47CHL1  H26A 3472   2.214   3.784   8.339 -0.3143 -1.0769  1.7863
   47CHL1  H26B 3473   2.077   3.803   8.466  0.5236  3.7074  0.2431
   47CHL1  H26C 3474   2.064   3.696   8.320 -1.3178 -0.7825  1.0417
   47CHL1   C27 3475   2.065   4.044   8.346  0.5235  0.1250  0.9067
   47CHL1  H27A 3476   2.000   4.122   8.301 -1.6528 -0.7062  2.4689
   47CHL1  H27B 3477   2.048   4.038   8.456 -2.1032  0.6168  0.5912
   47CHL1  H27C 3478   2.172   4.076   8.337  0.2773  0.8626  0.4821
   48CHL1    C3 3479   0.482   3.887   6.843 -0.7712 -0.0164  0.2821
   48CHL1    H3 3480   0.401   3.937   6.900 -0.3535 -0.6360  1.4559
   48CHL1    O3 3481   0.470   3.921   6.702 -0.2183 -0.1945 -0.4090
   48CHL1   H3' 3482   0.560   3.905   6.672  1.3782  1.7384  2.7989
   48CHL1    C4 3483   0.619   3.919   6.904 -0.3207 -0.0838 -0.0699
   48CHL1   H4A 3484   0.695   3.857   6.852 -2.0377 -1.2609 -1.2587
   48CHL1   H4B 3485   0.636   4.027   6.881  0.5719 -0.4284 -1.1282
   48CHL1    C5 3486   0.621   3.900   7.051  0.1809  0.0254 -1.1357
   48CHL1    C6 3487   0.625   4.002   7.135  0.2387  0.3810  0.2294
   48CHL1    H6 3488   0.639   4.107   7.105 -1.4697 -0.2327 -3.0970
   48CHL1    C7 3489   0.619   3.985   7.286  0.1290  0.3268  0.4309
   48CHL1   H7A 3490   0.705   4.039   7.331  1.2629 -1.8998  1.0863
   48CHL1   H7B 3491   0.527   4.029   7.329  0.1905  1.1298 -0.2321
   48CHL1    C8 3492   0.629   3.837   7.342 -0.0981 -0.4502 -0.1879
   48CHL1    H8 3493   0.736   3.812   7.330  0.6425  1.7839  1.2916
   48CHL1   C14 3494   0.592   3.816   7.488 -0.4727  0.2346  0.9538
   48CHL1   H14 3495   0.484   3.839   7.496 -0.0961  2.5152  0.0717
   48CHL1   C15 3496   0.662   3.905   7.592  0.4107  0.0263  0.5785
   48CHL1  H15A 3497   0.767   3.922   7.561 -0.0393 -0.7861 -1.5197
   48CHL1  H15B 3498   0.607   4.002   7.595 -0.5007 -0.4275 -0.8983
   48CHL1   C16 3499   0.658   3.821   7.720 -0.4123  0.6854 -0.2248
   48CHL1  H16A 3500   0.759   3.805   7.763 -0.5540 -1.4531 -0.6056
   48CHL1  H16B 3501   0.601   3.881   7.794  0.3754 -0.6526  1.5432
   48CHL1   C17 3502   0.588   3.686   7.692 -0.5463  0.2023 -0.8330
   48CHL1   H17 3503   0.482   3.699   7.724  0.1398  1.4457  1.1576
   48CHL1   C13 3504   0.612   3.671   7.535  0.3459 -0.1453  0.2459
   48CHL1   C18 3505   0.754   3.608   7.513 -0.0847  0.1713  0.0633
   48CHL1  H18A 3506   0.779   3.590   7.406 -2.3006 -0.0296 -0.4620
   48CHL1  H18B 3507   0.833   3.675   7.554 -0.6813 -0.2625  2.0088
   48CHL1  H18C 3508   0.767   3.510   7.563  1.0341 -1.3400 -2.9169
   48CHL1   C12 3509   0.513   3.582   7.464 -0.5779 -0.4859  1.1181
   48CHL1  H12A 3510   0.524   3.476   7.492 -0.5561 -0.4546  1.2272
   48CHL1  H12B 3511   0.405   3.591   7.486 -0.4670  0.4906  1.3261
   48CHL1   C11 3512   0.544   3.594   7.309  0.4805  0.1447  0.3636
   48CHL1  H11A 3513   0.641   3.548   7.281 -0.7566 -1.7595 -1.0646
   48CHL1  H11B 3514   0.470   3.539   7.248  0.8951  0.6082 -0.5731
   48CHL1    C9 3515   0.551   3.744   7.253  0.0979  0.6455  0.1250
   48CHL1    H9 3516   0.442   3.764   7.256 -0.5408 -2.2567 -0.2023
   48CHL1   C10 3517   0.593   3.752   7.097  0.1206  0.3510  0.3185
   48CHL1   C19 3518   0.712   3.666   7.069  0.1481  0.5460  0.5327
   48CHL1  H19A 3519   0.758   3.679   6.969  0.5126  1.7115  0.8289
   48CHL1  H19B 3520   0.799   3.690   7.134  0.7731 -0.4284  0.0671
   48CHL1  H19C 3521   0.689   3.559   7.087 -0.0872  0.4358 -0.3749
   48CHL1    C1 3522   0.463   3.699   7.016 -0.5234 -0.1913 -0.3922
   48CHL1   H1A 3523   0.456   3.588   7.015  0.6540 -0.3247 -3.2924
   48CHL1   H1B 3524   0.377   3.746   7.067 -0.0106 -0.4259  0.7186
   48CHL1    C2 3525   0.463   3.733   6.866 -0.1513 -0.0617 -0.2163
   48CHL1   H2A 3526   0.360   3.700   6.839 -0.0430 -1.7524  1.2823
   48CHL1   H2B 3527   0.538   3.679   6.805 -1.4882 -0.3012 -1.7160
   48CHL1   C20 3528   0.640   3.578   7.790  0.1549 -0.2390 -0.3264
   48CHL1   H20 3529   0.748   3.557   7.771  1.2501  3.9355  0.2816
   48CHL1   C21 3530   0.558   3.443   7.760  0.3500  0.8128  0.0462
   48CHL1  H21A 3531   0.590   3.361   7.828 -0.1055 -0.1311 -0.8514
   48CHL1  H21B 3532   0.587   3.409   7.659  0.5209 -1.1310  0.7029
   48CHL1  H21C 3533   0.449   3.468   7.763  0.3539  0.9375 -0.8030
   48CHL1   C22 3534   0.608   3.620   7.941  0.7262  0.5776 -0.5729
   48CHL1  H22A 3535   0.657   3.718   7.958  1.1786  0.0914  1.1034
   48CHL1  H22B 3536   0.500   3.642   7.953  0.2104 -2.6162  2.0917
   48CHL1   C23 3537   0.641   3.512   8.048  0.0117  0.6056 -0.1320
   48CHL1  H23A 3538   0.607   3.409   8.024  0.3109  0.1033  1.4537
   48CHL1  H23B 3539   0.752   3.509   8.047  0.0378  1.2977 -0.2887
   48CHL1   C24 3540   0.577   3.542   8.185  0.3470  0.4571 -0.1056
   48CHL1  H24A 3541   0.599   3.647   8.211  0.5968  0.6584 -1.1005
   48CHL1  H24B 3542   0.468   3.549   8.165  0.5457  2.9016 -0.6276
   48CHL1   C25 3543   0.613   3.450   8.308 -0.4899  0.0018 -0.4026
   48CHL1   H25 3544   0.544   3.472   8.392  1.9695 -0.9374  1.9951
   48CHL1   C26 3545   0.592   3.299   8.273 -0.2947 -0.0927  0.3759
   48CHL1  H26A 3546   0.645   3.276   8.179  1.5436  1.8263  0.8828
   48CHL1  H26B 3547   0.647   3.230   8.341 -1.2446  0.6410  1.9425
   48CHL1  H26C 3548   0.485   3.268   8.281 -0.1534 -1.1956 -1.4225
   48CHL1   C27 3549   0.754   3.476   8.356  0.4277 -0.0988  0.0002
   48CHL1  H27A 3550   0.825   3.443   8.277  2.0533 -0.4717  1.5298
   48CHL1  H27B 3551   0.763   3.586   8.366 -1.5937  0.0858  0.0638
   48CHL1  H27C 3552   0.776   3.429   8.455 -1.9735  0.2882  0.7883
   49CHL1    C3 3553   6.049   3.531   6.731 -0.3459 -0.2340 -0.5085
   49CHL1    H3 3554   6.011   3.635   6.740 -2.6648 -1.1870  2.2676
   49CHL1    O3 3555   6.061   3.497   6.594  0.0120  0.4167 -0.1299
   49CHL1   H3' 3556   6.062   3.401   6.588 -0.9774  0.2230  1.8549
   49CHL1    C4 3557   6.186   3.509   6.803  0.2532  0.1315  0.0469
   49CHL1   H4A 3558   6.220   3.404   6.788  0.7280  0.2688  0.1388
   49CHL1   H4B 3559   6.261   3.564   6.743 -0.6249 -1.0071 -2.2205
   49CHL1    C5 3560   6.167   3.540   6.953 -0.5752 -0.6064  1.0270
   49CHL1    C6 3561   6.243   3.630   7.012 -0.6420 -1.4563 -0.4516
   49CHL1    H6 3562   6.325   3.672   6.951 -1.1714 -2.8115 -2.1700
   49CHL1    C7 3563   6.256   3.660   7.156 -0.4605  0.0798  0.2151
   49CHL1   H7A 3564   6.363   3.670   7.182 -1.0928  0.4043  3.0544
   49CHL1   H7B 3565   6.206   3.757   7.176  0.0295 -0.1145  2.7654
   49CHL1    C8 3566   6.175   3.551   7.231  0.7891  0.2491 -0.1070
   49CHL1    H8 3567   6.244   3.464   7.234  0.6907  0.0367 -2.1470
   49CHL1   C14 3568   6.144   3.602   7.366 -0.1887 -0.2807 -0.2688
   49CHL1   H14 3569   6.087   3.698   7.357 -0.1301  0.0293  2.0181
   49CHL1   C15 3570   6.269   3.655   7.445  0.1967  0.1959  0.1148
   49CHL1  H15A 3571   6.359   3.597   7.414  1.4291  1.7940  0.6190
   49CHL1  H15B 3572   6.287   3.758   7.407  0.9766  0.0644  0.0994
   49CHL1   C16 3573   6.234   3.648   7.592 -0.4280  0.3229 -0.9793
   49CHL1  H16A 3574   6.311   3.587   7.643  0.4278  3.2921  1.5975
   49CHL1  H16B 3575   6.241   3.752   7.631  2.6461 -0.5268  1.0455
   49CHL1   C17 3576   6.089   3.588   7.599 -0.1355  0.3564 -0.1569
   49CHL1   H17 3577   6.020   3.672   7.579  1.7040  2.1308  0.6055
   49CHL1   C13 3578   6.069   3.503   7.468  0.4831 -0.0467 -0.4441
   49CHL1   C18 3579   6.159   3.368   7.484  0.1766 -0.7315  0.5694
   49CHL1  H18A 3580   6.142   3.309   7.392  0.3779 -2.2861  1.4879
   49CHL1  H18B 3581   6.265   3.390   7.508  0.3439 -1.2704  0.3365
   49CHL1  H18C 3582   6.102   3.318   7.566 -0.3804  1.5002  1.6481
   49CHL1   C12 3583   5.930   3.479   7.408  0.4722 -0.2358  0.5317
   49CHL1  H12A 3584   5.867   3.414   7.474 -2.2579  1.3861 -0.3104
   49CHL1  H12B 3585   5.880   3.577   7.418  0.3919 -0.3620  1.4409
   49CHL1   C11 3586   5.941   3.431   7.265 -0.4585  0.1430  0.9107
   49CHL1  H11A 3587   5.963   3.322   7.268  0.7590  0.2996 -0.6175
   49CHL1  H11B 3588   5.844   3.441   7.212 -0.2053  1.7279  0.7032
   49CHL1    C9 3589   6.037   3.510   7.173  0.0680  0.0612 -0.5384
   49CHL1    H9 3590   5.986   3.607   7.157 -1.3313 -0.8513 -1.8627
   49CHL1   C10 3591   6.062   3.461   7.023  0.3472  0.8259 -0.3229
   49CHL1   C19 3592   6.094   3.306   7.031 -0.7274  0.1194 -0.0442
   49CHL1  H19A 3593   6.183   3.302   7.098 -0.6276  0.3482 -0.1607
   49CHL1  H19B 3594   6.001   3.260   7.070 -1.1479  0.1186 -1.0119
   49CHL1  H19C 3595   6.120   3.258   6.934 -0.9251 -0.8489  0.3772
   49CHL1    C1 3596   5.928   3.485   6.945 -0.1717 -0.1342 -0.5014
   49CHL1   H1A 3597   5.849   3.417   6.984 -1.1127  0.8163 -0.7277
   49CHL1   H1B 3598   5.885   3.587   6.953  0.0944  0.0458 -1.2639
   49CHL1    C2 3599   5.936   3.443   6.793  0.1928  0.6123  0.2059
   49CHL1   H2A 3600   5.836   3.452   6.745 -0.0100 -1.3139  0.1797
   49CHL1   H2B 3601   5.962   3.337   6.775 -0.1590  0.1883  2.0160
   49CHL1   C20 3602   6.045   3.536   7.744 -0.2661  0.6002  0.2810
   49CHL1   H20 3603   6.126   3.464   7.769 -1.0506 -1.0793 -1.7019
   49CHL1   C21 3604   5.911   3.472   7.741  0.8191  0.3396  0.8136
   49CHL1  H21A 3605   5.927   3.373   7.693  0.1582  0.0161  1.2462
   49CHL1  H21B 3606   5.850   3.536   7.674  3.8447  2.8290  0.2257
   49CHL1  H21C 3607   5.859   3.457   7.838 -0.8196  1.9414  0.2407
   49CHL1   C22 3608   6.056   3.643   7.855 -0.4863 -0.1555 -0.0755
   49CHL1  H22A 3609   6.156   3.692   7.851 -0.2098 -0.5556  1.3346
   49CHL1  H22B 3610   5.978   3.721   7.847  0.7344  1.5314  2.8780
   49CHL1   C23 3611   6.047   3.594   7.995 -0.0014  0.8442 -0.4477
   49CHL1  H23A 3612   5.967   3.517   8.000  0.8320 -0.0083  0.0101
   49CHL1  H23B 3613   6.138   3.539   8.025  0.4492  0.9720 -1.5392
   49CHL1   C24 3614   6.026   3.708   8.104 -0.5933  0.7183  0.0970
   49CHL1  H24A 3615   6.122   3.760   8.122 -0.5412  0.4101  0.7573
   49CHL1  H24B 3616   5.940   3.768   8.068 -2.0162 -2.3610 -2.1067
   49CHL1   C25 3617   5.992   3.657   8.246 -0.2522 -0.6738 -0.3112
   49CHL1   H25 3618   6.061   3.575   8.277  1.6285  1.3940  1.3400
   49CHL1   C26 3619   6.020   3.771   8.355 -0.4464  0.2368  0.3021
   49CHL1  H26A 3620   5.947   3.847   8.320 -0.1319 -0.0969 -1.1389
   49CHL1  H26B 3621   6.013   3.731   8.459  0.1817  0.9551  0.6319
   49CHL1  H26C 3622   6.122   3.811   8.340 -0.6718  0.2149 -1.5163
   49CHL1   C27 3623   5.853   3.611   8.263 -0.4004  0.3311 -0.3972
   49CHL1  H27A 3624   5.839   3.576   8.368  0.3104  0.7025 -0.1698
   49CHL1  H27B 3625   5.777   3.689   8.239  0.6493  1.5970  0.2302
   49CHL1  H27C 3626   5.839   3.524   8.196  2.1329  0.9340 -1.8614
   50CHL1    C3 3627   3.901   3.233   7.087 -0.7368 -0.7592  0.2065
   50CHL1    H3 3628   3.825   3.314   7.081 -1.1603 -1.1797 -0.1743
   50CHL1    O3 3629   3.940   3.220   6.954  0.0843  0.2911 -0.9297
   50CHL1   H3' 3630   4.008   3.153   6.954 -1.2267 -1.1357  0.2822
   50CHL1    C4 3631   4.026   3.278   7.173  0.2448 -0.0785  0.0092
   50CHL1   H4A 3632   4.112   3.215   7.141  1.0666  2.1913 -2.7251
   50CHL1   H4B 3633   4.048   3.384   7.146 -2.7895  1.0095  1.3645
   50CHL1    C5 3634   3.998   3.279   7.323 -0.0161  0.5478 -0.0705
   50CHL1    C6 3635   4.021   3.391   7.399  0.1172  0.3929 -0.2427
   50CHL1    H6 3636   4.072   3.477   7.353  2.1977  0.0585  1.2949
   50CHL1    C7 3637   4.001   3.395   7.546 -0.0752  0.1102  0.1199
   50CHL1   H7A 3638   4.091   3.438   7.595 -0.9498  0.6962  1.2602
   50CHL1   H7B 3639   3.916   3.459   7.576 -0.7205 -1.1282  1.0065
   50CHL1    C8 3640   3.983   3.264   7.614 -0.0503  0.6166  0.3904
   50CHL1    H8 3641   4.076   3.204   7.612  0.0154  0.7369 -0.6577
   50CHL1   C14 3642   3.942   3.289   7.757 -0.1316  0.1363  0.9509
   50CHL1   H14 3643   3.852   3.355   7.749 -0.2185 -0.1103 -0.1286
   50CHL1   C15 3644   4.033   3.378   7.844 -0.6498 -0.0764  0.1563
   50CHL1  H15A 3645   4.138   3.340   7.838 -0.5154  0.3336 -0.1810
   50CHL1  H15B 3646   4.028   3.485   7.814  0.3104 -0.1879 -0.4399
   50CHL1   C16 3647   3.984   3.355   7.989 -0.0789  0.3785 -0.0822
   50CHL1  H16A 3648   4.079   3.342   8.046 -0.3924 -0.1384  0.3338
   50CHL1  H16B 3649   3.923   3.436   8.033 -2.5166 -0.8726 -0.9733
   50CHL1   C17 3650   3.895   3.223   7.977  0.2572  0.3459 -0.3572
   50CHL1   H17 3651   3.788   3.251   7.979 -0.0537 -0.8547  0.6170
   50CHL1   C13 3652   3.917   3.162   7.838  0.5207  0.3546  0.0297
   50CHL1   C18 3653   4.050   3.082   7.843  0.5950  0.4069  0.3314
   50CHL1  H18A 3654   4.031   2.979   7.881 -1.5049  0.5035 -0.3619
   50CHL1  H18B 3655   4.083   3.061   7.739  2.2847 -0.2575  0.9534
   50CHL1  H18C 3656   4.130   3.132   7.902 -0.4774 -0.1182  2.3416
   50CHL1   C12 3657   3.804   3.092   7.772  0.2373  0.5404 -0.3981
   50CHL1  H12A 3658   3.770   3.004   7.831 -1.2591  1.2658 -0.1535
   50CHL1  H12B 3659   3.727   3.171   7.769  0.6204  0.9318 -0.1500
   50CHL1   C11 3660   3.825   3.061   7.619  0.1860 -0.0638 -0.6266
   50CHL1  H11A 3661   3.911   2.990   7.617  1.0762  0.9214  1.0101
   50CHL1  H11B 3662   3.743   3.012   7.562  1.2890 -0.7992 -1.6298
   50CHL1    C9 3663   3.879   3.183   7.531  0.8887  0.4243 -0.8621
   50CHL1    H9 3664   3.794   3.253   7.521  0.3579 -0.2916 -1.4907
   50CHL1   C10 3665   3.926   3.155   7.383  0.2684 -0.0175 -0.1523
   50CHL1   C19 3666   4.036   3.040   7.381  0.7875  0.3074 -0.0667
   50CHL1  H19A 3667   4.007   2.951   7.440  0.8581 -0.5513 -1.2874
   50CHL1  H19B 3668   4.071   3.017   7.278 -2.7154  1.2053 -1.6036
   50CHL1  H19C 3669   4.119   3.068   7.449 -0.1737  0.1830  1.2020
   50CHL1    C1 3670   3.801   3.124   7.293 -0.6399  0.1591 -0.5150
   50CHL1   H1A 3671   3.754   3.037   7.345 -0.6916  1.5393  1.8664
   50CHL1   H1B 3672   3.736   3.214   7.295 -0.0227  0.6124  2.1315
   50CHL1    C2 3673   3.836   3.102   7.146 -0.2248 -0.0544 -0.3483
   50CHL1   H2A 3674   3.749   3.075   7.082 -0.0630 -1.7561  0.0975
   50CHL1   H2B 3675   3.900   3.012   7.138 -1.2478 -0.7957 -0.3645
   50CHL1   C20 3676   3.918   3.138   8.102 -0.0991  0.0640  0.3176
   50CHL1   H20 3677   4.023   3.101   8.097  0.0669  0.5906 -0.1988
   50CHL1   C21 3678   3.815   3.023   8.103 -0.3952  0.1192 -0.1200
   50CHL1  H21A 3679   3.713   3.068   8.106 -0.0457  1.1077 -2.0088
   50CHL1  H21B 3680   3.829   2.952   8.187 -0.2559 -0.9467 -1.0196
   50CHL1  H21C 3681   3.822   2.963   8.010 -0.6052  2.7056 -1.9010
   50CHL1   C22 3682   3.908   3.210   8.238 -0.7701 -0.2631 -0.4519
   50CHL1  H22A 3683   3.981   3.294   8.238 -0.3585 -0.6129  0.4860
   50CHL1  H22B 3684   3.806   3.255   8.239 -0.2786  1.3575 -4.3176
   50CHL1   C23 3685   3.915   3.125   8.374 -0.2169 -0.0571  0.3933
   50CHL1  H23A 3686   3.898   3.197   8.456 -0.4921 -0.9069  1.0927
   50CHL1  H23B 3687   3.842   3.041   8.370  2.9024 -2.9650 -0.7995
   50CHL1   C24 3688   4.051   3.058   8.394 -0.0806 -0.5508  0.0286
   50CHL1  H24A 3689   4.078   2.998   8.304  0.8486 -0.0115 -0.0736
   50CHL1  H24B 3690   4.130   3.136   8.404 -1.4493  0.7412  1.1317
   50CHL1   C25 3691   4.053   2.963   8.515 -0.3124  0.4916  0.2501
   50CHL1   H25 3692   3.951   2.923   8.534  0.6299 -2.2730 -0.0210
   50CHL1   C26 3693   4.136   2.843   8.494  0.1826 -0.1915  0.2848
   50CHL1  H26A 3694   4.146   2.771   8.578  0.5613 -1.8191 -1.1067
   50CHL1  H26B 3695   4.097   2.785   8.408  1.9651 -1.7268  0.4523
   50CHL1  H26C 3696   4.242   2.865   8.467  0.2052 -0.2273  0.3423
   50CHL1   C27 3697   4.099   3.039   8.640  0.7714  1.1950  0.1525
   50CHL1  H27A 3698   4.038   3.132   8.640 -0.4810  0.3956 -0.4656
   50CHL1  H27B 3699   4.067   2.982   8.729 -4.0917  2.6933 -0.3244
   50CHL1  H27C 3700   4.209   3.052   8.647  1.2511 -1.8709 -0.4551
   51CHL1    C3 3701   5.303   4.085   7.004 -0.0912 -0.8362 -0.0877
   51CHL1    H3 3702   5.346   3.982   7.007  1.9778 -0.0964 -1.8903
   51CHL1    O3 3703   5.268   4.121   6.870 -0.0114  0.2335  0.6034
   51CHL1   H3' 3704   5.335   4.179   6.831 -1.4539  0.7413 -1.2383
   51CHL1    C4 3705   5.174   4.087   7.091 -0.6456 -0.3303  0.0055
   51CHL1   H4A 3706   5.127   4.185   7.068  0.3285 -0.0411 -0.8159
   51CHL1   H4B 3707   5.104   4.012   7.048 -0.7698 -2.1233  3.0152
   51CHL1    C5 3708   5.208   4.068   7.235  0.1685 -0.8445 -0.3156
   51CHL1    C6 3709   5.157   3.964   7.303 -0.7924 -0.4844  0.2178
   51CHL1    H6 3710   5.083   3.891   7.267  0.9392 -2.4228  0.3458
   51CHL1    C7 3711   5.187   3.947   7.450  0.1757 -0.0222  0.7283
   51CHL1   H7A 3712   5.089   3.930   7.498  0.3508 -3.5131  0.0717
   51CHL1   H7B 3713   5.247   3.856   7.470  0.3246  0.4053  2.4456
   51CHL1    C8 3714   5.252   4.067   7.522 -0.2117  0.2945  0.6510
   51CHL1    H8 3715   5.178   4.149   7.526  1.3327  1.8230 -0.7592
   51CHL1   C14 3716   5.305   4.031   7.661 -0.5324  0.4225 -0.4489
   51CHL1   H14 3717   5.388   3.958   7.650 -0.3361  0.2426  1.8078
   51CHL1   C15 3718   5.210   3.947   7.750  0.6394 -0.0862  0.1275
   51CHL1  H15A 3719   5.107   3.986   7.740  0.2063 -0.8976  1.2146
   51CHL1  H15B 3720   5.213   3.837   7.731  0.3989  0.1978 -1.7928
   51CHL1   C16 3721   5.270   3.988   7.892  1.0578  0.1870 -0.7204
   51CHL1  H16A 3722   5.184   4.029   7.949 -0.5524  0.5289 -3.2431
   51CHL1  H16B 3723   5.308   3.895   7.940 -2.2218 -1.1116 -0.4066
   51CHL1   C17 3724   5.388   4.081   7.870 -0.0993 -0.0072 -0.4330
   51CHL1   H17 3725   5.479   4.017   7.870 -0.4897 -0.6002  0.7406
   51CHL1   C13 3726   5.361   4.151   7.739 -0.3007 -0.0692  0.2501
   51CHL1   C18 3727   5.258   4.264   7.755  0.1951 -0.6290 -0.7151
   51CHL1  H18A 3728   5.201   4.283   7.661 -4.2484 -1.4353  1.5610
   51CHL1  H18B 3729   5.179   4.231   7.826 -0.1416  1.6627  0.0755
   51CHL1  H18C 3730   5.312   4.347   7.805 -1.4781 -0.4584  0.9315
   51CHL1   C12 3731   5.477   4.199   7.657 -0.6455  0.2895 -1.1984
   51CHL1  H12A 3732   5.519   4.296   7.690 -0.0532 -0.0128 -1.0592
   51CHL1  H12B 3733   5.566   4.135   7.671 -2.0062 -1.6984 -1.1709
   51CHL1   C11 3734   5.448   4.227   7.505  0.2090 -0.7814 -0.1776
   51CHL1  H11A 3735   5.395   4.325   7.506 -0.8844 -1.3300  1.7587
   51CHL1  H11B 3736   5.540   4.233   7.444  0.6467 -0.5178  0.4930
   51CHL1    C9 3737   5.366   4.113   7.429  0.0004  0.1133 -0.2261
   51CHL1    H9 3738   5.438   4.030   7.416  0.2870  0.1577  0.9306
   51CHL1   C10 3739   5.324   4.150   7.284 -0.0927  0.1991 -0.2136
   51CHL1   C19 3740   5.272   4.297   7.286  0.7623 -0.0766 -0.1333
   51CHL1  H19A 3741   5.355   4.371   7.289  0.7027  0.0011 -0.4463
   51CHL1  H19B 3742   5.208   4.317   7.198 -1.5086 -2.9296  0.7130
   51CHL1  H19C 3743   5.207   4.319   7.373  3.5121 -0.8544  2.3118
   51CHL1    C1 3744   5.449   4.144   7.190 -0.7387  0.0601 -0.4776
   51CHL1   H1A 3745   5.519   4.221   7.228 -1.5740  0.5344  0.1158
   51CHL1   H1B 3746   5.489   4.040   7.198 -0.4398  0.2577  0.8672
   51CHL1    C2 3747   5.414   4.175   7.049  0.3560 -0.4866  0.0437
   51CHL1   H2A 3748   5.497   4.162   6.977 -0.5595 -1.2520 -0.9019
   51CHL1   H2B 3749   5.370   4.277   7.044 -0.8832 -0.8943  1.6023
   51CHL1   C20 3750   5.416   4.177   7.992 -0.6207  0.6429 -0.7463
   51CHL1   H20 3751   5.342   4.260   7.999 -1.8460  0.1294 -4.8545
   51CHL1   C21 3752   5.560   4.234   7.984  0.2708 -0.2536 -0.1355
   51CHL1  H21A 3753   5.587   4.305   8.065  0.8560  0.6655 -1.1036
   51CHL1  H21B 3754   5.561   4.303   7.897 -0.1357  2.5131  1.9072
   51CHL1  H21C 3755   5.623   4.143   7.978  0.5652 -0.0011 -0.9340
   51CHL1   C22 3756   5.404   4.114   8.140 -0.4955 -0.2854  0.1309
   51CHL1  H22A 3757   5.317   4.045   8.148  0.7846 -1.9050  0.4842
   51CHL1  H22B 3758   5.501   4.062   8.152  0.4295  1.0877 -0.9746
   51CHL1   C23 3759   5.383   4.219   8.248  0.1856  0.0412 -0.1294
   51CHL1  H23A 3760   5.450   4.308   8.243  0.8656 -0.5463 -2.5666
   51CHL1  H23B 3761   5.283   4.263   8.227 -0.9698 -0.3295  3.6854
   51CHL1   C24 3762   5.375   4.146   8.382 -0.0659 -0.5342 -0.0553
   51CHL1  H24A 3763   5.335   4.229   8.445  0.3970 -0.7967  0.5983
   51CHL1  H24B 3764   5.299   4.065   8.381  1.4255 -1.9904 -0.0852
   51CHL1   C25 3765   5.509   4.092   8.431  0.0876 -0.4263 -0.1618
   51CHL1   H25 3766   5.520   3.990   8.388  0.4139 -0.3752 -0.2002
   51CHL1   C26 3767   5.633   4.170   8.392 -0.7259 -0.6239 -0.6088
   51CHL1  H26A 3768   5.657   4.136   8.289  0.6492  0.6198 -0.7263
   51CHL1  H26B 3769   5.630   4.281   8.394  1.1059 -0.4758  2.9113
   51CHL1  H26C 3770   5.713   4.134   8.461 -1.2644 -0.9305 -0.1296
   51CHL1   C27 3771   5.515   4.073   8.582 -0.6166  0.1088  1.0127
   51CHL1  H27A 3772   5.617   4.037   8.605  0.7542  2.4726 -0.8865
   51CHL1  H27B 3773   5.499   4.174   8.627 -0.6521  1.4894 -1.9198
   51CHL1  H27C 3774   5.436   4.000   8.609 -0.5967 -0.2492  0.1096
   52CHL1    C3 3775   5.466   4.570   6.892 -0.0631  0.4877 -0.2368
   52CHL1    H3 3776   5.413   4.482   6.936  2.3580 -0.6842  0.4763
   52CHL1    O3 3777   5.431   4.577   6.756  0.1489  0.6380 -0.1555
   52CHL1   H3' 3778   5.503   4.630   6.720  1.2574  0.2583  1.3735
   52CHL1    C4 3779   5.443   4.700   6.963 -0.3541  0.1420 -0.0259
   52CHL1   H4A 3780   5.512   4.775   6.920 -0.3568  0.2490  0.1550
   52CHL1   H4B 3781   5.342   4.744   6.951  0.1002  0.8481 -1.5924
   52CHL1    C5 3782   5.466   4.684   7.113 -0.2816 -0.0183 -0.8836
   52CHL1    C6 3783   5.375   4.694   7.218  0.0389  0.1358 -0.2652
   52CHL1    H6 3784   5.272   4.731   7.209  0.1878  1.6537  2.9402
   52CHL1    C7 3785   5.396   4.667   7.365 -0.1270  0.0458  0.4042
   52CHL1   H7A 3786   5.349   4.753   7.417  0.2663 -0.1248  1.0490
   52CHL1   H7B 3787   5.354   4.570   7.398 -0.0712 -0.1816 -0.1768
   52CHL1    C8 3788   5.544   4.656   7.398 -0.2254 -0.3934 -0.3954
   52CHL1    H8 3789   5.589   4.758   7.392  1.6080 -1.1874 -0.7287
   52CHL1   C14 3790   5.553   4.594   7.535  0.2731  0.3280 -0.5932
   52CHL1   H14 3791   5.514   4.491   7.525  0.8873  0.1646 -1.3700
   52CHL1   C15 3792   5.479   4.663   7.653 -0.6645  0.6018  0.4021
   52CHL1  H15A 3793   5.500   4.771   7.635 -1.1132  0.1371 -4.3121
   52CHL1  H15B 3794   5.370   4.642   7.644 -0.1178 -1.9341 -1.5947
   52CHL1   C16 3795   5.546   4.610   7.777 -0.3356  0.4088  0.0942
   52CHL1  H16A 3796   5.582   4.697   7.835  0.9803  1.0761 -1.6229
   52CHL1  H16B 3797   5.491   4.523   7.819 -0.0475 -0.0587 -0.4770
   52CHL1   C17 3798   5.683   4.548   7.734 -0.5785 -0.5640  0.3395
   52CHL1   H17 3799   5.673   4.437   7.736 -0.4796 -0.5764  2.3876
   52CHL1   C13 3800   5.699   4.584   7.583  0.0915 -0.0840 -0.0908
   52CHL1   C18 3801   5.778   4.718   7.582  0.4675 -0.0970 -0.2539
   52CHL1  H18A 3802   5.753   4.782   7.669 -0.8376 -3.4253  2.0510
   52CHL1  H18B 3803   5.886   4.692   7.589  0.6902  1.1731  2.3698
   52CHL1  H18C 3804   5.770   4.777   7.489  2.5510  0.1881 -0.3054
   52CHL1   C12 3805   5.770   4.486   7.488 -0.7283 -0.1908  0.8105
   52CHL1  H12A 3806   5.877   4.464   7.510 -0.4813 -0.3480 -0.4650
   52CHL1  H12B 3807   5.713   4.391   7.491 -0.9661 -0.4320 -3.9199
   52CHL1   C11 3808   5.765   4.537   7.338 -0.4405  0.3061 -0.4638
   52CHL1  H11A 3809   5.839   4.617   7.322 -0.0900  0.0068 -0.3590
   52CHL1  H11B 3810   5.804   4.451   7.279 -0.2462 -1.0349  1.4969
   52CHL1    C9 3811   5.621   4.578   7.296 -0.7386 -0.6706  0.1305
   52CHL1    H9 3812   5.561   4.484   7.297 -1.0763 -0.4832 -1.0878
   52CHL1   C10 3813   5.607   4.630   7.149  0.5672  0.0398 -0.1313
   52CHL1   C19 3814   5.705   4.748   7.137 -0.1993  0.4463  0.2922
   52CHL1  H19A 3815   5.694   4.784   7.032 -1.0699  2.2533  0.9608
   52CHL1  H19B 3816   5.697   4.834   7.207 -0.0339 -0.5260  1.5433
   52CHL1  H19C 3817   5.811   4.719   7.151 -0.8696 -1.4622  1.9178
   52CHL1    C1 3818   5.646   4.510   7.057 -0.5497  0.1316  0.2051
   52CHL1   H1A 3819   5.756   4.508   7.071 -0.2595 -0.2624 -1.7554
   52CHL1   H1B 3820   5.601   4.416   7.095 -1.3236  0.7475  0.8444
   52CHL1    C2 3821   5.612   4.531   6.908 -0.4623 -0.4102 -0.1402
   52CHL1   H2A 3822   5.634   4.442   6.845  1.1303  0.0406 -0.2392
   52CHL1   H2B 3823   5.676   4.612   6.867 -0.2645 -0.1833  0.6030
   52CHL1   C20 3824   5.812   4.573   7.836  0.5025  0.0328 -1.0025
   52CHL1   H20 3825   5.827   4.682   7.849  2.3490 -0.2009 -0.8859
   52CHL1   C21 3826   5.941   4.506   7.788  0.4518  0.1919  0.4165
   52CHL1  H21A 3827   6.021   4.506   7.866 -1.2981  0.2978  2.2792
   52CHL1  H21B 3828   5.980   4.551   7.694 -0.5564  0.2327  0.0086
   52CHL1  H21C 3829   5.923   4.401   7.757  0.6303 -0.1363  1.3853
   52CHL1   C22 3830   5.779   4.526   7.984  0.2517 -0.0154  0.6129
   52CHL1  H22A 3831   5.675   4.559   8.004  0.9549  2.1294  0.9318
   52CHL1  H22B 3832   5.779   4.415   7.986  1.8756 -0.2191 -3.0392
   52CHL1   C23 3833   5.855   4.589   8.108  0.2138  0.0430 -0.4168
   52CHL1  H23A 3834   5.963   4.564   8.098 -0.1647 -3.1925  1.7667
   52CHL1  H23B 3835   5.839   4.699   8.104  0.7994  0.1686  0.3729
   52CHL1   C24 3836   5.802   4.543   8.245  0.1712 -0.7290 -0.2023
   52CHL1  H24A 3837   5.695   4.565   8.267  1.0239  0.5668  3.4406
   52CHL1  H24B 3838   5.819   4.434   8.236  1.1704 -0.5750 -0.3125
   52CHL1   C25 3839   5.883   4.581   8.371  0.1582 -0.5959 -1.0011
   52CHL1   H25 3840   5.990   4.582   8.342 -0.0062 -2.6773 -1.8057
   52CHL1   C26 3841   5.836   4.719   8.419  0.2152 -0.5263 -0.6692
   52CHL1  H26A 3842   5.727   4.708   8.438 -0.1233 -0.3686 -2.3806
   52CHL1  H26B 3843   5.897   4.743   8.509 -1.3344  1.4691 -0.0767
   52CHL1  H26C 3844   5.854   4.798   8.343  1.2156  0.9369  1.0009
   52CHL1   C27 3845   5.868   4.473   8.480 -0.9463  0.4009  0.4297
   52CHL1  H27A 3846   5.899   4.508   8.580 -0.3789  2.5886 -0.4653
   52CHL1  H27B 3847   5.758   4.455   8.483 -1.0271  0.8029 -0.0317
   52CHL1  H27C 3848   5.922   4.379   8.456  1.0402  2.2464 -3.1362
   53CHL1    C3 3849   4.383   0.289   7.212  0.3700 -0.4606  0.5152
   53CHL1    H3 3850   4.340   0.187   7.203  0.8714 -0.6742  0.5070
   53CHL1    O3 3851   4.380   0.344   7.078  0.2068 -0.0763 -0.0195
   53CHL1   H3' 3852   4.420   0.431   7.087  1.7397 -0.5854 -1.4031
   53CHL1    C4 3853   4.277   0.362   7.301  0.2759 -0.1659  0.4119
   53CHL1   H4A 3854   4.286   0.473   7.294 -0.3215 -0.1782 -0.8614
   53CHL1   H4B 3855   4.180   0.339   7.253  1.0553 -1.2864 -0.7027
   53CHL1    C5 3856   4.281   0.328   7.445 -0.1030  0.1268  0.6322
   53CHL1    C6 3857   4.174   0.296   7.515  0.5429 -0.0204 -0.4623
   53CHL1    H6 3858   4.078   0.301   7.460  1.4272  0.6854 -2.0203
   53CHL1    C7 3859   4.173   0.263   7.656 -0.1313 -0.2574  0.0298
   53CHL1   H7A 3860   4.096   0.333   7.695 -1.6749 -2.9065  2.1356
   53CHL1   H7B 3861   4.133   0.162   7.682  0.0881 -1.1585 -2.7650
   53CHL1    C8 3862   4.302   0.311   7.730  0.2478  0.2272 -0.5559
   53CHL1    H8 3863   4.301   0.419   7.756 -2.5656  0.0819  0.1983
   53CHL1   C14 3864   4.311   0.241   7.865  0.0279 -0.3362  0.0977
   53CHL1   H14 3865   4.302   0.133   7.843 -0.6117 -0.1433 -0.6892
   53CHL1   C15 3866   4.197   0.287   7.966 -0.1373 -0.7306 -0.8241
   53CHL1  H15A 3867   4.201   0.398   7.964 -0.8132 -0.6953 -0.5926
   53CHL1  H15B 3868   4.096   0.256   7.930 -0.5652  1.1981 -1.4432
   53CHL1   C16 3869   4.250   0.224   8.092  0.3458  0.2072  1.1206
   53CHL1  H16A 3870   4.227   0.290   8.178 -1.0471  0.2289  0.7627
   53CHL1  H16B 3871   4.191   0.130   8.098 -2.6369  1.8271 -0.5354
   53CHL1   C17 3872   4.404   0.197   8.077 -0.4238 -0.2228  0.5803
   53CHL1   H17 3873   4.418   0.088   8.064  0.5983 -0.2566  1.8334
   53CHL1   C13 3874   4.441   0.257   7.941  0.1285 -0.5391 -0.0691
   53CHL1   C18 3875   4.474   0.406   7.961 -0.6831  1.0030 -0.1662
   53CHL1  H18A 3876   4.569   0.404   8.018 -1.3622  1.6640  1.0271
   53CHL1  H18B 3877   4.474   0.456   7.862 -1.9108  0.2827 -0.5538
   53CHL1  H18C 3878   4.406   0.459   8.031  1.6162  2.7549  0.8455
   53CHL1   C12 3879   4.553   0.194   7.858  0.3090  0.3256  0.0007
   53CHL1  H12A 3880   4.657   0.199   7.897 -0.0263 -1.1642  1.1848
   53CHL1  H12B 3881   4.533   0.084   7.857 -0.9468  0.4992  1.8118
   53CHL1   C11 3882   4.562   0.265   7.721  0.2992 -0.1862 -0.8228
   53CHL1  H11A 3883   4.594   0.371   7.732  0.7792 -0.5916  3.4492
   53CHL1  H11B 3884   4.630   0.207   7.656 -0.8012 -2.3026 -0.1816
   53CHL1    C9 3885   4.423   0.264   7.651 -1.2579 -0.0891  0.6366
   53CHL1    H9 3886   4.406   0.155   7.640  2.3653 -0.8122  1.0137
   53CHL1   C10 3887   4.425   0.326   7.507  0.0043  0.5326 -0.5146
   53CHL1   C19 3888   4.464   0.477   7.520  0.3308  0.4045 -0.6846
   53CHL1  H19A 3889   4.572   0.474   7.547 -0.0195  1.0882  0.9165
   53CHL1  H19B 3890   4.458   0.547   7.434 -0.5620  1.7432  0.4304
   53CHL1  H19C 3891   4.420   0.516   7.614 -2.2285 -0.4013 -1.4817
   53CHL1    C1 3892   4.526   0.253   7.416  0.4740 -0.0261  0.6583
   53CHL1   H1A 3893   4.627   0.267   7.462  0.8053 -1.7131  0.5122
   53CHL1   H1B 3894   4.497   0.146   7.411 -1.9736  0.5884  0.3911
   53CHL1    C2 3895   4.520   0.309   7.275  0.3154 -0.4324  0.6490
   53CHL1   H2A 3896   4.595   0.268   7.204  1.6760  1.6744  0.7642
   53CHL1   H2B 3897   4.538   0.418   7.285 -2.6882  0.3018 -0.8917
   53CHL1   C20 3898   4.489   0.235   8.200  0.6081  0.3432 -0.1106
   53CHL1   H20 3899   4.487   0.344   8.219  0.3982  0.5923 -1.4741
   53CHL1   C21 3900   4.638   0.197   8.179  0.0069  0.5449 -0.4690
   53CHL1  H21A 3901   4.654   0.091   8.208  2.7597  1.3006  1.1316
   53CHL1  H21B 3902   4.695   0.249   8.259 -1.8702 -0.3859  1.5776
   53CHL1  H21C 3903   4.698   0.233   8.093  0.5743  4.0753  1.2145
   53CHL1   C22 3904   4.440   0.157   8.321  0.1303  0.4289  0.0259
   53CHL1  H22A 3905   4.329   0.161   8.324  0.1478  1.8078 -0.2678
   53CHL1  H22B 3906   4.453   0.047   8.315 -2.8508  0.0027 -0.1385
   53CHL1   C23 3907   4.475   0.224   8.457  0.8392 -0.1333 -0.1868
   53CHL1  H23A 3908   4.579   0.194   8.482  0.8815 -0.5082 -0.7613
   53CHL1  H23B 3909   4.458   0.333   8.444 -1.4200 -0.0656  2.5914
   53CHL1   C24 3910   4.383   0.176   8.572 -0.0456 -0.3576 -0.4068
   53CHL1  H24A 3911   4.285   0.178   8.522  0.4326 -0.8571 -1.3986
   53CHL1  H24B 3912   4.411   0.076   8.613 -0.0254 -0.1102  0.1872
   53CHL1   C25 3913   4.388   0.271   8.695  0.1333  0.7939 -0.1190
   53CHL1   H25 3914   4.389   0.372   8.649 -0.6614  0.5290 -0.7203
   53CHL1   C26 3915   4.266   0.242   8.792  1.1560  0.4708 -0.2391
   53CHL1  H26A 3916   4.171   0.228   8.735  1.3967 -1.4964 -0.2332
   53CHL1  H26B 3917   4.281   0.139   8.832  4.9035  1.2971  0.8747
   53CHL1  H26C 3918   4.264   0.313   8.877 -1.2369 -0.8734  0.9344
   53CHL1   C27 3919   4.506   0.262   8.785 -0.2756 -0.0017  0.5238
   53CHL1  H27A 3920   4.487   0.326   8.874  0.3825 -1.5025  1.8097
   53CHL1  H27B 3921   4.535   0.164   8.829  1.2596  0.3431  0.3418
   53CHL1  H27C 3922   4.586   0.313   8.728 -0.8771  0.7274  0.3198
   54CHL1    C3 3923   4.492   3.067   7.112  0.1912 -0.1511  0.4484
   54CHL1    H3 3924   4.588   3.011   7.117 -0.7959 -1.8991  0.8297
   54CHL1    O3 3925   4.430   3.045   6.980  0.0111  0.0362 -0.3924
   54CHL1   H3' 3926   4.493   3.070   6.912  0.8371 -0.8091  0.0368
   54CHL1    C4 3927   4.411   3.001   7.227  0.3608 -1.0348 -0.2115
   54CHL1   H4A 3928   4.308   3.041   7.211 -0.2700 -2.7963 -0.8822
   54CHL1   H4B 3929   4.410   2.892   7.206  0.6382 -1.2385  0.7761
   54CHL1    C5 3930   4.455   3.040   7.372 -0.4421 -0.5373  0.4898
   54CHL1    C6 3931   4.489   2.947   7.466 -0.8042 -0.0161  0.1609
   54CHL1    H6 3932   4.483   2.842   7.436 -0.1562  0.3020 -1.1429
   54CHL1    C7 3933   4.538   2.994   7.602 -1.0986  0.5846  0.0276
   54CHL1   H7A 3934   4.492   2.922   7.674  0.1623 -1.5378 -1.1579
   54CHL1   H7B 3935   4.648   2.981   7.599 -1.1179  0.5686 -1.8017
   54CHL1    C8 3936   4.509   3.135   7.639 -0.3245  0.1058 -0.2073
   54CHL1    H8 3937   4.400   3.134   7.662 -0.1905  0.0062  0.4418
   54CHL1   C14 3938   4.589   3.163   7.769  0.3809 -0.3193 -0.1181
   54CHL1   H14 3939   4.696   3.154   7.740  0.2858  0.9098 -0.9513
   54CHL1   C15 3940   4.570   3.082   7.901  0.3474 -0.8980  0.5134
   54CHL1  H15A 3941   4.462   3.060   7.907 -0.1027  1.3142  1.4385
   54CHL1  H15B 3942   4.635   2.992   7.889  0.2412 -0.8270 -0.6635
   54CHL1   C16 3943   4.614   3.178   8.016 -0.4141  0.2738  0.3660
   54CHL1  H16A 3944   4.527   3.180   8.084  2.0540 -0.2727  3.7819
   54CHL1  H16B 3945   4.702   3.143   8.075 -0.1575  1.0153  0.4328
   54CHL1   C17 3946   4.654   3.307   7.944  0.0765 -0.0973 -0.0954
   54CHL1   H17 3947   4.758   3.283   7.910  0.3113  0.0837  0.4879
   54CHL1   C13 3948   4.571   3.310   7.814 -0.4019  0.1531 -0.6056
   54CHL1   C18 3949   4.424   3.336   7.854 -0.2346 -0.2040 -0.1750
   54CHL1  H18A 3950   4.407   3.444   7.875  0.8973 -0.2233  0.9563
   54CHL1  H18B 3951   4.350   3.312   7.774 -2.7142  0.3733  1.7980
   54CHL1  H18C 3952   4.401   3.288   7.951  1.9264 -1.6644 -0.3207
   54CHL1   C12 3953   4.621   3.398   7.701  0.0679  0.8382 -0.1495
   54CHL1  H12A 3954   4.610   3.507   7.721  1.3395  0.9569 -0.0324
   54CHL1  H12B 3955   4.726   3.375   7.675 -0.4466 -0.3644 -1.2616
   54CHL1   C11 3956   4.561   3.374   7.560  0.4086 -0.1382  0.1832
   54CHL1  H11A 3957   4.460   3.419   7.571  0.2909 -0.8754  2.6535
   54CHL1  H11B 3958   4.607   3.449   7.493  0.1578  0.5547  0.7752
   54CHL1    C9 3959   4.556   3.220   7.523  0.1062 -0.2244  0.5407
   54CHL1    H9 3960   4.660   3.188   7.500  0.3605 -0.1967  1.6089
   54CHL1   C10 3961   4.478   3.190   7.387 -0.7744 -0.6513  0.2694
   54CHL1   C19 3962   4.350   3.273   7.394 -0.0128  0.5240  0.4241
   54CHL1  H19A 3963   4.285   3.254   7.482 -0.2564 -3.0736 -0.3676
   54CHL1  H19B 3964   4.376   3.381   7.386  3.1952 -0.0023  1.9204
   54CHL1  H19C 3965   4.286   3.244   7.308 -1.2188 -1.3054  1.8757
   54CHL1    C1 3966   4.562   3.240   7.267 -0.0548 -1.2047 -0.3860
   54CHL1   H1A 3967   4.576   3.350   7.269 -0.6501 -1.1251 -0.3247
   54CHL1   H1B 3968   4.664   3.198   7.275  0.0748 -0.5664  2.3952
   54CHL1    C2 3969   4.508   3.213   7.130  0.1015  0.4789 -0.1165
   54CHL1   H2A 3970   4.583   3.254   7.058 -0.8872  0.5757 -1.1271
   54CHL1   H2B 3971   4.419   3.278   7.116 -0.3808 -0.0952  0.2713
   54CHL1   C20 3972   4.653   3.427   8.041 -0.2251 -0.6305 -0.1447
   54CHL1   H20 3973   4.641   3.518   7.979 -0.5280  0.7931  1.9335
   54CHL1   C21 3974   4.795   3.415   8.108  0.1399  0.3760  0.2056
   54CHL1  H21A 3975   4.805   3.497   8.181  1.3224  1.8713 -1.5420
   54CHL1  H21B 3976   4.863   3.445   8.026  2.4195  0.5226  2.0697
   54CHL1  H21C 3977   4.844   3.323   8.148 -1.4024 -0.7828 -0.4395
   54CHL1   C22 3978   4.543   3.424   8.150 -0.2127  0.8210  0.0076
   54CHL1  H22A 3979   4.445   3.392   8.107  1.4236 -1.4305 -2.4566
   54CHL1  H22B 3980   4.561   3.343   8.225 -0.8566 -0.4074 -1.1119
   54CHL1   C23 3981   4.515   3.562   8.213  0.3301 -0.2663  0.1879
   54CHL1  H23A 3982   4.583   3.602   8.291 -0.7831 -0.3233  1.2118
   54CHL1  H23B 3983   4.495   3.631   8.128  1.5996  0.6688  0.6167
   54CHL1   C24 3984   4.367   3.571   8.275  0.0531 -0.0367  0.6713
   54CHL1  H24A 3985   4.351   3.674   8.313 -2.8944 -0.4884  0.8675
   54CHL1  H24B 3986   4.295   3.547   8.194  0.6170 -0.4133  0.2698
   54CHL1   C25 3987   4.341   3.468   8.389  0.2677  0.0653  0.1211
   54CHL1   H25 3988   4.360   3.364   8.354 -1.9689 -0.9845  1.7494
   54CHL1   C26 3989   4.425   3.497   8.515  0.4914  0.1434  0.8043
   54CHL1  H26A 3990   4.532   3.507   8.488  0.1912  0.4636 -0.2858
   54CHL1  H26B 3991   4.394   3.589   8.568  0.0425 -1.1168  2.8560
   54CHL1  H26C 3992   4.403   3.413   8.585  1.0629  0.1119  0.9503
   54CHL1   C27 3993   4.187   3.472   8.417 -0.8078  0.1878  0.1063
   54CHL1  H27A 3994   4.149   3.391   8.482  0.5294  0.0258  0.7074
   54CHL1  H27B 3995   4.164   3.574   8.456  0.2613  0.4271  0.1409
   54CHL1  H27C 3996   4.135   3.456   8.320  0.4005 -1.7632 -0.2775
   55CHL1    C3 3997   2.912   5.259   7.223 -0.2016 -0.3611  0.1507
   55CHL1    H3 3998   2.816   5.226   7.267 -1.1486  3.2904  1.1984
   55CHL1    O3 3999   2.901   5.245   7.080 -0.8778  0.0386 -0.0434
   55CHL1   H3' 4000   2.971   5.301   7.044 -0.9960 -0.7786 -1.6310
   55CHL1    C4 4001   2.939   5.407   7.252 -0.1557  0.9816  0.2993
   55CHL1   H4A 4002   3.029   5.435   7.192 -1.1316 -0.9867 -2.3153
   55CHL1   H4B 4003   2.850   5.459   7.210 -0.4319 -0.0839 -0.4875
   55CHL1    C5 4004   2.955   5.424   7.397 -0.2797 -0.1706  0.0419
   55CHL1    C6 4005   2.877   5.507   7.464  0.7645  0.2090 -0.2325
   55CHL1    H6 4006   2.798   5.565   7.414  0.1982  0.9370  1.4013
   55CHL1    C7 4007   2.890   5.529   7.612  0.6156 -0.1613  0.0846
   55CHL1   H7A 4008   2.890   5.636   7.642  3.3464 -0.4341  1.3387
   55CHL1   H7B 4009   2.805   5.484   7.669  0.7071  0.8959  1.1104
   55CHL1    C8 4010   3.017   5.472   7.673  0.0749 -0.4340 -0.0781
   55CHL1    H8 4011   3.101   5.541   7.649 -0.4082  0.2234  0.0779
   55CHL1   C14 4012   2.998   5.450   7.824 -0.2679 -0.4670  0.5777
   55CHL1   H14 4013   2.915   5.377   7.842 -0.8117 -0.1685 -0.6055
   55CHL1   C15 4014   2.937   5.569   7.909 -0.2044  0.3014  0.8065
   55CHL1  H15A 4015   2.985   5.666   7.885 -3.0275  1.5784 -0.1761
   55CHL1  H15B 4016   2.827   5.584   7.904 -0.6217 -2.0738  1.2954
   55CHL1   C16 4017   2.972   5.528   8.046  0.2821  0.1144  0.0653
   55CHL1  H16A 4018   3.004   5.614   8.109 -0.5745  1.8182 -1.7076
   55CHL1  H16B 4019   2.876   5.502   8.096 -0.6336  2.0582 -0.5750
   55CHL1   C17 4020   3.069   5.419   8.049  0.4312 -0.1446  0.2271
   55CHL1   H17 4021   3.015   5.323   8.063 -0.9085  0.8865  2.6854
   55CHL1   C13 4022   3.122   5.411   7.900  0.4804  0.3598  0.2965
   55CHL1   C18 4023   3.228   5.527   7.880  0.6129  0.4113  0.3157
   55CHL1  H18A 4024   3.198   5.623   7.926 -1.6162 -0.7602  1.4712
   55CHL1  H18B 4025   3.327   5.499   7.921  0.9767 -0.0826 -0.8486
   55CHL1  H18C 4026   3.257   5.548   7.774  1.0011  3.1159  0.8849
   55CHL1   C12 4027   3.161   5.272   7.835 -0.2982 -0.6242 -0.0071
   55CHL1  H12A 4028   3.251   5.224   7.879  0.1005  1.4342  1.5544
   55CHL1  H12B 4029   3.072   5.210   7.858 -0.1374 -0.2742  1.6730
   55CHL1   C11 4030   3.172   5.283   7.684  0.5792 -0.1307  0.1935
   55CHL1  H11A 4031   3.259   5.350   7.669  0.0793  0.3303 -0.7055
   55CHL1  H11B 4032   3.190   5.176   7.658 -1.0824 -0.1909 -0.8873
   55CHL1    C9 4033   3.051   5.335   7.613  0.0406  0.5345 -0.3012
   55CHL1    H9 4034   2.959   5.275   7.631  0.1807  0.3486 -0.2023
   55CHL1   C10 4035   3.062   5.335   7.461 -0.3733  0.6084  0.4595
   55CHL1   C19 4036   3.200   5.388   7.401  0.9451  0.2112  0.2335
   55CHL1  H19A 4037   3.214   5.497   7.415 -2.5910  0.5808  1.9768
   55CHL1  H19B 4038   3.279   5.340   7.463 -0.5963 -0.6277  1.6222
   55CHL1  H19C 4039   3.217   5.360   7.295  0.8132 -1.7309  0.6712
   55CHL1    C1 4040   3.044   5.183   7.414  0.5471 -0.1780  0.0194
   55CHL1   H1A 4041   3.135   5.123   7.437  2.9959  2.2934 -2.4301
   55CHL1   H1B 4042   2.954   5.144   7.466  3.3626 -3.5067  3.0222
   55CHL1    C2 4043   3.031   5.173   7.260  0.2502  0.3587 -0.0836
   55CHL1   H2A 4044   3.013   5.067   7.230 -0.7235 -0.2265  2.3083
   55CHL1   H2B 4045   3.123   5.208   7.209  0.0466  1.1186  0.0621
   55CHL1   C20 4046   3.168   5.425   8.163  0.0584 -0.7409  0.7405
   55CHL1   H20 4047   3.236   5.510   8.141 -0.6826 -0.3586 -0.1543
   55CHL1   C21 4048   3.259   5.297   8.151  0.8337  0.1937 -0.4104
   55CHL1  H21A 4049   3.196   5.210   8.124 -0.7667  1.9243 -2.6022
   55CHL1  H21B 4050   3.302   5.286   8.253  0.1882  1.1563 -0.0142
   55CHL1  H21C 4051   3.342   5.317   8.080  0.6103  0.1940 -0.6731
   55CHL1   C22 4052   3.110   5.436   8.302  0.5657  0.0670  0.3341
   55CHL1  H22A 4053   3.191   5.420   8.377  1.5449 -1.3257 -0.9661
   55CHL1  H22B 4054   3.073   5.538   8.325 -1.4281 -0.7705  1.0339
   55CHL1   C23 4055   2.991   5.344   8.332 -0.2499  0.0057 -0.2098
   55CHL1  H23A 4056   2.898   5.363   8.274  0.0550 -1.1276 -1.0920
   55CHL1  H23B 4057   3.030   5.240   8.336 -0.4731 -0.1288 -1.3549
   55CHL1   C24 4058   2.944   5.366   8.476 -0.0301 -0.3095  0.5478
   55CHL1  H24A 4059   3.031   5.350   8.542  0.2907  1.8429  0.7367
   55CHL1  H24B 4060   2.911   5.472   8.485  0.1033 -0.0883 -1.3048
   55CHL1   C25 4061   2.824   5.279   8.525 -0.6192  0.5810 -0.4458
   55CHL1   H25 4062   2.848   5.176   8.492 -1.6158  0.3797 -0.5749
   55CHL1   C26 4063   2.803   5.282   8.679 -0.4065 -0.3452 -0.8950
   55CHL1  H26A 4064   2.887   5.224   8.723  0.3197  0.5497 -1.0878
   55CHL1  H26B 4065   2.791   5.389   8.706  1.8805  0.8268 -3.9267
   55CHL1  H26C 4066   2.711   5.225   8.704  0.5922 -1.3297  0.6582
   55CHL1   C27 4067   2.696   5.329   8.454  0.0905 -0.3526  0.7799
   55CHL1  H27A 4068   2.702   5.325   8.343 -2.2022 -0.0965  0.5899
   55CHL1  H27B 4069   2.608   5.269   8.487 -0.4698 -0.6675 -1.1474
   55CHL1  H27C 4070   2.682   5.439   8.467  0.5213 -0.2473  0.3828
   56CHL1    C3 4071   3.095   4.019   7.028  0.4496  0.2224  0.5854
   56CHL1    H3 4072   3.085   3.913   6.995  1.0049  0.2295  0.3826
   56CHL1    O3 4073   3.107   4.106   6.919  0.2147 -0.0018  0.1523
   56CHL1   H3' 4074   3.173   4.070   6.859  0.0885  1.9229 -1.2267
   56CHL1    C4 4075   2.971   4.061   7.106  0.1304 -0.1174  0.3476
   56CHL1   H4A 4076   2.962   4.172   7.107 -0.6043 -0.1157 -1.4634
   56CHL1   H4B 4077   2.882   4.026   7.051  0.8812  2.1628 -2.5960
   56CHL1    C5 4078   2.958   4.005   7.246  0.3092  0.3540 -0.9508
   56CHL1    C6 4079   2.838   3.948   7.289 -1.3148 -0.1104  0.2668
   56CHL1    H6 4080   2.752   3.940   7.221 -1.3984 -0.2347  0.3868
   56CHL1    C7 4081   2.810   3.896   7.425  0.0409  0.0030  0.3190
   56CHL1   H7A 4082   2.706   3.930   7.445 -0.6468 -0.1506 -2.5553
   56CHL1   H7B 4083   2.816   3.786   7.412  0.7740  0.0873 -0.0895
   56CHL1    C8 4084   2.916   3.939   7.529 -0.8328  0.1808 -0.3132
   56CHL1    H8 4085   2.893   4.046   7.549 -0.7626  0.2280 -0.4838
   56CHL1   C14 4086   2.905   3.880   7.666 -0.3211  0.2717 -0.0981
   56CHL1   H14 4087   2.895   3.769   7.656  1.5028  0.1103 -0.4268
   56CHL1   C15 4088   2.775   3.907   7.746 -0.2203  0.1330  0.3725
   56CHL1  H15A 4089   2.757   4.017   7.749  0.1249  0.1815  0.9456
   56CHL1  H15B 4090   2.679   3.864   7.712  0.3792 -0.7780 -0.2029
   56CHL1   C16 4091   2.804   3.861   7.895  0.6088  0.1163 -0.1763
   56CHL1  H16A 4092   2.771   3.942   7.964  1.1892 -0.0366  0.2877
   56CHL1  H16B 4093   2.762   3.763   7.925 -1.9664  1.0887 -0.3406
   56CHL1   C17 4094   2.959   3.843   7.899 -0.2182 -0.1087 -0.3015
   56CHL1   H17 4095   2.979   3.734   7.905 -2.5087 -0.5446  0.2377
   56CHL1   C13 4096   3.017   3.899   7.764  0.1701 -0.2363  0.6443
   56CHL1   C18 4097   3.026   4.053   7.787  0.0083 -0.1681  0.3004
   56CHL1  H18A 4098   3.110   4.089   7.850 -1.2338  2.9188  0.3436
   56CHL1  H18B 4099   3.032   4.113   7.694  0.1943  0.2355  0.5699
   56CHL1  H18C 4100   2.932   4.074   7.843  0.8683 -1.2200  2.2556
   56CHL1   C12 4101   3.147   3.850   7.710 -0.1023 -0.6974  0.0275
   56CHL1  H12A 4102   3.233   3.890   7.768 -0.1702  0.9245 -0.9309
   56CHL1  H12B 4103   3.136   3.739   7.714  0.3056 -0.7039  1.6572
   56CHL1   C11 4104   3.173   3.913   7.569  0.5711  0.8528  0.3563
   56CHL1  H11A 4105   3.198   4.021   7.582 -0.4522  1.0849  0.4974
   56CHL1  H11B 4106   3.261   3.860   7.527  1.2251  3.0897 -1.3053
   56CHL1    C9 4107   3.057   3.917   7.469 -0.2237  0.0297  0.6226
   56CHL1    H9 4108   3.048   3.815   7.427 -0.9900  0.0428  0.7403
   56CHL1   C10 4109   3.084   4.008   7.340  0.0546 -0.3009 -0.1876
   56CHL1   C19 4110   3.104   4.154   7.377  0.0955  0.0442 -0.0661
   56CHL1  H19A 4111   3.200   4.168   7.431 -0.2100 -0.9866  0.7658
   56CHL1  H19B 4112   3.111   4.219   7.287 -1.5674  0.6349  0.1985
   56CHL1  H19C 4113   3.021   4.191   7.441 -0.2999 -0.7973 -0.0946
   56CHL1    C1 4114   3.210   3.963   7.248  0.3876 -0.0265 -0.6043
   56CHL1   H1A 4115   3.303   3.984   7.304 -0.5871  0.0540  1.0549
   56CHL1   H1B 4116   3.202   3.855   7.224 -0.1968  0.1219 -1.1192
   56CHL1    C2 4117   3.217   4.038   7.116  0.2534 -0.3104  0.8253
   56CHL1   H2A 4118   3.304   3.997   7.061 -0.2294 -1.4417  0.8839
   56CHL1   H2B 4119   3.236   4.146   7.134  0.8659 -0.3302  0.3410
   56CHL1   C20 4120   3.018   3.900   8.031 -0.5202  0.5282 -0.1594
   56CHL1   H20 4121   2.991   4.007   8.034 -1.7426  0.2294  0.8342
   56CHL1   C21 4122   3.171   3.887   8.029  0.0413 -1.0647  0.0768
   56CHL1  H21A 4123   3.217   3.969   7.971  0.9647 -1.4092  0.3077
   56CHL1  H21B 4124   3.195   3.792   7.976  1.5150 -0.1189 -0.9878
   56CHL1  H21C 4125   3.212   3.877   8.132 -0.6129  0.4604  0.5101
   56CHL1   C22 4126   2.961   3.831   8.162 -0.2225 -0.4740  0.6770
   56CHL1  H22A 4127   2.851   3.827   8.150 -0.2275  1.4594 -0.2955
   56CHL1  H22B 4128   3.004   3.730   8.176 -2.8661 -1.6569  0.8365
   56CHL1   C23 4129   3.005   3.904   8.283 -0.1958 -0.3496  0.0284
   56CHL1  H23A 4130   3.112   3.935   8.285 -0.7574  1.8493  2.5399
   56CHL1  H23B 4131   2.944   3.997   8.285 -0.0782 -0.2844  1.2145
   56CHL1   C24 4132   2.964   3.835   8.416  0.2007 -0.4982 -0.0188
   56CHL1  H24A 4133   2.857   3.810   8.402  0.6140 -1.4132 -1.9217
   56CHL1  H24B 4134   3.027   3.749   8.449  1.7432  0.2249 -0.9386
   56CHL1   C25 4135   2.959   3.926   8.536  0.2486 -1.0160  0.6410
   56CHL1   H25 4136   2.905   4.021   8.518  0.2995 -0.7578  1.7679
   56CHL1   C26 4137   2.876   3.864   8.646  0.5501 -0.1496  0.3029
   56CHL1  H26A 4138   2.770   3.853   8.614  0.3507  0.3082  0.7882
   56CHL1  H26B 4139   2.873   3.928   8.737 -0.5549 -0.7512  0.6988
   56CHL1  H26C 4140   2.929   3.767   8.654  0.8009 -0.0443 -0.0525
   56CHL1   C27 4141   3.105   3.957   8.582 -0.6027 -0.4030 -1.1837
   56CHL1  H27A 4142   3.121   4.010   8.678  0.1746 -1.3183 -0.7956
   56CHL1  H27B 4143   3.148   3.855   8.582  1.3884  0.3696 -0.9873
   56CHL1  H27C 4144   3.164   4.011   8.503 -0.1505  1.2971  0.2541
   57SAPC     N 4145   6.186   0.158  11.041 -0.0422  0.3245 -0.7080
   57SAPC   C12 4146   6.206   0.165  10.890  0.1941 -0.5830  0.2665
   57SAPC  H12A 4147   6.312   0.158  10.871 -0.1611 -0.3676 -2.0368
   57SAPC  H12B 4148   6.174   0.265  10.864  0.4988  0.2006  2.6278
   57SAPC   C13 4149   6.039   0.167  11.085  0.0410  0.1042  0.7349
   57SAPC  H13A 4150   5.999   0.261  11.051  1.1487 -1.1853 -5.1628
   57SAPC  H13B 4151   5.989   0.090  11.028  2.9493 -3.1766  2.2531
   57SAPC  H13C 4152   6.007   0.144  11.185 -2.0190 -0.8768 -0.0927
   57SAPC   C14 4153   6.240   0.035  11.107 -0.1408  0.3297 -0.3079
   57SAPC  H14A 4154   6.192  -0.050  11.062  2.7126 -0.8233 -1.4096
   57SAPC  H14B 4155   6.347   0.020  11.104 -0.4507 -2.2416 -0.9431
   57SAPC  H14C 4156   6.208   0.031  11.210 -0.2245 -6.1143 -0.1755
   57SAPC   C15 4157   6.254   0.277  11.098 -0.3786 -0.1642  0.1874
   57SAPC  H15A 4158   6.233   0.288  11.203 -1.9810 -0.7168 -0.0370
   57SAPC  H15B 4159   6.359   0.257  11.087 -0.8231 -2.4560 -0.4919
   57SAPC  H15C 4160   6.217   0.367  11.051  1.4068  0.4997 -0.0208
   57SAPC   C11 4161   6.127   0.060  10.803 -0.8644 -0.1801 -0.1496
   57SAPC  H11A 4162   6.139   0.074  10.693 -2.4044  3.6060  0.0182
   57SAPC  H11B 4163   6.020   0.087  10.820 -0.2814 -0.1987  4.8760
   57SAPC     P 4164   6.267  -0.163  10.794 -0.3646  0.4290  0.3241
   57SAPC   O13 4165   6.385  -0.073  10.801 -0.3512  0.2989  0.6836
   57SAPC   O14 4166   6.277  -0.288  10.878 -0.1560 -0.1450  0.3044
   57SAPC   O12 4167   6.144  -0.075  10.851  0.0197  0.8508  1.1218
   57SAPC   O11 4168   6.230  -0.199  10.645  0.0321  0.1812 -0.2444
   57SAPC    C1 4169   6.109  -0.264  10.618 -0.9915 -0.3449 -0.1164
   57SAPC    HA 4170   6.132  -0.373  10.626 -0.5805 -0.3978 -1.6934
   57SAPC    HB 4171   6.025  -0.237  10.685 -0.9867  1.5593 -0.8380
   57SAPC    C2 4172   6.065  -0.251  10.467 -1.2225  0.1901 -0.1405
   57SAPC    HS 4173   5.979  -0.319  10.450  0.8172 -2.4813 -0.4376
   57SAPC   O21 4174   6.182  -0.276  10.387 -0.1936 -0.3410  0.1606
   57SAPC   C21 4175   6.156  -0.355  10.281 -0.2411 -0.3718 -0.2808
   57SAPC   O22 4176   6.057  -0.425  10.272  0.0922  0.0630 -0.5291
   57SAPC   C22 4177   6.275  -0.358  10.189  0.0314 -1.1663 -0.5984
   57SAPC   H2R 4178   6.326  -0.260  10.199  0.3982 -1.5369  1.6662
   57SAPC   H2S 4179   6.334  -0.445  10.226 -0.5528 -0.5363  2.0697
   57SAPC    C3 4180   6.009  -0.107  10.438 -0.2511  0.8210  0.2517
   57SAPC    HX 4181   6.077  -0.022  10.460  2.0086  0.2562 -3.5081
   57SAPC    HY 4182   5.927  -0.104  10.512  0.5711 -1.2758  1.3479
   57SAPC   O31 4183   5.950  -0.103  10.305 -0.0354 -0.3150  0.4580
   57SAPC   C31 4184   6.024  -0.060  10.199 -0.1177 -0.8537  0.1843
   57SAPC   O32 4185   6.144  -0.042  10.200 -0.2893  0.4484  0.1438
   57SAPC   C32 4186   5.933  -0.041  10.077 -0.7805  0.2388 -0.0591
   57SAPC   H2X 4187   5.857   0.030  10.116 -1.3967 -1.0424  1.1237
   57SAPC   H2Y 4188   5.895  -0.143  10.057  0.1619 -0.5827  2.0254
   57SAPC   C23 4189   6.240  -0.406  10.041  0.4282  0.3895  0.3239
   57SAPC   H3R 4190   6.169  -0.491  10.037  1.3769 -0.3805 -2.9116
   57SAPC   H3S 4191   6.337  -0.441   9.999  0.9336  0.3635  1.4717
   57SAPC   C24 4192   6.189  -0.292   9.950 -0.7415  0.1647  0.2294
   57SAPC   H4R 4193   6.087  -0.255   9.970 -0.7229  1.1402 -1.2979
   57SAPC   H4S 4194   6.169  -0.336   9.850  1.1017 -1.1118  0.3612
   57SAPC   C25 4195   6.283  -0.175   9.922  0.0093 -0.7025 -0.6670
   57SAPC   H5R 4196   6.304  -0.115  10.012 -0.6316 -0.9434 -0.3428
   57SAPC   C26 4197   6.335  -0.147   9.807  1.2187  0.1053  0.0285
   57SAPC   H6R 4198   6.397  -0.057   9.800  0.3013  0.7266 -0.2648
   57SAPC   C27 4199   6.315  -0.220   9.677 -0.1565  0.1900 -0.7047
   57SAPC   H7R 4200   6.306  -0.330   9.687  0.0832  0.2194 -0.1223
   57SAPC   H7S 4201   6.409  -0.190   9.627  0.0311  2.0747  0.6666
   57SAPC   C28 4202   6.190  -0.159   9.613 -0.0462  1.2220  0.0891
   57SAPC   H8R 4203   6.104  -0.200   9.668  0.9085  1.1988  1.6299
   57SAPC   C29 4204   6.178  -0.097   9.492 -0.6259 -1.0134 -0.2005
   57SAPC   H9R 4205   6.083  -0.056   9.455 -0.1119  1.8541  1.4162
   57SAPC  C210 4206   6.291  -0.068   9.398 -0.0496 -0.5781  0.0744
   57SAPC  H10R 4207   6.312  -0.159   9.337 -0.4250  0.8462 -2.3103
   57SAPC  H10S 4208   6.383  -0.059   9.459  1.2772  0.9843 -1.9984
   57SAPC  C211 4209   6.272   0.062   9.326 -0.2716  0.0672 -0.0368
   57SAPC  H11R 4210   6.298   0.157   9.375  0.1655 -0.6805  1.1952
   57SAPC  C212 4211   6.242   0.069   9.198  0.3672 -0.2482  0.4754
   57SAPC  H12R 4212   6.232   0.171   9.161  0.8007 -0.5101 -0.3813
   57SAPC  C213 4213   6.212  -0.044   9.113  0.1101 -0.1230 -0.5701
   57SAPC  H13R 4214   6.292  -0.119   9.131  0.8291  0.7815  0.0792
   57SAPC  H13S 4215   6.244  -0.023   9.008 -0.2062  2.1564 -0.2643
   57SAPC  C214 4216   6.067  -0.092   9.110  0.6731  0.9179 -0.5679
   57SAPC  H14R 4217   6.070  -0.199   9.138  1.5503  1.2196  0.5705
   57SAPC  C215 4218   5.953  -0.037   9.075  0.2270 -0.1564 -0.5380
   57SAPC  H15R 4219   5.856  -0.089   9.075  0.1587 -0.0883  1.4686
   57SAPC  C216 4220   5.926   0.105   9.019 -0.4411  1.3759  0.3513
   57SAPC  H16R 4221   6.018   0.166   9.031 -0.6849  1.5109  1.7072
   57SAPC  H16S 4222   5.840   0.150   9.072 -1.3231  0.6259 -0.4028
   57SAPC  C217 4223   5.873   0.102   8.875 -0.0523  0.5684 -0.3389
   57SAPC  H17R 4224   5.779   0.043   8.863 -0.0103  0.5263 -0.4716
   57SAPC  H17S 4225   5.956   0.060   8.815 -0.4258 -1.3618  0.4234
   57SAPC  C218 4226   5.826   0.241   8.824 -0.3844 -1.1727 -0.1227
   57SAPC  H18R 4227   5.919   0.297   8.801 -1.0995 -0.3047 -0.9952
   57SAPC  H18S 4228   5.767   0.281   8.909 -1.7266 -0.2666 -1.4247
   57SAPC  C219 4229   5.738   0.230   8.701  0.6714  0.1923 -0.6051
   57SAPC  H19R 4230   5.697   0.330   8.674 -0.6303 -0.0269  0.4999
   57SAPC  H19S 4231   5.653   0.165   8.728  2.2153 -1.6330  0.1236
   57SAPC  C220 4232   5.809   0.168   8.577 -0.1359 -0.2037 -0.0556
   57SAPC  H20R 4233   5.739   0.163   8.491  0.7628 -0.1548 -0.7992
   57SAPC  H20S 4234   5.828   0.062   8.602 -2.9641 -0.5011  1.1913
   57SAPC  H20T 4235   5.896   0.224   8.536  1.4458 -0.7962  2.2459
   57SAPC   C33 4236   6.004   0.026   9.956 -0.4740 -0.0303  0.6566
   57SAPC   H3X 4237   6.051  -0.052   9.893  0.4667  1.6824 -0.8326
   57SAPC   H3Y 4238   6.079   0.100   9.991 -0.7305 -0.8579  3.2267
   57SAPC   C34 4239   5.911   0.101   9.868 -0.0865 -0.3373  0.1098
   57SAPC   H4X 4240   5.865   0.177   9.935  0.6603  0.1489  0.0880
   57SAPC   H4Y 4241   5.834   0.028   9.836 -1.3489  0.2691  1.6013
   57SAPC   C35 4242   5.983   0.173   9.746  0.4487 -0.6257 -0.4556
   57SAPC   H5X 4243   6.036   0.100   9.682  2.2470  0.9767 -0.8659
   57SAPC   H5Y 4244   6.058   0.244   9.787  0.1896  1.0205 -2.6365
   57SAPC   C36 4245   5.882   0.254   9.667 -0.2821  0.5258 -0.7669
   57SAPC   H6X 4246   5.827   0.328   9.729  0.4356 -0.0618  0.6325
   57SAPC   H6Y 4247   5.804   0.186   9.628 -1.7742  0.9828  1.2549
   57SAPC   C37 4248   5.955   0.336   9.561  0.1254  0.0237  0.1965
   57SAPC   H7X 4249   6.025   0.272   9.503  0.9850  0.2972  0.9107
   57SAPC   H7Y 4250   6.034   0.395   9.611  0.5729  0.7620 -1.3308
   57SAPC   C38 4251   5.877   0.421   9.462  0.1458 -0.1095  0.3940
   57SAPC   H8X 4252   5.827   0.507   9.510 -0.1124 -0.9284  1.6338
   57SAPC   H8Y 4253   5.793   0.355   9.428 -0.5588 -0.1369  2.1061
   57SAPC   C39 4254   5.961   0.488   9.353  0.1203  0.4150  0.3627
   57SAPC   H9X 4255   6.012   0.416   9.287  0.9034  1.9848 -0.7941
   57SAPC   H9Y 4256   6.036   0.550   9.407  0.2213 -0.6005  1.4418
   57SAPC  C310 4257   5.871   0.565   9.249 -0.1756 -0.1227 -0.1173
   57SAPC  H10X 4258   5.814   0.645   9.301 -1.7793 -1.7511  0.7390
   57SAPC  H10Y 4259   5.803   0.485   9.213  0.1051 -0.5493  0.2767
   57SAPC  C311 4260   5.949   0.622   9.135  0.2810 -1.2041 -0.5442
   57SAPC  H11X 4261   5.981   0.540   9.067  1.6280 -1.1260 -0.0278
   57SAPC  H11Y 4262   6.043   0.674   9.162 -0.8889  0.5210  0.4498
   57SAPC  C312 4263   5.871   0.737   9.065 -0.1845  0.5057 -1.2588
   57SAPC  H12X 4264   5.864   0.816   9.143 -1.3093 -0.5239 -0.2646
   57SAPC  H12Y 4265   5.773   0.694   9.036 -0.4662  0.4058 -0.2067
   57SAPC  C313 4266   5.953   0.779   8.942  0.2769  0.2065  0.2273
   57SAPC  H13X 4267   5.952   0.694   8.872 -0.9275 -0.8675  1.4843
   57SAPC  H13Y 4268   6.060   0.790   8.972  0.0647  1.4834  0.5992
   57SAPC  C314 4269   5.898   0.906   8.877  0.4706 -0.1976 -0.4458
   57SAPC  H14X 4270   5.791   0.889   8.854  0.1804  0.3910  0.4377
   57SAPC  H14Y 4271   5.961   0.927   8.788 -0.8502  1.7137 -0.9940
   57SAPC  C315 4272   5.911   1.039   8.963 -0.0870 -0.1149 -0.1181
   57SAPC  H15X 4273   6.021   1.046   8.977  0.4158  2.6172 -3.9305
   57SAPC  H15Y 4274   5.867   1.026   9.064 -0.4126 -0.5378 -0.3131
   57SAPC  C316 4275   5.863   1.164   8.883  0.1983  0.1691  0.2912
   57SAPC  H16X 4276   5.754   1.157   8.864  0.0449  1.9414  0.3980
   57SAPC  H16Y 4277   5.917   1.173   8.786 -0.2613 -1.4733 -0.1466
   57SAPC  C317 4278   5.890   1.290   8.958 -0.5169  0.5881 -0.5776
   57SAPC  H17X 4279   6.000   1.307   8.961  0.0457 -2.4312 -1.1340
   57SAPC  H17Y 4280   5.860   1.273   9.064 -1.1827  1.8788 -0.5414
   57SAPC  C318 4281   5.806   1.404   8.910 -0.5750  0.0605 -0.1080
   57SAPC  H18X 4282   5.838   1.442   8.810  0.1859 -0.0230  0.0960
   57SAPC  H18Y 4283   5.803   1.490   8.980 -0.8280  0.3560 -0.4772
   57SAPC  H18Z 4284   5.702   1.365   8.898 -0.1939 -0.2697 -3.0901
   58SAPC     N 4285   0.373   3.782  11.136  0.5468 -0.1517  0.5776
   58SAPC   C12 4286   0.447   3.710  11.023  0.8993 -1.0434 -0.3902
   58SAPC  H12A 4287   0.380   3.639  10.976 -1.7613  1.1254 -0.1121
   58SAPC  H12B 4288   0.531   3.661  11.070  0.6580 -0.2766  0.9121
   58SAPC   C13 4289   0.443   3.892  11.208 -0.3360  0.1009  0.6777
   58SAPC  H13A 4290   0.530   3.852  11.258 -0.4553 -1.2633 -0.1385
   58SAPC  H13B 4291   0.485   3.960  11.136 -0.9964 -0.5794 -0.3758
   58SAPC  H13C 4292   0.377   3.946  11.275 -1.6817 -0.4750 -0.1264
   58SAPC   C14 4293   0.243   3.844  11.083 -0.2062  0.1519 -0.1558
   58SAPC  H14A 4294   0.169   3.773  11.050  0.0174 -0.7298  1.1833
   58SAPC  H14B 4295   0.201   3.899  11.165  0.0302 -0.6537  0.5227
   58SAPC  H14C 4296   0.266   3.907  10.998 -2.4632  1.8221  0.3932
   58SAPC   C15 4297   0.329   3.687  11.244  0.6082  0.3195 -0.2277
   58SAPC  H15A 4298   0.415   3.630  11.276  1.2374 -0.4959 -3.0742
   58SAPC  H15B 4299   0.285   3.749  11.321 -1.0305  0.8330 -1.5382
   58SAPC  H15C 4300   0.256   3.614  11.213  1.2080 -0.5968  0.4619
   58SAPC   C11 4301   0.483   3.797  10.909 -0.0773 -0.0704 -0.4830
   58SAPC  H11A 4302   0.559   3.740  10.851 -1.4939 -2.0585 -0.4668
   58SAPC  H11B 4303   0.524   3.893  10.948 -4.3879  1.8882 -0.1797
   58SAPC     P 4304   0.394   3.902  10.687 -0.2178  0.0146 -0.0904
   58SAPC   O13 4305   0.267   3.906  10.612  0.2402 -0.0321  0.0198
   58SAPC   O14 4306   0.460   4.033  10.708 -0.0541  0.4460  0.0078
   58SAPC   O12 4307   0.371   3.832  10.827 -0.2213 -0.5436 -0.2568
   58SAPC   O11 4308   0.492   3.800  10.606  0.4755 -0.6621 -0.7014
   58SAPC    C1 4309   0.463   3.663  10.588  0.1042  0.1733  0.1416
   58SAPC    HA 4310   0.541   3.600  10.635 -0.1369 -0.0029  0.3091
   58SAPC    HB 4311   0.359   3.636  10.615  0.4495 -1.4705 -0.0894
   58SAPC    C2 4312   0.473   3.622  10.437 -0.2616  0.3626  1.0516
   58SAPC    HS 4313   0.434   3.519  10.424  1.0518  0.0457 -0.8293
   58SAPC   O21 4314   0.599   3.645  10.380  0.0157 -0.0208  0.2548
   58SAPC   C21 4315   0.701   3.576  10.432 -0.6597  0.6629 -0.0611
   58SAPC   O22 4316   0.692   3.487  10.514  0.3749  0.2039 -0.2292
   58SAPC   C22 4317   0.841   3.616  10.382 -0.4232  0.1566  0.4708
   58SAPC   H2R 4318   0.811   3.676  10.293 -0.6541 -0.5808  0.0373
   58SAPC   H2S 4319   0.893   3.694  10.442  0.7895  0.1974 -0.5849
   58SAPC    C3 4320   0.370   3.700  10.360  0.5359  0.5895 -0.6783
   58SAPC    HX 4321   0.406   3.805  10.361  0.4960  0.6021 -0.2035
   58SAPC    HY 4322   0.272   3.698  10.412  0.8493  1.1106 -0.0442
   58SAPC   O31 4323   0.358   3.653  10.226  0.1199  0.0753 -0.2127
   58SAPC   C31 4324   0.309   3.734  10.139  0.4378  0.4622 -0.1125
   58SAPC   O32 4325   0.249   3.838  10.164  0.1634  0.1443 -0.0619
   58SAPC   C32 4326   0.312   3.668  10.004  0.0545 -0.4411 -0.0063
   58SAPC   H2X 4327   0.223   3.605   9.985 -1.4618  0.3744  3.5519
   58SAPC   H2Y 4328   0.397   3.598   9.989  1.1057  0.8054 -0.0371
   58SAPC   C23 4329   0.941   3.502  10.359 -0.0637 -0.2402  0.2690
   58SAPC   H3R 4330   0.889   3.411  10.321  1.3236 -1.2427  0.6647
   58SAPC   H3S 4331   0.976   3.471  10.460 -1.8406 -0.2397  0.9108
   58SAPC   C24 4332   1.063   3.533  10.270  0.6258  0.1827 -0.0886
   58SAPC   H4R 4333   1.112   3.631  10.294 -0.0545  1.1959 -2.5497
   58SAPC   H4S 4334   1.036   3.541  10.163 -0.2080  0.7298  0.1510
   58SAPC   C25 4335   1.154   3.416  10.271 -0.1791  0.7757  0.8439
   58SAPC   H5R 4336   1.179   3.389  10.375  0.7916  1.1043  0.7061
   58SAPC   C26 4337   1.218   3.351  10.173  0.3081  0.7329  0.7383
   58SAPC   H6R 4338   1.271   3.257  10.198  0.2106 -0.2166 -2.2191
   58SAPC   C27 4339   1.205   3.368  10.022 -0.0553 -0.2878 -0.1790
   58SAPC   H7R 4340   1.101   3.402  10.000  0.0183 -0.8263 -1.4088
   58SAPC   H7S 4341   1.217   3.266   9.980 -1.1756 -0.0467 -1.1355
   58SAPC   C28 4342   1.320   3.457   9.979 -0.9928  0.4452 -0.2676
   58SAPC   H8R 4343   1.406   3.461  10.048 -1.8187 -1.1550  0.9272
   58SAPC   C29 4344   1.327   3.553   9.885  0.5956 -0.0262 -0.8675
   58SAPC   H9R 4345   1.426   3.598   9.868  1.6994 -0.9204  2.5539
   58SAPC  C210 4346   1.226   3.590   9.788 -0.1931 -0.2979  0.4154
   58SAPC  H10R 4347   1.123   3.558   9.815 -0.0416 -0.9824  0.2071
   58SAPC  H10S 4348   1.242   3.520   9.703 -0.6577 -2.7764  2.2912
   58SAPC  C211 4349   1.203   3.732   9.751  0.6328 -0.7893  0.3181
   58SAPC  H11R 4350   1.169   3.795   9.835  1.6826 -1.6020  1.4012
   58SAPC  C212 4351   1.226   3.790   9.630  1.2364  0.3602 -0.0704
   58SAPC  H12R 4352   1.197   3.896   9.627  0.7135  0.3225  2.1808
   58SAPC  C213 4353   1.275   3.731   9.502 -0.0291  0.5643 -0.0940
   58SAPC  H13R 4354   1.257   3.810   9.425  0.1893 -0.0127 -0.7456
   58SAPC  H13S 4355   1.208   3.645   9.478 -1.5024  2.3682 -3.0441
   58SAPC  C214 4356   1.417   3.697   9.496 -0.1740 -0.0229 -0.1412
   58SAPC  H14R 4357   1.476   3.720   9.586  1.8863 -1.6888 -0.9761
   58SAPC  C215 4358   1.477   3.630   9.398 -0.5821  0.7049  0.0857
   58SAPC  H15R 4359   1.585   3.608   9.403 -0.6722  0.3332  0.4263
   58SAPC  C216 4360   1.417   3.575   9.260 -0.7193 -0.4560 -0.9066
   58SAPC  H16R 4361   1.324   3.633   9.241 -1.3701 -0.9485  0.5873
   58SAPC  H16S 4362   1.387   3.469   9.275 -0.0139 -0.3171  2.0553
   58SAPC  C217 4363   1.514   3.579   9.145  0.1151  0.3713 -0.2979
   58SAPC  H17R 4364   1.601   3.511   9.155  1.1842  1.6362 -0.7769
   58SAPC  H17S 4365   1.551   3.683   9.132  2.8354 -0.9091 -5.0968
   58SAPC  C218 4366   1.426   3.538   9.027 -0.5069  0.2933 -0.5449
   58SAPC  H18R 4367   1.335   3.602   9.028 -0.5224  0.2857 -1.0139
   58SAPC  H18S 4368   1.397   3.431   9.033 -0.3069  0.3195  1.5910
   58SAPC  C219 4369   1.490   3.570   8.895  0.1468 -0.0784  0.0630
   58SAPC  H19R 4370   1.577   3.510   8.862 -0.0948 -1.2005  1.3836
   58SAPC  H19S 4371   1.534   3.672   8.896 -0.5651  0.2348 -0.0426
   58SAPC  C220 4372   1.397   3.576   8.771 -0.0148 -0.4153 -0.1778
   58SAPC  H20R 4373   1.453   3.603   8.679 -0.5215  0.4929 -0.2378
   58SAPC  H20S 4374   1.318   3.653   8.787  2.7096  2.7610 -0.8355
   58SAPC  H20T 4375   1.345   3.480   8.752 -1.8779  0.6750 -0.8470
   58SAPC   C33 4376   0.338   3.771   9.892  0.4031 -0.0398 -0.2254
   58SAPC   H3X 4377   0.431   3.831   9.897  0.8421 -0.8262  1.8890
   58SAPC   H3Y 4378   0.253   3.842   9.886  0.8189  0.5503  0.7444
   58SAPC   C34 4379   0.334   3.705   9.753 -0.4062  0.4454 -0.5811
   58SAPC   H4X 4380   0.248   3.635   9.742  1.2947 -1.6035 -1.7400
   58SAPC   H4Y 4381   0.426   3.643   9.746 -0.0690  0.6442  1.3883
   58SAPC   C35 4382   0.336   3.805   9.639  0.2854 -0.3037  0.0392
   58SAPC   H5X 4383   0.432   3.858   9.620  0.1495 -0.2830 -0.6362
   58SAPC   H5Y 4384   0.245   3.864   9.664  0.6032 -0.6746  2.2859
   58SAPC   C36 4385   0.319   3.728   9.502 -0.2600 -0.9409  0.2566
   58SAPC   H6X 4386   0.222   3.677   9.517 -0.3484 -0.3573  1.8794
   58SAPC   H6Y 4387   0.392   3.644   9.493 -1.9526 -2.4055 -0.3389
   58SAPC   C37 4388   0.327   3.826   9.381 -0.6585  0.6353 -0.0441
   58SAPC   H7X 4389   0.312   3.774   9.284  0.0020 -0.0451  0.2128
   58SAPC   H7Y 4390   0.423   3.882   9.382 -0.7158  0.8628 -2.2320
   58SAPC   C38 4391   0.222   3.937   9.394  0.8875  0.3372  0.4098
   58SAPC   H8X 4392   0.236   3.993   9.488 -0.2419 -0.3288  0.9925
   58SAPC   H8Y 4393   0.121   3.891   9.404  1.1401 -0.7315 -1.4654
   58SAPC   C39 4394   0.224   4.039   9.276 -0.4230  0.1300  0.1816
   58SAPC   H9X 4395   0.333   4.048   9.256 -0.3328 -0.8327  0.1932
   58SAPC   H9Y 4396   0.169   4.129   9.312  0.3782 -0.3320  2.7089
   58SAPC  C310 4397   0.151   3.974   9.149 -0.1104 -0.1549 -0.0877
   58SAPC  H10X 4398   0.041   3.987   9.149 -0.1083  0.3699 -2.6758
   58SAPC  H10Y 4399   0.184   3.869   9.141 -0.4801 -0.2810  0.0387
   58SAPC  C311 4400   0.191   4.055   9.017 -0.2443  0.1696 -0.1277
   58SAPC  H11X 4401   0.297   4.027   8.998 -0.6729 -1.4058 -0.3078
   58SAPC  H11Y 4402   0.177   4.163   9.040  2.5385  0.7868 -0.8870
   58SAPC  C312 4403   0.116   4.006   8.894  0.4511  0.0464  0.0035
   58SAPC  H12X 4404   0.022   4.064   8.885  1.6687  2.0099 -0.6441
   58SAPC  H12Y 4405   0.085   3.902   8.920 -0.9509  1.1363  3.2371
   58SAPC  C313 4406   0.206   4.008   8.766 -0.1927  0.1285  0.0890
   58SAPC  H13X 4407   0.268   3.916   8.768 -0.8389 -0.3101  1.3630
   58SAPC  H13Y 4408   0.275   4.094   8.757 -1.3966  1.0817 -0.2814
   58SAPC  C314 4409   0.126   4.012   8.644 -0.3052  0.1471  0.2581
   58SAPC  H14X 4410   0.184   4.016   8.549 -0.8260 -1.6553 -0.1860
   58SAPC  H14Y 4411   0.090   4.116   8.631 -1.0719 -0.1917 -0.4725
   58SAPC  C315 4412   0.007   3.915   8.632 -0.3263  0.1058 -0.1179
   58SAPC  H15X 4413  -0.058   3.931   8.721  0.7117 -1.2023  0.9209
   58SAPC  H15Y 4414   0.034   3.807   8.631 -0.0749  0.1690 -0.2576
   58SAPC  C316 4415  -0.083   3.939   8.513 -0.2634  0.0940  0.2202
   58SAPC  H16X 4416  -0.142   3.846   8.498 -1.9894  0.8883  1.7472
   58SAPC  H16Y 4417  -0.028   3.951   8.418 -0.7097  1.5325  0.1085
   58SAPC  C317 4418  -0.172   4.056   8.539  0.4723 -0.0172  0.3242
   58SAPC  H17X 4419  -0.101   4.142   8.534 -0.5972  0.8999  0.4245
   58SAPC  H17Y 4420  -0.227   4.063   8.635 -0.7483 -1.9656 -0.1852
   58SAPC  C318 4421  -0.269   4.078   8.418 -0.5069  0.3905  0.2795
   58SAPC  H18X 4422  -0.281   4.188   8.408 -2.2389  0.1818 -0.3246
   58SAPC  H18Y 4423  -0.369   4.033   8.436 -1.0847  1.3834 -0.3619
   58SAPC  H18Z 4424  -0.215   4.038   8.330  2.1077 -1.6797  2.6372
   59SAPC     N 4425   2.978   6.063  11.051 -0.1126 -0.0658  0.0224
   59SAPC   C12 4426   2.933   6.185  10.973 -0.2370  0.0383 -0.0454
   59SAPC  H12A 4427   2.949   6.164  10.868 -2.3800 -2.4928  0.0167
   59SAPC  H12B 4428   2.991   6.274  10.992  3.8087 -2.3115 -0.1640
   59SAPC   C13 4429   2.949   6.078  11.198  0.2613  0.1012 -0.4686
   59SAPC  H13A 4430   2.990   5.992  11.250 -0.1717 -1.8197 -3.0812
   59SAPC  H13B 4431   3.000   6.168  11.227  0.5979 -0.2537  0.0546
   59SAPC  H13C 4432   2.843   6.086  11.217  0.4201 -0.0714  0.5424
   59SAPC   C14 4433   2.899   5.944  11.009  0.0193  0.6122 -0.4170
   59SAPC  H14A 4434   2.903   5.935  10.902  0.3964 -0.4958 -0.3181
   59SAPC  H14B 4435   2.904   5.852  11.066  1.3277 -0.0353 -1.5254
   59SAPC  H14C 4436   2.796   5.975  11.021  0.7590  2.0677  5.3657
   59SAPC   C15 4437   3.122   6.036  11.023  0.3486  0.3057 -0.4581
   59SAPC  H15A 4438   3.190   6.107  11.069 -1.7767  0.6068  2.4557
   59SAPC  H15B 4439   3.142   5.940  11.067 -0.6527  0.5220  0.5009
   59SAPC  H15C 4440   3.132   6.034  10.915 -0.2691 -0.3297 -0.5072
   59SAPC   C11 4441   2.787   6.234  10.984  0.5416 -0.0397 -0.2309
   59SAPC  H11A 4442   2.779   6.323  10.917  3.7318  1.5923  1.3110
   59SAPC  H11B 4443   2.765   6.278  11.084 -1.8884 -0.6758 -0.4335
   59SAPC     P 4444   2.542   6.184  10.928 -0.1114  0.2057 -0.1707
   59SAPC   O13 4445   2.473   6.065  10.881 -0.4725 -0.7696 -0.8707
   59SAPC   O14 4446   2.497   6.246  11.057  0.0948 -0.0274  0.2578
   59SAPC   O12 4447   2.695   6.139  10.943  0.4100 -0.2059 -0.3140
   59SAPC   O11 4448   2.561   6.287  10.815  0.6057  0.3282 -0.3213
   59SAPC    C1 4449   2.464   6.378  10.770 -0.0585 -0.5151 -0.0967
   59SAPC    HA 4450   2.357   6.349  10.777 -0.5979  1.0245 -1.4073
   59SAPC    HB 4451   2.482   6.474  10.822  0.4362  0.5593 -2.1562
   59SAPC    C2 4452   2.488   6.403  10.615  0.2723  0.0469  0.3199
   59SAPC    HS 4453   2.413   6.476  10.580 -0.4437 -1.6755 -1.9631
   59SAPC   O21 4454   2.477   6.280  10.532 -0.2650  0.0742 -0.0441
   59SAPC   C21 4455   2.361   6.243  10.494 -0.2455  0.7871 -0.1201
   59SAPC   O22 4456   2.258   6.303  10.508  0.2963  0.1470 -0.7151
   59SAPC   C22 4457   2.372   6.103  10.432 -0.5784  0.1289  0.0838
   59SAPC   H2R 4458   2.428   6.119  10.338 -3.4145  4.2693 -1.1980
   59SAPC   H2S 4459   2.430   6.042  10.504  2.4332 -0.4155 -2.5756
   59SAPC    C3 4460   2.632   6.461  10.593 -0.4626 -0.4240 -0.1386
   59SAPC    HX 4461   2.697   6.378  10.627  1.8031  2.0319  1.9667
   59SAPC    HY 4462   2.654   6.558  10.644  1.6960 -1.3706  0.8467
   59SAPC   O31 4463   2.661   6.474  10.453 -0.6503 -0.2685  0.8340
   59SAPC   C31 4464   2.591   6.573  10.397 -0.6527 -0.0651 -0.6715
   59SAPC   O32 4465   2.501   6.638  10.445 -0.4201 -0.5737 -0.0900
   59SAPC   C32 4466   2.638   6.576  10.253  0.3059  0.1222  0.5761
   59SAPC   H2X 4467   2.581   6.497  10.199  0.7241  1.3564 -1.8027
   59SAPC   H2Y 4468   2.746   6.550  10.252  0.5557  0.8154  2.8505
   59SAPC   C23 4469   2.231   6.033  10.410  0.2245  0.0633 -0.6791
   59SAPC   H3R 4470   2.167   6.053  10.500  2.1072  0.0752  0.7113
   59SAPC   H3S 4471   2.258   5.926  10.398 -2.0439 -0.8071  1.1820
   59SAPC   C24 4472   2.157   6.072  10.283 -0.8969  0.1768 -0.0217
   59SAPC   H4R 4473   2.138   6.181  10.280  0.8971  0.5947  1.8526
   59SAPC   H4S 4474   2.054   6.031  10.286  0.4161 -3.4710 -0.3014
   59SAPC   C25 4475   2.227   6.027  10.157  0.7435  0.2094 -0.0981
   59SAPC   H5R 4476   2.258   5.921  10.158  0.4099  0.0920 -0.9082
   59SAPC   C26 4477   2.256   6.101  10.046  0.3135 -0.3838 -0.8629
   59SAPC   H6R 4478   2.291   6.039   9.962 -0.9407 -1.2335 -0.7807
   59SAPC   C27 4479   2.239   6.250  10.029  0.5350 -0.9385 -0.4867
   59SAPC   H7R 4480   2.231   6.304  10.126 -2.7465  0.2517 -1.2934
   59SAPC   H7S 4481   2.152   6.289   9.971  0.7944  0.0105 -0.2451
   59SAPC   C28 4482   2.369   6.290   9.962 -0.4376  0.6832  0.1837
   59SAPC   H8R 4483   2.456   6.288  10.029 -1.0013 -1.2741  0.9141
   59SAPC   C29 4484   2.387   6.327   9.834 -0.5484  0.3391  0.0751
   59SAPC   H9R 4485   2.485   6.346   9.790 -0.8396  0.9039 -0.3442
   59SAPC  C210 4486   2.285   6.343   9.727  0.4839  0.4702  0.4439
   59SAPC  H10R 4487   2.215   6.423   9.760  0.4583  0.4967  0.3287
   59SAPC  H10S 4488   2.216   6.256   9.728  0.3226  0.5883  0.0479
   59SAPC  C211 4489   2.333   6.353   9.584 -0.5136 -0.0476  0.0661
   59SAPC  H11R 4490   2.381   6.451   9.567 -1.7878  0.5431 -0.2078
   59SAPC  C212 4491   2.333   6.273   9.476  0.3490  0.1589 -0.7116
   59SAPC  H12R 4492   2.361   6.316   9.379  1.9075  0.8227 -0.0011
   59SAPC  C213 4493   2.254   6.145   9.480  0.2013  0.3649 -0.2059
   59SAPC  H13R 4494   2.186   6.124   9.566  0.5698 -0.9698 -0.2244
   59SAPC  H13S 4495   2.323   6.059   9.480  0.6450  0.7133  0.4384
   59SAPC  C214 4496   2.161   6.153   9.357 -0.0291 -0.2851 -0.1800
   59SAPC  H14R 4497   2.068   6.211   9.376  2.1474  2.9850  1.5730
   59SAPC  C215 4498   2.188   6.110   9.229  0.3749  0.8330 -0.7955
   59SAPC  H15R 4499   2.104   6.105   9.158 -0.5244  0.7177  0.2425
   59SAPC  C216 4500   2.316   6.044   9.181 -0.1537  0.1390  0.5519
   59SAPC  H16R 4501   2.294   5.939   9.153  3.3223 -0.9832  1.5204
   59SAPC  H16S 4502   2.382   6.023   9.268  1.4018 -0.3339 -0.6873
   59SAPC  C217 4503   2.369   6.126   9.065  0.8226 -1.0313 -0.3467
   59SAPC  H17R 4504   2.473   6.089   9.052  1.1742 -0.2991  0.3188
   59SAPC  H17S 4505   2.394   6.232   9.084 -2.3791 -0.4694  1.4185
   59SAPC  C218 4506   2.300   6.112   8.928 -0.2801  0.3138 -0.2405
   59SAPC  H18R 4507   2.354   6.187   8.866  1.6661 -0.5790  0.2675
   59SAPC  H18S 4508   2.193   6.139   8.940  0.4207  2.3298  2.3235
   59SAPC  C219 4509   2.319   5.971   8.870 -0.4061  0.1897  0.5450
   59SAPC  H19R 4510   2.286   5.887   8.935  1.3370 -1.0586 -0.0932
   59SAPC  H19S 4511   2.428   5.952   8.878 -0.6090 -0.2472  2.8717
   59SAPC  C220 4512   2.270   5.950   8.725  0.6529 -0.2757  0.0983
   59SAPC  H20R 4513   2.316   6.031   8.664 -0.0477 -0.7489 -1.0978
   59SAPC  H20S 4514   2.159   5.961   8.725  0.4664 -1.4727 -1.8888
   59SAPC  H20T 4515   2.304   5.849   8.691 -0.1957 -1.0713  1.5179
   59SAPC   C33 4516   2.609   6.715  10.184  0.1383  0.5058  0.1900
   59SAPC   H3X 4517   2.679   6.792  10.222  0.0426 -0.2383  1.9911
   59SAPC   H3Y 4518   2.506   6.747  10.210 -0.8382 -1.2567 -1.2759
   59SAPC   C34 4519   2.620   6.707  10.032 -0.1081 -0.3211 -0.4280
   59SAPC   H4X 4520   2.538   6.646   9.989  0.5647 -0.8805 -0.9480
   59SAPC   H4Y 4521   2.717   6.673   9.991  0.8152  2.3691 -0.6580
   59SAPC   C35 4522   2.614   6.854   9.973  0.1295  1.0469 -0.2638
   59SAPC   H5X 4523   2.703   6.905  10.015  1.5002 -2.7104  1.8680
   59SAPC   H5Y 4524   2.527   6.915  10.006 -1.8820 -0.5174 -2.3312
   59SAPC   C36 4525   2.639   6.851   9.825 -0.1652 -0.8982  1.5647
   59SAPC   H6X 4526   2.552   6.808   9.772  1.3379 -0.1448 -1.7592
   59SAPC   H6Y 4527   2.731   6.790   9.810  0.6528  0.3042  1.6032
   59SAPC   C37 4528   2.655   7.000   9.772 -0.6607  0.2546  0.0709
   59SAPC   H7X 4529   2.742   7.049   9.822 -0.8742  1.5725 -0.7903
   59SAPC   H7Y 4530   2.569   7.065   9.800  0.3504  1.5318  0.3371
   59SAPC   C38 4531   2.676   6.993   9.621 -0.1289 -0.0569 -0.0006
   59SAPC   H8X 4532   2.617   6.909   9.577 -1.0372  0.8422 -0.5595
   59SAPC   H8Y 4533   2.784   6.979   9.603 -0.0695  1.6584 -1.2944
   59SAPC   C39 4534   2.640   7.125   9.556  0.3898  0.6644  0.7142
   59SAPC   H9X 4535   2.717   7.196   9.592  0.6491 -0.8733  3.4486
   59SAPC   H9Y 4536   2.543   7.161   9.595 -1.6736 -2.9854 -0.5230
   59SAPC  C310 4537   2.633   7.118   9.400  0.0529  0.2583  0.0382
   59SAPC  H10X 4538   2.555   7.044   9.372 -0.7212  0.5193  1.3789
   59SAPC  H10Y 4539   2.735   7.084   9.376  0.6673  1.2912  1.0525
   59SAPC  C311 4540   2.615   7.251   9.332  0.1592 -0.5783 -0.3567
   59SAPC  H11X 4541   2.684   7.316   9.389 -2.5448 -0.0322  2.5831
   59SAPC  H11Y 4542   2.517   7.304   9.335  1.0933  1.2805 -1.0470
   59SAPC  C312 4543   2.667   7.224   9.186  0.2543 -0.0293 -0.1296
   59SAPC  H12X 4544   2.623   7.130   9.147  3.1643 -0.0594 -3.8584
   59SAPC  H12Y 4545   2.776   7.207   9.186  0.7157  2.3086 -2.2760
   59SAPC  C313 4546   2.625   7.327   9.087 -0.3883 -0.4687 -0.0630
   59SAPC  H13X 4547   2.621   7.430   9.129  3.9113  0.1295 -0.6888
   59SAPC  H13Y 4548   2.527   7.306   9.040 -0.8691 -0.4014  0.8792
   59SAPC  C314 4549   2.716   7.337   8.963  0.3800 -0.8373 -0.2579
   59SAPC  H14X 4550   2.721   7.237   8.913  2.5072 -1.7256  1.5534
   59SAPC  H14Y 4551   2.821   7.359   8.993  0.4928 -1.4379 -0.1853
   59SAPC  C315 4552   2.668   7.446   8.862 -0.0663 -0.7168 -0.0402
   59SAPC  H15X 4553   2.676   7.533   8.929 -2.3284 -1.8668  1.8455
   59SAPC  H15Y 4554   2.563   7.419   8.838  0.1006 -1.7229  0.2789
   59SAPC  C316 4555   2.762   7.459   8.740  0.2325  1.0177 -0.1685
   59SAPC  H16X 4556   2.858   7.408   8.765 -0.7779 -0.3015  1.1837
   59SAPC  H16Y 4557   2.774   7.567   8.716 -0.0564  0.8678 -1.0345
   59SAPC  C317 4558   2.704   7.394   8.613 -0.2921 -0.7634  0.0632
   59SAPC  H17X 4559   2.653   7.477   8.560  1.1673  1.6602  2.1986
   59SAPC  H17Y 4560   2.621   7.325   8.640 -0.5748 -0.1490  0.8039
   59SAPC  C318 4561   2.812   7.326   8.533 -0.1553 -0.1161 -0.6354
   59SAPC  H18X 4562   2.785   7.285   8.433 -0.2828  0.6658 -0.9361
   59SAPC  H18Y 4563   2.849   7.244   8.597 -0.1873  1.4429  1.4743
   59SAPC  H18Z 4564   2.901   7.391   8.516  0.3571 -1.1238 -2.0834
   60SAPC     N 4565   3.654   2.754  10.842 -0.6187  0.4905  0.4635
   60SAPC   C12 4566   3.670   2.605  10.839  0.4310 -1.0649  0.1828
   60SAPC  H12A 4567   3.733   2.578  10.754 -0.3407 -2.1295 -0.0773
   60SAPC  H12B 4568   3.574   2.561  10.819 -0.5554  0.9019  0.4144
   60SAPC   C13 4569   3.604   2.798  10.705 -0.0895  0.1607 -0.9470
   60SAPC  H13A 4570   3.504   2.762  10.685 -0.4734  0.3898  0.4548
   60SAPC  H13B 4571   3.595   2.905  10.692 -1.4018  0.1739 -0.1596
   60SAPC  H13C 4572   3.665   2.759  10.625 -0.1611  1.7951 -1.8420
   60SAPC   C14 4573   3.554   2.802  10.943  0.1683  0.1045 -0.6346
   60SAPC  H14A 4574   3.582   2.754  11.035  0.9776 -0.4304 -1.1405
   60SAPC  H14B 4575   3.545   2.909  10.934 -0.7491 -0.0580 -1.9049
   60SAPC  H14C 4576   3.462   2.752  10.916  0.7231 -1.7035  0.6275
   60SAPC   C15 4577   3.778   2.832  10.865  0.4839 -0.9511  0.8328
   60SAPC  H15A 4578   3.816   2.820  10.965  0.9494 -0.8347  0.6744
   60SAPC  H15B 4579   3.860   2.811  10.797  0.7552  0.9817  0.5027
   60SAPC  H15C 4580   3.752   2.933  10.840  0.1140 -1.2791 -0.1503
   60SAPC   C11 4581   3.727   2.533  10.971 -0.4202 -0.6983  0.6929
   60SAPC  H11A 4582   3.697   2.426  10.970  0.4271 -1.0046  2.8512
   60SAPC  H11B 4583   3.679   2.576  11.061  1.0849 -0.8454  1.5968
   60SAPC     P 4584   3.977   2.492  10.895 -0.1537 -0.1089  0.0794
   60SAPC   O13 4585   4.112   2.548  10.927 -0.0682 -0.0828 -0.0118
   60SAPC   O14 4586   3.965   2.347  10.905  0.1644  0.4468  0.2758
   60SAPC   O12 4587   3.863   2.566  10.982  0.1526  0.5232  0.5290
   60SAPC   O11 4588   3.931   2.525  10.744  0.1195  0.3775  0.5131
   60SAPC    C1 4589   4.023   2.505  10.630  0.1371  1.0520 -0.2165
   60SAPC    HA 4590   4.108   2.577  10.640  1.7636 -0.8636  0.5330
   60SAPC    HB 4591   4.074   2.406  10.628  1.4710  1.4925  3.4559
   60SAPC    C2 4592   3.957   2.563  10.506 -0.5696 -0.2468  0.3011
   60SAPC    HS 4593   3.930   2.665  10.539  1.4186  0.3251  0.3155
   60SAPC   O21 4594   3.842   2.486  10.469  0.0446 -0.1828 -0.7445
   60SAPC   C21 4595   3.734   2.559  10.443 -0.0277  0.1525  0.3809
   60SAPC   O22 4596   3.715   2.672  10.461  0.5707 -1.0392  0.0968
   60SAPC   C22 4597   3.633   2.463  10.383 -0.1118 -0.2279 -0.3264
   60SAPC   H2R 4598   3.675   2.435  10.284  2.0444 -0.4213  0.5742
   60SAPC   H2S 4599   3.640   2.366  10.438  2.9703  0.4378  0.6460
   60SAPC    C3 4600   4.069   2.562  10.398  0.0027  0.6704  0.2371
   60SAPC    HX 4601   4.104   2.459  10.374 -1.5799 -0.3040  1.9000
   60SAPC    HY 4602   4.156   2.612  10.445 -1.7604  3.9576  0.2984
   60SAPC   O31 4603   4.025   2.625  10.273  0.2494 -0.1052 -0.6824
   60SAPC   C31 4604   4.035   2.759  10.276  0.0486  0.3333 -0.2296
   60SAPC   O32 4605   4.085   2.827  10.364 -0.4399  0.1189 -0.3017
   60SAPC   C32 4606   4.016   2.808  10.140  0.0571  0.1415 -0.0645
   60SAPC   H2X 4607   4.014   2.717  10.077  0.8974 -0.2877  0.5086
   60SAPC   H2Y 4608   4.098   2.879  10.118 -0.3425  0.2144 -1.3861
   60SAPC   C23 4609   3.480   2.515  10.375 -0.0071  0.4078 -0.3438
   60SAPC   H3R 4610   3.474   2.589  10.457  4.1034 -0.4323  0.9136
   60SAPC   H3S 4611   3.416   2.429  10.405  0.3889  0.7051  1.4408
   60SAPC   C24 4612   3.430   2.568  10.239  0.1792 -0.3545  0.8286
   60SAPC   H4R 4613   3.333   2.620  10.254  0.9963  1.6702 -0.5428
   60SAPC   H4S 4614   3.418   2.487  10.164  1.5224  0.7635 -0.6715
   60SAPC   C25 4615   3.524   2.676  10.178 -0.6678  0.6374 -0.4159
   60SAPC   H5R 4616   3.582   2.730  10.255 -1.6479  0.8407  0.1924
   60SAPC   C26 4617   3.560   2.681  10.050 -0.5535 -0.6034  0.4523
   60SAPC   H6R 4618   3.633   2.755  10.014 -1.0038 -0.7410 -0.8059
   60SAPC   C27 4619   3.505   2.602   9.933  0.3631  0.6073  0.4332
   60SAPC   H7R 4620   3.443   2.514   9.961  2.4786 -1.0118  0.2996
   60SAPC   H7S 4621   3.592   2.551   9.886  1.2280  0.6692  1.9065
   60SAPC   C28 4622   3.425   2.682   9.835 -0.3376 -0.0388 -0.4011
   60SAPC   H8R 4623   3.342   2.730   9.889 -0.5460  0.5073 -1.1937
   60SAPC   C29 4624   3.442   2.699   9.704 -0.2958 -0.3655  0.0055
   60SAPC   H9R 4625   3.375   2.765   9.645  0.8363  0.9596  0.1617
   60SAPC  C210 4626   3.548   2.635   9.616  0.5022  0.5509 -0.9313
   60SAPC  H10R 4627   3.644   2.638   9.672 -0.4520 -0.7126  0.8764
   60SAPC  H10S 4628   3.571   2.694   9.524  1.4416  0.8393 -0.5217
   60SAPC  C211 4629   3.532   2.491   9.584 -0.0261  0.0587 -0.5311
   60SAPC  H11R 4630   3.568   2.420   9.660 -1.5256  0.3300  0.4938
   60SAPC  C212 4631   3.443   2.441   9.496 -0.4822  0.1817 -0.4047
   60SAPC  H12R 4632   3.431   2.335   9.469 -0.2040  0.6521 -2.5257
   60SAPC  C213 4633   3.351   2.516   9.398 -0.2388  0.4412  0.2148
   60SAPC  H13R 4634   3.410   2.585   9.334  1.4221 -1.6913 -0.6569
   60SAPC  H13S 4635   3.278   2.583   9.449 -2.1597 -2.9565  2.3125
   60SAPC  C214 4636   3.277   2.420   9.300  0.4674  0.3899 -0.7129
   60SAPC  H14R 4637   3.202   2.354   9.346  1.6335 -1.8840 -1.8975
   60SAPC  C215 4638   3.262   2.426   9.168 -0.1067  1.0536  0.3709
   60SAPC  H15R 4639   3.222   2.338   9.116  1.6346 -0.3314  1.2930
   60SAPC  C216 4640   3.315   2.532   9.082 -0.4909  0.8576 -0.4284
   60SAPC  H16R 4641   3.322   2.625   9.142 -0.5271  1.7158 -1.7156
   60SAPC  H16S 4642   3.248   2.542   8.994  1.2125 -1.4897 -2.1381
   60SAPC  C217 4643   3.459   2.495   9.042 -0.0207  0.0824  0.1430
   60SAPC  H17R 4644   3.521   2.435   9.112  1.5187 -0.3420 -1.5191
   60SAPC  H17S 4645   3.512   2.593   9.036  0.9734 -0.3455  1.4924
   60SAPC  C218 4646   3.454   2.420   8.905 -0.1427 -0.2063 -0.2473
   60SAPC  H18R 4647   3.399   2.493   8.842  1.5961  1.9019  0.5628
   60SAPC  H18S 4648   3.405   2.320   8.914 -2.2921  0.8811  1.0701
   60SAPC  C219 4649   3.595   2.409   8.850 -0.7364 -0.0584 -0.4280
   60SAPC  H19R 4650   3.656   2.363   8.931 -1.8325 -0.6499  0.0827
   60SAPC  H19S 4651   3.638   2.510   8.835 -0.3396 -0.2249 -0.4175
   60SAPC  C220 4652   3.599   2.320   8.729  0.3707 -0.1230  0.1293
   60SAPC  H20R 4653   3.694   2.294   8.679 -2.1948 -2.5246 -4.1099
   60SAPC  H20S 4654   3.530   2.364   8.654 -3.2021 -2.2474  1.8798
   60SAPC  H20T 4655   3.551   2.221   8.746 -1.1422  0.4957 -0.3619
   60SAPC   C33 4656   3.882   2.888  10.124 -0.2459  0.2429  0.5489
   60SAPC   H3X 4657   3.873   2.968  10.201 -1.9132 -0.4361  1.0980
   60SAPC   H3Y 4658   3.802   2.814  10.145  0.4745 -0.7030  0.0639
   60SAPC   C34 4659   3.850   2.947   9.982 -0.0391  0.4395 -0.9665
   60SAPC   H4X 4660   3.918   3.034   9.973 -0.1828  0.7979  0.9970
   60SAPC   H4Y 4661   3.750   2.994   9.981  0.0977  1.4652  4.4240
   60SAPC   C35 4662   3.873   2.850   9.871  0.0568  0.1494 -0.1590
   60SAPC   H5X 4663   3.820   2.753   9.879  0.3204  0.0438  0.3387
   60SAPC   H5Y 4664   3.978   2.815   9.879 -0.2621 -0.8370 -0.1600
   60SAPC   C36 4665   3.834   2.900   9.736 -0.4007 -0.4279 -0.7319
   60SAPC   H6X 4666   3.876   3.001   9.714  2.0472 -1.4336 -1.0301
   60SAPC   H6Y 4667   3.723   2.899   9.736 -0.4010 -1.0500  0.0052
   60SAPC   C37 4668   3.889   2.806   9.625  0.6996 -0.8437  0.4108
   60SAPC   H7X 4669   3.843   2.837   9.528 -0.5717  1.9416  1.7843
   60SAPC   H7Y 4670   3.851   2.710   9.664 -0.3518 -0.7326 -0.2793
   60SAPC   C38 4671   4.036   2.811   9.592  0.6336 -0.3707  0.0377
   60SAPC   H8X 4672   4.093   2.796   9.687  1.0492  0.1774 -0.1165
   60SAPC   H8Y 4673   4.070   2.910   9.557 -0.1488 -0.1931 -0.2238
   60SAPC   C39 4674   4.081   2.694   9.503 -0.0729 -0.4177  0.1089
   60SAPC   H9X 4675   4.083   2.591   9.545 -0.5339 -1.0270 -1.3164
   60SAPC   H9Y 4676   4.188   2.716   9.484 -0.6604  2.3539 -0.3644
   60SAPC  C310 4677   4.010   2.690   9.368  0.6052  0.5477  0.1258
   60SAPC  H10X 4678   3.997   2.791   9.321 -0.4884  0.7150  0.7538
   60SAPC  H10Y 4679   3.908   2.649   9.378 -0.9680  3.6555 -1.3717
   60SAPC  C311 4680   4.091   2.612   9.259  0.6670 -0.0356  0.1874
   60SAPC  H11X 4681   4.128   2.515   9.299  2.3923  0.1804 -0.7945
   60SAPC  H11Y 4682   4.192   2.655   9.239  1.1655 -1.3550 -0.2497
   60SAPC  C312 4683   4.020   2.589   9.129  0.3743 -0.2812 -0.5243
   60SAPC  H12X 4684   4.005   2.687   9.080  0.6707  0.3361  0.5883
   60SAPC  H12Y 4685   3.916   2.552   9.146  0.1338  0.7328  0.3687
   60SAPC  C313 4686   4.090   2.494   9.031  0.0366  0.1421  0.6555
   60SAPC  H13X 4687   4.086   2.394   9.080  1.7010 -0.4226 -0.2853
   60SAPC  H13Y 4688   4.193   2.532   9.018  0.3326 -0.6061  0.7415
   60SAPC  C314 4689   4.030   2.482   8.900  0.2250  1.0207 -0.1372
   60SAPC  H14X 4690   4.046   2.576   8.842  0.4326  0.4339 -1.0627
   60SAPC  H14Y 4691   3.921   2.467   8.912  0.6390 -1.8065  0.8050
   60SAPC  C315 4692   4.081   2.376   8.799  0.6288  0.1767 -0.1460
   60SAPC  H15X 4693   4.066   2.278   8.849 -0.3049  0.3619 -0.0560
   60SAPC  H15Y 4694   4.191   2.385   8.782  0.9797 -2.3302  0.4210
   60SAPC  C316 4695   4.014   2.388   8.656  0.0916 -1.1277  0.4426
   60SAPC  H16X 4696   4.021   2.495   8.626 -0.8627 -1.3233 -0.5684
   60SAPC  H16Y 4697   3.908   2.356   8.641 -0.2364  1.2691 -4.4336
   60SAPC  C317 4698   4.099   2.314   8.558 -0.6779  0.1422  0.0934
   60SAPC  H17X 4699   4.126   2.216   8.602 -0.4145  0.7028  1.2201
   60SAPC  H17Y 4700   4.201   2.357   8.546 -0.7161  0.2480  0.1523
   60SAPC  C318 4701   4.042   2.309   8.419 -0.1486 -0.0413  0.2914
   60SAPC  H18X 4702   4.048   2.407   8.369 -0.7604 -0.9773 -1.6963
   60SAPC  H18Y 4703   3.935   2.281   8.424 -0.4075  0.6601 -1.0765
   60SAPC  H18Z 4704   4.096   2.233   8.359 -0.6763 -0.4191  0.2917
   61SAPC     N 4705   4.639   2.715  11.387  0.5005  0.4991  0.0954
   61SAPC   C12 4706   4.648   2.633  11.260 -0.3650 -0.0340  0.2549
   61SAPC  H12A 4707   4.568   2.647  11.189 -0.5815 -0.2467  0.4568
   61SAPC  H12B 4708   4.662   2.529  11.287  0.6255 -0.1230 -0.5268
   61SAPC   C13 4709   4.757   2.695  11.478 -0.4074  0.3651 -0.8878
   61SAPC  H13A 4710   4.850   2.729  11.435 -1.3386  0.4653 -2.9847
   61SAPC  H13B 4711   4.741   2.736  11.576 -2.1184 -1.2291 -0.4373
   61SAPC  H13C 4712   4.764   2.592  11.507 -0.3460  0.7986  0.7140
   61SAPC   C14 4713   4.626   2.858  11.355  0.9456 -0.0855 -0.2732
   61SAPC  H14A 4714   4.552   2.880  11.279  0.7950 -0.3478 -0.2026
   61SAPC  H14B 4715   4.615   2.915  11.446 -2.6312 -4.7742  2.6721
   61SAPC  H14C 4716   4.719   2.887  11.309 -0.0459  0.3833 -2.0942
   61SAPC   C15 4717   4.513   2.664  11.453 -0.1517  0.3500 -0.6120
   61SAPC  H15A 4718   4.426   2.698  11.400  0.4287  1.3357 -0.9623
   61SAPC  H15B 4719   4.517   2.556  11.459  1.4513  0.3420 -1.1812
   61SAPC  H15C 4720   4.513   2.699  11.555 -1.9995  1.0999 -0.8362
   61SAPC   C11 4721   4.771   2.662  11.168  0.6353  0.3648  0.4621
   61SAPC  H11A 4722   4.865   2.678  11.225  0.1496  0.3675  1.2640
   61SAPC  H11B 4723   4.751   2.752  11.104  0.8837  0.6392  0.7664
   61SAPC     P 4724   4.738   2.477  10.979 -0.2785  0.4386 -0.6320
   61SAPC   O13 4725   4.794   2.344  10.956  0.3017 -0.2120  0.2431
   61SAPC   O14 4726   4.588   2.477  10.994  0.1056 -0.5291 -0.1847
   61SAPC   O12 4727   4.800   2.539  11.103 -0.8033  0.4077 -0.0274
   61SAPC   O11 4728   4.773   2.567  10.857 -0.1177 -0.4134 -0.8437
   61SAPC    C1 4729   4.912   2.586  10.826 -0.5723  0.4446  0.0632
   61SAPC    HA 4730   4.962   2.659  10.894 -0.0104  1.6556 -1.5979
   61SAPC    HB 4731   4.969   2.492  10.838  2.3693  1.8827 -1.6174
   61SAPC    C2 4732   4.925   2.638  10.685 -0.1961  0.1210 -0.6319
   61SAPC    HS 4733   5.032   2.637  10.655  0.0708  0.9337  0.2312
   61SAPC   O21 4734   4.874   2.774  10.678  0.1562 -0.0938 -0.2145
   61SAPC   C21 4735   4.962   2.873  10.710 -0.0049 -0.2096  0.7236
   61SAPC   O22 4736   5.073   2.856  10.748  0.7051  0.2548 -0.3811
   61SAPC   C22 4737   4.904   3.009  10.670  0.0312 -0.5716 -0.2111
   61SAPC   H2R 4738   4.854   3.011  10.571  1.6504 -2.6167 -1.1397
   61SAPC   H2S 4739   4.831   3.025  10.752  1.9408  0.8745  1.2796
   61SAPC    C3 4740   4.839   2.548  10.587 -0.1993 -0.8640  0.1804
   61SAPC    HX 4741   4.730   2.561  10.603 -0.0890  1.9315 -0.8588
   61SAPC    HY 4742   4.873   2.444  10.611  1.1525 -0.1668  1.4587
   61SAPC   O31 4743   4.860   2.585  10.450 -0.2628  0.1653 -0.1089
   61SAPC   C31 4744   4.961   2.530  10.387  0.3486 -0.0751  0.1227
   61SAPC   O32 4745   5.035   2.445  10.434 -0.3256 -0.4771 -0.5381
   61SAPC   C32 4746   4.980   2.587  10.243 -0.1016 -0.0205 -0.0258
   61SAPC   H2X 4747   5.001   2.696  10.251  0.6321 -0.1755  0.3251
   61SAPC   H2Y 4748   4.890   2.566  10.182  1.8894 -1.8243 -2.5844
   61SAPC   C23 4749   5.010   3.127  10.654 -0.0611 -0.5567  0.4038
   61SAPC   H3R 4750   5.099   3.086  10.602 -0.0276 -0.4719  0.3934
   61SAPC   H3S 4751   5.048   3.144  10.757  0.8560  2.3553 -0.3172
   61SAPC   C24 4752   4.942   3.255  10.599  0.4074 -0.0156  0.1585
   61SAPC   H4R 4753   4.857   3.288  10.662 -0.4481 -1.1286 -0.3840
   61SAPC   H4S 4754   4.897   3.250  10.497  1.0103  2.9309 -0.3329
   61SAPC   C25 4755   5.041   3.366  10.599  0.3328 -0.4051 -0.0285
   61SAPC   H5R 4756   5.047   3.421  10.694 -1.4394 -1.2176  0.6030
   61SAPC   C26 4757   5.137   3.387  10.512  0.1177 -0.3881 -0.0504
   61SAPC   H6R 4758   5.210   3.460  10.550 -1.9471  1.0126  1.4934
   61SAPC   C27 4759   5.174   3.308  10.383 -0.6541 -0.0030 -0.2343
   61SAPC   H7R 4760   5.199   3.203  10.407 -0.3836 -0.0752 -0.8193
   61SAPC   H7S 4761   5.274   3.354  10.363  0.0770 -0.9235  1.1069
   61SAPC   C28 4762   5.077   3.308  10.270  0.2151 -1.1596  0.1247
   61SAPC   H8R 4763   4.970   3.288  10.286  0.2547 -0.4154  1.4958
   61SAPC   C29 4764   5.102   3.332  10.139 -0.1681 -0.3880 -1.0783
   61SAPC   H9R 4765   5.010   3.353  10.082 -2.2384  0.4850  2.3463
   61SAPC  C210 4766   5.227   3.375  10.068  0.5978  0.6455 -0.0532
   61SAPC  H10R 4767   5.250   3.311   9.981  2.0538  0.6295  0.3120
   61SAPC  H10S 4768   5.316   3.377  10.135  0.5916  2.7402 -0.0202
   61SAPC  C211 4769   5.212   3.514  10.020  0.4122 -0.4442  1.3278
   61SAPC  H11R 4770   5.233   3.590  10.097 -0.0148  0.2823  0.7429
   61SAPC  C212 4771   5.171   3.559   9.898 -0.3548 -0.1281 -0.5235
   61SAPC  H12R 4772   5.189   3.667   9.887  1.4927 -0.3074  0.3139
   61SAPC  C213 4773   5.119   3.476   9.783  0.3978 -0.2741  0.0524
   61SAPC  H13R 4774   5.048   3.540   9.726  1.6891  3.2134  2.0607
   61SAPC  H13S 4775   5.062   3.395   9.834  0.6087  0.1288  0.9324
   61SAPC  C214 4776   5.216   3.423   9.685  0.2588 -0.2489  0.5325
   61SAPC  H14R 4777   5.307   3.377   9.723  1.7872  0.3683 -2.0905
   61SAPC  C215 4778   5.208   3.441   9.548  0.4857 -0.1956 -0.3601
   61SAPC  H15R 4779   5.286   3.393   9.487  1.3752 -1.2940  1.5661
   61SAPC  C216 4780   5.103   3.512   9.469 -0.1752  0.6262  1.1831
   61SAPC  H16R 4781   5.019   3.546   9.532 -1.5855 -0.4621 -0.0412
   61SAPC  H16S 4782   5.067   3.442   9.390  1.0545  1.2177  0.0443
   61SAPC  C217 4783   5.142   3.643   9.393 -0.5133  0.2212 -0.1612
   61SAPC  H17R 4784   5.056   3.655   9.323 -0.0310  0.5514 -0.7000
   61SAPC  H17S 4785   5.236   3.628   9.336  0.2857  0.7694  0.9729
   61SAPC  C218 4786   5.159   3.774   9.477 -0.5650  0.6130  0.1867
   61SAPC  H18R 4787   5.206   3.849   9.409 -0.8553 -0.6943 -1.5077
   61SAPC  H18S 4788   5.227   3.755   9.564 -0.9419  1.5963  0.7202
   61SAPC  C219 4789   5.027   3.819   9.519 -0.4970  0.6721 -0.2842
   61SAPC  H19R 4790   4.979   3.745   9.587  0.7605 -0.3376 -0.4560
   61SAPC  H19S 4791   4.957   3.822   9.433  0.0921 -0.6312 -0.8303
   61SAPC  C220 4792   5.028   3.956   9.584 -0.2635 -0.2276 -0.4440
   61SAPC  H20R 4793   5.068   4.032   9.514  0.7323  0.6266  0.9850
   61SAPC  H20S 4794   5.098   3.954   9.670  0.1391  0.8612 -0.7264
   61SAPC  H20T 4795   4.927   3.982   9.622 -1.0960 -3.7882  0.1241
   61SAPC   C33 4796   5.099   2.507  10.174 -0.8614  0.0834  0.0720
   61SAPC   H3X 4797   5.083   2.397  10.170 -1.1027  0.1436 -2.6166
   61SAPC   H3Y 4798   5.199   2.515  10.221  0.1309 -1.4886 -1.6337
   61SAPC   C34 4799   5.115   2.551  10.030 -0.2288 -0.5486 -0.1213
   61SAPC   H4X 4800   5.099   2.661  10.024  1.1211 -0.0968  2.6920
   61SAPC   H4Y 4801   5.036   2.499   9.972 -1.0566  0.5798 -0.0484
   61SAPC   C35 4802   5.259   2.518   9.978  0.1097  0.6492 -0.0872
   61SAPC   H5X 4803   5.285   2.411   9.991 -0.8620  0.4384  0.2603
   61SAPC   H5Y 4804   5.339   2.569  10.036  1.3596  0.4995 -1.6356
   61SAPC   C36 4805   5.287   2.550   9.828  0.3664  0.2024  0.1512
   61SAPC   H6X 4806   5.250   2.466   9.764 -0.4451 -1.8287  3.0960
   61SAPC   H6Y 4807   5.398   2.547   9.818  0.5976  3.1746  0.8361
   61SAPC   C37 4808   5.237   2.687   9.787  0.7634  0.7009 -0.0171
   61SAPC   H7X 4809   5.236   2.753   9.876 -2.5296  4.9410 -2.7781
   61SAPC   H7Y 4810   5.133   2.682   9.749  1.0195 -3.5395 -0.6723
   61SAPC   C38 4811   5.321   2.752   9.684 -0.1662  0.1475 -0.3088
   61SAPC   H8X 4812   5.422   2.774   9.725 -0.2460 -0.8470  0.4536
   61SAPC   H8Y 4813   5.271   2.849   9.661  2.6833  2.5031  2.5353
   61SAPC   C39 4814   5.334   2.677   9.552 -0.0767 -0.2106  0.5168
   61SAPC   H9X 4815   5.230   2.641   9.532  0.2003 -0.0076 -1.5081
   61SAPC   H9Y 4816   5.387   2.579   9.552  1.5246  0.5806 -1.6071
   61SAPC  C310 4817   5.384   2.759   9.438 -0.0465 -0.1884  0.2228
   61SAPC  H10X 4818   5.479   2.806   9.469  1.3537  0.8222 -4.7277
   61SAPC  H10Y 4819   5.311   2.842   9.421 -0.4797 -0.5845  0.1200
   61SAPC  C311 4820   5.422   2.679   9.313 -0.0695  0.1944 -0.0961
   61SAPC  H11X 4821   5.363   2.586   9.309 -0.8438  0.6580  0.3241
   61SAPC  H11Y 4822   5.530   2.652   9.319  0.1535  1.2956  1.8453
   61SAPC  C312 4823   5.399   2.759   9.183 -0.2459  0.1760 -0.2223
   61SAPC  H12X 4824   5.464   2.848   9.191 -1.9000  1.2831  2.0010
   61SAPC  H12Y 4825   5.291   2.784   9.184 -0.4470 -0.5890 -0.9872
   61SAPC  C313 4826   5.450   2.670   9.066  0.1772 -0.0167  0.1300
   61SAPC  H13X 4827   5.394   2.574   9.071 -0.3403  0.1740 -1.4352
   61SAPC  H13Y 4828   5.559   2.659   9.081  0.0661  0.0273  1.0074
   61SAPC  C314 4829   5.416   2.734   8.932 -0.1300  0.0527  0.1029
   61SAPC  H14X 4830   5.474   2.827   8.913 -4.3661  3.0482  0.2579
   61SAPC  H14Y 4831   5.312   2.774   8.927  0.3913  1.3142 -1.4608
   61SAPC  C315 4832   5.424   2.630   8.817 -0.0647 -0.4947  0.2934
   61SAPC  H15X 4833   5.395   2.527   8.848 -0.6407 -0.3071  0.3898
   61SAPC  H15Y 4834   5.531   2.616   8.791 -0.3780  1.1565 -2.2546
   61SAPC  C316 4835   5.345   2.667   8.691 -0.0945  0.3580 -0.2660
   61SAPC  H16X 4836   5.243   2.700   8.720  0.0547  0.8024 -0.2348
   61SAPC  H16Y 4837   5.344   2.583   8.618 -1.6115  0.1188  0.0091
   61SAPC  C317 4838   5.410   2.776   8.618 -0.6112  0.2309 -0.1054
   61SAPC  H17X 4839   5.518   2.750   8.617 -0.8629 -1.2827  2.6723
   61SAPC  H17Y 4840   5.402   2.869   8.677 -1.9037  1.2290 -1.7655
   61SAPC  C318 4841   5.359   2.806   8.480 -0.3154 -0.2567 -0.6006
   61SAPC  H18X 4842   5.252   2.835   8.490  0.3717  2.7305 -1.0631
   61SAPC  H18Y 4843   5.375   2.717   8.415  0.7701 -1.7927  1.6442
   61SAPC  H18Z 4844   5.399   2.905   8.449 -1.6971  0.0182 -1.6197
   62SAPC     N 4845   4.198   0.136  11.082 -0.3919  0.1642  0.9602
   62SAPC   C12 4846   4.295   0.170  10.969  0.1211 -0.0783  0.1048
   62SAPC  H12A 4847   4.380   0.104  10.977  0.3559  0.4089  2.0522
   62SAPC  H12B 4848   4.341   0.266  10.987 -1.6515  1.5395 -3.0079
   62SAPC   C13 4849   4.084   0.222  11.077  0.1411 -0.5479 -0.1380
   62SAPC  H13A 4850   4.120   0.324  11.083  0.5445 -0.5986 -1.3276
   62SAPC  H13B 4851   4.033   0.207  10.983 -0.8899 -0.3702  0.3769
   62SAPC  H13C 4852   4.022   0.198  11.162  0.4358 -0.3348  0.1376
   62SAPC   C14 4853   4.154  -0.003  11.066  0.2794 -0.0444  0.4872
   62SAPC  H14A 4854   4.082  -0.032  11.142  0.7088  0.1017  0.9527
   62SAPC  H14B 4855   4.109  -0.013  10.969 -2.4725  1.7778  1.4352
   62SAPC  H14C 4856   4.245  -0.061  11.061  0.0225 -0.6667  2.1464
   62SAPC   C15 4857   4.266   0.161  11.214 -0.2231  0.1784 -1.0721
   62SAPC  H15A 4858   4.192   0.175  11.291  1.9724  0.6254  1.0672
   62SAPC  H15B 4859   4.326   0.075  11.241 -0.2970 -0.5483 -3.0703
   62SAPC  H15C 4860   4.325   0.252  11.212  0.4438 -0.2278 -0.2005
   62SAPC   C11 4861   4.248   0.180  10.820  0.4624  0.2548 -0.4401
   62SAPC  H11A 4862   4.336   0.214  10.760  0.4875  1.4027  0.2170
   62SAPC  H11B 4863   4.162   0.250  10.812  0.2861  0.1174  0.2397
   62SAPC     P 4864   4.273  -0.066  10.724  0.0342 -0.1472  0.6082
   62SAPC   O13 4865   4.416  -0.030  10.744 -0.5436 -0.0890 -0.1213
   62SAPC   O14 4866   4.217  -0.188  10.780  0.4793 -0.2479  0.7068
   62SAPC   O12 4867   4.188   0.053  10.786  0.1202  0.0520 -0.4366
   62SAPC   O11 4868   4.236  -0.048  10.569 -0.0747  0.8389 -0.0933
   62SAPC    C1 4869   4.104  -0.013  10.522  0.7380  0.1815 -0.0366
   62SAPC    HA 4870   4.055   0.059  10.591  3.0507  3.6885 -1.7810
   62SAPC    HB 4871   4.122   0.042  10.428 -0.1656  1.7231  0.6562
   62SAPC    C2 4872   4.013  -0.130  10.492 -0.7707  0.3070 -0.2832
   62SAPC    HS 4873   4.018  -0.200  10.578  0.2695 -0.7488 -1.1713
   62SAPC   O21 4874   4.069  -0.191  10.378  0.7921 -0.4325  0.8334
   62SAPC   C21 4875   4.122  -0.308  10.392 -0.3466 -0.0796 -0.0102
   62SAPC   O22 4876   4.142  -0.372  10.500  0.4431  0.4996 -0.0080
   62SAPC   C22 4877   4.153  -0.372  10.247  0.1417  0.3381 -0.6416
   62SAPC   H2R 4878   4.075  -0.324  10.183  1.2861  0.1928 -2.1862
   62SAPC   H2S 4879   4.255  -0.336  10.222  0.5789  0.0880  0.6713
   62SAPC    C3 4880   3.869  -0.093  10.473  0.0104  0.1104  0.0947
   62SAPC    HX 4881   3.830  -0.037  10.561 -0.5768 -0.0041 -0.0820
   62SAPC    HY 4882   3.814  -0.190  10.470  1.1838 -0.6417  1.6417
   62SAPC   O31 4883   3.844  -0.018  10.355 -0.3177  0.1460  0.0813
   62SAPC   C31 4884   3.718  -0.028  10.310 -0.4901 -0.8213  0.1873
   62SAPC   O32 4885   3.617  -0.066  10.375  0.1476 -0.0305 -0.1709
   62SAPC   C32 4886   3.709   0.014  10.158  0.2230  0.2974 -0.6569
   62SAPC   H2X 4887   3.787  -0.040  10.101  1.4872  1.8302 -0.4365
   62SAPC   H2Y 4888   3.729   0.121  10.139 -3.7055  0.9115 -2.3126
   62SAPC   C23 4889   4.156  -0.527  10.248  0.3017  0.5237  0.3976
   62SAPC   H3R 4890   4.095  -0.584  10.322 -0.9884  0.7171 -0.4851
   62SAPC   H3S 4891   4.260  -0.562  10.267  0.7753  1.1106 -1.0076
   62SAPC   C24 4892   4.120  -0.596  10.110  1.1628 -0.3358 -0.2764
   62SAPC   H4R 4893   4.186  -0.542  10.038  1.5242 -1.4729 -0.8064
   62SAPC   H4S 4894   4.020  -0.551  10.093  1.4531  1.1127  1.5188
   62SAPC   C25 4895   4.134  -0.745  10.107 -0.0780 -0.0358  0.2397
   62SAPC   H5R 4896   4.116  -0.813  10.192 -2.0006 -0.5223 -0.5010
   62SAPC   C26 4897   4.169  -0.810   9.995 -0.6509  0.4520  0.4504
   62SAPC   H6R 4898   4.177  -0.920   9.993 -0.5019  0.4663 -0.1850
   62SAPC   C27 4899   4.191  -0.758   9.855  0.5269 -0.4548  0.3752
   62SAPC   H7R 4900   4.132  -0.663   9.850  1.9322  0.4341  0.1953
   62SAPC   H7S 4901   4.149  -0.831   9.783  4.2723 -1.0527 -1.4528
   62SAPC   C28 4902   4.327  -0.730   9.814 -0.8278 -0.1195 -0.1429
   62SAPC   H8R 4903   4.398  -0.713   9.896 -1.5357 -2.1375  0.9572
   62SAPC   C29 4904   4.369  -0.726   9.686 -0.3500 -0.0666 -0.4837
   62SAPC   H9R 4905   4.475  -0.713   9.660  0.1890 -4.0737 -0.7889
   62SAPC  C210 4906   4.272  -0.742   9.574  0.7829  0.8979 -0.7168
   62SAPC  H10R 4907   4.210  -0.650   9.567 -0.4438  0.1761  0.1615
   62SAPC  H10S 4908   4.200  -0.825   9.590  0.2776  1.6966  1.4707
   62SAPC  C211 4909   4.347  -0.779   9.447  1.0784 -0.0389  0.0008
   62SAPC  H11R 4910   4.378  -0.885   9.443 -0.9252 -0.7267  1.0672
   62SAPC  C212 4911   4.375  -0.686   9.352  0.1468  0.2556 -0.0061
   62SAPC  H12R 4912   4.441  -0.719   9.270  1.6628 -0.8176  1.5531
   62SAPC  C213 4913   4.323  -0.548   9.365  0.1766 -0.0582 -0.2707
   62SAPC  H13R 4914   4.368  -0.486   9.445 -0.3767 -0.9709  0.7753
   62SAPC  H13S 4915   4.214  -0.542   9.385  0.2380  0.4904 -0.0859
   62SAPC  C214 4916   4.360  -0.474   9.238 -0.5820 -0.3001  0.2261
   62SAPC  H14R 4917   4.468  -0.476   9.215  0.6263 -0.7846  4.9709
   62SAPC  C215 4918   4.278  -0.393   9.162 -0.3234  0.0169 -0.2168
   62SAPC  H15R 4919   4.326  -0.345   9.075 -0.0287  0.5516  0.2287
   62SAPC  C216 4920   4.127  -0.372   9.165  0.6598 -0.0997  0.2593
   62SAPC  H16R 4921   4.081  -0.470   9.191  0.3247  0.3624  1.4721
   62SAPC  H16S 4922   4.084  -0.346   9.066 -1.2977 -3.1251  0.2005
   62SAPC  C217 4923   4.075  -0.271   9.273  0.2843  0.0232 -0.3698
   62SAPC  H17R 4924   4.122  -0.295   9.371  3.6149  0.9484 -1.5863
   62SAPC  H17S 4925   3.967  -0.293   9.274  0.2074  0.1940  2.6581
   62SAPC  C218 4926   4.100  -0.124   9.230 -0.5665  0.0848  0.2902
   62SAPC  H18R 4927   4.210  -0.112   9.220 -0.6411  0.4858 -0.0697
   62SAPC  H18S 4928   4.071  -0.072   9.323  1.6953 -0.6843  1.5131
   62SAPC  C219 4929   4.009  -0.068   9.112 -0.2489 -0.6223 -0.3099
   62SAPC  H19R 4930   3.905  -0.090   9.144  0.4394 -5.8281 -0.8496
   62SAPC  H19S 4931   4.026  -0.125   9.018 -1.7883 -0.4881 -0.6860
   62SAPC  C220 4932   4.026   0.085   9.089 -0.2860 -0.1194  0.4684
   62SAPC  H20R 4933   3.998   0.118   8.987  2.0347 -1.2767 -0.6006
   62SAPC  H20S 4934   4.128   0.118   9.117 -0.7630  1.4107  0.5068
   62SAPC  H20T 4935   3.956   0.136   9.160 -0.6461 -1.2293  0.9315
   62SAPC   C33 4936   3.571  -0.007  10.096  0.2243 -0.4292 -0.0503
   62SAPC   H3X 4937   3.494   0.053  10.150  1.9338  1.6870  0.1814
   62SAPC   H3Y 4938   3.538  -0.113  10.098  1.2148 -0.8066 -1.8376
   62SAPC   C34 4939   3.575   0.025   9.949  0.2302 -0.8133  0.1161
   62SAPC   H4X 4940   3.671   0.008   9.895 -1.0184  3.3730 -4.0591
   62SAPC   H4Y 4941   3.555   0.134   9.942  2.5721 -0.3662 -0.6213
   62SAPC   C35 4942   3.450  -0.044   9.872 -0.1240  0.1506  0.0063
   62SAPC   H5X 4943   3.367  -0.036   9.945  1.0397  1.6061  1.2365
   62SAPC   H5Y 4944   3.480  -0.150   9.857 -0.0435  0.4086 -1.9182
   62SAPC   C36 4945   3.436   0.014   9.736  0.8223  0.5568 -0.4994
   62SAPC   H6X 4946   3.523  -0.019   9.675  1.5878 -0.5509  1.1283
   62SAPC   H6Y 4947   3.446   0.125   9.734 -1.4709  0.8422  0.6030
   62SAPC   C37 4948   3.299  -0.014   9.679 -0.0509  0.1086 -0.0827
   62SAPC   H7X 4949   3.290   0.025   9.576  1.3937  2.0077  0.4637
   62SAPC   H7Y 4950   3.220   0.021   9.749 -0.0889 -0.3438  0.1068
   62SAPC   C38 4951   3.250  -0.161   9.683 -0.4720  0.6912  0.8094
   62SAPC   H8X 4952   3.310  -0.215   9.759 -0.4816 -0.0297  0.3103
   62SAPC   H8Y 4953   3.273  -0.211   9.587  1.8097  0.8526  1.2238
   62SAPC   C39 4954   3.099  -0.175   9.717  0.3659  0.5206 -0.1235
   62SAPC   H9X 4955   3.079  -0.133   9.818 -0.2742 -1.5251  0.6605
   62SAPC   H9Y 4956   3.065  -0.280   9.727  1.1063  0.1110 -1.5539
   62SAPC  C310 4957   2.994  -0.116   9.620  0.2570  0.3677  0.3079
   62SAPC  H10X 4958   2.998  -0.006   9.637 -0.7663  0.4538  0.0825
   62SAPC  H10Y 4959   2.896  -0.151   9.659  0.1487 -0.5434 -0.7194
   62SAPC  C311 4960   2.998  -0.154   9.474  0.2567  0.0242 -0.0341
   62SAPC  H11X 4961   3.032  -0.259   9.479  1.4049  0.4318  1.9871
   62SAPC  H11Y 4962   3.082  -0.100   9.426  1.9944 -1.6099  1.0355
   62SAPC  C312 4963   2.867  -0.148   9.399  0.0894 -0.4414 -0.8164
   62SAPC  H12X 4964   2.785  -0.156   9.474  0.8268  0.4003  0.1046
   62SAPC  H12Y 4965   2.859  -0.230   9.324  1.0734  0.4799 -1.9553
   62SAPC  C313 4966   2.852  -0.021   9.319 -0.1424 -0.3824 -0.1820
   62SAPC  H13X 4967   2.902   0.064   9.370  1.6742 -0.2612 -2.0049
   62SAPC  H13Y 4968   2.746  -0.000   9.295  0.2374  0.7898 -0.9547
   62SAPC  C314 4969   2.930  -0.039   9.190  0.6264 -0.6346 -0.0686
   62SAPC  H14X 4970   2.894  -0.131   9.138  0.5448 -0.4166 -0.4031
   62SAPC  H14Y 4971   3.040  -0.039   9.201  0.7183 -1.1691 -0.8684
   62SAPC  C315 4972   2.908   0.087   9.096  0.5369  0.1538  0.2231
   62SAPC  H15X 4973   2.974   0.165   9.140 -1.4058  1.8516  0.2450
   62SAPC  H15Y 4974   2.809   0.130   9.121  0.7850  0.4718  0.6741
   62SAPC  C316 4975   2.925   0.071   8.945 -0.4041  0.4063  0.0240
   62SAPC  H16X 4976   2.871   0.156   8.897 -0.8661  0.9346  1.4195
   62SAPC  H16Y 4977   2.873  -0.023   8.918 -1.7605  0.7100  1.3883
   62SAPC  C317 4978   3.077   0.067   8.905 -0.3208 -0.8531  0.2026
   62SAPC  H17X 4979   3.127  -0.015   8.961 -0.0650 -0.6254  0.3074
   62SAPC  H17Y 4980   3.131   0.156   8.943 -0.9170 -0.3380 -0.1374
   62SAPC  C318 4981   3.102   0.059   8.756  0.2280 -0.1641 -0.6295
   62SAPC  H18X 4982   3.204   0.092   8.728 -0.0727  0.4080 -1.0653
   62SAPC  H18Y 4983   3.039   0.135   8.705  3.3614  1.9480 -1.6332
   62SAPC  H18Z 4984   3.088  -0.044   8.718 -0.2851 -0.6607  0.8223
   63SAPC     N 4985   0.107   1.461   5.792 -0.0401  0.4612  0.0449
   63SAPC   C12 4986  -0.045   1.459   5.835  0.7191 -0.3627 -0.2502
   63SAPC  H12A 4987  -0.071   1.355   5.851 -0.8314 -0.2243 -1.5770
   63SAPC  H12B 4988  -0.113   1.485   5.755 -0.7669  0.0493  1.0904
   63SAPC   C13 4989   0.164   1.600   5.791  0.8660  0.0465  0.7362
   63SAPC  H13A 4990   0.271   1.601   5.772  0.6696  0.5735 -0.4529
   63SAPC  H13B 4991   0.116   1.658   5.713  0.4635 -0.3697  0.6698
   63SAPC  H13C 4992   0.129   1.648   5.881 -0.3085 -0.5325  0.6107
   63SAPC   C14 4993   0.192   1.373   5.882 -0.6355 -0.3116  0.2285
   63SAPC  H14A 4994   0.169   1.269   5.864  1.0853 -0.4665 -1.5194
   63SAPC  H14B 4995   0.298   1.386   5.866 -0.7231 -0.0659 -0.1862
   63SAPC  H14C 4996   0.165   1.392   5.984  1.5734  0.0532  0.8020
   63SAPC   C15 4997   0.138   1.404   5.655  0.3845 -0.1497  1.1176
   63SAPC  H15A 4998   0.086   1.460   5.578  1.2284  0.7423  1.1798
   63SAPC  H15B 4999   0.237   1.428   5.620  0.1489 -0.7371 -0.0144
   63SAPC  H15C 5000   0.119   1.297   5.651  1.5175 -0.3224 -0.7872
   63SAPC   C11 5001  -0.097   1.544   5.957 -0.5652  0.4635  0.6099
   63SAPC  H11A 5002  -0.205   1.525   5.977 -0.4755  0.0196  0.6801
   63SAPC  H11B 5003  -0.101   1.648   5.918 -3.7656 -0.0985 -0.9170
   63SAPC     P 5004  -0.053   1.442   6.198  0.2082 -0.2137  0.2056
   63SAPC   O13 5005  -0.155   1.340   6.160  0.4265 -0.0313 -0.3427
   63SAPC   O14 5006   0.079   1.394   6.252 -0.0372  0.1978  0.2629
   63SAPC   O12 5007  -0.020   1.537   6.076 -0.2124  0.3760 -0.1720
   63SAPC   O11 5008  -0.113   1.536   6.301 -0.3794 -0.0374  0.9603
   63SAPC    C1 5009  -0.217   1.629   6.293  0.0264  0.3691  0.2588
   63SAPC    HA 5010  -0.195   1.691   6.203  1.4244 -0.4396  0.0110
   63SAPC    HB 5011  -0.317   1.583   6.273  0.0978  0.7528 -1.1008
   63SAPC    C2 5012  -0.230   1.716   6.427 -0.3282  0.1792  0.6328
   63SAPC    HS 5013  -0.130   1.764   6.435 -0.3562  0.4779 -0.5250
   63SAPC   O21 5014  -0.274   1.631   6.537  0.4204  0.0350  0.3542
   63SAPC   C21 5015  -0.213   1.667   6.655 -0.4257 -0.5130 -0.2552
   63SAPC   O22 5016  -0.119   1.748   6.661 -0.6616 -0.0368  0.3693
   63SAPC   C22 5017  -0.256   1.591   6.782 -0.1799 -0.4544  0.1950
   63SAPC   H2R 5018  -0.237   1.483   6.763  1.7637 -0.0248 -0.4788
   63SAPC   H2S 5019  -0.190   1.614   6.868 -0.8431 -0.9377  0.8505
   63SAPC    C3 5020  -0.334   1.831   6.404 -0.7417  0.9797  0.0408
   63SAPC    HX 5021  -0.434   1.782   6.397 -1.1192  1.8739 -1.0990
   63SAPC    HY 5022  -0.319   1.880   6.306  2.1546 -0.0568 -0.1174
   63SAPC   O31 5023  -0.331   1.917   6.511 -0.0331 -0.0904  0.0323
   63SAPC   C31 5024  -0.242   2.010   6.523  0.0649 -0.0207  0.0959
   63SAPC   O32 5025  -0.141   2.014   6.452  0.1239 -0.8001  0.1814
   63SAPC   C32 5026  -0.270   2.116   6.637 -0.1969 -0.1295  0.4315
   63SAPC   H2X 5027  -0.367   2.100   6.689 -0.5494  2.3876  0.6767
   63SAPC   H2Y 5028  -0.296   2.206   6.577 -0.3765 -1.8448 -2.2033
   63SAPC   C23 5029  -0.399   1.631   6.839 -0.4813 -0.0491 -0.2682
   63SAPC   H3R 5030  -0.423   1.557   6.918  0.1380  0.1523  0.1194
   63SAPC   H3S 5031  -0.478   1.603   6.767 -0.0012  0.6230 -1.0780
   63SAPC   C24 5032  -0.404   1.781   6.877  0.2427 -0.0496  0.5337
   63SAPC   H4R 5033  -0.400   1.840   6.784 -0.6451 -2.5815 -1.2175
   63SAPC   H4S 5034  -0.318   1.804   6.943 -0.2842  0.3582  1.0896
   63SAPC   C25 5035  -0.547   1.805   6.936 -0.4000 -0.8003  0.5370
   63SAPC   H5R 5036  -0.637   1.787   6.876 -0.3192 -0.9469  0.4577
   63SAPC   C26 5037  -0.562   1.853   7.062  0.9273  0.0178  0.0334
   63SAPC   H6R 5038  -0.662   1.864   7.107  1.4128 -0.0269  1.1554
   63SAPC   C27 5039  -0.449   1.890   7.159  0.0487 -0.7687 -0.1929
   63SAPC   H7R 5040  -0.483   1.972   7.225  0.1352 -0.3228 -0.6948
   63SAPC   H7S 5041  -0.368   1.933   7.097  1.0998 -2.8474 -0.3470
   63SAPC   C28 5042  -0.383   1.777   7.238  1.0356  0.3924 -0.0087
   63SAPC   H8R 5043  -0.382   1.677   7.192 -0.0536  0.8236 -1.0241
   63SAPC   C29 5044  -0.341   1.787   7.365 -0.5056  0.0786  0.3600
   63SAPC   H9R 5045  -0.295   1.700   7.416 -0.6839 -1.0602 -1.3419
   63SAPC  C210 5046  -0.333   1.907   7.451  0.0465 -0.6296 -0.0992
   63SAPC  H10R 5047  -0.309   2.001   7.398  1.4772 -1.2457 -0.5888
   63SAPC  H10S 5048  -0.241   1.893   7.512  0.9245 -0.6183 -1.3784
   63SAPC  C211 5049  -0.449   1.933   7.545  0.0398  0.5458 -0.2250
   63SAPC  H11R 5050  -0.530   1.988   7.495 -0.1269  2.9664  2.4503
   63SAPC  C212 5051  -0.467   1.897   7.670 -0.8047 -0.2196 -0.5556
   63SAPC  H12R 5052  -0.553   1.933   7.729  1.9658  1.7769  2.6944
   63SAPC  C213 5053  -0.367   1.819   7.754  0.4769 -0.2115 -0.0919
   63SAPC  H13R 5054  -0.317   1.892   7.821  0.3847 -0.6486  0.4635
   63SAPC  H13S 5055  -0.288   1.773   7.691 -0.8530 -1.0776 -1.1786
   63SAPC  C214 5056  -0.436   1.716   7.849  0.4521 -0.1930 -0.4245
   63SAPC  H14R 5057  -0.533   1.683   7.810  0.3844  1.1461 -1.4652
   63SAPC  C215 5058  -0.378   1.658   7.960  0.0514 -0.3493 -0.3573
   63SAPC  H15R 5059  -0.425   1.580   8.020  1.9981 -3.1845 -2.2563
   63SAPC  C216 5060  -0.241   1.690   8.013 -0.1280 -0.1108 -0.4223
   63SAPC  H16R 5061  -0.177   1.754   7.949  1.0463 -0.9092 -0.0906
   63SAPC  H16S 5062  -0.179   1.601   8.039 -2.3645 -1.7331 -0.3665
   63SAPC  C217 5063  -0.262   1.776   8.144 -0.3719  0.2024  0.3172
   63SAPC  H17R 5064  -0.330   1.863   8.129 -0.8000 -0.0486  0.7904
   63SAPC  H17S 5065  -0.167   1.821   8.180 -0.4158 -0.0879  0.7931
   63SAPC  C218 5066  -0.327   1.693   8.254 -0.1932  0.8041 -0.5684
   63SAPC  H18R 5067  -0.274   1.595   8.261  2.7556  2.2544 -0.9229
   63SAPC  H18S 5068  -0.433   1.678   8.223  0.0184 -0.8144 -0.6202
   63SAPC  C219 5069  -0.311   1.759   8.395 -0.0204 -0.3155 -0.1085
   63SAPC  H19R 5070  -0.324   1.868   8.378 -1.2482 -0.7131 -1.9104
   63SAPC  H19S 5071  -0.209   1.745   8.439 -0.5299 -1.9277  0.6287
   63SAPC  C220 5072  -0.413   1.689   8.488 -0.2276  0.1631  0.9885
   63SAPC  H20R 5073  -0.400   1.579   8.487 -1.1394  0.0364 -0.2981
   63SAPC  H20S 5074  -0.518   1.720   8.468 -0.6734 -0.9043  1.5982
   63SAPC  H20T 5075  -0.392   1.719   8.593  0.7037 -0.5926  1.0266
   63SAPC   C33 5076  -0.157   2.138   6.737  0.2212 -0.1608  0.1036
   63SAPC   H3X 5077  -0.169   2.242   6.774 -2.7378 -0.6470  0.7533
   63SAPC   H3Y 5078  -0.058   2.138   6.686  0.8910 -0.2843  1.3733
   63SAPC   C34 5079  -0.152   2.038   6.859 -0.0553  0.3344 -0.1157
   63SAPC   H4X 5080  -0.137   1.932   6.828 -2.1790 -0.2076  0.5786
   63SAPC   H4Y 5081  -0.243   2.037   6.923 -0.3513 -2.3946 -0.4322
   63SAPC   C35 5082  -0.033   2.077   6.943  0.6317  0.6554 -0.5122
   63SAPC   H5X 5083  -0.037   2.188   6.957 -1.2537  0.3869  1.7324
   63SAPC   H5Y 5084   0.058   2.065   6.881  1.6113  1.5833  0.7081
   63SAPC   C36 5085  -0.027   2.004   7.081  0.2676  0.4463  0.3487
   63SAPC   H6X 5086   0.041   1.917   7.070  0.0843  0.6450 -4.9989
   63SAPC   H6Y 5087  -0.124   1.953   7.099 -0.6057 -0.3017 -4.8651
   63SAPC   C37 5088   0.005   2.099   7.195  0.4095 -0.2001 -0.0618
   63SAPC   H7X 5089  -0.076   2.175   7.194  0.4165 -0.1375 -2.2923
   63SAPC   H7Y 5090   0.097   2.152   7.162  1.4632 -0.9851  1.5069
   63SAPC   C38 5091   0.013   2.022   7.325  0.1141 -0.5472 -0.0263
   63SAPC   H8X 5092   0.103   1.958   7.315 -1.6868 -3.0284 -1.4959
   63SAPC   H8Y 5093  -0.080   1.962   7.337  0.0366 -0.6353 -0.9699
   63SAPC   C39 5094   0.044   2.122   7.433  0.1013  0.1242  0.1751
   63SAPC   H9X 5095  -0.018   2.211   7.408 -0.6982 -1.3065 -3.6904
   63SAPC   H9Y 5096   0.149   2.149   7.410  0.1395 -0.6225 -0.5689
   63SAPC  C310 5097   0.017   2.070   7.573 -0.2582 -0.1904 -0.5614
   63SAPC  H10X 5098  -0.085   2.108   7.593  0.5975  1.1480  1.5762
   63SAPC  H10Y 5099   0.079   2.130   7.642 -3.0758 -1.2551  3.2580
   63SAPC  C311 5100   0.043   1.924   7.603  0.1148 -0.0645 -0.3697
   63SAPC  H11X 5101   0.148   1.897   7.578 -0.0029 -1.8736  0.8601
   63SAPC  H11Y 5102  -0.026   1.859   7.544 -0.6432  0.4147 -0.0259
   63SAPC  C312 5103   0.029   1.890   7.754 -0.0565 -0.1053 -0.0736
   63SAPC  H12X 5104   0.049   1.781   7.762  0.9691  0.0283 -0.7419
   63SAPC  H12Y 5105  -0.074   1.905   7.793 -0.0240 -0.2436  0.0668
   63SAPC  C313 5106   0.116   1.974   7.851 -0.3590  0.9083 -0.3846
   63SAPC  H13X 5107   0.090   2.081   7.835 -0.3230  0.8237 -1.0395
   63SAPC  H13Y 5108   0.225   1.972   7.829 -0.0392 -1.8324  1.0211
   63SAPC  C314 5109   0.096   1.928   7.992 -0.2224  0.6341 -0.6825
   63SAPC  H14X 5110  -0.011   1.942   8.016 -0.8147 -4.3099  0.6640
   63SAPC  H14Y 5111   0.158   1.989   8.062 -1.2510  1.0223 -0.0944
   63SAPC  C315 5112   0.122   1.786   8.035  0.2518  0.1941  0.6337
   63SAPC  H15X 5113   0.049   1.718   7.987 -2.0188  2.4420  0.7486
   63SAPC  H15Y 5114   0.101   1.779   8.144  0.1904 -0.1825  0.5968
   63SAPC  C316 5115   0.269   1.746   8.018  0.9214 -0.8188 -0.9840
   63SAPC  H16X 5116   0.327   1.823   8.074  0.4969 -0.3164 -1.2264
   63SAPC  H16Y 5117   0.294   1.757   7.910  0.5618  0.4384 -0.9555
   63SAPC  C317 5118   0.301   1.606   8.064  0.4861  0.6184  0.3198
   63SAPC  H17X 5119   0.410   1.593   8.045 -0.1064 -0.3139 -3.1936
   63SAPC  H17Y 5120   0.228   1.545   8.007  1.7144  0.1319 -0.7973
   63SAPC  C318 5121   0.298   1.578   8.221 -0.7797  0.8323  0.1639
   63SAPC  H18X 5122   0.361   1.651   8.276  1.8990 -1.0592 -0.2287
   63SAPC  H18Y 5123   0.326   1.474   8.248 -1.7333  1.1235  2.5041
   63SAPC  H18Z 5124   0.193   1.583   8.258 -0.5293  0.2362  0.9835
   64SAPC     N 5125   2.001   1.677   6.178  0.4378 -0.1447 -0.0984
   64SAPC   C12 5126   2.142   1.617   6.143  0.1860 -0.2040 -0.3458
   64SAPC  H12A 5127   2.129   1.510   6.146 -0.5655 -0.0882  1.1954
   64SAPC  H12B 5128   2.213   1.640   6.221 -1.5424  2.0693  0.6492
   64SAPC   C13 5129   1.994   1.822   6.200 -0.1189  0.5653  0.4510
   64SAPC  H13A 5130   2.080   1.861   6.252  0.7421 -1.3744  0.5632
   64SAPC  H13B 5131   1.992   1.880   6.109 -1.8938 -0.1930 -0.0291
   64SAPC  H13C 5132   1.904   1.836   6.258  0.0785 -1.8073  1.4664
   64SAPC   C14 5133   1.894   1.635   6.078 -0.1326 -0.0837 -0.9345
   64SAPC  H14A 5134   1.796   1.652   6.120  0.8929 -0.0629  1.5987
   64SAPC  H14B 5135   1.894   1.687   5.983 -2.1585 -2.2004 -2.2180
   64SAPC  H14C 5136   1.903   1.529   6.055  2.4146 -0.5586  1.6634
   64SAPC   C15 5137   1.943   1.623   6.315  0.2792 -0.8941  0.5904
   64SAPC  H15A 5138   1.837   1.641   6.331  0.5175  0.5367  0.6314
   64SAPC  H15B 5139   1.951   1.516   6.326 -0.1106 -1.2106 -1.7012
   64SAPC  H15C 5140   1.998   1.662   6.399 -0.9572  1.1456  0.5158
   64SAPC   C11 5141   2.202   1.664   6.008  0.2711  0.3395 -0.3040
   64SAPC  H11A 5142   2.119   1.668   5.935 -0.3075  1.3611  0.3889
   64SAPC  H11B 5143   2.280   1.587   5.989 -1.0457 -2.0085  2.8065
   64SAPC     P 5144   2.410   1.820   6.062  0.3948 -0.1599 -0.0913
   64SAPC   O13 5145   2.492   1.766   5.949 -0.0768  0.1875  0.3364
   64SAPC   O14 5146   2.439   1.957   6.106  0.2776 -0.0275  0.7113
   64SAPC   O12 5147   2.262   1.795   6.018  0.2285 -0.5714  0.2543
   64SAPC   O11 5148   2.436   1.732   6.187 -0.0040 -0.0744 -0.6051
   64SAPC    C1 5149   2.554   1.642   6.180 -0.6893 -0.6485 -0.5150
   64SAPC    HA 5150   2.535   1.566   6.101  0.4928 -0.8460 -0.6262
   64SAPC    HB 5151   2.653   1.687   6.157 -0.0001 -2.6021 -1.5673
   64SAPC    C2 5152   2.595   1.581   6.320  0.0085  0.2259 -0.1823
   64SAPC    HS 5153   2.505   1.523   6.349  1.0727 -1.6498 -0.4683
   64SAPC   O21 5154   2.619   1.682   6.416 -0.1192 -0.1594  0.4751
   64SAPC   C21 5155   2.587   1.667   6.542  0.2864 -0.2373  0.7003
   64SAPC   O22 5156   2.520   1.575   6.586  0.0033 -0.0779 -0.1229
   64SAPC   C22 5157   2.640   1.784   6.624 -0.5098  0.1260  0.1373
   64SAPC   H2R 5158   2.738   1.752   6.665 -0.2414  2.1645  1.2508
   64SAPC   H2S 5159   2.649   1.871   6.555 -1.0443 -0.9783 -1.3728
   64SAPC    C3 5160   2.718   1.481   6.303  0.4971 -0.8600 -0.3322
   64SAPC    HX 5161   2.792   1.521   6.230  1.5019  0.2447  1.2442
   64SAPC    HY 5162   2.681   1.387   6.257  3.0656 -1.7890 -0.6798
   64SAPC   O31 5163   2.776   1.428   6.430 -0.5745  0.3333  0.3005
   64SAPC   C31 5164   2.887   1.493   6.472 -0.2840  0.0036  0.0861
   64SAPC   O32 5165   2.930   1.592   6.417  0.0506 -0.3267  0.1496
   64SAPC   C32 5166   2.943   1.426   6.594  0.3888  0.3276  0.3391
   64SAPC   H2X 5167   3.048   1.396   6.569  0.1442 -0.8258  0.6391
   64SAPC   H2Y 5168   2.891   1.329   6.609  3.2972 -1.3618  0.3350
   64SAPC   C23 5169   2.549   1.821   6.747  0.4259 -0.0490 -0.0247
   64SAPC   H3R 5170   2.545   1.732   6.812  0.7522 -0.5719 -0.7063
   64SAPC   H3S 5171   2.444   1.839   6.715 -0.0398 -2.0774  0.2431
   64SAPC   C24 5172   2.591   1.953   6.821 -0.3338  0.0721  0.0373
   64SAPC   H4R 5173   2.516   1.967   6.902  0.1290  0.3106  0.4269
   64SAPC   H4S 5174   2.583   2.040   6.752 -3.4522 -0.9771 -1.1194
   64SAPC   C25 5175   2.729   1.947   6.880  0.2953 -0.0820  0.5680
   64SAPC   H5R 5176   2.815   1.956   6.812  0.7868 -1.4642  0.9895
   64SAPC   C26 5177   2.754   1.933   7.009 -0.6234 -0.1629  0.2766
   64SAPC   H6R 5178   2.859   1.930   7.044 -0.5616  1.9787  0.4392
   64SAPC   C27 5179   2.660   1.913   7.124 -0.4151  0.5749  0.4629
   64SAPC   H7R 5180   2.711   1.861   7.208  0.9224  3.5958  1.6453
   64SAPC   H7S 5181   2.577   1.846   7.092  1.2293 -0.8609 -1.0334
   64SAPC   C28 5182   2.591   2.043   7.179  0.0504  0.1615 -0.9400
   64SAPC   H8R 5183   2.591   2.126   7.106 -0.0410  2.1246  1.1688
   64SAPC   C29 5184   2.543   2.062   7.304 -0.6033 -0.1237  0.2984
   64SAPC   H9R 5185   2.481   2.152   7.320 -0.4537  0.2232 -0.9814
   64SAPC  C210 5186   2.546   1.959   7.420  0.6695 -0.0533 -0.0393
   64SAPC  H10R 5187   2.519   1.855   7.390  1.9918 -0.8510  1.3758
   64SAPC  H10S 5188   2.463   1.994   7.484 -0.4952  0.2221 -1.6221
   64SAPC  C211 5189   2.677   1.956   7.497 -0.4999  0.1367  0.3597
   64SAPC  H11R 5190   2.775   1.973   7.451  0.2643  2.2310  2.5085
   64SAPC  C212 5191   2.679   1.917   7.628 -0.2329 -0.2598  0.6171
   64SAPC  H12R 5192   2.771   1.928   7.687  0.4949 -0.5805 -0.4191
   64SAPC  C213 5193   2.562   1.870   7.709  0.4073 -0.1184  0.5209
   64SAPC  H13R 5194   2.470   1.908   7.660  0.7104 -0.6420 -0.4978
   64SAPC  H13S 5195   2.574   1.912   7.810 -0.0072  0.1154  0.4737
   64SAPC  C214 5196   2.548   1.722   7.705  0.9917 -0.0045 -0.5423
   64SAPC  H14R 5197   2.541   1.675   7.605  0.6536 -1.2590  0.0530
   64SAPC  C215 5198   2.539   1.652   7.820  0.3878  0.2800  0.0982
   64SAPC  H15R 5199   2.522   1.544   7.809 -0.7425  0.5824 -1.4776
   64SAPC  C216 5200   2.540   1.711   7.957 -0.3390 -0.6409 -0.4948
   64SAPC  H16R 5201   2.474   1.648   8.021 -0.7433 -1.4873 -1.7111
   64SAPC  H16S 5202   2.476   1.802   7.964 -2.2175 -1.8629 -0.8821
   64SAPC  C217 5203   2.687   1.724   8.005  0.8572 -0.2871  0.2061
   64SAPC  H17R 5204   2.742   1.810   7.961 -1.6444  2.6730  2.3961
   64SAPC  H17S 5205   2.739   1.632   7.972  0.3875  0.2236 -2.2148
   64SAPC  C218 5206   2.703   1.725   8.157  0.0078 -0.8050  0.4466
   64SAPC  H18R 5207   2.806   1.702   8.191  0.3654 -1.1340 -0.8092
   64SAPC  H18S 5208   2.625   1.654   8.189 -1.8079  1.3206  1.0206
   64SAPC  C219 5209   2.664   1.856   8.219  0.3864 -0.3568 -0.1076
   64SAPC  H19R 5210   2.564   1.886   8.182  0.4687  0.6180  0.4119
   64SAPC  H19S 5211   2.727   1.942   8.187 -0.1901  0.8164  1.7352
   64SAPC  C220 5212   2.640   1.849   8.376 -0.4479  0.2046  0.8744
   64SAPC  H20R 5213   2.590   1.751   8.390 -1.5384  0.7076  0.5400
   64SAPC  H20S 5214   2.575   1.934   8.404 -0.6187  0.9567 -1.5836
   64SAPC  H20T 5215   2.737   1.858   8.429 -1.6234  0.7613  3.0396
   64SAPC   C33 5216   2.923   1.511   6.715 -0.2065  0.1405  0.1112
   64SAPC   H3X 5217   2.813   1.528   6.728 -0.0521  0.8396  0.6264
   64SAPC   H3Y 5218   2.971   1.611   6.706  2.3394 -1.2451 -3.4591
   64SAPC   C34 5219   2.962   1.438   6.842 -0.0368  0.0166  0.2514
   64SAPC   H4X 5220   3.066   1.405   6.822  0.1183 -0.0743  1.1881
   64SAPC   H4Y 5221   2.908   1.341   6.836  0.6332 -0.2736 -2.0893
   64SAPC   C35 5222   2.949   1.523   6.972  0.4108 -0.0627 -0.5356
   64SAPC   H5X 5223   2.971   1.626   6.937 -2.3081  1.0857  0.9020
   64SAPC   H5Y 5224   3.018   1.491   7.053 -0.5748 -1.7275 -0.3067
   64SAPC   C36 5225   2.804   1.520   7.033  0.4209 -0.1784 -0.5831
   64SAPC   H6X 5226   2.778   1.413   7.043 -2.5898  0.5412  0.3081
   64SAPC   H6Y 5227   2.741   1.566   6.954  2.3303  0.9018 -1.5720
   64SAPC   C37 5228   2.800   1.577   7.179  0.3451 -0.4770 -0.6530
   64SAPC   H7X 5229   2.695   1.585   7.213 -0.2949 -0.6525 -2.5074
   64SAPC   H7Y 5230   2.842   1.679   7.193  0.8556 -1.0889  3.8573
   64SAPC   C38 5231   2.884   1.499   7.279  0.6115 -0.1990  0.5282
   64SAPC   H8X 5232   2.989   1.501   7.240 -0.1698 -0.6619 -1.7666
   64SAPC   H8Y 5233   2.847   1.395   7.270  2.1269 -0.6121 -2.2220
   64SAPC   C39 5234   2.872   1.541   7.419 -0.2517  0.1206 -1.0826
   64SAPC   H9X 5235   2.769   1.555   7.459  0.1134 -0.3308  0.0350
   64SAPC   H9Y 5236   2.918   1.642   7.425 -0.3143  0.1144 -0.4178
   64SAPC  C310 5237   2.939   1.451   7.523  0.0773 -1.0739 -0.1699
   64SAPC  H10X 5238   3.050   1.456   7.530  0.0928 -2.0649  0.5404
   64SAPC  H10Y 5239   2.919   1.346   7.491 -3.3018 -0.1043 -1.6845
   64SAPC  C311 5240   2.867   1.458   7.657 -0.5990  0.5466  0.4944
   64SAPC  H11X 5241   2.764   1.416   7.655 -0.1740 -0.5625  1.0879
   64SAPC  H11Y 5242   2.849   1.561   7.696 -1.6844  0.1862  0.9949
   64SAPC  C312 5243   2.943   1.381   7.765  0.1521 -0.1690  0.4307
   64SAPC  H12X 5244   3.045   1.426   7.768 -0.3954  1.1862 -0.5991
   64SAPC  H12Y 5245   2.960   1.276   7.734 -1.5604 -0.4901  0.5230
   64SAPC  C313 5246   2.870   1.393   7.898  0.2538  0.1099  0.5396
   64SAPC  H13X 5247   2.765   1.359   7.891 -0.4341  2.2873 -0.4704
   64SAPC  H13Y 5248   2.884   1.498   7.932  1.1317  0.3560 -0.5633
   64SAPC  C314 5249   2.919   1.285   8.002 -0.2399  0.1990 -0.5957
   64SAPC  H14X 5250   3.024   1.312   8.027 -0.8908  2.5570 -0.1621
   64SAPC  H14Y 5251   2.921   1.198   7.932 -1.4940 -0.1380 -0.2297
   64SAPC  C315 5252   2.818   1.273   8.124 -0.0943  0.2061  0.5591
   64SAPC  H15X 5253   2.845   1.181   8.180  1.6497 -0.4826 -1.2799
   64SAPC  H15Y 5254   2.715   1.244   8.095  0.5091 -2.0849  0.4829
   64SAPC  C316 5255   2.822   1.398   8.216 -0.0271  0.1903  0.6717
   64SAPC  H16X 5256   2.761   1.365   8.303  0.3199 -0.6419  0.6092
   64SAPC  H16Y 5257   2.778   1.484   8.161 -0.9829 -0.2888  0.6549
   64SAPC  C317 5258   2.958   1.448   8.269  0.0294  0.0992 -0.0729
   64SAPC  H17X 5259   2.944   1.529   8.344 -1.0417 -1.4110  1.4599
   64SAPC  H17Y 5260   3.019   1.468   8.179 -1.9264  0.2398 -1.4479
   64SAPC  C318 5261   3.027   1.333   8.355  0.1151  0.1354 -1.0305
   64SAPC  H18X 5262   3.072   1.253   8.292  0.9074  2.0773 -3.0922
   64SAPC  H18Y 5263   2.959   1.284   8.428  0.4975  0.4725 -0.4384
   64SAPC  H18Z 5264   3.111   1.384   8.406 -0.4548 -0.5410  0.6380
   65SAPC     N 5265   0.129   2.752   5.806  0.5725 -0.3442 -0.3867
   65SAPC   C12 5266   0.145   2.786   5.960  0.0040  0.3457  0.7072
   65SAPC  H12A 5267   0.057   2.754   6.013  0.9056 -0.7155  1.6131
   65SAPC  H12B 5268   0.164   2.890   5.980 -2.5213  0.7710  1.1924
   65SAPC   C13 5269   0.247   2.798   5.729 -0.3677  1.2904  0.4740
   65SAPC  H13A 5270   0.276   2.902   5.733  2.7787  0.5355  0.4062
   65SAPC  H13B 5271   0.330   2.737   5.762 -2.2452 -1.3660  0.6183
   65SAPC  H13C 5272   0.237   2.769   5.626  1.7257 -0.1057  0.5901
   65SAPC   C14 5273   0.109   2.603   5.788  0.7902 -0.4391  0.2520
   65SAPC  H14A 5274   0.109   2.571   5.684  2.4036  1.4889 -0.4048
   65SAPC  H14B 5275   0.195   2.552   5.829  0.4998 -0.6065  0.6589
   65SAPC  H14C 5276   0.017   2.580   5.839  0.6541 -0.2276  0.1021
   65SAPC   C15 5277   0.007   2.820   5.758  0.0988  0.4434 -0.6893
   65SAPC  H15A 5278   0.012   2.922   5.793  0.9931  0.0648  0.3309
   65SAPC  H15B 5279   0.007   2.822   5.650  5.6148 -1.7717 -1.0274
   65SAPC  H15C 5280  -0.084   2.779   5.799 -0.7743  1.6187 -1.3661
   65SAPC   C11 5281   0.269   2.718   6.021 -0.6168 -0.3065  0.2356
   65SAPC  H11A 5282   0.274   2.607   6.009 -2.0841 -0.2142 -1.7180
   65SAPC  H11B 5283   0.269   2.739   6.130 -0.3024 -3.3677  0.9237
   65SAPC     P 5284   0.448   2.914   6.009 -0.1013 -0.1292  0.0021
   65SAPC   O13 5285   0.567   2.940   5.929 -0.8224  0.2984 -0.2713
   65SAPC   O14 5286   0.336   3.009   5.995 -0.1459  0.3909 -0.1722
   65SAPC   O12 5287   0.394   2.771   5.965  0.0862 -0.1313 -0.2702
   65SAPC   O11 5288   0.483   2.892   6.165  0.6350  0.1442  0.6617
   65SAPC    C1 5289   0.541   2.775   6.218  0.5004 -0.6432  0.0419
   65SAPC    HA 5290   0.465   2.706   6.259  0.9897 -0.6381  0.9812
   65SAPC    HB 5291   0.587   2.721   6.132  1.3722  0.4561 -0.2154
   65SAPC    C2 5292   0.647   2.812   6.329  0.0343  0.4493  0.4530
   65SAPC    HS 5293   0.727   2.735   6.331 -0.7013 -0.3945 -0.8286
   65SAPC   O21 5294   0.581   2.827   6.455  0.4940 -0.2183  0.4023
   65SAPC   C21 5295   0.568   2.708   6.514 -0.1729  0.2018 -0.0105
   65SAPC   O22 5296   0.590   2.601   6.464  0.5927 -0.2336  0.5942
   65SAPC   C22 5297   0.514   2.726   6.649  0.5745 -0.1865  0.2618
   65SAPC   H2R 5298   0.593   2.768   6.714  1.1424  0.9066 -1.1033
   65SAPC   H2S 5299   0.418   2.780   6.664  0.7926  0.3392 -0.2164
   65SAPC    C3 5300   0.722   2.948   6.297 -0.2802  0.4000  0.2089
   65SAPC    HX 5301   0.645   3.027   6.293 -0.9183 -0.2138  0.1832
   65SAPC    HY 5302   0.769   2.947   6.196  0.9273  0.7273  0.7501
   65SAPC   O31 5303   0.813   2.987   6.396 -0.4839  0.2654 -0.2957
   65SAPC   C31 5304   0.944   2.949   6.389  0.1056  0.4477 -0.3977
   65SAPC   O32 5305   0.993   2.883   6.300 -0.3277  0.3668  0.3446
   65SAPC   C32 5306   1.021   3.003   6.499 -0.1126 -0.0497  0.2155
   65SAPC   H2X 5307   0.964   3.013   6.593  1.9991  0.6634  1.4868
   65SAPC   H2Y 5308   1.053   3.105   6.468 -2.8558  1.5192  2.1449
   65SAPC   C23 5309   0.470   2.587   6.702  0.1784  0.1339  0.6384
   65SAPC   H3R 5310   0.561   2.529   6.728 -0.7491 -0.2969  3.1657
   65SAPC   H3S 5311   0.409   2.525   6.633  0.3384  1.6263 -0.9049
   65SAPC   C24 5312   0.401   2.591   6.839  0.0085 -0.4125  0.1751
   65SAPC   H4R 5313   0.334   2.680   6.844  1.0078  0.3952 -0.3968
   65SAPC   H4S 5314   0.485   2.624   6.903  0.0073 -0.0472 -0.0109
   65SAPC   C25 5315   0.335   2.468   6.885 -0.0656 -0.4527  0.4941
   65SAPC   H5R 5316   0.245   2.435   6.832 -0.5362  0.7468  0.5098
   65SAPC   C26 5317   0.371   2.397   6.994 -0.1125 -0.4400 -0.2961
   65SAPC   H6R 5318   0.321   2.305   7.028 -1.0395 -0.2484 -1.1042
   65SAPC   C27 5319   0.486   2.445   7.088 -0.3048 -0.2157  0.9038
   65SAPC   H7R 5320   0.555   2.506   7.026 -0.0839 -0.9146  0.4435
   65SAPC   H7S 5321   0.549   2.359   7.118 -1.2161 -0.7657  1.2922
   65SAPC   C28 5322   0.440   2.523   7.206  0.1811 -0.0379 -0.2481
   65SAPC   H8R 5323   0.395   2.617   7.173  0.2491 -0.0667 -0.4277
   65SAPC   C29 5324   0.450   2.504   7.341  0.4390 -0.4034 -0.5514
   65SAPC   H9R 5325   0.404   2.581   7.405  1.2787 -2.0578  2.1877
   65SAPC  C210 5326   0.518   2.390   7.408  0.0018  0.6615  0.2304
   65SAPC  H10R 5327   0.536   2.296   7.352 -0.4275 -0.6972  2.2394
   65SAPC  H10S 5328   0.451   2.348   7.487  0.5018  0.3540  0.4910
   65SAPC  C211 5329   0.655   2.429   7.455 -0.1989 -0.9535 -0.5639
   65SAPC  H11R 5330   0.737   2.438   7.382  0.0371 -0.7233 -0.2702
   65SAPC  C212 5331   0.684   2.445   7.592  0.9598  0.2063  0.7829
   65SAPC  H12R 5332   0.781   2.484   7.627  2.3075 -2.3561  0.1774
   65SAPC  C213 5333   0.577   2.435   7.707 -0.2318  0.3517  0.2838
   65SAPC  H13R 5334   0.612   2.369   7.790 -0.0052 -1.8362 -1.4465
   65SAPC  H13S 5335   0.483   2.380   7.686 -0.0820  0.5303 -0.9406
   65SAPC  C214 5336   0.551   2.571   7.754  0.6252  0.0932 -0.6375
   65SAPC  H14R 5337   0.492   2.636   7.688 -0.3277  1.8614  1.7889
   65SAPC  C215 5338   0.602   2.626   7.873 -0.7427  0.2199 -0.2022
   65SAPC  H15R 5339   0.570   2.726   7.905  0.9481  0.2000  1.8069
   65SAPC  C216 5340   0.705   2.562   7.970 -0.0198  0.1309  0.2878
   65SAPC  H16R 5341   0.792   2.628   7.989 -0.8237  0.7976  1.8291
   65SAPC  H16S 5342   0.743   2.467   7.927  0.2659  0.4337 -0.1333
   65SAPC  C217 5343   0.635   2.528   8.100 -0.4808  0.1997 -0.3678
   65SAPC  H17R 5344   0.611   2.617   8.163  0.6439 -0.0062  0.3811
   65SAPC  H17S 5345   0.711   2.475   8.161 -0.1612 -0.6850 -1.5002
   65SAPC  C218 5346   0.511   2.430   8.093 -0.0922  0.1766 -0.2110
   65SAPC  H18R 5347   0.531   2.360   8.009  0.0954 -1.0916  0.8540
   65SAPC  H18S 5348   0.421   2.488   8.062  0.5504  1.6031  0.4658
   65SAPC  C219 5349   0.488   2.343   8.217  0.4100 -0.1235 -0.0235
   65SAPC  H19R 5350   0.495   2.407   8.307 -2.8107  1.5019 -0.7849
   65SAPC  H19S 5351   0.571   2.269   8.219 -0.3275 -0.9613  2.5770
   65SAPC  C220 5352   0.345   2.287   8.213 -0.1512 -0.5309 -0.0115
   65SAPC  H20R 5353   0.266   2.361   8.237  0.6452 -0.3360  2.2364
   65SAPC  H20S 5354   0.341   2.203   8.286  1.3288 -1.2888 -0.7654
   65SAPC  H20T 5355   0.313   2.254   8.112  0.4198  0.6894 -0.6011
   65SAPC   C33 5356   1.139   2.914   6.545 -0.2255  0.3658  0.4624
   65SAPC   H3X 5357   1.210   2.905   6.460 -1.5344  0.3745 -0.6574
   65SAPC   H3Y 5358   1.108   2.807   6.554  0.2332 -0.2043 -3.2440
   65SAPC   C34 5359   1.215   2.957   6.673  0.0748  0.1344 -1.2739
   65SAPC   H4X 5360   1.244   3.064   6.683  0.6533 -0.1670  0.8521
   65SAPC   H4Y 5361   1.312   2.903   6.667 -0.4486 -0.9669 -0.2852
   65SAPC   C35 5362   1.139   2.926   6.798 -0.1768 -0.1594  0.1162
   65SAPC   H5X 5363   1.128   2.816   6.799 -0.4913 -0.1645 -1.6567
   65SAPC   H5Y 5364   1.035   2.965   6.794 -0.2129 -0.1637  0.8196
   65SAPC   C36 5365   1.212   2.985   6.929  0.2437  0.6326  0.1287
   65SAPC   H6X 5366   1.217   3.095   6.915  0.1676  0.3507 -2.7721
   65SAPC   H6Y 5367   1.316   2.949   6.941 -0.4216 -1.6189 -0.3003
   65SAPC   C37 5368   1.134   2.944   7.059 -0.2005 -0.2249 -0.0253
   65SAPC   H7X 5369   1.127   2.834   7.057 -0.8746 -0.1857 -2.2285
   65SAPC   H7Y 5370   1.029   2.980   7.052 -0.5420 -1.3194 -0.6138
   65SAPC   C38 5371   1.195   2.988   7.183  0.4440 -0.3948 -0.0014
   65SAPC   H8X 5372   1.129   2.981   7.272  2.5366 -0.0740  1.6499
   65SAPC   H8Y 5373   1.216   3.097   7.179  0.5103 -0.3874  0.4660
   65SAPC   C39 5374   1.326   2.916   7.218 -0.1965  0.1691  0.5293
   65SAPC   H9X 5375   1.401   2.937   7.139  0.9320 -1.8320  0.9982
   65SAPC   H9Y 5376   1.296   2.809   7.208 -0.7240  0.2782  0.8915
   65SAPC  C310 5377   1.374   2.949   7.360  0.6049  0.2587 -0.6805
   65SAPC  H10X 5378   1.409   2.859   7.416  1.5454  0.4335 -0.9741
   65SAPC  H10Y 5379   1.284   2.987   7.413 -0.1999 -0.5096 -1.4473
   65SAPC  C311 5380   1.499   3.038   7.357  0.1656  0.1985  0.4241
   65SAPC  H11X 5381   1.580   2.987   7.301  1.1388 -0.6731  2.5252
   65SAPC  H11Y 5382   1.539   3.040   7.461 -1.5890  1.1169  1.1134
   65SAPC  C312 5383   1.466   3.187   7.314 -0.2666  0.3776 -0.3594
   65SAPC  H12X 5384   1.403   3.232   7.394 -0.9495  0.6250 -1.0310
   65SAPC  H12Y 5385   1.406   3.193   7.221 -1.8781  0.7541  0.6535
   65SAPC  C313 5386   1.587   3.272   7.279 -0.6765 -0.0923  0.1490
   65SAPC  H13X 5387   1.648   3.283   7.372  0.9755  3.6727 -1.2109
   65SAPC  H13Y 5388   1.553   3.371   7.243 -2.0995 -0.7196 -0.2938
   65SAPC  C314 5389   1.668   3.214   7.163  0.3653  0.7964  0.0817
   65SAPC  H14X 5390   1.705   3.109   7.171  0.7767  0.9757  0.5967
   65SAPC  H14Y 5391   1.760   3.276   7.159  1.5758 -0.3758  4.4313
   65SAPC  C315 5392   1.608   3.211   7.023 -0.1763  0.6780 -0.0114
   65SAPC  H15X 5393   1.548   3.301   7.000 -2.3085 -0.8868 -0.9420
   65SAPC  H15Y 5394   1.536   3.128   7.041 -0.0974  0.5036 -0.4832
   65SAPC  C316 5395   1.724   3.180   6.921  0.4301 -0.0560 -0.5774
   65SAPC  H16X 5396   1.783   3.088   6.942  2.2757  1.1060 -0.4378
   65SAPC  H16Y 5397   1.790   3.268   6.932 -0.4524  0.6712 -1.0101
   65SAPC  C317 5398   1.672   3.182   6.777  0.3780 -0.1179  0.1335
   65SAPC  H17X 5399   1.760   3.171   6.710  1.7590 -0.5240  1.9712
   65SAPC  H17Y 5400   1.623   3.281   6.763  0.3214  0.5205  3.8572
   65SAPC  C318 5401   1.577   3.072   6.738 -0.4634 -0.0764  0.1670
   65SAPC  H18X 5402   1.490   3.096   6.803  0.3825 -0.9572  1.6993
   65SAPC  H18Y 5403   1.624   2.975   6.764 -1.5037 -0.3785  1.0061
   65SAPC  H18Z 5404   1.538   3.067   6.635 -1.6018 -0.0928  0.5811
   66SAPC     N 5405   6.654   3.077   6.377 -0.2685 -0.8503  0.2194
   66SAPC   C12 5406   6.578   3.040   6.501  0.8553 -0.2419  0.2086
   66SAPC  H12A 5407   6.492   3.105   6.496  0.4127 -0.8454 -3.9619
   66SAPC  H12B 5408   6.641   3.056   6.587  1.1972 -0.3587 -0.0164
   66SAPC   C13 5409   6.566   3.075   6.255  0.0578 -0.1469  0.1449
   66SAPC  H13A 5410   6.488   3.149   6.272 -1.4125 -1.5724 -0.1556
   66SAPC  H13B 5411   6.622   3.092   6.165  1.1075 -0.2603  0.7674
   66SAPC  H13C 5412   6.530   2.974   6.242 -2.5768  0.6674  0.3282
   66SAPC   C14 5413   6.705   3.217   6.393 -0.4863  0.2370 -0.2183
   66SAPC  H14A 5414   6.769   3.244   6.310 -0.6792 -0.5043 -0.6147
   66SAPC  H14B 5415   6.639   3.301   6.376  1.2603  1.7935  0.3645
   66SAPC  H14C 5416   6.763   3.225   6.484 -0.7546  1.0402 -0.1068
   66SAPC   C15 5417   6.777   2.993   6.361  0.1458 -0.0858  0.4004
   66SAPC  H15A 5418   6.756   2.905   6.301  0.3917  0.3833 -0.3835
   66SAPC  H15B 5419   6.858   3.044   6.311 -0.8447  2.2735  1.1106
   66SAPC  H15C 5420   6.813   2.967   6.460  0.6663 -0.4497  0.1206
   66SAPC   C11 5421   6.518   2.899   6.514 -0.2559 -0.0257  0.0357
   66SAPC  H11A 5422   6.460   2.899   6.608 -1.4101 -1.5679 -0.6274
   66SAPC  H11B 5423   6.607   2.833   6.518 -1.0229 -1.2695 -1.9988
   66SAPC     P 5424   6.378   2.731   6.356  0.0073  0.2859 -0.0288
   66SAPC   O13 5425   6.240   2.740   6.313 -0.0953  0.3363  0.2421
   66SAPC   O14 5426   6.474   2.674   6.264  0.3516 -0.1454  0.0892
   66SAPC   O12 5427   6.425   2.872   6.408  0.4207 -0.6437  0.0782
   66SAPC   O11 5428   6.379   2.649   6.492  0.2077 -0.4295  0.0545
   66SAPC    C1 5429   6.264   2.620   6.571  0.2805  0.2099 -0.5461
   66SAPC    HA 5430   6.185   2.697   6.562  0.3762  0.5436  1.1631
   66SAPC    HB 5431   6.232   2.520   6.534 -0.5338  0.1653  0.2619
   66SAPC    C2 5432   6.300   2.614   6.725  0.7988 -0.0251 -0.3171
   66SAPC    HS 5433   6.227   2.540   6.766  0.4364 -0.2235 -1.2825
   66SAPC   O21 5434   6.276   2.747   6.782  0.1448 -0.0898 -0.2287
   66SAPC   C21 5435   6.142   2.770   6.810  0.3535  0.1046 -0.8309
   66SAPC   O22 5436   6.051   2.686   6.796 -0.4239 -0.2938 -0.1339
   66SAPC   C22 5437   6.131   2.907   6.876 -0.2541  0.1863 -0.2057
   66SAPC   H2R 5438   6.213   2.967   6.831 -0.7981 -1.3334 -3.5069
   66SAPC   H2S 5439   6.033   2.952   6.848 -0.3888  0.3126  0.4509
   66SAPC    C3 5440   6.443   2.559   6.748 -0.1242 -0.5554  0.2602
   66SAPC    HX 5441   6.514   2.627   6.695 -1.2347 -1.5367 -2.6898
   66SAPC    HY 5442   6.455   2.463   6.694 -2.3504 -0.9757  0.4123
   66SAPC   O31 5443   6.470   2.560   6.889 -0.1223  0.5188  0.7188
   66SAPC   C31 5444   6.592   2.548   6.923  0.6899  0.0525 -0.2217
   66SAPC   O32 5445   6.682   2.515   6.850 -0.0656 -0.3720  0.4103
   66SAPC   C32 5446   6.603   2.595   7.068 -0.5252  0.2545 -0.9335
   66SAPC   H2X 5447   6.538   2.534   7.135  0.1136  1.7401  1.1334
   66SAPC   H2Y 5448   6.572   2.700   7.085  1.0856  0.4175  1.4846
   66SAPC   C23 5449   6.137   2.897   7.030  0.0676  0.5500 -0.0170
   66SAPC   H3R 5450   6.067   2.820   7.069  0.2253  0.9798  1.1519
   66SAPC   H3S 5451   6.117   2.996   7.077  1.2060  0.1102  1.4609
   66SAPC   C24 5452   6.279   2.856   7.077  0.1558  0.0689  0.0744
   66SAPC   H4R 5453   6.306   2.752   7.047 -0.4033 -0.5476  1.6389
   66SAPC   H4S 5454   6.272   2.850   7.188 -0.4986 -0.4020  0.0077
   66SAPC   C25 5455   6.382   2.947   7.027  0.1996 -0.1005 -0.3232
   66SAPC   H5R 5456   6.381   2.955   6.917  0.2461 -4.4583 -0.7918
   66SAPC   C26 5457   6.471   3.010   7.105  0.1793  0.2337  0.3125
   66SAPC   H6R 5458   6.549   3.071   7.058  1.3952 -1.4833 -0.0105
   66SAPC   C27 5459   6.488   2.981   7.258 -0.0624 -0.3095 -0.0807
   66SAPC   H7R 5460   6.589   3.017   7.287 -1.0842  0.3991  3.0376
   66SAPC   H7S 5461   6.481   2.871   7.275 -2.2423 -0.0919  0.6960
   66SAPC   C28 5462   6.393   3.047   7.353  0.0477  0.3402  0.1332
   66SAPC   H8R 5463   6.306   3.105   7.316 -0.6661  0.5676  2.0437
   66SAPC   C29 5464   6.387   3.022   7.488  0.0241  0.3321  0.4045
   66SAPC   H9R 5465   6.306   3.073   7.542 -0.3642  3.0940 -2.5067
   66SAPC  C210 5466   6.478   2.927   7.560 -0.5097  0.4496  0.0555
   66SAPC  H10R 5467   6.528   2.973   7.648  1.7514 -0.3705 -0.7155
   66SAPC  H10S 5468   6.568   2.909   7.496 -2.2647 -3.7555 -1.5733
   66SAPC  C211 5469   6.421   2.794   7.598  0.6771 -0.1600  0.5603
   66SAPC  H11R 5470   6.379   2.739   7.513 -1.3173  0.1909  1.2652
   66SAPC  C212 5471   6.429   2.738   7.719  0.1989 -0.3929  1.0840
   66SAPC  H12R 5472   6.383   2.637   7.721 -2.8575  0.7384 -1.7237
   66SAPC  C213 5473   6.490   2.774   7.849 -0.4289  0.1735 -0.3861
   66SAPC  H13R 5474   6.550   2.867   7.840  2.7784 -1.4371  2.1871
   66SAPC  H13S 5475   6.576   2.712   7.882  0.8273  1.7271 -0.6399
   66SAPC  C214 5476   6.397   2.781   7.966 -0.4660 -0.1903 -0.5781
   66SAPC  H14R 5477   6.328   2.696   7.972 -0.8501 -0.1080 -3.0564
   66SAPC  C215 5478   6.420   2.851   8.081 -0.2057  0.1238  0.5447
   66SAPC  H15R 5479   6.343   2.857   8.159  0.9505 -1.4419  1.8840
   66SAPC  C216 5480   6.539   2.937   8.118 -0.0939  0.3704  0.5955
   66SAPC  H16R 5481   6.632   2.921   8.060 -1.7715  1.2025 -2.5002
   66SAPC  H16S 5482   6.571   2.902   8.219  0.9402  1.6394  0.7403
   66SAPC  C217 5483   6.505   3.088   8.113 -0.3881  0.0945 -0.3814
   66SAPC  H17R 5484   6.598   3.143   8.139 -1.1457  0.0101  2.9613
   66SAPC  H17S 5485   6.427   3.108   8.190  0.2564 -2.0156  0.9342
   66SAPC  C218 5486   6.456   3.132   7.977  0.6449 -0.0253  0.5522
   66SAPC  H18R 5487   6.356   3.089   7.953  0.5241  0.1821  0.6700
   66SAPC  H18S 5488   6.526   3.094   7.900  1.2945  0.6515  0.7964
   66SAPC  C219 5489   6.436   3.286   7.976  0.5340  0.2120 -0.3426
   66SAPC  H19R 5490   6.538   3.329   7.967  1.1176 -1.0759 -0.1535
   66SAPC  H19S 5491   6.388   3.329   8.066 -1.2335 -1.5029 -0.3911
   66SAPC  C220 5492   6.366   3.345   7.841 -0.8165  0.1300 -0.3099
   66SAPC  H20R 5493   6.260   3.314   7.847 -0.0249 -2.4874  2.8950
   66SAPC  H20S 5494   6.427   3.294   7.764  1.3617  0.0446  1.3519
   66SAPC  H20T 5495   6.384   3.455   7.846  0.8362 -0.1363  0.3209
   66SAPC   C33 5496   6.741   2.571   7.137  0.2067 -0.3651  0.6934
   66SAPC   H3X 5497   6.804   2.661   7.121  0.7635 -0.3366  2.7512
   66SAPC   H3Y 5498   6.799   2.487   7.092  2.0437  1.1286  0.1385
   66SAPC   C34 5499   6.732   2.547   7.289  0.3626  0.1772 -0.4761
   66SAPC   H4X 5500   6.677   2.450   7.295 -1.6539  1.3260  0.9064
   66SAPC   H4Y 5501   6.673   2.623   7.345  0.6927 -0.8418  1.3408
   66SAPC   C35 5502   6.857   2.513   7.367 -0.9245  0.3135  0.3282
   66SAPC   H5X 5503   6.938   2.589   7.359 -0.7071  0.1555  0.9796
   66SAPC   H5Y 5504   6.899   2.418   7.328 -2.0224 -0.1106  0.1466
   66SAPC   C36 5505   6.816   2.483   7.507  0.2320  0.1284 -0.4958
   66SAPC   H6X 5506   6.729   2.414   7.513 -0.2194  0.4358 -2.7447
   66SAPC   H6Y 5507   6.778   2.580   7.546  0.0543 -1.0551  2.5653
   66SAPC   C37 5508   6.933   2.434   7.593  0.1818  0.3869  0.0682
   66SAPC   H7X 5509   7.006   2.515   7.614 -2.3128  2.3937  1.6114
   66SAPC   H7Y 5510   6.982   2.349   7.541 -0.5718 -1.9325  2.9078
   66SAPC   C38 5511   6.882   2.389   7.740 -0.3867  0.2881  0.0026
   66SAPC   H8X 5512   6.952   2.315   7.784 -1.2697 -0.3091  0.4405
   66SAPC   H8Y 5513   6.791   2.327   7.723 -0.9257  0.7438  1.1074
   66SAPC   C39 5514   6.866   2.502   7.839 -0.2813  0.3294  0.3709
   66SAPC   H9X 5515   6.805   2.585   7.797 -1.3285  0.0266  1.2478
   66SAPC   H9Y 5516   6.960   2.556   7.861 -0.4974  0.5583  0.7518
   66SAPC  C310 5517   6.813   2.445   7.972  0.3875  0.1838  0.0901
   66SAPC  H10X 5518   6.859   2.349   8.004 -0.0394 -0.1764 -0.3507
   66SAPC  H10Y 5519   6.704   2.428   7.960  0.3450 -1.1992  1.9840
   66SAPC  C311 5520   6.834   2.542   8.088 -0.2239 -0.1449 -0.5389
   66SAPC  H11X 5521   6.801   2.644   8.060 -0.4338  1.6421  5.0190
   66SAPC  H11Y 5522   6.942   2.541   8.112  1.2216 -3.1583 -5.5984
   66SAPC  C312 5523   6.755   2.503   8.215  0.0293 -0.6919  0.0003
   66SAPC  H12X 5524   6.782   2.396   8.228 -2.2740 -1.5649 -1.7609
   66SAPC  H12Y 5525   6.645   2.512   8.202  0.3711  3.3184 -1.5363
   66SAPC  C313 5526   6.786   2.582   8.337 -0.0222 -0.3052 -1.2458
   66SAPC  H13X 5527   6.782   2.693   8.329  0.9183 -0.2005 -0.3364
   66SAPC  H13Y 5528   6.887   2.549   8.368 -0.0556 -2.2319 -2.9619
   66SAPC  C314 5529   6.697   2.555   8.459  0.1028  0.1274  0.0053
   66SAPC  H14X 5530   6.763   2.593   8.540  0.4053 -0.1120 -0.1264
   66SAPC  H14Y 5531   6.681   2.446   8.477 -1.1090 -0.0659 -1.9419
   66SAPC  C315 5532   6.563   2.635   8.461  0.6367 -0.2583  0.0288
   66SAPC  H15X 5533   6.495   2.598   8.381 -2.0132  1.3601  1.3877
   66SAPC  H15Y 5534   6.573   2.745   8.457 -0.7289 -0.0538  1.2154
   66SAPC  C316 5535   6.483   2.617   8.589  0.1980  0.5961  0.0939
   66SAPC  H16X 5536   6.533   2.677   8.668 -0.0057  1.3967 -0.3784
   66SAPC  H16Y 5537   6.489   2.511   8.622 -0.2355  0.4443 -0.3025
   66SAPC  C317 5538   6.339   2.667   8.581  0.2555 -0.5764  0.5850
   66SAPC  H17X 5539   6.295   2.648   8.681  0.4181  1.0836  1.0073
   66SAPC  H17Y 5540   6.282   2.608   8.506  1.0057 -0.6013  0.0214
   66SAPC  C318 5541   6.318   2.814   8.547  0.2738  0.1221 -0.2565
   66SAPC  H18X 5542   6.213   2.849   8.537  0.3690 -0.2143 -3.8916
   66SAPC  H18Y 5543   6.346   2.829   8.441 -3.9724  2.9135 -1.2513
   66SAPC  H18Z 5544   6.380   2.880   8.612  0.1827  0.4568 -0.5051
   67SAPC     N 5545   5.478   6.322   6.426 -0.2468  0.3103 -0.1258
   67SAPC   C12 5546   5.500   6.352   6.573 -0.5179  1.4892 -0.1441
   67SAPC  H12A 5547   5.551   6.268   6.619  0.3556  1.1466 -1.6622
   67SAPC  H12B 5548   5.416   6.361   6.639  0.5646 -1.9107  1.9573
   67SAPC   C13 5549   5.405   6.191   6.405  0.0746  0.3435  0.0135
   67SAPC  H13A 5550   5.313   6.176   6.461 -0.2480 -2.3077 -1.0476
   67SAPC  H13B 5551   5.387   6.172   6.300  0.2349 -1.2908  0.2553
   67SAPC  H13C 5552   5.471   6.112   6.436  0.6724  0.5988 -0.5843
   67SAPC   C14 5553   5.394   6.425   6.365  0.0215 -0.3954  0.2561
   67SAPC  H14A 5554   5.438   6.520   6.338 -2.4363  0.4139 -1.1785
   67SAPC  H14B 5555   5.358   6.384   6.272  2.2651 -1.3912 -0.2411
   67SAPC  H14C 5556   5.310   6.440   6.432  0.3358 -1.0588  0.8081
   67SAPC   C15 5557   5.608   6.311   6.356  0.4993 -0.3674  0.3734
   67SAPC  H15A 5558   5.678   6.246   6.405  0.7056 -0.6447 -0.2752
   67SAPC  H15B 5559   5.586   6.294   6.251 -0.4685  1.4546  0.2321
   67SAPC  H15C 5560   5.659   6.406   6.358  1.4380 -0.8626  0.3913
   67SAPC   C11 5561   5.597   6.465   6.600 -0.1134  0.2213  0.0851
   67SAPC  H11A 5562   5.580   6.528   6.689  2.0436 -0.2474  0.8937
   67SAPC  H11B 5563   5.606   6.540   6.518  2.3841  0.5918  0.6049
   67SAPC     P 5564   5.854   6.439   6.669  0.3956 -0.1335  0.0584
   67SAPC   O13 5565   5.913   6.530   6.564  0.2305  0.0947 -0.7104
   67SAPC   O14 5566   5.838   6.493   6.802  0.6974  0.8717 -0.3839
   67SAPC   O12 5567   5.715   6.388   6.623 -0.2203  0.4523  0.2063
   67SAPC   O11 5568   5.940   6.303   6.674 -0.2069  0.5889  0.5525
   67SAPC    C1 5569   5.882   6.175   6.660 -0.0470 -0.5715 -0.3365
   67SAPC    HA 5570   5.786   6.183   6.606  0.1837  1.1651 -0.5424
   67SAPC    HB 5571   5.950   6.122   6.590  0.0766  0.0163 -0.6655
   67SAPC    C2 5572   5.865   6.111   6.798  0.0186  0.5166 -0.4296
   67SAPC    HS 5573   5.814   6.014   6.780  1.1071 -0.1329 -0.0801
   67SAPC   O21 5574   5.795   6.199   6.891  0.2075  0.1746  0.0838
   67SAPC   C21 5575   5.658   6.199   6.866  0.1059 -0.0292 -0.1959
   67SAPC   O22 5576   5.609   6.135   6.777  0.3664 -0.4619 -0.4554
   67SAPC   C22 5577   5.582   6.284   6.969 -0.2353 -0.4306 -0.1304
   67SAPC   H2R 5578   5.585   6.224   7.062 -1.2377  0.9993  0.8638
   67SAPC   H2S 5579   5.648   6.373   6.976  0.7402 -0.9900 -1.5618
   67SAPC    C3 5580   6.004   6.063   6.856 -0.1236  0.2368 -0.9420
   67SAPC    HX 5581   6.062   6.156   6.877 -0.5284  0.0615  1.1107
   67SAPC    HY 5582   6.059   6.008   6.776 -1.8722 -0.8522 -1.4333
   67SAPC   O31 5583   5.988   5.974   6.972 -0.5782 -0.5107 -0.1655
   67SAPC   C31 5584   5.977   6.036   7.086  0.6654  0.0645 -0.2986
   67SAPC   O32 5585   5.995   6.158   7.104  0.2380 -0.3354 -0.3897
   67SAPC   C32 5586   5.921   5.941   7.193 -0.0097  0.2367  0.4469
   67SAPC   H2X 5587   5.947   5.838   7.159  1.0672  0.5148  0.4074
   67SAPC   H2Y 5588   5.810   5.947   7.199  0.0872  1.8979  1.0154
   67SAPC   C23 5589   5.443   6.325   6.920  0.2420  0.0595 -0.0388
   67SAPC   H3R 5590   5.403   6.252   6.846 -0.1755  0.6170 -0.3653
   67SAPC   H3S 5591   5.447   6.420   6.863 -0.4405 -0.2208 -0.5638
   67SAPC   C24 5592   5.342   6.343   7.026 -0.1390  0.1507  0.2993
   67SAPC   H4R 5593   5.318   6.243   7.068 -1.8957 -0.0281 -1.0254
   67SAPC   H4S 5594   5.247   6.390   6.992 -0.3710 -0.9106 -0.5932
   67SAPC   C25 5595   5.385   6.441   7.134  0.0956 -0.1784  0.2430
   67SAPC   H5R 5596   5.400   6.543   7.094 -0.3873 -0.0831  0.3074
   67SAPC   C26 5597   5.416   6.412   7.259  0.2188  0.2143 -0.3374
   67SAPC   H6R 5598   5.470   6.491   7.314 -1.2846  1.3129 -0.3622
   67SAPC   C27 5599   5.400   6.270   7.319 -1.0470  1.2885 -1.6837
   67SAPC   H7R 5600   5.358   6.190   7.254  0.4110 -0.7211 -0.2481
   67SAPC   H7S 5601   5.336   6.272   7.410 -1.5491 -2.1487 -1.8401
   67SAPC   C28 5602   5.536   6.216   7.365  0.3770 -0.0960 -0.4473
   67SAPC   H8R 5603   5.582   6.145   7.295  0.3358 -0.0687 -0.5017
   67SAPC   C29 5604   5.599   6.250   7.483 -0.7149 -0.2958  0.0380
   67SAPC   H9R 5605   5.702   6.213   7.495 -0.5642  0.4964  1.3786
   67SAPC  C210 5606   5.554   6.349   7.590  0.0452  0.7398  0.0390
   67SAPC  H10R 5607   5.445   6.368   7.594 -0.1656 -0.4316  0.1570
   67SAPC  H10S 5608   5.599   6.444   7.555 -0.4724  0.4819 -1.4192
   67SAPC  C211 5609   5.614   6.303   7.719  1.0585  0.4445  0.2357
   67SAPC  H11R 5610   5.540   6.253   7.783  0.4042 -1.7170 -2.0551
   67SAPC  C212 5611   5.747   6.320   7.755  0.7045 -0.3520 -0.1545
   67SAPC  H12R 5612   5.785   6.267   7.843 -1.6746  0.6435  1.5711
   67SAPC  C213 5613   5.856   6.392   7.677 -0.0620 -0.8872 -0.0796
   67SAPC  H13R 5614   5.804   6.438   7.590 -2.8982 -0.3828  1.7480
   67SAPC  H13S 5615   5.921   6.315   7.631 -2.5203 -0.8113 -4.1854
   67SAPC  C214 5616   5.931   6.488   7.770  0.6588 -0.0841  0.6056
   67SAPC  H14R 5617   5.871   6.571   7.811  0.2116  0.4709 -1.0880
   67SAPC  C215 5618   6.064   6.471   7.809  1.2724  0.3469  0.2601
   67SAPC  H15R 5619   6.106   6.547   7.877  2.9594  1.1092 -1.5538
   67SAPC  C216 5620   6.138   6.343   7.786  0.0216  0.0996  0.6846
   67SAPC  H16R 5621   6.065   6.260   7.772  1.5328 -1.2230  0.2626
   67SAPC  H16S 5622   6.199   6.309   7.872 -0.8639 -2.5427  0.3685
   67SAPC  C217 5623   6.239   6.350   7.660 -0.4247  0.4802 -0.3714
   67SAPC  H17R 5624   6.267   6.243   7.653 -3.5021 -0.4349 -0.1095
   67SAPC  H17S 5625   6.325   6.411   7.695 -0.4478 -0.2289  0.9923
   67SAPC  C218 5626   6.190   6.390   7.525  0.5607  0.4745  0.6116
   67SAPC  H18R 5627   6.145   6.491   7.518  0.7206  0.5966  1.2971
   67SAPC  H18S 5628   6.105   6.325   7.494  1.2148 -0.5605  0.9288
   67SAPC  C219 5629   6.288   6.376   7.399 -0.9251 -0.0428 -0.6780
   67SAPC  H19R 5630   6.318   6.270   7.382 -1.3764 -0.0281 -1.6465
   67SAPC  H19S 5631   6.381   6.430   7.430 -1.1885  0.9891 -1.6160
   67SAPC  C220 5632   6.236   6.428   7.268 -0.0039  0.3875  0.3452
   67SAPC  H20R 5633   6.247   6.535   7.241 -0.5801  0.7472  1.4763
   67SAPC  H20S 5634   6.128   6.404   7.260 -0.9397  4.0778 -0.0752
   67SAPC  H20T 5635   6.281   6.372   7.183  0.3044 -1.7133  1.8138
   67SAPC   C33 5636   5.964   5.975   7.340 -0.8756  0.1864  0.5165
   67SAPC   H3X 5637   5.909   6.068   7.365  0.7774  1.1781  0.6005
   67SAPC   H3Y 5638   6.072   5.998   7.349 -0.4998 -1.8650  2.1577
   67SAPC   C34 5639   5.918   5.875   7.454 -0.0037 -0.2329  0.3519
   67SAPC   H4X 5640   5.976   5.782   7.435  1.1125  0.8272 -1.7874
   67SAPC   H4Y 5641   5.810   5.854   7.438 -0.0679  0.4042 -0.0848
   67SAPC   C35 5642   5.918   5.943   7.593 -0.7162 -0.6549  0.3911
   67SAPC   H5X 5643   5.849   6.029   7.580 -0.2061 -0.3017 -0.0482
   67SAPC   H5Y 5644   6.021   5.982   7.604 -0.2434 -2.1378  1.4597
   67SAPC   C36 5645   5.896   5.846   7.716  0.6222  1.3497  0.1720
   67SAPC   H6X 5646   5.954   5.751   7.710 -2.0236 -0.4494  1.2200
   67SAPC   H6Y 5647   5.791   5.812   7.702  1.2683 -0.0578 -1.7567
   67SAPC   C37 5648   5.901   5.918   7.849 -0.7840  0.0234 -0.7410
   67SAPC   H7X 5649   5.854   5.854   7.927  1.6918 -0.1028  0.7544
   67SAPC   H7Y 5650   5.827   5.999   7.832 -2.0456 -0.9039  0.1667
   67SAPC   C38 5651   6.040   5.970   7.901  0.1826  0.0335  0.5634
   67SAPC   H8X 5652   6.074   6.065   7.855  1.5608  0.8261  3.0493
   67SAPC   H8Y 5653   6.120   5.896   7.878 -1.2770 -1.1351 -0.9580
   67SAPC   C39 5654   6.034   5.986   8.049 -0.8212 -0.5278 -0.1765
   67SAPC   H9X 5655   6.021   5.888   8.100  1.3819 -0.4353  0.6653
   67SAPC   H9Y 5656   5.940   6.043   8.064  0.1158  1.5621 -1.7025
   67SAPC  C310 5657   6.162   6.059   8.091  0.0235 -0.4444 -0.3219
   67SAPC  H10X 5658   6.192   6.150   8.035 -1.1868  1.6140  2.1975
   67SAPC  H10Y 5659   6.246   5.986   8.089  1.0062  0.6712 -0.6964
   67SAPC  C311 5660   6.151   6.093   8.237 -0.1801 -0.1128  0.2534
   67SAPC  H11X 5661   6.103   6.008   8.291  1.2686  0.1806  2.1208
   67SAPC  H11Y 5662   6.077   6.176   8.236  1.9207  1.8571  0.6302
   67SAPC  C312 5663   6.279   6.152   8.302 -0.2090 -0.7074 -0.0740
   67SAPC  H12X 5664   6.316   6.235   8.238 -1.8938 -0.0816 -0.2891
   67SAPC  H12Y 5665   6.355   6.074   8.323 -0.6440 -0.4139  3.0425
   67SAPC  C313 5666   6.241   6.218   8.433  0.6735 -0.3619 -0.1981
   67SAPC  H13X 5667   6.165   6.162   8.491  1.2346 -1.4694 -0.4982
   67SAPC  H13Y 5668   6.191   6.317   8.419 -1.8913 -1.4059  0.9637
   67SAPC  C314 5669   6.371   6.239   8.526  0.4310 -0.5885  0.0879
   67SAPC  H14X 5670   6.462   6.266   8.469 -0.2465  1.5166 -0.1006
   67SAPC  H14Y 5671   6.377   6.146   8.586 -1.3029 -2.1755 -1.9943
   67SAPC  C315 5672   6.364   6.360   8.625 -0.1243 -1.1641 -0.0931
   67SAPC  H15X 5673   6.448   6.362   8.698 -0.0728 -0.6346 -0.1646
   67SAPC  H15Y 5674   6.269   6.365   8.683 -0.8327  2.8837 -1.2782
   67SAPC  C316 5675   6.384   6.492   8.550  0.0488 -0.0411 -0.9539
   67SAPC  H16X 5676   6.296   6.506   8.485  0.2245 -0.3271 -1.2552
   67SAPC  H16Y 5677   6.481   6.497   8.496  1.6006  0.6298  1.6816
   67SAPC  C317 5678   6.384   6.608   8.653 -0.3386 -0.1011 -0.0686
   67SAPC  H17X 5679   6.414   6.696   8.594 -0.8146  0.1605  0.0763
   67SAPC  H17Y 5680   6.467   6.606   8.727  1.5077  0.3188 -2.0249
   67SAPC  C318 5681   6.250   6.619   8.715 -0.4073  0.1202  0.8121
   67SAPC  H18X 5682   6.174   6.607   8.635  0.1904  0.6866  0.1427
   67SAPC  H18Y 5683   6.227   6.720   8.754 -1.7693  0.8754 -1.7442
   67SAPC  H18Z 5684   6.239   6.544   8.796  1.2410 -1.2785 -0.1694
   68SAPC     N 5685   0.222   5.072   5.958  0.2692 -0.3211  0.5378
   68SAPC   C12 5686   0.244   4.982   6.072  0.4598  1.0331 -0.1526
   68SAPC  H12A 5687   0.183   5.013   6.155 -0.6879 -1.9370  0.2547
   68SAPC  H12B 5688   0.341   4.989   6.118 -0.4872  2.2781  1.7991
   68SAPC   C13 5689   0.309   5.041   5.842  0.3752 -0.5670 -0.0313
   68SAPC  H13A 5690   0.412   5.072   5.854  1.1274 -2.5223 -0.9721
   68SAPC  H13B 5691   0.306   4.937   5.814  1.2631 -0.0920 -2.1037
   68SAPC  H13C 5692   0.270   5.098   5.758 -0.1772  0.1109  0.6755
   68SAPC   C14 5693   0.076   5.074   5.925  0.1588 -0.1277 -0.5492
   68SAPC  H14A 5694   0.023   5.116   6.010  1.5506 -0.8516  0.7300
   68SAPC  H14B 5695   0.046   5.136   5.842 -1.0961  0.9556  0.6677
   68SAPC  H14C 5696   0.035   4.976   5.903  1.8799 -1.2390  0.9070
   68SAPC   C15 5697   0.259   5.214   6.006  0.7162 -0.2027  0.5504
   68SAPC  H15A 5698   0.360   5.212   6.045  0.7984 -1.5777  0.3222
   68SAPC  H15B 5699   0.254   5.269   5.914  0.5654 -1.0984  0.0062
   68SAPC  H15C 5700   0.198   5.237   6.092 -0.8575 -0.2808 -0.5041
   68SAPC   C11 5701   0.225   4.831   6.041 -0.0707  0.3973 -0.4031
   68SAPC  H11A 5702   0.282   4.783   5.959 -0.7682 -0.8757 -0.1683
   68SAPC  H11B 5703   0.118   4.810   6.019 -0.2046 -0.1796  0.7181
   68SAPC     P 5704   0.401   4.724   6.201 -0.2472 -0.3017  0.3541
   68SAPC   O13 5705   0.443   4.615   6.114 -0.2542 -0.0039  0.4715
   68SAPC   O14 5706   0.495   4.838   6.201 -0.1800 -0.5927 -0.2009
   68SAPC   O12 5707   0.256   4.763   6.161  0.2184 -0.1371 -0.0174
   68SAPC   O11 5708   0.387   4.671   6.346 -0.1018 -0.2487 -0.3151
   68SAPC    C1 5709   0.280   4.711   6.426 -0.1028  0.1410  0.1444
   68SAPC    HA 5710   0.273   4.822   6.435  0.8882  0.1984  0.3884
   68SAPC    HB 5711   0.186   4.671   6.384 -0.3578  0.6501  0.2241
   68SAPC    C2 5712   0.286   4.655   6.571  0.6207  0.1377  0.0495
   68SAPC    HS 5713   0.281   4.544   6.563 -1.1671  0.2173 -0.4689
   68SAPC   O21 5714   0.176   4.716   6.639  0.4727  0.0992  0.4194
   68SAPC   C21 5715   0.054   4.658   6.629 -0.4650 -0.0095 -0.1858
   68SAPC   O22 5716   0.024   4.575   6.543 -0.4321 -0.1740 -0.1426
   68SAPC   C22 5717  -0.047   4.703   6.731  0.0994 -0.4990  0.4032
   68SAPC   H2R 5718  -0.004   4.780   6.798 -0.6230  1.7753 -1.6026
   68SAPC   H2S 5719  -0.129   4.756   6.678  0.8419  0.1152 -0.1422
   68SAPC    C3 5720   0.422   4.694   6.634  0.7406 -0.4286 -0.1968
   68SAPC    HX 5721   0.434   4.803   6.616  0.3906 -0.6290 -1.7971
   68SAPC    HY 5722   0.499   4.636   6.578 -0.9754 -2.3714 -0.6647
   68SAPC   O31 5723   0.423   4.676   6.776  0.1366  0.2666 -0.0238
   68SAPC   C31 5724   0.471   4.555   6.818 -0.4519 -0.0713  0.3475
   68SAPC   O32 5725   0.513   4.469   6.747 -0.3772 -0.3461 -0.0806
   68SAPC   C32 5726   0.473   4.550   6.965 -0.0300  0.2480  0.0696
   68SAPC   H2X 5727   0.376   4.529   7.015  0.2918  1.1676  1.1373
   68SAPC   H2Y 5728   0.508   4.651   6.995  1.5634  0.4497 -2.2301
   68SAPC   C23 5729  -0.103   4.581   6.812  0.2345 -0.8766  0.7087
   68SAPC   H3R 5730  -0.024   4.544   6.881 -0.3092 -1.3647  1.0859
   68SAPC   H3S 5731  -0.133   4.501   6.740  2.9200 -1.9154  0.6428
   68SAPC   C24 5732  -0.213   4.625   6.909  0.0655 -0.2480 -0.1244
   68SAPC   H4R 5733  -0.308   4.658   6.862  1.5964  0.8385 -2.6618
   68SAPC   H4S 5734  -0.176   4.717   6.959 -0.9165 -0.3712  0.8616
   68SAPC   C25 5735  -0.239   4.513   7.010 -0.6597  0.3595  0.6976
   68SAPC   H5R 5736  -0.277   4.424   6.957  1.9076  0.8771 -2.2593
   68SAPC   C26 5737  -0.222   4.509   7.145 -0.3236 -0.6574  0.4247
   68SAPC   H6R 5738  -0.237   4.417   7.203  1.9191 -0.9759  0.5896
   68SAPC   C27 5739  -0.168   4.625   7.228  0.0913  0.3511  0.2624
   68SAPC   H7R 5740  -0.220   4.627   7.326 -0.9050  0.9052 -0.2542
   68SAPC   H7S 5741  -0.196   4.727   7.195 -0.9599  0.3816  1.1812
   68SAPC   C28 5742  -0.020   4.603   7.244 -0.5293 -0.1578  0.5232
   68SAPC   H8R 5743   0.049   4.653   7.175  1.3976 -1.0634  1.7142
   68SAPC   C29 5744   0.042   4.528   7.338 -0.1063  0.4904  0.4685
   68SAPC   H9R 5745   0.151   4.518   7.342 -0.3218 -2.2707  3.4946
   68SAPC  C210 5746  -0.039   4.446   7.437 -0.0877  0.2522  1.0305
   68SAPC  H10R 5747  -0.115   4.386   7.383  2.9818 -3.1257  0.0596
   68SAPC  H10S 5748  -0.088   4.527   7.495  1.1144  1.3912  0.4919
   68SAPC  C211 5749   0.049   4.355   7.520  0.0850 -0.0756  0.4467
   68SAPC  H11R 5750   0.130   4.304   7.466  0.1596 -1.6534  1.9760
   68SAPC  C212 5751   0.031   4.324   7.648 -0.0047 -0.1180  0.3944
   68SAPC  H12R 5752   0.117   4.279   7.698 -0.4762  0.7143  2.0460
   68SAPC  C213 5753  -0.078   4.373   7.739 -0.8963  0.6849 -0.0530
   68SAPC  H13R 5754  -0.150   4.291   7.757  0.3480 -0.1020  1.6181
   68SAPC  H13S 5755  -0.136   4.454   7.690 -0.2467  0.3206 -1.4588
   68SAPC  C214 5756  -0.036   4.425   7.873 -0.2492 -0.9052  0.0922
   68SAPC  H14R 5757  -0.021   4.340   7.941  0.2226 -1.7231 -1.0011
   68SAPC  C215 5758  -0.018   4.552   7.911 -0.4048  0.2531  0.6642
   68SAPC  H15R 5759   0.010   4.565   8.017 -1.7793  0.7369  0.9866
   68SAPC  C216 5760  -0.038   4.670   7.825 -0.0344 -0.2193  0.1859
   68SAPC  H16R 5761  -0.109   4.745   7.864  2.1793  1.5117  1.0881
   68SAPC  H16S 5762  -0.058   4.636   7.721  0.2174 -0.3941  0.1942
   68SAPC  C217 5763   0.099   4.748   7.803  0.4697 -0.0441 -0.6293
   68SAPC  H17R 5764   0.059   4.825   7.733 -1.1537 -0.2659  0.0220
   68SAPC  H17S 5765   0.174   4.690   7.746 -0.5421 -0.3922 -1.6400
   68SAPC  C218 5766   0.160   4.802   7.932  0.5534 -0.6781 -0.5313
   68SAPC  H18R 5767   0.172   4.715   7.999 -2.8827 -2.4113 -1.9116
   68SAPC  H18S 5768   0.089   4.870   7.985 -3.0388 -2.0298 -3.1775
   68SAPC  C219 5769   0.294   4.868   7.904 -0.2810 -0.2941 -0.4914
   68SAPC  H19R 5770   0.276   4.950   7.832  1.4340 -0.0467 -0.6850
   68SAPC  H19S 5771   0.356   4.793   7.851 -1.8471 -2.4279  0.5298
   68SAPC  C220 5772   0.378   4.913   8.023  0.6692  0.3129 -0.1667
   68SAPC  H20R 5773   0.315   4.970   8.095  0.8476  0.2860  0.0127
   68SAPC  H20S 5774   0.474   4.963   7.997  0.8554 -0.0338 -0.1576
   68SAPC  H20T 5775   0.397   4.820   8.082 -0.2354 -1.2217 -2.1862
   68SAPC   C33 5776   0.581   4.455   7.021  0.2576 -0.2798  0.0566
   68SAPC   H3X 5777   0.674   4.501   6.983 -1.0418  2.6663  0.1351
   68SAPC   H3Y 5778   0.570   4.348   6.994 -1.9295 -0.4962  1.4561
   68SAPC   C34 5779   0.597   4.440   7.178 -0.1700 -0.2923 -0.0702
   68SAPC   H4X 5780   0.617   4.544   7.209  0.3717  0.0514 -1.5023
   68SAPC   H4Y 5781   0.679   4.370   7.204  0.8803  0.4318 -1.3465
   68SAPC   C35 5782   0.469   4.388   7.241  0.2241 -0.3456  0.0789
   68SAPC   H5X 5783   0.466   4.277   7.237 -2.2518 -0.4134  1.4892
   68SAPC   H5Y 5784   0.385   4.431   7.182  3.1691  2.8816 -2.1203
   68SAPC   C36 5785   0.443   4.431   7.385 -0.6500 -0.0058  0.1486
   68SAPC   H6X 5786   0.351   4.376   7.416 -0.2054  0.1898  1.9135
   68SAPC   H6Y 5787   0.424   4.540   7.394  0.4516  0.0609  2.3599
   68SAPC   C37 5788   0.541   4.376   7.496 -0.1382  0.8061  0.1216
   68SAPC   H7X 5789   0.630   4.440   7.515  1.0337 -0.5683 -0.5693
   68SAPC   H7Y 5790   0.574   4.276   7.460  0.6428  0.9066  0.5322
   68SAPC   C38 5791   0.463   4.351   7.626  0.6875  0.0920  0.7805
   68SAPC   H8X 5792   0.395   4.265   7.606  0.2714  0.5568  0.1143
   68SAPC   H8Y 5793   0.409   4.445   7.651 -1.2095 -0.6652 -0.1947
   68SAPC   C39 5794   0.532   4.300   7.755 -0.2967 -0.4358 -0.2412
   68SAPC   H9X 5795   0.613   4.376   7.763  0.4181 -0.8945 -2.3901
   68SAPC   H9Y 5796   0.585   4.205   7.734  0.2351 -0.5451  1.4407
   68SAPC  C310 5797   0.449   4.284   7.878 -0.5470 -0.2119  0.2327
   68SAPC  H10X 5798   0.360   4.220   7.862 -0.1635 -0.8778  0.7360
   68SAPC  H10Y 5799   0.409   4.385   7.903 -2.5277 -0.8088 -0.3114
   68SAPC  C311 5800   0.522   4.236   8.004 -0.4543  0.5665  0.1206
   68SAPC  H11X 5801   0.585   4.149   7.979 -1.1358  0.3931 -1.0534
   68SAPC  H11Y 5802   0.449   4.206   8.082  0.5283 -0.4340  0.6802
   68SAPC  C312 5803   0.606   4.337   8.076  0.0679  0.2430 -0.5618
   68SAPC  H12X 5804   0.583   4.437   8.032  0.2268  0.5022 -0.0670
   68SAPC  H12Y 5805   0.714   4.325   8.051  0.3506  0.2008  0.5981
   68SAPC  C313 5806   0.585   4.341   8.229  0.1763  0.7762 -0.4388
   68SAPC  H13X 5807   0.605   4.244   8.278  0.5643  0.4243 -1.2675
   68SAPC  H13Y 5808   0.480   4.376   8.240  0.5406  1.9972 -0.6266
   68SAPC  C314 5809   0.696   4.429   8.302 -0.0967  0.1954 -0.0854
   68SAPC  H14X 5810   0.690   4.535   8.270  2.4864  0.3824 -0.1905
   68SAPC  H14Y 5811   0.794   4.393   8.263 -0.0737  1.0635 -0.8738
   68SAPC  C315 5812   0.684   4.416   8.455  0.2288 -0.1153 -0.1758
   68SAPC  H15X 5813   0.759   4.480   8.506 -0.2615  1.2691 -1.1368
   68SAPC  H15Y 5814   0.691   4.308   8.480  1.8853 -0.0014 -0.0357
   68SAPC  C316 5815   0.551   4.481   8.495  0.0615 -0.7062 -0.3284
   68SAPC  H16X 5816   0.467   4.418   8.458  0.2764 -1.2809  0.1529
   68SAPC  H16Y 5817   0.536   4.585   8.458 -3.3579  0.0118  2.5183
   68SAPC  C317 5818   0.535   4.494   8.650  0.1206 -0.1936 -0.1571
   68SAPC  H17X 5819   0.608   4.569   8.686 -2.3935  3.1574 -1.4811
   68SAPC  H17Y 5820   0.553   4.389   8.682 -3.8894 -1.2685 -0.8114
   68SAPC  C318 5821   0.400   4.538   8.702 -0.1217  0.4495  0.2611
   68SAPC  H18X 5822   0.403   4.551   8.812 -2.4406  0.0961  0.4074
   68SAPC  H18Y 5823   0.331   4.455   8.678  1.0155 -0.7609  1.0752
   68SAPC  H18Z 5824   0.356   4.628   8.654 -1.8174 -0.7583 -0.5211
   69SLPC     N 5825   5.664   5.428  11.362  0.0539  0.5217 -0.4647
   69SLPC   C13 5826   5.715   5.560  11.404 -0.8828  0.3738  0.7546
   69SLPC  H13A 5827   5.677   5.579  11.503 -1.0445 -0.0528  0.7769
   69SLPC  H13B 5828   5.822   5.568  11.414 -0.4115  0.7831 -3.1429
   69SLPC  H13C 5829   5.685   5.636  11.333  0.0483  1.3759  1.3917
   69SLPC   C14 5830   5.519   5.411  11.399 -0.0937 -0.1587 -0.1603
   69SLPC  H14A 5831   5.489   5.314  11.364  3.7053 -1.7930  0.5686
   69SLPC  H14B 5832   5.499   5.422  11.505 -0.7495 -4.6005  0.3706
   69SLPC  H14C 5833   5.455   5.480  11.346  1.5781 -0.4313 -2.6961
   69SLPC   C15 5834   5.753   5.336  11.430  0.5608  0.2054  0.4704
   69SLPC  H15A 5835   5.742   5.318  11.535 -0.7306  0.3671  0.3832
   69SLPC  H15B 5836   5.747   5.241  11.378 -1.2499  0.9995 -0.8751
   69SLPC  H15C 5837   5.853   5.370  11.404  1.7643 -2.1530  1.7057
   69SLPC   C12 5838   5.680   5.415  11.216  0.5474  0.0438  0.6534
   69SLPC  H12A 5839   5.784   5.434  11.192  0.2138 -0.1084 -0.9749
   69SLPC  H12B 5840   5.623   5.487  11.159  0.6180  1.0129  1.7728
   69SLPC   C11 5841   5.634   5.283  11.155 -0.0842  0.2163  0.5332
   69SLPC  H11A 5842   5.597   5.293  11.051 -0.7579  2.1457  0.9147
   69SLPC  H11B 5843   5.543   5.259  11.214 -1.4306 -1.6083 -2.0717
   69SLPC     P 5844   5.881   5.204  11.097  0.3898 -0.2125  0.0014
   69SLPC   O13 5845   5.934   5.326  11.167 -0.2081 -0.0561  0.1797
   69SLPC   O14 5846   5.958   5.078  11.103  0.6774 -0.5941  0.6300
   69SLPC   O12 5847   5.740   5.180  11.168  0.2326 -0.3892  0.1125
   69SLPC   O11 5848   5.853   5.234  10.941  0.5140 -0.2026 -0.2372
   69SLPC    C1 5849   5.919   5.331  10.862 -0.2740 -0.7098  0.6165
   69SLPC    HA 5850   5.857   5.423  10.869 -0.2280 -0.4625 -1.5829
   69SLPC    HB 5851   6.016   5.358  10.909 -2.3808 -0.5554  5.4902
   69SLPC    C2 5852   5.939   5.296  10.713 -0.2410  0.0481 -0.2830
   69SLPC    HS 5853   6.023   5.362  10.682  1.0335 -1.8849 -1.1422
   69SLPC   O21 5854   5.824   5.323  10.633  0.2937  0.1215 -0.0627
   69SLPC   C21 5855   5.791   5.448  10.620  0.3280  0.2913  0.2048
   69SLPC   O22 5856   5.846   5.545  10.662 -0.3072 -0.0773 -0.3621
   69SLPC   C22 5857   5.673   5.449  10.519 -0.4919  0.1036 -0.0497
   69SLPC   H2R 5858   5.691   5.380  10.434 -1.8629  1.9006 -1.8813
   69SLPC   H2S 5859   5.588   5.405  10.577 -0.0853  0.1441  0.5932
   69SLPC    C3 5860   5.983   5.148  10.715  0.3097 -0.5435 -0.2022
   69SLPC    HX 5861   5.901   5.087  10.758 -0.0870 -0.1183 -0.3580
   69SLPC    HY 5862   6.065   5.130  10.789  1.9428  2.5807 -1.0731
   69SLPC   O31 5863   6.030   5.101  10.586 -0.6768  0.4363  0.2441
   69SLPC   C31 5864   5.960   5.005  10.535 -0.3706 -0.6269  0.5226
   69SLPC   O32 5865   5.861   4.949  10.583 -0.7906  0.3876  0.0899
   69SLPC   C32 5866   6.002   4.977  10.386 -0.4351 -0.4333  0.1258
   69SLPC   H2X 5867   6.041   4.874  10.375  0.5047 -0.0828  0.0840
   69SLPC   H2Y 5868   6.098   5.033  10.379  1.3326 -3.0499  1.6695
   69SLPC   C23 5869   5.623   5.578  10.467 -0.3612 -0.5126 -0.8750
   69SLPC   H3R 5870   5.700   5.654  10.443 -1.2176 -0.2473 -2.9884
   69SLPC   H3S 5871   5.548   5.615  10.540  0.6334  0.9828 -0.5614
   69SLPC   C24 5872   5.539   5.563  10.339  0.2887 -0.5948  0.2816
   69SLPC   H4R 5873   5.440   5.520  10.365 -0.7489  0.2459 -1.9805
   69SLPC   H4S 5874   5.590   5.485  10.278  1.9162  0.6531 -0.0380
   69SLPC   C25 5875   5.524   5.703  10.273 -0.0640  0.1939  0.3945
   69SLPC   H5R 5876   5.622   5.751  10.250 -0.6313  1.0130 -0.3434
   69SLPC   H5S 5877   5.473   5.768  10.346  2.0944  0.1019  2.1089
   69SLPC   C26 5878   5.422   5.706  10.163  0.3521  0.8871 -0.0843
   69SLPC   H6R 5879   5.328   5.665  10.207  0.3216 -1.3818 -2.0532
   69SLPC   H6S 5880   5.463   5.649  10.076  2.7437 -1.7190  2.5306
   69SLPC   C27 5881   5.376   5.846  10.117 -0.4397 -0.0043  0.5155
   69SLPC   H7R 5882   5.463   5.907  10.084 -0.4453 -0.5278 -0.4997
   69SLPC   H7S 5883   5.319   5.889  10.202 -1.4678 -3.6319  1.8465
   69SLPC   C28 5884   5.274   5.849   9.995 -0.6273 -0.2418 -1.0560
   69SLPC   H8R 5885   5.194   5.779  10.029  0.9076 -1.2453  0.6008
   69SLPC   H8S 5886   5.340   5.801   9.919  0.5871  0.6728 -0.5966
   69SLPC   C29 5887   5.200   5.975   9.953 -0.0947 -0.2383  0.5373
   69SLPC   H9R 5888   5.157   6.040  10.030  1.5510 -0.0748  1.3452
   69SLPC  C210 5889   5.179   6.012   9.821  0.0412  0.1105  0.2945
   69SLPC  H10R 5890   5.123   6.105   9.807 -1.2437 -0.5300  1.0015
   69SLPC  C211 5891   5.235   5.941   9.701  0.2241  0.0278  0.6419
   69SLPC  H11R 5892   5.181   5.960   9.605  1.8188  0.6283 -0.1721
   69SLPC  H11S 5893   5.244   5.831   9.709  0.9866  0.0342 -0.0318
   69SLPC  C212 5894   5.380   5.984   9.662 -0.3899 -0.7955  0.1552
   69SLPC  H12R 5895   5.431   6.055   9.729 -0.1478 -1.3090  0.5235
   69SLPC  C213 5896   5.446   5.939   9.552  0.2658 -0.8191  0.5131
   69SLPC  H13R 5897   5.544   5.984   9.530 -0.1524  0.1832  0.6396
   69SLPC  C214 5898   5.387   5.841   9.451 -0.2957  0.3451 -0.6852
   69SLPC  H14R 5899   5.289   5.796   9.475 -0.7229  0.5165 -2.0487
   69SLPC  H14S 5900   5.463   5.761   9.436  0.4001  0.8730 -0.0475
   69SLPC  C215 5901   5.377   5.915   9.327  0.2727  0.0487 -0.0841
   69SLPC  H15R 5902   5.465   5.981   9.313 -1.3674  1.9910 -2.0572
   69SLPC  H15S 5903   5.290   5.982   9.344  2.0896  2.6380 -0.4248
   69SLPC  C216 5904   5.351   5.835   9.206 -0.2080  0.6530  0.5858
   69SLPC  H16R 5905   5.271   5.762   9.233  1.3083 -0.8300  1.2113
   69SLPC  H16S 5906   5.437   5.775   9.170  0.3526  1.1393  1.1074
   69SLPC  C217 5907   5.304   5.918   9.090 -0.3590 -0.1468 -0.2968
   69SLPC  H17R 5908   5.201   5.957   9.107 -0.4287 -0.0111 -0.9692
   69SLPC  H17S 5909   5.311   5.852   9.001  1.6712  2.3192 -2.1113
   69SLPC  C218 5910   5.398   6.027   9.043  0.5085  0.4048 -0.0390
   69SLPC  H18R 5911   5.430   6.105   9.115 -1.4788  2.3983 -1.1876
   69SLPC  H18S 5912   5.346   6.080   8.960  1.0169 -0.6787 -1.0858
   69SLPC  H18T 5913   5.487   5.970   9.009 -1.3053 -1.8677 -1.3269
   69SLPC   C33 5914   5.900   5.017  10.282 -0.4904  0.2396  0.2368
   69SLPC   H3X 5915   5.845   5.109  10.311 -1.8591 -1.1165  2.1644
   69SLPC   H3Y 5916   5.826   4.935  10.270  1.1028 -1.7400  2.9080
   69SLPC   C34 5917   5.971   5.022  10.149  0.3006 -0.1277 -0.3579
   69SLPC   H4X 5918   6.025   4.927  10.130 -1.0489 -0.9183 -0.3470
   69SLPC   H4Y 5919   6.033   5.114  10.138 -1.1991  0.9753  0.1181
   69SLPC   C35 5920   5.872   5.031  10.028  0.2463  0.0361 -0.3638
   69SLPC   H5X 5921   5.803   5.118  10.029 -0.4144 -0.4801 -0.6708
   69SLPC   H5Y 5922   5.811   4.939  10.028  0.6257 -0.2388 -2.0753
   69SLPC   C36 5923   5.948   5.034   9.884  0.2489 -0.4168 -1.2123
   69SLPC   H6X 5924   6.033   4.963   9.881  0.5526 -0.0865 -0.5004
   69SLPC   H6Y 5925   5.987   5.137   9.878  0.0575  0.2316  4.2010
   69SLPC   C37 5926   5.851   5.013   9.773  0.1425  0.0733 -0.0296
   69SLPC   H7X 5927   5.766   5.084   9.782  0.0224  0.0262 -0.7526
   69SLPC   H7Y 5928   5.817   4.908   9.778  0.5174 -0.1115 -1.1811
   69SLPC   C38 5929   5.915   5.051   9.634  0.1648 -0.1387 -1.0316
   69SLPC   H8X 5930   5.979   5.141   9.646 -0.9666  0.5568  0.1085
   69SLPC   H8Y 5931   5.841   5.093   9.562  3.1936 -0.1308 -4.4130
   69SLPC   C39 5932   5.989   4.930   9.569 -0.8467 -0.5663 -0.6106
   69SLPC   H9X 5933   5.924   4.849   9.530 -3.0561  0.8142 -0.0150
   69SLPC   H9Y 5934   6.059   4.894   9.647 -0.7118 -0.1223 -0.5244
   69SLPC  C310 5935   6.096   4.973   9.463 -0.5878 -1.1130  0.3001
   69SLPC  H10X 5936   6.197   4.930   9.481  1.2986  3.0457  0.9609
   69SLPC  H10Y 5937   6.112   5.081   9.484  1.3244 -1.5550  1.3393
   69SLPC  C311 5938   6.054   4.954   9.311 -0.0280 -0.2655 -0.4227
   69SLPC  H11X 5939   6.033   4.846   9.294 -1.5051 -0.2934  1.2754
   69SLPC  H11Y 5940   6.142   4.987   9.253  0.3061 -0.7183 -0.1870
   69SLPC  C312 5941   5.927   5.030   9.263  0.6334  0.3312  0.4064
   69SLPC  H12X 5942   5.839   4.995   9.321 -1.3249  1.5816 -1.6238
   69SLPC  H12Y 5943   5.910   5.026   9.153  0.3306  0.0689  0.4626
   69SLPC  C313 5944   5.946   5.186   9.282 -0.0740  0.1617  0.6546
   69SLPC  H13X 5945   6.050   5.214   9.256  0.1279 -0.2855  0.9615
   69SLPC  H13Y 5946   5.943   5.205   9.392  1.2812  1.8972  0.4383
   69SLPC  C314 5947   5.837   5.279   9.221  0.0243  0.7241  0.0431
   69SLPC  H14X 5948   5.849   5.387   9.246  0.3292  0.3180  1.7628
   69SLPC  H14Y 5949   5.747   5.254   9.281  0.1084  0.5655  0.1019
   69SLPC  C315 5950   5.810   5.259   9.075 -0.2955 -0.5561 -0.0678
   69SLPC  H15X 5951   5.744   5.340   9.036  0.0398  0.4469  1.3748
   69SLPC  H15Y 5952   5.758   5.162   9.059 -3.4584  1.0413 -0.2733
   69SLPC  C316 5953   5.936   5.273   9.000  0.1890 -0.5006 -0.1517
   69SLPC  H16X 5954   6.003   5.185   9.013 -0.0332 -0.8709 -1.4082
   69SLPC  H16Y 5955   5.996   5.359   9.035 -0.5588 -0.5287  1.2880
   69SLPC  C317 5956   5.912   5.300   8.846  0.3002  0.2275 -0.7645
   69SLPC  H17X 5957   5.817   5.355   8.832  0.3156  1.5157  3.0824
   69SLPC  H17Y 5958   5.897   5.202   8.795 -2.3065 -0.9884  2.0633
   69SLPC  C318 5959   6.026   5.378   8.780  0.1148  0.3654 -1.1560
   69SLPC  H18X 5960   5.991   5.405   8.678 -1.2731 -2.6851 -1.5965
   69SLPC  H18Y 5961   6.107   5.302   8.779 -0.0347  0.1704  0.0676
   69SLPC  H18Z 5962   6.046   5.476   8.828 -1.9660  1.3497 -2.1727
   70SLPC     N 5963   1.361   4.788  10.885 -0.1774  0.4136 -0.1745
   70SLPC   C13 5964   1.260   4.721  10.968 -0.0788  0.0678 -0.2559
   70SLPC  H13A 5965   1.241   4.622  10.928  0.2955 -0.7786  1.5796
   70SLPC  H13B 5966   1.291   4.703  11.070 -1.5358  0.9902  0.3839
   70SLPC  H13C 5967   1.169   4.779  10.966  0.2785  0.6378 -0.1399
   70SLPC   C14 5968   1.494   4.723  10.899 -0.5773 -0.2329 -0.2271
   70SLPC  H14A 5969   1.563   4.795  10.858 -0.2099 -1.0358 -1.0333
   70SLPC  H14B 5970   1.514   4.705  11.004 -3.8454  0.9480  0.7176
   70SLPC  H14C 5971   1.510   4.633  10.842  1.7800  0.9347 -1.5406
   70SLPC   C15 5972   1.378   4.928  10.923 -0.0318  0.4006 -0.0280
   70SLPC  H15A 5973   1.415   4.938  11.024  1.1156 -3.3330  0.0724
   70SLPC  H15B 5974   1.435   4.988  10.853  0.3033 -1.0217 -1.0112
   70SLPC  H15C 5975   1.287   4.986  10.918  0.3392  1.0404  0.4897
   70SLPC   C12 5976   1.317   4.787  10.736  0.0724 -0.6540 -0.1270
   70SLPC  H12A 5977   1.314   4.686  10.699 -1.7800 -0.8063  0.3276
   70SLPC  H12B 5978   1.393   4.842  10.684 -0.9704  1.0071  0.0231
   70SLPC   C11 5979   1.181   4.853  10.703  0.4365  0.0064 -0.1559
   70SLPC  H11A 5980   1.111   4.807  10.776  1.2639 -0.8198  0.1351
   70SLPC  H11B 5981   1.146   4.837  10.599 -0.0835  0.4566 -0.0558
   70SLPC     P 5982   1.233   5.105  10.635  0.6115 -0.4324 -0.1312
   70SLPC   O13 5983   1.202   5.239  10.687 -0.1148  0.2067  0.8697
   70SLPC   O14 5984   1.376   5.066  10.613  0.4939 -0.1492 -0.2575
   70SLPC   O12 5985   1.168   4.992  10.729  0.3179 -0.2993 -0.1839
   70SLPC   O11 5986   1.152   5.072  10.500  0.1709  0.3973 -0.2194
   70SLPC    C1 5987   1.017   5.106  10.471  0.6091  0.2620  0.2300
   70SLPC    HA 5988   0.974   5.017  10.421  1.0137  0.7072 -0.9529
   70SLPC    HB 5989   0.960   5.129  10.564 -0.5674 -2.0805  0.1746
   70SLPC    C2 5990   1.005   5.220  10.369  0.0888 -0.2764  0.0242
   70SLPC    HS 5991   0.897   5.245  10.361  0.1447 -0.6253 -3.0770
   70SLPC   O21 5992   1.057   5.172  10.243  0.2971  0.3069  0.9226
   70SLPC   C21 5993   0.991   5.082  10.177  0.0693 -0.8604  0.1384
   70SLPC   O22 5994   0.888   5.027  10.208 -0.0027  0.0186  0.0161
   70SLPC   C22 5995   1.063   5.057  10.043 -0.5485  0.5551  0.8777
   70SLPC   H2R 5996   1.084   5.149   9.986 -1.4218 -0.7397 -1.6638
   70SLPC   H2S 5997   1.165   5.014  10.052 -0.2056 -0.2705 -4.2262
   70SLPC    C3 5998   1.074   5.358  10.413  0.2261 -0.0331  0.3689
   70SLPC    HX 5999   1.171   5.331  10.460 -1.2260 -1.1354  2.9517
   70SLPC    HY 6000   1.016   5.398  10.499 -1.4657  1.8401 -1.5332
   70SLPC   O31 6001   1.084   5.452  10.306  0.4746  0.6188 -0.1942
   70SLPC   C31 6002   1.148   5.562  10.334  0.2784  0.0952  0.6543
   70SLPC   O32 6003   1.196   5.584  10.442  0.4788 -0.3704 -0.2772
   70SLPC   C32 6004   1.157   5.656  10.217  0.4610 -0.1783  0.2933
   70SLPC   H2X 6005   1.056   5.682  10.180  0.9050 -0.6671 -1.3276
   70SLPC   H2Y 6006   1.204   5.598  10.135  1.4784 -0.2649  0.9216
   70SLPC   C23 6007   0.985   4.954   9.960  0.6209 -0.1353  0.4617
   70SLPC   H3R 6008   0.879   4.988   9.954 -0.3673 -3.1912 -2.8230
   70SLPC   H3S 6009   0.974   4.861  10.020 -0.2220 -0.4424 -0.1516
   70SLPC   C24 6010   1.051   4.936   9.824  0.3877 -0.1588  0.3551
   70SLPC   H4R 6011   1.011   4.845   9.774 -1.9514  0.8800  0.2138
   70SLPC   H4S 6012   1.160   4.932   9.844  0.5528  1.7684  0.0209
   70SLPC   C25 6013   1.013   5.045   9.727 -0.1303 -0.0304 -0.7020
   70SLPC   H5R 6014   1.038   5.145   9.770  0.7201 -0.2931 -0.5619
   70SLPC   H5S 6015   0.903   5.038   9.719 -0.3358 -0.5212  1.7273
   70SLPC   C26 6016   1.092   5.020   9.593  0.3242 -0.3731  0.2689
   70SLPC   H6R 6017   1.067   4.916   9.563  2.0263 -1.2165  1.5960
   70SLPC   H6S 6018   1.202   5.023   9.610  0.6162 -0.8651 -1.3521
   70SLPC   C27 6019   1.052   5.121   9.480  0.7589  0.1648 -0.4143
   70SLPC   H7R 6020   1.076   5.220   9.525 -0.5489  0.0020  0.6952
   70SLPC   H7S 6021   0.941   5.119   9.479  0.7560 -2.3042 -0.1336
   70SLPC   C28 6022   1.120   5.098   9.345 -0.0612  0.6204  0.2732
   70SLPC   H8R 6023   1.067   5.007   9.308  0.9781  0.9315 -2.1662
   70SLPC   H8S 6024   1.228   5.075   9.335  0.6022  3.9662 -1.7344
   70SLPC   C29 6025   1.108   5.228   9.269 -0.5782  0.3875  0.4135
   70SLPC   H9R 6026   1.081   5.318   9.327  1.2833  0.7616  0.7517
   70SLPC  C210 6027   1.137   5.237   9.138  0.6057 -0.0139 -0.6245
   70SLPC  H10R 6028   1.110   5.331   9.089 -2.0406 -0.6506 -0.5483
   70SLPC  C211 6029   1.185   5.133   9.043 -0.8233 -0.1020  0.0909
   70SLPC  H11R 6030   1.093   5.085   9.003 -0.8596 -1.2823  1.5290
   70SLPC  H11S 6031   1.235   5.047   9.093 -0.5036  0.5911  0.9935
   70SLPC  C212 6032   1.272   5.178   8.931  0.2748 -0.1919 -0.1020
   70SLPC  H12R 6033   1.361   5.236   8.961 -1.5583  2.5437  0.4115
   70SLPC  C213 6034   1.254   5.166   8.795 -0.0697 -0.2682 -0.3180
   70SLPC  H13R 6035   1.319   5.229   8.733 -1.9281  0.1919 -1.8734
   70SLPC  C214 6036   1.142   5.109   8.721  0.3327 -0.3047 -0.0033
   70SLPC  H14R 6037   1.097   5.190   8.659 -2.2587 -2.2141 -0.8054
   70SLPC  H14S 6038   1.059   5.077   8.787 -1.0684  1.9946 -0.5408
   70SLPC  C215 6039   1.184   4.991   8.638  0.2154  0.1120 -0.2233
   70SLPC  H15R 6040   1.193   4.900   8.701  1.9817 -1.1315 -2.1728
   70SLPC  H15S 6041   1.287   5.009   8.602  0.0066  0.9606 -0.4251
   70SLPC  C216 6042   1.101   4.960   8.510 -0.2316 -0.1671  0.6888
   70SLPC  H16R 6043   1.152   4.878   8.457  1.1085  1.1040 -0.0715
   70SLPC  H16S 6044   1.112   5.051   8.447  0.7610 -0.3427  0.5845
   70SLPC  C217 6045   0.949   4.944   8.528 -0.2791 -0.0885 -0.1871
   70SLPC  H17R 6046   0.911   5.036   8.576 -1.0284 -1.0521  1.1352
   70SLPC  H17S 6047   0.932   4.856   8.594 -2.3584  1.3679  1.3385
   70SLPC  C218 6048   0.878   4.916   8.388  0.0045 -0.1052 -0.6031
   70SLPC  H18R 6049   0.769   4.903   8.406  0.1631 -1.1497 -0.3389
   70SLPC  H18S 6050   0.926   4.825   8.348 -0.1335 -1.2655  1.7041
   70SLPC  H18T 6051   0.891   5.006   8.324 -1.0338 -0.1268 -0.8717
   70SLPC   C33 6052   1.254   5.777  10.225  1.6607  0.4456 -0.3276
   70SLPC   H3X 6053   1.353   5.739  10.258  0.6700  0.0791  2.5310
   70SLPC   H3Y 6054   1.210   5.836  10.308 -2.8449 -0.5761 -1.7233
   70SLPC   C34 6055   1.261   5.866  10.102 -0.8819 -0.2364  0.4074
   70SLPC   H4X 6056   1.298   5.967  10.130  1.4728 -1.0440  0.4429
   70SLPC   H4Y 6057   1.166   5.883  10.048  0.7327  2.0260 -1.9732
   70SLPC   C35 6058   1.365   5.804  10.003 -0.1463  0.0350 -0.4761
   70SLPC   H5X 6059   1.352   5.694  10.004 -3.2027  0.3356 -0.2278
   70SLPC   H5Y 6060   1.461   5.839  10.048 -2.0459  1.0739  3.1216
   70SLPC   C36 6061   1.358   5.857   9.854 -0.6579 -0.2530 -0.0499
   70SLPC   H6X 6062   1.453   5.838   9.799 -1.2943 -1.5497 -0.7546
   70SLPC   H6Y 6063   1.336   5.965   9.866 -1.8322 -0.5794  0.9559
   70SLPC   C37 6064   1.240   5.788   9.777  0.0856  0.1093 -0.2977
   70SLPC   H7X 6065   1.157   5.782   9.851 -0.5976 -1.0122 -1.1148
   70SLPC   H7Y 6066   1.271   5.682   9.762  0.4734  0.3263 -1.0462
   70SLPC   C38 6067   1.193   5.857   9.651  0.6533 -0.5189 -0.2697
   70SLPC   H8X 6068   1.178   5.965   9.672 -3.5255 -0.4924 -2.4171
   70SLPC   H8Y 6069   1.095   5.814   9.620  0.7688 -1.4528  0.5949
   70SLPC   C39 6070   1.289   5.815   9.534  0.2145 -0.0528 -0.1840
   70SLPC   H9X 6071   1.261   5.711   9.509 -1.7647  0.3889 -0.0395
   70SLPC   H9Y 6072   1.390   5.812   9.579 -0.4271 -0.5053  1.2921
   70SLPC  C310 6073   1.291   5.898   9.407  0.2686 -0.7948 -0.4193
   70SLPC  H10X 6074   1.270   6.003   9.437  1.6524 -0.9665  1.3885
   70SLPC  H10Y 6075   1.208   5.862   9.343 -1.2192 -1.4301  1.7255
   70SLPC  C311 6076   1.427   5.881   9.339  0.1639 -0.3353  0.2350
   70SLPC  H11X 6077   1.437   5.776   9.304  0.2595 -0.6564  1.1953
   70SLPC  H11Y 6078   1.506   5.908   9.412  2.1844 -0.6215 -1.7116
   70SLPC  C312 6079   1.443   5.987   9.229 -0.2352 -0.1921  0.4041
   70SLPC  H12X 6080   1.552   5.998   9.209 -0.3023  0.1266  0.2026
   70SLPC  H12Y 6081   1.415   6.079   9.284  0.6639  0.3288  0.0251
   70SLPC  C313 6082   1.361   5.971   9.101  0.3031 -0.6373  0.5248
   70SLPC  H13X 6083   1.260   5.935   9.129  0.4322 -1.5541 -0.1326
   70SLPC  H13Y 6084   1.401   5.901   9.024 -0.9852 -0.0796 -0.7009
   70SLPC  C314 6085   1.318   6.097   9.027 -0.3056 -0.8663 -0.0429
   70SLPC  H14X 6086   1.234   6.155   9.072 -0.7645 -1.4523 -0.1354
   70SLPC  H14Y 6087   1.302   6.069   8.921  0.7006 -0.2038 -0.3850
   70SLPC  C315 6088   1.437   6.194   9.024 -0.1592 -0.4601  0.6793
   70SLPC  H15X 6089   1.519   6.131   8.984 -0.2466 -0.1129 -0.0693
   70SLPC  H15Y 6090   1.460   6.223   9.129  0.1796 -1.4087  0.8686
   70SLPC  C316 6091   1.405   6.320   8.932 -0.2702  0.0873 -0.3113
   70SLPC  H16X 6092   1.324   6.378   8.981  0.3863  0.3287  0.5181
   70SLPC  H16Y 6093   1.360   6.281   8.838  0.9269  0.1851 -0.9436
   70SLPC  C317 6094   1.539   6.398   8.925 -0.1816  0.7507 -0.2670
   70SLPC  H17X 6095   1.619   6.326   8.895 -1.0542 -0.4999  0.3321
   70SLPC  H17Y 6096   1.555   6.452   9.021 -1.5755  1.3594 -0.3563
   70SLPC  C318 6097   1.527   6.505   8.821 -1.1152 -0.0860 -0.0073
   70SLPC  H18X 6098   1.432   6.562   8.823 -0.9072  0.3054  2.7586
   70SLPC  H18Y 6099   1.545   6.461   8.721  0.1594  1.6595 -0.6060
   70SLPC  H18Z 6100   1.598   6.591   8.829 -1.3332 -0.0246  1.7063
   71SLPC     N 6101   1.449   6.165  10.764  0.4159 -0.0296  0.3754
   71SLPC   C13 6102   1.564   6.131  10.676  0.1256  0.3009  0.4883
   71SLPC  H13A 6103   1.526   6.053  10.612  1.7339  0.6747 -0.9997
   71SLPC  H13B 6104   1.583   6.220  10.617  0.7312  0.0321  0.2766
   71SLPC  H13C 6105   1.655   6.108  10.729 -1.0321 -0.7827  2.0781
   71SLPC   C14 6106   1.494   6.286  10.837 -0.5609 -0.0966  0.1728
   71SLPC  H14A 6107   1.529   6.363  10.770  0.8358 -1.5794 -0.8902
   71SLPC  H14B 6108   1.421   6.327  10.904 -1.9092  0.9922 -1.8708
   71SLPC  H14C 6109   1.585   6.262  10.891 -0.6038 -2.3567 -0.6419
   71SLPC   C15 6110   1.423   6.050  10.859  0.1746 -0.4724  0.6121
   71SLPC  H15A 6111   1.506   6.002  10.908  2.2070  1.1874 -1.0106
   71SLPC  H15B 6112   1.373   6.087  10.947  2.7532  0.1214  1.9184
   71SLPC  H15C 6113   1.361   5.970  10.823 -0.9743  0.0317  1.4008
   71SLPC   C12 6114   1.333   6.204  10.684  0.0524  1.0569 -0.1253
   71SLPC  H12A 6115   1.356   6.283  10.615 -0.4247  0.5467 -0.8848
   71SLPC  H12B 6116   1.252   6.236  10.748  0.2646 -1.2646  1.4521
   71SLPC   C11 6117   1.281   6.092  10.584  0.2682 -0.0631 -0.0967
   71SLPC  H11A 6118   1.367   6.049  10.528  0.3129 -0.5326  0.3316
   71SLPC  H11B 6119   1.213   6.133  10.507 -0.8318 -2.4778 -0.4920
   71SLPC     P 6120   1.060   5.974  10.678 -0.0714 -0.5885  0.2269
   71SLPC   O13 6121   1.012   5.838  10.683 -0.0372 -0.4187  0.0679
   71SLPC   O14 6122   1.043   6.048  10.805  0.4640 -0.2039 -0.9517
   71SLPC   O12 6123   1.223   5.976  10.641  0.7139 -0.2639 -0.1085
   71SLPC   O11 6124   0.989   6.046  10.563  0.7414 -0.3174  0.1500
   71SLPC    C1 6125   0.899   6.154  10.584  0.4773 -0.0060  1.2653
   71SLPC    HA 6126   0.855   6.170  10.684  2.3461  1.6993  1.8941
   71SLPC    HB 6127   0.957   6.246  10.559  0.0983  0.7127  2.9205
   71SLPC    C2 6128   0.785   6.148  10.479 -0.3793 -1.0622  0.3833
   71SLPC    HS 6129   0.724   6.058  10.500 -0.7431 -0.9756 -0.2905
   71SLPC   O21 6130   0.831   6.135  10.340 -0.1548  0.2905 -0.5972
   71SLPC   C21 6131   0.812   6.025  10.270  0.0982 -0.9597  0.0877
   71SLPC   O22 6132   0.769   5.922  10.322  0.2074 -0.0060 -0.0928
   71SLPC   C22 6133   0.857   6.035  10.119 -0.4325  0.1493 -0.1394
   71SLPC   H2R 6134   0.795   6.114  10.072 -2.8594  0.1537  2.7161
   71SLPC   H2S 6135   0.965   6.055  10.105 -0.1545 -0.1051  1.4536
   71SLPC    C3 6136   0.696   6.276  10.494 -0.0213 -0.1545  0.3900
   71SLPC    HX 6137   0.681   6.273  10.604 -0.3638 -1.9147  0.3343
   71SLPC    HY 6138   0.599   6.265  10.440  0.0487  0.6984  0.0810
   71SLPC   O31 6139   0.774   6.391  10.448 -0.3749  0.7353  0.0373
   71SLPC   C31 6140   0.709   6.486  10.389 -0.5770  0.2022 -0.2171
   71SLPC   O32 6141   0.596   6.481  10.339 -0.1428 -0.0209 -0.4976
   71SLPC   C32 6142   0.789   6.619  10.382 -0.6123  0.3433 -0.6364
   71SLPC   H2X 6143   0.893   6.594  10.352 -0.1662  2.6888 -1.2680
   71SLPC   H2Y 6144   0.795   6.665  10.484  0.3571 -1.6346  0.2522
   71SLPC   C23 6145   0.847   5.900  10.044 -1.2369  0.1742 -0.3722
   71SLPC   H3R 6146   0.744   5.859  10.031 -0.6942 -1.1166 -0.7904
   71SLPC   H3S 6147   0.909   5.825  10.098 -2.0350  1.1961  2.1079
   71SLPC   C24 6148   0.913   5.913   9.906  0.8597  0.1246  0.4679
   71SLPC   H4R 6149   0.929   5.806   9.880 -4.5904 -1.1062  0.9293
   71SLPC   H4S 6150   1.004   5.974   9.887  1.4990 -1.2088 -0.9914
   71SLPC   C25 6151   0.811   5.965   9.800 -0.4535  0.1172  0.3453
   71SLPC   H5R 6152   0.804   6.071   9.831  2.1566  0.0681  1.4111
   71SLPC   H5S 6153   0.708   5.924   9.809 -1.1984  1.4391 -1.6251
   71SLPC   C26 6154   0.861   5.951   9.653  0.2078 -0.2748 -0.3405
   71SLPC   H6R 6155   0.869   5.845   9.623 -0.5845 -0.2214 -0.7489
   71SLPC   H6S 6156   0.961   5.998   9.663  0.6085 -0.7672 -1.8454
   71SLPC   C27 6157   0.770   6.038   9.559  0.1443  0.1256 -0.1043
   71SLPC   H7R 6158   0.781   6.148   9.572 -0.8777  0.6669 -3.0229
   71SLPC   H7S 6159   0.667   6.003   9.581  0.3531 -0.2529  0.2923
   71SLPC   C28 6160   0.811   5.994   9.418  0.1496 -0.1877 -0.3260
   71SLPC   H8R 6161   0.747   6.049   9.345  0.7543  0.2076 -0.5660
   71SLPC   H8S 6162   0.802   5.885   9.396  0.7801 -0.2449 -0.3043
   71SLPC   C29 6163   0.952   6.053   9.387 -0.0625  0.6857 -0.0006
   71SLPC   H9R 6164   1.036   5.997   9.432  0.2640  1.3917  0.2845
   71SLPC  C210 6165   0.985   6.161   9.313  0.4566  0.1890 -0.4576
   71SLPC  H10R 6166   1.087   6.184   9.279  0.0835  0.3273 -1.5505
   71SLPC  C211 6167   0.879   6.248   9.246 -0.0932  0.3673  0.3806
   71SLPC  H11R 6168   0.928   6.346   9.229  0.1166  0.1230 -0.5171
   71SLPC  H11S 6169   0.797   6.272   9.317  0.5611  0.2334  1.1926
   71SLPC  C212 6170   0.833   6.203   9.114  0.2440 -0.0820  0.7391
   71SLPC  H12R 6171   0.785   6.104   9.112  0.1143 -0.0160 -1.1113
   71SLPC  C213 6172   0.858   6.260   8.996  0.2111 -0.4800  0.1128
   71SLPC  H13R 6173   0.813   6.214   8.906 -0.1666  1.0464 -0.5153
   71SLPC  C214 6174   0.937   6.385   8.963 -0.1095  0.4018  0.0182
   71SLPC  H14R 6175   1.037   6.358   8.923 -2.1787 -2.6867 -3.7919
   71SLPC  H14S 6176   0.938   6.455   9.049 -1.3132 -0.0907  0.4445
   71SLPC  C215 6177   0.857   6.470   8.859 -1.0411 -0.2180 -0.2999
   71SLPC  H15R 6178   0.755   6.498   8.892 -0.5195  1.5963 -0.1254
   71SLPC  H15S 6179   0.824   6.413   8.769  0.4267  0.6532 -1.4287
   71SLPC  C216 6180   0.937   6.595   8.810 -0.6255  0.6612 -0.5620
   71SLPC  H16R 6181   1.029   6.552   8.764 -1.1124 -2.4887  1.1119
   71SLPC  H16S 6182   0.972   6.649   8.901  1.2839 -1.2459 -0.0525
   71SLPC  C217 6183   0.862   6.689   8.716  0.4885  0.1011  0.2090
   71SLPC  H17R 6184   0.938   6.768   8.697  1.3453 -0.6673  0.3130
   71SLPC  H17S 6185   0.767   6.721   8.764 -0.4829 -2.0875 -0.1560
   71SLPC  C218 6186   0.819   6.634   8.575 -0.0077 -0.2117 -0.2570
   71SLPC  H18R 6187   0.765   6.537   8.572  0.9528 -0.7512 -1.3383
   71SLPC  H18S 6188   0.906   6.612   8.508  0.2120  0.3954 -0.1732
   71SLPC  H18T 6189   0.752   6.710   8.531  1.9549  1.3737 -0.6600
   71SLPC   C33 6190   0.727   6.728  10.289 -0.5356  0.4535 -0.7085
   71SLPC   H3X 6191   0.769   6.829  10.309 -2.0591  1.4431 -2.2715
   71SLPC   H3Y 6192   0.618   6.731  10.310 -0.2784  2.9119  0.7281
   71SLPC   C34 6193   0.767   6.706  10.150  0.4788  0.0464 -0.2438
   71SLPC   H4X 6194   0.723   6.619  10.098  1.5871 -0.5625 -0.1990
   71SLPC   H4Y 6195   0.874   6.676  10.148  0.6101  0.4420 -3.4124
   71SLPC   C35 6196   0.731   6.839  10.075 -0.3591 -0.0129 -0.2001
   71SLPC   H5X 6197   0.789   6.926  10.112 -1.8543  1.1784 -0.5669
   71SLPC   H5Y 6198   0.624   6.850  10.103 -0.3559 -2.1165  0.8773
   71SLPC   C36 6199   0.720   6.826   9.926 -0.3740  0.7620  0.5945
   71SLPC   H6X 6200   0.636   6.886   9.887 -1.2403 -1.7526 -1.7165
   71SLPC   H6Y 6201   0.709   6.718   9.902  0.1920  0.8577 -0.1287
   71SLPC   C37 6202   0.849   6.862   9.854  0.1140 -0.3024 -0.1041
   71SLPC   H7X 6203   0.924   6.788   9.891 -0.2387 -0.5645  0.0864
   71SLPC   H7Y 6204   0.879   6.965   9.880 -2.2573  0.1825  0.9454
   71SLPC   C38 6205   0.834   6.851   9.699 -0.1972  0.3446  0.1275
   71SLPC   H8X 6206   0.786   6.756   9.669 -1.8953  1.6516 -1.5476
   71SLPC   H8Y 6207   0.934   6.856   9.651 -0.3654  1.5501 -0.1342
   71SLPC   C39 6208   0.748   6.962   9.638 -0.0275 -0.7755  0.0893
   71SLPC   H9X 6209   0.802   7.058   9.651  0.7989 -0.9950 -1.4089
   71SLPC   H9Y 6210   0.655   6.973   9.698 -0.4212 -0.0994 -0.6301
   71SLPC  C310 6211   0.717   6.943   9.487 -0.7713  0.5673 -0.2991
   71SLPC  H10X 6212   0.647   7.023   9.458  0.0725  0.5462 -2.6607
   71SLPC  H10Y 6213   0.669   6.843   9.478  0.6249 -0.7721  4.2756
   71SLPC  C311 6214   0.845   6.943   9.400 -0.0179 -0.3309 -0.5350
   71SLPC  H11X 6215   0.897   6.845   9.403  0.6803  0.0425  2.1216
   71SLPC  H11Y 6216   0.907   7.031   9.426 -1.5839  0.3776  1.0014
   71SLPC  C312 6217   0.791   6.973   9.255  0.3571  0.2589  0.0749
   71SLPC  H12X 6218   0.734   7.068   9.252 -1.8112 -0.9954 -1.6278
   71SLPC  H12Y 6219   0.713   6.897   9.234 -0.0675 -0.3541  3.4097
   71SLPC  C313 6220   0.902   6.972   9.158  0.1494 -0.1314 -0.7964
   71SLPC  H13X 6221   0.945   6.870   9.152 -0.9154 -0.5846 -0.8749
   71SLPC  H13Y 6222   0.981   7.041   9.195  0.4105 -0.2507 -1.1223
   71SLPC  C314 6223   0.864   7.008   9.019  1.0548 -0.2000  0.2019
   71SLPC  H14X 6224   0.810   7.104   9.007  1.9669  0.4636  1.2974
   71SLPC  H14Y 6225   0.789   6.933   8.983 -1.0983  1.4827  0.9511
   71SLPC  C315 6226   0.983   7.015   8.922  0.4630  0.9233 -0.6366
   71SLPC  H15X 6227   0.996   6.914   8.878 -0.5745  0.5564 -0.1254
   71SLPC  H15Y 6228   1.072   7.039   8.984 -0.9644  3.2184  0.6510
   71SLPC  C316 6229   0.982   7.127   8.812  0.0518  0.4568 -0.4214
   71SLPC  H16X 6230   0.893   7.128   8.745 -0.6453  0.6704  0.4725
   71SLPC  H16Y 6231   1.081   7.115   8.764  0.1459  0.4426 -0.2246
   71SLPC  C317 6232   0.999   7.262   8.886 -0.2387 -0.6390 -0.4236
   71SLPC  H17X 6233   1.072   7.252   8.968  0.1976 -1.1478 -0.8644
   71SLPC  H17Y 6234   0.907   7.283   8.945 -0.5058 -2.6429 -0.0398
   71SLPC  C318 6235   1.020   7.380   8.792  0.0704  0.6571  0.8357
   71SLPC  H18X 6236   0.942   7.389   8.714  0.1057  0.9238  0.8312
   71SLPC  H18Y 6237   1.122   7.381   8.749 -0.4293  1.6499 -0.3812
   71SLPC  H18Z 6238   1.018   7.479   8.842  2.2244  1.3887 -0.4284
   72SLPC     N 6239   0.404   2.187  10.751 -0.3226  0.1922 -0.0762
   72SLPC   C13 6240   0.361   2.074  10.836 -0.3512  0.6046 -0.1485
   72SLPC  H13A 6241   0.271   2.096  10.892 -0.1267  0.9761  0.0745
   72SLPC  H13B 6242   0.351   1.980  10.785  2.9201 -0.1228  0.3259
   72SLPC  H13C 6243   0.435   2.040  10.907 -0.0620 -2.2105 -1.6428
   72SLPC   C14 6244   0.406   2.315  10.818  0.6011  0.3145  0.5278
   72SLPC  H14A 6245   0.316   2.334  10.875 -0.5045 -1.7938 -0.4104
   72SLPC  H14B 6246   0.492   2.311  10.884 -0.0341 -0.1249  1.3438
   72SLPC  H14C 6247   0.411   2.393  10.744  0.9375  0.1660  0.3902
   72SLPC   C15 6248   0.304   2.194  10.641 -0.1611  0.0623 -0.8778
   72SLPC  H15A 6249   0.313   2.263  10.558 -0.4101 -0.8659 -1.7052
   72SLPC  H15B 6250   0.276   2.094  10.611 -0.5812  0.0502 -0.4621
   72SLPC  H15C 6251   0.217   2.231  10.693 -1.1909  0.9825 -3.1172
   72SLPC   C12 6252   0.542   2.158  10.686 -0.1919  0.0985 -0.6091
   72SLPC  H12A 6253   0.620   2.142  10.759 -0.2136  1.6147 -0.2099
   72SLPC  H12B 6254   0.576   2.252  10.643  1.2340 -0.3896 -0.5975
   72SLPC   C11 6255   0.551   2.039  10.592 -0.0748 -0.7940 -0.7318
   72SLPC  H11A 6256   0.506   2.051  10.492  0.7220 -1.1745 -1.1480
   72SLPC  H11B 6257   0.485   1.959  10.632 -0.4289 -0.6172 -0.9638
   72SLPC     P 6258   0.762   1.922  10.705  0.0591  0.1208 -0.4932
   72SLPC   O13 6259   0.903   1.922  10.686  0.0850 -0.3529 -0.0165
   72SLPC   O14 6260   0.705   1.983  10.830 -0.6331 -0.0035  0.0813
   72SLPC   O12 6261   0.692   2.009  10.592 -0.3932  0.4018 -0.0372
   72SLPC   O11 6262   0.695   1.779  10.680 -0.3548 -0.1140  0.4936
   72SLPC    C1 6263   0.756   1.677  10.590  0.2483 -0.2130  0.4016
   72SLPC    HA 6264   0.866   1.666  10.603  1.0943  3.7001 -1.9076
   72SLPC    HB 6265   0.714   1.580  10.626  0.1124 -0.1275  0.4732
   72SLPC    C2 6266   0.728   1.701  10.434  0.0092 -0.0317 -0.4613
   72SLPC    HS 6267   0.745   1.608  10.377 -1.0922  0.6499 -1.9746
   72SLPC   O21 6268   0.793   1.817  10.377  0.0998 -0.2893 -0.8059
   72SLPC   C21 6269   0.927   1.789  10.359 -0.1282 -0.2173  0.1566
   72SLPC   O22 6270   0.975   1.684  10.396 -0.1759 -0.6792  0.8022
   72SLPC   C22 6271   0.989   1.914  10.290 -0.0101  1.0933 -0.2569
   72SLPC   H2R 6272   0.906   1.965  10.238 -1.2942  0.6202  1.2380
   72SLPC   H2S 6273   1.021   1.975  10.377  1.2245 -0.7752  0.6823
   72SLPC    C3 6274   0.575   1.717  10.405  0.8754 -0.1219  0.6836
   72SLPC    HX 6275   0.563   1.750  10.300  1.8214 -0.8638  0.3328
   72SLPC    HY 6276   0.539   1.806  10.461  1.4455 -0.0196  0.8939
   72SLPC   O31 6277   0.500   1.600  10.425  0.4706  0.0514 -0.0379
   72SLPC   C31 6278   0.372   1.617  10.453 -0.2686  0.2019 -0.2573
   72SLPC   O32 6279   0.316   1.721  10.461  0.3693  0.5491 -0.4472
   72SLPC   C32 6280   0.319   1.476  10.481 -0.2717 -0.2824  0.4210
   72SLPC   H2X 6281   0.222   1.497  10.530 -1.0577 -0.0829 -1.1495
   72SLPC   H2Y 6282   0.382   1.439  10.564 -0.6556 -0.9884  0.4078
   72SLPC   C23 6283   1.111   1.873  10.208  0.1415 -0.7754  0.8981
   72SLPC   H3R 6284   1.175   1.796  10.257 -0.3219 -3.4146 -2.2858
   72SLPC   H3S 6285   1.179   1.961  10.208 -1.4959  0.5498  0.0825
   72SLPC   C24 6286   1.076   1.829  10.068 -0.4183 -0.5542  0.3391
   72SLPC   H4R 6287   1.003   1.745  10.076  0.1508 -1.2802 -1.4565
   72SLPC   H4S 6288   1.169   1.794  10.017 -1.1478 -0.2336 -1.2734
   72SLPC   C25 6289   1.007   1.936   9.975  0.3909  0.1133  0.4704
   72SLPC   H5R 6290   1.069   2.025   9.951  0.0001  0.1997 -0.2452
   72SLPC   H5S 6291   0.915   1.970  10.026 -0.5114 -2.6471  0.8937
   72SLPC   C26 6292   0.957   1.889   9.838 -0.4569 -0.0657 -1.0435
   72SLPC   H6R 6293   0.885   1.964   9.800 -1.8782 -1.2232 -0.6998
   72SLPC   H6S 6294   0.898   1.795   9.843 -0.4093 -0.0205  0.8600
   72SLPC   C27 6295   1.072   1.881   9.739 -0.4459 -0.0017  0.3066
   72SLPC   H7R 6296   1.139   1.796   9.763 -0.9402 -0.3008  0.6343
   72SLPC   H7S 6297   1.127   1.978   9.730 -1.1955  0.2928 -1.5925
   72SLPC   C28 6298   1.002   1.847   9.599  0.1790  0.2059  0.4762
   72SLPC   H8R 6299   0.926   1.770   9.622 -3.6486  2.8794 -1.9509
   72SLPC   H8S 6300   1.070   1.783   9.538 -1.1442 -0.3094 -0.5151
   72SLPC   C29 6301   0.934   1.948   9.506  0.3956 -0.8458 -0.2126
   72SLPC   H9R 6302   0.851   1.997   9.559  1.4415  0.1072  0.5979
   72SLPC  C210 6303   0.950   1.980   9.379 -0.5701  0.0880 -0.0551
   72SLPC  H10R 6304   0.887   2.064   9.348 -3.8716 -1.7381  1.1862
   72SLPC  C211 6305   1.053   1.914   9.286 -0.9759 -0.8380  0.6028
   72SLPC  H11R 6306   1.139   1.867   9.337  0.2679 -1.2116 -1.7179
   72SLPC  H11S 6307   1.104   1.997   9.234  2.1597 -1.6471  2.1497
   72SLPC  C212 6308   0.985   1.821   9.200 -0.8653  0.7491  0.1888
   72SLPC  H12R 6309   0.943   1.734   9.252  1.3543 -0.2301  0.4552
   72SLPC  C213 6310   0.982   1.824   9.069 -0.1129 -0.4234  0.1758
   72SLPC  H13R 6311   0.926   1.749   9.010 -1.5990  1.9418 -1.6330
   72SLPC  C214 6312   1.045   1.930   8.977  0.5560  0.0127  0.1602
   72SLPC  H14R 6313   1.128   1.891   8.915  1.2689  2.0122 -0.2486
   72SLPC  H14S 6314   1.090   2.014   9.035  0.5193  1.1664 -1.4087
   72SLPC  C215 6315   0.931   1.994   8.892 -0.3693 -0.4899  0.8165
   72SLPC  H15R 6316   0.979   2.083   8.847  0.6487 -0.8709  1.1288
   72SLPC  H15S 6317   0.843   2.032   8.949 -0.8277  1.6810 -1.1974
   72SLPC  C216 6318   0.863   1.905   8.787  0.4193 -0.0609  0.3108
   72SLPC  H16R 6319   0.808   1.970   8.715 -0.3067 -3.3795 -2.4049
   72SLPC  H16S 6320   0.798   1.832   8.840  0.7052 -1.8859 -1.7003
   72SLPC  C217 6321   0.961   1.831   8.697 -0.9028  0.3066 -0.0954
   72SLPC  H17R 6322   1.010   1.768   8.775  0.1513 -1.0541 -1.7915
   72SLPC  H17S 6323   1.039   1.897   8.654  0.6554 -1.2410  0.2453
   72SLPC  C218 6324   0.900   1.752   8.583  0.4864 -0.0387  0.2571
   72SLPC  H18R 6325   0.847   1.808   8.503  0.7510  1.5512  1.1533
   72SLPC  H18S 6326   0.846   1.664   8.625 -1.5268  1.1467  0.2809
   72SLPC  H18T 6327   0.984   1.695   8.538  1.7553  2.3808 -0.6121
   72SLPC   C33 6328   0.318   1.379  10.366 -0.9370 -0.3912 -0.1472
   72SLPC   H3X 6329   0.279   1.282  10.403  1.6853 -1.1457  0.8755
   72SLPC   H3Y 6330   0.424   1.364  10.335 -0.0949  1.7017  1.4597
   72SLPC   C34 6331   0.225   1.427  10.254  0.2527 -0.1312 -0.8443
   72SLPC   H4X 6332   0.257   1.526  10.215  2.4424 -0.5270 -0.2343
   72SLPC   H4Y 6333   0.122   1.435  10.293  0.3864  0.5711 -0.6298
   72SLPC   C35 6334   0.232   1.342  10.124 -0.3798 -0.8574 -0.0090
   72SLPC   H5X 6335   0.168   1.252  10.132 -1.8724 -0.0144 -1.6937
   72SLPC   H5Y 6336   0.338   1.312  10.108 -0.0117 -0.7223  1.9468
   72SLPC   C36 6337   0.187   1.420   9.998  0.5730 -0.0384 -0.3930
   72SLPC   H6X 6338   0.231   1.520   9.976 -2.0099  1.1391 -0.6897
   72SLPC   H6Y 6339   0.080   1.450  10.008  0.6379  0.6605 -1.5405
   72SLPC   C37 6340   0.216   1.336   9.874  0.5744  0.6881 -0.2024
   72SLPC   H7X 6341   0.173   1.235   9.895  2.7750 -0.3109 -0.2191
   72SLPC   H7Y 6342   0.324   1.314   9.858  0.0125 -2.2881 -0.4857
   72SLPC   C38 6343   0.146   1.402   9.758 -0.4049  0.2337  0.2840
   72SLPC   H8X 6344   0.194   1.501   9.748  1.0449 -0.2762  1.5955
   72SLPC   H8Y 6345   0.036   1.415   9.765 -0.5663 -1.0549  0.4536
   72SLPC   C39 6346   0.161   1.328   9.626  0.9828  0.6131  0.1299
   72SLPC   H9X 6347   0.111   1.229   9.634  0.8873  0.6391 -0.1461
   72SLPC   H9Y 6348   0.269   1.310   9.607  1.0858  3.0017 -1.9440
   72SLPC  C310 6349   0.110   1.409   9.506 -0.1449 -0.3545  0.3631
   72SLPC  H10X 6350   0.160   1.509   9.505  0.3226 -0.5664  1.5076
   72SLPC  H10Y 6351   0.002   1.437   9.509  0.2546  1.6665 -1.4142
   72SLPC  C311 6352   0.134   1.337   9.371  0.3977  0.2209 -0.4143
   72SLPC  H11X 6353   0.058   1.257   9.360  0.6170  0.1201 -1.2528
   72SLPC  H11Y 6354   0.238   1.297   9.378  1.5868  3.3213  2.1690
   72SLPC  C312 6355   0.130   1.433   9.254  0.4706  0.5251 -0.3086
   72SLPC  H12X 6356   0.145   1.540   9.280  0.0155  1.0837 -2.2292
   72SLPC  H12Y 6357   0.033   1.431   9.202 -0.4587 -2.3156  1.3176
   72SLPC  C313 6358   0.235   1.395   9.144 -0.1504  0.4558  0.0990
   72SLPC  H13X 6359   0.220   1.293   9.103  1.4010 -0.1452  0.9645
   72SLPC  H13Y 6360   0.329   1.388   9.203  0.1488  2.0889 -0.1288
   72SLPC  C314 6361   0.254   1.507   9.042 -0.5452  0.1442  0.2375
   72SLPC  H14X 6362   0.322   1.588   9.077 -0.1468 -0.0420 -0.0948
   72SLPC  H14Y 6363   0.157   1.556   9.017 -0.7438 -1.3698 -2.2621
   72SLPC  C315 6364   0.317   1.474   8.910 -0.2175 -1.0038  0.3653
   72SLPC  H15X 6365   0.410   1.415   8.921 -0.8445 -2.2984 -1.0020
   72SLPC  H15Y 6366   0.338   1.563   8.846  1.6964 -1.1064  0.7775
   72SLPC  C316 6367   0.225   1.382   8.830 -0.2002 -0.3144 -0.8054
   72SLPC  H16X 6368   0.123   1.420   8.807 -0.0346 -0.0790 -1.1683
   72SLPC  H16Y 6369   0.229   1.294   8.898 -0.1209  0.4033  0.1322
   72SLPC  C317 6370   0.282   1.347   8.690 -0.9309 -0.4152 -0.7725
   72SLPC  H17X 6371   0.378   1.292   8.699 -0.2704  0.7580 -0.4000
   72SLPC  H17Y 6372   0.317   1.445   8.651  0.6249  0.8136  3.2074
   72SLPC  C318 6373   0.184   1.282   8.599  0.2886 -0.1208 -0.3028
   72SLPC  H18X 6374   0.082   1.326   8.597  0.3704  0.1308  0.6599
   72SLPC  H18Y 6375   0.166   1.177   8.634  2.8095 -1.3111 -2.2912
   72SLPC  H18Z 6376   0.208   1.280   8.491  0.3426 -0.5721 -0.2834
   73SLPC     N 6377   4.998   2.007  10.923  0.1446  0.0607 -0.3270
   73SLPC   C13 6378   4.926   1.986  11.054 -0.0994 -0.8492 -0.8346
   73SLPC  H13A 6379   4.923   1.881  11.074  0.4614 -0.3981  2.0082
   73SLPC  H13B 6380   4.990   2.016  11.136  0.6444 -1.7363 -1.0759
   73SLPC  H13C 6381   4.828   2.033  11.056  1.0126  1.7695 -2.2797
   73SLPC   C14 6382   4.913   1.952  10.811  1.0001  0.1488  0.4479
   73SLPC  H14A 6383   4.938   1.995  10.716  1.3334 -0.4711  0.2531
   73SLPC  H14B 6384   4.928   1.846  10.805  0.5324  0.1547 -1.0949
   73SLPC  H14C 6385   4.810   1.984  10.817  0.7105 -0.7203  0.1574
   73SLPC   C15 6386   5.126   1.921  10.931  0.1165 -0.6194  0.3038
   73SLPC  H15A 6387   5.177   1.930  11.026 -0.7847  0.7033  0.6895
   73SLPC  H15B 6388   5.108   1.816  10.912  0.2395 -0.7677  0.9871
   73SLPC  H15C 6389   5.195   1.956  10.856 -1.6967  3.1996  0.1898
   73SLPC   C12 6390   5.032   2.152  10.909  0.4311  0.9188 -0.6768
   73SLPC  H12A 6391   5.100   2.180  10.988  2.0849 -0.8348 -1.4165
   73SLPC  H12B 6392   4.940   2.210  10.912 -1.8494 -2.0578 -4.2551
   73SLPC   C11 6393   5.106   2.182  10.780 -0.1619 -1.1397 -0.4527
   73SLPC  H11A 6394   5.108   2.293  10.779  2.7104 -1.0759  1.2814
   73SLPC  H11B 6395   5.050   2.146  10.691 -2.0891 -3.7313  1.6467
   73SLPC     P 6396   5.348   2.188  10.882  0.5085  0.5113  0.0796
   73SLPC   O13 6397   5.299   2.316  10.947 -0.0373  0.3670  0.0263
   73SLPC   O14 6398   5.380   2.080  10.981  0.3962 -0.9175 -0.0595
   73SLPC   O12 6399   5.241   2.131  10.779  0.0863 -0.2524  0.2199
   73SLPC   O11 6400   5.478   2.221  10.801  0.2785  0.2549 -0.4176
   73SLPC    C1 6401   5.497   2.173  10.664 -0.5236  0.7299 -0.4449
   73SLPC    HA 6402   5.603   2.139  10.660  0.1564  2.3984  1.4867
   73SLPC    HB 6403   5.441   2.083  10.631  1.9645 -0.6407 -1.2030
   73SLPC    C2 6404   5.480   2.290  10.560  0.6282 -0.5744 -0.3294
   73SLPC    HS 6405   5.488   2.241  10.461  0.9556 -0.9332 -0.1295
   73SLPC   O21 6406   5.580   2.403  10.568  0.2479  0.4232 -0.8887
   73SLPC   C21 6407   5.695   2.378  10.530 -0.4504 -0.4145  0.9891
   73SLPC   O22 6408   5.754   2.275  10.510  0.1018  0.1409  0.8178
   73SLPC   C22 6409   5.773   2.506  10.518  0.2668 -0.7766  0.1861
   73SLPC   H2R 6410   5.723   2.572  10.592  1.1620 -0.4085  0.4720
   73SLPC   H2S 6411   5.879   2.491  10.547  0.6864  1.7585  0.1395
   73SLPC    C3 6412   5.342   2.367  10.552  0.1935 -0.1161  0.1901
   73SLPC    HX 6413   5.327   2.402  10.657  2.4204  3.0291 -0.4067
   73SLPC    HY 6414   5.262   2.292  10.535 -0.8719  0.4003  2.4430
   73SLPC   O31 6415   5.344   2.483  10.464 -0.3631 -0.0188 -0.0841
   73SLPC   C31 6416   5.353   2.597  10.522 -0.2950 -1.2010  0.3163
   73SLPC   O32 6417   5.378   2.616  10.641 -0.2616  0.1158  0.0494
   73SLPC   C32 6418   5.349   2.701  10.413 -0.4568  0.2702 -0.0640
   73SLPC   H2X 6419   5.291   2.652  10.331  0.6882 -0.4779 -0.4443
   73SLPC   H2Y 6420   5.454   2.706  10.376 -0.8038  2.6097 -0.9287
   73SLPC   C23 6421   5.773   2.562  10.379 -0.6061 -0.2671  0.0557
   73SLPC   H3R 6422   5.669   2.558  10.341  0.0104 -2.8198 -1.5521
   73SLPC   H3S 6423   5.842   2.504  10.315  0.1360  2.1546 -1.5019
   73SLPC   C24 6424   5.812   2.711  10.359  0.4647  0.2847 -0.5124
   73SLPC   H4R 6425   5.909   2.732  10.409  1.0857 -0.2499 -1.4495
   73SLPC   H4S 6426   5.729   2.769  10.403 -3.3230 -3.2479 -2.3185
   73SLPC   C25 6427   5.833   2.732  10.206 -1.1818 -0.0845 -0.6228
   73SLPC   H5R 6428   5.908   2.661  10.165  0.5169  0.2305  1.7269
   73SLPC   H5S 6429   5.885   2.829  10.197  1.6621 -1.4855 -0.3653
   73SLPC   C26 6430   5.703   2.740  10.130 -0.6177  0.1369 -0.2641
   73SLPC   H6R 6431   5.634   2.807  10.186 -1.2599 -0.1452 -0.6960
   73SLPC   H6S 6432   5.651   2.643  10.140 -0.3541  0.0900  0.6747
   73SLPC   C27 6433   5.716   2.762   9.975  0.3162  0.2191  0.0103
   73SLPC   H7R 6434   5.733   2.870   9.956  1.5107 -0.1461 -1.1828
   73SLPC   H7S 6435   5.618   2.740   9.928 -0.6697  0.2589  1.9487
   73SLPC   C28 6436   5.823   2.675   9.912 -0.4804 -0.2547 -0.3374
   73SLPC   H8R 6437   5.773   2.628   9.825 -0.5011 -2.6985  0.8908
   73SLPC   H8S 6438   5.853   2.594   9.982 -1.3980  0.3492  0.8005
   73SLPC   C29 6439   5.950   2.753   9.868  0.2420 -0.4040  1.0118
   73SLPC   H9R 6440   6.006   2.812   9.942  0.2005  3.3471 -1.6823
   73SLPC  C210 6441   5.984   2.774   9.738 -0.3795  0.1055 -0.1078
   73SLPC  H10R 6442   6.074   2.834   9.720 -0.0475  0.2789  1.9219
   73SLPC  C211 6443   5.925   2.720   9.613 -0.2632 -0.4967 -0.1980
   73SLPC  H11R 6444   5.863   2.631   9.640 -2.0972  0.6916 -0.2536
   73SLPC  H11S 6445   6.003   2.692   9.540 -0.2717  0.2992 -0.5127
   73SLPC  C212 6446   5.827   2.810   9.543 -0.0460 -0.1034  0.4694
   73SLPC  H12R 6447   5.791   2.893   9.605 -0.7048 -2.0936  2.9036
   73SLPC  C213 6448   5.792   2.792   9.411  0.5404 -0.5838 -0.1841
   73SLPC  H13R 6449   5.722   2.860   9.360  0.9985  1.0789  1.3156
   73SLPC  C214 6450   5.846   2.682   9.317 -0.3435  0.1357 -0.9327
   73SLPC  H14R 6451   5.764   2.609   9.296 -0.6770  0.1993  0.1104
   73SLPC  H14S 6452   5.927   2.621   9.362 -1.0096  0.2994  0.5573
   73SLPC  C215 6453   5.901   2.745   9.191  1.5060  0.6118  0.8671
   73SLPC  H15R 6454   6.011   2.760   9.204  2.5323 -3.8415 -0.7532
   73SLPC  H15S 6455   5.864   2.846   9.162  0.7719  0.0047 -0.4036
   73SLPC  C216 6456   5.887   2.651   9.068 -0.4722 -0.1486  0.0552
   73SLPC  H16R 6457   5.787   2.646   9.020 -0.0448 -0.5268 -0.8153
   73SLPC  H16S 6458   5.902   2.549   9.110 -1.3494 -0.4570 -0.3494
   73SLPC  C217 6459   5.992   2.664   8.963 -0.6203 -0.2128 -0.5976
   73SLPC  H17R 6460   6.093   2.632   8.997 -1.2361 -0.5494  0.9946
   73SLPC  H17S 6461   6.008   2.771   8.938 -2.2333  0.9800  2.8273
   73SLPC  C218 6462   5.952   2.599   8.834  0.4097 -0.1119 -0.5196
   73SLPC  H18R 6463   6.015   2.623   8.746 -1.7396  1.4851 -1.7146
   73SLPC  H18S 6464   5.850   2.633   8.805  0.5182  1.9242  1.2759
   73SLPC  H18T 6465   5.941   2.491   8.860 -1.4872  0.2966  0.5647
   73SLPC   C33 6466   5.290   2.841  10.443 -0.2471  0.8895 -0.5651
   73SLPC   H3X 6467   5.364   2.901  10.499  0.3816  1.4089 -1.9003
   73SLPC   H3Y 6468   5.196   2.823  10.499 -0.3604 -2.8130 -1.6190
   73SLPC   C34 6469   5.240   2.905  10.314  0.5073 -0.0737  0.5070
   73SLPC   H4X 6470   5.174   2.994  10.326 -0.4314 -0.6831 -0.0340
   73SLPC   H4Y 6471   5.173   2.840  10.255 -0.7118 -0.0040  1.7571
   73SLPC   C35 6472   5.362   2.942  10.227 -0.1635 -0.1783 -0.2118
   73SLPC   H5X 6473   5.423   2.849  10.216 -1.8065 -1.4155  0.7280
   73SLPC   H5Y 6474   5.428   3.015  10.279 -1.9093  1.0074  0.3996
   73SLPC   C36 6475   5.331   2.990  10.088  0.0697 -0.7399  0.2825
   73SLPC   H6X 6476   5.287   3.090  10.111  1.8478  0.0707  0.3168
   73SLPC   H6Y 6477   5.262   2.927  10.027 -0.6469 -0.3505  0.6696
   73SLPC   C37 6478   5.455   3.027  10.002  0.0977 -0.5643 -0.1172
   73SLPC   H7X 6479   5.540   2.957   9.988  0.3662 -0.3120  0.2208
   73SLPC   H7Y 6480   5.503   3.120  10.040 -1.2117  1.4000 -2.9201
   73SLPC   C38 6481   5.411   3.066   9.862 -0.2225  0.5558  0.0692
   73SLPC   H8X 6482   5.328   3.140   9.854  0.0108  1.0348  1.6193
   73SLPC   H8Y 6483   5.372   2.968   9.827 -1.3844  1.5562 -1.5982
   73SLPC   C39 6484   5.525   3.097   9.761  0.0320 -0.0001  0.6159
   73SLPC   H9X 6485   5.604   3.018   9.763 -0.8575 -0.9839 -0.9700
   73SLPC   H9Y 6486   5.573   3.197   9.769  0.2686 -0.0829  0.2401
   73SLPC  C310 6487   5.476   3.092   9.617  0.2093 -0.6343  1.5494
   73SLPC  H10X 6488   5.390   3.158   9.596 -0.3817 -1.7123  0.5334
   73SLPC  H10Y 6489   5.432   2.991   9.605 -0.7257 -0.1429  0.7678
   73SLPC  C311 6490   5.592   3.124   9.514 -0.4700 -0.3223  0.3147
   73SLPC  H11X 6491   5.683   3.062   9.518 -0.5576 -0.4125  1.3883
   73SLPC  H11Y 6492   5.618   3.228   9.543  1.0917 -0.8525  0.9158
   73SLPC  C312 6493   5.530   3.123   9.371  0.2062 -0.0958  0.0388
   73SLPC  H12X 6494   5.440   3.188   9.369  0.6151  0.5973  1.7822
   73SLPC  H12Y 6495   5.507   3.017   9.350  2.8309 -0.6198 -0.5379
   73SLPC  C313 6496   5.625   3.186   9.268 -0.3825  0.1430  0.1108
   73SLPC  H13X 6497   5.670   3.273   9.319  2.7094 -1.6496  0.6863
   73SLPC  H13Y 6498   5.561   3.215   9.182  0.2164  3.5354  0.6714
   73SLPC  C314 6499   5.725   3.080   9.211 -0.4092 -0.5339 -0.5837
   73SLPC  H14X 6500   5.679   2.982   9.190  0.6696 -1.6752  1.9171
   73SLPC  H14Y 6501   5.803   3.064   9.289  0.0063 -0.6601 -1.0245
   73SLPC  C315 6502   5.802   3.129   9.090  0.7388 -0.4727 -0.7007
   73SLPC  H15X 6503   5.903   3.082   9.090 -0.0493 -2.2656 -1.2248
   73SLPC  H15Y 6504   5.794   3.240   9.089  1.4725 -0.3134  2.1780
   73SLPC  C316 6505   5.730   3.088   8.959 -0.5400 -0.0791 -0.1200
   73SLPC  H16X 6506   5.763   3.162   8.883  1.5970  0.1981  1.0134
   73SLPC  H16Y 6507   5.620   3.097   8.973 -0.4587 -0.4165  0.8191
   73SLPC  C317 6508   5.749   2.944   8.914 -0.4181 -0.0473  0.0083
   73SLPC  H17X 6509   5.691   2.877   8.982 -3.9329 -0.2637 -2.9182
   73SLPC  H17Y 6510   5.856   2.918   8.909 -0.2858  0.6966 -1.1729
   73SLPC  C318 6511   5.705   2.918   8.773  0.1743 -0.1989 -0.0098
   73SLPC  H18X 6512   5.596   2.940   8.769  0.6562  2.2841 -1.9031
   73SLPC  H18Y 6513   5.725   2.809   8.762  0.1239 -0.2907  0.7265
   73SLPC  H18Z 6514   5.759   2.977   8.696 -0.1033  1.0110  0.6912
   74SLPC     N 6515   1.414   1.742  10.916  0.0048  0.1900  0.4700
   74SLPC   C13 6516   1.321   1.809  11.013  0.0610  1.0568  0.0979
   74SLPC  H13A 6517   1.351   1.910  11.038 -2.1496  1.5250  1.1215
   74SLPC  H13B 6518   1.219   1.820  10.977 -0.0343 -0.6937 -0.2465
   74SLPC  H13C 6519   1.309   1.757  11.107 -0.8645  0.5010 -0.3123
   74SLPC   C14 6520   1.374   1.595  10.913  0.2332 -0.0383 -0.7393
   74SLPC  H14A 6521   1.368   1.554  11.013  1.2797  0.2805 -0.5245
   74SLPC  H14B 6522   1.280   1.582  10.863 -0.0849 -1.8432  0.2352
   74SLPC  H14C 6523   1.459   1.540  10.875  0.7015 -1.0373  1.5335
   74SLPC   C15 6524   1.551   1.753  10.968 -0.1461 -0.6276 -0.3452
   74SLPC  H15A 6525   1.577   1.857  10.971  1.0409 -0.8906 -0.8277
   74SLPC  H15B 6526   1.558   1.709  11.066  0.2014  1.5635  0.6672
   74SLPC  H15C 6527   1.624   1.705  10.904  3.1301  1.4215  1.5913
   74SLPC   C12 6528   1.416   1.808  10.774  0.6515 -0.6013 -0.1350
   74SLPC  H12A 6529   1.457   1.907  10.778 -0.8876  0.0441  0.5553
   74SLPC  H12B 6530   1.311   1.815  10.747  0.7752 -1.1994 -0.8031
   74SLPC   C11 6531   1.494   1.751  10.658  0.3774  0.4562  0.4128
   74SLPC  H11A 6532   1.495   1.788  10.553  3.3006 -0.8155 -0.1045
   74SLPC  H11B 6533   1.454   1.648  10.646 -2.2356  1.2925  1.3126
   74SLPC     P 6534   1.732   1.855  10.660  0.1980 -0.0009  0.6507
   74SLPC   O13 6535   1.652   1.978  10.680 -0.0741  0.0122  0.3092
   74SLPC   O14 6536   1.853   1.835  10.743 -0.8102  0.0658  0.6215
   74SLPC   O12 6537   1.636   1.733  10.693  0.5508  0.7016  0.7618
   74SLPC   O11 6538   1.754   1.852  10.498  0.2234  0.4437 -0.0897
   74SLPC    C1 6539   1.778   1.732  10.426 -0.2045  0.1198 -0.3384
   74SLPC    HA 6540   1.750   1.642  10.484 -2.2334  1.0241  0.1799
   74SLPC    HB 6541   1.719   1.747  10.333 -0.0622  2.6247 -0.0924
   74SLPC    C2 6542   1.932   1.719  10.383 -0.4959  0.2005  1.1791
   74SLPC    HS 6543   1.995   1.709  10.474  0.3994 -1.4288  0.4253
   74SLPC   O21 6544   1.969   1.848  10.322  0.0237 -0.3900 -0.2029
   74SLPC   C21 6545   2.101   1.863  10.328  0.0776 -0.7399 -0.4118
   74SLPC   O22 6546   2.183   1.781  10.363  0.5531 -0.2827  0.1180
   74SLPC   C22 6547   2.137   2.002  10.273  0.1930 -0.8124 -0.0937
   74SLPC   H2R 6548   2.040   2.057  10.280  0.8561  1.1191 -3.6481
   74SLPC   H2S 6549   2.210   2.043  10.347  0.1336  1.8450 -1.3993
   74SLPC    C3 6550   1.962   1.592  10.297  0.1237 -0.2371  0.1458
   74SLPC    HX 6551   1.959   1.507  10.368 -0.3036 -3.0309 -2.9788
   74SLPC    HY 6552   2.069   1.596  10.268  1.0655  1.2683  3.4050
   74SLPC   O31 6553   1.868   1.579  10.187  0.1698  0.2034 -0.4913
   74SLPC   C31 6554   1.903   1.636  10.078 -0.3240  0.9060  0.5085
   74SLPC   O32 6555   2.011   1.686  10.056  0.7678  0.3711  0.5358
   74SLPC   C32 6556   1.790   1.598   9.975  0.5124  0.2976 -0.9012
   74SLPC   H2X 6557   1.690   1.615  10.021 -0.9086 -3.4640 -2.1843
   74SLPC   H2Y 6558   1.792   1.487   9.964  0.4514 -0.1506  2.4968
   74SLPC   C23 6559   2.187   2.004  10.128 -0.3729 -0.2147 -0.0691
   74SLPC   H3R 6560   2.249   1.913  10.110  0.6753  0.1432  1.4788
   74SLPC   H3S 6561   2.250   2.093  10.110 -1.4212  0.9679  1.8243
   74SLPC   C24 6562   2.073   2.000  10.022  0.3291 -0.3156  0.0535
   74SLPC   H4R 6563   2.007   2.087  10.042  1.4730  1.0131 -1.6628
   74SLPC   H4S 6564   1.998   1.918  10.011  1.3318 -1.2920  0.2908
   74SLPC   C25 6565   2.127   2.028   9.884 -0.6090  0.2284  0.1924
   74SLPC   H5R 6566   2.225   1.979   9.864 -1.1898 -0.1910 -1.8626
   74SLPC   H5S 6567   2.136   2.139   9.888  0.6097  0.2499 -1.6438
   74SLPC   C26 6568   2.037   1.984   9.767 -0.1183 -0.1593  0.8913
   74SLPC   H6R 6569   1.941   2.038   9.781  0.6822  1.7159 -0.4680
   74SLPC   H6S 6570   2.023   1.874   9.768 -2.3995  0.0826  0.1988
   74SLPC   C27 6571   2.103   2.016   9.627 -0.2727 -0.5043  0.0345
   74SLPC   H7R 6572   2.212   1.993   9.629 -0.2114 -0.5368 -1.9061
   74SLPC   H7S 6573   2.090   2.126   9.622  1.4718 -0.3029 -0.7054
   74SLPC   C28 6574   2.029   1.957   9.506 -0.4510  0.8345 -0.1806
   74SLPC   H8R 6575   1.941   2.022   9.487 -1.3688 -0.3614 -0.1327
   74SLPC   H8S 6576   1.997   1.851   9.513 -1.4914  1.2066  1.1062
   74SLPC   C29 6577   2.117   1.960   9.383 -0.5013 -0.5354 -0.3109
   74SLPC   H9R 6578   2.187   1.877   9.363 -1.8476 -1.0377 -3.5530
   74SLPC  C210 6579   2.104   2.050   9.283  0.4625 -0.1621  0.2335
   74SLPC  H10R 6580   2.149   2.034   9.184 -0.4570 -0.7881 -0.1033
   74SLPC  C211 6581   2.014   2.169   9.285  0.0957 -1.1969 -0.2851
   74SLPC  H11R 6582   2.025   2.240   9.370 -0.3533  0.5790 -1.6702
   74SLPC  H11S 6583   1.909   2.133   9.283 -0.0030 -0.9183 -2.4724
   74SLPC  C212 6584   2.039   2.238   9.155 -0.2216 -0.2202  0.2018
   74SLPC  H12R 6585   2.126   2.304   9.146 -1.0598  0.9003  0.1429
   74SLPC  C213 6586   1.954   2.233   9.049  0.6862 -0.0802  0.9460
   74SLPC  H13R 6587   1.974   2.287   8.956  0.9363 -0.0080  1.0411
   74SLPC  C214 6588   1.829   2.146   9.041  0.0679 -0.2384 -0.4456
   74SLPC  H14R 6589   1.740   2.203   9.073 -0.3411 -0.4360 -1.1964
   74SLPC  H14S 6590   1.830   2.065   9.117 -0.2283 -0.8845 -1.1209
   74SLPC  C215 6591   1.790   2.086   8.905  0.1809  0.0226 -0.1950
   74SLPC  H15R 6592   1.698   2.025   8.911  0.7488 -1.1557 -2.2961
   74SLPC  H15S 6593   1.868   2.012   8.879  1.2632  0.8877  0.4964
   74SLPC  C216 6594   1.778   2.180   8.784 -0.0489  0.1419  0.2897
   74SLPC  H16R 6595   1.873   2.226   8.749 -0.3616 -0.9305 -2.1812
   74SLPC  H16S 6596   1.695   2.252   8.794  1.2531  1.8146 -0.4304
   74SLPC  C217 6597   1.726   2.114   8.651 -0.0463 -1.1147 -0.1465
   74SLPC  H17R 6598   1.633   2.055   8.668 -1.9172  1.2378 -1.6611
   74SLPC  H17S 6599   1.810   2.048   8.620 -0.8384 -1.8639 -0.7487
   74SLPC  C218 6600   1.700   2.216   8.541  0.1639  0.4837 -0.7113
   74SLPC  H18R 6601   1.651   2.307   8.582 -1.5161 -1.7371  2.6689
   74SLPC  H18S 6602   1.630   2.169   8.469  2.2814 -0.1081 -2.4626
   74SLPC  H18T 6603   1.795   2.245   8.492 -0.6096 -0.7255 -3.0864
   74SLPC   C33 6604   1.810   1.664   9.830  0.0469  0.2216 -0.6725
   74SLPC   H3X 6605   1.906   1.623   9.791 -0.7796 -1.9258 -0.5905
   74SLPC   H3Y 6606   1.816   1.775   9.838 -0.5410  0.3087 -1.3459
   74SLPC   C34 6607   1.693   1.639   9.742  0.1716  0.9694 -0.4338
   74SLPC   H4X 6608   1.602   1.697   9.768 -1.4338 -1.7250  0.3749
   74SLPC   H4Y 6609   1.658   1.534   9.751 -0.5101  1.3461  2.5612
   74SLPC   C35 6610   1.744   1.677   9.600  0.2513  0.1634 -0.1248
   74SLPC   H5X 6611   1.843   1.631   9.578 -0.0290 -1.7678  2.2251
   74SLPC   H5Y 6612   1.743   1.788   9.590 -1.3673  0.1284 -0.6111
   74SLPC   C36 6613   1.652   1.623   9.489 -0.2734 -0.0542  0.0933
   74SLPC   H6X 6614   1.547   1.652   9.508  0.3188  1.4387  1.2983
   74SLPC   H6Y 6615   1.653   1.512   9.491 -1.2521 -0.0639  0.3874
   74SLPC   C37 6616   1.707   1.678   9.357  0.1094 -0.5821  0.0620
   74SLPC   H7X 6617   1.815   1.652   9.350 -0.1184 -1.8446  0.8528
   74SLPC   H7Y 6618   1.688   1.787   9.361  2.6254  0.0389 -1.9289
   74SLPC   C38 6619   1.629   1.625   9.232  0.9754 -0.0886  0.1654
   74SLPC   H8X 6620   1.623   1.514   9.235 -0.9216 -0.0548 -1.0218
   74SLPC   H8Y 6621   1.691   1.658   9.146  1.4953  3.4637  1.7390
   74SLPC   C39 6622   1.484   1.683   9.217  0.2818 -0.0244  0.8658
   74SLPC   H9X 6623   1.488   1.784   9.262 -0.3819  0.5099 -0.2346
   74SLPC   H9Y 6624   1.432   1.624   9.295 -2.6612  1.4043  0.1100
   74SLPC  C310 6625   1.417   1.674   9.078  0.6384 -0.1385  0.1065
   74SLPC  H10X 6626   1.306   1.669   9.084  0.6593 -2.7213 -0.4471
   74SLPC  H10Y 6627   1.457   1.587   9.023  0.3612  0.5071 -1.1509
   74SLPC  C311 6628   1.455   1.788   8.978  0.0702  0.4161  0.4251
   74SLPC  H11X 6629   1.564   1.806   8.968  0.5563 -2.6874 -1.1822
   74SLPC  H11Y 6630   1.407   1.874   9.029  1.7204 -0.0771  2.9326
   74SLPC  C312 6631   1.384   1.793   8.837 -0.4862  0.0366 -0.1745
   74SLPC  H12X 6632   1.340   1.894   8.823  2.7991  1.4949 -0.9633
   74SLPC  H12Y 6633   1.298   1.722   8.833 -1.2207  0.8702  0.3790
   74SLPC  C313 6634   1.477   1.770   8.720 -0.4890  0.7158 -0.0683
   74SLPC  H13X 6635   1.550   1.691   8.747 -0.3949  1.1187  0.9293
   74SLPC  H13Y 6636   1.540   1.855   8.687 -0.3537 -0.5462 -3.3533
   74SLPC  C314 6637   1.397   1.733   8.589 -1.0205 -0.4813  0.3191
   74SLPC  H14X 6638   1.317   1.661   8.613 -0.9701 -1.3652 -1.9184
   74SLPC  H14Y 6639   1.459   1.682   8.512 -1.4174  0.0760 -0.3756
   74SLPC  C315 6640   1.345   1.865   8.522 -0.9226 -0.2216 -0.1540
   74SLPC  H15X 6641   1.435   1.928   8.525  0.2143 -1.7113  3.6084
   74SLPC  H15Y 6642   1.271   1.915   8.588 -0.5297 -0.6595  0.6331
   74SLPC  C316 6643   1.294   1.849   8.377  0.1110  0.3707 -0.2988
   74SLPC  H16X 6644   1.205   1.782   8.372 -0.3608  0.8711  0.9634
   74SLPC  H16Y 6645   1.371   1.796   8.316 -0.1815 -2.2346  1.4371
   74SLPC  C317 6646   1.246   1.983   8.323 -0.2503  0.3354  1.0317
   74SLPC  H17X 6647   1.216   1.974   8.216  0.6072 -1.1457  0.8876
   74SLPC  H17Y 6648   1.339   2.043   8.328 -0.4499  0.8741 -1.0017
   74SLPC  C318 6649   1.132   2.043   8.396 -0.0432  0.1045 -0.0949
   74SLPC  H18X 6650   1.161   2.084   8.495 -1.8208 -2.2402  1.5443
   74SLPC  H18Y 6651   1.049   1.973   8.423 -1.2248  1.1151 -1.0176
   74SLPC  H18Z 6652   1.085   2.117   8.328 -0.2383  1.1067  1.0914
   75SLPC     N 6653   3.973   6.365   6.424  0.7073  0.6713 -0.5738
   75SLPC   C13 6654   4.114   6.391   6.476 -0.3382  0.7923 -0.4272
   75SLPC  H13A 6655   4.170   6.412   6.387 -0.6700  0.0997 -0.8101
   75SLPC  H13B 6656   4.132   6.480   6.534  1.8132  0.2406 -0.1710
   75SLPC  H13C 6657   4.158   6.309   6.531  0.6585  1.7892  0.3016
   75SLPC   C14 6658   3.893   6.346   6.547  0.2933  0.3780 -0.6173
   75SLPC  H14A 6659   3.938   6.281   6.620  0.4223 -0.3400 -1.3094
   75SLPC  H14B 6660   3.891   6.438   6.604  0.8629 -0.9920  1.7325
   75SLPC  H14C 6661   3.794   6.306   6.533 -0.1302  0.5273  1.6290
   75SLPC   C15 6662   3.971   6.237   6.346  0.4987  0.5554  0.1645
   75SLPC  H15A 6663   4.039   6.235   6.262  0.0781  1.3280 -0.2119
   75SLPC  H15B 6664   3.988   6.154   6.412 -0.3184  2.3698  2.8216
   75SLPC  H15C 6665   3.873   6.212   6.308  0.3102  0.1507  0.9025
   75SLPC   C12 6666   3.920   6.478   6.343  0.0675  0.6134  0.9755
   75SLPC  H12A 6667   3.821   6.443   6.317  0.7859 -1.0866  0.3797
   75SLPC  H12B 6668   3.965   6.491   6.246 -0.5467  0.9464  0.7258
   75SLPC   C11 6669   3.911   6.613   6.409  0.1318  0.4111 -0.7638
   75SLPC  H11A 6670   3.889   6.702   6.347 -2.5676  0.7614  0.5362
   75SLPC  H11B 6671   4.011   6.643   6.448  0.4411 -0.2315 -1.0504
   75SLPC     P 6672   3.663   6.617   6.490 -0.1774 -0.2186  0.4120
   75SLPC   O13 6673   3.655   6.630   6.343 -0.0208  0.3080  0.4413
   75SLPC   O14 6674   3.605   6.492   6.545 -0.4623 -0.1013  0.0509
   75SLPC   O12 6675   3.819   6.620   6.518  0.2827  0.0347  1.1496
   75SLPC   O11 6676   3.592   6.738   6.564  0.0710  0.0629  0.2721
   75SLPC    C1 6677   3.636   6.799   6.688 -0.7105  0.3642  0.4368
   75SLPC    HA 6678   3.744   6.785   6.708 -0.6820 -1.1112 -0.5599
   75SLPC    HB 6679   3.627   6.909   6.677  1.4282  0.4656 -0.7475
   75SLPC    C2 6680   3.540   6.767   6.808 -0.7690  0.0384  0.0085
   75SLPC    HS 6681   3.532   6.860   6.867 -0.6125 -0.1634  0.3544
   75SLPC   O21 6682   3.583   6.653   6.878 -0.0526  0.3122  0.6458
   75SLPC   C21 6683   3.688   6.686   6.958  0.3915 -1.0215  0.8151
   75SLPC   O22 6684   3.727   6.800   6.967 -0.2843 -0.0552  0.5096
   75SLPC   C22 6685   3.748   6.567   7.033  0.0163  0.2156 -0.6334
   75SLPC   H2R 6686   3.720   6.477   6.974 -0.7550  0.8790 -1.3136
   75SLPC   H2S 6687   3.859   6.571   7.037 -0.0347  1.0134  0.5145
   75SLPC    C3 6688   3.387   6.740   6.774  0.6751  0.3028  0.4305
   75SLPC    HX 6689   3.390   6.680   6.681  2.2783  1.9016 -0.6201
   75SLPC    HY 6690   3.350   6.843   6.754  0.8064  0.2035 -0.3390
   75SLPC   O31 6691   3.321   6.686   6.889  0.1354 -0.1736  0.3504
   75SLPC   C31 6692   3.192   6.657   6.873 -0.0731 -0.2517 -0.5262
   75SLPC   O32 6693   3.125   6.659   6.775  0.1646 -0.6330  0.1114
   75SLPC   C32 6694   3.135   6.628   7.016  0.5036 -0.8724  0.6698
   75SLPC   H2X 6695   3.071   6.717   7.036  1.6680 -0.1637  1.3859
   75SLPC   H2Y 6696   3.216   6.638   7.092  1.1800 -1.3075  0.0217
   75SLPC   C23 6697   3.680   6.534   7.169 -0.0029 -0.4865 -0.7811
   75SLPC   H3R 6698   3.720   6.604   7.246  0.2151 -3.9668  2.5601
   75SLPC   H3S 6699   3.694   6.427   7.194 -1.9119 -0.1190  2.4534
   75SLPC   C24 6700   3.531   6.543   7.165 -0.4056  0.0727 -0.2765
   75SLPC   H4R 6701   3.481   6.466   7.103  0.0063  0.3933 -1.0146
   75SLPC   H4S 6702   3.501   6.645   7.134  0.8362  0.3929 -0.4708
   75SLPC   C25 6703   3.476   6.518   7.312  0.2273  0.5498 -0.2124
   75SLPC   H5R 6704   3.374   6.561   7.321  0.2422  0.5082  0.1845
   75SLPC   H5S 6705   3.547   6.570   7.380 -0.3620  2.4078 -0.9486
   75SLPC   C26 6706   3.473   6.366   7.345 -0.3371 -0.2009  0.3507
   75SLPC   H6R 6707   3.576   6.324   7.346 -0.6804 -1.4267 -2.7720
   75SLPC   H6S 6708   3.422   6.306   7.266 -0.3462  0.3192 -0.0468
   75SLPC   C27 6709   3.390   6.336   7.466  0.0295 -0.0160 -0.4446
   75SLPC   H7R 6710   3.371   6.227   7.473 -2.0963  0.1637 -2.3934
   75SLPC   H7S 6711   3.289   6.378   7.448  0.0557  0.1582 -0.1924
   75SLPC   C28 6712   3.443   6.401   7.597 -0.0642  0.3299  0.5191
   75SLPC   H8R 6713   3.473   6.506   7.577  0.3244  0.0945 -0.1549
   75SLPC   H8S 6714   3.542   6.361   7.627 -0.6303 -0.7778  0.9742
   75SLPC   C29 6715   3.337   6.396   7.710  0.4082 -0.2721 -0.1718
   75SLPC   H9R 6716   3.319   6.294   7.748  1.2088  0.2374  1.6555
   75SLPC  C210 6717   3.277   6.502   7.775  0.0827  0.3271 -0.2486
   75SLPC  H10R 6718   3.206   6.472   7.853 -1.6710  0.9925 -1.5183
   75SLPC  C211 6719   3.295   6.654   7.754 -0.2119  0.5713 -0.2155
   75SLPC  H11R 6720   3.311   6.694   7.652  0.0869  0.3722 -0.2475
   75SLPC  H11S 6721   3.381   6.684   7.817 -1.7099  0.5569  1.9232
   75SLPC  C212 6722   3.179   6.727   7.806  0.4561 -0.1783 -0.7438
   75SLPC  H12R 6723   3.121   6.775   7.726 -1.7021  1.9689  1.9267
   75SLPC  C213 6724   3.157   6.753   7.935 -0.5062 -0.1288 -0.1791
   75SLPC  H13R 6725   3.062   6.802   7.961 -1.0799 -1.2737 -0.0159
   75SLPC  C214 6726   3.244   6.725   8.057 -0.0786  0.1470 -0.1245
   75SLPC  H14R 6727   3.261   6.822   8.109 -3.5625  2.4146 -2.7155
   75SLPC  H14S 6728   3.341   6.683   8.024  0.3532  1.3071 -0.3760
   75SLPC  C215 6729   3.182   6.623   8.160 -0.0426 -0.2046 -0.3064
   75SLPC  H15R 6730   3.182   6.519   8.121  2.8625 -0.5146  0.2291
   75SLPC  H15S 6731   3.081   6.660   8.184  0.6483 -0.1354  2.9496
   75SLPC  C216 6732   3.253   6.616   8.302  0.0061 -0.7836  0.0422
   75SLPC  H16R 6733   3.278   6.719   8.335  0.3911 -0.4461 -1.2299
   75SLPC  H16S 6734   3.352   6.568   8.288  0.7663  0.5203  0.7513
   75SLPC  C217 6735   3.178   6.534   8.411 -0.0126 -0.2725 -1.3024
   75SLPC  H17R 6736   3.076   6.577   8.417 -0.3857 -0.9291 -2.5070
   75SLPC  H17S 6737   3.227   6.553   8.508  0.0523  1.0256 -1.5742
   75SLPC  C218 6738   3.155   6.388   8.385 -0.3165  0.1902  0.2579
   75SLPC  H18R 6739   3.248   6.354   8.334 -1.1358  2.2835 -2.9064
   75SLPC  H18S 6740   3.074   6.380   8.309 -0.5147  2.1189  0.2104
   75SLPC  H18T 6741   3.135   6.332   8.479 -1.3722 -1.4608 -0.9028
   75SLPC   C33 6742   3.062   6.495   7.036  0.4833  0.0400  0.1507
   75SLPC   H3X 6743   2.999   6.478   6.947  2.2444  0.5615 -1.2405
   75SLPC   H3Y 6744   3.138   6.415   7.040 -0.5562 -0.9701  3.8080
   75SLPC   C34 6745   2.954   6.489   7.149  0.0711  0.5674 -0.3714
   75SLPC   H4X 6746   2.896   6.395   7.136 -0.2343  0.5621  0.8506
   75SLPC   H4Y 6747   2.869   6.559   7.134 -1.0935 -0.1683  2.1653
   75SLPC   C35 6748   3.007   6.520   7.291 -0.6975  1.1051 -0.2526
   75SLPC   H5X 6749   3.047   6.622   7.302  0.3961  0.7317 -0.6927
   75SLPC   H5Y 6750   3.091   6.450   7.313 -1.4166  0.6008  1.0540
   75SLPC   C36 6751   2.889   6.497   7.389  0.0220  0.3232 -0.3451
   75SLPC   H6X 6752   2.818   6.420   7.352 -1.0275  0.7561  0.6689
   75SLPC   H6Y 6753   2.840   6.597   7.395  1.8121  1.3067 -1.2819
   75SLPC   C37 6754   2.935   6.449   7.534 -0.1272  0.1409 -0.0198
   75SLPC   H7X 6755   2.973   6.524   7.607 -1.0158 -0.0720  0.6745
   75SLPC   H7Y 6756   3.014   6.374   7.512 -2.3390 -1.8381 -1.6898
   75SLPC   C38 6757   2.827   6.372   7.612  0.1008  0.5965 -0.3013
   75SLPC   H8X 6758   2.897   6.322   7.683 -2.7130 -1.1658  1.4134
   75SLPC   H8Y 6759   2.758   6.307   7.554 -1.2442  1.4556  0.2943
   75SLPC   C39 6760   2.732   6.442   7.716  0.6875  0.0201 -0.5554
   75SLPC   H9X 6761   2.682   6.357   7.767  1.8897  0.0261  0.6924
   75SLPC   H9Y 6762   2.653   6.499   7.662  0.5384 -0.8805 -1.3044
   75SLPC  C310 6763   2.802   6.530   7.823  0.1523 -0.2970 -0.1995
   75SLPC  H10X 6764   2.859   6.615   7.779  2.2827 -0.4651  2.0243
   75SLPC  H10Y 6765   2.867   6.470   7.890 -1.2660  0.9100  2.4430
   75SLPC  C311 6766   2.707   6.601   7.926  0.0084 -0.1295 -0.3469
   75SLPC  H11X 6767   2.619   6.535   7.940 -1.6563  1.7838 -1.1547
   75SLPC  H11Y 6768   2.664   6.690   7.875 -0.6897  0.2933  0.9321
   75SLPC  C312 6769   2.777   6.642   8.055 -0.5781  0.1532 -0.0385
   75SLPC  H12X 6770   2.876   6.688   8.033 -0.8420 -0.2639 -2.4595
   75SLPC  H12Y 6771   2.792   6.547   8.109 -1.5544 -0.9832 -1.6619
   75SLPC  C313 6772   2.689   6.733   8.135  0.1863  0.3806  0.0492
   75SLPC  H13X 6773   2.590   6.687   8.152 -0.3197  2.3817  3.2574
   75SLPC  H13Y 6774   2.655   6.816   8.069 -2.8378 -0.9362 -0.2239
   75SLPC  C314 6775   2.736   6.773   8.272 -0.5142  0.2990 -0.6934
   75SLPC  H14X 6776   2.683   6.864   8.306  1.5820  0.4209  2.8272
   75SLPC  H14Y 6777   2.846   6.784   8.282 -0.7031  0.6953  1.4921
   75SLPC  C315 6778   2.699   6.655   8.379 -0.1698  0.2143 -0.3717
   75SLPC  H15X 6779   2.710   6.560   8.323  0.4511 -1.4301  2.3803
   75SLPC  H15Y 6780   2.593   6.663   8.409 -0.1959 -0.9979 -0.1212
   75SLPC  C316 6781   2.777   6.665   8.513  0.4627  0.2867 -0.3594
   75SLPC  H16X 6782   2.747   6.759   8.564 -0.8218 -0.5656  0.5054
   75SLPC  H16Y 6783   2.885   6.655   8.488  0.0922  1.1558 -2.5904
   75SLPC  C317 6784   2.758   6.541   8.614  0.9459  0.1187 -0.1359
   75SLPC  H17X 6785   2.649   6.546   8.636  1.1481  1.0213  0.7098
   75SLPC  H17Y 6786   2.814   6.559   8.708 -1.9737 -1.3907  2.0581
   75SLPC  C318 6787   2.804   6.395   8.566 -0.9496 -0.0768 -0.1536
   75SLPC  H18X 6788   2.787   6.317   8.644 -2.6600  0.2470 -0.1635
   75SLPC  H18Y 6789   2.914   6.393   8.557 -1.0771 -0.1901 -2.0492
   75SLPC  H18Z 6790   2.761   6.361   8.470  0.6666  1.5272 -1.5068
   76SLPC     N 6791   4.595   5.265   6.187 -0.2208  0.1723 -0.4983
   76SLPC   C13 6792   4.680   5.387   6.144 -0.0867 -0.0434  0.0402
   76SLPC  H13A 6793   4.774   5.370   6.195 -0.8111 -0.5553  1.2406
   76SLPC  H13B 6794   4.702   5.381   6.039 -0.1077 -1.2808  0.0996
   76SLPC  H13C 6795   4.639   5.486   6.161 -0.5963 -0.6054  2.4446
   76SLPC   C14 6796   4.452   5.277   6.147 -0.7036  0.1513  0.3372
   76SLPC  H14A 6797   4.455   5.290   6.040  0.8058  0.8285  0.4344
   76SLPC  H14B 6798   4.389   5.196   6.182  1.0084 -0.6194  1.7874
   76SLPC  H14C 6799   4.408   5.368   6.183 -0.3593  2.2817 -4.0091
   76SLPC   C15 6800   4.606   5.258   6.336 -0.0622 -0.3592 -0.2966
   76SLPC  H15A 6801   4.707   5.272   6.369 -0.2731 -0.8599  0.5976
   76SLPC  H15B 6802   4.543   5.333   6.381  1.0106  0.7260 -0.5685
   76SLPC  H15C 6803   4.586   5.155   6.363 -0.6274 -0.6312 -1.6443
   76SLPC   C12 6804   4.647   5.140   6.124 -0.3133 -0.7717 -0.3582
   76SLPC  H12A 6805   4.745   5.126   6.167 -0.5670 -3.8108 -0.4904
   76SLPC  H12B 6806   4.668   5.153   6.019 -0.3673 -0.5315 -0.3387
   76SLPC   C11 6807   4.572   5.003   6.144 -0.1117  0.2038 -0.0850
   76SLPC  H11A 6808   4.627   4.928   6.084  0.1121 -1.4466  2.0488
   76SLPC  H11B 6809   4.477   5.025   6.091  0.9264  1.5627 -1.4503
   76SLPC     P 6810   4.485   4.830   6.301 -0.1738 -0.2641  0.4633
   76SLPC   O13 6811   4.378   4.816   6.201 -0.1653  0.0501 -0.1996
   76SLPC   O14 6812   4.578   4.716   6.307 -0.3358  0.1184  0.6042
   76SLPC   O12 6813   4.566   4.968   6.284 -0.1596  0.2781  0.1577
   76SLPC   O11 6814   4.421   4.852   6.447  0.4050  0.0112  0.0085
   76SLPC    C1 6815   4.348   4.965   6.485 -0.0431 -0.0015 -0.5002
   76SLPC    HA 6816   4.405   5.056   6.457 -0.1496  0.2872  0.1928
   76SLPC    HB 6817   4.243   4.965   6.448 -0.5468 -0.1513  0.8720
   76SLPC    C2 6818   4.338   4.972   6.642  0.0421 -0.4691 -0.1355
   76SLPC    HS 6819   4.274   5.057   6.673  1.4183  1.5232 -2.4933
   76SLPC   O21 6820   4.464   4.996   6.716  0.1308  0.2480 -0.1069
   76SLPC   C21 6821   4.526   5.105   6.689 -0.8216  0.2928 -0.0631
   76SLPC   O22 6822   4.488   5.200   6.621 -0.0756 -0.4893 -0.4044
   76SLPC   C22 6823   4.666   5.100   6.754  0.3302  0.2480 -0.3759
   76SLPC   H2R 6824   4.647   5.055   6.854 -1.6891 -1.0583 -1.2787
   76SLPC   H2S 6825   4.722   5.037   6.681  1.4230  0.4813  0.2391
   76SLPC    C3 6826   4.269   4.848   6.706 -0.1841 -0.1597  0.4109
   76SLPC    HX 6827   4.346   4.769   6.698 -0.7200 -0.8124  1.4814
   76SLPC    HY 6828   4.184   4.816   6.641 -0.2919  2.7466 -1.0466
   76SLPC   O31 6829   4.222   4.880   6.837  0.6791 -0.2618 -0.2995
   76SLPC   C31 6830   4.209   4.771   6.915  0.3373  0.5266 -0.3817
   76SLPC   O32 6831   4.218   4.656   6.881  0.2586 -0.2336 -0.4644
   76SLPC   C32 6832   4.167   4.827   7.047  0.1017  0.4216  0.1601
   76SLPC   H2X 6833   4.060   4.857   7.046 -0.3499 -1.0973 -1.4496
   76SLPC   H2Y 6834   4.235   4.910   7.077  2.6038 -1.9968  1.6668
   76SLPC   C23 6835   4.730   5.239   6.773  0.3507 -0.6171  0.3770
   76SLPC   H3R 6836   4.743   5.294   6.678  0.3278  1.7762  1.6785
   76SLPC   H3S 6837   4.837   5.233   6.803  0.0210  0.5790  1.9178
   76SLPC   C24 6838   4.675   5.328   6.886  0.5375  0.3415  0.2930
   76SLPC   H4R 6839   4.569   5.358   6.868  0.9788  0.1307 -3.2313
   76SLPC   H4S 6840   4.732   5.423   6.879  0.9827  0.2420  2.0678
   76SLPC   C25 6841   4.709   5.268   7.021  0.1007  0.4341  0.1782
   76SLPC   H5R 6842   4.820   5.266   7.019  0.0957  0.0570  0.0719
   76SLPC   H5S 6843   4.672   5.167   7.052  0.7064  0.5193  1.2224
   76SLPC   C26 6844   4.679   5.358   7.139 -0.3083  0.0548  0.4534
   76SLPC   H6R 6845   4.568   5.364   7.150 -0.2895  2.3809 -0.2783
   76SLPC   H6S 6846   4.714   5.457   7.105 -0.2570 -0.1060  0.0315
   76SLPC   C27 6847   4.748   5.314   7.268 -0.4461 -0.3886  0.2269
   76SLPC   H7R 6848   4.853   5.292   7.240  0.6970  2.2056  2.1176
   76SLPC   H7S 6849   4.687   5.224   7.290 -0.1628 -1.7665 -3.7244
   76SLPC   C28 6850   4.737   5.406   7.392 -0.0259 -0.1542 -0.1181
   76SLPC   H8R 6851   4.803   5.490   7.363  1.5493 -1.9424 -2.0197
   76SLPC   H8S 6852   4.630   5.436   7.401 -0.6195 -2.4162  1.1977
   76SLPC   C29 6853   4.784   5.354   7.526  0.5929 -0.2952  0.5219
   76SLPC   H9R 6854   4.893   5.344   7.533  0.5537 -1.1533 -0.0053
   76SLPC  C210 6855   4.711   5.322   7.635 -0.5800  0.4020  1.0494
   76SLPC  H10R 6856   4.754   5.308   7.735  0.8046  0.2315  0.4538
   76SLPC  C211 6857   4.560   5.320   7.638 -0.0630 -0.0869 -0.3681
   76SLPC  H11R 6858   4.532   5.212   7.644  1.4143 -0.5539 -1.3161
   76SLPC  H11S 6859   4.517   5.350   7.541  0.9878 -0.6022 -1.0082
   76SLPC  C212 6860   4.499   5.410   7.738  0.0863  0.0679  0.0582
   76SLPC  H12R 6861   4.531   5.514   7.720  1.0130  0.0192  1.2710
   76SLPC  C213 6862   4.414   5.383   7.842 -0.1803 -0.0372  0.1854
   76SLPC  H13R 6863   4.374   5.473   7.892  2.1957  1.5684 -0.6116
   76SLPC  C214 6864   4.366   5.250   7.878  0.2669  0.2917 -0.4953
   76SLPC  H14R 6865   4.397   5.230   7.983 -1.7895 -0.7788 -0.0524
   76SLPC  H14S 6866   4.420   5.170   7.823 -0.2088 -0.3355 -0.0511
   76SLPC  C215 6867   4.220   5.218   7.857  0.5024 -0.0542 -0.3302
   76SLPC  H15R 6868   4.204   5.108   7.846  0.7715  0.0131 -1.5366
   76SLPC  H15S 6869   4.187   5.264   7.761 -1.5753  2.5650  1.4946
   76SLPC  C216 6870   4.136   5.280   7.964 -0.6450 -0.6070 -0.4535
   76SLPC  H16R 6871   4.138   5.391   7.960  2.8408 -0.5817 -0.6624
   76SLPC  H16S 6872   4.183   5.264   8.064  0.6363 -1.0131 -1.1023
   76SLPC  C217 6873   3.986   5.243   7.970 -0.5475 -0.1164 -0.1914
   76SLPC  H17R 6874   3.951   5.272   7.869  0.9415  0.4145 -0.5703
   76SLPC  H17S 6875   3.922   5.310   8.031  0.8980 -0.9940  2.4555
   76SLPC  C218 6876   3.956   5.103   8.002  0.3480  0.6992 -0.1824
   76SLPC  H18R 6877   3.993   5.030   7.927  3.0524  2.3513 -0.6306
   76SLPC  H18S 6878   3.847   5.089   7.987  0.4484 -0.7483  0.3583
   76SLPC  H18T 6879   3.979   5.062   8.103 -0.4515 -1.0415 -0.6740
   76SLPC   C33 6880   4.177   4.726   7.164  1.6876 -0.7560  0.5057
   76SLPC   H3X 6881   4.285   4.704   7.182  2.4684  2.6952  0.6827
   76SLPC   H3Y 6882   4.116   4.642   7.124 -0.2138  1.6523 -2.0503
   76SLPC   C34 6883   4.112   4.774   7.291  0.5978 -0.4043  0.0825
   76SLPC   H4X 6884   4.002   4.762   7.286  0.3699  1.8050 -2.3108
   76SLPC   H4Y 6885   4.128   4.884   7.294 -2.0626  0.0201  1.3786
   76SLPC   C35 6886   4.169   4.707   7.409 -0.1993  0.1430 -0.4823
   76SLPC   H5X 6887   4.274   4.742   7.411 -0.0047 -0.3976 -0.8959
   76SLPC   H5Y 6888   4.168   4.604   7.368 -1.2885  0.8883 -2.4733
   76SLPC   C36 6889   4.086   4.736   7.540 -0.6528  0.0828 -0.4558
   76SLPC   H6X 6890   3.999   4.668   7.540 -0.3297 -0.3458  0.4664
   76SLPC   H6Y 6891   4.055   4.843   7.542  0.1128  0.3114 -0.2038
   76SLPC   C37 6892   4.173   4.700   7.660 -0.3420  0.5908 -0.4463
   76SLPC   H7X 6893   4.253   4.778   7.667  0.9485 -0.5760 -1.6599
   76SLPC   H7Y 6894   4.227   4.604   7.650 -1.4879 -0.1712  0.4827
   76SLPC   C38 6895   4.083   4.691   7.789 -0.0151  0.2990 -0.4483
   76SLPC   H8X 6896   3.994   4.625   7.779  1.1167 -1.4768  0.7034
   76SLPC   H8Y 6897   4.038   4.791   7.809 -2.6532 -1.0347  0.6957
   76SLPC   C39 6898   4.163   4.652   7.909  0.2332 -0.2473  0.5207
   76SLPC   H9X 6899   4.243   4.729   7.912 -0.4097  0.5140 -0.8319
   76SLPC   H9Y 6900   4.213   4.554   7.895  1.5392  0.2988  1.2480
   76SLPC  C310 6901   4.093   4.638   8.039 -0.1917 -0.0255 -0.2468
   76SLPC  H10X 6902   4.155   4.562   8.091  1.4834  2.6326  1.9235
   76SLPC  H10Y 6903   3.992   4.592   8.034 -0.5608  0.5936  1.0007
   76SLPC  C311 6904   4.101   4.769   8.129 -0.0886 -0.0314  0.3942
   76SLPC  H11X 6905   4.030   4.752   8.213  0.6659 -2.1369  0.6669
   76SLPC  H11Y 6906   4.080   4.861   8.069  3.4007  2.0545  2.0570
   76SLPC  C312 6907   4.239   4.790   8.195  0.7484  0.8145 -0.1304
   76SLPC  H12X 6908   4.315   4.767   8.117  2.3790 -0.3503  1.6966
   76SLPC  H12Y 6909   4.262   4.717   8.275 -0.2613  1.6167  0.9068
   76SLPC  C313 6910   4.233   4.942   8.247 -0.3271 -0.0606 -0.3238
   76SLPC  H13X 6911   4.137   4.962   8.299  0.6096 -0.6933  1.7533
   76SLPC  H13Y 6912   4.212   5.007   8.159 -3.3930 -0.0494  0.3176
   76SLPC  C314 6913   4.358   4.979   8.321  0.7122 -0.6513 -0.5573
   76SLPC  H14X 6914   4.346   5.087   8.344  1.6345 -0.2921 -1.6600
   76SLPC  H14Y 6915   4.451   4.987   8.261 -0.1021 -0.2746 -1.8175
   76SLPC  C315 6916   4.386   4.889   8.443 -0.1257 -0.3977  0.5578
   76SLPC  H15X 6917   4.450   4.803   8.411 -1.3199 -1.4084  0.8066
   76SLPC  H15Y 6918   4.290   4.850   8.483 -0.8755  1.2448  0.4384
   76SLPC  C316 6919   4.465   4.959   8.560 -0.4285 -0.8258 -0.8692
   76SLPC  H16X 6920   4.559   5.009   8.530 -0.3053  1.3648  2.6398
   76SLPC  H16Y 6921   4.491   4.885   8.639  0.1525 -0.0330 -0.3030
   76SLPC  C317 6922   4.379   5.072   8.624  0.6076  0.0865 -0.2132
   76SLPC  H17X 6923   4.292   5.019   8.667 -1.6601  4.7354  1.6253
   76SLPC  H17Y 6924   4.347   5.150   8.551 -2.9006 -2.3974 -1.6566
   76SLPC  C318 6925   4.458   5.143   8.735 -0.1512 -0.1591  0.2191
   76SLPC  H18X 6926   4.538   5.197   8.681 -0.2322  1.0198  1.2408
   76SLPC  H18Y 6927   4.517   5.082   8.807  0.0900  1.4018  1.3840
   76SLPC  H18Z 6928   4.397   5.221   8.785  1.6528  2.0857 -0.8843
   77SLPC     N 6929   4.257   3.222   6.552  0.0413 -0.1489 -0.2992
   77SLPC   C13 6930   4.345   3.112   6.506 -0.2190 -0.4187  0.4656
   77SLPC  H13A 6931   4.297   3.050   6.431 -0.2168 -1.0475  0.9630
   77SLPC  H13B 6932   4.425   3.150   6.446 -1.3771 -0.9351 -1.5092
   77SLPC  H13C 6933   4.388   3.050   6.584  0.8490 -0.3400 -0.0462
   77SLPC   C14 6934   4.348   3.314   6.631  0.0830 -0.2816 -0.3641
   77SLPC  H14A 6935   4.393   3.267   6.717  0.6070  0.7100 -0.0729
   77SLPC  H14B 6936   4.433   3.362   6.586 -0.3129 -0.2046 -1.0474
   77SLPC  H14C 6937   4.290   3.393   6.678  1.7400  0.9792 -0.3399
   77SLPC   C15 6938   4.142   3.176   6.640  0.3532  0.1316 -0.0441
   77SLPC  H15A 6939   4.176   3.117   6.724 -0.1011 -0.1416 -0.0457
   77SLPC  H15B 6940   4.094   3.258   6.691  1.4997 -0.0645  1.4252
   77SLPC  H15C 6941   4.076   3.119   6.576  0.8213 -0.3591 -0.0998
   77SLPC   C12 6942   4.192   3.297   6.435 -0.3970  1.0472  0.4238
   77SLPC  H12A 6943   4.274   3.352   6.392  0.4278 -1.9496 -2.1695
   77SLPC  H12B 6944   4.128   3.376   6.472  1.2529  1.7736  1.8706
   77SLPC   C11 6945   4.126   3.204   6.320  0.0828  0.1618  0.4250
   77SLPC  H11A 6946   4.188   3.115   6.293 -1.8946 -1.0341 -0.3848
   77SLPC  H11B 6947   4.116   3.274   6.235 -0.0677  2.3281  2.1544
   77SLPC     P 6948   3.881   3.253   6.411 -0.6653  0.0166  0.1157
   77SLPC   O13 6949   3.930   3.387   6.437  0.5972  0.2909  0.3657
   77SLPC   O14 6950   3.770   3.244   6.318  0.3472 -0.3410 -0.2593
   77SLPC   O12 6951   4.000   3.153   6.359 -0.4740  0.0737 -0.4112
   77SLPC   O11 6952   3.844   3.183   6.551 -0.6882  0.0320  0.5613
   77SLPC    C1 6953   3.840   3.040   6.564  0.2105 -0.3055  0.0845
   77SLPC    HA 6954   3.910   2.989   6.495  0.7998  0.8295 -0.1828
   77SLPC    HB 6955   3.870   3.002   6.664 -1.1095 -1.1381  0.1863
   77SLPC    C2 6956   3.701   2.977   6.529 -0.8803  0.2177 -0.8689
   77SLPC    HS 6957   3.686   3.003   6.423  0.1300 -0.8177 -1.2872
   77SLPC   O21 6958   3.610   3.028   6.628 -0.0869 -0.5763 -0.1712
   77SLPC   C21 6959   3.500   3.072   6.582  0.2240 -0.6122 -0.4553
   77SLPC   O22 6960   3.473   3.065   6.460 -0.3112 -0.0788 -0.4784
   77SLPC   C22 6961   3.397   3.120   6.680  0.4520  0.4779 -0.3164
   77SLPC   H2R 6962   3.338   3.205   6.640 -2.3360 -0.8984  0.6038
   77SLPC   H2S 6963   3.326   3.036   6.697 -2.0594  2.5981  0.1436
   77SLPC    C3 6964   3.717   2.817   6.541  0.0212 -0.9436  0.4069
   77SLPC    HX 6965   3.800   2.793   6.471  0.1356  1.0509 -0.1892
   77SLPC    HY 6966   3.626   2.766   6.502  1.1059 -2.2466 -0.5289
   77SLPC   O31 6967   3.754   2.772   6.669  0.4554 -0.6771  0.0291
   77SLPC   C31 6968   3.652   2.748   6.750  0.4242  0.1949 -0.6498
   77SLPC   O32 6969   3.532   2.754   6.719  0.1721 -0.3013 -1.1415
   77SLPC   C32 6970   3.705   2.734   6.892  0.2434 -0.0460  0.0811
   77SLPC   H2X 6971   3.788   2.806   6.907  0.5344 -0.1280 -1.0786
   77SLPC   H2Y 6972   3.748   2.632   6.903 -1.3322 -0.6707  0.7427
   77SLPC   C23 6973   3.452   3.159   6.817 -0.1952  0.0965  0.2469
   77SLPC   H3R 6974   3.543   3.216   6.789  0.4423 -0.5034  1.0414
   77SLPC   H3S 6975   3.484   3.065   6.867 -2.4860 -0.6332  0.4547
   77SLPC   C24 6976   3.362   3.239   6.910  0.4165  0.3427  0.2616
   77SLPC   H4R 6977   3.261   3.193   6.922  0.6923 -0.3103  0.1311
   77SLPC   H4S 6978   3.361   3.337   6.858  1.5685  0.5216  0.5663
   77SLPC   C25 6979   3.439   3.256   7.047 -0.3594 -0.5623  0.6923
   77SLPC   H5R 6980   3.393   3.348   7.089 -0.2087 -0.2068  0.0846
   77SLPC   H5S 6981   3.549   3.265   7.031 -0.5742  1.7207  0.0985
   77SLPC   C26 6982   3.414   3.143   7.146  0.1663  0.9649 -0.1430
   77SLPC   H6R 6983   3.475   3.052   7.133  0.2980  1.1351 -0.7391
   77SLPC   H6S 6984   3.314   3.098   7.130  0.9992 -1.0231  0.0676
   77SLPC   C27 6985   3.407   3.187   7.291 -0.2476  0.8108  0.4126
   77SLPC   H7R 6986   3.311   3.242   7.300  0.6582  2.6127 -0.2773
   77SLPC   H7S 6987   3.483   3.258   7.329 -0.0308 -0.0911  1.7138
   77SLPC   C28 6988   3.427   3.068   7.386 -0.0010 -0.2195 -0.8344
   77SLPC   H8R 6989   3.530   3.027   7.383 -0.0315 -1.1235  3.4361
   77SLPC   H8S 6990   3.353   2.992   7.351 -0.1465 -0.5118  0.0633
   77SLPC   C29 6991   3.402   3.102   7.534 -0.2087  1.1861 -0.2106
   77SLPC   H9R 6992   3.468   3.183   7.570 -1.2762  1.7043  0.6389
   77SLPC  C210 6993   3.292   3.060   7.601  0.2799 -0.2226 -0.3418
   77SLPC  H10R 6994   3.285   3.092   7.706 -1.1559  0.0947 -0.5078
   77SLPC  C211 6995   3.176   2.971   7.559  0.1864 -0.8479 -0.1571
   77SLPC  H11R 6996   3.122   2.965   7.656  3.8765 -0.3883  2.1128
   77SLPC  H11S 6997   3.206   2.865   7.543  1.2080 -0.3456 -1.8446
   77SLPC  C212 6998   3.097   3.024   7.435 -0.3508 -0.0366  0.2743
   77SLPC  H12R 6999   3.146   3.099   7.370 -2.0940  0.1481 -0.9187
   77SLPC  C213 7000   2.963   3.001   7.409  0.0659 -0.1752 -0.1375
   77SLPC  H13R 7001   2.908   3.038   7.322  1.1867  0.2666 -0.6795
   77SLPC  C214 7002   2.874   2.914   7.488 -0.3015  0.2496  0.3736
   77SLPC  H14R 7003   2.869   2.963   7.587  0.0375  0.7321  0.1545
   77SLPC  H14S 7004   2.926   2.819   7.514  2.5823  1.1372 -1.6106
   77SLPC  C215 7005   2.735   2.894   7.435  0.2353  0.2539  0.4035
   77SLPC  H15R 7006   2.724   2.815   7.357 -1.3252  1.2770 -0.4613
   77SLPC  H15S 7007   2.703   2.983   7.377  2.3059  0.1433 -1.0296
   77SLPC  C216 7008   2.633   2.864   7.540 -0.4056  0.4257  0.0989
   77SLPC  H16R 7009   2.641   2.950   7.610 -1.1558  2.0126 -1.6735
   77SLPC  H16S 7010   2.641   2.763   7.585 -1.4219  0.2084 -0.1823
   77SLPC  C217 7011   2.501   2.877   7.469  1.0743  0.4019  0.3151
   77SLPC  H17R 7012   2.496   2.798   7.391  1.3066  0.7234 -0.0356
   77SLPC  H17S 7013   2.496   2.975   7.416  0.9050 -0.0116 -0.4461
   77SLPC  C218 7014   2.387   2.851   7.563  0.3247 -0.1448  0.0711
   77SLPC  H18R 7015   2.404   2.918   7.651  1.8457 -1.1255  0.5582
   77SLPC  H18S 7016   2.383   2.751   7.612 -3.2494 -0.4613 -0.5933
   77SLPC  H18T 7017   2.294   2.873   7.506  0.1712 -0.9527  0.0054
   77SLPC   C33 7018   3.596   2.733   7.004 -0.5266 -0.2086  0.0681
   77SLPC   H3X 7019   3.530   2.646   6.982  1.5776 -1.7328 -0.5580
   77SLPC   H3Y 7020   3.544   2.830   6.994  1.6854  0.8239 -2.3605
   77SLPC   C34 7021   3.654   2.721   7.140  0.4944  0.4448 -0.5368
   77SLPC   H4X 7022   3.735   2.796   7.151  1.5732 -0.5527 -1.3797
   77SLPC   H4Y 7023   3.702   2.621   7.145 -3.3141 -1.4868  2.7801
   77SLPC   C35 7024   3.561   2.744   7.259 -0.8176 -0.6521  0.1094
   77SLPC   H5X 7025   3.468   2.684   7.246  0.5982 -3.1596  0.7925
   77SLPC   H5Y 7026   3.541   2.853   7.253 -0.1873 -0.4177  1.7139
   77SLPC   C36 7027   3.627   2.707   7.385 -0.4043  0.8286 -0.1966
   77SLPC   H6X 7028   3.720   2.763   7.411 -0.2409  0.8984 -0.9321
   77SLPC   H6Y 7029   3.652   2.599   7.384  0.0249  0.9278 -1.0914
   77SLPC   C37 7030   3.545   2.737   7.518  0.1638  0.4779  0.2515
   77SLPC   H7X 7031   3.442   2.695   7.510  0.5074 -0.1609 -1.0740
   77SLPC   H7Y 7032   3.532   2.847   7.523 -0.1006  0.4353  0.5292
   77SLPC   C38 7033   3.612   2.689   7.654  0.3668 -0.4158 -0.2913
   77SLPC   H8X 7034   3.701   2.751   7.679 -0.6832  1.3633 -0.7714
   77SLPC   H8Y 7035   3.651   2.586   7.643  2.9564 -0.1856  4.2833
   77SLPC   C39 7036   3.511   2.696   7.773  0.5678  0.5112  0.5615
   77SLPC   H9X 7037   3.533   2.629   7.859 -2.0969  1.7447  2.3633
   77SLPC   H9Y 7038   3.414   2.658   7.734  1.2263 -0.6957  0.0393
   77SLPC  C310 7039   3.496   2.835   7.839  0.3774  0.2182 -0.0278
   77SLPC  H10X 7040   3.456   2.901   7.760 -0.1979  0.7118  0.6620
   77SLPC  H10Y 7041   3.595   2.881   7.861 -0.7386  2.4425  0.6263
   77SLPC  C311 7042   3.396   2.853   7.960 -0.4951  0.7524 -0.7183
   77SLPC  H11X 7043   3.439   2.797   8.046 -0.1347 -0.7932 -1.8402
   77SLPC  H11Y 7044   3.309   2.790   7.932  0.4362 -0.8713 -0.1051
   77SLPC  C312 7045   3.352   2.990   8.002  0.1027 -0.7218  0.5190
   77SLPC  H12X 7046   3.277   3.025   7.928  3.3877  1.5296 -2.0456
   77SLPC  H12Y 7047   3.441   3.057   7.999  0.5314 -1.2948  0.2543
   77SLPC  C313 7048   3.286   2.995   8.142 -0.9888 -0.1506 -0.4441
   77SLPC  H13X 7049   3.255   3.097   8.171 -0.2075 -0.2611  0.8600
   77SLPC  H13Y 7050   3.360   2.956   8.216  0.5531  0.8634 -1.3765
   77SLPC  C314 7051   3.155   2.911   8.155 -0.1190 -0.5007  0.6611
   77SLPC  H14X 7052   3.180   2.806   8.129  2.4355 -0.0389  1.0111
   77SLPC  H14Y 7053   3.080   2.946   8.081  1.3363 -0.7710 -1.0327
   77SLPC  C315 7054   3.088   2.921   8.285 -0.7106  0.2512 -0.2681
   77SLPC  H15X 7055   3.075   3.029   8.309 -0.0458  0.8945 -2.5636
   77SLPC  H15Y 7056   3.161   2.878   8.357 -0.7663 -1.0200 -0.9493
   77SLPC  C316 7057   2.960   2.836   8.303  0.0811  0.2514 -0.2527
   77SLPC  H16X 7058   2.994   2.737   8.264  2.3506  0.8669  0.0096
   77SLPC  H16Y 7059   2.873   2.878   8.248 -0.4842  2.2575  2.0461
   77SLPC  C317 7060   2.917   2.850   8.443  0.3368  0.3500  0.1580
   77SLPC  H17X 7061   2.895   2.958   8.459  0.1968  0.1531  1.3506
   77SLPC  H17Y 7062   2.997   2.811   8.509  1.2874  1.6602 -0.1802
   77SLPC  C318 7063   2.782   2.777   8.465  0.0815 -0.9461 -0.0349
   77SLPC  H18X 7064   2.771   2.729   8.565  1.3501 -2.4574 -0.5779
   77SLPC  H18Y 7065   2.789   2.690   8.396  0.8454  0.1124 -1.3527
   77SLPC  H18Z 7066   2.696   2.839   8.431  0.2281 -0.8140 -0.1647
   78SLPC     N 7067   3.010   3.959   6.210 -0.3950 -0.2794 -0.7473
   78SLPC   C13 7068   2.957   3.881   6.327 -0.0786  0.2417 -0.3618
   78SLPC  H13A 7069   3.001   3.908   6.422 -1.4859 -0.6245  0.5750
   78SLPC  H13B 7070   2.853   3.900   6.348 -0.0556 -1.2677  1.4852
   78SLPC  H13C 7071   2.966   3.774   6.311  0.2921  0.2279 -0.0763
   78SLPC   C14 7072   2.965   3.904   6.074 -0.3372  0.1194 -0.9028
   78SLPC  H14A 7073   2.994   3.801   6.063  1.3039  0.5327 -0.7470
   78SLPC  H14B 7074   2.859   3.917   6.060 -0.3424 -0.2582 -1.2261
   78SLPC  H14C 7075   3.016   3.953   5.993  1.1164 -1.3007 -0.9047
   78SLPC   C15 7076   3.157   3.943   6.219  0.3291  0.3057  0.2232
   78SLPC  H15A 7077   3.197   3.961   6.318  0.1951 -0.7769  0.4866
   78SLPC  H15B 7078   3.189   3.841   6.204  2.9157  0.5756  2.8336
   78SLPC  H15C 7079   3.205   3.996   6.138 -0.2071  0.7068  0.1689
   78SLPC   C12 7080   2.967   4.100   6.227  0.1157  0.0386  0.2038
   78SLPC  H12A 7081   2.999   4.134   6.324  0.1435  0.8297 -0.0783
   78SLPC  H12B 7082   2.860   4.112   6.222  0.0542 -0.7268 -0.4547
   78SLPC   C11 7083   3.036   4.206   6.126 -0.1987 -0.2166  0.7876
   78SLPC  H11A 7084   2.980   4.297   6.157  0.6668  0.3922  0.6162
   78SLPC  H11B 7085   3.017   4.177   6.021  1.0875 -0.8404  0.7151
   78SLPC     P 7086   3.239   4.328   6.252  0.1292  0.1418  0.1240
   78SLPC   O13 7087   3.373   4.285   6.289 -0.1918  0.4847 -0.8621
   78SLPC   O14 7088   3.221   4.467   6.200 -0.2082  0.1385  0.5481
   78SLPC   O12 7089   3.176   4.225   6.145 -0.1003 -0.5316 -0.5990
   78SLPC   O11 7090   3.149   4.309   6.378 -0.0878 -0.8614  0.5438
   78SLPC    C1 7091   3.042   4.392   6.414 -0.4801  0.3112 -0.0739
   78SLPC    HA 7092   2.995   4.443   6.327  0.3373 -0.8951 -1.2655
   78SLPC    HB 7093   2.975   4.331   6.478  0.8639 -0.0183  1.0924
   78SLPC    C2 7094   3.097   4.505   6.510  0.2103 -0.0109  0.4665
   78SLPC    HS 7095   3.156   4.576   6.449 -0.2664  1.1188  1.2874
   78SLPC   O21 7096   3.176   4.451   6.619  0.4092 -0.9578 -0.0707
   78SLPC   C21 7097   3.235   4.550   6.689 -0.8849 -0.0737  0.3363
   78SLPC   O22 7098   3.242   4.665   6.664 -0.5959 -0.0375  0.4087
   78SLPC   C22 7099   3.297   4.484   6.822  0.2019  0.5085  0.2161
   78SLPC   H2R 7100   3.254   4.547   6.902 -0.5569 -0.6680  0.7705
   78SLPC   H2S 7101   3.247   4.388   6.849 -1.8031  1.1091 -1.0786
   78SLPC    C3 7102   2.976   4.603   6.562 -0.3619 -0.3998  0.9286
   78SLPC    HX 7103   2.938   4.643   6.466  0.3769  0.7076  1.0840
   78SLPC    HY 7104   3.013   4.688   6.622  1.1453 -0.0197 -0.4786
   78SLPC   O31 7105   2.873   4.522   6.622  0.4760  0.5311  0.1807
   78SLPC   C31 7106   2.877   4.527   6.759  0.4019 -0.1749  0.5908
   78SLPC   O32 7107   2.954   4.595   6.824 -0.2070  0.4387 -0.6507
   78SLPC   C32 7108   2.773   4.432   6.811 -0.3737  0.0458 -0.6386
   78SLPC   H2X 7109   2.826   4.335   6.822 -0.9841 -0.5605 -2.5531
   78SLPC   H2Y 7110   2.682   4.424   6.748 -1.9762 -1.2476  1.6710
   78SLPC   C23 7111   3.448   4.476   6.837  0.0049 -0.3660  0.0759
   78SLPC   H3R 7112   3.498   4.540   6.761 -0.6444  1.1172  0.8621
   78SLPC   H3S 7113   3.472   4.370   6.813  1.3571 -0.1876  0.5227
   78SLPC   C24 7114   3.505   4.526   6.970  0.1985 -0.7824 -0.7744
   78SLPC   H4R 7115   3.449   4.615   7.006  0.2282 -0.7087 -0.9099
   78SLPC   H4S 7116   3.613   4.551   6.966 -0.0689  0.5203 -0.2845
   78SLPC   C25 7117   3.488   4.414   7.076 -0.8337  0.1841  0.1075
   78SLPC   H5R 7118   3.556   4.334   7.038  0.3228 -0.0159  2.4227
   78SLPC   H5S 7119   3.385   4.374   7.090  0.3193 -2.5120  1.7429
   78SLPC   C26 7120   3.530   4.458   7.219 -0.5711  0.3403  0.3264
   78SLPC   H6R 7121   3.470   4.542   7.260 -0.4213  0.0978  1.0575
   78SLPC   H6S 7122   3.637   4.486   7.214 -0.7937  1.1712 -0.0052
   78SLPC   C27 7123   3.510   4.346   7.321  0.1981  0.0997  0.0734
   78SLPC   H7R 7124   3.586   4.267   7.307 -0.7164 -1.0322  1.2700
   78SLPC   H7S 7125   3.407   4.304   7.313  0.2966 -0.0410 -0.4811
   78SLPC   C28 7126   3.526   4.394   7.467  0.0960 -0.0997  0.1463
   78SLPC   H8R 7127   3.442   4.463   7.487 -1.1038 -0.8740 -1.8598
   78SLPC   H8S 7128   3.627   4.438   7.481 -0.0859 -0.0480  1.3786
   78SLPC   C29 7129   3.517   4.271   7.552 -0.1183 -0.2621 -0.2407
   78SLPC   H9R 7130   3.596   4.194   7.550 -1.2885 -1.5546  0.9559
   78SLPC  C210 7131   3.416   4.238   7.630 -0.2057  0.3794 -0.0378
   78SLPC  H10R 7132   3.436   4.159   7.704  0.2791 -0.6741 -1.2562
   78SLPC  C211 7133   3.295   4.315   7.653 -0.8397  0.2160 -0.0884
   78SLPC  H11R 7134   3.224   4.241   7.697 -1.5717 -0.9537 -2.9882
   78SLPC  H11S 7135   3.244   4.348   7.560  0.4643  0.5573 -0.6990
   78SLPC  C212 7136   3.305   4.433   7.740  0.0812  0.5231 -0.1586
   78SLPC  H12R 7137   3.316   4.525   7.681  1.3202 -0.0230 -0.8244
   78SLPC  C213 7138   3.320   4.433   7.868  0.0619  0.1162 -0.0028
   78SLPC  H13R 7139   3.323   4.533   7.914 -0.4860  0.5090 -0.7892
   78SLPC  C214 7140   3.321   4.313   7.964  0.8142 -0.6143  0.4553
   78SLPC  H14R 7141   3.336   4.222   7.903  1.3665 -0.8166  0.8896
   78SLPC  H14S 7142   3.228   4.305   8.024 -0.3324 -0.9277 -1.3004
   78SLPC  C215 7143   3.445   4.334   8.061  0.0131  0.0933  0.0840
   78SLPC  H15R 7144   3.442   4.430   8.116 -0.4565 -1.1281  2.3218
   78SLPC  H15S 7145   3.533   4.341   7.994  0.4638 -2.5908  0.2719
   78SLPC  C216 7146   3.461   4.216   8.161 -0.3598  0.8279  0.1369
   78SLPC  H16R 7147   3.363   4.206   8.213  1.6103 -1.1381  3.8806
   78SLPC  H16S 7148   3.528   4.258   8.239 -1.0690  0.0885  1.1557
   78SLPC  C217 7149   3.518   4.080   8.112  0.1375  0.3467 -0.0183
   78SLPC  H17R 7150   3.594   4.118   8.040  0.8430  0.9897  1.0544
   78SLPC  H17S 7151   3.436   4.032   8.054  0.1087 -0.2750  0.5232
   78SLPC  C218 7152   3.577   3.985   8.212 -0.3690  0.2396 -0.2916
   78SLPC  H18R 7153   3.686   3.992   8.227 -0.3715 -0.5168  0.1266
   78SLPC  H18S 7154   3.556   3.880   8.183 -0.1004 -0.2854  1.3055
   78SLPC  H18T 7155   3.519   3.999   8.306 -0.1901  2.1516 -0.4271
   78SLPC   C33 7156   2.718   4.499   6.945 -0.2986  0.7679  0.6245
   78SLPC   H3X 7157   2.619   4.454   6.965  0.6500 -1.5004  0.5084
   78SLPC   H3Y 7158   2.702   4.608   6.929  0.4500  0.6617 -0.9878
   78SLPC   C34 7159   2.795   4.468   7.071  0.4174  0.0618 -0.4869
   78SLPC   H4X 7160   2.901   4.497   7.058  0.6126  0.9291  2.3016
   78SLPC   H4Y 7161   2.797   4.357   7.072 -0.9979  0.0062  1.3129
   78SLPC   C35 7162   2.732   4.520   7.199  0.2493  0.2936  0.2556
   78SLPC   H5X 7163   2.623   4.496   7.205  0.6547 -2.2938 -1.1914
   78SLPC   H5Y 7164   2.745   4.630   7.199  0.7680  0.2699  2.4670
   78SLPC   C36 7165   2.800   4.462   7.323 -0.5009 -0.2225  0.9001
   78SLPC   H6X 7166   2.907   4.463   7.293 -0.7594 -0.4125 -0.0573
   78SLPC   H6Y 7167   2.771   4.356   7.339 -1.2495 -0.1206  0.2599
   78SLPC   C37 7168   2.790   4.546   7.447  0.1962  0.2863 -0.8363
   78SLPC   H7X 7169   2.685   4.562   7.477  0.7510  2.5225  0.1027
   78SLPC   H7Y 7170   2.837   4.646   7.439  2.1901 -0.3252  1.6289
   78SLPC   C38 7171   2.860   4.468   7.563  0.4033  0.0440  1.0659
   78SLPC   H8X 7172   2.969   4.477   7.540 -0.0688 -1.4067 -2.3738
   78SLPC   H8Y 7173   2.832   4.361   7.574  0.4167 -0.4195 -2.3782
   78SLPC   C39 7174   2.834   4.530   7.702  0.1724 -0.3057  0.8643
   78SLPC   H9X 7175   2.724   4.520   7.718  0.1688  0.5053  1.4405
   78SLPC   H9Y 7176   2.863   4.638   7.697 -1.0986  0.0661 -3.7375
   78SLPC  C310 7177   2.905   4.465   7.820  1.0939  0.6802  0.7871
   78SLPC  H10X 7178   3.014   4.472   7.798  0.7683  1.1457 -0.7936
   78SLPC  H10Y 7179   2.881   4.358   7.805  0.7976  0.6807  1.2273
   78SLPC  C311 7180   2.863   4.516   7.965  0.0839  0.1949  0.0733
   78SLPC  H11X 7181   2.755   4.541   7.961 -0.1155 -0.5579  0.5680
   78SLPC  H11Y 7182   2.909   4.606   8.010  0.0873 -0.3408  1.1734
   78SLPC  C312 7183   2.876   4.402   8.062 -0.3563 -0.0032 -0.3764
   78SLPC  H12X 7184   2.977   4.354   8.062 -1.5927 -2.8386 -0.4126
   78SLPC  H12Y 7185   2.811   4.318   8.028 -0.4613 -0.4667  0.9180
   78SLPC  C313 7186   2.835   4.445   8.200  0.5584  0.3346  0.0617
   78SLPC  H13X 7187   2.725   4.457   8.207  0.5451  1.0482 -1.0756
   78SLPC  H13Y 7188   2.881   4.542   8.229 -3.0737  2.2691 -0.0840
   78SLPC  C314 7189   2.857   4.332   8.299 -0.3347  0.6291 -0.7322
   78SLPC  H14X 7190   2.812   4.241   8.253 -2.5676  0.8484  0.8400
   78SLPC  H14Y 7191   2.812   4.352   8.398  1.7932 -0.2939  0.4763
   78SLPC  C315 7192   3.005   4.291   8.337  0.0964 -0.5318  0.4434
   78SLPC  H15X 7193   3.064   4.251   8.252 -1.3366  2.0774 -1.9340
   78SLPC  H15Y 7194   2.997   4.220   8.422  0.2905 -0.1115  0.8156
   78SLPC  C316 7195   3.093   4.415   8.391 -0.3194 -0.6175 -1.2741
   78SLPC  H16X 7196   3.018   4.476   8.446 -0.3320 -1.6497 -0.0994
   78SLPC  H16Y 7197   3.111   4.477   8.300  0.5787  2.3361  0.7716
   78SLPC  C317 7198   3.213   4.370   8.473  0.7656 -0.4272  0.0254
   78SLPC  H17X 7199   3.287   4.328   8.401  0.2898 -1.0200 -0.1254
   78SLPC  H17Y 7200   3.190   4.295   8.551  2.9179 -0.7179  0.4390
   78SLPC  C318 7201   3.265   4.496   8.535 -0.5036  0.0600  0.0182
   78SLPC  H18X 7202   3.300   4.580   8.471  1.4991  0.3342  1.3942
   78SLPC  H18Y 7203   3.344   4.473   8.610  0.4761  0.6206 -0.8148
   78SLPC  H18Z 7204   3.178   4.541   8.589 -0.3156  1.2087 -0.5921
   79SLPC     N 7205   1.242   5.841   6.193 -0.1983  0.2112  0.5318
   79SLPC   C13 7206   1.346   5.864   6.089 -0.4507 -0.1103 -0.9029
   79SLPC  H13A 7207   1.413   5.779   6.077 -0.6384 -0.2807 -0.7668
   79SLPC  H13B 7208   1.301   5.886   5.994 -0.5185  0.9928 -0.6256
   79SLPC  H13C 7209   1.409   5.949   6.109  2.2341 -2.2218  0.4544
   79SLPC   C14 7210   1.139   5.755   6.128  0.0206 -0.0113 -0.0477
   79SLPC  H14A 7211   1.177   5.656   6.107 -1.7109 -0.3510 -1.9474
   79SLPC  H14B 7212   1.060   5.734   6.199 -2.5161 -1.7868 -3.0797
   79SLPC  H14C 7213   1.094   5.791   6.037  1.7526 -1.6967 -1.6569
   79SLPC   C15 7214   1.174   5.970   6.228  0.1795 -0.5140  0.2289
   79SLPC  H15A 7215   1.131   6.026   6.146  0.8950 -0.1102  0.1248
   79SLPC  H15B 7216   1.091   5.955   6.296  0.3155  0.1034  0.5429
   79SLPC  H15C 7217   1.232   6.036   6.291 -2.1355  1.3267  0.5794
   79SLPC   C12 7218   1.304   5.770   6.312 -0.8663 -0.2291 -0.0703
   79SLPC  H12A 7219   1.383   5.838   6.340  1.0732 -1.9582 -1.0864
   79SLPC  H12B 7220   1.346   5.679   6.272 -0.5083 -0.0779 -0.0361
   79SLPC   C11 7221   1.219   5.718   6.429  0.7530 -0.4906  0.5778
   79SLPC  H11A 7222   1.141   5.794   6.449  1.2664  0.3171 -0.3751
   79SLPC  H11B 7223   1.293   5.692   6.508  3.0877 -1.2503 -1.6973
   79SLPC     P 7224   1.020   5.562   6.413 -0.1002  0.1142  0.5613
   79SLPC   O13 7225   0.925   5.647   6.345  0.1477  0.2480 -0.6107
   79SLPC   O14 7226   1.000   5.418   6.379 -0.0150 -0.3020 -0.0736
   79SLPC   O12 7227   1.163   5.599   6.378 -0.1875 -0.2951  0.2906
   79SLPC   O11 7228   1.012   5.588   6.567 -0.2889  0.6252 -0.0372
   79SLPC    C1 7229   1.039   5.514   6.688  0.2432  0.2113 -0.1849
   79SLPC    HA 7230   1.143   5.478   6.681 -0.0505 -0.3551 -2.0329
   79SLPC    HB 7231   1.028   5.578   6.778  1.3177  0.6143 -0.3274
   79SLPC    C2 7232   0.942   5.393   6.709  0.3327  0.2357  0.5980
   79SLPC    HS 7233   0.951   5.326   6.620 -0.5482 -1.8270  1.9871
   79SLPC   O21 7234   0.812   5.437   6.725  0.2077  0.1675  0.1455
   79SLPC   C21 7235   0.715   5.343   6.693 -0.6499  0.1187  0.3148
   79SLPC   O22 7236   0.739   5.227   6.662 -0.4540  0.3169 -0.1584
   79SLPC   C22 7237   0.573   5.392   6.717 -0.7760 -0.2039  0.9800
   79SLPC   H2R 7238   0.556   5.436   6.616  0.0210 -2.0700 -0.0143
   79SLPC   H2S 7239   0.508   5.302   6.716  0.5590 -1.1898  0.9179
   79SLPC    C3 7240   0.973   5.311   6.839  0.8269  0.2245  0.2668
   79SLPC    HX 7241   0.897   5.231   6.853 -0.8355  1.4304 -1.4716
   79SLPC    HY 7242   0.957   5.383   6.921 -1.9996 -1.7295  1.6002
   79SLPC   O31 7243   1.106   5.260   6.842  0.6512  0.0480  0.1059
   79SLPC   C31 7244   1.113   5.144   6.783  0.2078  0.1737  0.2652
   79SLPC   O32 7245   1.023   5.085   6.728 -0.0712  0.3885  0.1548
   79SLPC   C32 7246   1.250   5.084   6.807 -0.0671 -0.7541  0.1965
   79SLPC   H2X 7247   1.314   5.166   6.848 -0.9061 -0.6764  1.3815
   79SLPC   H2Y 7248   1.291   5.065   6.705 -0.9911 -1.1020 -0.1149
   79SLPC   C23 7249   0.554   5.470   6.844  0.4639  0.4032 -0.0665
   79SLPC   H3R 7250   0.448   5.502   6.852 -0.4184 -1.3446 -3.0529
   79SLPC   H3S 7251   0.624   5.556   6.843  2.4847 -1.0761 -3.4352
   79SLPC   C24 7252   0.573   5.383   6.968 -0.2202 -0.6673 -0.1715
   79SLPC   H4R 7253   0.679   5.351   6.961 -0.1770 -1.0910  1.8629
   79SLPC   H4S 7254   0.506   5.295   6.976  0.9720 -1.4784  1.4260
   79SLPC   C25 7255   0.556   5.473   7.097 -0.2956 -0.1290  0.1758
   79SLPC   H5R 7256   0.451   5.492   7.127 -0.1484 -1.0053  1.3031
   79SLPC   H5S 7257   0.612   5.565   7.071  1.3253 -1.4405 -1.2797
   79SLPC   C26 7258   0.627   5.403   7.221 -0.1995 -0.2923 -0.5003
   79SLPC   H6R 7259   0.636   5.482   7.298  0.2400  2.3250 -3.0601
   79SLPC   H6S 7260   0.722   5.359   7.183 -0.0874  0.1733 -0.7764
   79SLPC   C27 7261   0.546   5.294   7.283 -0.0295  0.4704 -0.3282
   79SLPC   H7R 7262   0.535   5.206   7.217  0.7735  0.6792 -0.7437
   79SLPC   H7S 7263   0.442   5.331   7.297 -0.3549 -0.6672  0.4760
   79SLPC   C28 7264   0.614   5.247   7.413  0.4830 -0.2545 -0.3152
   79SLPC   H8R 7265   0.657   5.335   7.467  1.2914 -0.8588  0.0508
   79SLPC   H8S 7266   0.704   5.187   7.387  2.3708  1.3656  2.0067
   79SLPC   C29 7267   0.515   5.162   7.493  0.5256 -0.6212 -0.8470
   79SLPC   H9R 7268   0.436   5.118   7.430 -1.0713 -0.1573  0.7541
   79SLPC  C210 7269   0.517   5.137   7.629 -0.1127  0.0211  0.1179
   79SLPC  H10R 7270   0.436   5.080   7.676  0.1701  0.4185  1.1118
   79SLPC  C211 7271   0.620   5.185   7.731 -0.0075  0.4763  0.2441
   79SLPC  H11R 7272   0.701   5.243   7.682  0.2363  0.0318  0.1129
   79SLPC  H11S 7273   0.670   5.094   7.772 -0.5005 -0.6609 -1.5221
   79SLPC  C212 7274   0.545   5.248   7.842  0.0437 -0.2704  0.2068
   79SLPC  H12R 7275   0.445   5.286   7.815  0.0279 -0.6373 -0.2425
   79SLPC  C213 7276   0.588   5.286   7.958  0.8320 -0.6047  0.5132
   79SLPC  H13R 7277   0.515   5.335   8.024 -0.7624 -1.3824 -0.5974
   79SLPC  C214 7278   0.726   5.278   8.021  0.3343  0.3156  0.5455
   79SLPC  H14R 7279   0.752   5.377   8.065 -1.8023  1.6907 -1.0850
   79SLPC  H14S 7280   0.805   5.259   7.944  1.9427  1.5599  1.8148
   79SLPC  C215 7281   0.733   5.160   8.126  0.0817 -0.0859 -0.2414
   79SLPC  H15R 7282   0.838   5.148   8.162  0.2253  1.1185 -0.2172
   79SLPC  H15S 7283   0.729   5.060   8.077 -2.5876 -1.1714  1.9399
   79SLPC  C216 7284   0.628   5.157   8.240 -0.4208 -0.3705  0.9530
   79SLPC  H16R 7285   0.620   5.058   8.289  1.7329 -1.5578 -0.9660
   79SLPC  H16S 7286   0.525   5.182   8.206 -0.5449 -1.0218  0.8371
   79SLPC  C217 7287   0.670   5.266   8.349 -0.3929  0.5172  0.7465
   79SLPC  H17R 7288   0.680   5.363   8.296 -0.5033  0.3824  0.4783
   79SLPC  H17S 7289   0.772   5.238   8.383  0.0440 -1.1604 -1.7722
   79SLPC  C218 7290   0.582   5.279   8.476 -0.3472 -0.1741  0.5086
   79SLPC  H18R 7291   0.556   5.177   8.512 -1.4147 -0.9413 -2.1951
   79SLPC  H18S 7292   0.483   5.315   8.442  0.0531 -0.6374 -1.2719
   79SLPC  H18T 7293   0.622   5.347   8.554 -1.8193 -0.5397  1.6320
   79SLPC   C33 7294   1.253   4.949   6.884 -1.0931 -1.3859  0.0078
   79SLPC   H3X 7295   1.346   4.907   6.842  0.3372  0.1611  1.5050
   79SLPC   H3Y 7296   1.164   4.885   6.866 -3.5398  0.5268  3.8243
   79SLPC   C34 7297   1.283   4.967   7.041  0.9706 -0.1800 -0.6262
   79SLPC   H4X 7298   1.193   5.000   7.098  1.4062 -0.9211  0.5201
   79SLPC   H4Y 7299   1.358   5.046   7.062  0.4914  0.2761 -0.5917
   79SLPC   C35 7300   1.326   4.839   7.106 -0.1941  0.8487  0.2788
   79SLPC   H5X 7301   1.425   4.813   7.062  0.0450  3.2757 -0.7967
   79SLPC   H5Y 7302   1.249   4.767   7.073  1.3295 -0.5661 -0.3352
   79SLPC   C36 7303   1.361   4.835   7.258  0.8008 -0.0101  0.6170
   79SLPC   H6X 7304   1.422   4.923   7.286  1.3448 -0.1414 -0.1200
   79SLPC   H6Y 7305   1.430   4.748   7.270  2.8600  1.7571  2.6218
   79SLPC   C37 7306   1.250   4.790   7.352  0.1360 -0.1034 -0.3332
   79SLPC   H7X 7307   1.182   4.720   7.299 -0.2678 -0.1223  0.1979
   79SLPC   H7Y 7308   1.180   4.870   7.386 -0.2379 -0.5952  0.0721
   79SLPC   C38 7309   1.300   4.722   7.484  0.7677 -0.6577  0.0138
   79SLPC   H8X 7310   1.390   4.775   7.522  0.2137 -0.6018  1.3156
   79SLPC   H8Y 7311   1.311   4.613   7.471 -0.9092 -0.9061  0.4141
   79SLPC   C39 7312   1.200   4.734   7.601 -0.5029  0.1346  0.3398
   79SLPC   H9X 7313   1.109   4.685   7.561  0.4310 -2.3221  1.0479
   79SLPC   H9Y 7314   1.175   4.838   7.630 -3.7440 -1.0305  2.3101
   79SLPC  C310 7315   1.244   4.648   7.717 -0.0956 -0.0885 -0.8709
   79SLPC  H10X 7316   1.332   4.589   7.683 -0.9908 -1.6528 -0.5950
   79SLPC  H10Y 7317   1.152   4.591   7.745  0.0883 -0.0032 -0.0726
   79SLPC  C311 7318   1.256   4.721   7.854 -0.0424 -0.5220  0.0194
   79SLPC  H11X 7319   1.158   4.749   7.898  0.1702  1.0504 -0.4527
   79SLPC  H11Y 7320   1.299   4.815   7.811  0.3901 -2.0997 -3.3412
   79SLPC  C312 7321   1.349   4.658   7.956 -0.3645  0.2472 -0.2515
   79SLPC  H12X 7322   1.351   4.728   8.043 -0.2378  2.1634 -1.7398
   79SLPC  H12Y 7323   1.453   4.650   7.917 -0.1918  2.3956 -0.3453
   79SLPC  C313 7324   1.298   4.521   8.010  0.4513 -0.2002 -0.0887
   79SLPC  H13X 7325   1.259   4.460   7.926  1.1444  1.4107 -1.6542
   79SLPC  H13Y 7326   1.211   4.557   8.069  1.1935 -0.8577  1.4648
   79SLPC  C314 7327   1.393   4.450   8.107  0.0581  0.3526  0.3864
   79SLPC  H14X 7328   1.429   4.537   8.165 -0.4404  1.3639 -0.7838
   79SLPC  H14Y 7329   1.472   4.401   8.045 -0.8317 -0.2068 -0.3341
   79SLPC  C315 7330   1.322   4.353   8.196  0.6357  0.1676 -0.6845
   79SLPC  H15X 7331   1.382   4.292   8.267 -5.2911 -1.5360  3.7072
   79SLPC  H15Y 7332   1.253   4.286   8.140 -0.3826  0.8460 -0.2849
   79SLPC  C316 7333   1.211   4.418   8.290 -0.4729  0.0049  0.0202
   79SLPC  H16X 7334   1.118   4.446   8.236 -1.0426  1.1762  1.4987
   79SLPC  H16Y 7335   1.251   4.511   8.337  2.1005 -2.0273  2.1916
   79SLPC  C317 7336   1.172   4.324   8.401 -0.1388 -0.0581 -0.6299
   79SLPC  H17X 7337   1.249   4.316   8.480  1.5438  0.3995 -2.1498
   79SLPC  H17Y 7338   1.167   4.224   8.352 -2.4550 -0.8521  1.0766
   79SLPC  C318 7339   1.044   4.355   8.473  0.3019  0.2673 -0.1283
   79SLPC  H18X 7340   1.002   4.457   8.464 -0.9902 -0.1690  0.6102
   79SLPC  H18Y 7341   1.057   4.332   8.581  1.3466 -2.3908 -0.7368
   79SLPC  H18Z 7342   0.957   4.294   8.439 -1.1504  3.2804 -2.3198
   80SLPC     N 7343   2.606   4.396   6.144  0.4672 -0.2518  0.1434
   80SLPC   C13 7344   2.718   4.492   6.131 -0.3000 -0.4365  0.3487
   80SLPC  H13A 7345   2.718   4.568   6.208 -0.7282 -1.4619  1.3803
   80SLPC  H13B 7346   2.812   4.439   6.126 -0.5838 -0.9817  0.7555
   80SLPC  H13C 7347   2.714   4.540   6.034  0.4805 -1.3861 -0.1802
   80SLPC   C14 7348   2.650   4.276   6.067 -0.4623 -0.8580  0.8793
   80SLPC  H14A 7349   2.680   4.304   5.967 -0.5073 -0.4824  0.9713
   80SLPC  H14B 7350   2.735   4.222   6.106  0.9603 -0.5941 -1.6218
   80SLPC  H14C 7351   2.577   4.197   6.059 -1.1448 -0.0757 -1.3361
   80SLPC   C15 7352   2.478   4.446   6.081  0.0601  0.1311  0.0737
   80SLPC  H15A 7353   2.399   4.373   6.094  0.7908 -0.8319 -0.6822
   80SLPC  H15B 7354   2.451   4.540   6.126 -0.2860 -0.2807  0.7501
   80SLPC  H15C 7355   2.488   4.465   5.975  0.2285  0.2698  0.1158
   80SLPC   C12 7356   2.577   4.351   6.283  0.2359 -0.5464  0.6718
   80SLPC  H12A 7357   2.494   4.282   6.282  0.8961 -1.4352  2.4562
   80SLPC  H12B 7358   2.551   4.443   6.333 -0.6917  0.4092 -1.4875
   80SLPC   C11 7359   2.687   4.281   6.371 -0.1918  0.4179 -0.0137
   80SLPC  H11A 7360   2.652   4.273   6.477  1.1256 -1.2393  0.3326
   80SLPC  H11B 7361   2.779   4.343   6.370  0.8640 -1.1036 -2.0200
   80SLPC     P 7362   2.607   4.034   6.365 -0.6381  0.0887  0.0226
   80SLPC   O13 7363   2.482   4.065   6.292  0.4672  0.3431  0.1145
   80SLPC   O14 7364   2.668   3.903   6.338 -0.0996 -0.3914 -0.3659
   80SLPC   O12 7365   2.714   4.147   6.328  0.0110 -0.5331  0.4148
   80SLPC   O11 7366   2.577   4.045   6.517  0.5817 -0.9504 -0.2895
   80SLPC    C1 7367   2.682   4.054   6.620 -0.5485  1.3930  0.8196
   80SLPC    HA 7368   2.782   4.090   6.587  0.6207 -0.4029  2.1973
   80SLPC    HB 7369   2.654   4.140   6.683  0.1733  0.7056  2.1105
   80SLPC    C2 7370   2.685   3.914   6.698 -0.1178 -0.8146 -0.1091
   80SLPC    HS 7371   2.718   3.831   6.631  2.4168 -0.1154  0.1898
   80SLPC   O21 7372   2.553   3.894   6.754 -0.4151  0.0073  0.1680
   80SLPC   C21 7373   2.501   3.773   6.731  0.7064  0.5056 -0.2872
   80SLPC   O22 7374   2.555   3.691   6.662  0.0317  0.0178  0.3893
   80SLPC   C22 7375   2.386   3.743   6.825  0.1347 -0.3399  0.1485
   80SLPC   H2R 7376   2.333   3.831   6.866  1.5180  0.0080  1.2610
   80SLPC   H2S 7377   2.322   3.698   6.746  2.4045 -0.6624 -1.6383
   80SLPC    C3 7378   2.780   3.924   6.819 -0.4941  0.2172 -0.5699
   80SLPC    HX 7379   2.744   4.003   6.889 -1.4563 -1.7874  1.3067
   80SLPC    HY 7380   2.876   3.964   6.780 -0.0251 -0.3592 -0.0258
   80SLPC   O31 7381   2.800   3.805   6.894  0.4855  0.5078 -0.0847
   80SLPC   C31 7382   2.877   3.714   6.829 -0.2512 -0.3444 -0.3445
   80SLPC   O32 7383   2.949   3.741   6.739  0.0809 -0.1268  0.6063
   80SLPC   C32 7384   2.868   3.573   6.888 -0.1458 -0.8510 -0.4103
   80SLPC   H2X 7385   2.800   3.524   6.815 -0.4973  0.0138 -0.6701
   80SLPC   H2Y 7386   2.801   3.572   6.977 -1.3375 -0.6723 -1.2866
   80SLPC   C23 7387   2.432   3.630   6.927 -0.2347 -0.7429  0.4900
   80SLPC   H3R 7388   2.528   3.584   6.896 -0.4354 -1.5957  1.0799
   80SLPC   H3S 7389   2.363   3.545   6.946  1.2940 -2.2007 -0.2230
   80SLPC   C24 7390   2.459   3.700   7.065  0.0058  0.3363  0.6137
   80SLPC   H4R 7391   2.359   3.715   7.110 -0.4228 -0.1330 -0.1669
   80SLPC   H4S 7392   2.507   3.798   7.045  0.7656  0.0441  0.9610
   80SLPC   C25 7393   2.541   3.610   7.158  0.0909 -0.2669  0.3822
   80SLPC   H5R 7394   2.646   3.616   7.124  0.0086  0.2966  0.2132
   80SLPC   H5S 7395   2.497   3.508   7.168  1.4317 -1.1019 -1.5976
   80SLPC   C26 7396   2.548   3.660   7.296  0.5692 -1.0844 -0.4245
   80SLPC   H6R 7397   2.570   3.768   7.285 -1.6790 -0.6811 -1.3677
   80SLPC   H6S 7398   2.629   3.617   7.359  0.8502  1.0137  0.7555
   80SLPC   C27 7399   2.421   3.658   7.382 -0.8698  0.2290  0.2439
   80SLPC   H7R 7400   2.377   3.557   7.398 -1.9311  0.5119 -0.7793
   80SLPC   H7S 7401   2.334   3.702   7.329 -0.4701  0.1280 -0.5069
   80SLPC   C28 7402   2.441   3.721   7.525 -0.6855 -0.1113  0.0058
   80SLPC   H8R 7403   2.336   3.725   7.560 -0.8857  0.7368 -0.6501
   80SLPC   H8S 7404   2.483   3.823   7.509 -1.0576 -0.3175 -2.9739
   80SLPC   C29 7405   2.520   3.640   7.619 -0.0021  0.4448 -0.1612
   80SLPC   H9R 7406   2.608   3.590   7.578  1.4957  0.5888  2.6032
   80SLPC  C210 7407   2.499   3.631   7.753 -0.9147 -0.2146  0.1784
   80SLPC  H10R 7408   2.577   3.570   7.802  1.9107  1.4474 -1.9467
   80SLPC  C211 7409   2.395   3.695   7.834 -0.4734  0.2100  0.1545
   80SLPC  H11R 7410   2.346   3.606   7.879  0.8129 -0.6925 -0.2163
   80SLPC  H11S 7411   2.319   3.743   7.768  0.4197 -0.6779 -1.5856
   80SLPC  C212 7412   2.427   3.797   7.937 -0.0177  1.2005 -0.4058
   80SLPC  H12R 7413   2.412   3.903   7.910  1.7402  1.9152  1.1631
   80SLPC  C213 7414   2.495   3.759   8.048 -0.0611  0.4111 -1.0791
   80SLPC  H13R 7415   2.527   3.841   8.114 -1.0296 -0.7108  0.8782
   80SLPC  C214 7416   2.544   3.622   8.090  0.2061 -0.2942  0.1649
   80SLPC  H14R 7417   2.652   3.605   8.073  0.0497 -1.2773  0.0475
   80SLPC  H14S 7418   2.495   3.541   8.032  1.2439  0.2295 -1.5114
   80SLPC  C215 7419   2.521   3.583   8.238  1.0686  0.1380  1.0846
   80SLPC  H15R 7420   2.415   3.560   8.259  0.0998  1.5906 -1.7096
   80SLPC  H15S 7421   2.555   3.667   8.303  1.2291 -0.4356  1.7563
   80SLPC  C216 7422   2.604   3.458   8.278  0.6884 -0.1037 -0.3007
   80SLPC  H16R 7423   2.630   3.389   8.194 -0.0582  0.1727 -0.7741
   80SLPC  H16S 7424   2.552   3.405   8.360  1.9126 -1.9763 -0.6768
   80SLPC  C217 7425   2.736   3.501   8.341 -0.2242 -0.2793  0.1094
   80SLPC  H17R 7426   2.750   3.428   8.424 -1.7737 -0.2303  0.4521
   80SLPC  H17S 7427   2.729   3.600   8.390  3.6143  0.4426 -0.5043
   80SLPC  C218 7428   2.855   3.499   8.246  0.6749 -0.0879 -0.0274
   80SLPC  H18R 7429   2.941   3.551   8.293  0.6573  0.0668 -0.1628
   80SLPC  H18S 7430   2.841   3.549   8.147  1.9035  1.3370  0.4872
   80SLPC  H18T 7431   2.889   3.397   8.217  1.8237  0.4204 -0.5203
   80SLPC   C33 7432   2.996   3.505   6.921 -0.0980  0.0090  0.0928
   80SLPC   H3X 7433   3.060   3.502   6.830 -1.3223 -0.9412 -0.7667
   80SLPC   H3Y 7434   2.984   3.398   6.947 -0.1362  0.2287  1.0053
   80SLPC   C34 7435   3.079   3.577   7.027  0.3058 -0.3378 -0.0319
   80SLPC   H4X 7436   3.087   3.687   7.014  0.9347 -0.4609 -0.7889
   80SLPC   H4Y 7437   3.183   3.536   7.022  0.2319 -0.4106 -1.1636
   80SLPC   C35 7438   3.012   3.546   7.160 -0.0402  0.0319 -0.3767
   80SLPC   H5X 7439   2.980   3.439   7.155 -0.2892  0.0645  0.4396
   80SLPC   H5Y 7440   2.925   3.613   7.175 -0.2543 -0.2083 -0.5480
   80SLPC   C36 7441   3.099   3.558   7.287 -0.3827  0.1445 -0.2098
   80SLPC   H6X 7442   3.133   3.664   7.295 -1.5864  0.6549 -1.2880
   80SLPC   H6Y 7443   3.189   3.494   7.285 -0.7637 -0.4086  0.3158
   80SLPC   C37 7444   3.026   3.529   7.421 -0.0492 -0.3539  0.0995
   80SLPC   H7X 7445   2.940   3.599   7.425  0.3033  0.1788 -1.0892
   80SLPC   H7Y 7446   3.091   3.553   7.507  0.6961  0.9265 -0.7765
   80SLPC   C38 7447   2.976   3.388   7.435 -0.1693 -0.4405  0.6004
   80SLPC   H8X 7448   3.066   3.324   7.448  1.1510  0.4711 -2.9894
   80SLPC   H8Y 7449   2.942   3.349   7.337  0.9288 -0.8516  0.3775
   80SLPC   C39 7450   2.865   3.363   7.538  0.1154  0.3892 -0.3086
   80SLPC   H9X 7451   2.802   3.278   7.507 -1.5535  0.9604  1.2998
   80SLPC   H9Y 7452   2.804   3.455   7.549  0.6190  0.5958  0.9617
   80SLPC  C310 7453   2.914   3.326   7.677 -0.0195 -0.2826  0.5710
   80SLPC  H10X 7454   3.000   3.396   7.689  1.2980 -1.5925 -0.8323
   80SLPC  H10Y 7455   2.953   3.222   7.668 -0.2836 -0.1863 -3.2086
   80SLPC  C311 7456   2.806   3.350   7.787  0.0337 -0.1946  0.4653
   80SLPC  H11X 7457   2.714   3.296   7.756 -1.4468  1.7077  1.3195
   80SLPC  H11Y 7458   2.765   3.453   7.779 -1.6869 -0.8009  0.8514
   80SLPC  C312 7459   2.843   3.322   7.935 -0.5623 -0.6100  0.8222
   80SLPC  H12X 7460   2.758   3.353   8.000 -1.1936  0.5730 -0.5346
   80SLPC  H12Y 7461   2.921   3.394   7.968  0.8443 -1.7843  0.1511
   80SLPC  C313 7462   2.890   3.173   7.975 -0.4742 -0.2014 -0.3307
   80SLPC  H13X 7463   2.903   3.176   8.085 -0.3047  0.2497 -0.3594
   80SLPC  H13Y 7464   2.993   3.155   7.936 -0.7116  1.1584 -1.6678
   80SLPC  C314 7465   2.793   3.069   7.923 -0.2892  0.2025 -0.0001
   80SLPC  H14X 7466   2.834   2.966   7.926 -0.9348 -0.0395  1.2375
   80SLPC  H14Y 7467   2.780   3.090   7.815 -2.8077 -1.2814 -0.0763
   80SLPC  C315 7468   2.659   3.066   7.999 -0.5580  0.1807 -0.3691
   80SLPC  H15X 7469   2.608   3.164   7.990 -2.0754 -0.3911  1.2611
   80SLPC  H15Y 7470   2.661   3.055   8.110 -2.5679 -0.7379 -0.3721
   80SLPC  C316 7471   2.565   2.947   7.949 -1.0966 -0.7345 -0.3066
   80SLPC  H16X 7472   2.545   2.969   7.842  0.3240  0.3147 -0.3797
   80SLPC  H16Y 7473   2.482   2.965   8.020 -1.9919  0.9074 -1.7098
   80SLPC  C317 7474   2.630   2.812   7.990 -0.4147 -0.8337 -0.0526
   80SLPC  H17X 7475   2.658   2.814   8.097 -0.8931  2.6696  0.1209
   80SLPC  H17Y 7476   2.718   2.793   7.924 -0.9390 -0.8762 -0.7526
   80SLPC  C318 7477   2.529   2.697   7.959  0.3289 -0.3094 -0.3859
   80SLPC  H18X 7478   2.501   2.722   7.855  1.5503 -1.2674 -0.9780
   80SLPC  H18Y 7479   2.440   2.707   8.025 -0.5428 -2.0906 -1.2210
   80SLPC  H18Z 7480   2.576   2.596   7.970  2.0836  0.4549 -0.4390
   81SAPS     N 7481   4.748   6.106  10.778  0.4816  0.7655  0.5423
   81SAPS   HN1 7482   4.784   6.008  10.777 -3.7655 -1.0190  0.5751
   81SAPS   HN2 7483   4.664   6.109  10.717  1.2500  0.9212 -0.5449
   81SAPS   HN3 7484   4.817   6.166  10.729  1.3944 -0.3701  0.4050
   81SAPS   C12 7485   4.728   6.142  10.914  0.0104  0.1415  0.5390
   81SAPS  H12A 7486   4.639   6.098  10.954 -1.0683  1.5820 -0.1883
   81SAPS   C13 7487   4.853   6.094  10.994 -0.1312 -0.1775  0.4555
   81SAPS  O13A 7488   4.943   6.030  10.935 -0.2141 -0.5410  0.3667
   81SAPS  O13B 7489   4.857   6.100  11.123 -0.1715  0.0723 -0.4944
   81SAPS   C11 7490   4.722   6.297  10.920  0.0829  0.1485 -0.5719
   81SAPS  H11A 7491   4.726   6.334  11.025 -2.4868 -1.0392  0.0329
   81SAPS  H11B 7492   4.624   6.332  10.881 -0.4070 -0.9260 -0.3411
   81SAPS     P 7493   4.888   6.494  10.871 -0.0922  0.1281 -0.3600
   81SAPS   O13 7494   4.898   6.517  11.022  0.0995  0.3687  0.2704
   81SAPS   O14 7495   5.015   6.499  10.790 -0.2653 -0.1339 -0.7270
   81SAPS   O12 7496   4.826   6.356  10.851 -0.5453  0.4127  0.2080
   81SAPS   O11 7497   4.785   6.593  10.804  0.3053  0.1012 -0.2516
   81SAPS    C1 7498   4.740   6.550  10.677  0.0343  0.4549  1.0202
   81SAPS    HA 7499   4.729   6.439  10.670  0.9439  0.3925  0.2147
   81SAPS    HB 7500   4.638   6.587  10.655  0.8406  1.3275 -1.7441
   81SAPS    C2 7501   4.832   6.600  10.562  0.0934 -0.5925 -0.1463
   81SAPS    HS 7502   4.930   6.550  10.578  0.1067 -0.2501  0.8999
   81SAPS   O21 7503   4.839   6.743  10.568  0.3714  0.2195  0.1752
   81SAPS   C21 7504   4.964   6.791  10.585 -0.1365  0.2072  0.4106
   81SAPS   O22 7505   5.067   6.722  10.587 -0.1102 -0.0659  0.4451
   81SAPS   C22 7506   4.964   6.944  10.594 -0.2133 -0.4608  0.6451
   81SAPS   H2R 7507   4.892   6.969  10.675 -0.3285  0.6158  0.2170
   81SAPS   H2S 7508   5.063   6.980  10.629 -0.3544  0.1779  0.3982
   81SAPS    C3 7509   4.786   6.562  10.418 -0.3864 -0.3782 -0.2548
   81SAPS    HX 7510   4.709   6.641  10.403  0.0104  0.4528  1.8255
   81SAPS    HY 7511   4.723   6.471  10.403 -1.1537  0.4838 -2.8427
   81SAPS   O31 7512   4.889   6.588  10.318 -0.2955  0.2932 -0.1741
   81SAPS   C31 7513   4.951   6.479  10.280  0.2424  0.1551 -0.1906
   81SAPS   O32 7514   4.930   6.363  10.317  0.1533  0.0416 -0.5750
   81SAPS   C32 7515   5.056   6.513  10.178 -0.3859  0.1374  0.1963
   81SAPS   H2X 7516   5.102   6.612  10.199  0.3710 -0.4192  1.2425
   81SAPS   H2Y 7517   4.993   6.523  10.087 -1.8775 -3.1078  0.7401
   81SAPS   C23 7518   4.946   7.026  10.467  0.5405 -0.2171 -0.2622
   81SAPS   H3R 7519   4.921   7.127  10.507  0.5591  0.0173 -0.8371
   81SAPS   H3S 7520   4.859   6.986  10.412 -1.2543  1.5527  1.1101
   81SAPS   C24 7521   5.076   7.027  10.381  0.0458  0.5277 -0.2031
   81SAPS   H4R 7522   5.108   6.921  10.376  1.3453  0.7270  2.2999
   81SAPS   H4S 7523   5.152   7.087  10.435  1.0134  0.2804 -1.2682
   81SAPS   C25 7524   5.054   7.096  10.245  0.3409  0.7622  0.2021
   81SAPS   H5R 7525   5.037   7.204  10.231  1.8734  1.0330  0.3162
   81SAPS   C26 7526   5.038   7.027  10.128 -0.3180 -0.1141  0.1376
   81SAPS   H6R 7527   5.021   7.077  10.032  2.4826 -0.5498 -0.6923
   81SAPS   C27 7528   5.039   6.876  10.104  0.1191 -0.1327 -0.1959
   81SAPS   H7R 7529   5.071   6.811  10.188 -0.9396  1.9736  1.9657
   81SAPS   H7S 7530   5.110   6.862  10.020  0.0521 -1.1074 -0.1018
   81SAPS   C28 7531   4.906   6.815  10.063  0.1025 -0.3529  0.0828
   81SAPS   H8R 7532   4.861   6.751  10.141  0.7252 -2.3341 -1.1187
   81SAPS   C29 7533   4.832   6.824   9.949 -0.0465  0.0482 -0.5181
   81SAPS   H9R 7534   4.738   6.767   9.949  0.4718 -0.9210 -2.9168
   81SAPS  C210 7535   4.882   6.900   9.825  0.0865  0.0523 -0.5755
   81SAPS  H10R 7536   4.970   6.965   9.845 -0.0212 -0.4320  1.7623
   81SAPS  H10S 7537   4.808   6.976   9.793  0.8413  1.1177  0.1295
   81SAPS  C211 7538   4.900   6.799   9.718 -0.2829  0.1618 -0.2122
   81SAPS  H11R 7539   4.915   6.697   9.756 -0.9988 -0.2625 -1.0427
   81SAPS  C212 7540   4.915   6.824   9.585  0.4284  0.3921 -0.0275
   81SAPS  H12R 7541   4.941   6.749   9.509 -0.3371  0.0681  0.0129
   81SAPS  C213 7542   4.919   6.968   9.539 -0.3356 -0.7156  0.3812
   81SAPS  H13R 7543   4.922   7.046   9.619 -1.5755  1.5000 -1.6119
   81SAPS  H13S 7544   4.829   6.986   9.476 -0.2577 -0.0486  0.4500
   81SAPS  C214 7545   5.056   6.984   9.470 -0.3820  0.6153 -0.5535
   81SAPS  H14R 7546   5.134   7.016   9.541  1.0022  0.8473 -2.1166
   81SAPS  C215 7547   5.087   6.960   9.345 -0.1886  0.6013  0.1085
   81SAPS  H15R 7548   5.190   6.974   9.308 -0.0603  0.1581  0.2936
   81SAPS  C216 7549   4.990   6.911   9.240  0.1103 -0.1247 -0.3038
   81SAPS  H16R 7550   4.889   6.957   9.245  0.4257  0.4569  1.5066
   81SAPS  H16S 7551   4.964   6.804   9.253 -1.7027  0.3241  0.0762
   81SAPS  C217 7552   5.049   6.923   9.098  0.2762 -0.4904  0.1854
   81SAPS  H17R 7553   5.124   6.845   9.073  2.5980  1.5705  0.3013
   81SAPS  H17S 7554   5.114   7.012   9.079 -0.1340  0.3818  2.5224
   81SAPS  C218 7555   4.944   6.942   8.988  0.2551 -0.1571 -0.2303
   81SAPS  H18R 7556   4.859   6.875   9.015  0.1238  0.6497  1.4880
   81SAPS  H18S 7557   4.992   6.919   8.891 -1.2186 -1.2664 -0.7317
   81SAPS  C219 7558   4.887   7.083   8.969 -0.0825 -0.4217  0.3200
   81SAPS  H19R 7559   4.851   7.122   9.067  0.4675  0.8798  0.0309
   81SAPS  H19S 7560   4.794   7.082   8.908 -0.1119 -1.3129  0.3705
   81SAPS  C220 7561   4.992   7.183   8.907  0.6944  0.1066  0.6460
   81SAPS  H20R 7562   4.944   7.274   8.864  0.9019  0.0942  0.3888
   81SAPS  H20S 7563   5.038   7.122   8.827 -0.1420  0.0255  0.2202
   81SAPS  H20T 7564   5.068   7.200   8.986  0.5017  0.7218  0.7014
   81SAPS   C33 7565   5.155   6.400  10.150  0.3123  0.1070 -1.0898
   81SAPS   H3X 7566   5.089   6.312  10.136 -2.1765  0.9404  3.5862
   81SAPS   H3Y 7567   5.217   6.374  10.238 -1.4802  0.0786  0.2192
   81SAPS   C34 7568   5.227   6.423  10.018  0.3981 -0.2393 -0.1933
   81SAPS   H4X 7569   5.265   6.525  10.043 -1.1775  0.1431  0.8066
   81SAPS   H4Y 7570   5.149   6.434   9.940  0.8657  0.3661 -0.5821
   81SAPS   C35 7571   5.341   6.327   9.988  0.3622  0.0611  0.0222
   81SAPS   H5X 7572   5.314   6.239   9.926  0.8046 -0.2593  0.2778
   81SAPS   H5Y 7573   5.364   6.276  10.085 -2.1091 -0.9133  0.1760
   81SAPS   C36 7574   5.459   6.407   9.934 -0.0559 -0.4843 -0.9176
   81SAPS   H6X 7575   5.481   6.496   9.998 -4.1416 -0.3757  0.6665
   81SAPS   H6Y 7576   5.419   6.463   9.846 -2.2646  0.2522  0.4756
   81SAPS   C37 7577   5.592   6.335   9.900 -0.5351  0.5369 -0.4071
   81SAPS   H7X 7578   5.575   6.249   9.832  1.3022  1.6747 -2.4298
   81SAPS   H7Y 7579   5.637   6.298   9.995  0.5395  1.0864 -0.6963
   81SAPS   C38 7580   5.702   6.415   9.824  0.6236 -0.0785 -0.4544
   81SAPS   H8X 7581   5.805   6.398   9.864 -0.2066 -3.5820  0.4555
   81SAPS   H8Y 7582   5.670   6.516   9.857  1.0353  0.5054 -1.7740
   81SAPS   C39 7583   5.692   6.400   9.673  0.3644 -0.6610 -0.3500
   81SAPS   H9X 7584   5.690   6.501   9.626 -0.2978 -0.0576  0.9376
   81SAPS   H9Y 7585   5.589   6.365   9.649 -0.1029 -0.0247  0.6335
   81SAPS  C310 7586   5.782   6.289   9.618 -0.1865 -0.3020 -0.1207
   81SAPS  H10X 7587   5.772   6.203   9.688  2.2359  0.8048  1.7175
   81SAPS  H10Y 7588   5.881   6.339   9.617 -0.7989  0.9349 -0.8618
   81SAPS  C311 7589   5.758   6.257   9.470 -0.7101  0.0214  0.2604
   81SAPS  H11X 7590   5.722   6.353   9.428  1.2999  0.5768 -0.3091
   81SAPS  H11Y 7591   5.670   6.190   9.470 -0.8277  0.1155  2.4335
   81SAPS  C312 7592   5.883   6.209   9.380 -0.6033 -0.6922  0.3256
   81SAPS  H12X 7593   5.913   6.115   9.430 -2.4891 -1.0678  0.8529
   81SAPS  H12Y 7594   5.959   6.290   9.380  0.6025 -1.7069  3.1939
   81SAPS  C313 7595   5.840   6.167   9.242 -0.4144  0.4270 -0.0720
   81SAPS  H13X 7596   5.758   6.093   9.252  1.0326 -1.2140  0.0296
   81SAPS  H13Y 7597   5.921   6.115   9.187 -0.1245  2.9282 -2.2311
   81SAPS  C314 7598   5.807   6.297   9.163  0.1452 -0.3313  1.0774
   81SAPS  H14X 7599   5.902   6.354   9.153 -0.2092  0.2435  0.9538
   81SAPS  H14Y 7600   5.731   6.364   9.209  1.0647  0.8222  0.9834
   81SAPS  C315 7601   5.744   6.262   9.031 -0.5661  0.3948 -0.3019
   81SAPS  H15X 7602   5.649   6.208   9.048  0.2757 -1.9424 -2.4188
   81SAPS  H15Y 7603   5.810   6.187   8.982 -2.5973 -1.3672 -0.4734
   81SAPS  C316 7604   5.726   6.388   8.944  0.1039  1.0412 -0.3720
   81SAPS  H16X 7605   5.823   6.441   8.951  2.4076 -2.7043 -1.3416
   81SAPS  H16Y 7606   5.645   6.455   8.980  0.5653  0.9510  0.8947
   81SAPS  C317 7607   5.710   6.344   8.801 -0.3022 -0.0297  0.9415
   81SAPS  H17X 7608   5.628   6.269   8.806  0.4338 -1.0634 -1.4005
   81SAPS  H17Y 7609   5.801   6.296   8.758 -0.1661  1.2329 -0.2616
   81SAPS  C318 7610   5.677   6.458   8.702  0.0999  0.3223 -0.3693
   81SAPS  H18X 7611   5.756   6.534   8.718 -0.0060 -0.1800  3.3861
   81SAPS  H18Y 7612   5.577   6.498   8.728  0.5192  1.8154 -0.9517
   81SAPS  H18Z 7613   5.678   6.417   8.598  0.1832 -2.3628  0.6020
   82SAPS     N 7614   3.781   3.960  11.375  0.0839  0.0220  0.4771
   82SAPS   HN1 7615   3.843   4.043  11.389  0.9293 -0.3372 -0.9611
   82SAPS   HN2 7616   3.749   3.961  11.276 -1.0672  0.2036  0.8362
   82SAPS   HN3 7617   3.697   3.974  11.434  0.3688 -1.4547  1.2805
   82SAPS   C12 7618   3.859   3.841  11.411 -0.1611 -1.0241 -0.0415
   82SAPS  H12A 7619   3.903   3.866  11.506 -0.3835  0.7893 -0.3714
   82SAPS   C13 7620   3.776   3.716  11.429  0.3177 -0.0347 -0.4774
   82SAPS  O13A 7621   3.653   3.708  11.406 -0.3751  0.0367  0.0634
   82SAPS  O13B 7622   3.833   3.611  11.465 -0.4356  0.1926 -0.3531
   82SAPS   C11 7623   3.958   3.820  11.287  0.5552 -0.4106 -0.1544
   82SAPS  H11A 7624   3.899   3.805  11.194 -0.2873 -0.9746  0.4541
   82SAPS  H11B 7625   4.022   3.732  11.310  1.1464 -0.2416 -1.1108
   82SAPS     P 7626   4.178   3.939  11.232 -0.3261 -0.1085  0.0274
   82SAPS   O13 7627   4.206   4.059  11.148  0.4256 -0.3315 -0.4122
   82SAPS   O14 7628   4.269   3.919  11.350  0.2050 -0.3412 -0.6327
   82SAPS   O12 7629   4.028   3.943  11.272 -0.3846  0.4512 -0.5785
   82SAPS   O11 7630   4.189   3.810  11.134  0.3035  0.3805  0.2089
   82SAPS    C1 7631   4.278   3.800  11.024  0.1026 -0.7542  0.5205
   82SAPS    HA 7632   4.290   3.891  10.961 -1.4113 -2.0458 -1.8134
   82SAPS    HB 7633   4.375   3.765  11.065 -0.0367 -0.9555  0.6764
   82SAPS    C2 7634   4.243   3.683  10.924 -0.0516 -0.1543 -0.2589
   82SAPS    HS 7635   4.332   3.617  10.914 -1.1786 -1.7029 -0.5903
   82SAPS   O21 7636   4.201   3.733  10.797  0.2503 -0.0364 -0.2304
   82SAPS   C21 7637   4.298   3.766  10.713 -0.3827  0.8249 -0.0085
   82SAPS   O22 7638   4.415   3.774  10.743  0.0811  0.5471  0.4919
   82SAPS   C22 7639   4.237   3.790  10.580 -0.4323  0.0529  0.5811
   82SAPS   H2R 7640   4.143   3.732  10.566 -0.9339  0.3689  2.4071
   82SAPS   H2S 7641   4.209   3.897  10.574  0.4665  0.3464  1.4584
   82SAPS    C3 7642   4.127   3.603  10.977  1.0010 -0.7651 -0.5859
   82SAPS    HX 7643   4.041   3.673  10.980  0.8992 -0.9006 -0.3783
   82SAPS    HY 7644   4.146   3.570  11.081 -2.1329 -0.6103  0.1412
   82SAPS   O31 7645   4.100   3.476  10.910 -0.3126 -0.5654 -0.2757
   82SAPS   C31 7646   3.999   3.477  10.819  0.1434 -0.4082  0.4792
   82SAPS   O32 7647   3.923   3.561  10.789 -0.1174 -0.0047 -0.3501
   82SAPS   C32 7648   4.017   3.353  10.729 -0.0362  0.5398  0.2093
   82SAPS   H2X 7649   3.913   3.319  10.709  0.4051 -0.0096 -1.2379
   82SAPS   H2Y 7650   4.074   3.270  10.776 -3.5292 -3.5034 -1.9102
   82SAPS   C23 7651   4.329   3.767  10.458 -0.7379 -0.0581  0.8959
   82SAPS   H3R 7652   4.360   3.661  10.441 -3.5472 -0.9477  0.8331
   82SAPS   H3S 7653   4.419   3.828  10.480 -3.2316  4.3827 -0.1625
   82SAPS   C24 7654   4.273   3.823  10.323 -0.6239 -0.3806 -0.0055
   82SAPS   H4R 7655   4.359   3.835  10.253 -1.7075  1.4719 -1.0870
   82SAPS   H4S 7656   4.244   3.928  10.346  0.9385 -0.1660  1.2167
   82SAPS   C25 7657   4.162   3.744  10.259 -0.2538 -0.1522 -0.1285
   82SAPS   H5R 7658   4.072   3.749  10.323 -0.1250  0.3102  0.0214
   82SAPS   C26 7659   4.160   3.668  10.150 -0.1553 -0.5622  0.4862
   82SAPS   H6R 7660   4.066   3.619  10.120  0.1286 -2.8222  2.8871
   82SAPS   C27 7661   4.280   3.641  10.066 -0.0525  0.3860  1.0593
   82SAPS   H7R 7662   4.292   3.533  10.044 -2.1102  0.5668 -1.3750
   82SAPS   H7S 7663   4.372   3.667  10.123  0.3152  1.1091  0.1720
   82SAPS   C28 7664   4.288   3.713   9.936 -0.2460 -0.0844  0.2914
   82SAPS   H8R 7665   4.353   3.801   9.935  0.2561 -0.2499 -4.4421
   82SAPS   C29 7666   4.240   3.679   9.815 -0.7568 -0.0721 -0.3587
   82SAPS   H9R 7667   4.271   3.742   9.731 -0.6052  2.0402  1.2196
   82SAPS  C210 7668   4.163   3.559   9.771 -0.1992 -0.2824 -0.8240
   82SAPS  H10R 7669   4.116   3.510   9.859 -0.9626  0.0655 -1.0273
   82SAPS  H10S 7670   4.235   3.480   9.739 -0.8043 -1.6283  0.9705
   82SAPS  C211 7671   4.061   3.565   9.663  0.3359 -0.4119 -0.6148
   82SAPS  H11R 7672   3.967   3.531   9.709 -0.0213 -0.3028 -1.2457
   82SAPS  C212 7673   4.079   3.581   9.532  0.6142  0.4220  0.1156
   82SAPS  H12R 7674   3.992   3.567   9.466  0.8304 -0.8376  0.0845
   82SAPS  C213 7675   4.208   3.615   9.465  0.0995  0.3517 -0.6668
   82SAPS  H13R 7676   4.233   3.521   9.413  0.6483  0.0680  0.0954
   82SAPS  H13S 7677   4.293   3.640   9.532  1.0670 -2.3964 -0.7460
   82SAPS  C214 7678   4.175   3.735   9.376 -0.2621  0.0689  0.3423
   82SAPS  H14R 7679   4.120   3.818   9.422  2.0948  0.6886  2.2679
   82SAPS  C215 7680   4.214   3.744   9.247 -0.3940 -0.8820 -0.5989
   82SAPS  H15R 7681   4.205   3.836   9.187 -2.3186 -0.4785  0.2555
   82SAPS  C216 7682   4.294   3.645   9.165 -0.0322 -0.2317 -0.7746
   82SAPS  H16R 7683   4.348   3.572   9.229 -0.3031 -0.8809 -1.2799
   82SAPS  H16S 7684   4.364   3.707   9.105  0.1136  1.6040  1.1773
   82SAPS  C217 7685   4.208   3.561   9.070 -1.1430  0.3601  0.0852
   82SAPS  H17R 7686   4.142   3.631   9.014 -1.6365  0.4732  0.7986
   82SAPS  H17S 7687   4.154   3.481   9.124  0.8143 -0.7082  0.5260
   82SAPS  C218 7688   4.280   3.483   8.951 -0.8240 -0.0198 -0.4650
   82SAPS  H18R 7689   4.306   3.381   8.987 -1.1463 -0.4410 -1.4163
   82SAPS  H18S 7690   4.377   3.529   8.923 -0.5126 -0.5817 -0.3287
   82SAPS  C219 7691   4.186   3.465   8.836  0.3765  0.2642 -0.0194
   82SAPS  H19R 7692   4.247   3.416   8.757  1.8574  1.2788  0.4516
   82SAPS  H19S 7693   4.150   3.562   8.796 -2.1981 -0.3535  0.6350
   82SAPS  C220 7694   4.063   3.376   8.866 -0.3908  0.1483  0.2392
   82SAPS  H20R 7695   4.016   3.347   8.770 -2.2660 -0.6595  1.3478
   82SAPS  H20S 7696   3.990   3.442   8.919 -0.2404 -0.2451  0.9455
   82SAPS  H20T 7697   4.091   3.290   8.930  0.3646  0.2902  0.1014
   82SAPS   C33 7698   4.090   3.401  10.597 -0.3831  0.9568 -0.2642
   82SAPS   H3X 7699   4.189   3.448  10.615  1.2061 -1.9534 -0.6818
   82SAPS   H3Y 7700   4.026   3.476  10.547 -0.5733 -0.7439 -2.7579
   82SAPS   C34 7701   4.130   3.280  10.502 -0.0690  0.1079 -0.1866
   82SAPS   H4X 7702   4.034   3.223  10.502  0.4880 -0.8449 -0.2181
   82SAPS   H4Y 7703   4.210   3.211  10.534  0.8265  0.5730 -1.3242
   82SAPS   C35 7704   4.161   3.318  10.359  0.0366  0.0401  0.0950
   82SAPS   H5X 7705   4.254   3.379  10.362  0.5634 -0.7718  2.2746
   82SAPS   H5Y 7706   4.082   3.381  10.313  0.7883 -0.0385 -1.3666
   82SAPS   C36 7707   4.181   3.199  10.272  0.2956  0.3558 -0.4382
   82SAPS   H6X 7708   4.093   3.137  10.245  1.6287 -1.3358 -1.1196
   82SAPS   H6Y 7709   4.250   3.126  10.320 -0.4530 -1.3498 -1.7965
   82SAPS   C37 7710   4.264   3.226  10.142 -0.1705 -0.6033 -0.7140
   82SAPS   H7X 7711   4.353   3.284  10.175 -1.6306  0.2480  2.0125
   82SAPS   H7Y 7712   4.207   3.306  10.088 -1.3618 -1.5181 -0.8585
   82SAPS   C38 7713   4.296   3.101  10.072 -0.1183  0.8511  0.1356
   82SAPS   H8X 7714   4.197   3.052  10.057  0.2949 -0.0154  0.1938
   82SAPS   H8Y 7715   4.342   3.028  10.143  0.4205  0.5892 -0.4741
   82SAPS   C39 7716   4.373   3.121   9.937 -0.8040 -0.3290 -0.3648
   82SAPS   H9X 7717   4.429   3.027   9.922 -0.7099 -0.6917  1.8497
   82SAPS   H9Y 7718   4.456   3.191   9.962 -1.3109  0.3744 -0.6076
   82SAPS  C310 7719   4.278   3.146   9.819  0.6396 -0.3137 -0.3234
   82SAPS  H10X 7720   4.222   3.240   9.841  2.7603  0.6177  1.5665
   82SAPS  H10Y 7721   4.211   3.059   9.811 -0.6440  0.4180  1.6328
   82SAPS  C311 7722   4.355   3.167   9.686  0.0502  0.1809 -0.5800
   82SAPS  H11X 7723   4.452   3.114   9.680  0.8637  1.3213  1.6529
   82SAPS  H11Y 7724   4.389   3.271   9.703  1.3822 -0.2166 -0.6632
   82SAPS  C312 7725   4.285   3.158   9.552  0.0437  0.4237 -0.0915
   82SAPS  H12X 7726   4.196   3.224   9.550 -1.6664 -1.7688 -0.0129
   82SAPS  H12Y 7727   4.240   3.059   9.529  0.7654  0.3441 -1.2181
   82SAPS  C313 7728   4.382   3.182   9.445  0.2178  0.1568  0.5867
   82SAPS  H13X 7729   4.450   3.095   9.448 -1.7831 -1.4982 -0.1871
   82SAPS  H13Y 7730   4.438   3.275   9.470  0.2768  0.8617 -1.9249
   82SAPS  C314 7731   4.317   3.190   9.304 -0.2473  0.4806 -1.2658
   82SAPS  H14X 7732   4.389   3.230   9.229  0.4634  0.4482 -0.6174
   82SAPS  H14Y 7733   4.236   3.265   9.316  0.0661  0.7925 -1.0843
   82SAPS  C315 7734   4.267   3.060   9.251  0.8144  0.2437  0.6741
   82SAPS  H15X 7735   4.192   3.012   9.317  0.1063  0.2847 -0.0920
   82SAPS  H15Y 7736   4.357   2.994   9.254  0.6248 -0.0455  0.1123
   82SAPS  C316 7737   4.209   3.078   9.111 -0.0839  0.0092 -0.2053
   82SAPS  H16X 7738   4.286   3.123   9.046  0.1976  0.7624  0.6194
   82SAPS  H16Y 7739   4.127   3.152   9.128 -0.2215 -0.2859  0.4682
   82SAPS  C317 7740   4.164   2.953   9.047  0.5898 -0.3480  0.3901
   82SAPS  H17X 7741   4.108   2.987   8.958  0.0822  2.0991  1.5490
   82SAPS  H17Y 7742   4.091   2.901   9.114 -0.2092  0.4035  0.1198
   82SAPS  C318 7743   4.274   2.856   9.005  0.4300 -0.0974 -0.1602
   82SAPS  H18X 7744   4.328   2.825   9.097 -0.5758  0.8961  0.8002
   82SAPS  H18Y 7745   4.338   2.900   8.926  0.0754  1.3665  0.3423
   82SAPS  H18Z 7746   4.226   2.769   8.954  1.1903 -0.7441  0.2079
   83SAPS     N 7747   5.413   1.674  11.594 -0.5725  0.4105  0.3173
   83SAPS   HN1 7748   5.375   1.760  11.639 -0.2990  0.5347  0.3071
   83SAPS   HN2 7749   5.372   1.592  11.644 -1.7558  2.0554  2.2150
   83SAPS   HN3 7750   5.515   1.659  11.602 -0.5274 -0.3069 -1.2028
   83SAPS   C12 7751   5.390   1.683  11.445  0.3416  0.1411 -0.0591
   83SAPS  H12A 7752   5.283   1.673  11.440  0.5009 -1.7838 -0.6156
   83SAPS   C13 7753   5.441   1.801  11.360  0.0451 -0.8540  0.2765
   83SAPS  O13A 7754   5.502   1.896  11.413 -0.1078 -0.5051  0.2285
   83SAPS  O13B 7755   5.410   1.809  11.240 -0.2843  0.0238 -0.8101
   83SAPS   C11 7756   5.452   1.557  11.376  0.1341  0.0313 -0.3250
   83SAPS  H11A 7757   5.432   1.563  11.267  1.7134 -0.0970 -0.6405
   83SAPS  H11B 7758   5.403   1.468  11.421 -2.2846  0.6335 -1.5720
   83SAPS     P 7759   5.676   1.418  11.378  0.0786  0.5481 -0.0924
   83SAPS   O13 7760   5.823   1.433  11.406  0.3953 -0.1377  0.2783
   83SAPS   O14 7761   5.597   1.313  11.457 -0.6320  0.3750  0.0063
   83SAPS   O12 7762   5.595   1.557  11.387  0.2170  0.6389 -0.1838
   83SAPS   O11 7763   5.660   1.380  11.225  1.2257 -0.3163  0.6792
   83SAPS    C1 7764   5.729   1.467  11.138 -0.6721  0.1581  0.5992
   83SAPS    HA 7765   5.710   1.576  11.147  0.2210  0.3703 -0.0018
   83SAPS    HB 7766   5.837   1.459  11.162 -0.5343 -1.2969 -0.3822
   83SAPS    C2 7767   5.705   1.425  10.989  0.5545 -0.3741  0.3625
   83SAPS    HS 7768   5.601   1.455  10.961  0.8184 -0.5338 -0.8468
   83SAPS   O21 7769   5.725   1.279  10.979  0.8205  0.0966 -0.5741
   83SAPS   C21 7770   5.631   1.221  10.906  0.1814 -0.3736 -0.3132
   83SAPS   O22 7771   5.536   1.277  10.865 -0.3835  0.0720  0.3833
   83SAPS   C22 7772   5.666   1.076  10.885 -0.4586 -0.4574 -0.1375
   83SAPS   H2R 7773   5.764   1.091  10.836 -0.9858  2.7107 -0.4276
   83SAPS   H2S 7774   5.669   1.020  10.981 -1.2983  1.9740  1.3989
   83SAPS    C3 7775   5.806   1.502  10.898  0.4240  0.4638  0.3176
   83SAPS    HX 7776   5.903   1.450  10.911  0.2968 -0.1557 -1.0397
   83SAPS    HY 7777   5.819   1.608  10.928 -0.5784  0.4185  0.9644
   83SAPS   O31 7778   5.773   1.492  10.757 -0.4911  0.1032 -0.3623
   83SAPS   C31 7779   5.699   1.597  10.709 -0.9237  0.5167  0.3703
   83SAPS   O32 7780   5.626   1.665  10.775 -0.2774 -0.4345 -0.1281
   83SAPS   C32 7781   5.698   1.597  10.558  0.1854  0.4542  0.1405
   83SAPS   H2X 7782   5.803   1.578  10.529 -0.0321 -1.6970  0.6076
   83SAPS   H2Y 7783   5.686   1.699  10.516  3.1734  0.5021 -0.8412
   83SAPS   C23 7784   5.575   1.009  10.777  0.1176 -0.1426 -0.1353
   83SAPS   H3R 7785   5.471   1.002  10.815 -0.4975 -1.0220 -1.8589
   83SAPS   H3S 7786   5.621   0.908  10.770  2.2093  0.6092  1.6115
   83SAPS   C24 7787   5.579   1.072  10.634 -0.2484 -0.4065  0.1634
   83SAPS   H4R 7788   5.524   1.167  10.649 -1.5553 -0.9214 -1.1305
   83SAPS   H4S 7789   5.522   1.021  10.554  2.4605 -0.7631 -1.6767
   83SAPS   C25 7790   5.721   1.096  10.574  0.0866  0.2690  0.3532
   83SAPS   H5R 7791   5.800   1.124  10.646 -0.2775  0.7756  0.5657
   83SAPS   C26 7792   5.754   1.091  10.443  0.3200 -0.4242 -0.4286
   83SAPS   H6R 7793   5.850   1.137  10.412  0.2566  0.1812  0.2457
   83SAPS   C27 7794   5.654   1.074  10.333  0.0396 -0.9980  0.8943
   83SAPS   H7R 7795   5.699   1.133  10.250  4.3732 -1.5498  2.5816
   83SAPS   H7S 7796   5.554   1.122  10.344  1.4939  2.7098 -0.3045
   83SAPS   C28 7797   5.635   0.930  10.303  0.1025 -0.0755 -0.4004
   83SAPS   H8R 7798   5.664   0.857  10.380 -1.5499 -0.5651 -0.2118
   83SAPS   C29 7799   5.595   0.879  10.184  0.6990  0.1294 -0.4467
   83SAPS   H9R 7800   5.590   0.770  10.179  0.8093  0.1103 -0.1804
   83SAPS  C210 7801   5.541   0.950  10.064 -0.1949  0.2328  1.0101
   83SAPS  H10R 7802   5.571   0.882   9.982 -0.2735  1.3295  0.0527
   83SAPS  H10S 7803   5.589   1.049  10.051 -1.2361  0.5109 -1.0527
   83SAPS  C211 7804   5.393   0.978  10.058  0.2140  0.0913 -0.0606
   83SAPS  H11R 7805   5.339   0.992  10.153 -1.9305 -1.3859 -0.9725
   83SAPS  C212 7806   5.313   0.957   9.950 -0.2317  0.1483  0.2831
   83SAPS  H12R 7807   5.205   0.978   9.957 -0.1330  0.3233  1.6478
   83SAPS  C213 7808   5.356   0.912   9.814  0.8599  0.4596  0.0882
   83SAPS  H13R 7809   5.301   0.817   9.797  0.6020  0.8938 -1.7160
   83SAPS  H13S 7810   5.461   0.884   9.790  0.6507 -0.3285  0.0747
   83SAPS  C214 7811   5.331   1.021   9.713  0.0753  0.4568 -0.1283
   83SAPS  H14R 7812   5.367   1.119   9.748 -1.4762  0.2508  2.2712
   83SAPS  C215 7813   5.272   1.011   9.592 -0.1908 -0.5754 -0.1331
   83SAPS  H15R 7814   5.268   1.099   9.526 -1.9231 -0.8258 -0.4307
   83SAPS  C216 7815   5.238   0.880   9.528 -0.7430 -0.2111 -0.0537
   83SAPS  H16R 7816   5.127   0.866   9.529 -1.2589  3.1597 -0.0410
   83SAPS  H16S 7817   5.266   0.793   9.590 -3.9312 -1.8215 -0.6077
   83SAPS  C217 7818   5.291   0.864   9.389  0.6272 -0.1073  0.4591
   83SAPS  H17R 7819   5.271   0.765   9.343  4.1716 -0.1479 -1.2631
   83SAPS  H17S 7820   5.401   0.870   9.397  0.6919 -0.3613 -0.2188
   83SAPS  C218 7821   5.237   0.978   9.296 -0.1884  0.1710  1.1835
   83SAPS  H18R 7822   5.284   1.071   9.335  1.1427 -0.7577  1.8756
   83SAPS  H18S 7823   5.126   0.985   9.294 -0.2769 -0.8613 -1.7675
   83SAPS  C219 7824   5.292   0.969   9.157  0.4744 -0.2560  0.5971
   83SAPS  H19R 7825   5.241   0.887   9.102 -0.2354  2.2295 -2.6699
   83SAPS  H19S 7826   5.403   0.965   9.154  0.4737  0.5123 -1.6774
   83SAPS  C220 7827   5.244   1.092   9.080  0.2077  0.3338 -0.0771
   83SAPS  H20R 7828   5.140   1.126   9.095  0.8284  1.4706  2.0221
   83SAPS  H20S 7829   5.266   1.086   8.971  4.1773  2.2715  0.4250
   83SAPS  H20T 7830   5.308   1.173   9.121  0.0211  1.0860 -1.2140
   83SAPS   C33 7831   5.584   1.510  10.489 -0.5747 -0.2133 -0.3727
   83SAPS   H3X 7832   5.487   1.541  10.534 -0.2419 -1.5745  1.3931
   83SAPS   H3Y 7833   5.610   1.404  10.510 -0.1796  0.2466  1.6670
   83SAPS   C34 7834   5.573   1.552  10.339  0.0104  0.4455 -0.4317
   83SAPS   H4X 7835   5.675   1.525  10.303  0.3177 -0.5346  1.0713
   83SAPS   H4Y 7836   5.559   1.661  10.330 -1.3247  0.2478 -1.0567
   83SAPS   C35 7837   5.457   1.482  10.275  0.1835 -0.0756  0.5724
   83SAPS   H5X 7838   5.360   1.517  10.316 -0.4210 -1.3011  0.2454
   83SAPS   H5Y 7839   5.472   1.373  10.291 -1.7325 -0.5398 -0.5579
   83SAPS   C36 7840   5.452   1.513  10.123 -0.9953  0.6864 -0.6738
   83SAPS   H6X 7841   5.453   1.623  10.108 -1.8143  0.6872 -0.8072
   83SAPS   H6Y 7842   5.357   1.483  10.073 -1.1178 -1.0032  0.4838
   83SAPS   C37 7843   5.565   1.437  10.047  0.0406  0.6544 -0.3459
   83SAPS   H7X 7844   5.529   1.335  10.023  0.9156 -0.0205  1.1030
   83SAPS   H7Y 7845   5.654   1.409  10.107 -1.0160 -4.3056 -0.7240
   83SAPS   C38 7846   5.624   1.511   9.921 -0.1035 -0.3977  0.1233
   83SAPS   H8X 7847   5.710   1.454   9.880 -0.2818 -1.7666  1.5931
   83SAPS   H8Y 7848   5.651   1.616   9.945  0.0671 -0.0409 -1.5039
   83SAPS   C39 7849   5.523   1.512   9.807  0.0925 -0.1718  0.0424
   83SAPS   H9X 7850   5.445   1.589   9.823  1.0349  0.5410  1.5195
   83SAPS   H9Y 7851   5.480   1.412   9.786 -2.2835  0.7387  0.2718
   83SAPS  C310 7852   5.599   1.557   9.690 -0.4755 -0.2281 -0.0337
   83SAPS  H10X 7853   5.671   1.479   9.657  1.8336  2.6949 -2.5881
   83SAPS  H10Y 7854   5.655   1.650   9.715 -0.0435 -0.0544 -1.5231
   83SAPS  C311 7855   5.512   1.596   9.575 -0.1202  0.4520  0.1126
   83SAPS  H11X 7856   5.450   1.682   9.610 -1.7045  0.1275 -1.7000
   83SAPS  H11Y 7857   5.444   1.511   9.555 -0.0966  0.2317  0.9339
   83SAPS  C312 7858   5.597   1.630   9.451 -0.2044  0.2294 -0.4810
   83SAPS  H12X 7859   5.662   1.540   9.445 -2.0524 -1.2233  0.2932
   83SAPS  H12Y 7860   5.656   1.722   9.468 -0.0215 -0.3619  2.7570
   83SAPS  C313 7861   5.501   1.632   9.331 -0.9296 -0.5622 -0.1699
   83SAPS  H13X 7862   5.426   1.714   9.339  2.1398  2.5727 -0.6851
   83SAPS  H13Y 7863   5.467   1.527   9.333 -0.1340 -0.8327 -0.5136
   83SAPS  C314 7864   5.572   1.670   9.202 -0.9818  0.2346 -0.0637
   83SAPS  H14X 7865   5.636   1.586   9.166  0.5571  0.6700  1.4978
   83SAPS  H14Y 7866   5.642   1.753   9.223  2.5700 -2.1857 -1.3638
   83SAPS  C315 7867   5.481   1.692   9.086  0.0086  0.3357  0.1312
   83SAPS  H15X 7868   5.415   1.776   9.116 -0.0376 -0.2911  1.9041
   83SAPS  H15Y 7869   5.415   1.606   9.059  2.1000 -1.4859  0.5690
   83SAPS  C316 7870   5.560   1.725   8.959 -0.5244  0.5170  0.3888
   83SAPS  H16X 7871   5.605   1.632   8.919 -0.9484 -0.1807  1.4963
   83SAPS  H16Y 7872   5.649   1.789   8.979  0.7013 -1.0868  0.2944
   83SAPS  C317 7873   5.493   1.798   8.844 -0.0921  0.0575 -0.3083
   83SAPS  H17X 7874   5.570   1.828   8.770  0.4435 -0.7643 -0.0947
   83SAPS  H17Y 7875   5.457   1.892   8.892 -0.3706 -1.0336  1.7675
   83SAPS  C318 7876   5.390   1.717   8.762 -1.2063  0.0365 -0.0230
   83SAPS  H18X 7877   5.436   1.630   8.712 -2.9292  0.2698 -2.1437
   83SAPS  H18Y 7878   5.344   1.786   8.689 -3.0353  1.1969  2.0989
   83SAPS  H18Z 7879   5.307   1.682   8.828 -1.0449  0.1100  0.2234
   84SAPS     N 7880   6.591   6.158  10.865  0.2762  0.9595 -0.5463
   84SAPS   HN1 7881   6.649   6.222  10.805  1.1021 -0.9983 -1.9551
   84SAPS   HN2 7882   6.637   6.065  10.863  0.7277  1.1845 -1.8103
   84SAPS   HN3 7883   6.506   6.151  10.807  0.7066  0.1714 -1.1018
   84SAPS   C12 7884   6.579   6.207  11.008  0.9283 -0.2399  0.5283
   84SAPS  H12A 7885   6.536   6.306  11.002 -1.4169 -0.9852  2.8405
   84SAPS   C13 7886   6.494   6.109  11.094 -0.5530 -0.1153 -0.6980
   84SAPS  O13A 7887   6.449   6.008  11.037 -0.3613 -0.1291 -0.6577
   84SAPS  O13B 7888   6.506   6.115  11.223  0.0123 -0.3033 -0.1728
   84SAPS   C11 7889   6.721   6.219  11.073  0.2668 -0.2145  1.3469
   84SAPS  H11A 7890   6.779   6.125  11.062 -1.5050 -1.2614  0.4636
   84SAPS  H11B 7891   6.706   6.248  11.179  1.1101  1.7528  0.9738
   84SAPS     P 7892   6.820   6.462  11.087 -0.2265 -0.1850 -0.1810
   84SAPS   O13 7893   6.693   6.515  11.142 -0.4432 -0.2047  0.1521
   84SAPS   O14 7894   6.935   6.435  11.175 -0.3795  0.4835  0.2135
   84SAPS   O12 7895   6.790   6.323  11.004  1.0533 -0.4942  0.2303
   84SAPS   O11 7896   6.866   6.559  10.971  0.1449  0.3256 -0.2696
   84SAPS    C1 7897   6.766   6.624  10.891 -0.0274 -0.5592  0.0275
   84SAPS    HA 7898   6.660   6.599  10.909 -0.7845  2.3227  0.0381
   84SAPS    HB 7899   6.771   6.733  10.916  1.5554 -0.6067  0.0318
   84SAPS    C2 7900   6.795   6.619  10.741 -0.4880  0.0372 -0.6350
   84SAPS    HS 7901   6.795   6.515  10.704  1.9692  0.4068 -1.9260
   84SAPS   O21 7902   6.905   6.697  10.708  0.0609  0.1722  0.0972
   84SAPS   C21 7903   6.987   6.649  10.612 -0.1041 -0.0082 -0.2941
   84SAPS   O22 7904   6.974   6.545  10.549  0.0170 -0.6409  0.4316
   84SAPS   C22 7905   7.107   6.744  10.600 -0.1486 -0.3164  0.0828
   84SAPS   H2R 7906   7.171   6.735  10.690  0.2493 -0.0893 -0.1725
   84SAPS   H2S 7907   7.159   6.712  10.508  0.0889 -1.0272  0.4599
   84SAPS    C3 7908   6.673   6.682  10.667  0.6656 -0.0894 -0.0967
   84SAPS    HX 7909   6.653   6.786  10.700  0.9553  0.1609 -0.6840
   84SAPS    HY 7910   6.581   6.621  10.682  0.9171 -0.7908 -1.2153
   84SAPS   O31 7911   6.702   6.695  10.528  0.2899  0.4126  0.4933
   84SAPS   C31 7912   6.675   6.591  10.451 -0.1884 -0.1214  0.1858
   84SAPS   O32 7913   6.633   6.482  10.486 -0.2078 -0.4355 -0.0326
   84SAPS   C32 7914   6.690   6.637  10.309  0.4967 -0.1166  0.7409
   84SAPS   H2X 7915   6.770   6.714  10.308 -0.2528  0.7179  1.8440
   84SAPS   H2Y 7916   6.589   6.674  10.281  0.1215 -2.5520 -1.5671
   84SAPS   C23 7917   7.068   6.893  10.582 -0.5089  0.1087 -0.5315
   84SAPS   H3R 7918   7.156   6.956  10.607 -1.0947  0.4840  0.6766
   84SAPS   H3S 7919   6.992   6.919  10.660  1.9457  1.4238  1.5963
   84SAPS   C24 7920   7.011   6.948  10.446 -0.0702  0.5068  0.2940
   84SAPS   H4R 7921   6.972   7.052  10.454  2.1273  1.4443 -0.2967
   84SAPS   H4S 7922   6.927   6.882  10.418  0.2989 -0.5636  1.6136
   84SAPS   C25 7923   7.119   6.956  10.342 -0.0340 -0.1469 -0.4503
   84SAPS   H5R 7924   7.219   6.971  10.385  0.0404 -1.4716 -0.1116
   84SAPS   C26 7925   7.121   6.934  10.207  0.3838  0.1648 -0.2165
   84SAPS   H6R 7926   7.210   6.951  10.146 -0.4832 -0.4343 -1.6980
   84SAPS   C27 7927   7.004   6.889  10.123 -0.3460 -0.4044  0.3559
   84SAPS   H7R 7928   6.968   6.974  10.062  0.0470  0.3814  1.1814
   84SAPS   H7S 7929   6.914   6.858  10.181 -1.3789 -0.9276 -1.4745
   84SAPS   C28 7930   7.038   6.769  10.043  0.6896  0.3149  0.0144
   84SAPS   H8R 7931   7.042   6.678  10.104  2.2826 -0.1220 -0.6787
   84SAPS   C29 7932   7.061   6.759   9.910 -0.6460 -0.3637  0.3098
   84SAPS   H9R 7933   7.052   6.661   9.861 -0.8359  0.8231 -2.2079
   84SAPS  C210 7934   7.060   6.879   9.814 -0.1152  0.9287 -0.0552
   84SAPS  H10R 7935   7.161   6.885   9.768 -0.1025 -2.9660 -0.9044
   84SAPS  H10S 7936   7.037   6.967   9.877 -0.4051 -1.0956  2.8756
   84SAPS  C211 7937   6.951   6.856   9.715 -0.3739 -0.2716  0.3109
   84SAPS  H11R 7938   6.851   6.897   9.737 -1.2227 -2.2057  0.2165
   84SAPS  C212 7939   6.968   6.812   9.584  0.2833 -0.3340  0.0628
   84SAPS  H12R 7940   6.885   6.798   9.512  1.7749 -1.6143 -1.4957
   84SAPS  C213 7941   7.098   6.777   9.514 -0.2255 -0.3313 -0.3682
   84SAPS  H13R 7942   7.081   6.689   9.447 -0.7203  0.6746 -1.6143
   84SAPS  H13S 7943   7.170   6.770   9.598  0.4325  0.8197 -0.8214
   84SAPS  C214 7944   7.149   6.895   9.428 -0.3984  0.5307  0.4782
   84SAPS  H14R 7945   7.206   6.968   9.487 -0.2769 -0.6974  1.9795
   84SAPS  C215 7946   7.111   6.917   9.303  0.0860 -0.2647 -0.1993
   84SAPS  H15R 7947   7.164   6.995   9.246  2.2005 -1.1529  0.4296
   84SAPS  C216 7948   7.026   6.845   9.209 -0.0822  0.3207  0.1542
   84SAPS  H16R 7949   6.950   6.924   9.193 -0.1695  0.4077  0.9651
   84SAPS  H16S 7950   6.967   6.767   9.263  0.6581  0.9455  1.9674
   84SAPS  C217 7951   7.092   6.796   9.082  0.4472  0.2196  0.0534
   84SAPS  H17R 7952   7.015   6.732   9.035  1.1513 -2.4117  2.2190
   84SAPS  H17S 7953   7.179   6.733   9.111  1.5679  1.5541 -0.3060
   84SAPS  C218 7954   7.132   6.900   8.981 -0.6284  0.2832 -0.5382
   84SAPS  H18R 7955   7.177   6.991   9.026 -0.6945  0.1865 -0.2776
   84SAPS  H18S 7956   7.041   6.939   8.930  0.3145  1.6558 -1.2285
   84SAPS  C219 7957   7.230   6.843   8.877  0.5827 -0.2570 -0.2109
   84SAPS  H19R 7958   7.188   6.756   8.824  0.7236 -0.8854  0.6910
   84SAPS  H19S 7959   7.319   6.809   8.933 -0.3959 -0.3514  1.3228
   84SAPS  C220 7960   7.269   6.954   8.787  0.0683  0.1396  0.2354
   84SAPS  H20R 7961   7.347   6.915   8.719  1.3072  0.9076  1.1768
   84SAPS  H20S 7962   7.312   7.044   8.835  2.5863  0.9654 -3.2036
   84SAPS  H20T 7963   7.178   6.988   8.734  1.2746 -0.5511 -2.4619
   84SAPS   C33 7964   6.723   6.534  10.202 -0.0116 -0.0926 -0.7889
   84SAPS   H3X 7965   6.664   6.441  10.215  3.8441 -2.7067 -0.2760
   84SAPS   H3Y 7966   6.827   6.498  10.214 -0.3003 -0.8054 -0.3518
   84SAPS   C34 7967   6.699   6.581  10.060  0.0795 -0.2334  0.3473
   84SAPS   H4X 7968   6.785   6.642  10.026 -0.1443  0.1251  0.4146
   84SAPS   H4Y 7969   6.612   6.649  10.050 -0.8795 -1.6205 -1.1858
   84SAPS   C35 7970   6.691   6.468   9.961  0.0475 -0.6873  0.5281
   84SAPS   H5X 7971   6.606   6.398   9.975 -0.8601  0.1929 -0.3922
   84SAPS   H5Y 7972   6.772   6.394   9.979 -0.1465 -1.1932 -0.5993
   84SAPS   C36 7973   6.707   6.506   9.813 -0.1476 -0.2377 -0.3369
   84SAPS   H6X 7974   6.782   6.588   9.807  0.0687 -0.3173  0.9671
   84SAPS   H6Y 7975   6.608   6.553   9.792 -0.9615 -0.7531  2.0268
   84SAPS   C37 7976   6.718   6.385   9.725  0.3641 -0.1278 -0.5591
   84SAPS   H7X 7977   6.639   6.312   9.751 -1.1334  2.2788  2.1179
   84SAPS   H7Y 7978   6.811   6.328   9.749  0.0328 -0.6850 -0.5814
   84SAPS   C38 7979   6.715   6.412   9.574  0.5513 -0.0223  0.6516
   84SAPS   H8X 7980   6.611   6.414   9.534  1.3247  2.0477 -1.4780
   84SAPS   H8Y 7981   6.768   6.331   9.519 -0.3667  0.9775 -1.8764
   84SAPS   C39 7982   6.792   6.532   9.518  0.5116  0.0654  0.1048
   84SAPS   H9X 7983   6.900   6.510   9.537  0.4148 -0.7495 -0.2641
   84SAPS   H9Y 7984   6.753   6.626   9.562  0.9604  1.0644 -1.5403
   84SAPS  C310 7985   6.760   6.547   9.365  0.5267 -0.0414 -0.3899
   84SAPS  H10X 7986   6.763   6.448   9.316  0.5044  0.6154 -1.7712
   84SAPS  H10Y 7987   6.836   6.610   9.314 -0.4770  0.7063 -0.9996
   84SAPS  C311 7988   6.628   6.618   9.339  1.3119 -0.5775 -0.3170
   84SAPS  H11X 7989   6.632   6.722   9.379 -1.9266 -0.0136 -1.1938
   84SAPS  H11Y 7990   6.543   6.566   9.387  0.2213  1.0031 -0.4760
   84SAPS  C312 7991   6.588   6.624   9.186  0.6915 -0.3403  0.5485
   84SAPS  H12X 7992   6.480   6.646   9.171  1.1354  1.1125 -0.8930
   84SAPS  H12Y 7993   6.587   6.518   9.154 -0.8159  0.1712 -1.3154
   84SAPS  C313 7994   6.680   6.713   9.100  1.3348 -0.2382  0.2455
   84SAPS  H13X 7995   6.779   6.665   9.083  0.4469 -1.5237 -1.6247
   84SAPS  H13Y 7996   6.693   6.812   9.149 -0.1945 -1.1506  2.6634
   84SAPS  C314 7997   6.629   6.738   8.955 -0.1140  0.3533 -0.0791
   84SAPS  H14X 7998   6.525   6.777   8.955 -0.1688  0.4358 -3.2471
   84SAPS  H14Y 7999   6.628   6.643   8.898  0.2783  1.0095 -1.2027
   84SAPS  C315 8000   6.718   6.843   8.894 -0.4698  0.3856 -0.3803
   84SAPS  H15X 8001   6.824   6.809   8.904 -0.2535  1.2904  0.6074
   84SAPS  H15Y 8002   6.713   6.935   8.955 -0.0505 -0.5169  1.0483
   84SAPS  C316 8003   6.690   6.883   8.750  0.8646 -0.2322 -0.2957
   84SAPS  H16X 8004   6.593   6.937   8.752  0.7859 -0.3984  0.7308
   84SAPS  H16Y 8005   6.673   6.786   8.698 -0.7087 -0.1851  0.0817
   84SAPS  C317 8006   6.803   6.958   8.683  0.6593 -0.8109  1.0951
   84SAPS  H17X 8007   6.896   6.898   8.692  0.5750 -1.2164 -0.4908
   84SAPS  H17Y 8008   6.812   7.051   8.743  2.0249 -0.0935 -0.1652
   84SAPS  C318 8009   6.772   6.985   8.532  0.5973  0.3693 -0.6294
   84SAPS  H18X 8010   6.748   6.887   8.486 -1.2098 -0.1015  1.1770
   84SAPS  H18Y 8011   6.871   7.023   8.498  1.1623  1.1867  1.6931
   84SAPS  H18Z 8012   6.679   7.047   8.532 -0.8606 -1.7190 -0.7967
   85SAPS     N 8013   4.309   2.012  11.032 -0.4736  0.4003 -0.2169
   85SAPS   HN1 8014   4.346   2.109  11.027  0.5954  0.0185 -0.0018
   85SAPS   HN2 8015   4.336   1.944  10.958  4.0958  1.4399  0.2126
   85SAPS   HN3 8016   4.205   2.021  11.032 -0.7970 -2.2508  1.3045
   85SAPS   C12 8017   4.345   1.938  11.170 -0.8574 -1.0510 -0.5203
   85SAPS  H12A 8018   4.332   2.012  11.248  0.8035 -0.3751 -0.8237
   85SAPS   C13 8019   4.251   1.823  11.207 -0.1598  0.8704  0.2324
   85SAPS  O13A 8020   4.164   1.785  11.124  0.5559  0.4339  0.2168
   85SAPS  O13B 8021   4.250   1.801  11.331 -0.3183  0.7984 -0.4733
   85SAPS   C11 8022   4.496   1.895  11.168 -0.4199  0.4384 -0.8817
   85SAPS  H11A 8023   4.507   1.841  11.264  1.8299  1.7265 -0.3194
   85SAPS  H11B 8024   4.563   1.983  11.183 -0.3691 -0.1084  2.8427
   85SAPS     P 8025   4.585   1.663  11.092 -0.1847 -0.6178  0.0114
   85SAPS   O13 8026   4.688   1.692  11.196  0.0547 -0.6154  0.2700
   85SAPS   O14 8027   4.483   1.571  11.126  0.2302  0.2509  0.6459
   85SAPS   O12 8028   4.531   1.807  11.058  0.0978 -0.4266  0.1529
   85SAPS   O11 8029   4.655   1.623  10.959 -0.4665 -0.3784  0.8025
   85SAPS    C1 8030   4.576   1.631  10.839  0.4252 -0.4963  0.6108
   85SAPS    HA 8031   4.501   1.550  10.829 -0.4891  0.4947 -0.9928
   85SAPS    HB 8032   4.532   1.732  10.840  0.1126 -0.6180 -0.2872
   85SAPS    C2 8033   4.668   1.658  10.712 -0.5851  0.3581  0.0620
   85SAPS    HS 8034   4.736   1.738  10.748  0.3039 -0.1550 -0.4164
   85SAPS   O21 8035   4.586   1.701  10.598  0.3268  0.4336  0.4241
   85SAPS   C21 8036   4.644   1.791  10.520  0.3037 -0.8560  0.3674
   85SAPS   O22 8037   4.745   1.854  10.552 -0.5838 -0.4098  0.5781
   85SAPS   C22 8038   4.562   1.819  10.393 -0.2106 -0.0250 -0.0263
   85SAPS   H2R 8039   4.592   1.732  10.331  0.2354 -0.6187  0.9926
   85SAPS   H2S 8040   4.453   1.807  10.414  0.0272 -1.6110  0.4026
   85SAPS    C3 8041   4.762   1.538  10.666  0.4548  0.0104 -0.0614
   85SAPS    HX 8042   4.697   1.455  10.630  1.6182 -2.3535  2.8687
   85SAPS    HY 8043   4.816   1.501  10.756  0.5174  1.2157  0.4070
   85SAPS   O31 8044   4.846   1.572  10.551 -0.1843  0.1281 -0.1694
   85SAPS   C31 8045   4.968   1.621  10.585 -0.6870  0.7578  0.3719
   85SAPS   O32 8046   5.014   1.630  10.697 -0.5677  0.5324 -0.1567
   85SAPS   C32 8047   5.041   1.654  10.455 -0.2569 -0.5585 -0.5510
   85SAPS   H2X 8048   5.128   1.586  10.443  0.6234  0.0429  1.8749
   85SAPS   H2Y 8049   5.083   1.754  10.478 -1.2309  0.3223 -2.3432
   85SAPS   C23 8050   4.587   1.947  10.315  0.0360  0.4768  0.9796
   85SAPS   H3R 8051   4.696   1.955  10.298 -0.0854 -0.8697 -0.6791
   85SAPS   H3S 8052   4.540   2.027  10.376 -3.0494 -1.7613  1.7935
   85SAPS   C24 8053   4.511   1.948  10.177 -0.5246  1.1511 -0.0949
   85SAPS   H4R 8054   4.535   2.054  10.155  3.0874  0.1429 -1.5915
   85SAPS   H4S 8055   4.401   1.933  10.186 -0.3102 -0.7080 -0.1878
   85SAPS   C25 8056   4.575   1.865  10.070  0.1753  0.0193 -0.6837
   85SAPS   H5R 8057   4.646   1.785  10.093  0.0209 -0.9780 -3.2871
   85SAPS   C26 8058   4.547   1.892   9.942  0.7459 -0.1967  0.6579
   85SAPS   H6R 8059   4.602   1.839   9.862 -1.3162 -1.3344 -0.0964
   85SAPS   C27 8060   4.452   1.998   9.882 -1.2249 -0.5667  0.8122
   85SAPS   H7R 8061   4.512   2.085   9.849  1.6428 -2.2734  1.1152
   85SAPS   H7S 8062   4.382   2.027   9.963 -1.4144 -0.2131  0.5209
   85SAPS   C28 8063   4.368   1.953   9.763  0.1317 -0.3986 -0.2477
   85SAPS   H8R 8064   4.306   1.862   9.762  1.8797 -1.6572 -1.6667
   85SAPS   C29 8065   4.381   1.998   9.638  0.1076  0.2405  0.4494
   85SAPS   H9R 8066   4.310   1.973   9.557  0.5654  1.9867 -0.5529
   85SAPS  C210 8067   4.477   2.105   9.602 -0.0840  0.7463  0.6596
   85SAPS  H10R 8068   4.482   2.097   9.492  0.6721 -2.1495  0.8304
   85SAPS  H10S 8069   4.576   2.082   9.649 -1.5626 -2.5571  2.5283
   85SAPS  C211 8070   4.422   2.239   9.636  0.3972  0.0585 -0.3962
   85SAPS  H11R 8071   4.384   2.245   9.739 -1.5413 -1.8370 -0.9517
   85SAPS  C212 8072   4.439   2.351   9.569  0.9455 -0.1097  0.7454
   85SAPS  H12R 8073   4.388   2.440   9.610 -0.8327 -0.9121  0.3705
   85SAPS  C213 8074   4.520   2.367   9.439 -0.4104 -0.4150  0.2567
   85SAPS  H13R 8075   4.621   2.321   9.445  0.3489  1.0735 -0.5185
   85SAPS  H13S 8076   4.545   2.475   9.430  0.3696 -0.6046 -0.0069
   85SAPS  C214 8077   4.445   2.323   9.314  0.6037  0.8549  0.0494
   85SAPS  H14R 8078   4.367   2.246   9.324  0.2784  0.2262 -4.8715
   85SAPS  C215 8079   4.447   2.374   9.190  0.5287 -0.4528  0.0905
   85SAPS  H15R 8080   4.377   2.326   9.121 -0.0492 -0.8816  0.9589
   85SAPS  C216 8081   4.522   2.494   9.128 -0.2393  0.6665 -0.4444
   85SAPS  H16R 8082   4.584   2.545   9.205 -0.3562  2.0633 -1.2447
   85SAPS  H16S 8083   4.458   2.576   9.089 -0.7040  1.6672  2.1952
   85SAPS  C217 8084   4.606   2.445   9.017  0.2796 -0.3521  0.4355
   85SAPS  H17R 8085   4.648   2.344   9.038  2.5361  0.6569  1.0966
   85SAPS  H17S 8086   4.697   2.506   9.002  1.0428 -0.9883  2.2374
   85SAPS  C218 8087   4.533   2.438   8.887  0.5103 -0.6272  0.2526
   85SAPS  H18R 8088   4.433   2.390   8.896  0.0218 -0.0827 -1.7678
   85SAPS  H18S 8089   4.587   2.378   8.811 -0.3374 -0.1349 -0.7664
   85SAPS  C219 8090   4.524   2.575   8.817 -0.1565  0.3980  0.0813
   85SAPS  H19R 8091   4.634   2.590   8.814 -0.0573  0.3041  1.9338
   85SAPS  H19S 8092   4.465   2.637   8.888  1.2958  0.6863  1.1028
   85SAPS  C220 8093   4.466   2.581   8.677 -0.5297  0.7694 -0.3794
   85SAPS  H20R 8094   4.365   2.535   8.673 -1.6462  3.1288 -1.0784
   85SAPS  H20S 8095   4.536   2.524   8.613  1.6071  2.9977 -0.1998
   85SAPS  H20T 8096   4.449   2.682   8.633  1.2811  0.4024 -2.0294
   85SAPS   C33 8097   4.957   1.678  10.330  0.3745  0.1579  1.0577
   85SAPS   H3X 8098   4.862   1.731  10.348  0.4140  1.1034 -1.1975
   85SAPS   H3Y 8099   4.926   1.578  10.293  3.4164  0.3630 -2.7716
   85SAPS   C34 8100   5.036   1.762  10.224 -0.1977 -0.0416  0.2988
   85SAPS   H4X 8101   5.145   1.741  10.212 -0.0084  0.3354  1.2799
   85SAPS   H4Y 8102   5.041   1.868  10.257  1.0255 -0.4033  1.3903
   85SAPS   C35 8103   4.965   1.766  10.090 -0.2176 -0.1459 -0.4496
   85SAPS   H5X 8104   4.866   1.816  10.091 -0.6651 -0.9665 -1.5962
   85SAPS   H5Y 8105   4.966   1.661  10.053  2.3274  0.1427 -1.4330
   85SAPS   C36 8106   5.050   1.845   9.989 -0.4089 -0.6326  0.9120
   85SAPS   H6X 8107   5.150   1.797   9.996 -0.8012 -1.7975 -0.7682
   85SAPS   H6Y 8108   5.071   1.944  10.033 -0.5135  0.6719 -1.7917
   85SAPS   C37 8109   5.002   1.873   9.843  0.0475  0.9358  0.0713
   85SAPS   H7X 8110   4.919   1.947   9.840 -1.0175 -0.1652  1.2009
   85SAPS   H7Y 8111   4.956   1.779   9.806  0.8288  0.8187 -0.6218
   85SAPS   C38 8112   5.109   1.914   9.742 -0.0035 -0.2865  0.7773
   85SAPS   H8X 8113   5.189   1.837   9.737  2.4519  2.0699  0.7908
   85SAPS   H8Y 8114   5.162   2.005   9.778 -2.2047  1.5190 -0.2978
   85SAPS   C39 8115   5.057   1.934   9.592 -0.0328  0.0106  0.0587
   85SAPS   H9X 8116   5.018   2.037   9.577  0.1136 -0.0749 -0.9691
   85SAPS   H9Y 8117   4.969   1.867   9.581 -0.8363  0.5854  2.2640
   85SAPS  C310 8118   5.159   1.918   9.478  0.4706 -0.4814 -0.2483
   85SAPS  H10X 8119   5.197   1.814   9.482  0.8969 -0.3187  0.0393
   85SAPS  H10Y 8120   5.247   1.985   9.487  0.6070 -0.7724  0.6742
   85SAPS  C311 8121   5.082   1.954   9.350  0.2165  0.6172  0.0026
   85SAPS  H11X 8122   5.064   2.063   9.365  0.2324  0.3899  1.9678
   85SAPS  H11Y 8123   4.985   1.902   9.335  0.8259 -1.0519  1.5659
   85SAPS  C312 8124   5.167   1.942   9.224  0.5204 -0.3684 -0.2979
   85SAPS  H12X 8125   5.191   1.838   9.195  0.3638 -0.7644  0.9074
   85SAPS  H12Y 8126   5.267   1.986   9.241  0.2795  0.5445 -1.1439
   85SAPS  C313 8127   5.121   2.027   9.107 -0.0932 -0.7607 -0.0291
   85SAPS  H13X 8128   5.099   2.131   9.138 -0.9616 -0.4349 -1.6040
   85SAPS  H13Y 8129   5.022   1.990   9.074 -1.3066  1.1801  1.2377
   85SAPS  C314 8130   5.227   2.031   8.990 -0.0700 -0.4591 -0.0142
   85SAPS  H14X 8131   5.246   1.933   8.942  0.8495  0.2117 -1.0615
   85SAPS  H14Y 8132   5.327   2.054   9.035 -0.3016 -1.4038  1.0487
   85SAPS  C315 8133   5.196   2.143   8.892 -0.2662 -0.0037 -0.0529
   85SAPS  H15X 8134   5.200   2.247   8.931 -1.4119 -0.1079  0.3756
   85SAPS  H15Y 8135   5.086   2.139   8.872 -0.2210  2.7412 -1.4515
   85SAPS  C316 8136   5.273   2.145   8.762 -0.3211  0.5681 -0.5797
   85SAPS  H16X 8137   5.265   2.043   8.718  0.5577  1.1588 -2.1997
   85SAPS  H16Y 8138   5.379   2.159   8.794 -0.3105 -0.9982  0.2121
   85SAPS  C317 8139   5.232   2.249   8.659  0.4305 -0.2645  0.4243
   85SAPS  H17X 8140   5.227   2.346   8.713 -1.1822  0.4826 -1.0108
   85SAPS  H17Y 8141   5.127   2.226   8.631  0.4064 -0.6292  0.8051
   85SAPS  C318 8142   5.330   2.258   8.545  0.2571 -0.1066  1.1762
   85SAPS  H18X 8143   5.315   2.162   8.492  0.6663 -0.3594  1.5079
   85SAPS  H18Y 8144   5.435   2.249   8.582  1.2939 -0.7135 -1.6700
   85SAPS  H18Z 8145   5.312   2.345   8.479 -1.6645 -1.3330  0.0078
   86SAPS     N 8146   0.802   2.368  11.029 -0.2141 -0.0777  0.1021
   86SAPS   HN1 8147   0.853   2.395  11.115 -1.4732  0.2340  0.7782
   86SAPS   HN2 8148   0.724   2.433  11.007  1.1463  0.7773 -2.6724
   86SAPS   HN3 8149   0.768   2.272  11.052  0.4491 -0.4468 -0.4288
   86SAPS   C12 8150   0.897   2.372  10.904  0.3274 -0.3382  0.0721
   86SAPS  H12A 8151   0.933   2.473  10.893 -2.0258  0.7918  1.8612
   86SAPS   C13 8152   1.030   2.276  10.917  0.2270 -1.1249 -0.0471
   86SAPS  O13A 8153   1.043   2.192  11.010  0.1347  0.3968  0.5212
   86SAPS  O13B 8154   1.120   2.301  10.835 -0.3541  0.4757 -0.4919
   86SAPS   C11 8155   0.816   2.339  10.780 -0.1034  0.1341  0.1795
   86SAPS  H11A 8156   0.784   2.233  10.789  1.0702 -0.4544 -1.7793
   86SAPS  H11B 8157   0.877   2.348  10.687 -1.0556  0.2651 -0.4444
   86SAPS     P 8158   0.661   2.495  10.626 -0.3172  0.0712  0.2065
   86SAPS   O13 8159   0.672   2.392  10.519 -0.8964 -0.2867  0.1477
   86SAPS   O14 8160   0.530   2.561  10.632 -0.1125  0.7822  0.1388
   86SAPS   O12 8161   0.695   2.427  10.765  0.3390  1.2044  0.1870
   86SAPS   O11 8162   0.777   2.597  10.615  0.4020 -1.3970 -0.8749
   86SAPS    C1 8163   0.901   2.577  10.556  0.6209 -0.2649 -0.0585
   86SAPS    HA 8164   0.981   2.580  10.633  0.0138 -1.9161  0.6702
   86SAPS    HB 8165   0.904   2.479  10.503  1.2584  0.0662 -0.6485
   86SAPS    C2 8166   0.931   2.682  10.441 -0.5762 -0.2326 -0.0746
   86SAPS    HS 8167   0.956   2.781  10.485 -1.3069  1.8971 -3.9721
   86SAPS   O21 8168   0.811   2.704  10.370 -0.2697  0.1524  0.1657
   86SAPS   C21 8169   0.727   2.802  10.401  0.0550 -0.2329  0.1991
   86SAPS   O22 8170   0.759   2.902  10.461  0.5002  0.9851  0.7075
   86SAPS   C22 8171   0.583   2.769  10.353  0.3938 -0.0823  0.2435
   86SAPS   H2R 8172   0.571   2.663  10.322 -0.8071  0.3579 -0.8776
   86SAPS   H2S 8173   0.516   2.780  10.441 -0.9863 -2.3733 -0.4235
   86SAPS    C3 8174   1.031   2.641  10.333 -0.0325  0.6124 -0.1296
   86SAPS    HX 8175   1.015   2.533  10.312  1.3513  0.3136  0.2555
   86SAPS    HY 8176   1.133   2.661  10.373  0.3502 -0.1926 -0.6802
   86SAPS   O31 8177   1.011   2.716  10.216 -0.1827  0.1597 -0.9060
   86SAPS   C31 8178   1.054   2.839  10.209  0.0380 -0.4671  0.1568
   86SAPS   O32 8179   1.130   2.896  10.285 -0.9556  0.1275  0.2424
   86SAPS   C32 8180   0.979   2.909  10.097 -0.0349 -0.2483 -0.0920
   86SAPS   H2X 8181   0.921   2.995  10.135  0.0192 -0.3035  0.1134
   86SAPS   H2Y 8182   0.916   2.832  10.048 -0.4070  0.3154 -0.5103
   86SAPS   C23 8183   0.524   2.870  10.251 -0.4151 -0.0889  0.6049
   86SAPS   H3R 8184   0.485   2.953  10.314  2.1796  1.3740  0.4274
   86SAPS   H3S 8185   0.431   2.818  10.219 -2.6251  3.7357  0.1712
   86SAPS   C24 8186   0.602   2.921  10.133 -0.6774  0.5802  0.0245
   86SAPS   H4R 8187   0.692   2.975  10.170  0.1702 -0.9645  0.2983
   86SAPS   H4S 8188   0.548   2.994  10.068 -0.0775  0.0938 -1.0537
   86SAPS   C25 8189   0.648   2.803  10.056  0.4412  0.5915  0.1736
   86SAPS   H5R 8190   0.718   2.746  10.119 -0.6695 -0.5220  0.4225
   86SAPS   C26 8191   0.632   2.764   9.923 -0.0479 -0.4810  0.5286
   86SAPS   H6R 8192   0.686   2.678   9.882 -1.4717 -0.6179 -1.1856
   86SAPS   C27 8193   0.551   2.835   9.811  0.4664 -0.5772 -0.5519
   86SAPS   H7R 8194   0.456   2.859   9.864  1.6886  0.6422  1.2005
   86SAPS   H7S 8195   0.525   2.767   9.728  3.1015 -0.8699 -1.2135
   86SAPS   C28 8196   0.607   2.957   9.736  0.1874 -0.1309  0.7324
   86SAPS   H8R 8197   0.583   3.058   9.771 -0.7941 -0.3327  0.6572
   86SAPS   C29 8198   0.688   2.960   9.625  0.2652 -0.3321  0.4437
   86SAPS   H9R 8199   0.706   3.058   9.578 -0.9154 -1.1233 -1.8346
   86SAPS  C210 8200   0.739   2.838   9.549 -0.4760  0.3525  0.0169
   86SAPS  H10R 8201   0.655   2.812   9.481 -1.0147  3.5867 -0.7385
   86SAPS  H10S 8202   0.772   2.756   9.617  0.4267  1.3387  0.7990
   86SAPS  C211 8203   0.862   2.881   9.480  0.3533 -0.2816  0.5700
   86SAPS  H11R 8204   0.956   2.841   9.520  0.3913 -0.8211 -0.0432
   86SAPS  C212 8205   0.869   2.956   9.370  0.5088  0.5687  0.4299
   86SAPS  H12R 8206   0.965   2.988   9.325  1.7916 -2.0102  1.1421
   86SAPS  C213 8207   0.753   3.010   9.291 -0.2665  0.0393  0.2121
   86SAPS  H13R 8208   0.795   3.105   9.251 -0.0478 -0.6789 -1.3623
   86SAPS  H13S 8209   0.674   3.046   9.360 -1.1484 -0.5733 -0.4400
   86SAPS  C214 8210   0.709   2.900   9.186 -0.0053  1.1070 -1.0928
   86SAPS  H14R 8211   0.619   2.840   9.203  0.4570  0.9972  1.4027
   86SAPS  C215 8212   0.759   2.897   9.061 -0.3128 -0.5058  0.6162
   86SAPS  H15R 8213   0.726   2.822   8.987  0.5033 -0.1446 -0.1305
   86SAPS  C216 8214   0.854   2.990   9.000 -0.9029  0.0291  0.1704
   86SAPS  H16R 8215   0.934   2.933   8.948 -0.9631 -0.4534  0.5989
   86SAPS  H16S 8216   0.907   3.048   9.079  1.3105 -0.9615 -0.4854
   86SAPS  C217 8217   0.797   3.085   8.895  0.0797 -0.7126 -0.6735
   86SAPS  H17R 8218   0.877   3.151   8.856  0.2856  0.4741  1.5835
   86SAPS  H17S 8219   0.729   3.157   8.947  0.3950  0.4468 -1.8388
   86SAPS  C218 8220   0.733   3.016   8.776 -0.4672  0.2751  0.0327
   86SAPS  H18R 8221   0.657   2.940   8.804 -2.0651  1.6065 -0.5606
   86SAPS  H18S 8222   0.813   2.954   8.731 -0.9174 -1.4832  1.5263
   86SAPS  C219 8223   0.673   3.112   8.674  0.1074  0.5699  0.0708
   86SAPS  H19R 8224   0.651   3.041   8.591  0.9962 -0.9580  1.1065
   86SAPS  H19S 8225   0.747   3.189   8.643 -0.8637  1.7216  0.5516
   86SAPS  C220 8226   0.541   3.194   8.711 -0.8440  0.2645 -0.2898
   86SAPS  H20R 8227   0.494   3.244   8.623 -1.6566 -2.1028 -1.2685
   86SAPS  H20S 8228   0.568   3.276   8.781 -2.6479 -0.7529  1.7314
   86SAPS  H20T 8229   0.460   3.125   8.742 -0.7800  0.1378 -0.4042
   86SAPS   C33 8230   1.070   2.968   9.992  0.1641  0.5807  0.1160
   86SAPS   H3X 8231   1.140   2.898   9.942  0.7284  0.4716  1.0533
   86SAPS   H3Y 8232   1.130   3.044  10.045 -0.9257  2.1506 -0.7981
   86SAPS   C34 8233   1.005   3.040   9.870 -0.8101  0.4885 -0.3530
   86SAPS   H4X 8234   0.967   3.142   9.895 -0.2950  0.7113 -0.4745
   86SAPS   H4Y 8235   0.919   2.980   9.831 -0.2945  0.9454 -2.3201
   86SAPS   C35 8236   1.101   3.058   9.747  0.1292  0.1822  0.3599
   86SAPS   H5X 8237   1.105   2.970   9.679 -2.0709  0.3809 -0.0909
   86SAPS   H5Y 8238   1.206   3.086   9.771 -0.1233  1.0803  0.4238
   86SAPS   C36 8239   1.054   3.180   9.671  0.4428 -0.0041  0.5402
   86SAPS   H6X 8240   1.077   3.271   9.731  1.3804 -0.5144  0.9838
   86SAPS   H6Y 8241   0.945   3.179   9.651  0.7390  0.8131 -1.2716
   86SAPS   C37 8242   1.126   3.209   9.538 -0.3016 -0.1837  0.0596
   86SAPS   H7X 8243   1.151   3.116   9.484 -0.6296  0.9938 -2.2625
   86SAPS   H7Y 8244   1.216   3.270   9.558  1.7675 -2.3638 -1.9965
   86SAPS   C38 8245   1.057   3.308   9.445  0.6091 -0.1316  0.0871
   86SAPS   H8X 8246   1.088   3.412   9.466 -2.5803  1.5147 -2.3467
   86SAPS   H8Y 8247   0.946   3.309   9.454  0.4994 -0.0782 -1.0607
   86SAPS   C39 8248   1.099   3.282   9.301 -0.0064  0.1507 -0.0394
   86SAPS   H9X 8249   1.082   3.174   9.276  2.9856 -0.9128  2.0162
   86SAPS   H9Y 8250   1.208   3.300   9.298 -0.0916  0.8013  0.6892
   86SAPS  C310 8251   1.037   3.380   9.193 -0.0075  0.4377  0.0010
   86SAPS  H10X 8252   1.073   3.479   9.227 -0.4089  0.2307  1.0684
   86SAPS  H10Y 8253   0.926   3.383   9.186 -0.0083  1.3003  0.3093
   86SAPS  C311 8254   1.088   3.349   9.051  0.0825 -0.2660 -0.4312
   86SAPS  H11X 8255   1.053   3.247   9.025 -1.1249 -0.0696  0.3230
   86SAPS  H11Y 8256   1.198   3.338   9.043  0.1501 -0.0335  0.1869
   86SAPS  C312 8257   1.037   3.451   8.947 -0.9520  0.4174 -0.3334
   86SAPS  H12X 8258   1.090   3.425   8.853  2.2952  0.8058  1.2584
   86SAPS  H12Y 8259   1.068   3.556   8.966 -0.5748  0.6581 -2.1135
   86SAPS  C313 8260   0.885   3.457   8.911 -1.0959  0.0387 -0.5718
   86SAPS  H13X 8261   0.832   3.455   9.009  0.5610  1.1305  0.4032
   86SAPS  H13Y 8262   0.859   3.368   8.850 -1.2435  0.0274 -0.4904
   86SAPS  C314 8263   0.836   3.579   8.837 -0.0915 -0.5701 -0.2279
   86SAPS  H14X 8264   0.889   3.584   8.739  1.4430  2.2990  0.6159
   86SAPS  H14Y 8265   0.859   3.672   8.894 -3.5118  1.0634 -1.2111
   86SAPS  C315 8266   0.682   3.587   8.824 -0.2565  1.1876  0.2186
   86SAPS  H15X 8267   0.640   3.592   8.927  1.8984  0.9401  1.1479
   86SAPS  H15Y 8268   0.648   3.493   8.777 -1.0823  1.6563 -0.1507
   86SAPS  C316 8269   0.629   3.715   8.755 -0.6525  0.5900 -0.3129
   86SAPS  H16X 8270   0.666   3.712   8.651 -0.7926 -0.9877 -0.3509
   86SAPS  H16Y 8271   0.672   3.807   8.800 -0.5999 -0.0245  0.9537
   86SAPS  C317 8272   0.472   3.717   8.748 -0.4000  0.3908 -0.0710
   86SAPS  H17X 8273   0.440   3.816   8.710  2.1761  2.2107  2.0746
   86SAPS  H17Y 8274   0.429   3.704   8.850 -0.9598 -1.8401 -0.5593
   86SAPS  C318 8275   0.397   3.605   8.664  0.2951 -0.7900 -0.3203
   86SAPS  H18X 8276   0.437   3.598   8.560 -0.0583 -0.9063 -0.4491
   86SAPS  H18Y 8277   0.288   3.622   8.669  0.4349  0.0243  0.0824
   86SAPS  H18Z 8278   0.409   3.501   8.704 -1.4346 -0.6425  0.6482
   87SAPS     N 8279   0.353   2.682  11.043 -0.0159  0.2541  0.1709
   87SAPS   HN1 8280   0.352   2.657  10.942 -2.0298 -1.0549  0.4735
   87SAPS   HN2 8281   0.332   2.605  11.109  1.2829  0.4939  0.9043
   87SAPS   HN3 8282   0.284   2.760  11.043 -0.5392 -0.0190 -3.7187
   87SAPS   C12 8283   0.476   2.763  11.079 -0.0616  0.1829 -0.3270
   87SAPS  H12A 8284   0.452   2.801  11.177 -2.5044 -1.9467  0.0238
   87SAPS   C13 8285   0.611   2.683  11.093 -0.2295 -0.3939  0.1065
   87SAPS  O13A 8286   0.616   2.568  11.046 -0.0457  0.0083  0.1501
   87SAPS  O13B 8287   0.713   2.752  11.121 -0.1615 -0.3306 -0.6185
   87SAPS   C11 8288   0.491   2.880  10.980 -0.4795 -0.1064  0.2473
   87SAPS  H11A 8289   0.485   2.846  10.875  0.2542 -1.7242  0.7112
   87SAPS  H11B 8290   0.593   2.923  10.983  0.5025 -1.6144 -4.2538
   87SAPS     P 8291   0.393   3.116  10.945 -0.0730  0.2126  0.0595
   87SAPS   O13 8292   0.294   3.210  11.005  0.1320  0.0769  0.1071
   87SAPS   O14 8293   0.538   3.162  10.943  0.0543  0.4417  0.0652
   87SAPS   O12 8294   0.386   2.971  11.007  0.6123 -1.2978  0.3634
   87SAPS   O11 8295   0.358   3.087  10.793 -0.3087  0.0142 -0.2043
   87SAPS    C1 8296   0.450   3.097  10.692  0.7463  0.0442  0.1072
   87SAPS    HA 8297   0.542   3.148  10.727 -1.1592  1.6199  3.2511
   87SAPS    HB 8298   0.483   2.999  10.651 -0.3650 -0.2473 -0.1344
   87SAPS    C2 8299   0.414   3.188  10.573  0.6422 -0.2858 -0.5625
   87SAPS    HS 8300   0.400   3.287  10.622  0.0856 -1.6618  2.2623
   87SAPS   O21 8301   0.289   3.142  10.515  0.2013 -0.3262  0.2715
   87SAPS   C21 8302   0.231   3.225  10.434  0.4753 -0.3137 -0.9851
   87SAPS   O22 8303   0.252   3.344  10.427  0.5736 -0.0045 -0.2871
   87SAPS   C22 8304   0.107   3.157  10.373 -0.0834  0.2831  0.2776
   87SAPS   H2R 8305   0.110   3.055  10.416  1.0894  0.1532 -0.0541
   87SAPS   H2S 8306   0.017   3.208  10.413 -0.1014 -0.8051  1.6666
   87SAPS    C3 8307   0.524   3.187  10.464  0.2172  0.8126 -0.4502
   87SAPS    HX 8308   0.559   3.083  10.447  0.4876  0.5832  1.3116
   87SAPS    HY 8309   0.599   3.252  10.515  1.3442  1.4051 -2.7270
   87SAPS   O31 8310   0.491   3.237  10.336  0.4125  0.0428 -0.4834
   87SAPS   C31 8311   0.604   3.266  10.268 -0.3344 -0.6923  0.3588
   87SAPS   O32 8312   0.718   3.231  10.304 -0.0687  0.1039 -0.2895
   87SAPS   C32 8313   0.572   3.335  10.134  0.0929 -0.6293 -0.0460
   87SAPS   H2X 8314   0.566   3.444  10.155  1.7244  0.4370 -4.1433
   87SAPS   H2Y 8315   0.468   3.307  10.109  0.2704 -1.4774  0.1247
   87SAPS   C23 8316   0.101   3.130  10.219 -0.2331  0.0132  0.8319
   87SAPS   H3R 8317   0.078   3.227  10.171  1.2740 -0.7043 -1.4869
   87SAPS   H3S 8318   0.021   3.058  10.192 -1.1477  1.4893 -0.6409
   87SAPS   C24 8319   0.235   3.091  10.160  0.6641  1.6519 -0.3619
   87SAPS   H4R 8320   0.270   3.010  10.228 -1.8835 -0.1182 -1.0076
   87SAPS   H4S 8321   0.314   3.168  10.175  0.1682  2.1939 -0.5143
   87SAPS   C25 8322   0.250   3.033  10.019  0.1138 -0.6865 -0.2727
   87SAPS   H5R 8323   0.242   2.923  10.009 -2.1779 -0.5077 -0.8011
   87SAPS   C26 8324   0.271   3.105   9.906  0.5285 -0.5950  0.2659
   87SAPS   H6R 8325   0.301   3.053   9.814 -0.3953 -0.0965 -0.3237
   87SAPS   C27 8326   0.280   3.254   9.895 -0.1272  0.3012  0.3088
   87SAPS   H7R 8327   0.384   3.256   9.856  0.4965 -0.0898  1.8851
   87SAPS   H7S 8328   0.291   3.319   9.985  0.0789  0.4687  0.1641
   87SAPS   C28 8329   0.175   3.318   9.804  0.6065  0.4857  0.0550
   87SAPS   H8R 8330   0.074   3.326   9.846  0.1486  1.1130 -1.1180
   87SAPS   C29 8331   0.207   3.368   9.681  0.3850 -0.2312 -0.2496
   87SAPS   H9R 8332   0.134   3.434   9.632  0.7059 -0.0004 -0.4176
   87SAPS  C210 8333   0.344   3.364   9.611 -0.0945  0.1040 -0.2377
   87SAPS  H10R 8334   0.426   3.400   9.677 -0.3090 -0.7460  0.5150
   87SAPS  H10S 8335   0.340   3.436   9.526  4.8454  0.4844 -0.4603
   87SAPS  C211 8336   0.385   3.232   9.549 -0.6770  0.8449  0.0505
   87SAPS  H11R 8337   0.337   3.147   9.598  2.8555 -1.0499  0.5659
   87SAPS  C212 8338   0.473   3.205   9.449  0.3001 -0.2648 -0.0273
   87SAPS  H12R 8339   0.486   3.097   9.431  0.7349 -0.5707  1.8529
   87SAPS  C213 8340   0.554   3.304   9.358 -0.4579  0.3074  0.1278
   87SAPS  H13R 8341   0.662   3.288   9.383 -0.2070  1.4263 -0.2184
   87SAPS  H13S 8342   0.538   3.408   9.393  1.4227  0.2129  1.4480
   87SAPS  C214 8343   0.520   3.298   9.212  0.1748 -0.1935  0.0120
   87SAPS  H14R 8344   0.558   3.210   9.158 -0.4152 -1.5398  1.6677
   87SAPS  C215 8345   0.451   3.391   9.143  0.2845  0.4622 -0.1478
   87SAPS  H15R 8346   0.426   3.371   9.038  0.4391  0.9352 -0.2792
   87SAPS  C216 8347   0.383   3.511   9.206  0.0185  0.4071 -0.1613
   87SAPS  H16R 8348   0.424   3.612   9.188 -0.4017  0.5046 -0.5741
   87SAPS  H16S 8349   0.383   3.497   9.317 -0.1512  1.2301 -0.0491
   87SAPS  C217 8350   0.234   3.526   9.168 -0.3235  0.7195 -0.2711
   87SAPS  H17R 8351   0.190   3.613   9.221 -1.2891  0.7407 -1.0699
   87SAPS  H17S 8352   0.190   3.431   9.205  1.9052 -0.7713 -1.2071
   87SAPS  C218 8353   0.212   3.533   9.024 -0.0751 -0.2243  0.7390
   87SAPS  H18R 8354   0.249   3.442   8.973  1.9977  0.6819  0.5158
   87SAPS  H18S 8355   0.277   3.615   8.986  0.1363 -0.0984  1.3536
   87SAPS  C219 8356   0.066   3.565   8.984 -0.3211  0.1901  0.3670
   87SAPS  H19R 8357   0.042   3.655   9.044 -0.7036 -0.6520  1.5104
   87SAPS  H19S 8358  -0.002   3.482   9.013 -1.5532  0.2064 -2.1304
   87SAPS  C220 8359   0.056   3.605   8.836 -0.7781  0.2675 -0.7572
   87SAPS  H20R 8360  -0.045   3.649   8.822 -0.6427  1.2281  0.9139
   87SAPS  H20S 8361   0.073   3.516   8.772  4.5532  1.0957 -0.9852
   87SAPS  H20T 8362   0.129   3.688   8.820 -1.6659  0.9602 -1.2468
   87SAPS   C33 8363   0.670   3.302  10.015 -0.2402 -0.4397  0.3952
   87SAPS   H3X 8364   0.603   3.325   9.928 -2.4195  2.6755  2.6586
   87SAPS   H3Y 8365   0.688   3.194   9.999  1.7486  0.0545 -1.1080
   87SAPS   C34 8366   0.806   3.376  10.025  0.1716 -0.4003 -0.1420
   87SAPS   H4X 8367   0.875   3.325   9.955 -1.4864  0.5637 -2.6186
   87SAPS   H4Y 8368   0.849   3.364  10.126 -0.8430 -2.5969  0.0867
   87SAPS   C35 8369   0.792   3.523   9.998 -0.2550  0.6046 -0.2066
   87SAPS   H5X 8370   0.888   3.578  10.001 -0.4717  0.9516  2.0670
   87SAPS   H5Y 8371   0.734   3.563  10.084  0.3626  0.7891  0.1323
   87SAPS   C36 8372   0.725   3.556   9.860 -0.4947 -0.2397 -0.6694
   87SAPS   H6X 8373   0.727   3.664   9.836 -1.9557 -0.2194 -0.7557
   87SAPS   H6Y 8374   0.622   3.514   9.863 -0.4086 -0.4286 -0.0715
   87SAPS   C37 8375   0.786   3.480   9.740  0.0950 -0.0736  0.1970
   87SAPS   H7X 8376   0.775   3.370   9.753  0.6617 -0.6188 -2.9221
   87SAPS   H7Y 8377   0.894   3.501   9.724 -0.0596  1.3318  0.8698
   87SAPS   C38 8378   0.721   3.522   9.607  0.3323  0.9897 -0.3869
   87SAPS   H8X 8379   0.614   3.495   9.615  0.6494 -0.5851 -0.9594
   87SAPS   H8Y 8380   0.770   3.463   9.526 -1.4986  0.1218 -0.9278
   87SAPS   C39 8381   0.735   3.663   9.566 -0.2070  0.1748 -0.0096
   87SAPS   H9X 8382   0.840   3.694   9.581  0.8067 -2.5582 -0.7674
   87SAPS   H9Y 8383   0.666   3.720   9.632 -0.6281  1.6980 -1.6803
   87SAPS  C310 8384   0.696   3.688   9.422 -0.0448 -0.6878 -0.3173
   87SAPS  H10X 8385   0.683   3.798   9.413 -0.6009 -0.8493 -1.7733
   87SAPS  H10Y 8386   0.593   3.648   9.411  0.7792 -2.4723 -2.0843
   87SAPS  C311 8387   0.785   3.636   9.304 -0.1634  0.0349  0.2661
   87SAPS  H11X 8388   0.722   3.645   9.214 -0.8575  0.1748  0.7610
   87SAPS  H11Y 8389   0.809   3.528   9.319 -0.6932 -0.3825 -1.6343
   87SAPS  C312 8390   0.912   3.710   9.288 -0.1952 -0.2321 -0.6422
   87SAPS  H12X 8391   0.972   3.671   9.203 -1.7731 -2.2173 -0.9399
   87SAPS  H12Y 8392   0.971   3.706   9.381 -1.2150 -0.8198  0.0002
   87SAPS  C313 8393   0.889   3.857   9.264  0.2963 -0.3503  0.1654
   87SAPS  H13X 8394   0.872   3.903   9.364  2.6712 -2.3709  1.6376
   87SAPS  H13Y 8395   0.804   3.872   9.194 -0.5976 -1.5397  0.9328
   87SAPS  C314 8396   1.015   3.925   9.215 -0.4325 -0.5501 -0.3190
   87SAPS  H14X 8397   1.114   3.896   9.256  0.0801 -0.3601 -1.3759
   87SAPS  H14Y 8398   1.001   4.033   9.237 -0.8369 -0.6329 -0.1691
   87SAPS  C315 8399   1.023   3.910   9.065 -0.4871  0.0293  0.0679
   87SAPS  H15X 8400   0.937   3.951   9.008  0.7513  2.4211 -0.2181
   87SAPS  H15Y 8401   1.028   3.801   9.045 -1.7717  0.1695 -1.1712
   87SAPS  C316 8402   1.139   3.974   8.993  0.1414 -0.3651  0.3618
   87SAPS  H16X 8403   1.222   3.899   8.998 -1.2609 -1.9313  1.1917
   87SAPS  H16Y 8404   1.164   4.070   9.042  0.3789 -1.3083  2.1850
   87SAPS  C317 8405   1.106   4.000   8.845  0.3212  0.0350  0.8653
   87SAPS  H17X 8406   1.201   4.040   8.805  2.1979 -1.4023  3.5394
   87SAPS  H17Y 8407   1.033   4.083   8.844 -0.8942 -0.9951 -0.0279
   87SAPS  C318 8408   1.055   3.881   8.768  0.3821  0.3156  0.6869
   87SAPS  H18X 8409   1.064   3.907   8.660 -0.5887  1.3162  0.8242
   87SAPS  H18Y 8410   0.945   3.865   8.777  0.4487 -1.2349 -0.8239
   87SAPS  H18Z 8411   1.119   3.791   8.784  2.2847  1.3938 -0.4705
   88SAPS     N 8412   2.813   4.722  11.290 -0.1724 -0.1589 -0.3466
   88SAPS   HN1 8413   2.871   4.672  11.360 -0.7937 -0.2868  0.0874
   88SAPS   HN2 8414   2.721   4.735  11.337 -0.6398  1.3900 -1.5856
   88SAPS   HN3 8415   2.789   4.655  11.214  1.2795 -0.8022 -0.2628
   88SAPS   C12 8416   2.888   4.843  11.266 -0.8133  0.0487 -0.2555
   88SAPS  H12A 8417   2.843   4.904  11.189 -1.7034 -0.5877 -0.2541
   88SAPS   C13 8418   2.902   4.935  11.384 -0.5349  0.2000 -0.6943
   88SAPS  O13A 8419   2.850   4.896  11.498 -0.0145 -0.4683  0.2612
   88SAPS  O13B 8420   2.973   5.040  11.376  0.0301 -0.2874 -0.6146
   88SAPS   C11 8421   3.029   4.785  11.236  0.8326 -0.1383  0.1035
   88SAPS  H11A 8422   3.075   4.753  11.333 -0.6017  1.3567  1.3391
   88SAPS  H11B 8423   3.082   4.880  11.212  2.8764 -1.7876 -2.3652
   88SAPS     P 8424   3.180   4.673  11.058 -0.0381  0.1901  0.1674
   88SAPS   O13 8425   3.280   4.662  11.168  0.1854  0.0751  0.3376
   88SAPS   O14 8426   3.154   4.559  10.975  0.3871  0.6872  0.1014
   88SAPS   O12 8427   3.035   4.697  11.117 -0.7943  0.7399 -0.2554
   88SAPS   O11 8428   3.224   4.795  10.967 -0.3253  0.2624 -0.0107
   88SAPS    C1 8429   3.135   4.880  10.889 -0.2209 -0.8059  0.4555
   88SAPS    HA 8430   3.058   4.921  10.958 -0.1111 -0.4933  0.3935
   88SAPS    HB 8431   3.192   4.957  10.832 -3.6624  0.1878 -1.9294
   88SAPS    C2 8432   3.066   4.802  10.770  0.1110 -0.1483  0.5524
   88SAPS    HS 8433   2.996   4.735  10.824 -0.5930  0.3969  0.3358
   88SAPS   O21 8434   3.167   4.734  10.694  1.0135  0.4377  0.0409
   88SAPS   C21 8435   3.130   4.615  10.645 -0.4546 -0.1978 -0.4577
   88SAPS   O22 8436   3.025   4.561  10.662  0.0555 -0.3659 -0.1089
   88SAPS   C22 8437   3.243   4.552  10.571  0.0920 -0.4721 -0.1649
   88SAPS   H2R 8438   3.314   4.632  10.539 -0.2278 -0.4459 -0.8082
   88SAPS   H2S 8439   3.294   4.490  10.648 -1.6868  0.2794  1.7081
   88SAPS    C3 8440   2.980   4.891  10.677  0.0865 -1.0037 -0.7957
   88SAPS    HX 8441   3.046   4.957  10.616 -1.6675 -0.2413 -1.9436
   88SAPS    HY 8442   2.916   4.949  10.747 -2.1400 -0.1584 -3.3720
   88SAPS   O31 8443   2.890   4.811  10.605 -0.2006  0.4596  0.2563
   88SAPS   C31 8444   2.883   4.828  10.471 -0.0276 -0.0519 -0.0437
   88SAPS   O32 8445   2.945   4.911  10.404 -0.4868  0.8592  0.6722
   88SAPS   C32 8446   2.788   4.712  10.427  1.1530  0.0661  0.0614
   88SAPS   H2X 8447   2.700   4.717  10.495 -0.3595  0.7488 -1.8442
   88SAPS   H2Y 8448   2.844   4.621  10.455 -0.7190 -0.6217  1.8226
   88SAPS   C23 8449   3.201   4.477  10.439  0.7593 -0.6246  0.8133
   88SAPS   H3R 8450   3.108   4.417  10.452 -0.2909  0.5899 -0.6361
   88SAPS   H3S 8451   3.284   4.408  10.413  0.9602 -0.6165  1.4190
   88SAPS   C24 8452   3.173   4.562  10.317 -0.4042 -0.3117  0.3674
   88SAPS   H4R 8453   3.118   4.653  10.350  2.1979  1.6377 -0.3974
   88SAPS   H4S 8454   3.106   4.502  10.252 -0.4452 -0.5857  0.6559
   88SAPS   C25 8455   3.303   4.615  10.251 -0.1267 -0.1523 -0.0599
   88SAPS   H5R 8456   3.349   4.696  10.310 -1.2219  0.5960 -0.1937
   88SAPS   C26 8457   3.344   4.600  10.123 -0.5171  1.0375 -0.1133
   88SAPS   H6R 8458   3.445   4.639  10.100 -0.4401  0.8703 -0.0594
   88SAPS   C27 8459   3.263   4.531  10.014  0.6112 -0.1485  0.5148
   88SAPS   H7R 8460   3.156   4.528  10.044  0.3349  0.0853 -0.4125
   88SAPS   H7S 8461   3.303   4.430   9.993  1.2662  0.5126 -1.7618
   88SAPS   C28 8462   3.266   4.614   9.888  0.1982 -1.2418 -0.1265
   88SAPS   H8R 8463   3.198   4.700   9.886 -0.3289 -1.6614 -2.0632
   88SAPS   C29 8464   3.327   4.589   9.771 -0.0122 -0.3688  0.3580
   88SAPS   H9R 8465   3.333   4.674   9.700  0.3772  0.5283  1.4254
   88SAPS  C210 8466   3.424   4.476   9.734  0.0897  0.2171 -0.2795
   88SAPS  H10R 8467   3.421   4.454   9.625 -0.6025  2.0021 -0.6646
   88SAPS  H10S 8468   3.377   4.387   9.779 -0.9878  0.8792 -0.0695
   88SAPS  C211 8469   3.567   4.473   9.788  0.0732  0.1544 -0.2585
   88SAPS  H11R 8470   3.565   4.504   9.894 -1.6538  3.0972 -1.0097
   88SAPS  C212 8471   3.679   4.434   9.727  0.5081  0.1968 -0.5643
   88SAPS  H12R 8472   3.767   4.418   9.791 -1.3888  0.1161  2.1974
   88SAPS  C213 8473   3.672   4.387   9.583 -0.5398 -0.7183  0.1142
   88SAPS  H13R 8474   3.614   4.459   9.522  1.6400 -0.5468 -1.8962
   88SAPS  H13S 8475   3.624   4.287   9.575 -3.1412  0.4937 -0.5833
   88SAPS  C214 8476   3.806   4.365   9.523  0.2436 -0.7390  0.3785
   88SAPS  H14R 8477   3.887   4.383   9.596  1.4025 -2.0229 -0.5330
   88SAPS  C215 8478   3.844   4.336   9.396  0.0897  0.4840 -0.2963
   88SAPS  H15R 8479   3.952   4.325   9.377  0.7306  1.1899  2.4578
   88SAPS  C216 8480   3.759   4.308   9.273  0.7047 -0.4761 -0.1943
   88SAPS  H16R 8481   3.649   4.302   9.288  0.2131  3.6216 -0.9773
   88SAPS  H16S 8482   3.801   4.217   9.225  0.1889  0.0211 -1.6376
   88SAPS  C217 8483   3.778   4.421   9.162 -0.1218  0.0001  0.1998
   88SAPS  H17R 8484   3.877   4.471   9.170 -1.1578  2.3006 -0.4146
   88SAPS  H17S 8485   3.697   4.496   9.174  0.7948  0.7244  2.3633
   88SAPS  C218 8486   3.764   4.351   9.022  0.4586 -0.0378  0.4463
   88SAPS  H18R 8487   3.673   4.287   9.026  0.5664 -0.5855 -3.1283
   88SAPS  H18S 8488   3.859   4.293   9.019 -1.4324 -3.3586 -0.4430
   88SAPS  C219 8489   3.763   4.459   8.916  0.2705 -0.3814  0.3267
   88SAPS  H19R 8490   3.857   4.518   8.921 -0.2074  0.5225 -0.7940
   88SAPS  H19S 8491   3.677   4.530   8.921  0.3302 -0.0647 -2.0606
   88SAPS  C220 8492   3.768   4.385   8.783  0.8031 -0.0107 -0.0118
   88SAPS  H20R 8493   3.714   4.288   8.785  1.3052 -0.2797  0.9546
   88SAPS  H20S 8494   3.875   4.370   8.758  0.6344  1.3701 -1.8254
   88SAPS  H20T 8495   3.722   4.451   8.705  0.2597  1.2846  1.3554
   88SAPS   C33 8496   2.742   4.717  10.277 -0.3155 -0.6074 -0.2199
   88SAPS   H3X 8497   2.696   4.815  10.255  1.0745  0.0644 -0.2226
   88SAPS   H3Y 8498   2.660   4.645  10.256 -2.9085  2.0107  0.3111
   88SAPS   C34 8499   2.842   4.686  10.164 -1.1717 -0.1844  0.0353
   88SAPS   H4X 8500   2.911   4.606  10.198 -1.3773 -0.0367  0.8095
   88SAPS   H4Y 8501   2.903   4.778  10.147 -1.2324 -0.2590 -0.6243
   88SAPS   C35 8502   2.770   4.653  10.030 -0.2243 -0.0974  0.1035
   88SAPS   H5X 8503   2.697   4.736  10.013  0.7581  0.8832  0.5368
   88SAPS   H5Y 8504   2.708   4.565  10.055  3.0255 -1.9211  2.5073
   88SAPS   C36 8505   2.857   4.626   9.911  0.5447 -0.1729  1.2708
   88SAPS   H6X 8506   2.941   4.555   9.931  2.7688  2.1244  0.6475
   88SAPS   H6Y 8507   2.918   4.714   9.879  1.1112 -0.7915  0.6084
   88SAPS   C37 8508   2.770   4.572   9.791  0.2268  0.1082  0.0206
   88SAPS   H7X 8509   2.705   4.659   9.765  0.4713 -0.1762 -1.6948
   88SAPS   H7Y 8510   2.717   4.489   9.841  4.3759 -2.2930  0.8520
   88SAPS   C38 8511   2.850   4.528   9.671 -0.1195 -0.2940  0.2660
   88SAPS   H8X 8512   2.775   4.493   9.597 -0.1610  1.4717 -0.5915
   88SAPS   H8Y 8513   2.914   4.439   9.687  0.6869  0.2502  0.1102
   88SAPS   C39 8514   2.926   4.640   9.600  0.0411 -0.3754 -1.0196
   88SAPS   H9X 8515   2.993   4.694   9.670  0.0092 -1.2381 -0.3083
   88SAPS   H9Y 8516   2.858   4.718   9.560 -1.7465 -0.8362  0.9779
   88SAPS  C310 8517   3.005   4.594   9.482  0.3893 -0.8879 -0.4859
   88SAPS  H10X 8518   2.946   4.550   9.399 -0.1855 -1.0687  0.0149
   88SAPS  H10Y 8519   3.067   4.513   9.526 -1.2498 -1.9755 -0.0694
   88SAPS  C311 8520   3.096   4.712   9.437  0.3272  0.1962 -0.3272
   88SAPS  H11X 8521   3.144   4.749   9.530  0.7220 -1.3243  0.0998
   88SAPS  H11Y 8522   3.041   4.784   9.373  2.6129  1.1461 -1.3386
   88SAPS  C312 8523   3.209   4.673   9.344  0.9325  1.1374 -0.1716
   88SAPS  H12X 8524   3.274   4.605   9.403  0.5523 -2.1254 -3.1540
   88SAPS  H12Y 8525   3.269   4.762   9.313  0.9541  0.9529 -0.6787
   88SAPS  C313 8526   3.166   4.583   9.229 -0.0156  0.2874  0.2930
   88SAPS  H13X 8527   3.106   4.644   9.158  0.5857  0.1902 -0.3100
   88SAPS  H13Y 8528   3.095   4.501   9.250  0.3199 -0.3407 -0.9722
   88SAPS  C314 8529   3.287   4.535   9.147  0.0039 -0.2854  0.3353
   88SAPS  H14X 8530   3.348   4.458   9.199 -1.1038 -0.3934  1.5294
   88SAPS  H14Y 8531   3.345   4.621   9.109 -0.3217 -0.1373  0.1735
   88SAPS  C315 8532   3.230   4.461   9.018  0.2796 -0.9262 -0.5002
   88SAPS  H15X 8533   3.162   4.523   8.955  0.7841 -0.5925 -0.7246
   88SAPS  H15Y 8534   3.169   4.382   9.068  0.0846 -0.5251 -0.0927
   88SAPS  C316 8535   3.347   4.405   8.940  0.3124  0.0602 -0.0954
   88SAPS  H16X 8536   3.411   4.337   9.001 -1.0714 -2.7079 -1.5320
   88SAPS  H16Y 8537   3.409   4.483   8.890 -0.8056  1.2055  0.2574
   88SAPS  C317 8538   3.296   4.303   8.841  0.0665 -0.4707  0.7176
   88SAPS  H17X 8539   3.226   4.351   8.769 -0.0145  0.7838  1.5981
   88SAPS  H17Y 8540   3.227   4.233   8.893  0.5131 -1.3742  0.1151
   88SAPS  C318 8541   3.398   4.214   8.778 -0.1693  0.9495 -0.5585
   88SAPS  H18X 8542   3.464   4.279   8.717 -0.2729  1.5910  0.0033
   88SAPS  H18Y 8543   3.357   4.120   8.736 -2.1955  1.5412 -0.0070
   88SAPS  H18Z 8544   3.469   4.186   8.859 -1.8805 -0.4720  0.5253
   89SAPS     N 8545   2.500   2.764  11.133 -0.7648 -0.1748 -0.2138
   89SAPS   HN1 8546   2.427   2.789  11.202 -0.3805  1.1975 -0.2663
   89SAPS   HN2 8547   2.557   2.691  11.181 -3.0627 -2.5747 -0.9278
   89SAPS   HN3 8548   2.566   2.841  11.109  1.6272 -1.2233  2.3843
   89SAPS   C12 8549   2.436   2.721  11.016  0.3982  0.5225 -0.6428
   89SAPS  H12A 8550   2.376   2.634  11.038  0.0045  0.2635 -2.5269
   89SAPS   C13 8551   2.331   2.821  10.968  0.6662  0.5343 -0.1547
   89SAPS  O13A 8552   2.288   2.912  11.043 -0.2781 -0.1267  0.1633
   89SAPS  O13B 8553   2.269   2.803  10.856 -0.8333  0.0246 -0.2025
   89SAPS   C11 8554   2.548   2.704  10.905 -0.4046  0.5645 -0.0389
   89SAPS  H11A 8555   2.593   2.800  10.873  2.6334 -0.2445  1.4197
   89SAPS  H11B 8556   2.503   2.676  10.808  0.5574  0.6384 -0.5149
   89SAPS     P 8557   2.710   2.504  10.855 -0.1660 -0.2772 -0.3779
   89SAPS   O13 8558   2.834   2.450  10.908  0.0983  0.0624 -0.2842
   89SAPS   O14 8559   2.615   2.389  10.856 -0.1754  0.5971 -0.1615
   89SAPS   O12 8560   2.654   2.617  10.950 -0.0462 -1.0534 -0.1804
   89SAPS   O11 8561   2.711   2.564  10.715 -0.0260 -0.2522  0.1971
   89SAPS    C1 8562   2.782   2.681  10.671  0.2555 -0.1873 -1.1040
   89SAPS    HA 8563   2.707   2.755  10.635  0.7909  0.0465 -1.7578
   89SAPS    HB 8564   2.851   2.734  10.740 -0.9692  1.8248 -1.3416
   89SAPS    C2 8565   2.875   2.653  10.548 -0.3371 -0.4644 -0.0974
   89SAPS    HS 8566   2.805   2.616  10.469 -1.1762 -1.2312  0.9698
   89SAPS   O21 8567   2.987   2.561  10.574 -0.3347 -0.2718 -0.3610
   89SAPS   C21 8568   2.971   2.439  10.521  0.9306 -0.7508  0.0415
   89SAPS   O22 8569   2.866   2.389  10.488 -0.2861 -0.4493 -0.2058
   89SAPS   C22 8570   3.112   2.383  10.509 -0.0166 -0.3780  0.1855
   89SAPS   H2R 8571   3.181   2.465  10.483 -2.0446  1.2106 -0.4693
   89SAPS   H2S 8572   3.143   2.335  10.604  1.4710 -1.1634 -0.6621
   89SAPS    C3 8573   2.929   2.792  10.509 -0.8606  0.0324 -0.2130
   89SAPS    HX 8574   3.009   2.818  10.582 -0.1182 -1.2176 -0.5635
   89SAPS    HY 8575   2.840   2.857  10.516 -0.5506  0.6488 -1.7458
   89SAPS   O31 8576   2.978   2.788  10.373  0.4054 -0.4281 -0.0157
   89SAPS   C31 8577   3.109   2.802  10.352 -0.3657 -0.0420 -0.3194
   89SAPS   O32 8578   3.198   2.787  10.435  0.9324  0.5966  0.4229
   89SAPS   C32 8579   3.135   2.840  10.207  0.2133 -0.2121  0.5528
   89SAPS   H2X 8580   3.245   2.855  10.206  0.2008 -0.1386 -0.9316
   89SAPS   H2Y 8581   3.103   2.945  10.196 -2.2137 -0.9519  0.0118
   89SAPS   C23 8582   3.122   2.271  10.401  0.3834 -0.5974 -0.2297
   89SAPS   H3R 8583   3.030   2.214  10.426 -0.7355  1.0654 -0.4069
   89SAPS   H3S 8584   3.205   2.201  10.424  0.9484  0.0272 -0.3497
   89SAPS   C24 8585   3.115   2.312  10.253  0.2126  0.4219  0.3119
   89SAPS   H4R 8586   3.201   2.375  10.222  1.3381 -1.0426  0.3671
   89SAPS   H4S 8587   3.028   2.382  10.253 -0.1384 -0.0086  0.2077
   89SAPS   C25 8588   3.101   2.187  10.175 -0.6568 -0.0445  0.4507
   89SAPS   H5R 8589   3.077   2.099  10.237  1.0952 -0.3485  0.7241
   89SAPS   C26 8590   3.116   2.180  10.042  0.5827  0.0971 -0.0730
   89SAPS   H6R 8591   3.097   2.081   9.997 -1.0262  0.1467  0.4316
   89SAPS   C27 8592   3.152   2.305   9.965 -0.3375  0.3310  0.0143
   89SAPS   H7R 8593   3.222   2.372  10.017 -1.4838  1.2828  0.3815
   89SAPS   H7S 8594   3.067   2.376   9.955 -0.5798  0.2119  1.1265
   89SAPS   C28 8595   3.212   2.285   9.836 -0.2213  0.4948  0.3832
   89SAPS   H8R 8596   3.319   2.308   9.821  0.1931 -1.7022 -0.4555
   89SAPS   C29 8597   3.145   2.250   9.722 -1.1637  0.8687 -0.0901
   89SAPS   H9R 8598   3.201   2.233   9.628  0.1265  0.1983  0.7718
   89SAPS  C210 8599   2.998   2.217   9.709 -0.2190  0.3811 -0.3332
   89SAPS  H10R 8600   2.952   2.283   9.632  1.3578  1.9792  0.0200
   89SAPS  H10S 8601   2.941   2.238   9.802 -1.6517  1.0244 -1.3235
   89SAPS  C211 8602   2.974   2.069   9.685 -1.1881 -0.1318  0.0660
   89SAPS  H11R 8603   2.955   2.015   9.778  2.1408  0.5539  1.2797
   89SAPS  C212 8604   2.984   2.008   9.566 -0.8045  0.4585 -0.8652
   89SAPS  H12R 8605   2.957   1.902   9.554 -1.6114  0.6593 -0.8998
   89SAPS  C213 8606   3.027   2.065   9.434  0.1785 -0.5620 -0.2128
   89SAPS  H13R 8607   3.078   1.989   9.371  1.7078  1.2763 -1.3081
   89SAPS  H13S 8608   3.103   2.142   9.462  0.6777 -1.4660  1.0250
   89SAPS  C214 8609   2.928   2.147   9.361 -1.1697 -0.0191  0.3092
   89SAPS  H14R 8610   2.846   2.176   9.429 -1.5360  0.4426 -0.3066
   89SAPS  C215 8611   2.915   2.167   9.229  0.4696 -0.1623 -0.7190
   89SAPS  H15R 8612   2.825   2.224   9.203  0.3589  0.2452  0.4747
   89SAPS  C216 8613   3.006   2.122   9.123  0.2085  0.8237 -0.2191
   89SAPS  H16R 8614   3.061   2.034   9.162 -2.6593 -1.8275 -1.7139
   89SAPS  H16S 8615   3.079   2.194   9.080 -0.4511  0.2211 -2.4371
   89SAPS  C217 8616   2.937   2.045   9.009 -0.1588 -0.3895  0.8430
   89SAPS  H17R 8617   2.881   1.956   9.046  2.1453 -1.2100  2.5519
   89SAPS  H17S 8618   3.019   2.007   8.946 -0.0279 -0.3037  0.9622
   89SAPS  C218 8619   2.853   2.132   8.915 -0.4114 -0.0766 -0.1506
   89SAPS  H18R 8620   2.910   2.226   8.897  1.4267 -1.0462  0.3328
   89SAPS  H18S 8621   2.762   2.152   8.977  0.7657  1.0438  1.3116
   89SAPS  C219 8622   2.814   2.070   8.780 -0.3304  0.0773 -0.3431
   89SAPS  H19R 8623   2.915   2.050   8.738  0.0482 -1.1862  1.0634
   89SAPS  H19S 8624   2.759   2.126   8.702 -1.5558  0.1168  0.5217
   89SAPS  C220 8625   2.730   1.941   8.793  0.0045  0.2406  0.6990
   89SAPS  H20R 8626   2.718   1.890   8.695 -3.1956  2.1139 -0.0311
   89SAPS  H20S 8627   2.628   1.964   8.830  0.0297 -1.6908  2.1200
   89SAPS  H20T 8628   2.770   1.871   8.869  0.1627  0.8016  1.1396
   89SAPS   C33 8629   3.088   2.730  10.107  0.2635 -0.5712 -0.0387
   89SAPS   H3X 8630   3.100   2.624  10.136 -0.4219 -1.1882 -1.8766
   89SAPS   H3Y 8631   3.148   2.743  10.014  0.1997  3.1487  0.2969
   89SAPS   C34 8632   2.939   2.746  10.070 -0.6052 -0.3890 -0.0814
   89SAPS   H4X 8633   2.921   2.853  10.045  1.7337  0.0054 -0.2615
   89SAPS   H4Y 8634   2.881   2.715  10.159  0.6440 -2.2263  0.1465
   89SAPS   C35 8635   2.894   2.680   9.935 -0.3754  0.3004  0.2893
   89SAPS   H5X 8636   2.783   2.676   9.944 -0.4890  1.3765 -0.4237
   89SAPS   H5Y 8637   2.934   2.577   9.942 -0.8205  0.1972  1.8008
   89SAPS   C36 8638   2.956   2.750   9.813 -0.5467 -0.2355  0.0144
   89SAPS   H6X 8639   3.065   2.729   9.819 -0.8561 -2.0415  0.0888
   89SAPS   H6Y 8640   2.945   2.860   9.821  3.4716  0.3903 -0.8489
   89SAPS   C37 8641   2.901   2.708   9.680 -0.2040 -0.4240  0.3791
   89SAPS   H7X 8642   2.899   2.800   9.619 -2.1039  0.3043  1.4360
   89SAPS   H7Y 8643   2.794   2.683   9.699 -0.3258 -2.0150 -1.9865
   89SAPS   C38 8644   2.977   2.589   9.616 -0.3423 -0.4856 -0.5669
   89SAPS   H8X 8645   2.956   2.501   9.681 -0.8734  0.5958  0.7998
   89SAPS   H8Y 8646   3.085   2.610   9.630 -0.3350 -0.9766  0.2297
   89SAPS   C39 8647   2.931   2.557   9.478 -0.2680  0.1753  0.2604
   89SAPS   H9X 8648   2.820   2.554   9.478 -0.2823  0.5721 -0.1182
   89SAPS   H9Y 8649   2.960   2.457   9.439 -1.9664 -0.0734 -0.4808
   89SAPS  C310 8650   2.980   2.664   9.376  0.1759  0.0937 -0.2841
   89SAPS  H10X 8651   3.089   2.676   9.393  0.1223 -1.9080  2.1385
   89SAPS  H10Y 8652   2.932   2.764   9.383 -0.9063 -0.4730  1.1200
   89SAPS  C311 8653   2.949   2.613   9.232  0.5320 -0.5288 -0.3627
   89SAPS  H11X 8654   2.855   2.555   9.241 -0.4363  1.0647  0.2191
   89SAPS  H11Y 8655   3.031   2.552   9.189  0.2099 -0.5354 -0.9856
   89SAPS  C312 8656   2.908   2.729   9.135  0.2943  0.0073 -0.3576
   89SAPS  H12X 8657   3.000   2.790   9.120  1.5614 -1.5293  0.8061
   89SAPS  H12Y 8658   2.826   2.795   9.169  0.4055 -0.4766  0.9277
   89SAPS  C313 8659   2.866   2.676   8.996 -0.2071 -0.0406  0.1380
   89SAPS  H13X 8660   2.832   2.766   8.939  0.8492 -0.0306 -0.5113
   89SAPS  H13Y 8661   2.779   2.608   9.006  0.8647 -1.4618  0.0844
   89SAPS  C314 8662   2.973   2.602   8.917  0.7894  0.2861  0.2496
   89SAPS  H14X 8663   3.020   2.524   8.980 -1.7327 -0.7617  0.9713
   89SAPS  H14Y 8664   3.047   2.682   8.892  0.5932  0.0336 -1.2678
   89SAPS  C315 8665   2.907   2.552   8.781 -0.3899  0.0999 -0.1356
   89SAPS  H15X 8666   2.854   2.632   8.725 -3.5083 -2.7825 -1.6704
   89SAPS  H15Y 8667   2.830   2.475   8.802  0.8696 -0.6369  2.0884
   89SAPS  C316 8668   3.012   2.475   8.694 -0.4912  0.0616  0.8782
   89SAPS  H16X 8669   2.962   2.426   8.608 -1.1033 -0.4685  1.5154
   89SAPS  H16Y 8670   3.052   2.390   8.754  1.5933  0.1855 -0.2780
   89SAPS  C317 8671   3.137   2.553   8.655 -0.5499  0.0206 -0.2238
   89SAPS  H17X 8672   3.198   2.570   8.746 -1.7433 -0.3418  0.6764
   89SAPS  H17Y 8673   3.107   2.655   8.622  1.1981  0.3789 -0.8167
   89SAPS  C318 8674   3.222   2.497   8.543  0.9609  0.7623 -0.7272
   89SAPS  H18X 8675   3.307   2.568   8.529  1.3874  0.4877  0.3762
   89SAPS  H18Y 8676   3.177   2.477   8.443  0.1293 -1.4168  0.0191
   89SAPS  H18Z 8677   3.271   2.402   8.573 -1.1622 -1.2770 -3.1947
   90SAPS     N 8678   4.302   4.256  11.291  0.3941  0.3194 -0.5869
   90SAPS   HN1 8679   4.286   4.164  11.246 -1.7219  1.4051 -2.2136
   90SAPS   HN2 8680   4.404   4.275  11.295  0.5665 -0.7311  2.3160
   90SAPS   HN3 8681   4.268   4.256  11.390  1.9235  2.8121  0.0050
   90SAPS   C12 8682   4.231   4.358  11.216 -0.7275 -0.4668 -0.6255
   90SAPS  H12A 8683   4.129   4.322  11.213 -0.4820 -1.1110 -2.0514
   90SAPS   C13 8684   4.233   4.495  11.287 -0.0234  0.0906  0.0535
   90SAPS  O13A 8685   4.287   4.505  11.400  0.0115 -0.2101 -0.6653
   90SAPS  O13B 8686   4.194   4.599  11.230 -0.0412 -0.1054  0.0685
   90SAPS   C11 8687   4.291   4.371  11.077 -0.1944 -0.2747 -0.1476
   90SAPS  H11A 8688   4.260   4.466  11.029  2.0607  0.9841  0.7302
   90SAPS  H11B 8689   4.240   4.301  11.007 -0.6041 -0.7859  0.6507
   90SAPS     P 8690   4.527   4.443  10.967  0.4544  0.1786  0.0379
   90SAPS   O13 8691   4.485   4.586  10.992  0.0868 -0.0464  0.2984
   90SAPS   O14 8692   4.669   4.402  10.989  0.0685 -0.9706 -0.1566
   90SAPS   O12 8693   4.433   4.350  11.056  0.2683  0.3904 -0.1583
   90SAPS   O11 8694   4.494   4.389  10.823  0.9901 -1.0812 -0.4175
   90SAPS    C1 8695   4.490   4.490  10.714  0.4321  0.3329 -0.4594
   90SAPS    HA 8696   4.387   4.500  10.674 -0.5767  0.2230  1.9595
   90SAPS    HB 8697   4.516   4.595  10.739  2.1253 -0.0088 -0.6717
   90SAPS    C2 8698   4.564   4.429  10.580  1.0233  0.3672 -0.8246
   90SAPS    HS 8699   4.577   4.504  10.499 -1.4129  0.7825 -0.8787
   90SAPS   O21 8700   4.490   4.307  10.547 -0.5919 -0.5304 -0.4032
   90SAPS   C21 8701   4.396   4.329  10.459 -0.3600 -0.7754 -0.3663
   90SAPS   O22 8702   4.355   4.442  10.440  0.5851 -0.4478 -0.0344
   90SAPS   C22 8703   4.347   4.198  10.401 -0.3435 -0.0037 -0.2430
   90SAPS   H2R 8704   4.386   4.122  10.473  2.0192  0.8784 -0.4854
   90SAPS   H2S 8705   4.236   4.192  10.397 -0.3098  0.0894 -1.9058
   90SAPS    C3 8706   4.710   4.388  10.626 -0.1967  0.0022  0.8630
   90SAPS    HX 8707   4.708   4.304  10.698 -0.9046 -0.5267  0.2536
   90SAPS    HY 8708   4.742   4.483  10.673 -2.6877  0.7619  1.1828
   90SAPS   O31 8709   4.795   4.364  10.506  0.2356 -0.4135  0.1221
   90SAPS   C31 8710   4.928   4.365  10.540 -0.0191  0.2267  0.3985
   90SAPS   O32 8711   4.967   4.374  10.654  0.2645  0.6949 -0.3415
   90SAPS   C32 8712   5.016   4.365  10.416 -0.8360 -0.4350  0.0253
   90SAPS   H2X 8713   5.124   4.366  10.439 -0.7160  1.3879 -0.5207
   90SAPS   H2Y 8714   4.985   4.461  10.371  3.0316  0.7309 -0.4812
   90SAPS   C23 8715   4.417   4.164  10.266  0.2751  0.9167  0.0234
   90SAPS   H3R 8716   4.385   4.237  10.189 -0.9924  2.7726  2.2030
   90SAPS   H3S 8717   4.372   4.070  10.227 -1.0986  1.7408 -0.4510
   90SAPS   C24 8718   4.574   4.152  10.276  0.2373  0.0243  0.1329
   90SAPS   H4R 8719   4.611   4.251  10.311 -1.5900  0.2106  1.7423
   90SAPS   H4S 8720   4.616   4.136  10.175 -0.2805 -3.7890  0.3889
   90SAPS   C25 8721   4.626   4.038  10.365  0.4292 -0.5088 -0.0685
   90SAPS   H5R 8722   4.647   4.074  10.467 -0.6069  1.6650 -0.5592
   90SAPS   C26 8723   4.660   3.918  10.320 -1.1353  0.1983  0.8525
   90SAPS   H6R 8724   4.696   3.837  10.386 -3.1976 -2.0942 -0.6785
   90SAPS   C27 8725   4.643   3.872  10.183 -0.5307 -1.0300  0.2618
   90SAPS   H7R 8726   4.571   3.937  10.127  0.6713 -0.7652 -1.0510
   90SAPS   H7S 8727   4.608   3.767  10.185  0.9237 -1.5394 -0.3231
   90SAPS   C28 8728   4.782   3.876  10.116  0.5220  0.2777 -0.2497
   90SAPS   H8R 8729   4.870   3.848  10.176  3.6885  0.4878 -4.3760
   90SAPS   C29 8730   4.801   3.912   9.986 -0.7833 -0.6483 -0.3730
   90SAPS   H9R 8731   4.901   3.889   9.948  0.0086  0.5531  0.8782
   90SAPS  C210 8732   4.696   3.959   9.882 -0.4461 -0.4966 -0.6688
   90SAPS  H10R 8733   4.763   3.998   9.802  0.5845  0.5357  0.6618
   90SAPS  H10S 8734   4.642   4.051   9.916  4.0861  2.7812 -1.4324
   90SAPS  C211 8735   4.603   3.857   9.827  0.1060 -0.1253 -0.4275
   90SAPS  H11R 8736   4.563   3.780   9.894 -0.4606 -0.6927 -1.3882
   90SAPS  C212 8737   4.556   3.848   9.705 -1.1853 -0.0619  1.1516
   90SAPS  H12R 8738   4.497   3.759   9.677 -1.0169  0.6078 -1.6481
   90SAPS  C213 8739   4.591   3.939   9.590 -0.8305  0.4387 -0.3467
   90SAPS  H13R 8740   4.699   3.944   9.569 -0.6835 -3.0653 -1.0146
   90SAPS  H13S 8741   4.563   4.041   9.625  2.7769  0.8275  1.8444
   90SAPS  C214 8742   4.519   3.907   9.471  0.2608  0.0487  0.5261
   90SAPS  H14R 8743   4.435   3.975   9.450  2.4762  2.4031 -1.3852
   90SAPS  C215 8744   4.549   3.823   9.373 -0.4418 -0.2336  0.2255
   90SAPS  H15R 8745   4.490   3.820   9.280  1.4929  0.8334 -1.1025
   90SAPS  C216 8746   4.664   3.720   9.366  0.3394  0.2077 -0.0423
   90SAPS  H16R 8747   4.617   3.623   9.335  0.7150  0.1366 -0.3983
   90SAPS  H16S 8748   4.713   3.694   9.462 -0.1462 -0.7579 -0.0356
   90SAPS  C217 8749   4.772   3.755   9.259 -0.0127 -0.3379  0.4016
   90SAPS  H17R 8750   4.853   3.679   9.254  1.2070  0.8922  0.8397
   90SAPS  H17S 8751   4.806   3.855   9.296 -0.5717 -0.1484  0.4161
   90SAPS  C218 8752   4.714   3.784   9.120 -0.0032  0.0962  0.3177
   90SAPS  H18R 8753   4.695   3.893   9.102 -2.4796  0.1641  2.6000
   90SAPS  H18S 8754   4.611   3.744   9.116 -1.1197  2.3718  2.8509
   90SAPS  C219 8755   4.775   3.705   9.005 -0.2398 -1.1427  0.0308
   90SAPS  H19R 8756   4.774   3.595   9.021 -0.3190 -1.2278 -0.5488
   90SAPS  H19S 8757   4.881   3.733   8.986 -0.4556 -0.0036  0.4518
   90SAPS  C220 8758   4.714   3.740   8.865 -0.1162 -0.1713 -0.0448
   90SAPS  H20R 8759   4.608   3.707   8.866 -0.1691 -0.0336  1.3457
   90SAPS  H20S 8760   4.768   3.689   8.783  0.5283  0.2571  0.1089
   90SAPS  H20T 8761   4.718   3.849   8.843  2.5576 -0.3612 -0.7742
   90SAPS   C33 8762   4.981   4.265  10.315 -0.0967  0.3003 -0.1857
   90SAPS   H3X 8763   4.871   4.249  10.306 -0.1800  0.9180 -0.3435
   90SAPS   H3Y 8764   5.024   4.168  10.347  1.5866  2.0887  3.6130
   90SAPS   C34 8765   5.030   4.312  10.174  0.4886  0.0401 -0.1766
   90SAPS   H4X 8766   5.141   4.303  10.175  0.4465 -1.6110  3.0415
   90SAPS   H4Y 8767   4.983   4.412  10.160  3.2837  1.1951 -2.5192
   90SAPS   C35 8768   4.969   4.239  10.052  0.1486  0.5834 -0.4606
   90SAPS   H5X 8769   4.858   4.239  10.064  0.1644 -2.7220  0.5050
   90SAPS   H5Y 8770   4.990   4.130  10.057 -0.1792  0.5485  0.2577
   90SAPS   C36 8771   5.015   4.300   9.916  0.4191 -0.3497  0.2142
   90SAPS   H6X 8772   4.952   4.261   9.833 -0.3242  1.0424  0.0989
   90SAPS   H6Y 8773   5.121   4.274   9.899  0.3558 -1.5528  1.5005
   90SAPS   C37 8774   4.992   4.454   9.913 -1.1552  0.2548  0.7002
   90SAPS   H7X 8775   5.050   4.508   9.991 -0.6432 -0.3878  0.7705
   90SAPS   H7Y 8776   4.885   4.468   9.939 -0.4100  4.8856  2.1115
   90SAPS   C38 8777   5.011   4.510   9.777  1.0179  0.3850 -0.2756
   90SAPS   H8X 8778   4.975   4.614   9.761 -1.2861 -0.2638  0.3060
   90SAPS   H8Y 8779   4.943   4.460   9.705  1.5572  0.3676 -0.7795
   90SAPS   C39 8780   5.157   4.502   9.716 -0.4802 -0.1410 -1.2743
   90SAPS   H9X 8781   5.200   4.400   9.724  1.0821  0.6050  0.8832
   90SAPS   H9Y 8782   5.224   4.560   9.784 -1.1211  0.4389 -1.1173
   90SAPS  C310 8783   5.172   4.549   9.571  0.6321  0.4752 -0.1777
   90SAPS  H10X 8784   5.270   4.597   9.552  1.2298 -1.0379 -1.0997
   90SAPS  H10Y 8785   5.101   4.634   9.566 -1.1421 -0.8720  0.9048
   90SAPS  C311 8786   5.132   4.444   9.462  0.3158 -0.4371  0.5035
   90SAPS  H11X 8787   5.027   4.413   9.483  0.1768 -0.4506 -0.1806
   90SAPS  H11Y 8788   5.196   4.355   9.479  2.2933  1.1409  1.7192
   90SAPS  C312 8789   5.145   4.492   9.316 -0.8654 -0.5178  0.0357
   90SAPS  H12X 8790   5.246   4.537   9.306 -1.1786 -0.1137 -1.5755
   90SAPS  H12Y 8791   5.072   4.576   9.310  0.0385  0.2736 -0.2573
   90SAPS  C313 8792   5.125   4.389   9.204 -0.1452  0.5432 -0.2738
   90SAPS  H13X 8793   5.024   4.343   9.215  0.2287 -0.3201 -0.4010
   90SAPS  H13Y 8794   5.199   4.307   9.209  0.4052  0.9021 -1.8564
   90SAPS  C314 8795   5.132   4.437   9.055  0.5983  0.8569 -0.7141
   90SAPS  H14X 8796   5.082   4.536   9.049  0.5326  0.7781 -1.4807
   90SAPS  H14Y 8797   5.067   4.374   8.989  2.3921  3.1456 -5.0395
   90SAPS  C315 8798   5.281   4.419   9.004  0.3857 -0.0853 -0.3562
   90SAPS  H15X 8799   5.317   4.318   9.035  0.4306 -0.3636 -1.2785
   90SAPS  H15Y 8800   5.349   4.492   9.053 -1.6754 -0.4738  3.4653
   90SAPS  C316 8801   5.291   4.437   8.849 -0.0181  0.1298 -1.1424
   90SAPS  H16X 8802   5.196   4.483   8.815  0.0076  1.2550  0.2179
   90SAPS  H16Y 8803   5.300   4.334   8.808  0.5262 -0.6246  0.7709
   90SAPS  C317 8804   5.410   4.521   8.804 -0.1856  0.2904  0.3483
   90SAPS  H17X 8805   5.496   4.458   8.838  1.2636  1.0700 -1.7021
   90SAPS  H17Y 8806   5.403   4.617   8.860 -2.4786  1.3115 -1.5253
   90SAPS  C318 8807   5.431   4.537   8.651 -0.0949  0.1228 -0.4495
   90SAPS  H18X 8808   5.346   4.596   8.611  0.3598  0.5368 -0.8065
   90SAPS  H18Y 8809   5.438   4.445   8.589  1.0179 -0.0188 -0.1338
   90SAPS  H18Z 8810   5.525   4.594   8.636  1.1875 -1.2074  1.9565
   91SAPS     N 8811   2.834   0.876   6.050 -0.5991 -0.0402  0.1587
   91SAPS   HN1 8812   2.818   0.798   6.117  0.3064 -0.3159  0.0624
   91SAPS   HN2 8813   2.897   0.842   5.974  0.0582  2.5013 -0.5204
   91SAPS   HN3 8814   2.870   0.955   6.105 -0.6628  0.6561 -0.7744
   91SAPS   C12 8815   2.696   0.917   5.993 -0.3444  0.2191 -0.4838
   91SAPS  H12A 8816   2.710   0.989   5.914  1.6591 -1.0062 -1.3203
   91SAPS   C13 8817   2.613   0.807   5.932 -0.9268  0.4711  0.0987
   91SAPS  O13A 8818   2.672   0.697   5.924  0.1965  0.4595  0.1194
   91SAPS  O13B 8819   2.506   0.826   5.870  0.1980  0.1579 -0.0018
   91SAPS   C11 8820   2.601   0.977   6.105 -0.3940  0.0976  0.0986
   91SAPS  H11A 8821   2.499   1.006   6.071 -0.7682  1.2344  2.0244
   91SAPS  H11B 8822   2.650   1.070   6.138 -0.9887 -0.1629  1.8055
   91SAPS     P 8823   2.482   0.897   6.325  0.1664  0.3804  0.4169
   91SAPS   O13 8824   2.356   0.885   6.248 -0.0882  0.0649  0.5526
   91SAPS   O14 8825   2.494   0.803   6.434  0.1755 -0.0007 -0.3741
   91SAPS   O12 8826   2.597   0.884   6.215  0.1515  1.0981 -0.1874
   91SAPS   O11 8827   2.493   1.046   6.382  0.8334  0.6286  0.0040
   91SAPS    C1 8828   2.610   1.118   6.410 -0.5780  0.0282  0.1282
   91SAPS    HA 8829   2.702   1.064   6.380 -0.6547 -1.2840  2.0553
   91SAPS    HB 8830   2.614   1.209   6.346  0.0633 -0.1385 -0.0708
   91SAPS    C2 8831   2.611   1.159   6.556  0.0728  0.6712  0.2939
   91SAPS    HS 8832   2.709   1.208   6.572  0.9252 -0.6429 -0.6994
   91SAPS   O21 8833   2.614   1.037   6.635 -0.0317  0.6073  0.2581
   91SAPS   C21 8834   2.729   0.986   6.669  0.7570 -0.4497  0.3213
   91SAPS   O22 8835   2.835   1.021   6.627  0.2451  0.9093  0.0201
   91SAPS   C22 8836   2.714   0.876   6.776  1.2776  0.4885 -0.2878
   91SAPS   H2R 8837   2.623   0.816   6.752  1.0176  0.6088  0.3776
   91SAPS   H2S 8838   2.799   0.804   6.777  0.7601 -0.1780 -1.8621
   91SAPS    C3 8839   2.495   1.250   6.576  1.0749 -0.1602 -0.0238
   91SAPS    HX 8840   2.401   1.193   6.560  1.5992 -1.2254  0.5407
   91SAPS    HY 8841   2.493   1.330   6.499 -1.5424 -0.4397 -0.3296
   91SAPS   O31 8842   2.493   1.310   6.704  0.4590  0.2618  1.0168
   91SAPS   C31 8843   2.427   1.240   6.798  0.1134 -0.2245  0.1865
   91SAPS   O32 8844   2.370   1.133   6.781 -0.3399 -0.1000  0.4174
   91SAPS   C32 8845   2.446   1.306   6.930 -0.1808  0.1938 -0.7785
   91SAPS   H2X 8846   2.365   1.382   6.935 -1.8835 -1.6196  0.7175
   91SAPS   H2Y 8847   2.548   1.350   6.938 -0.1164 -0.2702  1.6231
   91SAPS   C23 8848   2.690   0.929   6.917 -0.1854 -0.6521  0.4559
   91SAPS   H3R 8849   2.641   0.837   6.955  1.1303 -2.0280 -1.0136
   91SAPS   H3S 8850   2.626   1.019   6.912  0.1145 -0.2235  3.1676
   91SAPS   C24 8851   2.820   0.956   6.989  0.1596 -0.4327  0.1413
   91SAPS   H4R 8852   2.886   0.994   6.908 -1.0979 -2.1615 -1.7954
   91SAPS   H4S 8853   2.857   0.859   7.028 -0.8612 -0.9454 -0.1169
   91SAPS   C25 8854   2.804   1.062   7.099  0.3857  0.1758 -0.4124
   91SAPS   H5R 8855   2.797   1.167   7.066  1.9209  1.0700  1.8655
   91SAPS   C26 8856   2.800   1.046   7.236  0.4886 -0.1119 -0.1679
   91SAPS   H6R 8857   2.798   1.130   7.306 -0.6780 -0.5957  0.4086
   91SAPS   C27 8858   2.819   0.917   7.310  0.0635  0.3097 -0.6191
   91SAPS   H7R 8859   2.882   0.923   7.402  1.7645 -1.1116 -1.6203
   91SAPS   H7S 8860   2.876   0.843   7.249 -0.6872  0.2364 -1.2461
   91SAPS   C28 8861   2.689   0.856   7.348  0.5650  0.0056 -0.0169
   91SAPS   H8R 8862   2.650   0.777   7.283 -0.9782  1.8355 -1.4241
   91SAPS   C29 8863   2.625   0.888   7.463  0.5294  0.2077 -0.5767
   91SAPS   H9R 8864   2.545   0.822   7.499  1.0667  1.4596  3.3307
   91SAPS  C210 8865   2.662   0.988   7.566  0.0421 -0.2621 -0.2788
   91SAPS  H10R 8866   2.574   1.030   7.618  0.7211 -0.0901  0.7679
   91SAPS  H10S 8867   2.716   1.076   7.525 -1.2926  0.7658  0.1001
   91SAPS  C211 8868   2.765   0.924   7.662  0.2273 -0.1064 -0.3646
   91SAPS  H11R 8869   2.859   0.896   7.613  0.4054  0.1984 -0.1950
   91SAPS  C212 8870   2.750   0.900   7.792  0.9260 -0.2295 -1.3973
   91SAPS  H12R 8871   2.825   0.839   7.845  0.1011  0.0748  0.2018
   91SAPS  C213 8872   2.630   0.936   7.878 -0.0955 -0.0854  0.7629
   91SAPS  H13R 8873   2.608   1.043   7.858  0.3520 -0.4094 -1.7656
   91SAPS  H13S 8874   2.656   0.926   7.986  0.0817 -1.6373  0.5969
   91SAPS  C214 8875   2.505   0.857   7.843 -0.6022 -0.2792 -0.0019
   91SAPS  H14R 8876   2.496   0.827   7.738 -0.7357  1.5353 -0.5467
   91SAPS  C215 8877   2.400   0.832   7.924 -0.4031 -0.0487 -0.5124
   91SAPS  H15R 8878   2.313   0.775   7.888  0.0457 -1.9613  1.2315
   91SAPS  C216 8879   2.391   0.875   8.073 -0.1318  1.1500 -0.4494
   91SAPS  H16R 8880   2.310   0.949   8.091  0.2464  1.5706 -0.4807
   91SAPS  H16S 8881   2.483   0.925   8.109  0.3445 -0.2087  0.3308
   91SAPS  C217 8882   2.374   0.752   8.166 -0.0053 -0.0135  0.5474
   91SAPS  H17R 8883   2.466   0.691   8.174  0.0029 -0.1607 -0.5469
   91SAPS  H17S 8884   2.303   0.690   8.107  2.2302 -1.8516 -0.3733
   91SAPS  C218 8885   2.309   0.770   8.307 -0.9563 -0.3375 -0.2355
   91SAPS  H18R 8886   2.284   0.672   8.353 -2.3343 -0.1743 -0.5749
   91SAPS  H18S 8887   2.220   0.833   8.287 -0.0558  1.3574  0.8831
   91SAPS  C219 8888   2.406   0.848   8.390  0.1010  0.0347 -0.1487
   91SAPS  H19R 8889   2.418   0.940   8.328  2.8096 -0.4426 -0.4506
   91SAPS  H19S 8890   2.506   0.800   8.392 -0.2209 -0.8029  3.3576
   91SAPS  C220 8891   2.351   0.870   8.529  0.8601 -0.3373 -0.3458
   91SAPS  H20R 8892   2.421   0.926   8.593 -0.9355  0.8212  0.7054
   91SAPS  H20S 8893   2.333   0.771   8.576  2.3541  0.0511  1.1074
   91SAPS  H20T 8894   2.264   0.940   8.520 -0.1444 -1.7691 -3.2249
   91SAPS   C33 8895   2.424   1.212   7.061 -0.1344 -0.0734  1.0946
   91SAPS   H3X 8896   2.492   1.127   7.041 -0.3735 -0.0245  0.0132
   91SAPS   H3Y 8897   2.321   1.170   7.067  1.0748 -3.4443  0.2949
   91SAPS   C34 8898   2.472   1.278   7.196  0.5438  0.0554 -0.0054
   91SAPS   H4X 8899   2.444   1.385   7.193  0.4855  0.2656  3.6179
   91SAPS   H4Y 8900   2.580   1.252   7.193  0.1071 -1.9829  0.3917
   91SAPS   C35 8901   2.399   1.204   7.303 -0.3672  0.4327 -0.3642
   91SAPS   H5X 8902   2.423   1.097   7.322 -0.0484  0.7641  1.2815
   91SAPS   H5Y 8903   2.289   1.212   7.291 -0.9629 -1.7918  2.4763
   91SAPS   C36 8904   2.441   1.267   7.432 -0.5713 -0.6489 -0.2168
   91SAPS   H6X 8905   2.446   1.377   7.422  2.5009 -0.6533  0.2062
   91SAPS   H6Y 8906   2.546   1.245   7.459 -0.3806 -1.7370 -1.7028
   91SAPS   C37 8907   2.357   1.209   7.545  0.1946  0.2806  0.4614
   91SAPS   H7X 8908   2.372   1.099   7.554  1.1877  0.3408 -0.3325
   91SAPS   H7Y 8909   2.249   1.225   7.525  0.2053 -1.7298 -1.6820
   91SAPS   C38 8910   2.389   1.271   7.678  0.9629 -0.1964 -0.4421
   91SAPS   H8X 8911   2.369   1.380   7.675 -0.9757 -0.5354 -2.3095
   91SAPS   H8Y 8912   2.500   1.264   7.683  0.9911  0.7099  2.6181
   91SAPS   C39 8913   2.317   1.194   7.793 -1.3261 -0.3004 -0.9649
   91SAPS   H9X 8914   2.384   1.110   7.823 -2.6244 -1.2476 -0.6092
   91SAPS   H9Y 8915   2.219   1.162   7.753 -1.5700 -0.5964 -0.1537
   91SAPS  C310 8916   2.291   1.278   7.918 -0.5769 -0.3716  0.5313
   91SAPS  H10X 8917   2.214   1.225   7.978 -1.6787 -2.0333 -2.1543
   91SAPS  H10Y 8918   2.260   1.383   7.896  1.3392 -0.2989 -2.5602
   91SAPS  C311 8919   2.417   1.293   8.001 -0.1572 -0.4030  0.5214
   91SAPS  H11X 8920   2.495   1.351   7.947  0.6870 -1.5625  0.4639
   91SAPS  H11Y 8921   2.456   1.190   8.017  0.6280 -0.3904 -1.1127
   91SAPS  C312 8922   2.389   1.373   8.131 -0.5962  0.1473  0.9280
   91SAPS  H12X 8923   2.374   1.480   8.105  0.7996  0.0249 -0.6042
   91SAPS  H12Y 8924   2.489   1.367   8.179 -0.3715  0.3734  0.4960
   91SAPS  C313 8925   2.278   1.324   8.226 -0.1497 -0.3958  0.1267
   91SAPS  H13X 8926   2.313   1.232   8.279 -0.3872 -1.0069 -0.7620
   91SAPS  H13Y 8927   2.192   1.284   8.170 -1.7758  1.4202  1.2244
   91SAPS  C314 8928   2.247   1.420   8.334 -0.1537  0.1166 -0.7987
   91SAPS  H14X 8929   2.332   1.483   8.369 -1.2365  1.0043  0.3348
   91SAPS  H14Y 8930   2.210   1.364   8.423  0.0342 -0.1327 -0.8766
   91SAPS  C315 8931   2.130   1.516   8.295  0.1849  1.1009 -0.1103
   91SAPS  H15X 8932   2.043   1.452   8.271  1.7245 -1.3741  0.4782
   91SAPS  H15Y 8933   2.164   1.574   8.207 -0.3426  1.9440  0.2248
   91SAPS  C316 8934   2.096   1.618   8.400 -0.0988 -0.3434  0.4489
   91SAPS  H16X 8935   2.003   1.665   8.361  0.2316  1.6125  1.8788
   91SAPS  H16Y 8936   2.169   1.701   8.401 -0.1110 -0.2545 -1.7431
   91SAPS  C317 8937   2.051   1.556   8.534  0.4020 -0.5864  0.2703
   91SAPS  H17X 8938   2.143   1.524   8.587  0.3496  1.8352  2.0505
   91SAPS  H17Y 8939   1.983   1.471   8.513  0.7730 -1.6643  2.9829
   91SAPS  C318 8940   1.978   1.658   8.623  0.0416 -0.5982 -0.0154
   91SAPS  H18X 8941   1.877   1.669   8.579 -0.1805 -0.3162  0.5534
   91SAPS  H18Y 8942   2.028   1.756   8.607 -0.6080 -0.4636 -1.2832
   91SAPS  H18Z 8943   1.983   1.639   8.733  1.2422 -1.3917 -0.1799
   92SAPS     N 8944   6.601   0.095   6.422  0.3717  0.0039 -0.1468
   92SAPS   HN1 8945   6.578   0.166   6.494  0.8451  1.4730 -1.3863
   92SAPS   HN2 8946   6.586   0.006   6.472 -2.1084  1.1024  1.2533
   92SAPS   HN3 8947   6.700   0.108   6.393  0.0191  0.0701 -1.3630
   92SAPS   C12 8948   6.526   0.115   6.295 -0.1154 -0.0301 -0.7881
   92SAPS  H12A 8949   6.538   0.218   6.264 -2.7558  0.6228  0.0955
   92SAPS   C13 8950   6.570   0.030   6.173 -0.3154 -0.0144 -0.5383
   92SAPS  O13A 8951   6.663  -0.049   6.184 -0.1300  0.1590 -0.1009
   92SAPS  O13B 8952   6.509   0.049   6.066  0.0589 -0.3211 -0.1425
   92SAPS   C11 8953   6.370   0.102   6.315  0.1378 -0.2490 -0.7862
   92SAPS  H11A 8954   6.336  -0.003   6.326 -2.3694  0.6737  1.6683
   92SAPS  H11B 8955   6.326   0.140   6.221 -1.0958  0.3389 -0.0025
   92SAPS     P 8956   6.186   0.223   6.449 -0.0226  0.0913 -0.5551
   92SAPS   O13 8957   6.143   0.302   6.335  0.1282  0.3675  1.5078
   92SAPS   O14 8958   6.097   0.104   6.483 -0.4960 -0.1651  0.0468
   92SAPS   O12 8959   6.332   0.183   6.427 -0.5274 -0.1747 -0.3220
   92SAPS   O11 8960   6.193   0.326   6.567  0.2289 -0.3879 -0.8014
   92SAPS    C1 8961   6.285   0.333   6.677 -0.0527  0.0872 -0.4709
   92SAPS    HA 8962   6.387   0.341   6.635  1.3083 -0.1885  2.5536
   92SAPS    HB 8963   6.271   0.432   6.725  0.6570  1.5686 -3.1250
   92SAPS    C2 8964   6.283   0.217   6.773 -0.5476 -0.2388 -0.0793
   92SAPS    HS 8965   6.332   0.142   6.708  0.8639  2.0712 -1.8612
   92SAPS   O21 8966   6.146   0.190   6.804  0.0448 -0.3965 -0.8920
   92SAPS   C21 8967   6.128   0.060   6.810  0.5322 -0.0613  0.1605
   92SAPS   O22 8968   6.206  -0.026   6.780 -0.1131  0.1471  0.1623
   92SAPS   C22 8969   5.982   0.043   6.859 -0.3310  0.1970  0.2459
   92SAPS   H2R 8970   5.919   0.081   6.776  2.1541 -1.2074 -2.4902
   92SAPS   H2S 8971   5.958  -0.065   6.861 -1.2329  0.4003  2.1410
   92SAPS    C3 8972   6.367   0.234   6.904 -0.4637  0.1731  0.5204
   92SAPS    HX 8973   6.311   0.300   6.974 -0.2409 -0.4828  1.3370
   92SAPS    HY 8974   6.460   0.292   6.888 -1.4102  1.2986 -1.1732
   92SAPS   O31 8975   6.397   0.110   6.962 -0.0066  0.0714  0.1896
   92SAPS   C31 8976   6.470   0.030   6.900 -0.0946  0.0665  0.0520
   92SAPS   O32 8977   6.522   0.045   6.787  0.1251 -0.0727 -0.5207
   92SAPS   C32 8978   6.477  -0.107   6.971  0.3883 -0.3755 -0.2624
   92SAPS   H2X 8979   6.506  -0.186   6.899  0.2122  1.3195 -2.2788
   92SAPS   H2Y 8980   6.373  -0.121   7.006  1.6879 -2.4999  3.2510
   92SAPS   C23 8981   5.962   0.107   6.995  0.5904  0.1373 -0.5175
   92SAPS   H3R 8982   5.855   0.135   7.002  0.7492  0.7526 -0.4869
   92SAPS   H3S 8983   6.018   0.203   6.999 -0.1916  0.5675  0.3774
   92SAPS   C24 8984   5.994   0.018   7.118 -0.1019 -0.2067 -0.1025
   92SAPS   H4R 8985   5.953  -0.083   7.097  3.3509 -2.1047  1.3516
   92SAPS   H4S 8986   5.926   0.059   7.195  0.0634 -0.3843  0.1422
   92SAPS   C25 8987   6.144   0.015   7.159  0.6001  0.4480  0.8087
   92SAPS   H5R 8988   6.210  -0.020   7.077 -0.3721 -1.3873  0.7546
   92SAPS   C26 8989   6.203   0.058   7.268  0.3577 -0.5242  0.5473
   92SAPS   H6R 8990   6.312   0.072   7.279  0.8311 -2.0317 -1.5486
   92SAPS   C27 8991   6.123   0.123   7.388  0.6328  1.4029  0.3659
   92SAPS   H7R 8992   6.053   0.048   7.430 -1.1713  3.3176  0.9662
   92SAPS   H7S 8993   6.058   0.203   7.346 -2.4206 -1.1576 -0.1377
   92SAPS   C28 8994   6.214   0.191   7.493  0.7298  0.0584  0.2887
   92SAPS   H8R 8995   6.234   0.297   7.471  0.2933 -0.2297 -1.7018
   92SAPS   C29 8996   6.258   0.146   7.606 -0.1243 -0.1598 -0.6133
   92SAPS   H9R 8997   6.317   0.214   7.669 -0.7794  0.5839 -0.7856
   92SAPS  C210 8998   6.233   0.012   7.667  0.3811  0.3469  0.2385
   92SAPS  H10R 8999   6.183  -0.061   7.600  1.0267 -0.3753  0.5221
   92SAPS  H10S 9000   6.165   0.028   7.753  1.0217  1.6319  0.5271
   92SAPS  C211 9001   6.368  -0.038   7.713  0.1688  0.4833  0.9039
   92SAPS  H11R 9002   6.437  -0.079   7.637  0.5209  1.8240  0.4856
   92SAPS  C212 9003   6.409  -0.047   7.838 -0.2759 -0.1518 -0.4091
   92SAPS  H12R 9004   6.506  -0.087   7.872 -0.9737  0.3826  2.4795
   92SAPS  C213 9005   6.331   0.001   7.963  0.1304  0.3054 -0.1928
   92SAPS  H13R 9006   6.234   0.049   7.934 -1.6823 -2.2024  1.3120
   92SAPS  H13S 9007   6.381   0.091   8.006 -0.8729  0.3402  0.9974
   92SAPS  C214 9008   6.317  -0.117   8.063 -1.0030 -0.6461 -0.1750
   92SAPS  H14R 9009   6.280  -0.210   8.017  1.8729 -1.4667 -1.0401
   92SAPS  C215 9010   6.332  -0.121   8.198 -0.5746 -1.1701  0.1814
   92SAPS  H15R 9011   6.339  -0.219   8.246 -1.2672 -1.7295 -0.8102
   92SAPS  C216 9012   6.370  -0.005   8.292 -0.2040  0.4848 -0.1175
   92SAPS  H16R 9013   6.397   0.088   8.237 -2.4140  1.4234  0.2893
   92SAPS  H16S 9014   6.457  -0.043   8.350 -0.1993 -0.4876 -0.7217
   92SAPS  C217 9015   6.247   0.037   8.375  0.0410 -0.1976 -0.4583
   92SAPS  H17R 9016   6.202  -0.043   8.439  0.6260 -0.3499 -0.2302
   92SAPS  H17S 9017   6.166   0.070   8.307 -0.6963 -1.8997 -0.4594
   92SAPS  C218 9018   6.286   0.166   8.458  0.2057 -0.2801 -0.9219
   92SAPS  H18R 9019   6.314   0.243   8.383 -2.1503 -1.3868 -3.0865
   92SAPS  H18S 9020   6.374   0.146   8.523 -0.2056 -0.6535 -0.4693
   92SAPS  C219 9021   6.171   0.221   8.545  0.2263  0.0151  0.0693
   92SAPS  H19R 9022   6.130   0.132   8.597 -0.7374  0.6582  0.4349
   92SAPS  H19S 9023   6.102   0.275   8.476  0.7835  3.9393  2.2718
   92SAPS  C220 9024   6.216   0.326   8.647  1.0960  0.0813  0.5937
   92SAPS  H20R 9025   6.128   0.383   8.685 -0.5395 -0.9282 -1.4244
   92SAPS  H20S 9026   6.282   0.393   8.589  1.2425 -0.7718 -0.2505
   92SAPS  H20T 9027   6.272   0.287   8.735  0.3874  0.3943  1.1987
   92SAPS   C33 9028   6.566  -0.119   7.093 -0.8691 -0.3080  0.1823
   92SAPS   H3X 9029   6.509  -0.084   7.182 -2.3391  0.8466 -1.1510
   92SAPS   H3Y 9030   6.666  -0.075   7.070 -0.7646 -0.6971 -0.1138
   92SAPS   C34 9031   6.609  -0.270   7.119  0.0434  0.3656  0.0644
   92SAPS   H4X 9032   6.664  -0.322   7.039  1.1321  1.2626  0.1941
   92SAPS   H4Y 9033   6.517  -0.328   7.137  0.9520 -0.3617  3.0828
   92SAPS   C35 9034   6.704  -0.277   7.245 -0.3128  0.0673 -0.5374
   92SAPS   H5X 9035   6.661  -0.220   7.330  0.3203 -1.1610  0.6421
   92SAPS   H5Y 9036   6.789  -0.221   7.202  0.2840 -0.3387  0.0923
   92SAPS   C36 9037   6.748  -0.416   7.281 -0.9784 -0.4423 -0.4591
   92SAPS   H6X 9038   6.789  -0.448   7.182 -2.8916  3.3396 -2.7293
   92SAPS   H6Y 9039   6.662  -0.485   7.289 -1.1549 -0.4692 -2.1243
   92SAPS   C37 9040   6.836  -0.421   7.404  0.0142  0.4041 -1.0092
   92SAPS   H7X 9041   6.789  -0.378   7.495  2.3335 -0.3418  0.6313
   92SAPS   H7Y 9042   6.929  -0.366   7.380  0.6434 -0.5340 -0.7994
   92SAPS   C38 9043   6.863  -0.571   7.444 -0.1409 -0.5196 -0.1557
   92SAPS   H8X 9044   6.910  -0.623   7.358 -1.0430 -1.8064  0.0987
   92SAPS   H8Y 9045   6.764  -0.620   7.458 -0.1490 -0.5661 -0.3752
   92SAPS   C39 9046   6.948  -0.585   7.564 -0.0307  0.0305 -0.0501
   92SAPS   H9X 9047   6.889  -0.536   7.645 -1.3044  0.2511 -1.0888
   92SAPS   H9Y 9048   7.050  -0.542   7.551  0.2629 -0.2918  1.0458
   92SAPS  C310 9049   6.948  -0.737   7.593 -0.5217  1.0113 -0.7021
   92SAPS  H10X 9050   7.037  -0.784   7.546 -1.6138 -0.8016 -1.0539
   92SAPS  H10Y 9051   6.850  -0.778   7.563 -0.5460  1.4141 -1.1829
   92SAPS  C311 9052   6.953  -0.757   7.746 -0.6856  0.4601  1.0318
   92SAPS  H11X 9053   6.851  -0.724   7.776 -1.2448 -0.2346 -0.0315
   92SAPS  H11Y 9054   7.034  -0.697   7.793  1.3236 -1.9866  0.8551
   92SAPS  C312 9055   6.970  -0.902   7.786 -0.4080  0.5987 -0.2088
   92SAPS  H12X 9056   6.951  -0.905   7.896 -0.8123  3.5651 -0.1267
   92SAPS  H12Y 9057   7.073  -0.940   7.769 -0.5882 -1.2711  2.3013
   92SAPS  C313 9058   6.876  -1.002   7.714  0.3742 -0.4533 -0.4835
   92SAPS  H13X 9059   6.908  -0.995   7.608  2.8559 -0.7650  0.1850
   92SAPS  H13Y 9060   6.768  -0.978   7.721  0.2042 -1.5628  1.6323
   92SAPS  C314 9061   6.895  -1.148   7.759 -0.1244  0.0875 -0.2271
   92SAPS  H14X 9062   7.000  -1.174   7.732 -0.3252 -1.1513  0.1381
   92SAPS  H14Y 9063   6.833  -1.205   7.687  0.5189 -0.0180 -0.7098
   92SAPS  C315 9064   6.866  -1.181   7.906  0.6741 -0.9378  0.1463
   92SAPS  H15X 9065   6.777  -1.124   7.940  2.3306  1.4239  0.8448
   92SAPS  H15Y 9066   6.947  -1.142   7.972 -1.6335 -0.5620  2.9343
   92SAPS  C316 9067   6.859  -1.331   7.934  1.2188 -0.4807 -0.1245
   92SAPS  H16X 9068   6.947  -1.377   7.885  0.0814 -1.4891 -1.3098
   92SAPS  H16Y 9069   6.772  -1.372   7.878  0.6577  1.4781 -0.7924
   92SAPS  C317 9070   6.850  -1.367   8.083 -0.5330 -0.1063 -0.5243
   92SAPS  H17X 9071   6.786  -1.457   8.088 -0.0774 -0.5089 -1.6906
   92SAPS  H17Y 9072   6.796  -1.286   8.138  1.8543  0.2006  1.5358
   92SAPS  C318 9073   6.982  -1.388   8.160 -0.2696 -0.1651 -0.1824
   92SAPS  H18X 9074   6.961  -1.377   8.269 -0.6486 -0.3367 -0.2365
   92SAPS  H18Y 9075   7.052  -1.304   8.143 -0.3107  0.5037  2.5321
   92SAPS  H18Z 9076   7.036  -1.484   8.143  2.2507  0.7660  1.9690
   93SAPS     N 9077   4.959   0.245   6.206  0.1162 -0.0636 -0.5714
   93SAPS   HN1 9078   4.966   0.248   6.102  0.7457  0.8312 -0.5135
   93SAPS   HN2 9079   4.877   0.190   6.239  1.1617 -0.8368  0.7776
   93SAPS   HN3 9080   4.961   0.342   6.243  0.8281  1.0840 -3.3413
   93SAPS   C12 9081   5.085   0.178   6.241  0.7026  0.0011 -0.2525
   93SAPS  H12A 9082   5.056   0.074   6.236 -3.7128  1.0411 -0.5165
   93SAPS   C13 9083   5.210   0.224   6.165  0.8107  0.0293  0.0272
   93SAPS  O13A 9084   5.194   0.319   6.081  0.1689  0.1237  0.3178
   93SAPS  O13B 9085   5.314   0.155   6.166 -0.2479  0.3773  0.3477
   93SAPS   C11 9086   5.108   0.195   6.397  0.2566 -0.4498  0.2217
   93SAPS  H11A 9087   5.200   0.136   6.417  3.0721  2.6178 -2.4708
   93SAPS  H11B 9088   5.029   0.146   6.458 -1.3152  0.4136 -1.0691
   93SAPS     P 9089   5.234   0.359   6.545 -0.1166  0.3777  0.1146
   93SAPS   O13 9090   5.352   0.269   6.522  0.3678  0.3906  0.0650
   93SAPS   O14 9091   5.265   0.500   6.534 -0.1790  0.4970  0.6480
   93SAPS   O12 9092   5.129   0.332   6.432 -0.4307 -0.3237 -0.6477
   93SAPS   O11 9093   5.152   0.317   6.680  0.0374  0.0593 -0.1665
   93SAPS    C1 9094   5.239   0.320   6.803 -0.0785  0.3453 -0.3716
   93SAPS    HA 9095   5.277   0.217   6.823  1.6960  1.2591  1.2897
   93SAPS    HB 9096   5.327   0.388   6.795 -0.0610  0.5165  0.9505
   93SAPS    C2 9097   5.145   0.363   6.920  0.1118 -0.9290 -0.5271
   93SAPS    HS 9098   5.204   0.398   7.008  0.8818 -1.4397 -0.8349
   93SAPS   O21 9099   5.053   0.255   6.957  0.2550  0.4014  0.1592
   93SAPS   C21 9100   5.114   0.177   7.044 -0.1881  1.0200  0.0507
   93SAPS   O22 9101   5.225   0.194   7.099  0.6803  0.6090  0.4039
   93SAPS   C22 9102   5.016   0.054   7.058  0.3526  0.1150  0.2616
   93SAPS   H2R 9103   4.914   0.086   7.027  0.0383 -0.5213  0.6249
   93SAPS   H2S 9104   5.041  -0.017   6.976 -2.1102 -1.2547  0.6006
   93SAPS    C3 9105   5.061   0.497   6.894 -0.5507 -0.1501 -0.4290
   93SAPS    HX 9106   5.000   0.472   6.805 -0.6298  2.5830 -1.2103
   93SAPS    HY 9107   5.139   0.570   6.862  2.9125 -1.7290  3.4392
   93SAPS   O31 9108   4.993   0.546   7.010 -0.7885  0.2581 -0.1501
   93SAPS   C31 9109   4.879   0.478   7.039 -0.3375 -1.0914  0.1452
   93SAPS   O32 9110   4.813   0.422   6.959 -0.0859  0.0856 -0.2231
   93SAPS   C32 9111   4.843   0.494   7.191 -0.6183 -0.1283  0.3803
   93SAPS   H2X 9112   4.732   0.489   7.197 -0.5644  0.3905  2.4481
   93SAPS   H2Y 9113   4.883   0.589   7.232  1.2050 -0.2994 -0.8730
   93SAPS   C23 9114   5.023  -0.016   7.194 -0.4070 -0.2911  0.1626
   93SAPS   H3R 9115   5.010   0.057   7.276  1.4459 -0.3413  0.5538
   93SAPS   H3S 9116   5.127  -0.052   7.214 -0.9576 -1.5801  0.8147
   93SAPS   C24 9117   4.929  -0.138   7.213  0.4398 -0.0077 -0.0728
   93SAPS   H4R 9118   4.963  -0.204   7.295  0.0843  1.8264  1.6287
   93SAPS   H4S 9119   4.934  -0.195   7.118  0.7223 -1.4020  0.7586
   93SAPS   C25 9120   4.782  -0.093   7.215 -0.6614  0.2974  0.8108
   93SAPS   H5R 9121   4.750  -0.029   7.132  0.4766 -0.5609 -0.3225
   93SAPS   C26 9122   4.699  -0.113   7.315 -0.0355  0.5689  0.0367
   93SAPS   H6R 9123   4.600  -0.065   7.307 -0.3976 -0.0041  0.9585
   93SAPS   C27 9124   4.714  -0.185   7.444  0.1261  0.0122  0.3752
   93SAPS   H7R 9125   4.807  -0.145   7.490 -0.9361  0.2342  2.4431
   93SAPS   H7S 9126   4.738  -0.290   7.417  0.1898  0.8500 -3.3869
   93SAPS   C28 9127   4.604  -0.191   7.542  0.5678  0.2088 -0.3369
   93SAPS   H8R 9128   4.505  -0.160   7.508  0.4464  0.2343  0.0279
   93SAPS   C29 9129   4.626  -0.201   7.673 -1.1652  0.2514  0.4291
   93SAPS   H9R 9130   4.540  -0.222   7.737 -1.1379 -0.7888  0.1402
   93SAPS  C210 9131   4.762  -0.219   7.737  0.0355 -1.1046  0.5960
   93SAPS  H10R 9132   4.803  -0.122   7.773  0.6495 -0.6467 -1.2200
   93SAPS  H10S 9133   4.843  -0.249   7.667 -0.3064 -1.0213  0.1590
   93SAPS  C211 9134   4.746  -0.327   7.839  0.2334  0.7896  0.3408
   93SAPS  H11R 9135   4.740  -0.430   7.800 -0.4474  0.7434  0.5553
   93SAPS  C212 9136   4.738  -0.304   7.974  0.3509  0.0680  0.3919
   93SAPS  H12R 9137   4.732  -0.393   8.037  2.8588 -2.6825 -2.8820
   93SAPS  C213 9138   4.761  -0.162   8.037  0.5106  0.3071  0.3773
   93SAPS  H13R 9139   4.673  -0.126   8.094  1.1559  1.3234  0.7733
   93SAPS  H13S 9140   4.775  -0.088   7.954 -0.3661 -1.2814 -1.2634
   93SAPS  C214 9141   4.882  -0.155   8.128 -0.0895  0.1959 -0.1255
   93SAPS  H14R 9142   4.975  -0.144   8.070 -0.0514 -1.5040 -0.4592
   93SAPS  C215 9143   4.891  -0.170   8.265 -0.5032 -0.5551  1.0057
   93SAPS  H15R 9144   4.984  -0.170   8.323 -1.3572  0.3120  2.4167
   93SAPS  C216 9145   4.766  -0.193   8.350  0.1076 -0.5986  0.3016
   93SAPS  H16R 9146   4.758  -0.300   8.378  0.6370 -0.5480  0.6670
   93SAPS  H16S 9147   4.676  -0.160   8.294  0.9103  1.4409  0.0921
   93SAPS  C217 9148   4.773  -0.115   8.488  0.0815 -0.3107  0.3686
   93SAPS  H17R 9149   4.775  -0.005   8.473  0.1464 -0.2885  0.5405
   93SAPS  H17S 9150   4.871  -0.143   8.532  0.2541 -2.2196 -1.0656
   93SAPS  C218 9151   4.654  -0.149   8.580  0.3097  0.0619 -0.2826
   93SAPS  H18R 9152   4.643  -0.260   8.586  0.7690 -0.1207 -2.3037
   93SAPS  H18S 9153   4.564  -0.107   8.530 -0.2639  0.9166  1.3658
   93SAPS  C219 9154   4.666  -0.082   8.719 -0.5818  0.2620 -0.2265
   93SAPS  H19R 9155   4.583  -0.112   8.787 -1.3092  0.6354 -0.9338
   93SAPS  H19S 9156   4.661   0.027   8.699 -1.0884  0.1165 -0.9196
   93SAPS  C220 9157   4.796  -0.097   8.787 -0.2974 -0.3019 -0.1519
   93SAPS  H20R 9158   4.882  -0.045   8.739  0.8268 -1.1987  0.8333
   93SAPS  H20S 9159   4.831  -0.202   8.791 -0.6641 -0.4594 -1.0051
   93SAPS  H20T 9160   4.796  -0.061   8.892  1.5589 -0.8078  0.0472
   93SAPS   C33 9161   4.894   0.379   7.275 -0.4208  0.2795 -0.0793
   93SAPS   H3X 9162   4.991   0.346   7.230 -0.6801 -2.5657  1.2337
   93SAPS   H3Y 9163   4.828   0.290   7.267  0.0895 -0.1233  0.1526
   93SAPS   C34 9164   4.900   0.405   7.418 -0.3463 -0.4889 -1.1792
   93SAPS   H4X 9165   4.793   0.419   7.446  0.1027 -2.0441  1.6821
   93SAPS   H4Y 9166   4.964   0.492   7.442 -0.8658 -0.6174  0.8507
   93SAPS   C35 9167   4.948   0.282   7.507 -0.3093  0.1144  0.3329
   93SAPS   H5X 9168   4.878   0.201   7.478 -0.5317  0.4654 -0.1262
   93SAPS   H5Y 9169   4.938   0.312   7.614 -1.0536 -1.1573  0.6430
   93SAPS   C36 9170   5.100   0.248   7.490 -0.9574 -0.8826 -0.6188
   93SAPS   H6X 9171   5.168   0.336   7.493  0.7080 -1.8882 -4.1341
   93SAPS   H6Y 9172   5.111   0.208   7.387  2.1443  2.0487 -1.6053
   93SAPS   C37 9173   5.137   0.141   7.594 -0.0764  0.0802  0.5857
   93SAPS   H7X 9174   5.113   0.186   7.693 -1.8548 -1.6777  1.0025
   93SAPS   H7Y 9175   5.244   0.111   7.593 -0.5894 -1.8574  0.4189
   93SAPS   C38 9176   5.059   0.006   7.586  0.0075 -0.4392  0.4831
   93SAPS   H8X 9177   5.090  -0.043   7.491  0.4140 -1.9222  1.3518
   93SAPS   H8Y 9178   4.954   0.041   7.584  0.2783  0.3543 -0.2739
   93SAPS   C39 9179   5.086  -0.086   7.707 -0.1566 -0.0619 -0.3246
   93SAPS   H9X 9180   5.026  -0.180   7.706  1.0573 -0.8501 -0.3554
   93SAPS   H9Y 9181   5.054  -0.024   7.793  1.5069  2.6956 -1.5510
   93SAPS  C310 9182   5.226  -0.132   7.732 -0.1565 -0.4715  0.3404
   93SAPS  H10X 9183   5.296  -0.046   7.725 -0.0937 -0.6005 -1.0854
   93SAPS  H10Y 9184   5.253  -0.203   7.651 -0.0291  1.5760 -1.5181
   93SAPS  C311 9185   5.219  -0.195   7.872 -0.2887 -0.0987 -0.4533
   93SAPS  H11X 9186   5.139  -0.273   7.865  1.4620 -1.9246 -1.0515
   93SAPS  H11Y 9187   5.198  -0.118   7.949  1.2693  0.3394 -0.4470
   93SAPS  C312 9188   5.366  -0.245   7.914  0.7974 -0.2318  0.0454
   93SAPS  H12X 9189   5.438  -0.162   7.930  0.8305 -0.2997  0.2400
   93SAPS  H12Y 9190   5.405  -0.305   7.829 -2.5319 -0.3071 -1.6197
   93SAPS  C313 9191   5.365  -0.332   8.036 -0.4681  0.0114 -0.1970
   93SAPS  H13X 9192   5.305  -0.419   8.002  0.2258  0.5969 -3.1533
   93SAPS  H13Y 9193   5.316  -0.290   8.127  0.1564  1.6601 -0.5979
   93SAPS  C314 9194   5.501  -0.379   8.094 -0.7803  0.3331  0.8489
   93SAPS  H14X 9195   5.559  -0.411   8.005 -1.3699  0.2727  0.4864
   93SAPS  H14Y 9196   5.493  -0.460   8.169 -0.0623  0.3831  0.9857
   93SAPS  C315 9197   5.572  -0.262   8.166 -0.2052  0.6004  0.1678
   93SAPS  H15X 9198   5.511  -0.214   8.246  0.1277  0.4430  0.5232
   93SAPS  H15Y 9199   5.594  -0.187   8.087  0.0651 -2.2046 -2.6239
   93SAPS  C316 9200   5.700  -0.306   8.238  0.3018  0.8580  0.3189
   93SAPS  H16X 9201   5.761  -0.365   8.166 -0.5422 -1.4890  1.4071
   93SAPS  H16Y 9202   5.669  -0.374   8.320  0.4946  0.0361 -0.2731
   93SAPS  C317 9203   5.767  -0.183   8.292 -0.4132 -0.6466  0.2405
   93SAPS  H17X 9204   5.700  -0.146   8.372  1.1976  0.2200  1.2441
   93SAPS  H17Y 9205   5.768  -0.109   8.210  0.0582 -1.7593 -0.7930
   93SAPS  C318 9206   5.904  -0.201   8.356  0.0897  0.5023  0.4671
   93SAPS  H18X 9207   5.973  -0.124   8.315  0.3561 -0.0652 -0.1711
   93SAPS  H18Y 9208   5.947  -0.294   8.313 -4.3715 -0.8903 -1.6311
   93SAPS  H18Z 9209   5.909  -0.202   8.467  0.3362 -0.0055  0.4517
   94SAPS     N 9210   0.067   4.052   5.743  0.1176  0.3048  0.5814
   94SAPS   HN1 9211   0.037   4.017   5.650  3.8788  1.5788 -1.3136
   94SAPS   HN2 9212   0.072   4.156   5.737 -1.0042  0.4572  1.7717
   94SAPS   HN3 9213   0.159   4.006   5.753  1.0254  0.8812 -3.5286
   94SAPS   C12 9214  -0.018   4.000   5.850 -0.5616  0.1569 -0.8384
   94SAPS  H12A 9215   0.035   4.034   5.938  2.0541 -1.6453 -1.5767
   94SAPS   C13 9216  -0.170   4.052   5.861 -0.1265  0.0299  0.4685
   94SAPS  O13A 9217  -0.211   4.152   5.792 -0.4027  0.9757 -0.0014
   94SAPS  O13B 9218  -0.238   4.014   5.957  0.2667 -0.1260  0.4063
   94SAPS   C11 9219  -0.003   3.846   5.862  0.5792 -0.6073  0.0099
   94SAPS  H11A 9220  -0.074   3.786   5.801  0.1985 -3.0329  2.6305
   94SAPS  H11B 9221  -0.038   3.827   5.965  1.5048  2.4673  1.0067
   94SAPS     P 9222   0.195   3.680   5.911 -0.1414  0.1968  0.1880
   94SAPS   O13 9223   0.104   3.566   5.921  0.6566  0.1065 -0.0235
   94SAPS   O14 9224   0.328   3.643   5.854 -0.1624 -0.4164  0.5722
   94SAPS   O12 9225   0.135   3.802   5.834 -0.0268 -0.1069 -0.1347
   94SAPS   O11 9226   0.224   3.728   6.067  0.3138 -0.1278  0.4010
   94SAPS    C1 9227   0.330   3.820   6.088 -0.1067  0.0683  0.2295
   94SAPS    HA 9228   0.424   3.768   6.062  0.4273 -0.3538  2.8203
   94SAPS    HB 9229   0.314   3.915   6.033 -0.6996  0.0258  0.3136
   94SAPS    C2 9230   0.353   3.868   6.237 -0.0137  0.1370  0.0140
   94SAPS    HS 9231   0.459   3.901   6.244  0.2060 -0.8267  1.6405
   94SAPS   O21 9232   0.298   3.766   6.334 -0.4978 -0.8781  0.7076
   94SAPS   C21 9233   0.389   3.671   6.355 -0.1350 -1.3967  0.0336
   94SAPS   O22 9234   0.511   3.685   6.339  0.3397 -0.0606  0.6434
   94SAPS   C22 9235   0.319   3.555   6.424 -0.0784  0.2865 -0.3433
   94SAPS   H2R 9236   0.211   3.573   6.444 -0.0391 -1.4135  1.7995
   94SAPS   H2S 9237   0.329   3.474   6.348  1.9049 -0.9277  1.1272
   94SAPS    C3 9238   0.266   3.990   6.259 -0.5219 -0.4244  0.2006
   94SAPS    HX 9239   0.166   3.977   6.211 -0.8951  0.5750  0.6807
   94SAPS    HY 9240   0.309   4.080   6.210 -1.5261  0.2046  0.4395
   94SAPS   O31 9241   0.259   4.028   6.396  0.1196  0.0550 -0.4442
   94SAPS   C31 9242   0.144   4.015   6.463  0.2283 -0.5618 -0.3869
   94SAPS   O32 9243   0.040   3.977   6.417 -0.2551  0.0657  0.3358
   94SAPS   C32 9244   0.168   4.101   6.584  0.1515 -0.5722  0.5584
   94SAPS   H2X 9245   0.218   4.192   6.543 -2.6938  0.6025 -0.5297
   94SAPS   H2Y 9246   0.235   4.039   6.647  0.9578 -1.0671 -0.7350
   94SAPS   C23 9247   0.397   3.511   6.557  0.2284 -0.7280  0.4000
   94SAPS   H3R 9248   0.382   3.581   6.643 -2.9692 -0.5335 -0.1836
   94SAPS   H3S 9249   0.504   3.513   6.527  0.3427  0.6711  0.8413
   94SAPS   C24 9250   0.351   3.373   6.598  0.8607 -0.0764 -0.0919
   94SAPS   H4R 9251   0.240   3.368   6.589  0.6426  0.9465  1.6317
   94SAPS   H4S 9252   0.372   3.366   6.706  0.2108 -1.1789 -0.0249
   94SAPS   C25 9253   0.404   3.253   6.524 -0.2635  0.5478 -0.2131
   94SAPS   H5R 9254   0.358   3.246   6.425  1.2499  1.4820 -1.0236
   94SAPS   C26 9255   0.492   3.160   6.565 -1.3198  0.4913 -0.0536
   94SAPS   H6R 9256   0.525   3.079   6.498  0.6921  2.5335 -1.6935
   94SAPS   C27 9257   0.556   3.159   6.701 -0.1677  0.0400 -0.3800
   94SAPS   H7R 9258   0.478   3.120   6.770  1.1082 -0.4619  0.8286
   94SAPS   H7S 9259   0.574   3.258   6.748 -2.1235 -0.5320  1.7513
   94SAPS   C28 9260   0.685   3.082   6.716 -0.3886  0.3475  0.5976
   94SAPS   H8R 9261   0.751   3.087   6.628 -0.6874 -2.4150  0.1262
   94SAPS   C29 9262   0.726   2.999   6.813  0.6235  0.0745 -0.7381
   94SAPS   H9R 9263   0.827   2.956   6.813  0.9032  0.6611  0.5585
   94SAPS  C210 9264   0.661   2.957   6.941 -0.0708 -0.0654  0.1303
   94SAPS  H10R 9265   0.680   2.849   6.958 -0.7276  0.0855  2.1439
   94SAPS  H10S 9266   0.550   2.961   6.945 -0.1371 -1.9234  1.3589
   94SAPS  C211 9267   0.706   3.040   7.060 -1.1671 -0.5385  0.1156
   94SAPS  H11R 9268   0.694   3.149   7.046 -1.3264 -0.4962  0.5581
   94SAPS  C212 9269   0.755   3.006   7.178 -0.4386  0.5925  0.3483
   94SAPS  H12R 9270   0.778   3.086   7.250 -1.1807  2.7191 -1.6454
   94SAPS  C213 9271   0.776   2.858   7.214 -0.2187 -0.0186  0.9050
   94SAPS  H13R 9272   0.884   2.829   7.215 -0.4466 -0.9721 -0.2132
   94SAPS  H13S 9273   0.715   2.791   7.151 -1.3741  1.0553  0.8553
   94SAPS  C214 9274   0.718   2.839   7.346 -0.2498  0.1998  0.0878
   94SAPS  H14R 9275   0.610   2.820   7.343 -0.4221  1.1660 -2.1416
   94SAPS  C215 9276   0.770   2.842   7.470 -0.9873  0.1662  0.9622
   94SAPS  H15R 9277   0.708   2.812   7.555 -0.9733 -2.5383  0.0998
   94SAPS  C216 9278   0.917   2.868   7.491 -0.3317 -0.4120 -0.2230
   94SAPS  H16R 9279   0.916   2.955   7.560 -0.6114  0.3527 -1.1847
   94SAPS  H16S 9280   0.968   2.893   7.396  2.0548  2.5623  1.6390
   94SAPS  C217 9281   0.986   2.743   7.538  1.0006 -0.0300 -0.4369
   94SAPS  H17R 9282   0.966   2.654   7.475 -0.2648  0.0588 -0.1842
   94SAPS  H17S 9283   0.946   2.709   7.636 -0.1424  2.0852 -0.1015
   94SAPS  C218 9284   1.141   2.765   7.559 -0.5948 -0.0983  0.1780
   94SAPS  H18R 9285   1.144   2.857   7.620  1.0166 -0.5261  0.7806
   94SAPS  H18S 9286   1.178   2.777   7.455  1.4936 -0.8987  0.7878
   94SAPS  C219 9287   1.209   2.644   7.615  0.9003  0.5247 -0.2594
   94SAPS  H19R 9288   1.311   2.637   7.571  0.7802  0.6827 -0.5610
   94SAPS  H19S 9289   1.146   2.555   7.592 -1.1299  0.2081  5.0228
   94SAPS  C220 9290   1.228   2.647   7.763 -0.2036  0.1847 -0.0439
   94SAPS  H20R 9291   1.284   2.555   7.790 -2.5460 -0.9152  1.4169
   94SAPS  H20S 9292   1.135   2.645   7.825 -0.6363 -2.2678 -0.6517
   94SAPS  H20T 9293   1.287   2.737   7.792 -0.0861  0.4146 -0.9610
   94SAPS   C33 9294   0.034   4.140   6.654 -0.3899  0.5360 -0.7795
   94SAPS   H3X 9295  -0.019   4.043   6.667 -0.3603  0.8766  3.0007
   94SAPS   H3Y 9296  -0.022   4.208   6.585  0.0921 -0.2283 -1.9471
   94SAPS   C34 9297   0.040   4.204   6.794  0.0183  0.2983 -0.0025
   94SAPS   H4X 9298  -0.059   4.240   6.827  0.5367  2.0346 -0.2670
   94SAPS   H4Y 9299   0.109   4.289   6.779 -1.2623  1.5373  0.8831
   94SAPS   C35 9300   0.101   4.107   6.894  0.0415  0.5523 -0.0523
   94SAPS   H5X 9301   0.207   4.086   6.867  0.6972 -1.0677  3.3059
   94SAPS   H5Y 9302   0.045   4.011   6.894 -2.4472  1.9191 -1.0409
   94SAPS   C36 9303   0.102   4.161   7.039 -0.2803  0.0444  0.9526
   94SAPS   H6X 9304  -0.004   4.187   7.063 -1.2354 -0.8531 -1.8557
   94SAPS   H6Y 9305   0.170   4.249   7.042  1.4902 -1.2079 -0.6718
   94SAPS   C37 9306   0.153   4.052   7.130 -0.3217  0.5999 -0.0725
   94SAPS   H7X 9307   0.245   4.018   7.078 -0.5708  0.2157 -0.2614
   94SAPS   H7Y 9308   0.084   3.965   7.126 -0.4547  0.7140 -0.2702
   94SAPS   C38 9309   0.168   4.104   7.275 -0.4502 -0.1423 -0.5832
   94SAPS   H8X 9310   0.084   4.172   7.302  1.2750  0.8618  2.8891
   94SAPS   H8Y 9311   0.264   4.158   7.284 -0.4745 -0.4407  2.4185
   94SAPS   C39 9312   0.183   3.986   7.380  0.4272 -0.3126 -0.4673
   94SAPS   H9X 9313   0.265   3.921   7.344 -0.7048 -3.7997  2.5883
   94SAPS   H9Y 9314   0.087   3.931   7.370  0.2075 -0.7907  3.0701
   94SAPS  C310 9315   0.221   4.027   7.524  0.4187  0.0712  0.6037
   94SAPS  H10X 9316   0.134   4.080   7.569  0.3546 -1.3706  2.2912
   94SAPS  H10Y 9317   0.307   4.098   7.524  0.7679 -0.3235 -0.6882
   94SAPS  C311 9318   0.227   3.917   7.626 -0.3308 -0.0914 -0.8124
   94SAPS  H11X 9319   0.314   3.852   7.603 -0.7631 -0.9183 -0.1948
   94SAPS  H11Y 9320   0.135   3.855   7.638 -0.4477  0.2692  0.2305
   94SAPS  C312 9321   0.258   3.969   7.773 -0.4271  0.2468  1.2324
   94SAPS  H12X 9322   0.166   4.030   7.792 -0.0243  0.8124  1.3831
   94SAPS  H12Y 9323   0.341   4.040   7.791 -0.0791  0.0685  0.3364
   94SAPS  C313 9324   0.255   3.848   7.866  0.7263  0.3362  0.0991
   94SAPS  H13X 9325   0.334   3.770   7.858 -0.9499 -1.3329 -0.6759
   94SAPS  H13Y 9326   0.159   3.796   7.850  0.4797  0.6128  0.6632
   94SAPS  C314 9327   0.249   3.899   8.008  0.0531 -0.1385  0.1640
   94SAPS  H14X 9328   0.170   3.974   8.030  0.0725  0.1395 -0.6472
   94SAPS  H14Y 9329   0.342   3.955   8.031  0.5524 -1.4933  1.5800
   94SAPS  C315 9330   0.260   3.790   8.124 -0.3769  0.1610 -1.1166
   94SAPS  H15X 9331   0.359   3.743   8.103 -0.0589 -0.1445  0.9326
   94SAPS  H15Y 9332   0.187   3.706   8.128  1.4665 -1.4830  2.0705
   94SAPS  C316 9333   0.276   3.842   8.270 -0.4835 -0.4738  0.3136
   94SAPS  H16X 9334   0.297   3.758   8.339  0.5187 -2.5479 -2.3498
   94SAPS  H16Y 9335   0.176   3.878   8.305 -0.8531 -0.3582 -0.8123
   94SAPS  C317 9336   0.373   3.956   8.279 -0.2835 -0.0626  0.1806
   94SAPS  H17X 9337   0.371   4.002   8.380 -0.6692  0.3520 -0.0182
   94SAPS  H17Y 9338   0.341   4.038   8.212  0.7685 -0.4629 -0.8396
   94SAPS  C318 9339   0.517   3.911   8.264 -0.3870  0.0068  0.1805
   94SAPS  H18X 9340   0.582   4.001   8.266 -0.8921  0.4700 -2.1187
   94SAPS  H18Y 9341   0.539   3.867   8.165  1.5034  1.1023  0.0610
   94SAPS  H18Z 9342   0.544   3.841   8.346  1.4249 -0.8326 -1.0614
   95SAPS     N 9343   3.284   5.710   6.330 -0.1267 -0.1260  0.4927
   95SAPS   HN1 9344   3.207   5.684   6.264 -2.2238  0.6839  2.4705
   95SAPS   HN2 9345   3.305   5.623   6.383 -1.2615 -0.7293 -0.0068
   95SAPS   HN3 9346   3.253   5.779   6.401  2.6334  2.0757 -0.2568
   95SAPS   C12 9347   3.400   5.774   6.263  0.0164  0.3300 -0.5781
   95SAPS  H12A 9348   3.482   5.758   6.331  0.4253  0.7476 -0.9694
   95SAPS   C13 9349   3.434   5.708   6.130  0.2253 -0.0107 -0.9998
   95SAPS  O13A 9350   3.375   5.606   6.088  0.2622 -0.6367  0.3738
   95SAPS  O13B 9351   3.510   5.770   6.054 -0.6230 -0.4102 -0.2138
   95SAPS   C11 9352   3.378   5.931   6.243  0.0505  0.3031 -0.8102
   95SAPS  H11A 9353   3.278   5.943   6.195 -0.2353 -2.0104 -0.9322
   95SAPS  H11B 9354   3.462   5.957   6.175 -0.4402  0.8600 -1.2178
   95SAPS     P 9355   3.266   6.042   6.469  0.0086 -0.0393 -0.1002
   95SAPS   O13 9356   3.316   6.134   6.577  0.0278 -0.0795  0.0070
   95SAPS   O14 9357   3.152   6.096   6.391  0.1519  0.3752  0.1694
   95SAPS   O12 9358   3.387   6.006   6.365 -0.0408  0.0632  0.5059
   95SAPS   O11 9359   3.216   5.904   6.534 -0.1425  0.0600  0.1134
   95SAPS    C1 9360   3.273   5.856   6.656  0.4319  0.4197 -0.0680
   95SAPS    HA 9361   3.383   5.846   6.658  0.4271  0.4196  0.3858
   95SAPS    HB 9362   3.264   5.923   6.744  1.5694 -1.8197  1.8526
   95SAPS    C2 9363   3.208   5.724   6.703  0.1636  0.3459 -0.4432
   95SAPS    HS 9364   3.182   5.670   6.609 -1.0564  1.2004 -0.6287
   95SAPS   O21 9365   3.086   5.750   6.776 -0.0466 -0.7131  0.2257
   95SAPS   C21 9366   3.009   5.647   6.797  0.5741  0.2853  0.5025
   95SAPS   O22 9367   3.035   5.537   6.753 -0.2048 -0.5044  0.5269
   95SAPS   C22 9368   2.895   5.675   6.889 -0.7115 -1.1889  0.4432
   95SAPS   H2R 9369   2.946   5.699   6.984  1.9128 -0.0386 -1.1376
   95SAPS   H2S 9370   2.830   5.753   6.844 -0.9401 -1.5914  0.0562
   95SAPS    C3 9371   3.298   5.639   6.793  0.1061 -0.1466  0.1759
   95SAPS    HX 9372   3.384   5.616   6.726  0.1927  1.6272 -0.3670
   95SAPS    HY 9373   3.248   5.544   6.821 -0.7575  0.7477  1.8111
   95SAPS   O31 9374   3.346   5.717   6.902  0.1156  0.4170 -0.7014
   95SAPS   C31 9375   3.290   5.702   7.019 -0.0211 -0.0954  0.3785
   95SAPS   O32 9376   3.212   5.614   7.046  0.2034 -0.1478  0.1492
   95SAPS   C32 9377   3.319   5.821   7.111 -0.1275 -0.3469  0.1339
   95SAPS   H2X 9378   3.264   5.907   7.069 -0.0467  0.3892  1.4937
   95SAPS   H2Y 9379   3.427   5.848   7.113  0.3912 -2.2076  2.4729
   95SAPS   C23 9380   2.796   5.559   6.909 -0.0753  0.3168  0.1410
   95SAPS   H3R 9381   2.838   5.479   6.974  0.2802 -1.0543 -1.6731
   95SAPS   H3S 9382   2.784   5.518   6.806 -2.5164  0.2534  0.3834
   95SAPS   C24 9383   2.656   5.608   6.954  0.3878 -0.1603  0.2504
   95SAPS   H4R 9384   2.635   5.689   6.881  2.7618 -0.3154 -0.6967
   95SAPS   H4S 9385   2.648   5.666   7.049 -3.3770  0.0497 -0.0599
   95SAPS   C25 9386   2.560   5.488   6.954 -0.4079  0.1790  0.2671
   95SAPS   H5R 9387   2.518   5.466   6.855  1.7239 -3.0182 -0.0535
   95SAPS   C26 9388   2.515   5.420   7.058  0.9256 -0.1758 -0.0129
   95SAPS   H6R 9389   2.442   5.346   7.021  0.8463 -1.2963  2.2203
   95SAPS   C27 9390   2.540   5.426   7.206 -0.2312  0.6231  1.0541
   95SAPS   H7R 9391   2.592   5.523   7.222  1.3685 -0.2519  1.2831
   95SAPS   H7S 9392   2.607   5.343   7.237  1.3939  1.4108 -0.1780
   95SAPS   C28 9393   2.419   5.421   7.297 -0.2059 -0.2051 -0.4687
   95SAPS   H8R 9394   2.322   5.428   7.245  0.4147 -3.2022 -2.2362
   95SAPS   C29 9395   2.429   5.409   7.433  0.4282  0.7375  0.2247
   95SAPS   H9R 9396   2.336   5.419   7.490  1.2236  1.1005  1.5038
   95SAPS  C210 9397   2.547   5.398   7.524 -0.8867  0.3256  0.1589
   95SAPS  H10R 9398   2.558   5.486   7.590  2.3741 -0.9898  1.6397
   95SAPS  H10S 9399   2.644   5.382   7.471 -0.8613 -1.5730  0.7021
   95SAPS  C211 9400   2.535   5.269   7.603  0.1943  0.6434  0.1712
   95SAPS  H11R 9401   2.511   5.171   7.560  1.1276  0.0720  0.9347
   95SAPS  C212 9402   2.533   5.271   7.735 -0.2777 -0.0567  0.1621
   95SAPS  H12R 9403   2.534   5.177   7.792  2.4297 -0.1372  0.1530
   95SAPS  C213 9404   2.553   5.392   7.823  0.4671 -0.1603  0.3343
   95SAPS  H13R 9405   2.451   5.435   7.829 -0.1999 -1.3084 -1.6867
   95SAPS  H13S 9406   2.633   5.461   7.789  0.0203  0.3670  0.3516
   95SAPS  C214 9407   2.599   5.361   7.959 -0.2445 -0.1790 -0.2368
   95SAPS  H14R 9408   2.642   5.261   7.976  1.7976  0.8817  1.2705
   95SAPS  C215 9409   2.589   5.441   8.066  0.4260 -0.4017  0.1472
   95SAPS  H15R 9410   2.629   5.408   8.162 -1.5748 -0.6319  0.9650
   95SAPS  C216 9411   2.535   5.585   8.056  0.8937  0.4428  0.3805
   95SAPS  H16R 9412   2.507   5.624   7.957  1.8067  1.6506  0.5764
   95SAPS  H16S 9413   2.615   5.654   8.092 -0.0153  1.8026 -0.1326
   95SAPS  C217 9414   2.420   5.618   8.153 -0.5710 -0.2598  0.4274
   95SAPS  H17R 9415   2.431   5.556   8.245 -0.4187 -0.9375 -0.0349
   95SAPS  H17S 9416   2.328   5.584   8.102 -1.2258  1.2069  0.5862
   95SAPS  C218 9417   2.406   5.770   8.177 -0.3409 -0.4550  0.1533
   95SAPS  H18R 9418   2.387   5.817   8.078  1.3971 -3.5806 -1.8221
   95SAPS  H18S 9419   2.498   5.818   8.219 -0.4472 -0.2815  0.1907
   95SAPS  C219 9420   2.297   5.807   8.280  0.1694  0.5568 -0.0471
   95SAPS  H19R 9421   2.207   5.751   8.248  1.2827 -1.8380  0.8120
   95SAPS  H19S 9422   2.271   5.915   8.273  1.1774  0.8297  0.2200
   95SAPS  C220 9423   2.344   5.768   8.424  0.6613  0.3218  0.0476
   95SAPS  H20R 9424   2.270   5.798   8.501  0.7263 -1.1379  0.7093
   95SAPS  H20S 9425   2.439   5.821   8.446  1.1943 -0.8553  0.6457
   95SAPS  H20T 9426   2.358   5.659   8.440 -1.1330  0.2417  1.3404
   95SAPS   C33 9427   3.280   5.795   7.254 -0.5204  0.1726 -0.1491
   95SAPS   H3X 9428   3.371   5.815   7.316  1.3623 -1.5449 -2.1885
   95SAPS   H3Y 9429   3.267   5.688   7.280 -1.7403  0.8032  2.1185
   95SAPS   C34 9430   3.154   5.877   7.293 -0.0232 -0.3952 -0.5225
   95SAPS   H4X 9431   3.073   5.877   7.217 -0.0817 -2.5228 -0.5100
   95SAPS   H4Y 9432   3.202   5.977   7.292  1.8116 -1.1692  1.7826
   95SAPS   C35 9433   3.102   5.854   7.437 -0.5128  0.5509 -0.1394
   95SAPS   H5X 9434   3.060   5.751   7.441 -0.4841  0.5621  0.6113
   95SAPS   H5Y 9435   3.033   5.939   7.453  0.8461  1.6569 -0.0236
   95SAPS   C36 9436   3.211   5.848   7.543  0.3456 -0.0456 -0.4020
   95SAPS   H6X 9437   3.269   5.941   7.524  1.4850 -0.9331 -1.5170
   95SAPS   H6Y 9438   3.274   5.757   7.534 -3.3300 -2.6464 -2.4065
   95SAPS   C37 9439   3.158   5.861   7.688 -0.1885 -0.1782 -0.1716
   95SAPS   H7X 9440   3.096   5.774   7.719 -0.8868  0.1628 -0.5882
   95SAPS   H7Y 9441   3.086   5.945   7.675  0.2667  0.1034 -0.9432
   95SAPS   C38 9442   3.265   5.896   7.795 -0.1513 -0.1591 -0.6955
   95SAPS   H8X 9443   3.335   5.978   7.766 -0.3733 -0.2590 -1.5285
   95SAPS   H8Y 9444   3.327   5.804   7.802 -0.1867 -0.1283  0.1215
   95SAPS   C39 9445   3.201   5.927   7.930 -0.4483  0.5051 -0.6261
   95SAPS   H9X 9446   3.142   5.839   7.966  0.4649  0.2338  0.2388
   95SAPS   H9Y 9447   3.131   6.013   7.932 -0.4141  0.5254  0.5659
   95SAPS  C310 9448   3.308   5.945   8.041 -1.0451 -0.0295 -0.1960
   95SAPS  H10X 9449   3.348   6.049   8.044 -0.1876 -0.3770  1.6779
   95SAPS  H10Y 9450   3.394   5.890   7.997 -0.3414 -0.3464  1.5193
   95SAPS  C311 9451   3.279   5.889   8.178 -0.1213  0.1186 -0.0128
   95SAPS  H11X 9452   3.368   5.917   8.238  0.2209  0.4026 -0.6519
   95SAPS  H11Y 9453   3.270   5.778   8.185  2.1211 -0.0883  0.2439
   95SAPS  C312 9454   3.144   5.945   8.241 -0.8734 -0.0219 -0.4911
   95SAPS  H12X 9455   3.058   5.901   8.186  0.1911 -0.2515 -2.0361
   95SAPS  H12Y 9456   3.145   6.056   8.237 -1.1235 -0.0252 -0.6399
   95SAPS  C313 9457   3.127   5.911   8.395  0.1678  0.6785 -0.0090
   95SAPS  H13X 9458   3.198   5.975   8.452 -0.7964  0.2858  1.7203
   95SAPS  H13Y 9459   3.156   5.804   8.407 -0.7635  0.3240 -0.8217
   95SAPS  C314 9460   2.982   5.942   8.444  0.6500 -0.3204 -0.1111
   95SAPS  H14X 9461   2.909   5.906   8.368 -0.1035  2.4073 -0.7659
   95SAPS  H14Y 9462   2.966   6.051   8.452 -0.3540 -0.5745  2.0473
   95SAPS  C315 9463   2.940   5.880   8.584  0.4080 -0.0703  0.7293
   95SAPS  H15X 9464   3.002   5.935   8.658  1.1853 -0.3394  0.2929
   95SAPS  H15Y 9465   2.969   5.772   8.589  1.6887  0.2274  0.2786
   95SAPS  C316 9466   2.790   5.905   8.606  0.6239  0.1262  1.2781
   95SAPS  H16X 9467   2.730   5.874   8.518  0.4428  1.7636  0.7975
   95SAPS  H16Y 9468   2.780   6.014   8.623 -1.1422  0.1517  0.2982
   95SAPS  C317 9469   2.725   5.843   8.724 -0.0121 -0.0937 -0.0520
   95SAPS  H17X 9470   2.625   5.885   8.747 -0.0183  0.7138 -1.4363
   95SAPS  H17Y 9471   2.790   5.864   8.811  0.3026 -0.4290 -0.2017
   95SAPS  C318 9472   2.711   5.683   8.728 -0.1719 -0.1823  0.2441
   95SAPS  H18X 9473   2.689   5.636   8.826  0.0316 -1.1142 -0.1476
   95SAPS  H18Y 9474   2.805   5.636   8.692  0.2604  0.8598 -0.0395
   95SAPS  H18Z 9475   2.626   5.653   8.662 -0.9874  0.0162  1.1848
   96SAPS     N 9476   4.816   0.446   6.490 -0.3169 -0.7343  0.2526
   96SAPS   HN1 9477   4.758   0.380   6.433 -2.7279  0.9288  0.6315
   96SAPS   HN2 9478   4.894   0.472   6.427 -0.4132 -1.9973 -0.4344
   96SAPS   HN3 9479   4.854   0.379   6.560  0.5810 -1.8526 -1.2299
   96SAPS   C12 9480   4.735   0.555   6.538 -1.0417 -0.1838  0.0858
   96SAPS  H12A 9481   4.702   0.607   6.450 -1.8607 -1.0235 -0.1291
   96SAPS   C13 9482   4.613   0.493   6.610 -0.0972 -0.3233  0.0112
   96SAPS  O13A 9483   4.587   0.369   6.619  0.1042 -0.5591  0.2625
   96SAPS  O13B 9484   4.535   0.573   6.663  0.3199 -0.1431 -0.1354
   96SAPS   C11 9485   4.819   0.647   6.632  0.3445  0.8725 -0.2511
   96SAPS  H11A 9486   4.848   0.590   6.723 -0.4036 -0.8173 -1.0236
   96SAPS  H11B 9487   4.745   0.718   6.674 -1.8315 -2.4722  1.9522
   96SAPS     P 9488   4.953   0.867   6.574  0.3996 -0.1088  0.0726
   96SAPS   O13 9489   5.089   0.885   6.531 -0.0194 -0.5561 -0.2594
   96SAPS   O14 9490   4.849   0.949   6.502  0.5885  0.4894 -0.1648
   96SAPS   O12 9491   4.928   0.709   6.568 -0.4142  0.0051  0.7159
   96SAPS   O11 9492   4.930   0.892   6.723 -0.5670  0.1231 -0.8060
   96SAPS    C1 9493   5.015   0.861   6.834  0.7719  0.9758 -0.4772
   96SAPS    HA 9494   5.018   0.751   6.849 -1.1252  1.1840  2.0065
   96SAPS    HB 9495   5.118   0.899   6.823  2.3175 -2.9431 -1.3810
   96SAPS    C2 9496   4.945   0.912   6.965  0.3266 -0.7455 -0.2928
   96SAPS    HS 9497   4.962   1.021   6.978  0.9327 -0.8591 -0.0595
   96SAPS   O21 9498   4.989   0.835   7.082 -0.1438  0.0950  0.4724
   96SAPS   C21 9499   5.124   0.841   7.106  0.7877  0.1745  0.3930
   96SAPS   O22 9500   5.201   0.919   7.055  0.4009  0.4774  0.0479
   96SAPS   C22 9501   5.172   0.747   7.216 -0.0790 -0.1696 -0.5346
   96SAPS   H2R 9502   5.144   0.643   7.191 -2.4382 -0.0840  1.3663
   96SAPS   H2S 9503   5.283   0.754   7.220 -0.1979  3.8094 -0.1433
   96SAPS    C3 9504   4.797   0.900   6.954  0.1797 -0.4887 -0.3397
   96SAPS    HX 9505   4.766   0.795   6.932 -0.7468 -0.2286 -0.3462
   96SAPS    HY 9506   4.766   0.960   6.866 -0.8989  0.6078  0.7497
   96SAPS   O31 9507   4.741   0.960   7.076  0.6869 -0.1896 -0.8600
   96SAPS   C31 9508   4.690   0.875   7.167  0.2629 -0.3264 -0.5735
   96SAPS   O32 9509   4.665   0.755   7.148 -0.4354 -0.6264  0.4593
   96SAPS   C32 9510   4.683   0.945   7.306  0.0916  0.3564  0.4478
   96SAPS   H2X 9511   4.613   1.031   7.299 -0.5741 -0.3273 -3.3862
   96SAPS   H2Y 9512   4.784   0.989   7.325  0.2780  0.4367 -0.6789
   96SAPS   C23 9513   5.124   0.785   7.355 -0.0878 -0.1006 -0.6529
   96SAPS   H3R 9514   5.013   0.778   7.352 -0.0939 -0.8904  0.7329
   96SAPS   H3S 9515   5.154   0.890   7.376  1.3304 -0.0928 -2.4526
   96SAPS   C24 9516   5.170   0.675   7.459  0.3006 -0.5974 -0.4122
   96SAPS   H4R 9517   5.143   0.575   7.421  0.2473 -0.4588 -0.7445
   96SAPS   H4S 9518   5.112   0.692   7.552  0.5774 -0.1775 -0.3110
   96SAPS   C25 9519   5.312   0.680   7.502  0.0266 -0.0502  0.5348
   96SAPS   H5R 9520   5.370   0.731   7.424 -1.8904 -2.2944 -2.5926
   96SAPS   C26 9521   5.367   0.641   7.620  0.0778 -0.2219 -0.3020
   96SAPS   H6R 9522   5.475   0.647   7.640 -0.4245  0.2429  2.7275
   96SAPS   C27 9523   5.289   0.580   7.737 -0.2026  0.1126  0.4995
   96SAPS   H7R 9524   5.347   0.499   7.786  0.9283  0.4605 -0.2150
   96SAPS   H7S 9525   5.194   0.532   7.706  0.0548 -0.7695  1.0617
   96SAPS   C28 9526   5.260   0.687   7.840 -0.1491  0.0289 -0.3061
   96SAPS   H8R 9527   5.200   0.767   7.792  2.8968  1.6695 -1.6599
   96SAPS   C29 9528   5.308   0.704   7.963 -0.3322  0.5171 -0.0458
   96SAPS   H9R 9529   5.260   0.787   8.017 -2.3341 -0.8076  0.3305
   96SAPS  C210 9530   5.399   0.611   8.036 -0.2968 -0.6074  0.1784
   96SAPS  H10R 9531   5.426   0.519   7.979 -0.6646 -1.8810  1.9559
   96SAPS  H10S 9532   5.338   0.569   8.119  0.5962  0.4465  1.3970
   96SAPS  C211 9533   5.529   0.677   8.084 -0.4471  0.2618  0.3146
   96SAPS  H11R 9534   5.610   0.668   8.010  0.7282  3.2501  1.0971
   96SAPS  C212 9535   5.548   0.717   8.209 -0.1147  0.1005 -0.3206
   96SAPS  H12R 9536   5.641   0.773   8.230 -1.0279  0.8900  1.9104
   96SAPS  C213 9537   5.442   0.704   8.313 -0.4074 -0.3728  0.2383
   96SAPS  H13R 9538   5.341   0.714   8.269  0.7721  1.7649 -2.2188
   96SAPS  H13S 9539   5.450   0.793   8.379  1.6639  0.4093 -0.9656
   96SAPS  C214 9540   5.441   0.581   8.402  0.2301 -0.4460  0.6071
   96SAPS  H14R 9541   5.448   0.483   8.353 -1.8027 -0.7607  0.8694
   96SAPS  C215 9542   5.407   0.589   8.534  0.4356 -0.7087  0.0053
   96SAPS  H15R 9543   5.409   0.495   8.591 -0.8960 -3.2349 -3.7514
   96SAPS  C216 9544   5.380   0.709   8.616 -0.2692  0.3252 -0.2735
   96SAPS  H16R 9545   5.407   0.804   8.566  1.5604 -1.7058 -3.5445
   96SAPS  H16S 9546   5.434   0.706   8.713 -0.8982  2.6541  0.2119
   96SAPS  C217 9547   5.228   0.713   8.647 -0.6383 -0.2962 -0.2831
   96SAPS  H17R 9548   5.203   0.614   8.692  2.1075  0.1750  2.6702
   96SAPS  H17S 9549   5.178   0.727   8.549  0.3850  1.5565 -0.5920
   96SAPS  C218 9550   5.187   0.827   8.748  0.7492 -0.2032 -0.4782
   96SAPS  H18R 9551   5.215   0.930   8.718  0.5078 -0.1470 -0.5193
   96SAPS  H18S 9552   5.250   0.814   8.838 -0.1974 -0.9810  0.0847
   96SAPS  C219 9553   5.036   0.825   8.782 -0.1120  0.3353 -0.0944
   96SAPS  H19R 9554   4.992   0.733   8.828 -3.1530 -0.1459 -3.5229
   96SAPS  H19S 9555   4.978   0.823   8.687  0.0080 -0.3045 -0.1580
   96SAPS  C220 9556   4.994   0.944   8.862  0.0603  0.0725 -0.7231
   96SAPS  H20R 9557   4.988   1.028   8.790 -3.2836 -0.4295 -1.1578
   96SAPS  H20S 9558   5.062   0.974   8.945  0.0233  1.0012 -1.0158
   96SAPS  H20T 9559   4.892   0.937   8.904 -0.6772  0.7722 -2.3180
   96SAPS   C33 9560   4.648   0.851   7.430  0.4282  0.2372 -0.2018
   96SAPS   H3X 9561   4.720   0.768   7.414 -0.4793 -0.5602 -0.2243
   96SAPS   H3Y 9562   4.543   0.815   7.428 -0.2330  2.0807 -0.9449
   96SAPS   C34 9563   4.689   0.912   7.565  0.2409  0.7513 -0.2391
   96SAPS   H4X 9564   4.672   1.021   7.579 -1.9540  0.3249  0.8869
   96SAPS   H4Y 9565   4.799   0.899   7.573  0.6116  2.1690 -2.1825
   96SAPS   C35 9566   4.628   0.845   7.692 -0.2281 -0.4482 -0.1706
   96SAPS   H5X 9567   4.519   0.829   7.680 -0.6463  0.3447  2.1545
   96SAPS   H5Y 9568   4.657   0.916   7.772  0.5424 -0.2390 -0.6188
   96SAPS   C36 9569   4.674   0.707   7.724 -0.0057 -0.1622  0.2452
   96SAPS   H6X 9570   4.697   0.655   7.629 -0.8468 -0.7827  0.3741
   96SAPS   H6Y 9571   4.585   0.654   7.764  1.7909 -3.2069  0.4679
   96SAPS   C37 9572   4.793   0.695   7.818 -0.1076  0.0073 -0.1285
   96SAPS   H7X 9573   4.786   0.747   7.916  3.0002 -2.7586  1.7329
   96SAPS   H7Y 9574   4.874   0.761   7.781 -1.4655  2.0072  0.2679
   96SAPS   C38 9575   4.832   0.550   7.837  0.1989 -0.4429 -0.1497
   96SAPS   H8X 9576   4.860   0.487   7.750  1.1686 -3.5808  2.2321
   96SAPS   H8Y 9577   4.735   0.512   7.874  0.9568 -1.2500  1.1100
   96SAPS   C39 9578   4.931   0.526   7.947  0.3653 -0.7827 -0.8635
   96SAPS   H9X 9579   4.881   0.525   8.046 -1.4414 -2.2935 -1.7314
   96SAPS   H9Y 9580   5.011   0.604   7.953 -0.2344 -0.1594 -0.8981
   96SAPS  C310 9581   5.001   0.391   7.943 -0.3024 -0.1264  0.1726
   96SAPS  H10X 9582   5.038   0.367   7.840  0.9344 -0.3268  0.6472
   96SAPS  H10Y 9583   4.929   0.316   7.981  1.6991 -1.0491  2.3457
   96SAPS  C311 9584   5.120   0.369   8.025 -0.3532  0.3366 -0.2545
   96SAPS  H11X 9585   5.092   0.404   8.127  0.6797 -0.0923  0.1900
   96SAPS  H11Y 9586   5.200   0.431   7.981 -0.3263  1.6128  1.4781
   96SAPS  C312 9587   5.163   0.224   8.041  0.8770 -0.0870 -0.1389
   96SAPS  H12X 9588   5.164   0.168   7.945 -0.7223 -2.8503  1.3208
   96SAPS  H12Y 9589   5.084   0.167   8.094  2.9133 -2.1558  0.8566
   96SAPS  C313 9590   5.303   0.194   8.113 -0.5551 -1.1372 -1.1618
   96SAPS  H13X 9591   5.365   0.257   8.045 -0.1000  0.1446  0.3765
   96SAPS  H13Y 9592   5.337   0.091   8.091 -0.6749 -1.1973 -1.0638
   96SAPS  C314 9593   5.316   0.249   8.254 -0.1344  0.2918  0.7595
   96SAPS  H14X 9594   5.235   0.206   8.316 -1.3545  1.7661  0.2369
   96SAPS  H14Y 9595   5.304   0.359   8.246 -1.4222  0.0588 -1.3520
   96SAPS  C315 9596   5.451   0.203   8.311 -0.3005 -0.0088 -0.1387
   96SAPS  H15X 9597   5.455   0.278   8.392 -1.8442 -0.9387  0.8490
   96SAPS  H15Y 9598   5.533   0.209   8.236 -1.1707 -2.1385 -1.3765
   96SAPS  C316 9599   5.452   0.070   8.386 -0.0048 -0.3112  0.2081
   96SAPS  H16X 9600   5.551   0.030   8.415  0.4745  1.4387  1.1429
   96SAPS  H16Y 9601   5.390   0.011   8.315 -2.3150  3.5258 -1.3243
   96SAPS  C317 9602   5.368   0.077   8.521  0.0670 -0.0183  0.2686
   96SAPS  H17X 9603   5.258   0.081   8.503  0.0636 -1.1758 -0.0686
   96SAPS  H17Y 9604   5.386   0.169   8.580 -2.4595  0.8496 -0.1887
   96SAPS  C318 9605   5.387  -0.052   8.603  0.5422 -0.4129 -0.8467
   96SAPS  H18X 9606   5.346  -0.145   8.559  3.6211 -1.8534 -0.8866
   96SAPS  H18Y 9607   5.342  -0.042   8.704  0.0579 -0.3917 -1.0585
   96SAPS  H18Z 9608   5.494  -0.080   8.609  0.4561 -0.4586  1.2734
   97SAPS     N 9609   4.436   0.255   6.410  0.6715 -0.0306  0.1472
   97SAPS   HN1 9610   4.348   0.226   6.458  0.8578 -0.3242  0.3111
   97SAPS   HN2 9611   4.498   0.314   6.469  0.3771 -0.5948  1.0290
   97SAPS   HN3 9612   4.417   0.316   6.328 -0.4798 -1.1785 -0.4761
   97SAPS   C12 9613   4.521   0.137   6.364  0.0740 -0.5083 -0.2671
   97SAPS  H12A 9614   4.474   0.094   6.277  1.9955 -2.6338 -0.3483
   97SAPS   C13 9615   4.663   0.173   6.324 -0.3213 -0.0703 -0.5797
   97SAPS  O13A 9616   4.685   0.296   6.313 -0.3589  0.1567 -0.4493
   97SAPS  O13B 9617   4.748   0.094   6.281  0.8588 -0.2973  0.3206
   97SAPS   C11 9618   4.512   0.024   6.473 -0.0834  0.5312  0.7208
   97SAPS  H11A 9619   4.570   0.047   6.565  0.8851 -2.7804  1.0907
   97SAPS  H11B 9620   4.569  -0.057   6.422  0.3335  0.7887  0.7713
   97SAPS     P 9621   4.323  -0.024   6.639  0.3076 -0.3652 -0.5777
   97SAPS   O13 9622   4.326   0.121   6.673 -0.0353 -0.2651 -0.0817
   97SAPS   O14 9623   4.198  -0.101   6.644 -0.3203 -0.1633 -0.1772
   97SAPS   O12 9624   4.384  -0.029   6.498  0.5481  0.1118 -0.1455
   97SAPS   O11 9625   4.441  -0.089   6.731  0.3931  0.1958 -0.3094
   97SAPS    C1 9626   4.480  -0.229   6.727  0.1591  0.0795  0.2408
   97SAPS    HA 9627   4.477  -0.259   6.620  2.7602  2.0949 -0.5161
   97SAPS    HB 9628   4.589  -0.245   6.745  0.3806 -0.0431 -1.1357
   97SAPS    C2 9629   4.400  -0.318   6.815  0.0517  0.4539  0.7201
   97SAPS    HS 9630   4.291  -0.311   6.794 -0.4960 -2.0754  2.3258
   97SAPS   O21 9631   4.422  -0.283   6.950 -0.3858  0.0525  0.0904
   97SAPS   C21 9632   4.338  -0.351   7.033 -0.3446 -0.1465  0.5828
   97SAPS   O22 9633   4.240  -0.412   6.989 -0.0103  0.0572 -0.3309
   97SAPS   C22 9634   4.378  -0.329   7.179  0.0671  0.0966 -0.1530
   97SAPS   H2R 9635   4.489  -0.327   7.185  0.0999 -0.7271 -0.4079
   97SAPS   H2S 9636   4.341  -0.225   7.191 -1.3474  0.3517 -4.9208
   97SAPS    C3 9637   4.447  -0.470   6.789 -0.7012 -0.2891  0.4554
   97SAPS    HX 9638   4.413  -0.506   6.689 -3.3183  0.2804  1.0643
   97SAPS    HY 9639   4.386  -0.524   6.864 -1.5299 -1.2830 -0.8916
   97SAPS   O31 9640   4.591  -0.487   6.793  0.7110  0.2246 -0.3234
   97SAPS   C31 9641   4.642  -0.508   6.914  0.3382 -0.6371 -0.5768
   97SAPS   O32 9642   4.569  -0.529   7.013  0.5159  1.0383 -0.3384
   97SAPS   C32 9643   4.796  -0.509   6.908  0.1522  0.0056 -0.6441
   97SAPS   H2X 9644   4.827  -0.403   6.924  1.9395 -0.6293  0.3872
   97SAPS   H2Y 9645   4.824  -0.550   6.808 -0.9338  0.7708 -1.2796
   97SAPS   C23 9646   4.300  -0.426   7.273 -0.3524 -0.4971 -0.5423
   97SAPS   H3R 9647   4.198  -0.446   7.233 -0.4144  0.2172 -0.7481
   97SAPS   H3S 9648   4.294  -0.368   7.367  0.3460 -1.0681 -0.1341
   97SAPS   C24 9649   4.370  -0.557   7.309 -0.1538  0.1255 -0.1695
   97SAPS   H4R 9650   4.369  -0.625   7.221 -0.1232 -1.0448  0.7116
   97SAPS   H4S 9651   4.303  -0.609   7.381  1.4642 -1.5228  0.2312
   97SAPS   C25 9652   4.516  -0.540   7.346 -0.4832 -0.2813  0.4727
   97SAPS   H5R 9653   4.586  -0.534   7.262 -0.0226 -0.3179  0.8501
   97SAPS   C26 9654   4.568  -0.535   7.472  0.2465 -0.1027  0.3940
   97SAPS   H6R 9655   4.675  -0.516   7.489  0.3616  0.8379 -1.1622
   97SAPS   C27 9656   4.486  -0.559   7.597  0.4761 -0.6939  0.3218
   97SAPS   H7R 9657   4.380  -0.547   7.567 -0.0081 -1.5066  1.6038
   97SAPS   H7S 9658   4.512  -0.476   7.667 -0.4400 -0.6310  0.6072
   97SAPS   C28 9659   4.507  -0.684   7.669  0.2495  0.2315  0.6911
   97SAPS   H8R 9660   4.569  -0.759   7.618  1.8255  1.5469  0.5651
   97SAPS   C29 9661   4.459  -0.707   7.794 -0.6450 -0.5170 -0.1759
   97SAPS   H9R 9662   4.472  -0.802   7.849 -0.5729 -0.2663  0.2425
   97SAPS  C210 9663   4.374  -0.609   7.871 -0.1000  0.2645  0.4293
   97SAPS  H10R 9664   4.307  -0.678   7.925 -0.4786 -0.9792 -1.5073
   97SAPS  H10S 9665   4.304  -0.550   7.807 -0.5333 -0.2030  0.4692
   97SAPS  C211 9666   4.454  -0.525   7.972 -0.0574  0.6568  0.1356
   97SAPS  H11R 9667   4.494  -0.429   7.936 -0.9441  0.7798 -0.5704
   97SAPS  C212 9668   4.483  -0.561   8.104 -0.2544  0.4660 -0.3587
   97SAPS  H12R 9669   4.551  -0.490   8.154  0.9869  0.3625 -1.7995
   97SAPS  C213 9670   4.452  -0.686   8.179  0.9107 -0.0002  0.8118
   97SAPS  H13R 9671   4.530  -0.707   8.254  1.0008  0.1030  0.7479
   97SAPS  H13S 9672   4.447  -0.770   8.107  3.4696 -0.4975  1.1121
   97SAPS  C214 9673   4.320  -0.683   8.251  0.9268 -0.4189  0.3001
   97SAPS  H14R 9674   4.228  -0.707   8.197 -0.8197  1.5431  2.2051
   97SAPS  C215 9675   4.302  -0.643   8.386 -0.6098 -0.2483  0.1658
   97SAPS  H15R 9676   4.212  -0.658   8.447 -1.8090  0.6117 -1.3173
   97SAPS  C216 9677   4.416  -0.603   8.478 -0.7399  0.7066 -0.1924
   97SAPS  H16R 9678   4.517  -0.600   8.432  0.5749  1.4355  2.5081
   97SAPS  H16S 9679   4.416  -0.673   8.564  0.9795 -0.2345 -0.9270
   97SAPS  C217 9680   4.410  -0.466   8.554  0.0577 -0.3312  0.1440
   97SAPS  H17R 9681   4.405  -0.390   8.473  2.6555  0.8026  0.9274
   97SAPS  H17S 9682   4.500  -0.458   8.619 -1.2041 -1.7375  2.1916
   97SAPS  C218 9683   4.291  -0.458   8.649 -0.1870 -0.6117  0.2213
   97SAPS  H18R 9684   4.293  -0.519   8.742  0.3326 -0.9722 -0.0293
   97SAPS  H18S 9685   4.193  -0.476   8.599  0.8521  0.3238 -2.2944
   97SAPS  C219 9686   4.293  -0.321   8.710 -0.6258  0.0111  0.5146
   97SAPS  H19R 9687   4.333  -0.250   8.635  1.0059 -0.0772  1.2553
   97SAPS  H19S 9688   4.376  -0.333   8.783  2.8703  0.9321 -2.9710
   97SAPS  C220 9689   4.164  -0.271   8.771  0.4248 -0.0997 -0.1805
   97SAPS  H20R 9690   4.171  -0.177   8.831 -0.1691 -0.1021 -0.1052
   97SAPS  H20S 9691   4.116  -0.356   8.825  0.8759 -0.1150  0.2057
   97SAPS  H20T 9692   4.097  -0.243   8.687 -0.7221  1.6472  1.2387
   97SAPS   C33 9693   4.863  -0.587   7.027 -0.0437  0.0115  0.0757
   97SAPS   H3X 9694   4.954  -0.633   6.982  0.2611  2.2020 -1.7439
   97SAPS   H3Y 9695   4.785  -0.651   7.072 -1.9986  2.7740  0.9196
   97SAPS   C34 9696   4.909  -0.491   7.141  0.1209 -0.1286  0.5056
   97SAPS   H4X 9697   4.828  -0.419   7.167  1.0875  1.1064  0.2330
   97SAPS   H4Y 9698   4.995  -0.429   7.107  0.3779 -0.5166  0.4419
   97SAPS   C35 9699   4.961  -0.578   7.253 -0.3869 -0.2644  0.0063
   97SAPS   H5X 9700   5.048  -0.639   7.221 -0.2663 -0.0850 -0.0102
   97SAPS   H5Y 9701   4.884  -0.651   7.288  1.5890 -2.6529 -0.4135
   97SAPS   C36 9702   4.997  -0.491   7.378 -1.3270  1.0998 -0.1184
   97SAPS   H6X 9703   4.905  -0.446   7.420  0.9220  2.8154  3.4734
   97SAPS   H6Y 9704   5.057  -0.401   7.350 -2.1847  1.5179 -0.6917
   97SAPS   C37 9705   5.054  -0.573   7.493 -0.5143 -0.7918  0.1387
   97SAPS   H7X 9706   5.157  -0.603   7.462  0.1528  1.7671 -0.3293
   97SAPS   H7Y 9707   5.002  -0.669   7.511 -0.1695 -0.8640  0.7833
   97SAPS   C38 9708   5.076  -0.483   7.615 -0.5323  0.9201  0.8556
   97SAPS   H8X 9709   4.978  -0.468   7.664  0.4117  1.4291  2.6622
   97SAPS   H8Y 9710   5.098  -0.387   7.564 -0.1257  0.9682  1.1201
   97SAPS   C39 9711   5.197  -0.516   7.702 -0.0615  0.0536 -0.4047
   97SAPS   H9X 9712   5.235  -0.428   7.759  0.5923 -0.2814 -0.3227
   97SAPS   H9Y 9713   5.278  -0.561   7.642  1.1700 -0.4117  1.5188
   97SAPS  C310 9714   5.165  -0.615   7.816 -0.2107  0.7621 -0.1214
   97SAPS  H10X 9715   5.256  -0.626   7.878  0.7461 -1.8968 -1.8389
   97SAPS  H10Y 9716   5.141  -0.717   7.779 -0.3844 -0.5331  3.1910
   97SAPS  C311 9717   5.051  -0.575   7.909  0.6610  0.2572  0.2399
   97SAPS  H11X 9718   4.959  -0.573   7.847 -0.6080  1.7611  2.0755
   97SAPS  H11Y 9719   5.079  -0.485   7.968  0.4300  0.9615 -0.6918
   97SAPS  C312 9720   5.030  -0.686   8.014  0.3086  0.6169 -0.7272
   97SAPS  H12X 9721   5.111  -0.707   8.087  1.1700  0.8615 -1.5840
   97SAPS  H12Y 9722   5.010  -0.780   7.959 -2.6533  0.1027  1.0569
   97SAPS  C313 9723   4.907  -0.661   8.094 -0.2740 -0.5780 -0.5080
   97SAPS  H13X 9724   4.830  -0.651   8.014 -2.0538  1.8448  1.3517
   97SAPS  H13Y 9725   4.897  -0.569   8.155  0.5350 -0.8786  0.0891
   97SAPS  C314 9726   4.849  -0.780   8.169 -0.4331 -0.4085  0.1500
   97SAPS  H14X 9727   4.844  -0.864   8.097  0.9759  0.0826 -0.5618
   97SAPS  H14Y 9728   4.742  -0.751   8.178 -0.2050  0.0364  1.7714
   97SAPS  C315 9729   4.911  -0.822   8.298 -0.1588 -1.1450 -0.2682
   97SAPS  H15X 9730   4.941  -0.735   8.360  0.1374 -0.9659 -0.6601
   97SAPS  H15Y 9731   5.003  -0.875   8.264 -0.4045  0.6309 -4.1957
   97SAPS  C316 9732   4.827  -0.919   8.384 -0.2750  0.2552 -0.2320
   97SAPS  H16X 9733   4.901  -0.997   8.412 -0.2214  0.5554  0.4636
   97SAPS  H16Y 9734   4.752  -0.968   8.317  1.0607  0.2714 -1.8265
   97SAPS  C317 9735   4.765  -0.861   8.508  0.0925  0.1758  0.0197
   97SAPS  H17X 9736   4.699  -0.782   8.466  2.4222  2.4214  0.3365
   97SAPS  H17Y 9737   4.836  -0.819   8.582  0.4275 -1.0387  0.4076
   97SAPS  C318 9738   4.678  -0.967   8.591 -0.0446  0.7599  0.6425
   97SAPS  H18X 9739   4.600  -1.031   8.544 -0.7232  0.0325  2.6359
   97SAPS  H18Y 9740   4.627  -0.910   8.671 -0.1733  0.9476  0.4295
   97SAPS  H18Z 9741   4.751  -1.036   8.638 -0.6935 -0.1349  0.3653
   98SAPS     N 9742   1.423   4.907   6.263  0.4467 -0.9999 -0.2788
   98SAPS   HN1 9743   1.468   4.934   6.353  2.9319 -2.3415 -1.0074
   98SAPS   HN2 9744   1.327   4.872   6.283 -0.1852  0.8374  0.0373
   98SAPS   HN3 9745   1.475   4.837   6.206  2.8937  1.9087 -1.8909
   98SAPS   C12 9746   1.397   5.019   6.168 -0.1266  0.1190  0.4977
   98SAPS  H12A 9747   1.412   4.980   6.068  2.7129 -0.8887  1.2450
   98SAPS   C13 9748   1.254   5.080   6.186  0.2623  0.0298 -0.6871
   98SAPS  O13A 9749   1.176   5.011   6.260  0.2602  0.1617  0.6732
   98SAPS  O13B 9750   1.206   5.150   6.089 -0.4609  1.0509 -0.3460
   98SAPS   C11 9751   1.501   5.123   6.203  0.2749 -0.2691 -0.8482
   98SAPS  H11A 9752   1.474   5.170   6.299  0.8961 -0.7744 -0.4096
   98SAPS  H11B 9753   1.490   5.211   6.136 -4.1662 -0.9985 -1.3607
   98SAPS     P 9754   1.758   5.168   6.242  0.2263 -0.0274  0.2248
   98SAPS   O13 9755   1.874   5.090   6.290  0.4873  0.5093  0.9452
   98SAPS   O14 9756   1.782   5.270   6.136 -0.8190 -0.5461  0.0450
   98SAPS   O12 9757   1.634   5.075   6.199  0.0168  0.0626 -0.1586
   98SAPS   O11 9758   1.695   5.243   6.374 -0.0900 -0.5190  0.1174
   98SAPS    C1 9759   1.756   5.356   6.429  0.1950 -0.7352 -0.2267
   98SAPS    HA 9760   1.867   5.357   6.427  0.2870  1.1709  1.5528
   98SAPS    HB 9761   1.724   5.451   6.381  1.0178  0.0077  0.6519
   98SAPS    C2 9762   1.715   5.362   6.584 -0.4551 -0.0534  0.6081
   98SAPS    HS 9763   1.781   5.445   6.619  0.1504 -0.4185  0.3502
   98SAPS   O21 9764   1.732   5.239   6.643  0.5238  0.7680 -0.1164
   98SAPS   C21 9765   1.735   5.239   6.778 -0.1331 -0.1198 -0.2992
   98SAPS   O22 9766   1.750   5.337   6.853 -0.4875 -0.1680  0.2898
   98SAPS   C22 9767   1.738   5.098   6.828  0.2272 -0.1786  0.2662
   98SAPS   H2R 9768   1.668   5.046   6.759  1.2083 -0.2655 -0.6974
   98SAPS   H2S 9769   1.840   5.053   6.823  0.0132 -1.0575  2.5185
   98SAPS    C3 9770   1.559   5.395   6.588 -0.1719  0.2417 -0.0756
   98SAPS    HX 9771   1.509   5.318   6.526  1.8267 -0.2611 -1.1381
   98SAPS    HY 9772   1.533   5.494   6.545 -0.1888  0.0009 -0.6383
   98SAPS   O31 9773   1.506   5.376   6.715 -0.1260  0.3973 -0.7871
   98SAPS   C31 9774   1.494   5.484   6.791  0.8174 -0.1141  0.3789
   98SAPS   O32 9775   1.499   5.601   6.761 -0.5125 -0.8427 -0.2014
   98SAPS   C32 9776   1.458   5.436   6.931  0.4841  0.3859 -0.1427
   98SAPS   H2X 9777   1.499   5.336   6.957  1.2040  0.7146 -0.0085
   98SAPS   H2Y 9778   1.348   5.424   6.941  0.6087  0.1224  1.0134
   98SAPS   C23 9779   1.688   5.088   6.973  0.3259  0.4681 -0.0354
   98SAPS   H3R 9780   1.589   5.138   6.973 -0.2786 -0.4909 -3.0731
   98SAPS   H3S 9781   1.761   5.142   7.038  1.2580  1.3856 -1.7650
   98SAPS   C24 9782   1.680   4.938   7.010  0.3799  0.9982 -0.0415
   98SAPS   H4R 9783   1.626   4.897   6.922  1.6223  0.2312 -0.4751
   98SAPS   H4S 9784   1.609   4.933   7.095 -0.7372  1.1029 -0.9371
   98SAPS   C25 9785   1.805   4.862   7.023  0.2214  0.2674  0.1628
   98SAPS   H5R 9786   1.857   4.842   6.929  0.1548  0.9528 -0.0229
   98SAPS   C26 9787   1.870   4.794   7.123  0.3894  0.1113  1.3018
   98SAPS   H6R 9788   1.969   4.748   7.111  0.3813  0.1350  1.1449
   98SAPS   C27 9789   1.824   4.793   7.262  0.6110  0.1940 -0.0782
   98SAPS   H7R 9790   1.782   4.691   7.264 -0.0080  0.4520  0.2910
   98SAPS   H7S 9791   1.741   4.866   7.278  0.7673  0.7243 -1.5179
   98SAPS   C28 9792   1.929   4.806   7.367  0.0636  0.5205 -0.3241
   98SAPS   H8R 9793   2.019   4.865   7.343 -0.7839  2.2757  0.6499
   98SAPS   C29 9794   1.932   4.739   7.485 -0.6870 -0.4612  0.0659
   98SAPS   H9R 9795   2.016   4.766   7.550  1.7731 -1.3516 -2.5115
   98SAPS  C210 9796   1.831   4.650   7.542 -0.4207  0.4455 -0.3510
   98SAPS  H10R 9797   1.862   4.606   7.640 -5.4891  2.0223  2.3195
   98SAPS  H10S 9798   1.819   4.561   7.476  1.8515 -1.4087  1.5378
   98SAPS  C211 9799   1.697   4.713   7.576  1.2858 -0.5653 -0.8659
   98SAPS  H11R 9800   1.626   4.697   7.494  1.0740 -1.9713 -0.4351
   98SAPS  C212 9801   1.657   4.779   7.693  0.4110  0.7710 -0.3093
   98SAPS  H12R 9802   1.551   4.806   7.703  0.6036  1.4864 -0.1250
   98SAPS  C213 9803   1.757   4.808   7.805  0.0524 -0.4671  0.2254
   98SAPS  H13R 9804   1.755   4.911   7.846  1.6270 -0.0768 -0.6117
   98SAPS  H13S 9805   1.864   4.797   7.779 -0.1632 -0.0551 -0.8907
   98SAPS  C214 9806   1.739   4.723   7.922  0.0631  0.5681 -0.3605
   98SAPS  H14R 9807   1.705   4.624   7.889  1.7177  0.2396 -1.1827
   98SAPS  C215 9808   1.768   4.743   8.053 -0.1496  0.6887 -0.1552
   98SAPS  H15R 9809   1.743   4.673   8.134  0.4248  0.9957  0.2999
   98SAPS  C216 9810   1.828   4.871   8.111 -0.2344  0.5982 -0.2896
   98SAPS  H16R 9811   1.852   4.947   8.033 -1.1947 -0.7417 -1.9526
   98SAPS  H16S 9812   1.924   4.852   8.164 -0.2898  2.4487  0.5798
   98SAPS  C217 9813   1.743   4.936   8.220 -0.1436  0.3945  0.3725
   98SAPS  H17R 9814   1.728   4.865   8.303 -1.3696 -1.4469 -1.3395
   98SAPS  H17S 9815   1.643   4.972   8.188 -0.3832  0.1263  0.8150
   98SAPS  C218 9816   1.820   5.063   8.276  0.3226  0.7187 -0.4209
   98SAPS  H18R 9817   1.860   5.125   8.192  0.6069  0.5866 -0.3842
   98SAPS  H18S 9818   1.897   5.030   8.349 -0.7532 -0.1430  0.3394
   98SAPS  C219 9819   1.731   5.162   8.353 -0.8794 -0.4096 -0.6697
   98SAPS  H19R 9820   1.679   5.120   8.442  1.4693  0.3308  1.1436
   98SAPS  H19S 9821   1.648   5.193   8.285 -2.3154  0.3949  1.3447
   98SAPS  C220 9822   1.801   5.288   8.403  0.5552 -0.0672 -0.1055
   98SAPS  H20R 9823   1.731   5.365   8.440  1.2248  1.0206 -1.0493
   98SAPS  H20S 9824   1.861   5.335   8.322  0.2731 -0.5493 -0.6016
   98SAPS  H20T 9825   1.867   5.275   8.492  0.3236  2.5924  0.5180
   98SAPS   C33 9826   1.503   5.538   7.046  0.5267  0.1317 -0.0833
   98SAPS   H3X 9827   1.458   5.633   7.011  0.3705 -0.0746 -0.4459
   98SAPS   H3Y 9828   1.613   5.555   7.053  0.1950  2.8773 -0.2778
   98SAPS   C34 9829   1.446   5.496   7.182  0.1075 -0.2808  0.3143
   98SAPS   H4X 9830   1.341   5.466   7.163  0.4702 -1.9567  0.7337
   98SAPS   H4Y 9831   1.440   5.587   7.245 -0.5279  0.7236 -1.1480
   98SAPS   C35 9832   1.509   5.371   7.254 -0.0512 -0.5958  0.2350
   98SAPS   H5X 9833   1.586   5.419   7.318 -0.6809  1.9539 -0.8007
   98SAPS   H5Y 9834   1.562   5.299   7.189 -1.7223 -0.0428 -1.8529
   98SAPS   C36 9835   1.390   5.303   7.324 -0.0811  0.7764 -0.3999
   98SAPS   H6X 9836   1.330   5.241   7.255  1.1749 -1.0105  0.0485
   98SAPS   H6Y 9837   1.314   5.374   7.366  0.0765  0.0068  1.2703
   98SAPS   C37 9838   1.424   5.201   7.435  0.5918 -0.0452  0.3942
   98SAPS   H7X 9839   1.511   5.145   7.396 -0.7299 -0.9897 -1.3396
   98SAPS   H7Y 9840   1.342   5.127   7.452 -0.5925  0.7749 -1.4251
   98SAPS   C38 9841   1.469   5.269   7.564  0.4234 -0.9703 -0.1479
   98SAPS   H8X 9842   1.376   5.323   7.593  1.6188  0.7098  0.6704
   98SAPS   H8Y 9843   1.555   5.332   7.536  0.5927 -0.6457  1.0318
   98SAPS   C39 9844   1.503   5.166   7.672  0.1988 -0.1399  0.4773
   98SAPS   H9X 9845   1.598   5.111   7.653 -0.1528 -0.8634  0.7668
   98SAPS   H9Y 9846   1.424   5.089   7.689  0.2503  0.2604  2.9573
   98SAPS  C310 9847   1.511   5.229   7.811  0.2874 -0.0480  0.0162
   98SAPS  H10X 9848   1.519   5.146   7.884  2.8372  0.1499  0.0349
   98SAPS  H10Y 9849   1.415   5.282   7.830 -0.0608 -1.2755  1.9090
   98SAPS  C311 9850   1.641   5.308   7.839  0.0519  0.1455 -0.1660
   98SAPS  H11X 9851   1.657   5.384   7.759 -2.3004 -1.3170 -2.1590
   98SAPS  H11Y 9852   1.726   5.237   7.846 -0.7413 -0.7688  0.4143
   98SAPS  C312 9853   1.613   5.395   7.966 -0.0051  0.0510 -0.0529
   98SAPS  H12X 9854   1.707   5.435   8.009 -0.4491 -0.0378  1.0320
   98SAPS  H12Y 9855   1.577   5.321   8.041 -0.7773 -0.9954 -1.3949
   98SAPS  C313 9856   1.514   5.516   7.951  0.3437 -0.0866  0.4324
   98SAPS  H13X 9857   1.412   5.479   7.926  0.3628  0.4553 -0.4879
   98SAPS  H13Y 9858   1.545   5.572   7.861 -0.6810 -0.4180 -0.1491
   98SAPS  C314 9859   1.507   5.597   8.082 -0.3849  0.2416 -0.7210
   98SAPS  H14X 9860   1.429   5.676   8.082 -0.2442  0.4669  1.9028
   98SAPS  H14Y 9861   1.603   5.648   8.100  0.6800 -1.0015 -2.5447
   98SAPS  C315 9862   1.476   5.500   8.198  0.8679 -0.6212  0.2400
   98SAPS  H15X 9863   1.563   5.437   8.226  1.8358 -0.5323 -2.2870
   98SAPS  H15Y 9864   1.402   5.425   8.164  0.9945  0.1471 -1.8609
   98SAPS  C316 9865   1.416   5.574   8.314 -1.2148  0.3269  0.3958
   98SAPS  H16X 9866   1.312   5.612   8.307 -1.3081 -0.1723 -1.2094
   98SAPS  H16Y 9867   1.493   5.646   8.350  1.1927 -2.1672  0.5363
   98SAPS  C317 9868   1.415   5.472   8.429  0.8649 -0.2530 -0.3166
   98SAPS  H17X 9869   1.502   5.407   8.451  0.0496 -0.7888  1.5053
   98SAPS  H17Y 9870   1.325   5.409   8.413 -0.4112 -0.0043  4.3063
   98SAPS  C318 9871   1.379   5.544   8.551  0.4014 -0.0609  0.1170
   98SAPS  H18X 9872   1.458   5.603   8.603  0.0752  0.6370 -0.1621
   98SAPS  H18Y 9873   1.346   5.471   8.628  2.8171 -2.0119 -0.5473
   98SAPS  H18Z 9874   1.306   5.626   8.536  1.5433  0.9197 -0.3533
   99SAPS     N 9875   3.540   3.138   6.198  0.0009  0.2441  0.0788
   99SAPS   HN1 9876   3.584   3.231   6.217  0.2377  0.1589 -0.0495
   99SAPS   HN2 9877   3.501   3.088   6.281 -1.6167 -0.6418 -1.1671
   99SAPS   HN3 9878   3.616   3.069   6.179 -1.2910 -1.3897  0.6054
   99SAPS   C12 9879   3.440   3.143   6.083 -0.6682 -0.1417  0.1020
   99SAPS  H12A 9880   3.373   3.227   6.102  2.8189  2.5797  1.5361
   99SAPS   C13 9881   3.504   3.183   5.945  0.5950  0.2805  0.5459
   99SAPS  O13A 9882   3.628   3.197   5.932  0.6272 -0.1815  0.2246
   99SAPS  O13B 9883   3.426   3.204   5.847  0.3279 -1.0063  0.3892
   99SAPS   C11 9884   3.375   3.001   6.066 -0.2611 -0.5102  0.1945
   99SAPS  H11A 9885   3.454   2.922   6.068  1.0164  0.6605 -1.1877
   99SAPS  H11B 9886   3.314   2.982   5.975  1.7398 -1.2224 -1.0833
   99SAPS     P 9887   3.161   2.898   6.167  0.0569  0.1165  0.1991
   99SAPS   O13 9888   3.071   3.003   6.113  0.0989  0.0017 -0.8911
   99SAPS   O14 9889   3.176   2.764   6.099  0.2007 -0.2491  0.2445
   99SAPS   O12 9890   3.301   2.973   6.188  0.0238  0.3039 -0.2363
   99SAPS   O11 9891   3.115   2.873   6.313 -0.0076 -0.2622  0.0258
   99SAPS    C1 9892   3.210   2.816   6.412 -0.2117  0.6500  0.2185
   99SAPS    HA 9893   3.317   2.827   6.385 -0.5024  1.9868 -0.4775
   99SAPS    HB 9894   3.208   2.875   6.506  0.1623 -0.7514  1.1374
   99SAPS    C2 9895   3.180   2.674   6.443  0.3372  0.4759  0.2820
   99SAPS    HS 9896   3.163   2.615   6.350  2.5487 -1.0705  0.7946
   99SAPS   O21 9897   3.056   2.664   6.513 -0.4164 -0.3045  0.0409
   99SAPS   C21 9898   2.994   2.557   6.505 -0.2756  0.4300  0.7495
   99SAPS   O22 9899   3.022   2.460   6.438 -0.5657 -0.8298 -0.7608
   99SAPS   C22 9900   2.871   2.561   6.589  0.3515  0.4641  0.1691
   99SAPS   H2R 9901   2.872   2.660   6.639  1.7066  1.4769 -1.7168
   99SAPS   H2S 9902   2.784   2.553   6.520 -1.5397  1.4487  2.2903
   99SAPS    C3 9903   3.290   2.603   6.530 -0.0185 -0.1462 -0.2332
   99SAPS    HX 9904   3.315   2.688   6.597  0.5563 -2.0587  2.1373
   99SAPS    HY 9905   3.366   2.579   6.453 -2.9953 -2.6821 -2.6585
   99SAPS   O31 9906   3.257   2.490   6.613  0.0371 -0.3000  0.1195
   99SAPS   C31 9907   3.346   2.388   6.611  0.5137 -0.0944  0.6183
   99SAPS   O32 9908   3.448   2.386   6.543  0.4511  0.9206 -0.2233
   99SAPS   C32 9909   3.298   2.284   6.711 -0.5281 -0.0762  0.2710
   99SAPS   H2X 9910   3.234   2.217   6.649 -0.7784  0.5333 -0.1342
   99SAPS   H2Y 9911   3.248   2.346   6.789  0.5007  2.0274 -0.6749
   99SAPS   C23 9912   2.855   2.439   6.686  0.1626 -0.3958 -0.1790
   99SAPS   H3R 9913   2.907   2.348   6.649 -0.8275 -0.6908 -0.8857
   99SAPS   H3S 9914   2.747   2.421   6.670  0.0512 -2.1647  2.1433
   99SAPS   C24 9915   2.875   2.481   6.822 -0.4816  0.0040 -0.6758
   99SAPS   H4R 9916   2.798   2.556   6.849 -1.4197 -0.0801 -2.8939
   99SAPS   H4S 9917   2.970   2.532   6.849 -1.2785  0.4535  1.4254
   99SAPS   C25 9918   2.860   2.361   6.909  0.0249  0.1310 -0.1499
   99SAPS   H5R 9919   2.908   2.266   6.882  0.0769  0.2568 -0.5035
   99SAPS   C26 9920   2.777   2.360   7.018 -0.0360  0.1756 -0.0063
   99SAPS   H6R 9921   2.786   2.264   7.072  0.5779  0.2446  0.0239
   99SAPS   C27 9922   2.689   2.467   7.082  0.7900  0.0493 -0.3498
   99SAPS   H7R 9923   2.589   2.425   7.106 -0.4515  1.8672 -1.9896
   99SAPS   H7S 9924   2.659   2.554   7.020 -0.2756 -0.4165 -0.5132
   99SAPS   C28 9925   2.768   2.528   7.192  0.4898 -0.2611  0.0253
   99SAPS   H8R 9926   2.851   2.584   7.147  0.2037  0.0046 -0.1810
   99SAPS   C29 9927   2.769   2.500   7.320 -0.2547  0.0897 -1.1225
   99SAPS   H9R 9928   2.855   2.527   7.384 -0.3176 -2.1298 -0.0013
   99SAPS  C210 9929   2.671   2.408   7.390 -0.3222  0.2072 -0.8972
   99SAPS  H10R 9930   2.722   2.316   7.425  1.3080  1.4383  0.1315
   99SAPS  H10S 9931   2.591   2.381   7.318 -1.0199 -0.7810  0.1885
   99SAPS  C211 9932   2.599   2.480   7.507 -0.4916  0.0892  0.2798
   99SAPS  H11R 9933   2.566   2.582   7.483 -0.5688  0.2171  0.9258
   99SAPS  C212 9934   2.576   2.428   7.635  0.0289 -0.2937 -0.2387
   99SAPS  H12R 9935   2.527   2.488   7.713 -0.9414  1.4082 -2.0586
   99SAPS  C213 9936   2.617   2.291   7.672  0.2997  0.2307  0.2688
   99SAPS  H13R 9937   2.718   2.295   7.717  0.3775 -1.4704  0.3106
   99SAPS  H13S 9938   2.629   2.228   7.582  0.5124 -0.1785  0.5797
   99SAPS  C214 9939   2.512   2.223   7.762 -0.5909  0.3445 -1.0270
   99SAPS  H14R 9940   2.409   2.222   7.725 -0.5362  0.0050 -1.1737
   99SAPS  C215 9941   2.531   2.198   7.896  0.2439 -0.0655  0.6467
   99SAPS  H15R 9942   2.451   2.151   7.955  1.0026 -0.0637  1.7035
   99SAPS  C216 9943   2.655   2.230   7.976 -0.4538 -0.7108 -0.4049
   99SAPS  H16R 9944   2.715   2.309   7.927 -0.1241 -0.8148 -0.1695
   99SAPS  H16S 9945   2.718   2.141   7.995  1.3450  0.7183  0.6290
   99SAPS  C217 9946   2.632   2.266   8.125 -0.1731  0.3452 -0.2894
   99SAPS  H17R 9947   2.584   2.176   8.168  1.9336 -0.9043 -0.4177
   99SAPS  H17S 9948   2.561   2.351   8.122 -1.3103 -0.5896 -0.4464
   99SAPS  C218 9949   2.753   2.296   8.211 -0.4094 -0.6220  0.1207
   99SAPS  H18R 9950   2.784   2.402   8.204  0.5794 -0.5161  4.0112
   99SAPS  H18S 9951   2.838   2.228   8.187  0.8142 -0.5480  3.6788
   99SAPS  C219 9952   2.711   2.275   8.356 -1.1050 -0.2436  0.1486
   99SAPS  H19R 9953   2.680   2.172   8.382  0.2836 -0.7924 -0.2944
   99SAPS  H19S 9954   2.624   2.343   8.371 -0.0961  0.9607  0.6797
   99SAPS  C220 9955   2.817   2.311   8.454 -1.0307  0.5049 -0.1610
   99SAPS  H20R 9956   2.793   2.287   8.560  0.2756 -0.9731 -0.1611
   99SAPS  H20S 9957   2.826   2.421   8.442  1.2466  0.2849 -0.8845
   99SAPS  H20T 9958   2.919   2.280   8.423 -0.1656  2.0579  0.9560
   99SAPS   C33 9959   3.421   2.211   6.775 -0.1266 -0.2648  0.8547
   99SAPS   H3X 9960   3.487   2.186   6.689  0.1149  0.7312  0.7416
   99SAPS   H3Y 9961   3.380   2.123   6.829  0.5135 -0.5762  0.8527
   99SAPS   C34 9962   3.504   2.303   6.860  0.1229 -0.0304  0.0372
   99SAPS   H4X 9963   3.438   2.333   6.944 -1.2020  0.1769 -1.0446
   99SAPS   H4Y 9964   3.532   2.395   6.804  0.3638 -1.4131 -2.2252
   99SAPS   C35 9965   3.638   2.231   6.901  0.2249 -0.1300 -0.5378
   99SAPS   H5X 9966   3.702   2.230   6.810 -0.2998  1.2110 -0.9403
   99SAPS   H5Y 9967   3.612   2.126   6.928 -0.4060  0.0465 -0.4411
   99SAPS   C36 9968   3.699   2.297   7.020  0.1740 -0.1083  0.1016
   99SAPS   H6X 9969   3.693   2.406   6.996 -1.3112 -0.1373  0.2659
   99SAPS   H6Y 9970   3.805   2.265   7.028  0.1231 -0.7402 -1.4884
   99SAPS   C37 9971   3.616   2.277   7.155 -0.0374  0.6079  0.0340
   99SAPS   H7X 9972   3.583   2.171   7.158 -0.7509  0.8613  2.1456
   99SAPS   H7Y 9973   3.521   2.330   7.133 -1.2310 -1.4952 -0.1300
   99SAPS   C38 9974   3.684   2.323   7.288  0.3926 -0.0479  0.0521
   99SAPS   H8X 9975   3.718   2.427   7.272  1.5811 -0.6020 -1.1597
   99SAPS   H8Y 9976   3.761   2.248   7.314  0.1837 -0.5040 -0.6154
   99SAPS   C39 9977   3.590   2.317   7.402  0.5340 -0.3095  0.1039
   99SAPS   H9X 9978   3.515   2.236   7.386  1.5105 -1.2644  0.2883
   99SAPS   H9Y 9979   3.534   2.413   7.407  0.5990 -0.3104  1.4475
   99SAPS  C310 9980   3.664   2.278   7.531 -0.2985 -0.4161  0.0489
   99SAPS  H10X 9981   3.746   2.349   7.552 -1.5407  1.1106 -0.1025
   99SAPS  H10Y 9982   3.707   2.176   7.523  0.8452  0.1587 -1.9591
   99SAPS  C311 9983   3.574   2.286   7.651  0.0743  0.1850  0.1259
   99SAPS  H11X 9984   3.471   2.254   7.621 -0.5010  1.1932  0.9443
   99SAPS  H11Y 9985   3.569   2.395   7.672  0.2490  0.3008 -0.4218
   99SAPS  C312 9986   3.618   2.208   7.773 -1.1721  0.9128 -0.2166
   99SAPS  H12X 9987   3.726   2.222   7.797 -0.9744 -0.5246 -0.1702
   99SAPS  H12Y 9988   3.613   2.099   7.751 -0.1531  1.0942 -1.4712
   99SAPS  C313 9989   3.538   2.234   7.905  0.9700  0.2033  0.3887
   99SAPS  H13X 9990   3.435   2.196   7.885  0.8932  0.2571  0.6740
   99SAPS  H13Y 9991   3.529   2.345   7.908  0.7716  0.1852  0.4739
   99SAPS  C314 9992   3.590   2.152   8.030  0.0880  0.7634  0.1640
   99SAPS  H14X 9993   3.619   2.050   7.995 -1.5675  0.0152  0.8420
   99SAPS  H14Y 9994   3.512   2.138   8.107  0.4609 -1.9563  0.1440
   99SAPS  C315 9995   3.702   2.222   8.100 -0.7037  0.1081  0.4659
   99SAPS  H15X 9996   3.684   2.314   8.159  2.1649  1.3843 -0.4610
   99SAPS  H15Y 9997   3.775   2.261   8.026 -3.0755  0.3446 -1.9262
   99SAPS  C316 9998   3.774   2.118   8.192  0.6608 -0.0831 -0.5332
   99SAPS  H16X 9999   3.876   2.154   8.219 -0.5421  2.1345  1.4103
   99SAPS  H16Y10000   3.783   2.021   8.139  4.2249 -0.9177  1.2966
   99SAPS  C31710001   3.701   2.115   8.332  0.6844  0.0751  0.2095
   99SAPS  H17X10002   3.597   2.079   8.317  0.3763  0.5739  1.1241
   99SAPS  H17Y10003   3.696   2.218   8.373  0.0739 -0.9874  3.0076
   99SAPS  C31810004   3.779   2.018   8.421  0.2506  0.0650  0.4376
   99SAPS  H18X10005   3.724   2.020   8.518 -1.5612 -0.2548 -0.5461
   99SAPS  H18Y10006   3.882   2.059   8.438  0.3602  1.5812 -3.0885
   99SAPS  H18Z10007   3.787   1.915   8.381  0.5611  0.0460  0.5433
  100SAPS     N10008   2.336   6.679   5.959 -0.0806  0.8387 -0.1437
  100SAPS   HN110009   2.374   6.763   5.911  2.1629 -0.2309 -0.3616
  100SAPS   HN210010   2.276   6.620   5.896  1.0688 -1.0539  0.4648
  100SAPS   HN310011   2.290   6.710   6.047 -0.1044  1.9712 -0.5418
  100SAPS   C1210012   2.452   6.605   5.978 -0.1776  0.7491 -0.4133
  100SAPS  H12A10013   2.424   6.514   6.029  3.6328 -1.1877 -1.3926
  100SAPS   C1310014   2.504   6.559   5.843  0.1702  0.2425 -0.5638
  100SAPS  O13A10015   2.458   6.608   5.732  0.1950  0.8006 -0.3148
  100SAPS  O13B10016   2.605   6.480   5.847  0.1359 -0.5210 -0.5610
  100SAPS   C1110017   2.551   6.694   6.051  0.2073  0.1187 -0.0224
  100SAPS  H11A10018   2.584   6.781   5.989  2.0397 -1.3895 -1.2748
  100SAPS  H11B10019   2.643   6.635   6.069  1.1580  1.3890 -0.5556
  100SAPS     P10020   2.561   6.827   6.283 -0.1071 -0.3370 -0.4255
  100SAPS   O1310021   2.704   6.853   6.240  1.1393 -0.1366  0.1113
  100SAPS   O1410022   2.472   6.944   6.293 -0.4926 -0.1308 -0.4875
  100SAPS   O1210023   2.495   6.726   6.180 -0.5226  0.1885 -0.0461
  100SAPS   O1110024   2.554   6.753   6.429  0.1778 -0.3160 -1.0324
  100SAPS    C110025   2.439   6.665   6.448  0.5431  0.1701 -0.3292
  100SAPS    HA10026   2.343   6.721   6.439  0.2480 -0.4186 -0.9785
  100SAPS    HB10027   2.436   6.574   6.384 -0.5039 -0.9168  1.2043
  100SAPS    C210028   2.436   6.602   6.587 -0.1697 -0.3840  1.4375
  100SAPS    HS10029   2.342   6.543   6.596  0.6839 -1.9698  0.3672
  100SAPS   O2110030   2.446   6.698   6.691 -0.0134 -0.5662  0.8152
  100SAPS   C2110031   2.337   6.747   6.734 -0.0942  0.1620 -0.2645
  100SAPS   O2210032   2.222   6.738   6.686  0.0110 -0.3792  0.5259
  100SAPS   C2210033   2.367   6.827   6.856 -0.0748  0.0413 -0.1088
  100SAPS   H2R10034   2.411   6.924   6.825 -0.6958  0.0829 -0.8916
  100SAPS   H2S10035   2.270   6.862   6.897  1.2074  0.3958  2.9036
  100SAPS    C310036   2.555   6.497   6.597  0.2315 -0.2556 -0.0439
  100SAPS    HX10037   2.651   6.551   6.581  0.7514 -1.5879 -1.8250
  100SAPS    HY10038   2.538   6.429   6.510 -2.0815  1.6481 -1.2084
  100SAPS   O3110039   2.551   6.433   6.726 -0.0979 -0.0346  0.2979
  100SAPS   C3110040   2.624   6.318   6.724 -0.5756  0.4247 -0.1610
  100SAPS   O3210041   2.702   6.295   6.633 -0.2194  0.0925  0.1028
  100SAPS   C3210042   2.623   6.245   6.863  0.4881  0.4356  0.6541
  100SAPS   H2X10043   2.524   6.257   6.912 -1.8382 -1.3786 -3.1115
  100SAPS   H2Y10044   2.694   6.308   6.920  0.4463  0.2745  0.8865
  100SAPS   C2310045   2.463   6.758   6.963  0.2136 -0.6920  0.5558
  100SAPS   H3R10046   2.512   6.841   7.020  1.0145  0.5569 -1.8001
  100SAPS   H3S10047   2.544   6.697   6.917 -0.1290 -1.1337  0.5377
  100SAPS   C2410048   2.403   6.650   7.051  0.8821 -0.8181  0.0990
  100SAPS   H4R10049   2.481   6.620   7.124 -0.5313 -1.1502  1.5386
  100SAPS   H4S10050   2.393   6.557   6.991  2.7842 -1.1079  0.1683
  100SAPS   C2510051   2.275   6.695   7.113  0.0745 -0.1237 -1.0036
  100SAPS   H5R10052   2.199   6.688   7.034  0.7867  1.1078 -1.8468
  100SAPS   C2610053   2.247   6.743   7.237 -0.4833 -0.5078 -0.2757
  100SAPS   H6R10054   2.142   6.759   7.264  0.7141  1.6479  4.1623
  100SAPS   C2710055   2.339   6.759   7.359  0.4531 -0.6796 -0.5037
  100SAPS   H7R10056   2.437   6.726   7.318 -0.1523 -0.6179 -2.0633
  100SAPS   H7S10057   2.312   6.687   7.440 -0.7975 -0.6775 -0.9053
  100SAPS   C2810058   2.349   6.904   7.399  0.3134  0.0211 -0.2450
  100SAPS   H8R10059   2.367   6.971   7.314 -0.2803  0.3564 -0.1163
  100SAPS   C2910060   2.355   6.965   7.517 -0.1323  0.2795 -1.2539
  100SAPS   H9R10061   2.362   7.075   7.525 -1.3440  0.2478  1.4745
  100SAPS  C21010062   2.351   6.887   7.649  0.4029  0.1554  0.7056
  100SAPS  H10R10063   2.446   6.902   7.703  0.1944 -2.2974  1.9268
  100SAPS  H10S10064   2.345   6.776   7.639  0.3731  0.2215 -0.0306
  100SAPS  C21110065   2.240   6.948   7.732 -0.2854  0.0058  0.5264
  100SAPS  H11R10066   2.144   6.962   7.680 -0.2945  0.4375  0.6556
  100SAPS  C21210067   2.234   6.971   7.863 -1.0116  0.6408  0.3390
  100SAPS  H12R10068   2.151   7.024   7.911 -2.7463 -0.0381 -1.7487
  100SAPS  C21310069   2.346   6.938   7.956  0.7133  0.5828  0.1637
  100SAPS  H13R10070   2.426   6.878   7.906  0.3051  0.2459 -0.0952
  100SAPS  H13S10071   2.313   6.881   8.045 -3.0479  1.5980 -0.4206
  100SAPS  C21410072   2.410   7.069   7.993 -0.2438 -0.7128 -0.1481
  100SAPS  H14R10073   2.497   7.083   7.927 -0.3923 -1.4941 -0.5196
  100SAPS  C21510074   2.380   7.155   8.090  0.5429 -0.4241 -0.3226
  100SAPS  H15R10075   2.451   7.238   8.104 -0.8382  1.2197 -2.5727
  100SAPS  C21610076   2.258   7.137   8.184 -0.4136 -0.1123  0.2778
  100SAPS  H16R10077   2.184   7.057   8.163 -0.9469  0.5175 -0.3068
  100SAPS  H16S10078   2.215   7.240   8.181  0.2700  0.2801  2.3746
  100SAPS  C21710079   2.303   7.101   8.329  0.3369  0.6054  0.5529
  100SAPS  H17R10080   2.378   7.173   8.366  0.4439 -0.1134  1.7834
  100SAPS  H17S10081   2.349   7.000   8.342 -2.6771 -0.9856 -0.2022
  100SAPS  C21810082   2.189   7.130   8.431 -0.0556 -0.1114  0.5877
  100SAPS  H18R10083   2.098   7.071   8.407  0.1069 -1.3466  2.7818
  100SAPS  H18S10084   2.165   7.238   8.426  2.6959  0.5638 -0.0215
  100SAPS  C21910085   2.224   7.101   8.573 -0.2694  0.0577  0.6609
  100SAPS  H19R10086   2.276   7.003   8.576 -0.3000  0.0190 -0.0298
  100SAPS  H19S10087   2.125   7.095   8.624 -0.9516 -0.3920 -0.6645
  100SAPS  C22010088   2.314   7.198   8.640 -0.0667  0.4128 -0.5687
  100SAPS  H20R10089   2.334   7.175   8.747 -1.0620 -1.3009 -0.7116
  100SAPS  H20S10090   2.265   7.297   8.629 -4.2522 -1.3847  0.0042
  100SAPS  H20T10091   2.414   7.200   8.592  0.5494  1.0217  0.6840
  100SAPS   C3310092   2.656   6.096   6.860 -0.3785 -0.3839 -0.0260
  100SAPS   H3X10093   2.758   6.089   6.818 -0.4043  0.7268 -0.3173
  100SAPS   H3Y10094   2.586   6.039   6.795 -1.1629  0.4796  0.0369
  100SAPS   C3410095   2.661   6.032   7.000  0.7729 -0.1342 -0.2314
  100SAPS   H4X10096   2.659   5.923   6.982 -1.5183 -0.0903 -0.4708
  100SAPS   H4Y10097   2.566   6.050   7.054  1.6800 -0.9644  1.7611
  100SAPS   C3510098   2.778   6.065   7.078  0.0039  0.0506 -0.3335
  100SAPS   H5X10099   2.786   6.176   7.080  1.8593 -0.0445 -0.5587
  100SAPS   H5Y10100   2.873   6.031   7.032  0.3956  1.7725 -0.8787
  100SAPS   C3610101   2.774   5.993   7.215 -0.5063 -0.8937  0.7958
  100SAPS   H6X10102   2.874   6.001   7.261 -0.5459  0.8103  0.6320
  100SAPS   H6Y10103   2.756   5.885   7.196  0.0226 -0.5009 -2.5910
  100SAPS   C3710104   2.668   6.052   7.314  0.3096  0.4227 -0.0652
  100SAPS   H7X10105   2.571   6.049   7.261 -0.2689 -1.7112  0.9945
  100SAPS   H7Y10106   2.701   6.156   7.336  0.0625  0.4348  0.2562
  100SAPS   C3810107   2.639   5.959   7.429 -0.2777  0.5879 -0.1384
  100SAPS   H8X10108   2.738   5.930   7.470  0.1742  0.0124 -1.5588
  100SAPS   H8Y10109   2.584   5.872   7.386 -2.8124  1.8472  0.3958
  100SAPS   C3910110   2.565   6.005   7.552 -0.1311 -0.3930  0.2911
  100SAPS   H9X10111   2.463   6.030   7.515  0.5456  0.4997 -1.0496
  100SAPS   H9Y10112   2.614   6.096   7.593 -0.2904 -0.3744  0.4457
  100SAPS  C31010113   2.557   5.889   7.653  0.5239 -0.2636 -0.0597
  100SAPS  H10X10114   2.550   5.793   7.597  2.1001 -0.1555 -0.4743
  100SAPS  H10Y10115   2.458   5.894   7.704  0.4210  1.2721 -0.3895
  100SAPS  C31110116   2.668   5.867   7.750 -0.4118 -0.4647 -0.0833
  100SAPS  H11X10117   2.771   5.850   7.713 -0.4369 -0.2125 -0.2657
  100SAPS  H11Y10118   2.647   5.766   7.793 -0.5094 -0.9362 -1.2012
  100SAPS  C31210119   2.684   5.984   7.860 -0.0582  0.1045  0.3157
  100SAPS  H12X10120   2.589   6.007   7.913  1.0980  1.7256  1.7929
  100SAPS  H12Y10121   2.707   6.070   7.795  0.1824 -1.5399 -1.8975
  100SAPS  C31310122   2.809   5.969   7.952 -0.6558 -0.9142  0.1379
  100SAPS  H13X10123   2.893   5.927   7.894  0.0559  0.8117 -0.1369
  100SAPS  H13Y10124   2.777   5.895   8.030 -0.3273  0.5152  1.6864
  100SAPS  C31410125   2.850   6.100   8.010 -0.1089 -0.5789 -0.0733
  100SAPS  H14X10126   2.901   6.167   7.937 -1.9562  2.8327  1.4929
  100SAPS  H14Y10127   2.931   6.087   8.084 -2.0744 -0.5066  2.2314
  100SAPS  C31510128   2.737   6.186   8.076 -0.2678  0.1919 -0.2166
  100SAPS  H15X10129   2.666   6.221   7.999 -1.3061 -0.9960  0.1606
  100SAPS  H15Y10130   2.783   6.279   8.114 -3.7148  1.5721  0.9697
  100SAPS  C31610131   2.665   6.119   8.187  0.4751  0.6772 -0.4080
  100SAPS  H16X10132   2.730   6.121   8.277  0.5342  2.0822 -0.4643
  100SAPS  H16Y10133   2.644   6.016   8.152 -0.0074  1.0794 -1.3323
  100SAPS  C31710134   2.530   6.180   8.227  0.4763 -0.4176 -0.5872
  100SAPS  H17X10135   2.449   6.147   8.159 -0.9601 -2.8647  2.1348
  100SAPS  H17Y10136   2.536   6.290   8.215 -1.1935  0.0041  1.8813
  100SAPS  C31810137   2.494   6.143   8.369 -0.2003 -0.2332 -0.0779
  100SAPS  H18X10138   2.560   6.187   8.447 -0.2724  2.5508 -1.4492
  100SAPS  H18Y10139   2.501   6.032   8.373  2.2493 -0.1461 -0.1149
  100SAPS  H18Z10140   2.391   6.179   8.387  0.5111  1.7118  0.3154
  101OSM      N10141   0.401   0.101  11.041 -0.0577 -0.4634  0.4793
  101OSM    C1510142   0.498   0.004  11.001  0.2482 -0.1809  0.6580
  101OSM   H15A10143   0.553  -0.046  11.079  1.8411  0.4352 -0.0359
  101OSM   H15B10144   0.565   0.053  10.932  0.2069 -2.1640 -0.8892
  101OSM   H15C10145   0.453  -0.077  10.945  1.3039 -0.5142  0.2665
  101OSM    C1410146   0.335   0.165  10.920  0.5657  0.2971 -0.0576
  101OSM   H14A10147   0.270   0.096  10.869  0.4212 -0.2946  0.9234
  101OSM   H14B10148   0.400   0.205  10.843  0.1755 -0.6926 -0.9209
  101OSM   H14C10149   0.270   0.246  10.950 -0.4144 -1.3281  2.5178
  101OSM    C1310150   0.303   0.039  11.138 -1.0121 -0.1222 -0.4133
  101OSM   H13A10151   0.349   0.029  11.236 -1.4895 -1.1515 -0.2846
  101OSM   H13B10152   0.261  -0.055  11.108 -1.4220  0.9062 -3.3153
  101OSM   H13C10153   0.212   0.095  11.156 -1.1878 -0.5847  0.1884
  101OSM    C1210154   0.477   0.213  11.117 -0.1865  0.6975 -0.0145
  101OSM   H12A10155   0.540   0.263  11.046  0.1728 -2.2242 -1.9447
  101OSM   H12B10156   0.532   0.179  11.203 -0.8931  0.0844  0.2094
  101OSM    C1110157   0.389   0.334  11.169  0.0084  0.0033 -0.4195
  101OSM   H11A10158   0.318   0.299  11.246  0.9629 -0.5687  0.2301
  101OSM   H11B10159   0.335   0.370  11.079  1.6066 -0.4989 -1.6285
  101OSM      P10160   0.563   0.532  11.142  0.2130  0.3456  0.5154
  101OSM    O1310161   0.562   0.664  11.206  0.0996 -0.0524 -0.3206
  101OSM    O1410162   0.689   0.452  11.128 -0.4365 -0.4091  0.0587
  101OSM    O1110163   0.484   0.535  11.005 -0.6942 -0.0617  0.6350
  101OSM    O1210164   0.478   0.435  11.229  0.3280 -0.2762 -0.0918
  101OSM    C1S10165   0.371   0.609  10.972 -0.0533  0.3833 -0.2811
  101OSM    H1S10166   0.363   0.712  11.015 -2.6325  0.3955 -0.6584
  101OSM    H1T10167   0.278   0.560  11.005 -0.4514 -1.1591 -3.3559
  101OSM     NF10168   0.218   0.678  10.801 -0.2358 -0.1468  0.0836
  101OSM    HNF10169   0.148   0.621  10.757  0.9880  0.0946 -2.3719
  101OSM    C2S10170   0.351   0.628  10.815 -0.3610 -0.0957 -0.1273
  101OSM    H2S10171   0.428   0.701  10.782  0.0652  0.6858  2.4013
  101OSM    C3S10172   0.369   0.492  10.754 -0.0710  0.4974  0.1386
  101OSM    H3S10173   0.300   0.415  10.794  0.1894  0.4129  0.4218
  101OSM     O310174   0.502   0.446  10.765  0.3326 -0.2357 -0.4542
  101OSM    HO310175   0.540   0.494  10.839  0.7755 -1.3753  0.0771
  101OSM    C4S10176   0.344   0.496  10.603  0.8650  0.3246 -0.5709
  101OSM    H4S10177   0.249   0.454  10.568  1.4554 -0.8319 -0.8237
  101OSM    C5S10178   0.423   0.542  10.502  0.5474 -0.1768 -0.2828
  101OSM    H5S10179   0.517   0.591  10.534 -0.9659  1.5919  1.7714
  101OSM    C6S10180   0.381   0.562  10.356 -0.4377  0.2957  0.4658
  101OSM    H6S10181   0.429   0.477  10.304 -2.0699 -1.3224  1.4776
  101OSM    H6T10182   0.432   0.655  10.324 -0.3150  0.1358  0.2009
  101OSM    C7S10183   0.237   0.576  10.308 -0.2787  0.2495 -0.1265
  101OSM    H7S10184   0.187   0.650  10.374  0.2660  1.8660 -1.4416
  101OSM    H7T10185   0.186   0.478  10.320 -1.9614  1.3047  2.0181
  101OSM    C8S10186   0.220   0.621  10.158  0.0876 -0.4749 -0.2291
  101OSM    H8S10187   0.261   0.724  10.152  1.0070 -0.9150 -2.0562
  101OSM    H8T10188   0.112   0.632  10.135  0.4986  1.6403 -1.4583
  101OSM    C9S10189   0.293   0.542  10.050 -0.3627  0.6417 -0.1194
  101OSM    H9S10190   0.266   0.437  10.072 -2.1911  1.5654  2.4859
  101OSM    H9T10191   0.400   0.552  10.078  0.0112  1.4674 -1.6767
  101OSM   C10S10192   0.259   0.577   9.901 -0.1592 -0.4075 -0.1614
  101OSM   H10S10193   0.284   0.685   9.906 -1.7475 -0.0525  0.8463
  101OSM   H10T10194   0.151   0.554   9.883 -0.7162 -0.4070  2.6899
  101OSM   C11S10195   0.341   0.510   9.788 -0.7352  0.4548 -0.0564
  101OSM   H11S10196   0.309   0.404   9.788  0.3667  0.1094 -0.3938
  101OSM   H11T10197   0.449   0.531   9.806 -0.2491 -0.7452 -1.3423
  101OSM   C12S10198   0.306   0.579   9.651 -0.2823  0.4875 -0.5039
  101OSM   H12S10199   0.325   0.689   9.654 -0.4484  0.5996 -2.1982
  101OSM   H12T10200   0.195   0.565   9.648 -0.2988  0.6570 -0.7896
  101OSM   C13S10201   0.370   0.525   9.521 -0.0512 -0.4525 -0.2830
  101OSM   H13S10202   0.342   0.418   9.515  1.0217 -0.9096  1.7249
  101OSM   H13T10203   0.479   0.537   9.539 -0.4184  4.0549  0.1826
  101OSM   C14S10204   0.317   0.595   9.391 -0.1519 -0.0269 -0.6608
  101OSM   H14S10205   0.332   0.701   9.417  2.0701 -0.6931  1.0565
  101OSM   H14T10206   0.211   0.560   9.391  0.2556 -1.3996 -2.1351
  101OSM   C15S10207   0.378   0.558   9.257  0.2452 -0.2159  0.0572
  101OSM   H15S10208   0.304   0.579   9.177  1.7869 -0.9253 -1.6570
  101OSM   H15T10209   0.395   0.448   9.259 -0.2752 -0.2896  0.5298
  101OSM   C16S10210   0.503   0.646   9.244 -0.2228  0.4305 -0.1954
  101OSM   H16S10211   0.553   0.663   9.341 -1.8200  1.2690  0.5259
  101OSM   H16T10212   0.476   0.747   9.207  1.0717  0.2962 -1.6039
  101OSM   C17S10213   0.604   0.588   9.146 -0.6170  0.0990 -0.2611
  101OSM   H17S10214   0.652   0.507   9.205  0.0036  0.2303 -0.5800
  101OSM   H17T10215   0.678   0.669   9.134 -1.2182  0.4579 -1.8729
  101OSM   C18S10216   0.558   0.540   9.006 -0.3470  0.3830 -0.3068
  101OSM   H18S10217   0.534   0.631   8.947 -1.9919  0.3568  0.2804
  101OSM   H18T10218   0.466   0.479   9.013  0.0751 -0.1801  0.4819
  101OSM   H18U10219   0.652   0.498   8.965  0.6819  1.5358  0.7559
  101OSM    C1F10220   0.182   0.801  10.841 -0.1556 -0.4445  0.2849
  101OSM     OF10221   0.262   0.881  10.885  0.0074 -0.0945  0.5429
  101OSM    C2F10222   0.034   0.842  10.821  0.1259 -0.0202 -0.2444
  101OSM    H2F10223   0.014   0.917  10.900  0.0121  1.7139 -1.8444
  101OSM    H2G10224  -0.030   0.752  10.833  1.2246 -1.0535 -1.7939
  101OSM    C3F10225   0.010   0.915  10.684  0.0481 -0.0184  0.3889
  101OSM    H3F10226   0.093   0.985  10.663  0.0644  0.4691  1.9210
  101OSM    H3G10227  -0.083   0.974  10.699 -0.1261 -0.2842  0.3741
  101OSM    C4F10228  -0.019   0.821  10.570 -0.0308  0.2263  0.2335
  101OSM    H4F10229  -0.079   0.732  10.599 -1.4258  0.4667 -1.7227
  101OSM    H4G10230   0.077   0.774  10.538 -0.4395  0.2493 -1.1106
  101OSM    C5F10231  -0.093   0.892  10.454  0.1270  1.1311 -0.1014
  101OSM    H5F10232  -0.024   0.967  10.412 -0.8554  1.7551 -0.6244
  101OSM    H5G10233  -0.185   0.947  10.485  0.0805  1.1647 -0.2993
  101OSM    C6F10234  -0.124   0.785  10.347  0.6493 -0.2019  0.3582
  101OSM    H6F10235  -0.188   0.705  10.390 -2.3372  0.6679 -2.1266
  101OSM    H6G10236  -0.035   0.727  10.313 -0.7935 -1.7739 -0.9281
  101OSM    C7F10237  -0.190   0.840  10.224  0.0829 -0.1372  0.2390
  101OSM    H7F10238  -0.119   0.909  10.174 -0.0483 -0.2974 -0.1762
  101OSM    H7G10239  -0.285   0.892  10.251  0.6795  1.3757 -0.4618
  101OSM    C8F10240  -0.230   0.730  10.116  0.2731  0.3961  0.3912
  101OSM    H8F10241  -0.304   0.672  10.174  0.0827 -0.0254 -0.2574
  101OSM    H8G10242  -0.141   0.666  10.098  1.2877  1.6537  0.7385
  101OSM    C9F10243  -0.299   0.794   9.996 -0.4103 -0.4607 -0.1437
  101OSM    H9F10244  -0.403   0.829  10.010 -0.0200  1.0495 -0.9159
  101OSM   C10F10245  -0.238   0.816   9.876  0.3107  0.1113 -0.7605
  101OSM   H10F10246  -0.305   0.844   9.793 -0.6471  0.1831  0.0328
  101OSM   C11F10247  -0.094   0.785   9.829 -0.3004 -1.0675  0.1556
  101OSM   H11F10248  -0.071   0.686   9.872 -0.4539 -1.6655 -1.0935
  101OSM   H11G10249  -0.041   0.874   9.869  0.2302 -0.6969 -1.2901
  101OSM   C12F10250  -0.065   0.770   9.679  0.6382  0.0290  0.6616
  101OSM   H12F10251  -0.111   0.680   9.634 -0.7845 -0.2994  2.6300
  101OSM   H12G10252   0.041   0.749   9.651  0.4666  1.1643 -0.9832
  101OSM   C13F10253  -0.101   0.893   9.588  0.2351 -0.2391 -0.5830
  101OSM   H13F10254  -0.060   0.985   9.634  0.6573 -0.3351 -0.7634
  101OSM   H13G10255  -0.212   0.892   9.596  0.3625  0.0263  1.8352
  101OSM   C14F10256  -0.057   0.893   9.442  0.7729  0.0193 -0.5701
  101OSM   H14F10257   0.054   0.893   9.451  0.7606  0.0754 -0.4061
  101OSM   H14G10258  -0.094   0.982   9.387 -0.2828 -0.6472 -0.9725
  101OSM   C15F10259  -0.109   0.778   9.353 -0.0350 -0.4900  0.1492
  101OSM   H15F10260  -0.220   0.778   9.352 -0.0457  0.8374 -0.3310
  101OSM   H15G10261  -0.079   0.682   9.400 -1.4032 -0.1252  1.8834
  101OSM   C16F10262  -0.058   0.787   9.211  0.6667 -0.5381  0.5572
  101OSM   H16F10263  -0.107   0.695   9.171 -1.9811  0.6759  0.8180
  101OSM   H16G10264   0.053   0.789   9.199  0.8499  0.2023  2.1539
  101OSM   C17F10265  -0.107   0.907   9.124  0.0671 -0.3009  0.5038
  101OSM   H17F10266  -0.069   0.897   9.020  0.4754 -1.3839  0.7406
  101OSM   H17G10267  -0.052   0.993   9.167  1.1515 -1.2740  1.1143
  101OSM   C18F10268  -0.264   0.924   9.117  0.3113  0.5632 -0.1957
  101OSM   H18F10269  -0.314   0.944   9.215 -0.6115  2.0906 -0.9352
  101OSM   H18G10270  -0.317   0.841   9.066 -0.9066  1.2834 -0.1619
  101OSM   H18H10271  -0.284   1.010   9.050  0.9895 -0.0324 -1.1830
  102OSM      N10272   6.430   5.721  11.286  0.1616 -0.0643 -0.3375
  102OSM    C1510273   6.335   5.594  11.280 -0.4529 -0.1028  0.4130
  102OSM   H15A10274   6.245   5.615  11.225 -1.3972 -0.4690  1.7665
  102OSM   H15B10275   6.312   5.563  11.381 -1.2123 -1.2150 -0.0846
  102OSM   H15C10276   6.375   5.506  11.232  0.8074  0.7288 -0.1263
  102OSM    C1410277   6.357   5.847  11.315  0.7651  0.7909 -0.9308
  102OSM   H14A10278   6.413   5.940  11.316 -0.9242  1.8592  0.0755
  102OSM   H14B10279   6.321   5.844  11.417 -1.4815 -1.6945 -1.6886
  102OSM   H14C10280   6.272   5.866  11.251 -0.0441  1.6471  0.3566
  102OSM    C1310281   6.528   5.696  11.396 -0.1539  0.0332  0.4735
  102OSM   H13A10282   6.583   5.604  11.386 -1.8934 -1.0195  0.1926
  102OSM   H13B10283   6.471   5.677  11.486 -1.0542 -0.1533 -0.1233
  102OSM   H13C10284   6.586   5.786  11.411 -0.4861  0.3154  0.0911
  102OSM    C1210285   6.495   5.737  11.149 -0.0829 -0.4851  0.5433
  102OSM   H12A10286   6.540   5.835  11.143  3.0977 -1.8499 -0.3060
  102OSM   H12B10287   6.411   5.740  11.082 -0.2364  0.6592  0.7697
  102OSM    C1110288   6.607   5.635  11.107  0.9222 -0.3742  0.1434
  102OSM   H11A10289   6.694   5.645  11.176 -0.2716  2.2039  1.4137
  102OSM   H11B10290   6.661   5.658  11.012  0.9963  0.4534  0.3790
  102OSM      P10291   6.604   5.389  11.026 -0.4409  0.0391  0.0828
  102OSM    O1310292   6.743   5.342  11.055 -0.0946 -0.1364 -0.1200
  102OSM    O1410293   6.504   5.281  11.017  0.0726 -0.6569 -0.0531
  102OSM    O1110294   6.608   5.451  10.883  0.1021 -0.2738 -0.0696
  102OSM    O1210295   6.560   5.502  11.119  0.2968  0.0814  0.0101
  102OSM    C1S10296   6.492   5.467  10.802 -0.2099  0.8154 -0.7886
  102OSM    H1S10297   6.404   5.508  10.856  0.7303  0.3884  1.1544
  102OSM    H1T10298   6.454   5.371  10.760  0.3844  0.1013  0.2589
  102OSM     NF10299   6.398   5.574  10.609 -0.2054  0.9841  0.2720
  102OSM    HNF10300   6.370   5.485  10.572  0.7819  1.0425 -0.6785
  102OSM    C2S10301   6.525   5.549  10.681  1.1738  0.3054 -0.1032
  102OSM    H2S10302   6.564   5.648  10.713  1.0811 -0.7467  3.7832
  102OSM    C3S10303   6.631   5.474  10.597 -0.1364  0.2239  0.1101
  102OSM    H3S10304   6.591   5.375  10.563  2.1238 -0.5879 -0.3498
  102OSM     O310305   6.751   5.445  10.664  0.1830  0.4259 -0.2788
  102OSM    HO310306   6.746   5.488  10.749  0.8409 -1.6932  0.9173
  102OSM    C4S10307   6.667   5.555  10.478 -0.3542  0.3112 -0.3606
  102OSM    H4S10308   6.736   5.637  10.501  1.4336 -0.7983 -1.5179
  102OSM    C5S10309   6.625   5.539  10.356  0.2629  0.4115  0.7257
  102OSM    H5S10310   6.558   5.455  10.333  1.6442 -0.2617 -1.0681
  102OSM    C6S10311   6.667   5.635  10.244 -0.3901  0.5340 -0.0159
  102OSM    H6S10312   6.630   5.585  10.152 -0.1755 -1.1994  0.7809
  102OSM    H6T10313   6.777   5.645  10.234 -0.6077  2.1677 -1.0965
  102OSM    C7S10314   6.615   5.772  10.272 -0.1145 -0.5568 -0.4657
  102OSM    H7S10315   6.636   5.801  10.377  0.9143 -1.5496 -0.3825
  102OSM    H7T10316   6.504   5.776  10.274 -0.2656 -2.1063 -2.6788
  102OSM    C8S10317   6.661   5.884  10.168  0.4924 -0.3266  0.7407
  102OSM    H8S10318   6.762   5.923  10.191  0.9673 -0.9136 -0.2587
  102OSM    H8T10319   6.594   5.972  10.168 -0.6383 -1.1463 -0.4577
  102OSM    C9S10320   6.657   5.831  10.018 -0.7136 -0.0232 -0.0819
  102OSM    H9S10321   6.557   5.790   9.994 -0.6801  0.9650 -2.1374
  102OSM    H9T10322   6.725   5.744  10.004  0.5100  1.3159 -3.3709
  102OSM   C10S10323   6.715   5.943   9.928 -0.3529  0.0212  0.3888
  102OSM   H10S10324   6.825   5.955   9.935 -0.1280 -1.5835  0.1224
  102OSM   H10T10325   6.661   6.039   9.940  0.1587  0.3348  0.2241
  102OSM   C11S10326   6.709   5.897   9.781  0.6454  0.7821  0.0993
  102OSM   H11S10327   6.605   5.902   9.742  0.1875 -1.8090  0.7908
  102OSM   H11T10328   6.740   5.791   9.771 -1.1707  0.0122  1.8921
  102OSM   C12S10329   6.786   5.978   9.687 -0.1047 -0.2117  0.2136
  102OSM   H12S10330   6.889   5.992   9.726  0.5156 -2.6015 -0.3868
  102OSM   H12T10331   6.744   6.080   9.677 -1.2087 -0.5453  1.2304
  102OSM   C13S10332   6.790   5.917   9.546 -0.6400  0.5165  0.3163
  102OSM   H13S10333   6.699   5.856   9.530  0.8160 -1.3995 -1.0789
  102OSM   H13T10334   6.875   5.847   9.531 -1.4954 -0.1583 -1.7235
  102OSM   C14S10335   6.804   6.017   9.430 -0.3301 -0.0428 -0.0455
  102OSM   H14S10336   6.879   6.099   9.444 -1.2626  0.5792  1.5567
  102OSM   H14T10337   6.714   6.080   9.445  0.2402  1.2801 -1.7381
  102OSM   C15S10338   6.805   5.953   9.290 -0.2610 -0.0660  0.3490
  102OSM   H15S10339   6.722   5.886   9.259 -0.5845  0.8279 -0.7924
  102OSM   H15T10340   6.905   5.905   9.284 -0.3803 -0.1447 -1.9098
  102OSM   C16S10341   6.819   6.051   9.179 -0.2316  0.7292 -0.0889
  102OSM   H16S10342   6.904   6.117   9.206  0.4006  0.0291 -0.3378
  102OSM   H16T10343   6.726   6.112   9.180 -1.0004 -0.3874 -0.4831
  102OSM   C17S10344   6.834   5.988   9.036 -0.1536  0.3336 -0.7728
  102OSM   H17S10345   6.806   6.069   8.965 -1.8299  2.0694  1.6580
  102OSM   H17T10346   6.757   5.909   9.028  0.9742 -0.6096 -3.2318
  102OSM   C18S10347   6.974   5.927   8.997  0.1215  0.0648 -0.6460
  102OSM   H18S10348   7.058   5.988   9.036  1.9745 -2.0157 -1.1593
  102OSM   H18T10349   6.977   5.923   8.886 -1.4984  1.1777 -0.7571
  102OSM   H18U10350   6.972   5.824   9.040 -0.9928 -0.1465 -1.1747
  102OSM    C1F10351   6.314   5.666  10.656 -0.2722  0.0209  0.3616
  102OSM     OF10352   6.351   5.739  10.744 -0.1243 -0.0250  0.1293
  102OSM    C2F10353   6.169   5.663  10.616  0.3693  0.4957 -0.8682
  102OSM    H2F10354   6.124   5.654  10.717  2.3740  0.0724  0.0373
  102OSM    H2G10355   6.146   5.576  10.552  0.2258 -2.3351  2.6784
  102OSM    C3F10356   6.117   5.791  10.543 -0.6158  0.6925  0.2366
  102OSM    H3F10357   6.148   5.880  10.602 -1.2836  0.0844  1.5424
  102OSM    H3G10358   6.008   5.779  10.525 -0.1050 -1.5953 -1.9621
  102OSM    C4F10359   6.194   5.809  10.410  0.1614  0.5966  0.1684
  102OSM    H4F10360   6.197   5.720  10.343 -0.2859 -0.5962  1.6887
  102OSM    H4G10361   6.300   5.813  10.443 -0.0238 -1.9378  1.3615
  102OSM    C5F10362   6.147   5.933  10.335 -0.9187 -0.1229 -0.6641
  102OSM    H5F10363   6.158   6.018  10.406 -1.4095  1.0646 -1.9642
  102OSM    H5G10364   6.045   5.924  10.292 -0.1538 -4.1037 -2.0695
  102OSM    C6F10365   6.239   5.979  10.222 -0.4321  0.2232 -0.2625
  102OSM    H6F10366   6.339   6.006  10.263 -0.8793  0.0871  0.9645
  102OSM    H6G10367   6.208   6.074  10.174  1.1419 -0.0703 -1.9618
  102OSM    C7F10368   6.258   5.875  10.114  0.0652  0.4931  0.3388
  102OSM    H7F10369   6.163   5.821  10.095  0.3249 -1.3574  3.5713
  102OSM    H7G10370   6.331   5.794  10.136 -0.9788 -0.5983 -0.1193
  102OSM    C8F10371   6.297   5.951   9.979  0.1896  0.0644  0.4567
  102OSM    H8F10372   6.384   6.013  10.009  0.8860 -0.6491 -0.0295
  102OSM    H8G10373   6.215   6.024   9.963 -0.5863 -0.1663  2.9909
  102OSM    C9F10374   6.316   5.854   9.864  0.0425 -0.4055  0.7755
  102OSM    H9F10375   6.368   5.759   9.886 -1.9797 -1.5541  0.8152
  102OSM   C10F10376   6.277   5.876   9.740 -0.0513 -0.3139 -0.3324
  102OSM   H10F10377   6.279   5.798   9.663 -0.5802  0.1911 -0.8619
  102OSM   C11F10378   6.215   6.002   9.691 -0.1389 -0.2456  0.3163
  102OSM   H11F10379   6.125   6.024   9.752  0.1857 -0.5035  0.8899
  102OSM   H11G10380   6.171   5.967   9.595 -0.3320 -0.5950  0.5307
  102OSM   C12F10381   6.298   6.134   9.688 -0.2130  0.4363  0.0210
  102OSM   H12F10382   6.339   6.161   9.787  2.6574 -0.4089 -0.8538
  102OSM   H12G10383   6.243   6.230   9.672  0.1885  1.3984  3.6158
  102OSM   C13F10384   6.420   6.131   9.601 -0.1854  0.3302  0.9885
  102OSM   H13F10385   6.482   6.046   9.635 -0.2398  1.2440  3.5312
  102OSM   H13G10386   6.478   6.224   9.611  0.5851 -0.0955  0.5869
  102OSM   C14F10387   6.399   6.114   9.447  0.6532  0.6506  0.2107
  102OSM   H14F10388   6.324   6.034   9.425  1.2107 -0.0377  0.7941
  102OSM   H14G10389   6.489   6.096   9.384 -0.1348  1.2724 -1.1421
  102OSM   C15F10390   6.339   6.243   9.383  0.5546  0.4296  0.3880
  102OSM   H15F10391   6.415   6.324   9.381  1.3735 -0.3007  0.8335
  102OSM   H15G10392   6.252   6.284   9.438 -0.7044  0.5647 -1.6338
  102OSM   C16F10393   6.317   6.213   9.228  0.2961 -0.3057 -0.1287
  102OSM   H16F10394   6.259   6.119   9.215 -0.6695  0.4798 -1.8851
  102OSM   H16G10395   6.416   6.192   9.183  0.5603  1.0373 -0.2231
  102OSM   C17F10396   6.238   6.325   9.150 -0.0335 -0.5068 -0.1170
  102OSM   H17F10397   6.280   6.428   9.158 -1.9938  0.4659 -1.5485
  102OSM   H17G10398   6.140   6.334   9.201  1.0831  0.3705  2.0259
  102OSM   C18F10399   6.228   6.302   9.006  0.1065 -0.2933 -0.3394
  102OSM   H18F10400   6.328   6.295   8.959  1.0391 -1.1867  1.6586
  102OSM   H18G10401   6.161   6.374   8.955  1.4475  1.5206  0.3389
  102OSM   H18H10402   6.177   6.205   8.990  1.6326 -1.2089  0.1648
  103OSM      N10403   4.820   0.755  11.373 -0.2014  0.3997 -0.5694
  103OSM    C1510404   4.933   0.840  11.420  0.2356 -0.3414  0.0155
  103OSM   H15A10405   5.023   0.787  11.390  0.3966  0.2317 -0.5319
  103OSM   H15B10406   4.941   0.841  11.527  0.4851  0.2935 -0.0045
  103OSM   H15C10407   4.945   0.943  11.390  1.3771 -0.5070 -0.1617
  103OSM    C1410408   4.869   0.691  11.251  0.1297  0.0197  0.0822
  103OSM   H14A10409   4.916   0.754  11.178  0.6162  0.3044  0.6258
  103OSM   H14B10410   4.792   0.636  11.199 -0.3383 -0.6289  1.4151
  103OSM   H14C10411   4.944   0.616  11.274  0.5748  0.8157  1.3763
  103OSM    C1310412   4.795   0.644  11.473 -0.1165 -0.1561 -0.1091
  103OSM   H13A10413   4.778   0.687  11.571  0.2133  0.3000 -0.2489
  103OSM   H13B10414   4.882   0.582  11.485  0.4657  0.6620 -0.0330
  103OSM   H13C10415   4.716   0.583  11.433 -1.0354  1.0351 -0.1718
  103OSM    C1210416   4.689   0.831  11.363  0.0284 -0.7936 -0.0666
  103OSM   H12A10417   4.658   0.885  11.451 -4.0191 -0.9244 -1.1887
  103OSM   H12B10418   4.612   0.758  11.345  0.9679 -2.0579  0.8662
  103OSM    C1110419   4.687   0.939  11.246 -0.1565  0.3965  0.1417
  103OSM   H11A10420   4.582   0.963  11.218 -0.1176 -1.3963 -1.7346
  103OSM   H11B10421   4.732   0.894  11.155 -1.9451  0.2143 -0.6925
  103OSM      P10422   4.763   1.189  11.219  0.0012 -0.0375  0.5331
  103OSM    O1310423   4.666   1.185  11.104 -0.2923  0.9411 -0.2776
  103OSM    O1410424   4.748   1.293  11.321  0.3843 -0.4161  0.3587
  103OSM    O1110425   4.909   1.185  11.162  0.8914  0.9554  0.2660
  103OSM    O1210426   4.762   1.048  11.301  0.4659  0.1416  0.0233
  103OSM    C1S10427   4.971   1.072  11.098  0.2633  0.0936  0.3521
  103OSM    H1S10428   4.912   0.978  11.108 -1.0169  0.4988 -2.5221
  103OSM    H1T10429   5.076   1.060  11.132  0.4726 -0.2702 -0.4128
  103OSM     NF10430   5.065   0.970  10.885  0.3911  0.7768  0.5190
  103OSM    HNF10431   5.164   0.977  10.878  0.4318 -0.5835 -0.6340
  103OSM    C2S10432   4.994   1.083  10.940 -0.1428  0.3314 -0.4760
  103OSM    H2S10433   4.890   1.084  10.902 -2.1035 -0.3681  4.1666
  103OSM    C3S10434   5.081   1.211  10.913  0.4705  0.3202 -0.1508
  103OSM    H3S10435   5.177   1.204  10.969  0.5113  0.2065 -0.2361
  103OSM     O310436   5.031   1.334  10.980 -0.7601  0.0973 -0.0778
  103OSM    HO310437   4.961   1.305  11.038  1.7047 -3.5869  1.4662
  103OSM    C4S10438   5.102   1.234  10.765  0.4884  0.1694  0.0872
  103OSM    H4S10439   5.003   1.247  10.719 -0.8002 -3.3431  1.5338
  103OSM    C5S10440   5.219   1.256  10.701  0.8477  0.9136  0.1808
  103OSM    H5S10441   5.313   1.234  10.754  1.0907 -2.4785 -1.3578
  103OSM    C6S10442   5.236   1.288  10.556 -0.4094 -0.2030 -0.0221
  103OSM    H6S10443   5.327   1.247  10.509  0.8405  0.4761  1.6738
  103OSM    H6T10444   5.261   1.396  10.550 -1.8466  0.1008 -0.9779
  103OSM    C7S10445   5.118   1.238  10.471 -0.1044  0.3180 -0.0515
  103OSM    H7S10446   5.020   1.279  10.504 -1.0958 -1.6897 -0.3908
  103OSM    H7T10447   5.105   1.128  10.481 -1.0861  0.6366  4.9950
  103OSM    C8S10448   5.133   1.274  10.324  0.5512 -0.1044  0.0392
  103OSM    H8S10449   5.213   1.210  10.280 -0.7688 -0.0049 -2.7389
  103OSM    H8T10450   5.158   1.381  10.307  1.4273 -0.0211  1.6569
  103OSM    C9S10451   5.008   1.222  10.252 -0.0543  0.2753  0.7344
  103OSM    H9S10452   4.912   1.275  10.271 -1.3896 -2.4656  2.2868
  103OSM    H9T10453   4.994   1.119  10.291 -2.9541 -0.1940 -1.2302
  103OSM   C10S10454   5.031   1.228  10.099 -0.6703 -0.1913  0.1015
  103OSM   H10S10455   4.962   1.153  10.054  0.3523 -0.8646 -0.3944
  103OSM   H10T10456   5.135   1.206  10.068 -1.2018 -1.0167 -1.1873
  103OSM   C11S10457   4.983   1.359  10.041 -0.0250 -0.4153 -0.3446
  103OSM   H11S10458   5.064   1.430  10.066 -0.1708 -0.0426 -0.9206
  103OSM   H11T10459   4.892   1.394  10.095 -0.4608 -1.4685 -0.3664
  103OSM   C12S10460   4.960   1.370   9.892 -0.2675  0.1086  0.5693
  103OSM   H12S10461   4.913   1.462   9.851 -2.5638 -1.3179 -0.2114
  103OSM   H12T10462   4.873   1.302   9.887 -1.6917  1.5445  3.4162
  103OSM   C13S10463   5.082   1.334   9.803  0.4447 -0.0251 -0.0382
  103OSM   H13S10464   5.107   1.229   9.825  2.7900  0.2283 -1.1386
  103OSM   H13T10465   5.174   1.393   9.824 -0.0593  0.1695  1.7769
  103OSM   C14S10466   5.053   1.337   9.655  0.1830  0.6035  0.0333
  103OSM   H14S10467   4.949   1.298   9.656  0.3232  0.1108  2.6355
  103OSM   H14T10468   5.121   1.263   9.607  1.0780 -0.1743  2.3155
  103OSM   C15S10469   5.079   1.475   9.588  0.5721  0.3719  0.0222
  103OSM   H15S10470   5.189   1.485   9.594  0.5319  0.3956  0.7043
  103OSM   H15T10471   5.029   1.553   9.650 -0.2378  1.4552 -1.8932
  103OSM   C16S10472   5.030   1.481   9.444  0.1105 -0.5660  0.2254
  103OSM   H16S10473   5.067   1.394   9.387  0.9830 -0.8785  1.2290
  103OSM   H16T10474   5.091   1.558   9.392  2.5704 -0.6513  2.7469
  103OSM   C17S10475   4.875   1.496   9.430 -0.4912 -0.1886 -0.8225
  103OSM   H17S10476   4.832   1.406   9.480  0.0458  0.3029  0.5979
  103OSM   H17T10477   4.847   1.486   9.323 -0.2456 -0.5008 -0.8569
  103OSM   C18S10478   4.820   1.627   9.493 -0.2986 -0.1629  0.3328
  103OSM   H18S10479   4.843   1.641   9.601 -2.0992  2.4124  0.4524
  103OSM   H18T10480   4.710   1.618   9.491 -0.2731 -0.4370 -0.0222
  103OSM   H18U10481   4.843   1.719   9.435  1.2154  0.2640  1.5274
  103OSM    C1F10482   5.008   0.850  10.876 -0.5834  0.0445 -0.2497
  103OSM     OF10483   4.896   0.826  10.912 -0.4196 -0.4535 -0.4767
  103OSM    C2F10484   5.099   0.744  10.820 -0.1340  0.1115 -0.3738
  103OSM    H2F10485   5.111   0.682  10.911 -1.0558  0.8514  0.2730
  103OSM    H2G10486   5.203   0.778  10.801 -0.6096  1.0423 -1.4840
  103OSM    C3F10487   5.027   0.680  10.702 -0.0919  0.3467  0.2220
  103OSM    H3F10488   4.921   0.654  10.723 -0.0488  1.3080  1.7325
  103OSM    H3G10489   5.088   0.591  10.677 -0.8482 -0.0441 -0.2832
  103OSM    C4F10490   5.032   0.770  10.578 -0.5609 -0.1074  0.6008
  103OSM    H4F10491   5.134   0.813  10.572 -0.5704 -0.2857 -3.3125
  103OSM    H4G10492   4.962   0.855  10.588 -0.1059  0.1942  1.3270
  103OSM    C5F10493   4.980   0.707  10.447  0.1629  0.5273 -0.5361
  103OSM    H5F10494   4.875   0.682  10.473 -0.3413  0.8043 -2.1945
  103OSM    H5G10495   5.023   0.605  10.433 -0.1726  0.4184 -0.7895
  103OSM    C6F10496   4.996   0.788  10.325  0.1834 -0.3799  0.6168
  103OSM    H6F10497   5.104   0.798  10.304  0.4268 -2.3936  0.7882
  103OSM    H6G10498   4.953   0.890  10.341 -0.6766 -0.5008 -0.7054
  103OSM    C7F10499   4.914   0.727  10.209  0.0056 -0.3921 -0.1945
  103OSM    H7F10500   4.811   0.766  10.224  0.1024 -0.1767 -0.0844
  103OSM    H7G10501   4.908   0.616  10.203 -0.4708 -0.4626  1.2125
  103OSM    C8F10502   4.970   0.778  10.075  0.6569  0.4086  0.4081
  103OSM    H8F10503   5.007   0.882  10.064  0.1102  0.4563 -1.3555
  103OSM    H8G10504   4.883   0.773  10.005  0.7732 -2.3463  0.3653
  103OSM    C9F10505   5.086   0.686  10.028 -0.3861  0.5460 -0.7661
  103OSM    H9F10506   5.162   0.673  10.107  0.6936  2.4374 -1.4313
  103OSM   C10F10507   5.096   0.619   9.916  0.7442  0.0921 -0.3757
  103OSM   H10F10508   5.184   0.555   9.899  1.0206  0.2106  0.5644
  103OSM   C11F10509   5.000   0.630   9.800 -0.6390 -0.9063 -0.1619
  103OSM   H11F10510   5.058   0.648   9.707  2.1241  2.8623  2.0229
  103OSM   H11G10511   4.938   0.721   9.814  1.1439  0.2843  0.3339
  103OSM   C12F10512   4.925   0.503   9.770  0.3261 -0.1766  0.6023
  103OSM   H12F10513   4.885   0.450   9.858 -0.9681  0.4123  0.3980
  103OSM   H12G10514   5.003   0.434   9.730 -1.4818  0.0251 -3.8885
  103OSM   C13F10515   4.817   0.501   9.661 -0.6875 -0.3403  0.2415
  103OSM   H13F10516   4.776   0.398   9.654  3.6844 -2.2427 -0.6346
  103OSM   H13G10517   4.742   0.582   9.676  0.9248  0.9039  2.0737
  103OSM   C14F10518   4.878   0.527   9.521  0.7424 -0.8281 -0.0814
  103OSM   H14F10519   4.970   0.468   9.498  1.6547 -0.0212  1.3187
  103OSM   H14G10520   4.911   0.633   9.531 -0.0489 -0.7190  2.1179
  103OSM   C15F10521   4.763   0.528   9.414 -0.6575 -0.1806 -0.2076
  103OSM   H15F10522   4.686   0.603   9.442  1.3567  1.7211  0.5363
  103OSM   H15G10523   4.709   0.431   9.410 -1.3248  0.2155 -1.0673
  103OSM   C16F10524   4.812   0.560   9.270 -0.4263  0.3767 -1.0801
  103OSM   H16F10525   4.733   0.580   9.194 -0.2710  2.7157 -0.7026
  103OSM   H16G10526   4.871   0.470   9.242  0.2614 -0.2406  1.9727
  103OSM   C17F10527   4.920   0.674   9.272 -0.0462  0.0415  0.7439
  103OSM   H17F10528   5.013   0.649   9.328  2.0111  0.9516 -2.0887
  103OSM   H17G10529   4.876   0.766   9.317  0.0174  0.4981 -0.1063
  103OSM   C18F10530   4.970   0.725   9.134 -0.3150  0.1750  0.3838
  103OSM   H18F10531   5.032   0.654   9.075  2.4022  1.3300  1.6650
  103OSM   H18G10532   5.042   0.808   9.151 -0.4010  1.2346 -3.5510
  103OSM   H18H10533   4.883   0.765   9.079 -0.1490 -2.0296 -1.6332
  104OSM      N10534   4.135   5.129  11.497 -0.0915  0.4096 -0.6421
  104OSM    C1510535   4.155   5.242  11.602 -0.3298  0.4438 -0.0650
  104OSM   H15A10536   4.057   5.257  11.646 -0.6692  1.4988 -1.1142
  104OSM   H15B10537   4.176   5.333  11.548 -3.8010  0.3363 -1.8669
  104OSM   H15C10538   4.225   5.209  11.677  0.5339 -1.1199 -1.4959
  104OSM    C1410539   4.066   5.020  11.575  0.8629 -0.3000  0.2139
  104OSM   H14A10540   4.133   4.990  11.655 -1.5531 -1.3575  1.9435
  104OSM   H14B10541   4.047   4.930  11.519 -0.8843  0.5146 -0.5553
  104OSM   H14C10542   3.979   5.054  11.629  1.2524  2.3010 -0.6616
  104OSM    C1310543   4.053   5.187  11.391  0.0491  0.2286  0.3711
  104OSM   H13A10544   3.951   5.207  11.420  0.7330 -0.0781  3.2195
  104OSM   H13B10545   4.049   5.116  11.309  1.7225 -0.2362  0.6541
  104OSM   H13C10546   4.089   5.283  11.357 -1.4742  0.2007 -1.5599
  104OSM    C1210547   4.265   5.080  11.440 -1.0921  0.1518  0.2649
  104OSM   H12A10548   4.243   5.006  11.365  0.8039 -1.2715  1.0292
  104OSM   H12B10549   4.319   5.027  11.518 -0.7464 -0.7736 -0.5803
  104OSM    C1110550   4.367   5.185  11.374  0.2274 -0.1235  0.2179
  104OSM   H11A10551   4.460   5.128  11.348 -0.5398 -0.8252 -1.1247
  104OSM   H11B10552   4.399   5.259  11.451  0.7406  0.2698 -0.3603
  104OSM      P10553   4.295   5.153  11.134  0.1513 -0.2464 -0.0635
  104OSM    O1310554   4.318   5.011  11.166  0.0155  0.2683 -1.0096
  104OSM    O1410555   4.159   5.187  11.084 -0.0346  0.1907 -0.4450
  104OSM    O1110556   4.402   5.196  11.027 -0.5388 -0.1813  0.4659
  104OSM    O1210557   4.322   5.248  11.252  0.2521 -0.2733 -0.6920
  104OSM    C1S10558   4.424   5.123  10.901 -0.1975  0.6948 -0.3289
  104OSM    H1S10559   4.354   5.040  10.883  0.5153  0.1575 -0.6849
  104OSM    H1T10560   4.526   5.079  10.908 -0.3782  0.4696  1.0663
  104OSM     NF10561   4.415   5.105  10.659  0.3260  0.1719  0.6446
  104OSM    HNF10562   4.506   5.083  10.627  0.1298  1.3302 -0.7910
  104OSM    C2S10563   4.408   5.205  10.763 -0.3776  0.1428  0.0443
  104OSM    H2S10564   4.306   5.250  10.758 -0.2838  0.1796 -3.2571
  104OSM    C3S10565   4.522   5.307  10.756 -0.3963  0.5336 -0.6760
  104OSM    H3S10566   4.619   5.254  10.759  0.5056  2.1239  1.8227
  104OSM     O310567   4.517   5.388  10.879 -0.8926  0.2515 -0.1943
  104OSM    HO310568   4.446   5.348  10.928 -1.0468  0.6434 -0.1018
  104OSM    C4S10569   4.512   5.382  10.625  0.2052  0.1745 -0.7727
  104OSM    H4S10570   4.408   5.413  10.606 -0.0821  0.4974  1.1847
  104OSM    C5S10571   4.606   5.397  10.534  0.3724  0.0687 -0.5390
  104OSM    H5S10572   4.704   5.350  10.552 -0.4778 -2.5398 -2.2388
  104OSM    C6S10573   4.577   5.458  10.400 -0.0390  0.1468  0.1529
  104OSM    H6S10574   4.638   5.546  10.370  1.5318 -1.1686 -0.7060
  104OSM    H6T10575   4.471   5.490  10.391  0.0025  0.2602  0.0603
  104OSM    C7S10576   4.595   5.351  10.288 -0.8733  0.4966  0.1626
  104OSM    H7S10577   4.703   5.327  10.282 -0.8493  0.9737 -1.9580
  104OSM    H7T10578   4.566   5.399  10.192 -0.3740  0.9053  0.2102
  104OSM    C8S10579   4.502   5.230  10.308  0.3549 -0.8615  0.0059
  104OSM    H8S10580   4.407   5.253  10.362 -0.5931 -0.6222 -1.6792
  104OSM    H8T10581   4.550   5.158  10.376 -0.8930 -2.9274 -1.1858
  104OSM    C9S10582   4.464   5.165  10.174 -0.5944 -0.2368  0.2379
  104OSM    H9S10583   4.394   5.231  10.118 -0.3872  0.0660  0.3295
  104OSM    H9T10584   4.429   5.062  10.197  1.0891 -1.6928 -3.0800
  104OSM   C10S10585   4.594   5.144  10.083 -0.4121 -0.6730 -0.3530
  104OSM   H10S10586   4.660   5.075  10.140  0.0195  0.1303  0.1351
  104OSM   H10T10587   4.641   5.240  10.052 -0.1660 -0.1871  1.4343
  104OSM   C11S10588   4.558   5.084   9.946 -0.3728 -0.3845  0.7631
  104OSM   H11S10589   4.498   5.155   9.885  0.3321 -0.7660 -0.3937
  104OSM   H11T10590   4.505   4.987   9.960 -0.2575 -0.7341 -0.9949
  104OSM   C12S10591   4.681   5.052   9.867 -0.6283 -0.1875  0.1006
  104OSM   H12S10592   4.732   4.971   9.924 -0.6222  1.1191  2.0795
  104OSM   H12T10593   4.756   5.134   9.865 -1.5967  0.6861 -0.8348
  104OSM   C13S10594   4.664   5.004   9.723 -0.4183  0.1296  0.5273
  104OSM   H13S10595   4.766   4.998   9.678  0.2622  1.2345  1.8505
  104OSM   H13T10596   4.603   5.074   9.661  2.3182  0.2909 -2.2831
  104OSM   C14S10597   4.593   4.865   9.705  0.0540 -0.2575 -0.4882
  104OSM   H14S10598   4.488   4.879   9.736 -0.6487 -1.4546 -2.1703
  104OSM   H14T10599   4.648   4.789   9.764  2.2527  0.8103 -1.0177
  104OSM   C15S10600   4.576   4.827   9.558 -0.4772 -0.1136 -0.0044
  104OSM   H15S10601   4.558   4.915   9.493 -0.6822 -0.6442 -0.6753
  104OSM   H15T10602   4.488   4.759   9.563 -0.2754 -0.7086 -2.7557
  104OSM   C16S10603   4.695   4.746   9.500 -0.0178 -0.2821  0.5948
  104OSM   H16S10604   4.722   4.664   9.570 -1.1727 -1.5655 -0.4132
  104OSM   H16T10605   4.773   4.824   9.511 -1.5323  1.0865  2.1526
  104OSM   C17S10606   4.674   4.701   9.357  0.2166 -0.2155  0.4875
  104OSM   H17S10607   4.659   4.794   9.297 -0.7121 -1.8343 -1.9295
  104OSM   H17T10608   4.585   4.635   9.347  2.4128 -3.4087  0.6802
  104OSM   C18S10609   4.800   4.633   9.302  0.8466  0.0374  0.2795
  104OSM   H18S10610   4.786   4.604   9.195  1.2219 -0.1495  0.2811
  104OSM   H18T10611   4.811   4.540   9.362 -1.4793 -0.0535  0.6657
  104OSM   H18U10612   4.887   4.699   9.319  1.3214 -0.8048  1.1941
  104OSM    C1F10613   4.310   5.029  10.622  0.7163  0.8509  0.0915
  104OSM     OF10614   4.195   5.044  10.666  0.2173  0.4253  0.0982
  104OSM    C2F10615   4.334   4.922  10.519 -0.9893  0.2417  0.0291
  104OSM    H2F10616   4.421   4.859  10.546 -0.7277  1.0616  1.1484
  104OSM    H2G10617   4.358   4.976  10.424 -0.2712 -0.2113 -0.0533
  104OSM    C3F10618   4.218   4.824  10.485 -0.0425  0.4223  0.3714
  104OSM    H3F10619   4.119   4.873  10.470 -0.9343 -0.6258  2.5112
  104OSM    H3G10620   4.215   4.745  10.563 -1.0306  0.5199  0.4444
  104OSM    C4F10621   4.219   4.743  10.351  0.1374  0.0313  0.3848
  104OSM    H4F10622   4.140   4.665  10.358  0.9416 -0.7033  1.6358
  104OSM    H4G10623   4.312   4.682  10.357 -0.7872 -1.5103 -0.2338
  104OSM    C5F10624   4.190   4.819  10.219  0.2418  0.0564 -0.0050
  104OSM    H5F10625   4.275   4.887  10.196  0.3299 -0.2585 -0.6315
  104OSM    H5G10626   4.096   4.874  10.239 -0.9546 -1.4585 -1.1297
  104OSM    C6F10627   4.153   4.738  10.088 -0.1157 -0.2711 -0.3841
  104OSM    H6F10628   4.048   4.703  10.105 -0.5018  1.3495  0.8377
  104OSM    H6G10629   4.222   4.653  10.074 -0.0737 -0.1892 -0.6634
  104OSM    C7F10630   4.148   4.825   9.967 -0.3939 -0.7338 -1.2349
  104OSM    H7F10631   4.242   4.885   9.966  0.0020 -1.1921  1.5175
  104OSM    H7G10632   4.068   4.900   9.984  1.0006  0.4039  0.7705
  104OSM    C8F10633   4.158   4.751   9.833 -0.1889  0.1807 -0.0998
  104OSM    H8F10634   4.244   4.681   9.835  2.5284  3.2288 -0.4939
  104OSM    H8G10635   4.187   4.835   9.765  1.7864  0.7674  1.3770
  104OSM    C9F10636   4.030   4.677   9.792  0.0497 -0.0406 -0.1795
  104OSM    H9F10637   3.961   4.639   9.870 -1.2887  2.4172 -0.0868
  104OSM   C10F10638   3.989   4.667   9.664 -0.6890 -0.0624  0.0324
  104OSM   H10F10639   3.897   4.611   9.642  0.1640 -1.5436  0.1068
  104OSM   C11F10640   4.066   4.710   9.547  0.0649 -0.4226  0.3698
  104OSM   H11F10641   4.163   4.752   9.580  0.1819 -1.1171  0.9364
  104OSM   H11G10642   4.008   4.788   9.493  0.7184 -0.1629  0.0294
  104OSM   C12F10643   4.112   4.593   9.456  0.2470 -0.3428  0.2396
  104OSM   H12F10644   4.025   4.543   9.409 -0.2538  0.1939  0.5772
  104OSM   H12G10645   4.140   4.521   9.537 -3.0899  0.2410  2.1191
  104OSM   C13F10646   4.238   4.623   9.372  0.4788  0.0336 -0.5782
  104OSM   H13F10647   4.315   4.665   9.440  0.8550  0.1897 -1.0957
  104OSM   H13G10648   4.206   4.699   9.297 -1.4315 -0.5904 -0.4536
  104OSM   C14F10649   4.287   4.500   9.297 -0.0146 -0.7176 -0.1177
  104OSM   H14F10650   4.341   4.444   9.376  0.4000 -1.4488 -0.9120
  104OSM   H14G10651   4.354   4.541   9.218 -1.3357  0.8673 -0.4576
  104OSM   C15F10652   4.188   4.420   9.230 -0.7794  0.2913 -0.3340
  104OSM   H15F10653   4.115   4.482   9.174 -0.9791  2.6789  2.3569
  104OSM   H15G10654   4.121   4.357   9.293 -3.2627  0.6801 -2.4254
  104OSM   C16F10655   4.259   4.315   9.144 -0.1625  0.7760 -0.0790
  104OSM   H16F10656   4.316   4.262   9.224  1.5109  2.6024  0.0112
  104OSM   H16G10657   4.326   4.347   9.061  1.8075 -1.6360  0.4539
  104OSM   C17F10658   4.157   4.215   9.081 -0.0135 -0.7324 -0.0412
  104OSM   H17F10659   4.114   4.260   8.988  0.3612 -0.6038 -0.1542
  104OSM   H17G10660   4.080   4.202   9.160 -0.3682  0.8715 -0.0827
  104OSM   C18F10661   4.218   4.075   9.041  0.2320 -0.1022 -0.2948
  104OSM   H18F10662   4.142   4.001   9.010 -0.0766  0.2978 -0.4974
  104OSM   H18G10663   4.273   4.039   9.131 -2.0662  2.7573  2.5397
  104OSM   H18H10664   4.277   4.090   8.948 -1.5155  2.0172 -1.1548
  105OSM      N10665   5.315   6.303  10.910  0.1896  0.0157 -0.2589
  105OSM    C1510666   5.381   6.358  10.790 -0.0162 -0.5247  0.1516
  105OSM   H15A10667   5.394   6.282  10.714 -0.5052 -1.8067  1.2992
  105OSM   H15B10668   5.473   6.396  10.830 -0.1357 -1.3172  1.2248
  105OSM   H15C10669   5.320   6.440  10.756 -0.3651 -0.5036  0.7984
  105OSM    C1410670   5.252   6.418  10.985  0.2642 -0.2238 -0.4895
  105OSM   H14A10671   5.206   6.391  11.080 -2.0999 -0.5455 -1.6545
  105OSM   H14B10672   5.181   6.465  10.919  1.2266  2.0700  0.0433
  105OSM   H14C10673   5.321   6.496  11.010 -0.7163  1.0590 -1.6296
  105OSM    C1310674   5.197   6.221  10.866  0.5631  0.1921  0.6512
  105OSM   H13A10675   5.232   6.132  10.816  2.0498 -0.1618  2.2049
  105OSM   H13B10676   5.143   6.286  10.799  1.3754  0.3189  0.1038
  105OSM   H13C10677   5.139   6.190  10.952 -2.1752  1.3239 -0.6815
  105OSM    C1210678   5.403   6.217  10.999 -0.2575 -0.0267 -0.1606
  105OSM   H12A10679   5.343   6.194  11.086 -0.2562 -1.6826 -0.5569
  105OSM   H12B10680   5.482   6.277  11.040  0.1139  0.1750 -1.1658
  105OSM    C1110681   5.460   6.081  10.953 -0.1188  0.7121 -0.3479
  105OSM   H11A10682   5.378   6.017  10.913  1.1479  0.1013 -2.0661
  105OSM   H11B10683   5.489   6.029  11.047 -2.1460  0.4768  0.1947
  105OSM      P10684   5.698   6.168  10.904  0.1351  0.1323 -0.0886
  105OSM    O1310685   5.666   6.300  10.956  0.0322  0.4484  0.0732
  105OSM    O1410686   5.790   6.082  10.986  0.5893  0.0154  0.6329
  105OSM    O1110687   5.765   6.197  10.764 -0.3364 -0.1137 -0.0183
  105OSM    O1210688   5.563   6.098  10.855  0.1399 -0.3206  0.3018
  105OSM    C1S10689   5.684   6.265  10.664  0.1380 -0.0900 -0.1671
  105OSM    H1S10690   5.672   6.369  10.699  3.0354 -0.2213  1.5438
  105OSM    H1T10691   5.582   6.222  10.652  1.3100 -2.9464 -0.8176
  105OSM     NF10692   5.658   6.328  10.441  0.2145  0.5699 -0.7656
  105OSM    HNF10693   5.586   6.281  10.390  1.6752 -0.6094 -1.8576
  105OSM    C2S10694   5.749   6.259  10.528 -0.2642 -0.5174  0.3125
  105OSM    H2S10695   5.849   6.305  10.543  0.3320 -2.1438  1.6310
  105OSM    C3S10696   5.778   6.108  10.488  0.4954  0.0379  0.4340
  105OSM    H3S10697   5.681   6.056  10.471 -0.9624  2.8454 -0.6402
  105OSM     O310698   5.854   6.027  10.582 -0.6200 -0.4222  0.1159
  105OSM    HO310699   5.860   6.084  10.660  1.7098  0.4710 -0.6310
  105OSM    C4S10700   5.851   6.109  10.357 -0.4733 -0.1483 -0.7486
  105OSM    H4S10701   5.958   6.134  10.368 -0.2264 -1.0403 -1.0034
  105OSM    C5S10702   5.805   6.071  10.238  0.1336  0.4148  0.3063
  105OSM    H5S10703   5.701   6.036  10.243 -0.3687  1.6362 -1.0356
  105OSM    C6S10704   5.873   6.064  10.102 -0.1377 -0.4808 -0.0481
  105OSM    H6S10705   5.984   6.056  10.100 -0.1570 -0.6522 -0.6619
  105OSM    H6T10706   5.860   6.161  10.049  1.7017 -0.6611 -0.8846
  105OSM    C7S10707   5.796   5.955  10.016  0.4518 -0.7583  0.1069
  105OSM    H7S10708   5.692   5.983   9.990  1.3078  3.5762  0.5542
  105OSM    H7T10709   5.800   5.858  10.070 -2.2484 -0.6153  0.6810
  105OSM    C8S10710   5.860   5.965   9.876  0.0240  0.1050 -0.1255
  105OSM    H8S10711   5.960   5.922   9.898 -0.8060 -1.9467 -0.1506
  105OSM    H8T10712   5.878   6.072   9.852 -1.2130  0.3927  0.1938
  105OSM    C9S10713   5.788   5.892   9.761 -0.3782 -0.1947 -0.0975
  105OSM    H9S10714   5.685   5.934   9.761 -0.5216 -0.5278 -1.0057
  105OSM    H9T10715   5.792   5.784   9.789  0.9025  0.4453  2.5215
  105OSM   C10S10716   5.842   5.904   9.619  0.3424  0.2582  0.6463
  105OSM   H10S10717   5.952   5.892   9.631  0.1266 -0.5671  1.9390
  105OSM   H10T10718   5.820   6.007   9.582 -1.0786 -0.3991 -0.4259
  105OSM   C11S10719   5.787   5.793   9.524  0.8976 -0.2619  0.4716
  105OSM   H11S10720   5.679   5.782   9.546  0.5844  1.1007 -0.2364
  105OSM   H11T10721   5.839   5.697   9.546  0.2516 -0.1730  2.5875
  105OSM   C12S10722   5.817   5.825   9.381 -0.1903  0.6862  0.1168
  105OSM   H12S10723   5.927   5.840   9.380  0.1260 -1.0651  1.9956
  105OSM   H12T10724   5.765   5.919   9.354  0.0983  1.3525  1.8021
  105OSM   C13S10725   5.771   5.712   9.292 -0.5644 -0.8202  0.1354
  105OSM   H13S10726   5.666   5.682   9.314  0.2925 -2.5475  2.2119
  105OSM   H13T10727   5.839   5.624   9.298  1.4061  0.6658  0.6966
  105OSM   C14S10728   5.772   5.752   9.144  0.2034 -0.5404  0.6889
  105OSM   H14S10729   5.861   5.814   9.120 -1.0925 -0.0587 -3.8533
  105OSM   H14T10730   5.685   5.821   9.146  0.5164 -0.1298  2.8458
  105OSM   C15S10731   5.752   5.634   9.046  0.5596 -0.2564 -0.6231
  105OSM   H15S10732   5.664   5.584   9.093 -0.5409  2.0256 -0.0992
  105OSM   H15T10733   5.842   5.569   9.043  0.7871 -0.0285  0.7438
  105OSM   C16S10734   5.717   5.681   8.899 -0.0356 -0.0938  0.2061
  105OSM   H16S10735   5.809   5.714   8.848 -0.6535 -0.7468 -1.4071
  105OSM   H16T10736   5.652   5.771   8.903  0.8350  0.6488 -1.4975
  105OSM   C17S10737   5.640   5.595   8.802  0.8920 -0.0691 -0.1043
  105OSM   H17S10738   5.555   5.545   8.855  1.6495 -0.6772  0.5669
  105OSM   H17T10739   5.692   5.508   8.757 -0.4272 -0.3132 -1.2310
  105OSM   C18S10740   5.577   5.662   8.670 -0.2859 -0.5645 -0.1607
  105OSM   H18S10741   5.531   5.759   8.694  2.2195  0.3811  1.2434
  105OSM   H18T10742   5.491   5.611   8.621 -2.7331  1.0923  2.1625
  105OSM   H18U10743   5.658   5.673   8.594  0.9278  1.6243  1.3498
  105OSM    C1F10744   5.654   6.455  10.436 -0.4524 -0.3996 -0.1663
  105OSM     OF10745   5.713   6.530  10.513  0.1898  0.6627 -0.2066
  105OSM    C2F10746   5.577   6.521  10.318  0.0076  0.8185 -0.1924
  105OSM    H2F10747   5.508   6.445  10.275  1.3909 -0.0922 -0.8856
  105OSM    H2G10748   5.649   6.548  10.237  0.3240  0.1867 -0.1323
  105OSM    C3F10749   5.507   6.650  10.360 -0.2374 -0.3084  0.1074
  105OSM    H3F10750   5.576   6.731  10.391  0.1231 -0.0597 -1.2691
  105OSM    H3G10751   5.440   6.623  10.444  1.6369 -1.8385  1.1893
  105OSM    C4F10752   5.418   6.713  10.247  0.2359 -0.3069  0.6008
  105OSM    H4F10753   5.343   6.787  10.285 -0.9845 -1.9105  1.4650
  105OSM    H4G10754   5.340   6.647  10.204  1.2868  0.0814 -2.1083
  105OSM    C5F10755   5.499   6.756  10.123 -0.5203 -0.9865  0.1749
  105OSM    H5F10756   5.563   6.673  10.086  1.6863  0.3720  0.7457
  105OSM    H5G10757   5.569   6.837  10.152 -1.2525  0.1334 -1.0602
  105OSM    C6F10758   5.413   6.816  10.003  0.2720  0.7607 -0.1398
  105OSM    H6F10759   5.343   6.888  10.051 -0.0700 -0.2753  0.9600
  105OSM    H6G10760   5.342   6.738   9.969 -0.1431  0.5571  1.1140
  105OSM    C7F10761   5.500   6.883   9.897 -0.2162  0.3968  0.0616
  105OSM    H7F10762   5.602   6.839   9.885  0.4929  2.4199 -2.4313
  105OSM    H7G10763   5.528   6.983   9.938 -3.1041  1.5174 -0.4992
  105OSM    C8F10764   5.433   6.890   9.758  0.3105  0.2051  0.6884
  105OSM    H8F10765   5.508   6.948   9.700 -0.0289 -0.9059 -0.9287
  105OSM    H8G10766   5.345   6.958   9.753 -0.1501 -0.4431 -0.2982
  105OSM    C9F10767   5.403   6.760   9.697 -0.1052 -0.1092 -0.3023
  105OSM    H9F10768   5.344   6.691   9.758  0.5491 -0.7776 -0.4090
  105OSM   C10F10769   5.454   6.715   9.576  0.6653 -0.0222 -0.2404
  105OSM   H10F10770   5.425   6.610   9.564 -0.7073 -0.3533  4.2691
  105OSM   C11F10771   5.548   6.781   9.485  0.5516 -0.1800  0.3805
  105OSM   H11F10772   5.634   6.710   9.479  1.4724  0.7964  1.4359
  105OSM   H11G10773   5.583   6.872   9.538 -0.2131 -0.3900  1.2699
  105OSM   C12F10774   5.500   6.835   9.342  0.1126  0.1447 -0.4035
  105OSM   H12F10775   5.589   6.887   9.300  1.4305 -0.5616  1.3741
  105OSM   H12G10776   5.419   6.908   9.368  1.2678  1.1410  0.5603
  105OSM   C13F10777   5.465   6.716   9.243 -0.1263 -0.5582 -1.0251
  105OSM   H13F10778   5.370   6.674   9.283  0.5898  0.1175  1.5359
  105OSM   H13G10779   5.547   6.642   9.235 -0.0753 -0.5281 -0.7758
  105OSM   C14F10780   5.443   6.772   9.100 -0.3214  0.1007  0.6705
  105OSM   H14F10781   5.537   6.827   9.075 -0.0823 -0.0503  1.2053
  105OSM   H14G10782   5.363   6.847   9.083  1.5684  1.6291 -2.1993
  105OSM   C15F10783   5.412   6.674   8.995  0.2175  0.4740  0.2151
  105OSM   H15F10784   5.481   6.588   8.993 -0.3443  0.0343 -1.4789
  105OSM   H15G10785   5.419   6.712   8.891  0.8057  1.0395  0.4570
  105OSM   C16F10786   5.272   6.623   9.004  0.4104 -0.1877  0.2171
  105OSM   H16F10787   5.201   6.706   8.984 -0.3007 -0.6599  0.7050
  105OSM   H16G10788   5.247   6.600   9.110 -0.8981 -1.3337 -0.3069
  105OSM   C17F10789   5.236   6.508   8.907 -0.7219 -0.6341 -0.2321
  105OSM   H17F10790   5.309   6.425   8.896 -0.6379 -0.5764 -0.1072
  105OSM   H17G10791   5.217   6.551   8.806  2.8857  2.1306  0.0844
  105OSM   C18F10792   5.106   6.440   8.950  0.0436  0.5004 -0.4796
  105OSM   H18F10793   5.085   6.341   8.903 -1.2610  0.0986  0.8938
  105OSM   H18G10794   5.024   6.513   8.933  0.3394  0.5412 -1.8480
  105OSM   H18H10795   5.114   6.431   9.060  0.5735  1.8455 -0.3941
  106OSM      N10796   5.874   3.694  10.930  0.6315 -0.2209 -0.0100
  106OSM    C1510797   5.756   3.701  10.832  0.2176 -0.2087  0.3759
  106OSM   H15A10798   5.713   3.800  10.836 -1.6174 -0.9280 -0.6239
  106OSM   H15B10799   5.675   3.642  10.870  0.3098 -0.8002 -0.3139
  106OSM   H15C10800   5.777   3.676  10.729 -0.4624 -1.8341  0.6065
  106OSM    C1410801   5.893   3.549  10.984 -0.5320 -0.1231  0.8479
  106OSM   H14A10802   5.835   3.529  11.073  1.3014 -0.7523  1.9539
  106OSM   H14B10803   5.997   3.527  11.005  0.0550  0.0315 -1.6284
  106OSM   H14C10804   5.857   3.468  10.923 -0.9983  0.7994 -0.1413
  106OSM    C1310805   5.999   3.739  10.862 -0.4899  0.2077  0.6063
  106OSM   H13A10806   6.000   3.845  10.842  3.7000 -0.1327 -2.1525
  106OSM   H13B10807   6.015   3.685  10.770  0.0047 -0.5125  1.1046
  106OSM   H13C10808   6.094   3.720  10.909 -0.3461 -1.9835 -0.4676
  106OSM    C1210809   5.849   3.776  11.054 -0.3109 -0.4128 -1.0403
  106OSM   H12A10810   5.929   3.772  11.126 -1.4139  0.8522  0.3513
  106OSM   H12B10811   5.763   3.730  11.100 -0.1815 -0.3690 -0.7575
  106OSM    C1110812   5.817   3.923  11.031 -0.1787 -0.4942  0.3881
  106OSM   H11A10813   5.772   3.966  11.123 -0.8318 -1.0223  0.3262
  106OSM   H11B10814   5.729   3.934  10.963 -0.6104 -1.9619  0.6718
  106OSM      P10815   5.933   4.134  10.931  0.1798 -0.1392  0.0267
  106OSM    O1310816   5.875   4.238  11.019  0.0791 -0.2696  0.3197
  106OSM    O1410817   6.074   4.165  10.889 -0.5244  0.7820 -0.4398
  106OSM    O1110818   5.839   4.106  10.806 -0.0999 -0.3703 -0.2029
  106OSM    O1210819   5.937   3.994  11.006  0.4811  0.1765 -0.9125
  106OSM    C1S10820   5.772   4.214  10.736 -0.1969 -0.9040  0.5823
  106OSM    H1S10821   5.812   4.314  10.765 -4.4120  1.2816 -0.3273
  106OSM    H1T10822   5.663   4.216  10.758 -0.0685 -0.5110  1.2134
  106OSM     NF10823   5.710   4.325  10.513  0.2299  0.3837  0.1956
  106OSM    HNF10824   5.613   4.320  10.492  0.4263  0.6162 -0.8421
  106OSM    C2S10825   5.780   4.207  10.577  0.4370  0.5116  0.1397
  106OSM    H2S10826   5.886   4.222  10.546 -0.0852  0.5337 -1.8119
  106OSM    C3S10827   5.739   4.063  10.519  0.1984 -0.8268  0.0620
  106OSM    H3S10828   5.631   4.067  10.543  0.3270  1.1458  0.4837
  106OSM     O310829   5.790   3.954  10.590 -0.0082  0.2948  0.0873
  106OSM    HO310830   5.815   3.994  10.673  0.3868 -0.6254  0.4253
  106OSM    C4S10831   5.767   4.058  10.371 -0.1715  0.7857  0.0345
  106OSM    H4S10832   5.711   4.132  10.312  1.2564 -0.5957 -3.3292
  106OSM    C5S10833   5.854   3.987  10.302  0.7978  0.0664 -0.6900
  106OSM    H5S10834   5.905   3.911  10.363 -1.2075 -0.2105  0.7208
  106OSM    C6S10835   5.869   3.982  10.156 -0.5965  0.4932  0.4397
  106OSM    H6S10836   5.842   3.885  10.109 -0.5113  1.2895 -1.3420
  106OSM    H6T10837   5.977   3.995  10.130 -0.5663 -2.0570 -1.0058
  106OSM    C7S10838   5.802   4.091  10.063 -0.1852  0.5220  0.2312
  106OSM    H7S10839   5.854   4.188  10.080 -0.0567  0.0896  2.7872
  106OSM    H7T10840   5.696   4.098  10.094  0.0768 -1.9142  2.0248
  106OSM    C8S10841   5.823   4.058   9.912  0.0999  0.2041  0.1133
  106OSM    H8S10842   5.747   3.985   9.877 -1.2468  2.1579 -1.2355
  106OSM    H8T10843   5.917   4.003   9.890 -0.3121 -0.8749  0.9760
  106OSM    C9S10844   5.812   4.178   9.817 -0.3485  0.1985 -0.0635
  106OSM    H9S10845   5.899   4.243   9.841 -1.4165  1.2036  1.2795
  106OSM    H9T10846   5.720   4.235   9.841 -0.5458 -0.0800 -0.1663
  106OSM   C10S10847   5.812   4.148   9.665  0.1218 -0.0381  0.0861
  106OSM   H10S10848   5.808   4.248   9.617 -2.3089  0.0752  0.4341
  106OSM   H10T10849   5.719   4.092   9.641  0.3128 -2.4695  4.0497
  106OSM   C11S10850   5.948   4.080   9.616  0.0238 -0.1219 -0.4392
  106OSM   H11S10851   5.978   3.991   9.675  0.1867  0.2659  0.0635
  106OSM   H11T10852   6.030   4.154   9.631  0.7993 -0.0898 -3.8487
  106OSM   C12S10853   5.937   4.046   9.471  0.2794  0.3425 -0.7105
  106OSM   H12S10854   5.835   4.006   9.450  0.8287 -1.6725  0.1922
  106OSM   H12T10855   6.000   3.957   9.454 -0.2212 -0.4255  1.2211
  106OSM   C13S10856   5.982   4.156   9.376 -0.1002  0.9395 -0.7614
  106OSM   H13S10857   6.083   4.174   9.419 -1.0368  0.9710  1.5761
  106OSM   H13T10858   5.928   4.252   9.391  1.9854  1.8795  1.3335
  106OSM   C14S10859   5.982   4.115   9.228 -0.0378  0.3796  0.4136
  106OSM   H14S10860   5.877   4.096   9.196  0.7582 -1.8743 -1.1627
  106OSM   H14T10861   6.033   4.016   9.225 -0.1966  0.3050  0.1575
  106OSM   C15S10862   6.066   4.208   9.141  0.6696 -0.3519  0.1514
  106OSM   H15S10863   6.149   4.245   9.205  0.2877 -3.0607  2.4701
  106OSM   H15T10864   6.005   4.297   9.116  0.7226 -0.8860 -2.0778
  106OSM   C16S10865   6.123   4.142   9.020  0.4620  0.6345 -0.1295
  106OSM   H16S10866   6.030   4.111   8.967 -0.0245  0.4899  0.7820
  106OSM   H16T10867   6.177   4.049   9.048  1.1142  0.9983 -0.1615
  106OSM   C17S10868   6.212   4.220   8.919 -0.0611 -0.0026 -0.6922
  106OSM   H17S10869   6.245   4.138   8.852 -0.9052 -0.6978 -0.2780
  106OSM   H17T10870   6.309   4.242   8.969  0.9652 -1.6530 -1.8770
  106OSM   C18S10871   6.144   4.334   8.842 -0.5905  0.4304 -0.8400
  106OSM   H18S10872   6.092   4.303   8.749  0.0949 -0.8048 -0.8277
  106OSM   H18T10873   6.222   4.408   8.814  1.1078  0.1651  2.6635
  106OSM   H18U10874   6.078   4.380   8.919 -1.2934 -1.9613  0.0763
  106OSM    C1F10875   5.768   4.445  10.514  0.8160  0.5310 -0.2231
  106OSM     OF10876   5.862   4.472  10.582 -0.1294 -0.2137 -0.0198
  106OSM    C2F10877   5.701   4.555  10.431  0.3045  0.2720 -0.7027
  106OSM    H2F10878   5.652   4.626  10.501 -0.8723 -0.2874 -0.9458
  106OSM    H2G10879   5.628   4.515  10.357 -1.3387 -1.3781  1.6507
  106OSM    C3F10880   5.805   4.641  10.360  0.0367 -0.3460  0.8874
  106OSM    H3F10881   5.865   4.694  10.437 -0.6795 -0.7960  1.7769
  106OSM    H3G10882   5.739   4.709  10.302 -1.3265 -1.8573  0.5791
  106OSM    C4F10883   5.890   4.562  10.253 -0.2678  0.0025 -0.0368
  106OSM    H4F10884   5.824   4.478  10.222 -0.2642 -0.9334  2.2862
  106OSM    H4G10885   5.973   4.510  10.305 -0.9854 -0.9366  0.1990
  106OSM    C5F10886   5.945   4.651  10.144 -0.2184  0.3285  0.4961
  106OSM    H5F10887   6.030   4.701  10.195  0.6065  0.4269 -0.9465
  106OSM    H5G10888   5.873   4.733  10.124 -0.3159  0.3539  0.9274
  106OSM    C6F10889   6.001   4.579  10.023  0.2061 -0.3184  0.0809
  106OSM    H6F10890   5.917   4.532   9.967  0.3689  0.3962 -0.8019
  106OSM    H6G10891   6.072   4.503  10.062 -0.5405  0.3835  2.9723
  106OSM    C7F10892   6.068   4.668   9.916  0.1283  0.1233  0.2081
  106OSM    H7F10893   6.134   4.741   9.967  0.3424 -0.6506  1.0538
  106OSM    H7G10894   5.982   4.721   9.870 -1.1650 -0.8796  1.3806
  106OSM    C8F10895   6.144   4.593   9.805  0.2775  0.7302 -0.9449
  106OSM    H8F10896   6.238   4.557   9.854 -0.7739 -0.1086  0.5486
  106OSM    H8G10897   6.182   4.675   9.740  0.8193  0.6459 -0.7395
  106OSM    C9F10898   6.085   4.481   9.724  0.7686 -0.5390  0.0888
  106OSM    H9F10899   6.054   4.393   9.781  1.5584 -0.0979  1.2354
  106OSM   C10F10900   6.076   4.474   9.591  0.0173 -0.5614  0.2159
  106OSM   H10F10901   6.030   4.389   9.539 -1.1070 -0.3195  0.7827
  106OSM   C11F10902   6.110   4.571   9.485  1.0276  0.2391  0.2918
  106OSM   H11F10903   6.124   4.672   9.528  0.5303 -0.4799  2.2084
  106OSM   H11G10904   6.023   4.571   9.416  1.2799  0.0649 -0.0332
  106OSM   C12F10905   6.225   4.507   9.396  0.2924  0.8175  0.2155
  106OSM   H12F10906   6.202   4.406   9.357 -2.2145  1.5185 -0.2701
  106OSM   H12G10907   6.310   4.498   9.467 -0.7346  0.6006  1.4402
  106OSM   C13F10908   6.266   4.595   9.281 -0.5443  0.0605 -0.7298
  106OSM   H13F10909   6.357   4.540   9.250  1.1136  0.2055  3.2709
  106OSM   H13G10910   6.289   4.699   9.315 -3.1815  0.1308  1.1390
  106OSM   C14F10911   6.155   4.607   9.179 -0.4697 -0.5076  0.3327
  106OSM   H14F10912   6.055   4.636   9.219 -1.4319 -2.8967 -0.1649
  106OSM   H14G10913   6.141   4.500   9.154 -0.9743 -0.5279  0.6818
  106OSM   C15F10914   6.201   4.705   9.070  0.0190  0.9513 -0.3588
  106OSM   H15F10915   6.293   4.672   9.018 -0.8879 -0.4070 -1.1708
  106OSM   H15G10916   6.235   4.797   9.122  1.8291 -0.0676  0.3475
  106OSM   C16F10917   6.098   4.719   8.963 -0.1439  0.5778  0.6927
  106OSM   H16F10918   6.001   4.744   9.010 -1.6160  0.0182 -1.8359
  106OSM   H16G10919   6.068   4.618   8.926  3.4400  0.1190 -1.5779
  106OSM   C17F10920   6.143   4.807   8.841  0.2456  0.0497  0.3827
  106OSM   H17F10921   6.068   4.789   8.761  0.3019 -1.0709  0.5561
  106OSM   H17G10922   6.235   4.759   8.801  0.0505 -0.3186  0.3726
  106OSM   C18F10923   6.142   4.959   8.885  0.3953  0.7960 -0.2974
  106OSM   H18F10924   6.142   5.024   8.796  1.6233  2.5195  0.8899
  106OSM   H18G10925   6.225   4.981   8.956 -0.5044  1.2333  0.6519
  106OSM   H18H10926   6.051   4.969   8.949  1.5656 -0.2441  1.6352
  107OSM      N10927   1.108   4.029  10.984  0.0245 -0.1103 -0.0497
  107OSM    C1510928   1.008   4.027  11.096  0.3337 -0.2651 -0.2908
  107OSM   H15A10929   0.903   4.032  11.069  0.9336  0.9702 -2.7013
  107OSM   H15B10930   1.013   4.115  11.158 -0.0478  1.4273 -2.5082
  107OSM   H15C10931   1.029   3.936  11.151 -2.9349 -1.0599 -0.1116
  107OSM    C1410932   1.234   4.059  11.056  0.8790  0.7494  0.0171
  107OSM   H14A10933   1.214   4.153  11.104 -1.7781  0.3832 -0.2585
  107OSM   H14B10934   1.313   4.075  10.984  0.3265  0.1162 -0.7455
  107OSM   H14C10935   1.257   3.985  11.132 -0.8627  2.0368  1.9112
  107OSM    C1310936   1.111   3.889  10.920  0.1931 -0.4007 -0.4595
  107OSM   H13A10937   1.153   3.909  10.823  1.3957  0.5812  0.2364
  107OSM   H13B10938   1.015   3.840  10.927  0.2627 -0.7488 -1.6609
  107OSM   H13C10939   1.184   3.821  10.962 -1.6370 -0.8985  2.1540
  107OSM    C1210940   1.067   4.141  10.889  0.4044  0.1891 -0.8059
  107OSM   H12A10941   1.061   4.240  10.932 -0.7728  1.0164 -2.7518
  107OSM   H12B10942   0.970   4.112  10.852  0.2181 -3.2644  1.7963
  107OSM    C1110943   1.168   4.160  10.771  0.3558  0.2006 -0.1994
  107OSM   H11A10944   1.112   4.217  10.694 -0.7166 -1.6636 -0.8740
  107OSM   H11B10945   1.199   4.062  10.727 -0.9908  0.4054 -1.7307
  107OSM      P10946   1.291   4.380  10.831  0.2885  0.4324 -0.3446
  107OSM    O1310947   1.190   4.410  10.938 -0.0461  0.1862  0.2739
  107OSM    O1410948   1.433   4.416  10.859 -0.4494  0.8923  0.4354
  107OSM    O1110949   1.234   4.456  10.706  0.0116 -0.6669 -0.2027
  107OSM    O1210950   1.289   4.226  10.807  0.1225 -0.1123  0.0321
  107OSM    C1S10951   1.285   4.423  10.580 -0.2188 -0.0836 -0.0729
  107OSM    H1S10952   1.326   4.320  10.571 -0.8014 -0.1580 -2.8325
  107OSM    H1T10953   1.358   4.505  10.558 -1.6887  1.0755 -0.7649
  107OSM     NF10954   1.248   4.384  10.338  0.3460 -0.7034  0.3392
  107OSM    HNF10955   1.277   4.454  10.273  1.1363 -2.7920 -1.6693
  107OSM    C2S10956   1.185   4.427  10.465  0.3006 -0.7339 -0.0747
  107OSM    H2S10957   1.107   4.353  10.493  0.2940 -1.2655 -1.4331
  107OSM    C3S10958   1.113   4.569  10.478  0.0788  0.0659  0.0038
  107OSM    H3S10959   1.187   4.651  10.475  0.5154 -0.3462 -0.7132
  107OSM     O310960   1.043   4.591  10.610  0.0219 -0.2010  0.6526
  107OSM    HO310961   1.095   4.525  10.658  1.0966 -1.3860 -1.9521
  107OSM    C4S10962   1.017   4.588  10.359  0.7352 -0.0853  0.3224
  107OSM    H4S10963   1.071   4.631  10.274  1.7509  3.6282  2.6017
  107OSM    C5S10964   0.884   4.553  10.357  0.3038  0.0889 -0.9601
  107OSM    H5S10965   0.837   4.526  10.452 -1.2781  2.6449 -0.8972
  107OSM    C6S10966   0.790   4.563  10.239  0.5155  0.5461  0.0114
  107OSM    H6S10967   0.726   4.653  10.248  0.8533  0.7293  0.6303
  107OSM    H6T10968   0.726   4.472  10.230  0.4831  0.5825 -0.1289
  107OSM    C7S10969   0.861   4.558  10.097  0.0642  0.4884 -0.5610
  107OSM    H7S10970   0.895   4.456  10.070 -0.9415 -0.0115 -0.0046
  107OSM    H7T10971   0.942   4.635  10.102  1.4930 -1.0020  0.6377
  107OSM    C8S10972   0.770   4.587   9.977  0.6719  0.0689 -0.6322
  107OSM    H8S10973   0.716   4.678  10.011  1.4872  0.7731 -1.1784
  107OSM    H8T10974   0.699   4.502   9.980 -0.0863  0.7067  0.0979
  107OSM    C9S10975   0.841   4.592   9.839  0.1553  0.6569  0.2451
  107OSM    H9S10976   0.887   4.493   9.819  0.9990  0.9119  0.8418
  107OSM    H9T10977   0.930   4.660   9.838 -0.2981  1.2881 -1.4183
  107OSM   C10S10978   0.750   4.632   9.719  0.1046  0.2017 -0.5219
  107OSM   H10S10979   0.682   4.718   9.737 -1.5506 -1.0474 -0.6080
  107OSM   H10T10980   0.681   4.547   9.703  0.4686 -0.2093  0.0638
  107OSM   C11S10981   0.827   4.655   9.594 -0.1773  0.1508 -0.2417
  107OSM   H11S10982   0.884   4.570   9.552  0.9151  0.3664  0.7470
  107OSM   H11T10983   0.909   4.728   9.616  1.0410 -0.4591 -2.5025
  107OSM   C12S10984   0.728   4.720   9.488  0.7727 -0.2343 -0.5648
  107OSM   H12S10985   0.625   4.741   9.524  0.5122  0.8990 -1.8935
  107OSM   H12T10986   0.704   4.638   9.416 -0.3743  1.1287 -1.7950
  107OSM   C13S10987   0.787   4.833   9.404 -0.0272 -0.0538  0.8304
  107OSM   H13S10988   0.887   4.799   9.369  0.0131  0.0992  0.7958
  107OSM   H13T10989   0.802   4.933   9.451 -3.0021  2.4396 -2.9025
  107OSM   C14S10990   0.699   4.872   9.279  0.5959  0.6526 -0.6232
  107OSM   H14S10991   0.735   4.971   9.245  0.7472  0.1561 -1.9810
  107OSM   H14T10992   0.589   4.874   9.298  0.7236 -1.1378  0.5322
  107OSM   C15S10993   0.712   4.779   9.152 -0.3257  0.1523 -0.2600
  107OSM   H15S10994   0.624   4.801   9.088 -1.4782 -1.7442  0.5717
  107OSM   H15T10995   0.712   4.671   9.177  1.3682  0.1526 -0.1885
  107OSM   C16S10996   0.836   4.803   9.073 -0.1211  0.6186  0.3974
  107OSM   H16S10997   0.925   4.751   9.115  0.5571  0.1031 -1.5650
  107OSM   H16T10998   0.874   4.907   9.075  2.6325 -0.2827 -0.2768
  107OSM   C17S10999   0.804   4.761   8.929  0.1464 -0.6392  0.4189
  107OSM   H17S11000   0.744   4.840   8.878 -1.8212 -1.0161  1.9986
  107OSM   H17T11001   0.745   4.667   8.927 -1.3232  0.2453 -0.7543
  107OSM   C18S11002   0.929   4.726   8.847  0.2441 -0.2913  1.2340
  107OSM   H18S11003   0.958   4.825   8.807 -2.9922  0.3474  0.2114
  107OSM   H18T11004   0.903   4.643   8.778 -0.0433  0.5534  0.3034
  107OSM   H18U11005   1.011   4.690   8.914  0.5423 -0.0562  0.9981
  107OSM    C1F11006   1.267   4.257  10.323 -0.1087  0.0108  0.4379
  107OSM     OF11007   1.217   4.174  10.397  0.5908  0.3168  0.7242
  107OSM    C2F11008   1.361   4.219  10.217  0.0083 -0.1196  0.3001
  107OSM    H2F11009   1.454   4.183  10.266 -0.0394 -1.5936 -0.6190
  107OSM    H2G11010   1.385   4.304  10.149  0.6569  0.6498  1.4318
  107OSM    C3F11011   1.295   4.106  10.140 -0.5072  0.1252  0.5476
  107OSM    H3F11012   1.194   4.141  10.109 -2.1216 -1.9346  3.0368
  107OSM    H3G11013   1.279   4.016  10.203  0.2177 -0.1977  0.2851
  107OSM    C4F11014   1.382   4.045  10.023 -0.1552 -0.4648  0.2843
  107OSM    H4F11015   1.320   3.962   9.985 -1.2268  0.0946  0.7498
  107OSM    H4G11016   1.477   3.997  10.054  0.2291  1.4524  2.4295
  107OSM    C5F11017   1.406   4.132   9.901  0.3734  0.2466 -0.4005
  107OSM    H5F11018   1.465   4.219   9.938 -0.6815 -0.1076  2.3478
  107OSM    H5G11019   1.311   4.174   9.861 -0.0200  0.7096  0.9516
  107OSM    C6F11020   1.465   4.065   9.781 -0.6521  0.1048  0.8485
  107OSM    H6F11021   1.406   3.972   9.762  1.4394 -1.0055 -0.5490
  107OSM    H6G11022   1.568   4.031   9.803 -1.2908 -1.5059  1.5289
  107OSM    C7F11023   1.460   4.168   9.666 -0.9441  0.2927 -0.1179
  107OSM    H7F11024   1.485   4.267   9.709  0.4618  0.5186 -1.3575
  107OSM    H7G11025   1.357   4.164   9.624 -0.7878 -0.7101 -0.4497
  107OSM    C8F11026   1.549   4.129   9.546  0.0972 -0.2362  0.1985
  107OSM    H8F11027   1.530   4.029   9.502  1.5929 -0.7066  0.5807
  107OSM    H8G11028   1.650   4.117   9.589 -0.5194 -2.1185  1.2459
  107OSM    C9F11029   1.549   4.246   9.447 -0.1704  0.5750 -0.3886
  107OSM    H9F11030   1.604   4.334   9.482 -0.0031 -0.7820  3.1555
  107OSM   C10F11031   1.467   4.240   9.341  0.3597  0.6047 -0.8656
  107OSM   H10F11032   1.475   4.320   9.266  1.9736  0.3733 -0.9854
  107OSM   C11F11033   1.373   4.124   9.308 -0.3641  0.4808  0.2351
  107OSM   H11F11034   1.274   4.156   9.270 -0.1219  0.9310 -0.0138
  107OSM   H11G11035   1.350   4.075   9.406 -0.1021  0.2970  0.2063
  107OSM   C12F11036   1.438   4.025   9.217 -0.1115 -0.0205 -0.2108
  107OSM   H12F11037   1.356   3.953   9.196 -1.1302  0.4762  1.7986
  107OSM   H12G11038   1.522   3.972   9.268  0.4543  1.3527  0.3083
  107OSM   C13F11039   1.476   4.081   9.080  0.0524 -0.0998 -1.2487
  107OSM   H13F11040   1.565   4.146   9.093 -0.8358  1.1103 -1.0066
  107OSM   H13G11041   1.398   4.151   9.042 -0.5489  0.7546  1.3036
  107OSM   C14F11042   1.508   3.964   8.988 -0.3092  0.3716  0.2538
  107OSM   H14F11043   1.419   3.898   8.998  0.0994  0.0136  1.8480
  107OSM   H14G11044   1.590   3.897   9.020  0.1479 -0.1077 -1.7939
  107OSM   C15F11045   1.515   4.014   8.846  0.1766 -0.2860 -0.3514
  107OSM   H15F11046   1.616   4.051   8.819 -0.1564  1.8970  1.1399
  107OSM   H15G11047   1.442   4.097   8.832 -1.9097 -1.9758 -0.0553
  107OSM   C16F11048   1.470   3.915   8.734 -0.0616  0.2961 -0.6746
  107OSM   H16F11049   1.389   3.860   8.786 -0.1431  2.9196  2.2624
  107OSM   H16G11050   1.544   3.838   8.702 -0.5503 -0.3214 -0.3406
  107OSM   C17F11051   1.427   3.959   8.588 -0.0403  0.3030  0.3071
  107OSM   H17F11052   1.359   4.046   8.595 -0.1538  0.0920  2.7320
  107OSM   H17G11053   1.383   3.871   8.537  1.8270 -1.4578  1.5591
  107OSM   C18F11054   1.538   4.012   8.510 -0.5075 -0.0311 -0.0562
  107OSM   H18F11055   1.632   3.953   8.508 -0.8515 -0.5838 -0.1031
  107OSM   H18G11056   1.579   4.107   8.549  0.6513  0.0409 -1.3529
  107OSM   H18H11057   1.498   4.037   8.409  1.7798  1.2137 -0.7246
  108OSM      N11058   2.468   5.456  10.838 -0.4226  0.5393  0.1965
  108OSM    C1511059   2.366   5.397  10.926 -0.2758  0.8524 -0.6136
  108OSM   H15A11060   2.410   5.384  11.024 -0.6099 -3.0143 -0.8445
  108OSM   H15B11061   2.340   5.296  10.898  1.3991  0.5584 -1.2378
  108OSM   H15C11062   2.277   5.458  10.937 -1.6446 -1.0601 -0.7478
  108OSM    C1411063   2.425   5.464  10.694  0.1525 -0.1025  0.1282
  108OSM   H14A11064   2.498   5.512  10.631  0.0712 -0.9174 -0.6068
  108OSM   H14B11065   2.328   5.510  10.688  0.0631 -0.4123 -1.0204
  108OSM   H14C11066   2.407   5.367  10.650  0.8189 -0.3310  0.3392
  108OSM    C1311067   2.493   5.588  10.888 -0.2497 -0.0164 -0.4429
  108OSM   H13A11068   2.405   5.650  10.901 -0.3472 -0.5731  2.0593
  108OSM   H13B11069   2.558   5.636  10.817 -2.5057  3.4255 -0.4345
  108OSM   H13C11070   2.550   5.575  10.978 -0.3558  0.3180 -0.3261
  108OSM    C1211071   2.598   5.376  10.837  0.6988 -0.1445 -0.0966
  108OSM   H12A11072   2.659   5.395  10.751 -0.1398  1.2802 -0.4136
  108OSM   H12B11073   2.566   5.273  10.824 -1.7659  0.7933 -2.1261
  108OSM    C1111074   2.680   5.374  10.970  0.0206 -0.3879  0.1043
  108OSM   H11A11075   2.759   5.296  10.964 -0.3295 -0.6606 -1.2771
  108OSM   H11B11076   2.630   5.341  11.064 -0.7919  0.0184 -0.1852
  108OSM      P11077   2.892   5.542  11.012  0.1953  0.0713 -0.0334
  108OSM    O1311078   2.897   5.630  11.131  0.1971  0.0469  0.1979
  108OSM    O1411079   2.983   5.425  11.021  0.6840 -0.2545 -0.4060
  108OSM    O1111080   2.929   5.630  10.883  0.4236 -0.2881 -0.5626
  108OSM    O1211081   2.743   5.500  10.987 -0.0034 -0.1275  0.3101
  108OSM    C1S11082   2.964   5.560  10.768 -0.6463  0.5861 -0.5543
  108OSM    H1S11083   2.876   5.510  10.721 -1.5738  2.4237 -0.8569
  108OSM    H1T11084   3.030   5.472  10.785 -3.1322 -1.8260 -2.3893
  108OSM     NF11085   3.082   5.575  10.541  0.2937  0.5871 -0.1978
  108OSM    HNF11086   3.169   5.529  10.531 -0.4039 -0.9013  0.1817
  108OSM    C2S11087   3.046   5.647  10.667  0.5341 -0.4742 -0.2663
  108OSM    H2S11088   2.973   5.726  10.639  0.1346 -1.3780 -1.8960
  108OSM    C3S11089   3.172   5.705  10.727  0.0453 -0.7491 -0.8229
  108OSM    H3S11090   3.232   5.613  10.742 -0.0196 -0.6270  0.2551
  108OSM     O311091   3.151   5.776  10.852 -0.6690  1.1115  0.2117
  108OSM    HO311092   3.065   5.751  10.887 -0.0368 -1.7625 -0.0188
  108OSM    C4S11093   3.235   5.801  10.632  0.7126  0.2731  0.0028
  108OSM    H4S11094   3.173   5.888  10.606 -0.2191  0.0985  1.5369
  108OSM    C5S11095   3.363   5.800  10.593 -0.6225 -0.0227  0.9526
  108OSM    H5S11096   3.433   5.729  10.639  0.4774 -0.3372 -1.0884
  108OSM    C6S11097   3.428   5.890  10.491 -0.0138 -0.1979  0.0098
  108OSM    H6S11098   3.472   5.826  10.411  1.5883  0.7922  0.0687
  108OSM    H6T11099   3.514   5.939  10.541 -1.3562  0.7717  1.4724
  108OSM    C7S11100   3.349   5.996  10.415 -0.4019 -0.2479 -0.1660
  108OSM    H7S11101   3.305   6.081  10.472 -2.9600  0.1322 -2.4589
  108OSM    H7T11102   3.263   5.943  10.369 -2.3287  0.4176  2.4001
  108OSM    C8S11103   3.428   6.058  10.298 -0.4916 -1.0300  0.2562
  108OSM    H8S11104   3.466   5.984  10.225  0.0520 -1.5568  1.0676
  108OSM    H8T11105   3.517   6.114  10.335 -2.3090  2.8044 -0.6092
  108OSM    C9S11106   3.349   6.170  10.227 -0.0881  0.5358  0.0123
  108OSM    H9S11107   3.352   6.260  10.292  2.7487 -0.0533  0.8376
  108OSM    H9T11108   3.245   6.130  10.227  0.7182 -1.7132 -0.2176
  108OSM   C10S11109   3.386   6.220  10.089  0.7753 -0.1984  0.1644
  108OSM   H10S11110   3.495   6.227  10.074  0.9428  0.3994  1.5611
  108OSM   H10T11111   3.338   6.320  10.077 -1.0043 -0.9767  0.4026
  108OSM   C11S11112   3.325   6.125   9.981 -0.8818 -0.4228  0.8322
  108OSM   H11S11113   3.224   6.088  10.011 -1.4219  1.9895  2.2480
  108OSM   H11T11114   3.399   6.044   9.965 -0.8393 -0.6311  1.9688
  108OSM   C12S11115   3.312   6.195   9.838  0.0693  0.1804  0.4704
  108OSM   H12S11116   3.407   6.242   9.805 -1.5085  2.5517 -0.9355
  108OSM   H12T11117   3.242   6.278   9.858  0.8097  2.1122 -3.9102
  108OSM   C13S11118   3.246   6.102   9.730 -0.2289 -0.5842 -0.2696
  108OSM   H13S11119   3.147   6.066   9.766 -0.0258 -2.2351 -1.2691
  108OSM   H13T11120   3.312   6.014   9.717  0.0158 -0.6055  0.9813
  108OSM   C14S11121   3.214   6.173   9.602 -0.2627  0.3792 -0.9056
  108OSM   H14S11122   3.132   6.247   9.612  0.5258  0.9493  2.2662
  108OSM   H14T11123   3.169   6.096   9.535  0.6264 -0.1951 -0.8618
  108OSM   C15S11124   3.332   6.235   9.536 -0.3390 -0.3625  0.2804
  108OSM   H15S11125   3.414   6.161   9.529  2.8320  2.9618 -0.5097
  108OSM   H15T11126   3.363   6.323   9.595  0.9079 -0.0292 -0.8247
  108OSM   C16S11127   3.303   6.288   9.393 -0.0982  1.1138  0.4696
  108OSM   H16S11128   3.387   6.347   9.350  0.5585 -1.2860 -1.7467
  108OSM   H16T11129   3.210   6.349   9.390  1.4875  3.6415 -1.4065
  108OSM   C17S11130   3.293   6.156   9.304  0.7520 -0.7854  0.4443
  108OSM   H17S11131   3.242   6.072   9.356 -1.0522  0.9627  1.6692
  108OSM   H17T11132   3.394   6.128   9.270 -0.0667 -1.8458 -1.2453
  108OSM   C18S11133   3.214   6.176   9.169 -0.6085 -0.2541 -0.2673
  108OSM   H18S11134   3.106   6.197   9.185 -1.3532 -1.2589 -3.3304
  108OSM   H18T11135   3.211   6.077   9.118  0.6000  1.2155 -3.4395
  108OSM   H18U11136   3.259   6.249   9.099 -1.9456  2.2059  1.2928
  108OSM    C1F11137   2.992   5.531  10.456 -0.3566  0.1533  0.0819
  108OSM     OF11138   2.880   5.573  10.466  0.3485  0.8357 -0.2372
  108OSM    C2F11139   3.032   5.432  10.355 -0.0322 -0.7167  0.3046
  108OSM    H2F11140   2.957   5.351  10.345 -1.2661  0.3440  0.7308
  108OSM    H2G11141   3.128   5.381  10.379  1.0782  1.7379  1.4409
  108OSM    C3F11142   3.055   5.509  10.218  0.2887  0.2678 -0.4901
  108OSM    H3F11143   2.958   5.551  10.183  0.0149 -1.5929 -2.1315
  108OSM    H3G11144   3.082   5.432  10.143  1.2374 -0.2491  0.3457
  108OSM    C4F11145   3.168   5.615  10.216  0.0264  0.6369 -0.3927
  108OSM    H4F11146   3.266   5.566  10.233 -0.6106 -0.8198 -0.7437
  108OSM    H4G11147   3.145   5.678  10.305 -0.9551 -2.0372  1.3524
  108OSM    C5F11148   3.171   5.706  10.092  0.0198  0.3897  0.0480
  108OSM    H5F11149   3.215   5.804  10.122 -0.9123  0.3152  1.7099
  108OSM    H5G11150   3.066   5.735  10.074 -0.3604  0.2260  1.8308
  108OSM    C6F11151   3.239   5.644   9.974 -0.5141 -0.5715  0.5826
  108OSM    H6F11152   3.180   5.552   9.953 -1.6033  0.7627 -2.9736
  108OSM    H6G11153   3.346   5.624   9.995  0.4524  1.1924 -2.0881
  108OSM    C7F11154   3.227   5.732   9.846  0.3948  0.4035  0.3511
  108OSM    H7F11155   3.284   5.826   9.861  0.4620  0.1877  1.5468
  108OSM    H7G11156   3.121   5.765   9.840  0.5098  0.6375 -0.7315
  108OSM    C8F11157   3.256   5.651   9.720 -0.2477 -0.5267  0.0432
  108OSM    H8F11158   3.208   5.551   9.719  2.5139 -2.1828 -4.8934
  108OSM    H8G11159   3.364   5.632   9.706 -0.2417  0.7624 -2.1956
  108OSM    C9F11160   3.204   5.734   9.597 -0.0888  0.5229 -0.4306
  108OSM    H9F11161   3.100   5.768   9.594 -0.0513  0.5742 -1.6016
  108OSM   C10F11162   3.277   5.782   9.494  0.3791  0.1049 -0.3761
  108OSM   H10F11163   3.217   5.830   9.415 -1.9977 -3.3754 -0.9615
  108OSM   C11F11164   3.418   5.767   9.470  0.3455 -0.4407  0.4103
  108OSM   H11F11165   3.478   5.730   9.556  0.5664 -0.9862  0.0303
  108OSM   H11G11166   3.469   5.863   9.447 -0.1122 -0.8408 -2.6907
  108OSM   C12F11167   3.438   5.669   9.352  0.3577 -0.3024 -0.2444
  108OSM   H12F11168   3.411   5.567   9.386  4.0122 -1.2639  0.2472
  108OSM   H12G11169   3.549   5.670   9.338  0.2980  0.4787 -0.7239
  108OSM   C13F11170   3.375   5.713   9.216  0.3500  0.0811  0.1129
  108OSM   H13F11171   3.264   5.717   9.216  0.1460 -2.7175 -2.2358
  108OSM   H13G11172   3.408   5.641   9.139  2.1907  1.4681 -0.4597
  108OSM   C14F11173   3.428   5.850   9.158 -0.6377  0.1556  0.0584
  108OSM   H14F11174   3.538   5.837   9.163 -0.3412  2.4138  0.5111
  108OSM   H14G11175   3.415   5.939   9.224  1.5357  1.0774 -0.6804
  108OSM   C15F11176   3.392   5.866   9.009 -0.3900 -0.3525 -0.3958
  108OSM   H15F11177   3.283   5.880   8.993 -0.2339  4.6123  1.0453
  108OSM   H15G11178   3.422   5.768   8.968 -0.2113 -1.7903  2.8605
  108OSM   C16F11179   3.477   5.977   8.949 -0.6850 -0.1477  0.2795
  108OSM   H16F11180   3.580   5.938   8.934  0.2516  2.2006  0.1432
  108OSM   H16G11181   3.491   6.062   9.020  0.1184  1.5488 -1.8058
  108OSM   C17F11182   3.429   6.024   8.808  0.5283 -0.1607  0.2370
  108OSM   H17F11183   3.415   5.934   8.745  2.1597 -0.3017  0.0515
  108OSM   H17G11184   3.510   6.095   8.784 -0.1155  0.9171  1.1118
  108OSM   C18F11185   3.298   6.109   8.821 -0.0250  0.5523 -0.4769
  108OSM   H18F11186   3.224   6.048   8.878  2.7332 -1.3891  1.2761
  108OSM   H18G11187   3.254   6.115   8.719 -2.6542 -0.6001  0.4865
  108OSM   H18H11188   3.315   6.207   8.870 -0.6302 -0.1564  1.2593
  109OSM      N11189   3.453   5.132  11.065 -0.1082  0.3087  0.0789
  109OSM    C1511190   3.319   5.063  11.096  0.7264  0.4151 -0.3241
  109OSM   H15A11191   3.310   4.966  11.047  0.7249 -0.9393  2.2074
  109OSM   H15B11192   3.232   5.117  11.061  0.6443 -0.3352 -1.3558
  109OSM   H15C11193   3.307   5.043  11.201  0.1828 -0.0529 -0.4686
  109OSM    C1411194   3.464   5.254  11.151  0.3070 -0.4378  0.8080
  109OSM   H14A11195   3.549   5.316  11.125  0.0039  0.2433  1.4060
  109OSM   H14B11196   3.476   5.230  11.256 -1.2288  2.0513  1.6426
  109OSM   H14C11197   3.369   5.305  11.146  1.0393  0.8804 -0.9261
  109OSM    C1311198   3.562   5.041  11.107  0.3599 -0.3421  0.1979
  109OSM   H13A11199   3.656   5.091  11.088  2.1343 -1.9858  3.7038
  109OSM   H13B11200   3.558   4.946  11.055 -2.6087 -0.3489  0.2745
  109OSM   H13C11201   3.552   5.022  11.212 -0.7101 -1.6951 -0.1113
  109OSM    C1211202   3.465   5.162  10.913 -0.1118  0.8791 -0.2850
  109OSM   H12A11203   3.378   5.220  10.884 -2.5041 -1.2260  2.0687
  109OSM   H12B11204   3.443   5.070  10.862 -2.1198  1.1443  0.0222
  109OSM    C1111205   3.593   5.228  10.870  0.0631 -0.0777 -0.0323
  109OSM   H11A11206   3.610   5.211  10.762 -0.2571  0.2539 -0.1373
  109OSM   H11B11207   3.682   5.181  10.917  0.0173  0.5545  0.7053
  109OSM      P11208   3.505   5.471  10.841  0.1852 -0.0662 -0.2370
  109OSM    O1311209   3.375   5.430  10.888  0.2623 -0.1085 -1.0810
  109OSM    O1411210   3.547   5.611  10.879  0.6579 -0.4803  0.7846
  109OSM    O1111211   3.513   5.445  10.689 -0.3015  0.0788  0.4233
  109OSM    O1211212   3.605   5.369  10.901 -0.5124 -0.5804  0.3089
  109OSM    C1S11213   3.626   5.487  10.612 -0.3276 -0.0438 -0.1742
  109OSM    H1S11214   3.723   5.458  10.659 -0.3872  0.0806  0.0249
  109OSM    H1T11215   3.624   5.597  10.602 -1.1363 -0.2077 -2.4914
  109OSM     NF11216   3.756   5.467  10.403  0.1680 -0.6269 -0.7492
  109OSM    HNF11217   3.750   5.529  10.325 -0.5860 -1.5863 -1.4761
  109OSM    C2S11218   3.626   5.430  10.465 -0.1858  0.5085 -0.6505
  109OSM    H2S11219   3.614   5.320  10.471  0.4149  0.4753  0.0729
  109OSM    C3S11220   3.506   5.492  10.398  0.2801  0.0495  0.2379
  109OSM    H3S11221   3.516   5.602  10.388 -1.9742  0.3129  0.5164
  109OSM     O311222   3.378   5.471  10.472  0.1162 -0.0477 -0.2306
  109OSM    HO311223   3.414   5.450  10.559  0.6466  1.1518 -0.1394
  109OSM    C4S11224   3.492   5.426  10.266  0.0181  0.3083  0.7146
  109OSM    H4S11225   3.534   5.484  10.182  1.2073 -4.5237 -2.4126
  109OSM    C5S11226   3.429   5.311  10.245  0.1322 -0.5654  0.2689
  109OSM    H5S11227   3.379   5.259  10.328 -0.3731  0.2533  0.4877
  109OSM    C6S11228   3.419   5.240  10.115  0.0234  0.0703  0.0215
  109OSM    H6S11229   3.313   5.224  10.085  0.3580  0.3142 -1.3613
  109OSM    H6T11230   3.477   5.145  10.124 -0.2281 -0.2725 -1.5879
  109OSM    C7S11231   3.484   5.309   9.988 -0.3984 -0.3841 -0.6514
  109OSM    H7S11232   3.591   5.306  10.020 -0.4548 -2.2347 -0.4925
  109OSM    H7T11233   3.454   5.415   9.976 -0.0433 -0.1736  0.2301
  109OSM    C8S11234   3.467   5.235   9.855 -0.2489  0.1883 -0.4132
  109OSM    H8S11235   3.367   5.229   9.807 -0.0631 -1.8434 -0.6364
  109OSM    H8T11236   3.498   5.128   9.860 -3.3421 -0.7623 -0.0080
  109OSM    C9S11237   3.557   5.295   9.743  0.0199  1.2092  0.0888
  109OSM    H9S11238   3.665   5.293   9.769  0.2248 -0.6537 -0.7587
  109OSM    H9T11239   3.519   5.399   9.731 -0.4857  0.8760 -1.4019
  109OSM   C10S11240   3.545   5.232   9.600 -0.5051  0.2932  0.3160
  109OSM   H10S11241   3.442   5.239   9.559 -1.2394 -0.2902  2.0108
  109OSM   H10T11242   3.566   5.124   9.591  0.1362  0.4524 -0.2183
  109OSM   C11S11243   3.622   5.313   9.497  0.1047  0.4709 -1.0770
  109OSM   H11S11244   3.730   5.292   9.513 -0.6439 -2.2034  1.4396
  109OSM   H11T11245   3.610   5.422   9.512  3.4495  1.0082 -1.6713
  109OSM   C12S11246   3.603   5.260   9.353  0.0007 -0.0748  0.1921
  109OSM   H12S11247   3.493   5.255   9.341 -0.0938 -0.3934  1.1205
  109OSM   H12T11248   3.645   5.160   9.331 -2.2484 -1.8402  3.1221
  109OSM   C13S11249   3.663   5.336   9.234  0.2388 -0.3824 -0.7013
  109OSM   H13S11250   3.624   5.440   9.233 -0.0913 -0.5090 -1.2241
  109OSM   H13T11251   3.614   5.294   9.144 -2.6390 -0.9051  0.9626
  109OSM   C14S11252   3.812   5.337   9.216  0.1112 -0.2054  0.0479
  109OSM   H14S11253   3.839   5.231   9.236 -1.3775 -0.4466  0.9121
  109OSM   H14T11254   3.850   5.407   9.294 -2.8700  1.6430  0.0184
  109OSM   C15S11255   3.851   5.389   9.075  0.0761 -0.4459 -0.2033
  109OSM   H15S11256   3.795   5.348   8.988  1.5539  0.4712 -1.6275
  109OSM   H15T11257   3.960   5.379   9.060  0.2681  1.2752 -0.0969
  109OSM   C16S11258   3.828   5.537   9.084 -0.0446  0.4266  0.4263
  109OSM   H16S11259   3.848   5.581   9.184 -1.8366 -2.1794  2.0520
  109OSM   H16T11260   3.718   5.535   9.073 -0.1392  0.1525  1.3218
  109OSM   C17S11261   3.893   5.618   8.972  0.1750 -0.3753 -0.2826
  109OSM   H17S11262   4.004   5.614   8.978  0.1087 -0.5423  1.9896
  109OSM   H17T11263   3.858   5.724   8.976  0.5721 -0.1802 -1.7006
  109OSM   C18S11264   3.847   5.566   8.836 -0.2896  0.7204  0.8867
  109OSM   H18S11265   3.736   5.561   8.823 -0.0345 -0.5981 -1.2821
  109OSM   H18T11266   3.895   5.471   8.807 -1.2186  0.3133  0.6327
  109OSM   H18U11267   3.878   5.635   8.755 -2.0096 -2.1936 -2.4920
  109OSM    C1F11268   3.866   5.403  10.434  0.5151 -0.7089  0.3307
  109OSM     OF11269   3.857   5.312  10.506  0.3178  0.0536  0.1876
  109OSM    C2F11270   3.987   5.445  10.365 -0.0679  0.2073  0.5056
  109OSM    H2F11271   4.033   5.538  10.404  0.5200 -0.0184  0.3665
  109OSM    H2G11272   3.973   5.453  10.255  0.8744 -1.5122  0.2320
  109OSM    C3F11273   4.084   5.326  10.364  0.4773 -0.7603 -0.1816
  109OSM    H3F11274   4.121   5.318  10.469 -0.4107  3.6883  0.6818
  109OSM    H3G11275   4.169   5.345  10.295  1.5264  0.3223  1.3499
  109OSM    C4F11276   4.036   5.192  10.311  0.0029  0.8317 -0.0226
  109OSM    H4F11277   3.973   5.143  10.388  1.5299  0.6627  1.1611
  109OSM    H4G11278   4.118   5.118  10.298 -1.6608 -0.8376 -1.5096
  109OSM    C5F11279   3.959   5.193  10.171  0.1480 -0.0144  0.2235
  109OSM    H5F11280   3.886   5.277  10.171 -0.5460 -0.5420 -2.5903
  109OSM    H5G11281   3.905   5.098  10.149 -2.1384  1.5655 -1.5625
  109OSM    C6F11282   4.058   5.220  10.055 -0.8284  0.5463 -0.2525
  109OSM    H6F11283   4.121   5.131  10.033  2.3602  2.5260  0.0860
  109OSM    H6G11284   4.130   5.302  10.078  0.8015 -1.0292  0.5616
  109OSM    C7F11285   3.979   5.260   9.936 -0.7844 -0.8702  0.8448
  109OSM    H7F11286   3.924   5.354   9.957 -0.4073 -0.9645  2.3777
  109OSM    H7G11287   3.901   5.183   9.915 -1.0953  0.1099 -1.9625
  109OSM    C8F11288   4.070   5.269   9.812  0.1968 -0.1434  0.7627
  109OSM    H8F11289   4.107   5.164   9.805 -0.2138 -0.2356 -0.3793
  109OSM    H8G11290   4.157   5.336   9.827 -0.2271  0.3869  0.8837
  109OSM    C9F11291   3.995   5.312   9.688 -0.0433 -0.4525  0.1054
  109OSM    H9F11292   3.886   5.310   9.697  0.0523  0.7175  2.0094
  109OSM   C10F11293   4.055   5.322   9.567 -0.7240  0.3012 -0.2572
  109OSM   H10F11294   3.993   5.343   9.478 -1.2225  0.7491  0.1956
  109OSM   C11F11295   4.204   5.309   9.545  0.2338  0.6926 -0.0487
  109OSM   H11F11296   4.257   5.292   9.641 -1.5675 -0.3366  0.8251
  109OSM   H11G11297   4.249   5.402   9.503  2.9731 -0.0731  0.9504
  109OSM   C12F11298   4.234   5.178   9.455 -0.1336 -0.6033 -0.4744
  109OSM   H12F11299   4.213   5.083   9.508  2.3157 -0.5895  0.6715
  109OSM   H12G11300   4.345   5.178   9.460 -0.1577 -1.9468  0.6400
  109OSM   C13F11301   4.184   5.185   9.307 -0.0823  0.3191 -0.3047
  109OSM   H13F11302   4.217   5.282   9.264 -1.4055  0.5324 -0.9112
  109OSM   H13G11303   4.073   5.184   9.302 -0.0484  1.5624 -2.2728
  109OSM   C14F11304   4.240   5.071   9.224 -0.3285  0.7735 -1.2129
  109OSM   H14F11305   4.192   5.074   9.123  1.0828  0.2429 -1.9229
  109OSM   H14G11306   4.206   4.981   9.279  0.7791  1.2189  0.2412
  109OSM   C15F11307   4.392   5.053   9.199  0.4066 -0.2023 -0.4187
  109OSM   H15F11308   4.423   5.000   9.292 -2.8403 -3.0825 -0.7843
  109OSM   H15G11309   4.434   5.155   9.186 -1.7081  0.8074  0.2941
  109OSM   C16F11310   4.425   4.972   9.076 -0.3850  0.0435 -0.3258
  109OSM   H16F11311   4.524   5.004   9.038 -0.1969 -0.3950 -0.2104
  109OSM   H16G11312   4.366   5.019   8.994  0.5081  1.3152 -0.2664
  109OSM   C17F11313   4.407   4.824   9.101  0.5357 -0.2157  0.1603
  109OSM   H17F11314   4.301   4.802   9.127  0.9983 -1.2178  1.2596
  109OSM   H17G11315   4.465   4.786   9.187  3.1750  0.5627 -1.1661
  109OSM   C18F11316   4.446   4.741   8.980  0.2902  0.1234  0.0942
  109OSM   H18F11317   4.462   4.635   9.009  1.1188 -0.1440 -1.2528
  109OSM   H18G11318   4.543   4.781   8.945 -0.1515  2.2315  1.1232
  109OSM   H18H11319   4.376   4.735   8.893  3.5583 -2.8363 -2.6297
  110OSM      N11320   3.967   5.433  10.921  0.4183 -0.2924  0.2429
  110OSM    C1511321   3.918   5.314  10.842 -0.0909 -0.8748  0.4722
  110OSM   H15A11322   3.957   5.224  10.888 -1.5344 -1.4498  0.6313
  110OSM   H15B11323   3.937   5.316  10.736  0.3563 -0.5899  0.5556
  110OSM   H15C11324   3.813   5.309  10.866 -0.1066 -1.0578  0.3717
  110OSM    C1411325   3.880   5.549  10.877 -0.1523 -0.8364  0.3951
  110OSM   H14A11326   3.909   5.564  10.774 -3.0869 -0.9319 -0.5286
  110OSM   H14B11327   3.892   5.641  10.933  1.3962 -0.4024 -0.6102
  110OSM   H14C11328   3.775   5.524  10.888 -0.6756  1.2723  0.7253
  110OSM    C1311329   3.936   5.421  11.068 -0.0428 -0.3569 -0.2612
  110OSM   H13A11330   3.964   5.517  11.110  1.0897 -0.2519 -1.1965
  110OSM   H13B11331   3.997   5.342  11.108  2.4664  0.9676 -1.1975
  110OSM   H13C11332   3.836   5.388  11.090  0.5440 -2.1230 -0.1276
  110OSM    C1211333   4.113   5.467  10.892  0.0277  0.3311  0.2070
  110OSM   H12A11334   4.164   5.380  10.929 -0.9371 -0.5576 -0.4922
  110OSM   H12B11335   4.131   5.556  10.951 -0.4364  1.2766 -1.0206
  110OSM    C1111336   4.166   5.510  10.749 -0.2378  0.4625 -0.3793
  110OSM   H11A11337   4.132   5.432  10.678  0.4181 -2.4413  2.2964
  110OSM   H11B11338   4.275   5.508  10.772 -0.5306  0.0139  1.0664
  110OSM      P11339   4.174   5.775  10.764 -0.0211  0.0268 -0.0551
  110OSM    O1311340   4.125   5.885  10.682 -0.5192  0.0068  0.8916
  110OSM    O1411341   4.151   5.786  10.907 -0.2140 -0.0409  0.2073
  110OSM    O1111342   4.331   5.756  10.746  0.5439 -0.1488 -0.1256
  110OSM    O1211343   4.117   5.637  10.708 -0.0850 -0.4631 -0.2219
  110OSM    C1S11344   4.377   5.712  10.611 -0.9308 -0.1558  0.0687
  110OSM    H1S11345   4.325   5.629  10.559 -0.9993  0.8492 -1.5355
  110OSM    H1T11346   4.470   5.657  10.634 -0.0805  1.0795 -0.3229
  110OSM     NF11347   4.430   5.791  10.372  0.7207  0.3377 -0.0693
  110OSM    HNF11348   4.518   5.813  10.329  1.0832 -0.0704  0.4400
  110OSM    C2S11349   4.411   5.833  10.508  0.1224  0.1021 -0.5173
  110OSM    H2S11350   4.325   5.902  10.522 -0.8079 -1.4976  2.5693
  110OSM    C3S11351   4.532   5.917  10.555 -0.0021  0.6217 -0.3829
  110OSM    H3S11352   4.624   5.857  10.538 -0.4572  0.3901 -2.3020
  110OSM     O311353   4.531   5.956  10.694  0.5302 -0.2126  0.1951
  110OSM    HO311354   4.454   5.912  10.732 -0.0975  1.9422  1.5730
  110OSM    C4S11355   4.527   6.046  10.476  0.1926  0.3774 -0.1199
  110OSM    H4S11356   4.463   6.118  10.528  0.9814 -0.4919  2.1686
  110OSM    C5S11357   4.598   6.075  10.362  0.4631 -0.2869  0.0916
  110OSM    H5S11358   4.651   5.991  10.315 -1.8267 -1.2044 -1.0132
  110OSM    C6S11359   4.593   6.209  10.290 -0.5663 -0.1850 -0.5877
  110OSM    H6S11360   4.691   6.261  10.289  0.5534 -2.1574 -1.8839
  110OSM    H6T11361   4.524   6.273  10.348 -0.1984 -1.2080  1.0261
  110OSM    C7S11362   4.532   6.190  10.154  0.1813 -0.2160  0.7158
  110OSM    H7S11363   4.435   6.137  10.161 -0.0579 -0.0266 -0.8032
  110OSM    H7T11364   4.593   6.130  10.083 -0.5156  0.5534 -0.5836
  110OSM    C8S11365   4.516   6.323  10.072 -0.0381  0.4607 -0.6868
  110OSM    H8S11366   4.433   6.376  10.125 -1.7879 -1.3125 -1.5286
  110OSM    H8T11367   4.465   6.297   9.977 -0.2425 -2.6120  0.1693
  110OSM    C9S11368   4.645   6.413  10.059  0.2657  0.3906 -0.3496
  110OSM    H9S11369   4.684   6.455  10.154  1.1012 -1.6138  0.2435
  110OSM    H9T11370   4.613   6.499   9.997 -0.6766 -0.3795 -0.9683
  110OSM   C10S11371   4.747   6.336   9.983  0.3174 -0.2163 -0.0596
  110OSM   H10S11372   4.775   6.238  10.026  0.0904 -1.0234 -1.6723
  110OSM   H10T11373   4.841   6.396   9.989  1.7551 -2.4478  0.8146
  110OSM   C11S11374   4.718   6.313   9.833 -0.4145  0.6094 -0.5615
  110OSM   H11S11375   4.665   6.400   9.789  1.2703  0.3450 -3.3597
  110OSM   H11T11376   4.646   6.228   9.827 -1.0997  1.1473 -0.0723
  110OSM   C12S11377   4.848   6.296   9.741 -0.4415  0.4963 -0.4961
  110OSM   H12S11378   4.915   6.211   9.766 -0.4314  0.3983 -0.8579
  110OSM   H12T11379   4.908   6.388   9.760 -0.2440  0.3235 -0.2755
  110OSM   C13S11380   4.808   6.300   9.591  0.5119  0.0073 -0.1600
  110OSM   H13S11381   4.774   6.401   9.558  2.3471  0.3819 -1.0492
  110OSM   H13T11382   4.731   6.221   9.579 -2.0479  2.0012  1.8250
  110OSM   C14S11383   4.921   6.259   9.497 -0.0834  0.0984  0.4012
  110OSM   H14S11384   4.887   6.266   9.391 -4.2805  1.7190  1.6745
  110OSM   H14T11385   4.941   6.153   9.524 -2.1975 -0.0578  1.5057
  110OSM   C15S11386   5.053   6.336   9.524  0.2337  0.7627  0.5325
  110OSM   H15S11387   5.104   6.294   9.613 -2.3149 -1.9793  0.8749
  110OSM   H15T11388   5.032   6.441   9.553  0.8151  0.7468  1.0230
  110OSM   C16S11389   5.144   6.349   9.396  0.1802  0.1810 -0.1130
  110OSM   H16S11390   5.142   6.455   9.362  0.4931  0.4515  0.6852
  110OSM   H16T11391   5.096   6.302   9.307 -0.5426  1.5157 -0.4553
  110OSM   C17S11392   5.289   6.306   9.418  0.2421  0.2615 -0.0877
  110OSM   H17S11393   5.280   6.197   9.431  2.1160 -0.2543 -2.4257
  110OSM   H17T11394   5.322   6.362   9.509 -0.5233 -0.4219  0.6249
  110OSM   C18S11395   5.373   6.325   9.291  0.1798 -0.2831  0.5856
  110OSM   H18S11396   5.343   6.266   9.202  0.2962 -1.5605  1.3673
  110OSM   H18T11397   5.478   6.298   9.318  0.3483  0.7740  1.0386
  110OSM   H18U11398   5.377   6.431   9.259  1.5690 -0.2223  0.8664
  110OSM    C1F11399   4.334   5.725  10.303 -0.0376  0.0720 -0.8156
  110OSM     OF11400   4.217   5.712  10.340 -0.0833  0.4840  0.5429
  110OSM    C2F11401   4.373   5.684  10.166  0.5123  0.0394  0.4198
  110OSM    H2F11402   4.460   5.616  10.182 -0.3552 -0.5274  3.5957
  110OSM    H2G11403   4.399   5.769  10.099  1.4105 -0.6955 -0.1971
  110OSM    C3F11404   4.265   5.599  10.086 -0.3731  0.2630  0.0654
  110OSM    H3F11405   4.166   5.649  10.088 -0.4396  0.1166  0.5960
  110OSM    H3G11406   4.268   5.496  10.129  2.2727 -0.0032 -0.5588
  110OSM    C4F11407   4.304   5.573   9.936 -0.1416  0.0313 -1.4066
  110OSM    H4F11408   4.342   5.666   9.889  0.0220  1.2319  0.9475
  110OSM    H4G11409   4.213   5.530   9.888 -0.9920  0.2630 -0.0639
  110OSM    C5F11410   4.424   5.477   9.915 -0.3777 -0.2483  0.7214
  110OSM    H5F11411   4.397   5.370   9.912  1.9646 -0.9145  1.5090
  110OSM    H5G11412   4.499   5.489   9.995  0.5676 -1.2443  0.0157
  110OSM    C6F11413   4.503   5.497   9.770 -0.2337 -0.8574 -0.4440
  110OSM    H6F11414   4.547   5.599   9.772 -1.0727 -0.4713 -0.9949
  110OSM    H6G11415   4.434   5.492   9.684 -2.0794 -1.0092  0.9790
  110OSM    C7F11416   4.623   5.405   9.761  0.0701  0.2819  0.2402
  110OSM    H7F11417   4.587   5.300   9.771  1.4678 -0.0359  2.5323
  110OSM    H7G11418   4.693   5.412   9.847  0.5315 -0.3928 -0.0626
  110OSM    C8F11419   4.711   5.396   9.635 -0.1850  0.3402  0.6911
  110OSM    H8F11420   4.803   5.335   9.647  0.0384  0.5656  0.1385
  110OSM    H8G11421   4.750   5.499   9.617 -0.2543  0.1396 -0.7104
  110OSM    C9F11422   4.639   5.323   9.528  0.4227  0.2011 -0.2456
  110OSM    H9F11423   4.653   5.214   9.525 -0.7381 -0.1448  3.1478
  110OSM   C10F11424   4.578   5.384   9.430 -0.4618  0.6442  0.4537
  110OSM   H10F11425   4.535   5.321   9.350 -0.4391  0.3810  0.6486
  110OSM   C11F11426   4.575   5.529   9.402  0.0816 -0.4018 -0.3713
  110OSM   H11F11427   4.647   5.562   9.324  2.1591  0.8205  1.9024
  110OSM   H11G11428   4.612   5.583   9.491  0.8828 -2.9459  0.9345
  110OSM   C12F11429   4.439   5.587   9.352  0.6706  0.0976  0.0701
  110OSM   H12F11430   4.436   5.698   9.356 -2.5695  0.0785  2.4283
  110OSM   H12G11431   4.370   5.557   9.433 -1.2353 -2.0446 -2.1714
  110OSM   C13F11432   4.394   5.544   9.213 -0.4150 -0.0355 -0.3871
  110OSM   H13F11433   4.358   5.439   9.227 -1.3843  0.5407  2.0074
  110OSM   H13G11434   4.474   5.538   9.137 -0.0842 -1.5729  0.0351
  110OSM   C14F11435   4.276   5.620   9.145 -0.5655 -0.8088  0.1653
  110OSM   H14F11436   4.185   5.620   9.207 -0.5969  1.9326  0.2502
  110OSM   H14G11437   4.248   5.572   9.049 -0.2890 -1.7358  0.5285
  110OSM   C15F11438   4.299   5.772   9.127  0.1035  0.1026  0.3642
  110OSM   H15F11439   4.397   5.792   9.078  0.7827 -1.9169  0.8008
  110OSM   H15G11440   4.298   5.829   9.222 -0.2417  0.8713 -0.0936
  110OSM   C16F11441   4.192   5.848   9.035  0.0142 -0.2856 -0.6389
  110OSM   H16F11442   4.087   5.829   9.064  0.0935  0.0318 -0.1300
  110OSM   H16G11443   4.200   5.810   8.931  2.8683 -2.1215  0.1161
  110OSM   C17F11444   4.225   6.003   9.039 -0.1122 -0.1832  0.0268
  110OSM   H17F11445   4.335   6.016   9.031 -0.0805 -0.4432  0.0088
  110OSM   H17G11446   4.197   6.044   9.138 -1.1235 -3.5109  1.2538
  110OSM   C18F11447   4.154   6.068   8.923  0.1784 -0.1764  0.0861
  110OSM   H18F11448   4.187   6.173   8.908 -0.7716  0.2872  1.1217
  110OSM   H18G11449   4.048   6.071   8.955  0.1919 -1.2221  0.2937
  110OSM   H18H11450   4.173   6.012   8.828 -1.0109 -0.3614 -0.0516
  111OSM      N11451   6.689   3.271  10.813  0.5753  0.5679  0.6523
  111OSM    C1511452   6.734   3.412  10.822 -0.7396  0.2853 -0.4594
  111OSM   H15A11453   6.723   3.459  10.725  1.6111  1.5773 -0.1542
  111OSM   H15B11454   6.838   3.427  10.847 -0.0658 -0.6816 -2.4576
  111OSM   H15C11455   6.678   3.476  10.888  1.8790  0.0418  2.2254
  111OSM    C1411456   6.789   3.186  10.755  0.2792  0.2405  0.4535
  111OSM   H14A11457   6.807   3.214  10.652 -1.6464 -1.2381 -0.3289
  111OSM   H14B11458   6.761   3.082  10.758  0.8096  0.0001 -1.4243
  111OSM   H14C11459   6.881   3.202  10.810  0.4675  0.9233 -0.0427
  111OSM    C1311460   6.662   3.223  10.952  0.0153 -0.2175 -0.0826
  111OSM   H13A11461   6.620   3.124  10.965  2.0895 -1.1601 -0.1002
  111OSM   H13B11462   6.592   3.294  10.993 -0.2862 -0.2207 -0.5914
  111OSM   H13C11463   6.748   3.230  11.017 -1.9065  1.8687  2.4232
  111OSM    C1211464   6.562   3.266  10.721  0.7037  0.1722 -0.8404
  111OSM   H12A11465   6.558   3.166  10.682  0.5878  0.3558 -1.3061
  111OSM   H12B11466   6.569   3.336  10.639  1.7419 -0.8707 -1.6633
  111OSM    C1111467   6.425   3.300  10.791 -0.1598  0.7245  0.7831
  111OSM   H11A11468   6.408   3.227  10.873  3.5707  0.9803  2.0058
  111OSM   H11B11469   6.345   3.273  10.720  0.6208 -2.9502  1.0771
  111OSM      P11470   6.279   3.514  10.831  0.2413  0.1640 -0.0824
  111OSM    O1311471   6.184   3.456  10.732  0.2661 -0.5752  0.7360
  111OSM    O1411472   6.228   3.542  10.969 -0.4507 -0.9705 -0.1931
  111OSM    O1111473   6.325   3.655  10.771 -0.3798 -0.2381 -0.4944
  111OSM    O1211474   6.421   3.439  10.824  0.0036 -0.2957  0.0114
  111OSM    C1S11475   6.425   3.671  10.665 -0.4482  0.9581  0.6430
  111OSM    H1S11476   6.510   3.600  10.673  1.0557  2.5224 -0.5982
  111OSM    H1T11477   6.464   3.775  10.664  0.0479  0.7806  1.1761
  111OSM     NF11478   6.498   3.641  10.428  0.0619 -0.1495 -0.0153
  111OSM    HNF11479   6.507   3.728  10.379 -0.0235  1.2672  2.3261
  111OSM    C2S11480   6.385   3.626  10.517 -0.4798  0.0139 -0.3592
  111OSM    H2S11481   6.355   3.519  10.518  0.7791 -0.4745  4.2663
  111OSM    C3S11482   6.265   3.720  10.477 -0.4535  0.1168 -0.4375
  111OSM    H3S11483   6.295   3.827  10.476 -2.6743  0.7979  0.1249
  111OSM     O311484   6.147   3.721  10.558 -0.3073  0.1570 -0.5115
  111OSM    HO311485   6.167   3.648  10.617  2.8798 -0.0513 -1.6466
  111OSM    C4S11486   6.223   3.679  10.335 -0.3010 -0.0634  0.1988
  111OSM    H4S11487   6.286   3.736  10.266  2.2241 -0.7582  1.7988
  111OSM    C5S11488   6.126   3.584  10.299 -0.0998  0.1212  0.0690
  111OSM    H5S11489   6.066   3.538  10.378 -0.3399 -0.7798 -0.6178
  111OSM    C6S11490   6.098   3.539  10.155 -0.3065  0.0301 -0.0897
  111OSM    H6S11491   5.993   3.503  10.153 -0.7298  0.9958  1.7769
  111OSM    H6T11492   6.161   3.448  10.145  1.6818  1.3707 -0.4340
  111OSM    C7S11493   6.136   3.649  10.056  0.0819  0.2263  0.6588
  111OSM    H7S11494   6.247   3.648  10.057  0.1780 -3.0557  0.2021
  111OSM    H7T11495   6.090   3.746  10.083 -0.0976 -0.3355  2.5758
  111OSM    C8S11496   6.081   3.605   9.922  0.4422  0.0197  0.2353
  111OSM    H8S11497   5.971   3.619   9.923  0.5497  1.0474 -0.1776
  111OSM    H8T11498   6.113   3.500   9.902  1.4031  0.3844 -0.2505
  111OSM    C9S11499   6.130   3.691   9.808 -0.1170 -0.6701  1.0476
  111OSM    H9S11500   6.235   3.726   9.815  0.3856 -1.8438 -0.1383
  111OSM    H9T11501   6.063   3.780   9.802 -0.0713 -0.6909 -0.1985
  111OSM   C10S11502   6.125   3.604   9.672 -0.7698 -0.2509  0.0607
  111OSM   H10S11503   6.023   3.561   9.669 -0.7151 -0.6144  2.0488
  111OSM   H10T11504   6.202   3.524   9.668  0.9722  1.3578 -0.1837
  111OSM   C11S11505   6.141   3.691   9.542 -0.0675 -0.3730 -0.3909
  111OSM   H11S11506   6.246   3.726   9.531  0.1314 -0.9221 -0.2741
  111OSM   H11T11507   6.073   3.776   9.559  1.1832  0.5145  0.3835
  111OSM   C12S11508   6.099   3.627   9.404 -0.5101  0.9586  0.5124
  111OSM   H12S11509   5.989   3.618   9.396 -0.1767 -2.4724 -3.4346
  111OSM   H12T11510   6.156   3.533   9.385  0.8118  1.8046  0.1520
  111OSM   C13S11511   6.124   3.721   9.287  0.3168 -0.6290  0.0079
  111OSM   H13S11512   6.228   3.758   9.293  0.0933  0.2864 -1.2117
  111OSM   H13T11513   6.055   3.806   9.305  1.9629  0.1509  3.3197
  111OSM   C14S11514   6.114   3.652   9.152 -0.2465 -0.4860 -0.4080
  111OSM   H14S11515   6.131   3.543   9.170 -0.5244 -0.4587  0.0321
  111OSM   H14T11516   6.193   3.695   9.088 -0.2945 -0.8733 -0.7318
  111OSM   C15S11517   5.985   3.681   9.089 -0.3599 -0.3478  0.5084
  111OSM   H15S11518   5.970   3.791   9.092 -0.0829 -0.2853 -0.2845
  111OSM   H15T11519   5.906   3.635   9.153 -2.9091 -1.6999 -3.2291
  111OSM   C16S11520   5.967   3.628   8.948 -0.0948 -0.1491  0.5308
  111OSM   H16S11521   6.051   3.654   8.881  0.6344 -1.0794  1.0469
  111OSM   H16T11522   5.880   3.680   8.904 -0.7747 -1.2905  0.4794
  111OSM   C17S11523   5.950   3.468   8.938  0.4013  0.4590  0.5585
  111OSM   H17S11524   5.873   3.428   9.009 -1.5305  0.3807 -1.4762
  111OSM   H17T11525   6.044   3.420   8.973  0.4294 -0.6248 -0.8840
  111OSM   C18S11526   5.916   3.414   8.792 -0.2193 -0.1467  0.0928
  111OSM   H18S11527   5.945   3.307   8.784  2.4254  0.4900  0.0906
  111OSM   H18T11528   5.988   3.460   8.721  3.3886 -0.1974  3.3629
  111OSM   H18U11529   5.810   3.434   8.767  0.3937 -0.3652 -3.0717
  111OSM    C1F11530   6.597   3.561  10.435  0.4461  0.1962  0.0756
  111OSM     OF11531   6.589   3.454  10.489  0.0932 -0.2677 -0.9784
  111OSM    C2F11532   6.730   3.608  10.382  0.4393 -0.3749  0.5552
  111OSM    H2F11533   6.802   3.589  10.465  0.9064  0.4040  0.3396
  111OSM    H2G11534   6.716   3.714  10.352  0.6378 -0.2974  0.7343
  111OSM    C3F11535   6.774   3.545  10.250  0.4268 -0.3674  0.2444
  111OSM    H3F11536   6.818   3.447  10.277  0.5952 -0.5872 -0.7926
  111OSM    H3G11537   6.856   3.617  10.227 -1.9799  2.4454 -0.2897
  111OSM    C4F11538   6.669   3.522  10.136  0.2179  0.0778 -1.1180
  111OSM    H4F11539   6.582   3.474  10.184 -0.7034  1.0834 -1.7267
  111OSM    H4G11540   6.699   3.444  10.063  1.4762 -2.8829  2.3212
  111OSM    C5F11541   6.631   3.648  10.057  0.3117  0.6132 -0.3979
  111OSM    H5F11542   6.717   3.715  10.034  0.1254  1.0677  0.2109
  111OSM    H5G11543   6.562   3.717  10.110  1.3933  0.5070  1.2128
  111OSM    C6F11544   6.566   3.607   9.922  0.0375  0.2520  0.0706
  111OSM    H6F11545   6.473   3.548   9.935  0.7185 -0.7869  0.3197
  111OSM    H6G11546   6.635   3.536   9.872  1.0961  0.7620  0.7498
  111OSM    C7F11547   6.541   3.728   9.829  0.4492  1.0251 -0.6078
  111OSM    H7F11548   6.491   3.812   9.883 -2.0725 -1.1386  0.6053
  111OSM    H7G11549   6.469   3.692   9.753  0.0551 -1.5522  0.8848
  111OSM    C8F11550   6.661   3.792   9.758 -0.5064  0.0202  0.2898
  111OSM    H8F11551   6.736   3.821   9.834  1.2391  0.6741 -1.5892
  111OSM    H8G11552   6.634   3.889   9.712  3.3326  1.5804  0.8992
  111OSM    C9F11553   6.733   3.690   9.670 -0.0433  0.5074 -0.1783
  111OSM    H9F11554   6.796   3.613   9.716 -1.1376 -0.1933  0.1914
  111OSM   C10F11555   6.716   3.700   9.537  0.1347 -0.0245  0.4860
  111OSM   H10F11556   6.769   3.629   9.472 -0.0308  0.5079 -0.2496
  111OSM   C11F11557   6.638   3.798   9.451 -0.3737  0.0511  0.3281
  111OSM   H11F11558   6.669   3.902   9.478 -1.6096  0.0233  1.9872
  111OSM   H11G11559   6.530   3.794   9.477 -0.7525  0.4041 -1.0889
  111OSM   C12F11560   6.636   3.779   9.296 -0.6611 -0.4048 -0.1357
  111OSM   H12F11561   6.591   3.678   9.283 -1.7146  0.1875 -1.3640
  111OSM   H12G11562   6.736   3.764   9.249  0.5116 -1.2731  2.4504
  111OSM   C13F11563   6.546   3.883   9.229 -0.6367 -0.1421  0.4471
  111OSM   H13F11564   6.597   3.981   9.226 -2.0602  0.5994 -0.7361
  111OSM   H13G11565   6.448   3.895   9.281 -0.4675 -0.5689  0.8767
  111OSM   C14F11566   6.529   3.822   9.090  0.7940 -0.2410 -0.0461
  111OSM   H14F11567   6.491   3.718   9.098 -1.7730  0.5563 -0.9592
  111OSM   H14G11568   6.628   3.820   9.039  0.9989  1.0999  0.2695
  111OSM   C15F11569   6.438   3.900   8.996  0.0226  0.3134  0.2663
  111OSM   H15F11570   6.486   4.000   8.988  3.2629 -1.2081 -1.5203
  111OSM   H15G11571   6.332   3.901   9.030  0.5204  1.1606  1.9420
  111OSM   C16F11572   6.445   3.836   8.851  0.2922 -0.6492  0.6119
  111OSM   H16F11573   6.549   3.798   8.841  1.4193  1.6799  2.6261
  111OSM   H16G11574   6.439   3.914   8.772 -0.2120 -0.3695  0.9187
  111OSM   C17F11575   6.338   3.739   8.820 -0.5339 -0.5729 -0.4162
  111OSM   H17F11576   6.238   3.782   8.842 -0.5161 -1.0145  0.6064
  111OSM   H17G11577   6.335   3.654   8.892 -1.5706  0.6086  0.9898
  111OSM   C18F11578   6.341   3.678   8.676  0.4781  0.5859  0.2034
  111OSM   H18F11579   6.449   3.671   8.648  0.1733  0.2513 -0.9247
  111OSM   H18G11580   6.295   3.758   8.614  1.2177  0.2977 -0.7496
  111OSM   H18H11581   6.277   3.588   8.671 -0.4830  0.9977  3.0772
  112OSM      N11582   6.593   2.107  11.141  0.2487  0.2856  0.0531
  112OSM    C1511583   6.529   2.022  11.035  0.8433  0.9704 -0.1515
  112OSM   H15A11584   6.568   1.922  11.040  1.4084  1.0892 -1.6235
  112OSM   H15B11585   6.553   2.063  10.938 -1.2450  1.4508 -0.5346
  112OSM   H15C11586   6.421   2.016  11.034  0.9229 -0.7696  0.1744
  112OSM    C1411587   6.551   2.069  11.285  0.5622  0.0095  0.3141
  112OSM   H14A11588   6.610   2.112  11.365 -0.1413  0.1827  0.7490
  112OSM   H14B11589   6.553   1.962  11.298 -2.0971  0.1703  3.2489
  112OSM   H14C11590   6.450   2.105  11.298  1.4134  2.7629  0.0105
  112OSM    C1311591   6.744   2.090  11.133  0.5069 -0.1765 -0.0087
  112OSM   H13A11592   6.777   2.122  11.035  0.8986  1.3201  0.5946
  112OSM   H13B11593   6.780   1.988  11.145 -0.2733 -0.4743 -0.1261
  112OSM   H13C11594   6.795   2.149  11.207  1.7854  0.6523 -1.4773
  112OSM    C1211595   6.559   2.251  11.123 -0.7746 -0.0221  0.0544
  112OSM   H12A11596   6.619   2.313  11.187 -1.3994 -2.1436  2.8766
  112OSM   H12B11597   6.456   2.272  11.148 -0.4183  1.5053  0.3126
  112OSM    C1111598   6.593   2.314  10.981  0.0360 -0.0598  0.4684
  112OSM   H11A11599   6.545   2.413  10.977 -1.0978 -0.5846  0.7562
  112OSM   H11B11600   6.538   2.256  10.904 -1.7559  0.3876  1.3580
  112OSM      P11601   6.820   2.450  10.983 -0.0557  0.3437 -0.1384
  112OSM    O1311602   6.778   2.522  11.105  0.5327  0.2804 -0.3561
  112OSM    O1411603   6.956   2.405  10.973  0.0100  0.3402  0.1230
  112OSM    O1111604   6.796   2.545  10.856  1.0200 -0.2580  0.4868
  112OSM    O1211605   6.732   2.320  10.947  0.1387 -0.0686  0.0408
  112OSM    C1S11606   6.831   2.495  10.724 -0.2602 -0.2382  0.3131
  112OSM    H1S11607   6.878   2.395  10.735 -0.0544 -0.0508  1.2136
  112OSM    H1T11608   6.907   2.562  10.680 -1.1627  0.5354 -0.0845
  112OSM     NF11609   6.739   2.415  10.514 -0.8824  0.7124  0.2976
  112OSM    HNF11610   6.761   2.464  10.430  0.4025 -0.2147  0.0541
  112OSM    C2S11611   6.705   2.486  10.634  0.8388  0.3404 -0.0434
  112OSM    H2S11612   6.625   2.430  10.687  0.0543  0.9036 -0.6117
  112OSM    C3S11613   6.657   2.625  10.606 -0.0083 -0.6583 -0.2896
  112OSM    H3S11614   6.722   2.678  10.533 -1.3672  0.6355 -0.6057
  112OSM     O311615   6.650   2.702  10.727 -0.0612 -0.2308 -0.1276
  112OSM    HO311616   6.699   2.657  10.796  0.1612  1.4286  0.8505
  112OSM    C4S11617   6.526   2.629  10.540  0.1928  0.0978  1.0938
  112OSM    H4S11618   6.445   2.611  10.613 -0.8707  0.6469  0.0881
  112OSM    C5S11619   6.498   2.653  10.409 -0.1929 -0.5295 -0.0478
  112OSM    H5S11620   6.573   2.703  10.345  0.2255  0.9905  1.5603
  112OSM    C6S11621   6.360   2.633  10.353  0.1326  0.1992  0.3042
  112OSM    H6S11622   6.320   2.736  10.341  0.2194  0.2127  0.1251
  112OSM    H6T11623   6.294   2.586  10.430  0.1709  1.5396  1.1947
  112OSM    C7S11624   6.354   2.569  10.212 -0.8913 -0.3098 -0.7968
  112OSM    H7S11625   6.253   2.526  10.201 -1.2838  0.0178  1.0570
  112OSM    H7T11626   6.433   2.493  10.195 -1.2459 -0.5329 -1.4733
  112OSM    C8S11627   6.375   2.668  10.094 -0.1587  0.1307  0.8858
  112OSM    H8S11628   6.476   2.712  10.107  1.6716 -3.7216  1.0654
  112OSM    H8T11629   6.297   2.746  10.103  0.6693  1.3635 -1.6172
  112OSM    C9S11630   6.348   2.609   9.956 -0.1929 -0.4088 -0.1724
  112OSM    H9S11631   6.244   2.570   9.955  0.4639 -2.2544 -0.0300
  112OSM    H9T11632   6.421   2.529   9.933  0.2288  0.2729 -1.2919
  112OSM   C10S11633   6.359   2.709   9.843 -0.1460 -0.3241 -0.0811
  112OSM   H10S11634   6.465   2.743   9.841 -0.2811  0.3122  1.6357
  112OSM   H10T11635   6.289   2.794   9.858  0.5721  0.1131  0.9065
  112OSM   C11S11636   6.345   2.653   9.701  0.7323  0.3682 -1.2035
  112OSM   H11S11637   6.246   2.603   9.691  0.9752 -0.1799 -0.8986
  112OSM   H11T11638   6.420   2.572   9.690  1.9788  0.8943  2.3159
  112OSM   C12S11639   6.366   2.759   9.593 -0.7508 -0.0088  0.7747
  112OSM   H12S11640   6.452   2.823   9.621 -2.0868  0.6732  3.6158
  112OSM   H12T11641   6.267   2.806   9.578 -0.1693  1.0815  0.2797
  112OSM   C13S11642   6.410   2.685   9.473 -0.4892 -0.0449 -0.2970
  112OSM   H13S11643   6.347   2.594   9.458 -2.1688  1.0028  0.1311
  112OSM   H13T11644   6.512   2.654   9.502 -0.5969  0.8074  1.0654
  112OSM   C14S11645   6.403   2.773   9.341 -0.2997  0.8664  0.5981
  112OSM   H14S11646   6.444   2.873   9.368 -0.2514  0.9932  0.0824
  112OSM   H14T11647   6.298   2.780   9.305  0.4479  1.9880 -1.6218
  112OSM   C15S11648   6.488   2.707   9.229  0.5321 -0.3683 -0.1872
  112OSM   H15S11649   6.429   2.622   9.189 -2.9635 -0.0610  3.6204
  112OSM   H15T11650   6.589   2.673   9.260  1.1916  1.2971 -0.4249
  112OSM   C16S11651   6.530   2.796   9.116 -0.1294  0.2194  0.3577
  112OSM   H16S11652   6.571   2.889   9.161  2.0861  0.0311 -1.1110
  112OSM   H16T11653   6.445   2.830   9.053  0.8463 -0.0190 -1.1323
  112OSM   C17S11654   6.627   2.735   9.012 -0.0445  0.0932  0.4577
  112OSM   H17S11655   6.724   2.719   9.064  0.9622  1.9931 -0.7280
  112OSM   H17T11656   6.650   2.799   8.924  1.1019 -1.0069 -0.0725
  112OSM   C18S11657   6.567   2.597   8.963  0.2569  0.2484  0.1324
  112OSM   H18S11658   6.464   2.614   8.925  0.8768  1.4232 -1.1139
  112OSM   H18T11659   6.568   2.519   9.042  0.9534 -1.5242 -1.5367
  112OSM   H18U11660   6.628   2.557   8.879  1.7284 -1.7617  2.0533
  112OSM    C1F11661   6.744   2.276  10.506  1.1815  0.3530  0.1979
  112OSM     OF11662   6.716   2.207  10.604 -0.0119  0.0760  0.5383
  112OSM    C2F11663   6.780   2.218  10.374 -0.3323  0.0529 -0.0734
  112OSM    H2F11664   6.816   2.113  10.380 -3.0220 -0.9974 -0.8094
  112OSM    H2G11665   6.867   2.275  10.334 -0.7309 -1.3622 -3.2670
  112OSM    C3F11666   6.658   2.217  10.286 -0.2812 -0.0865 -0.3571
  112OSM    H3F11667   6.623   2.320  10.262  0.8866  0.1758 -0.9683
  112OSM    H3G11668   6.568   2.161  10.321 -1.1786  1.5315  0.0350
  112OSM    C4F11669   6.688   2.162  10.141  0.0160 -0.0570  0.1947
  112OSM    H4F11670   6.710   2.053  10.153  1.4641 -0.0862 -2.0867
  112OSM    H4G11671   6.772   2.225  10.105 -0.7928 -0.0817 -1.8653
  112OSM    C5F11672   6.572   2.194  10.044  0.7259 -0.7378 -0.5660
  112OSM    H5F11673   6.536   2.298  10.060 -0.0694 -1.2325  1.0457
  112OSM    H5G11674   6.490   2.123  10.065 -1.2067  1.4301 -0.3726
  112OSM    C6F11675   6.615   2.189   9.895 -0.0760 -0.5544 -1.4843
  112OSM    H6F11676   6.640   2.082   9.882 -1.0650 -1.3429  1.9077
  112OSM    H6G11677   6.702   2.254   9.872  0.8501 -1.0413  0.4078
  112OSM    C7F11678   6.500   2.221   9.802  0.1700  0.2810  0.5221
  112OSM    H7F11679   6.495   2.332   9.798  2.3443  0.4929  1.9168
  112OSM    H7G11680   6.407   2.175   9.842  1.5045 -2.2899  0.8648
  112OSM    C8F11681   6.540   2.166   9.659  0.9045 -0.1511  0.1452
  112OSM    H8F11682   6.544   2.055   9.661 -0.3340 -0.3143 -2.5716
  112OSM    H8G11683   6.640   2.214   9.647  0.6032  0.9431  1.6372
  112OSM    C9F11684   6.439   2.222   9.566 -0.0862  0.3364 -0.3127
  112OSM    H9F11685   6.340   2.189   9.602  1.9545 -2.1363  3.7215
  112OSM   C10F11686   6.450   2.304   9.462 -0.4848  0.1079 -0.1858
  112OSM   H10F11687   6.374   2.329   9.387  0.9618  0.1040 -1.7353
  112OSM   C11F11688   6.590   2.354   9.420  1.0938 -0.1057 -0.2250
  112OSM   H11F11689   6.667   2.341   9.500 -1.3614  0.3089  2.3767
  112OSM   H11G11690   6.568   2.459   9.393 -0.5811 -0.8825 -2.1707
  112OSM   C12F11691   6.649   2.282   9.295 -0.5584  0.0510 -0.0979
  112OSM   H12F11692   6.572   2.250   9.221  0.9277  0.6817 -1.9882
  112OSM   H12G11693   6.701   2.192   9.333  0.9801  1.5882  1.6176
  112OSM   C13F11694   6.747   2.362   9.210 -0.1124 -0.4446 -0.1345
  112OSM   H13F11695   6.843   2.375   9.265  1.0659 -1.6185 -1.7944
  112OSM   H13G11696   6.704   2.463   9.192 -2.2363 -1.1651  0.6373
  112OSM   C14F11697   6.775   2.297   9.071  0.2740  0.5509 -0.7940
  112OSM   H14F11698   6.679   2.262   9.027  0.8978 -1.0972 -0.8874
  112OSM   H14G11699   6.821   2.198   9.089 -2.1701 -0.4969  0.2513
  112OSM   C15F11700   6.863   2.387   8.985 -0.2148  0.4834 -0.1623
  112OSM   H15F11701   6.958   2.398   9.041  0.2273  0.4262 -0.8818
  112OSM   H15G11702   6.831   2.493   8.980  2.0304  1.2284  0.0903
  112OSM   C16F11703   6.887   2.322   8.850 -0.0479  0.6688 -0.1904
  112OSM   H16F11704   6.794   2.302   8.793  0.2056 -0.2481 -0.2918
  112OSM   H16G11705   6.949   2.231   8.864  0.9434  1.2781 -0.5051
  112OSM   C17F11706   6.983   2.405   8.764  0.0176  0.9065 -0.5525
  112OSM   H17F11707   7.082   2.425   8.810 -0.4587  1.3640  0.2993
  112OSM   H17G11708   6.932   2.500   8.737  0.2199  1.0962 -0.2707
  112OSM   C18F11709   6.997   2.340   8.629 -0.4133 -0.1329  0.4866
  112OSM   H18F11710   7.062   2.407   8.569 -2.9072  1.1723 -0.9470
  112OSM   H18G11711   6.901   2.331   8.573  0.6886  1.6579 -1.8769
  112OSM   H18H11712   7.038   2.237   8.636  0.6163  0.1892 -0.5490
  113OSM      N11713   3.022   2.802  11.077  0.4236  0.0615  0.6624
  113OSM    C1511714   3.034   2.703  10.961 -0.2992  1.2679 -0.0665
  113OSM   H15A11715   3.104   2.733  10.884  0.9306  0.3013  0.6375
  113OSM   H15B11716   2.943   2.693  10.903 -0.2685 -0.8932  0.1958
  113OSM   H15C11717   3.063   2.603  10.988 -3.2408 -0.3732 -2.3957
  113OSM    C1411718   2.924   2.737  11.174  0.4699  0.2762 -0.5399
  113OSM   H14A11719   2.975   2.649  11.210 -2.3087 -1.3993 -0.4115
  113OSM   H14B11720   2.831   2.708  11.128 -0.0064  2.7698 -1.3128
  113OSM   H14C11721   2.899   2.810  11.250  3.3730  2.0158 -1.0744
  113OSM    C1311722   3.152   2.827  11.138 -0.0515  0.1248 -0.2935
  113OSM   H13A11723   3.192   2.924  11.111  1.8485  0.3546  2.8472
  113OSM   H13B11724   3.226   2.749  11.124  0.3004  0.1179  1.3657
  113OSM   H13C11725   3.143   2.835  11.246 -1.5383  1.6765 -0.4966
  113OSM    C1211726   2.963   2.935  11.031  0.5359 -0.4082  0.2967
  113OSM   H12A11727   2.960   2.997  11.119 -0.8490  1.0119 -0.6910
  113OSM   H12B11728   2.859   2.928  11.001  0.3630 -1.9978  1.1446
  113OSM    C1111729   3.046   3.022  10.925  0.3638  0.6367 -0.6813
  113OSM   H11A11730   2.991   3.114  10.898  0.7046  1.3951  1.0613
  113OSM   H11B11731   3.049   2.956  10.835  0.1907 -0.6111  0.2087
  113OSM      P11732   3.293   3.092  10.879  0.0408  0.0777  0.0984
  113OSM    O1311733   3.411   3.148  10.958 -0.1877  0.3686 -0.5806
  113OSM    O1411734   3.314   2.975  10.797 -0.3210  0.5480  0.8394
  113OSM    O1111735   3.220   3.199  10.783  0.3581 -0.0663  0.0957
  113OSM    O1211736   3.171   3.061  10.979 -0.4209  0.5011 -0.3866
  113OSM    C1S11737   3.296   3.305  10.726 -0.3516 -0.9835  0.2828
  113OSM    H1S11738   3.377   3.342  10.793  0.5414 -3.2054  0.5024
  113OSM    H1T11739   3.230   3.394  10.719 -0.6070 -1.1222  0.9052
  113OSM     NF11740   3.435   3.392  10.528 -0.4667  0.1112  0.7096
  113OSM    HNF11741   3.397   3.441  10.450  0.2818  0.0121  0.2719
  113OSM    C2S11742   3.368   3.280  10.584 -0.2370  1.3366 -0.0664
  113OSM    H2S11743   3.445   3.200  10.596 -0.9106  0.2276 -2.4456
  113OSM    C3S11744   3.264   3.211  10.489 -0.1772  0.0740  0.7806
  113OSM    H3S11745   3.188   3.290  10.472 -0.4062 -0.1550  0.7324
  113OSM     O311746   3.205   3.093  10.533 -0.3709 -0.1549 -0.1228
  113OSM    HO311747   3.209   3.096  10.629  0.8135 -0.7327 -0.1354
  113OSM    C4S11748   3.329   3.178  10.351  0.0450 -0.3661 -0.3929
  113OSM    H4S11749   3.407   3.100  10.347 -0.4107 -0.8877  0.4400
  113OSM    C5S11750   3.297   3.246  10.233 -0.2998  0.5345  0.0566
  113OSM    H5S11751   3.240   3.340  10.234 -0.4264  0.4591  0.7986
  113OSM    C6S11752   3.365   3.209  10.107 -0.2810 -1.4858  0.7557
  113OSM    H6S11753   3.437   3.126  10.120  1.1553 -0.4768 -0.4760
  113OSM    H6T11754   3.421   3.297  10.068 -1.9263 -0.2759  0.9953
  113OSM    C7S11755   3.281   3.166   9.987 -0.2144  0.3556 -0.3560
  113OSM    H7S11756   3.212   3.245   9.951 -2.3157 -1.5253 -0.6644
  113OSM    H7T11757   3.216   3.080  10.016 -1.2467  1.7086  1.5901
  113OSM    C8S11758   3.369   3.123   9.871 -0.2806  0.7986  0.3792
  113OSM    H8S11759   3.442   3.046   9.905 -0.5483  0.1550 -0.4589
  113OSM    H8T11760   3.434   3.207   9.840 -0.3430  0.3666 -1.0031
  113OSM    C9S11761   3.286   3.068   9.745 -0.1422 -0.0812 -0.3277
  113OSM    H9S11762   3.206   3.144   9.734  0.9300  1.2514  0.6862
  113OSM    H9T11763   3.241   2.969   9.769 -0.7015  0.4167  0.7491
  113OSM   C10S11764   3.351   3.073   9.608 -0.7862 -0.2325 -0.9601
  113OSM   H10S11765   3.436   3.001   9.605 -3.2473 -3.5653  1.7617
  113OSM   H10T11766   3.400   3.171   9.587  0.6367 -0.8920 -0.8388
  113OSM   C11S11767   3.253   3.032   9.494 -0.2634  0.7982 -0.0100
  113OSM   H11S11768   3.172   3.107   9.478  0.3615  1.8125  1.3717
  113OSM   H11T11769   3.214   2.933   9.529  1.4408  0.4105  0.9254
  113OSM   C12S11770   3.328   3.010   9.366  0.3577 -0.0378  0.5329
  113OSM   H12S11771   3.406   2.932   9.383  0.3383 -0.3833 -0.7960
  113OSM   H12T11772   3.369   3.111   9.344  0.4166  0.0876  1.2044
  113OSM   C13S11773   3.236   2.945   9.254  0.3012 -0.7078  0.1094
  113OSM   H13S11774   3.143   3.004   9.240  0.9865 -0.0215 -1.8851
  113OSM   H13T11775   3.201   2.840   9.260  1.4010 -1.1172 -0.4917
  113OSM   C14S11776   3.306   2.941   9.114  0.2356  0.7970 -0.7172
  113OSM   H14S11777   3.387   2.865   9.110 -2.9952 -2.9242 -0.6212
  113OSM   H14T11778   3.361   3.038   9.101  1.9796  0.4766  2.8263
  113OSM   C15S11779   3.214   2.922   9.000  0.1709 -0.7800 -1.1468
  113OSM   H15S11780   3.116   2.973   9.013  0.3179 -0.8212  0.1737
  113OSM   H15T11781   3.197   2.815   8.975 -1.0424 -0.5663 -1.3069
  113OSM   C16S11782   3.279   2.975   8.869  0.7151 -0.2354  0.2220
  113OSM   H16S11783   3.378   2.929   8.851  0.5023 -0.8682  0.6551
  113OSM   H16T11784   3.288   3.085   8.885  0.2422 -0.5118  2.8058
  113OSM   C17S11785   3.190   2.952   8.747  0.2493 -0.1439  0.0101
  113OSM   H17S11786   3.177   2.842   8.740 -3.8480  0.1187  0.5266
  113OSM   H17T11787   3.246   2.979   8.655  0.9158  0.1037  0.4806
  113OSM   C18S11788   3.048   3.012   8.751 -0.2350 -0.9893  0.1219
  113OSM   H18S11789   2.987   2.958   8.827  2.0893 -1.3231  1.8576
  113OSM   H18T11790   3.008   2.994   8.649 -0.8505 -0.3768  0.2449
  113OSM   H18U11791   3.064   3.121   8.768 -2.8901 -0.7880  1.9433
  113OSM    C1F11792   3.555   3.439  10.578  1.4628 -0.2563  0.0728
  113OSM     OF11793   3.602   3.398  10.684 -0.1663 -0.8363 -0.3241
  113OSM    C2F11794   3.622   3.541  10.496 -0.4135  0.0428 -0.4270
  113OSM    H2F11795   3.613   3.629  10.564  1.6623  0.3987 -0.5475
  113OSM    H2G11796   3.578   3.572  10.399  0.7742 -0.8524 -1.2812
  113OSM    C3F11797   3.772   3.506  10.469 -0.2152  0.4978  0.9807
  113OSM    H3F11798   3.818   3.470  10.563 -0.6081 -0.5030  0.8003
  113OSM    H3G11799   3.834   3.594  10.442  1.2102 -0.7782 -0.0891
  113OSM    C4F11800   3.785   3.396  10.361 -0.4102  1.4074  0.4302
  113OSM    H4F11801   3.711   3.317  10.385  0.6887  0.8534  2.1897
  113OSM    H4G11802   3.884   3.349  10.374 -0.8689  0.2207 -0.2189
  113OSM    C5F11803   3.773   3.453  10.215 -0.6816 -0.2371  0.0227
  113OSM    H5F11804   3.835   3.545  10.206 -0.5528 -0.2390  0.7576
  113OSM    H5G11805   3.665   3.463  10.190 -0.5005  1.2316 -0.2435
  113OSM    C6F11806   3.843   3.352  10.126  0.8179 -0.6263 -0.2987
  113OSM    H6F11807   3.798   3.251  10.138  1.6900 -0.9608  0.2055
  113OSM    H6G11808   3.945   3.338  10.169  0.0702 -0.8989  1.4542
  113OSM    C7F11809   3.860   3.408   9.982  0.2978  0.0719  0.7390
  113OSM    H7F11810   3.922   3.349   9.911  1.6343  1.5158  0.6508
  113OSM    H7G11811   3.895   3.514   9.987  1.3016 -0.2221  0.2246
  113OSM    C8F11812   3.722   3.413   9.923 -0.3231  0.2179 -0.2020
  113OSM    H8F11813   3.714   3.489   9.842  1.0157  1.2261  0.5617
  113OSM    H8G11814   3.644   3.432  10.000 -0.6134 -2.5196  0.2660
  113OSM    C9F11815   3.690   3.275   9.869 -1.1253 -0.0415  0.3596
  113OSM    H9F11816   3.689   3.198   9.947  0.3180  0.9776  1.4493
  113OSM   C10F11817   3.693   3.228   9.740 -0.1857 -0.0477  0.6306
  113OSM   H10F11818   3.694   3.120   9.719  1.1842  0.0937 -0.1920
  113OSM   C11F11819   3.732   3.322   9.626 -0.1289 -0.8013 -1.7173
  113OSM   H11F11820   3.790   3.410   9.661 -3.0208  0.1403  1.1394
  113OSM   H11G11821   3.638   3.360   9.582 -0.0404  0.4523 -0.8679
  113OSM   C12F11822   3.806   3.244   9.514 -0.0857 -0.1583 -0.1362
  113OSM   H12F11823   3.900   3.198   9.551 -0.5845 -0.7457  0.4345
  113OSM   H12G11824   3.855   3.314   9.443  0.5894  0.1588  0.6299
  113OSM   C13F11825   3.709   3.148   9.440  0.1205 -1.0853  0.4305
  113OSM   H13F11826   3.622   3.203   9.397  0.8448 -1.6914 -1.9558
  113OSM   H13G11827   3.668   3.062   9.496 -1.6123 -2.4587 -2.6526
  113OSM   C14F11828   3.784   3.077   9.320 -0.3681 -0.1530  0.3969
  113OSM   H14F11829   3.868   3.020   9.363 -1.3637 -0.5170  1.9190
  113OSM   H14G11830   3.828   3.157   9.256 -0.3108 -0.5002  0.0029
  113OSM   C15F11831   3.700   2.982   9.233  0.0910  0.0721  0.0070
  113OSM   H15F11832   3.602   3.031   9.215  0.9430  2.2126  0.8457
  113OSM   H15G11833   3.670   2.892   9.292  0.7453 -0.3600 -0.3067
  113OSM   C16F11834   3.760   2.944   9.094 -0.4125 -0.2839 -0.3124
  113OSM   H16F11835   3.861   2.904   9.116 -0.5277 -0.8122 -0.6924
  113OSM   H16G11836   3.756   3.031   9.026 -0.6617 -1.0255 -1.2803
  113OSM   C17F11837   3.694   2.827   9.024 -0.1618 -0.0128  0.4440
  113OSM   H17F11838   3.591   2.861   8.997 -0.5714 -0.4910  1.3627
  113OSM   H17G11839   3.681   2.743   9.096 -1.2152 -0.2814 -0.0454
  113OSM   C18F11840   3.767   2.784   8.896  0.1960  0.0852  0.8217
  113OSM   H18F11841   3.812   2.869   8.841 -0.5006 -0.2772 -0.3382
  113OSM   H18G11842   3.705   2.731   8.821 -0.0016 -0.3088  1.2607
  113OSM   H18H11843   3.843   2.703   8.910  0.4723  0.0565 -0.7005
  114OSM      N11844   5.906   0.969  11.253  0.1399  0.0424  0.5803
  114OSM    C1511845   5.797   1.070  11.219  0.5025 -0.3874 -0.5363
  114OSM   H15A11846   5.748   1.103  11.309  1.3880  0.9289 -0.5124
  114OSM   H15B11847   5.715   1.031  11.160 -0.7036  2.7550 -1.1179
  114OSM   H15C11848   5.837   1.154  11.165 -0.6463  0.5444 -0.0038
  114OSM    C1411849   6.024   1.055  11.301  0.0346  0.1679  0.0563
  114OSM   H14A11850   6.112   0.994  11.310 -0.0971  0.0770  0.7753
  114OSM   H14B11851   5.988   1.096  11.395  0.5410 -2.1063  1.3091
  114OSM   H14C11852   6.064   1.135  11.240  0.5864  0.1839  0.4344
  114OSM    C1311853   5.869   0.869  11.357  0.5751 -0.1674 -0.1911
  114OSM   H13A11854   5.828   0.910  11.448 -1.2861 -1.6736 -0.2967
  114OSM   H13B11855   5.945   0.796  11.382  0.7737 -0.6576 -2.0739
  114OSM   H13C11856   5.794   0.801  11.320  0.8004 -0.9317  0.6978
  114OSM    C1211857   5.952   0.897  11.127 -0.2165  0.5026  0.4403
  114OSM   H12A11858   6.050   0.855  11.148 -0.7817 -0.0930  2.0505
  114OSM   H12B11859   5.963   0.969  11.047 -0.5193 -1.4858 -1.4805
  114OSM    C1111860   5.865   0.780  11.064 -0.6190 -0.3039 -0.2735
  114OSM   H11A11861   5.887   0.769  10.955  0.9835  0.6722 -0.0796
  114OSM   H11B11862   5.757   0.806  11.057 -0.4893  0.4123  0.3772
  114OSM      P11863   6.016   0.579  11.130 -0.2448  0.0317 -0.7486
  114OSM    O1311864   6.136   0.662  11.110  0.1965  0.4418 -0.6749
  114OSM    O1411865   6.005   0.478  11.239 -0.7496  0.1373  0.2191
  114OSM    O1111866   5.988   0.502  11.003  0.5213  0.4945  0.5278
  114OSM    O1211867   5.883   0.667  11.146 -0.5491  0.4637 -0.6625
  114OSM    C1S11868   5.860   0.456  10.957  0.1185  0.1839  0.2282
  114OSM    H1S11869   5.784   0.514  11.012 -0.2919 -0.4003  0.2782
  114OSM    H1T11870   5.849   0.347  10.976 -3.2349  0.3226 -0.4275
  114OSM     NF11871   5.697   0.464  10.766 -0.4229  0.7938  0.0946
  114OSM    HNF11872   5.664   0.379  10.725 -0.3309  0.0882  1.4065
  114OSM    C2S11873   5.840   0.477  10.803  0.2892 -0.3348 -0.3554
  114OSM    H2S11874   5.878   0.577  10.773 -0.2845  0.0721  0.2541
  114OSM    C3S11875   5.926   0.375  10.730  0.2915  0.0099 -0.8584
  114OSM    H3S11876   5.925   0.279  10.784  0.2631  1.8122  2.6418
  114OSM     O311877   6.066   0.408  10.745 -0.1710  0.0963  0.0318
  114OSM    HO311878   6.071   0.461  10.825  1.9567 -1.0117  0.7194
  114OSM    C4S11879   5.900   0.375  10.586 -0.4032  0.2469  0.3775
  114OSM    H4S11880   5.914   0.472  10.536  1.1863 -1.0904 -1.9882
  114OSM    C5S11881   5.869   0.263  10.512  0.2280  0.6128 -0.2217
  114OSM    H5S11882   5.866   0.166  10.565  0.8111  2.0611  2.6962
  114OSM    C6S11883   5.836   0.271  10.367 -0.1136  0.0002 -0.0952
  114OSM    H6S11884   5.727   0.290  10.359  0.0608  0.8366 -0.6410
  114OSM    H6T11885   5.855   0.173  10.319 -0.6197 -0.3157  0.3376
  114OSM    C7S11886   5.896   0.386  10.282 -0.0656 -0.7820 -0.2522
  114OSM    H7S11887   6.002   0.397  10.316 -0.8444  1.6272  1.7015
  114OSM    H7T11888   5.847   0.479  10.320  0.7514 -0.3972 -0.1050
  114OSM    C8S11889   5.881   0.370  10.128 -0.1760 -0.4682 -0.2506
  114OSM    H8S11890   5.773   0.353  10.106 -0.4376  1.9979 -1.1281
  114OSM    H8T11891   5.944   0.290  10.085  1.6417  1.1100 -0.6570
  114OSM    C9S11892   5.909   0.509  10.071  0.0637  0.0089  0.1506
  114OSM    H9S11893   6.019   0.523  10.078  0.2786 -1.4216 -0.0865
  114OSM    H9T11894   5.850   0.587  10.123  0.7926  0.1198  0.8262
  114OSM   C10S11895   5.883   0.523   9.921 -0.1456 -0.0028 -0.0287
  114OSM   H10S11896   5.783   0.478   9.900 -0.0469 -1.0054  1.5626
  114OSM   H10T11897   5.972   0.481   9.870  1.1358  3.4099 -0.8780
  114OSM   C11S11898   5.882   0.672   9.872 -0.6502  0.6360 -0.2012
  114OSM   H11S11899   5.794   0.727   9.913  0.0605  0.9083  1.0025
  114OSM   H11T11900   5.874   0.670   9.761 -1.5034 -3.2049 -0.1972
  114OSM   C12S11901   6.006   0.751   9.898  0.0799  0.2573  0.4122
  114OSM   H12S11902   6.013   0.748  10.009  0.5596 -0.2555  0.3695
  114OSM   H12T11903   5.998   0.860   9.878  0.2026  0.0139 -1.0975
  114OSM   C13S11904   6.145   0.695   9.850  0.3775 -0.2226 -0.0113
  114OSM   H13S11905   6.150   0.595   9.900 -1.1284  1.6428  4.3882
  114OSM   H13T11906   6.233   0.748   9.891  1.2095 -0.9258 -0.8508
  114OSM   C14S11907   6.160   0.685   9.698 -0.1443 -0.0563  0.8403
  114OSM   H14S11908   6.066   0.637   9.665  0.5595 -1.3143  0.5901
  114OSM   H14T11909   6.244   0.616   9.674 -0.7258 -0.8150  0.9463
  114OSM   C15S11910   6.191   0.823   9.631 -0.6271  0.3637 -0.8143
  114OSM   H15S11911   6.300   0.844   9.645 -0.9869  2.3430 -0.6530
  114OSM   H15T11912   6.138   0.907   9.681 -0.1031  0.2491 -0.0453
  114OSM   C16S11913   6.157   0.820   9.486  0.7097 -0.5096 -0.0872
  114OSM   H16S11914   6.048   0.812   9.465  0.7647  0.5834 -0.8388
  114OSM   H16T11915   6.214   0.740   9.432 -0.2847  0.0104 -1.9886
  114OSM   C17S11916   6.175   0.953   9.408  0.5246  0.3670 -0.6400
  114OSM   H17S11917   6.283   0.976   9.401  0.9649 -0.7627  1.7268
  114OSM   H17T11918   6.133   1.038   9.466 -0.6124 -1.5530  1.5224
  114OSM   C18S11919   6.108   0.964   9.270 -0.0774  0.8813 -0.1658
  114OSM   H18S11920   6.156   0.886   9.208  0.2630 -0.3154  1.5311
  114OSM   H18T11921   6.114   1.068   9.230 -2.0268 -0.2156 -3.6833
  114OSM   H18U11922   6.000   0.939   9.280  0.0085  1.0266  1.3418
  114OSM    C1F11923   5.593   0.551  10.793 -0.5900 -0.3150 -0.0245
  114OSM     OF11924   5.615   0.658  10.841  0.1700 -0.5542 -0.4173
  114OSM    C2F11925   5.461   0.493  10.764  1.1787  0.0947  0.0351
  114OSM    H2F11926   5.376   0.559  10.789 -0.7055 -1.4579 -1.7888
  114OSM    H2G11927   5.450   0.407  10.833 -1.4822 -0.6685 -1.2145
  114OSM    C3F11928   5.436   0.450  10.615 -0.0411  0.7756  0.2396
  114OSM    H3F11929   5.344   0.388  10.612  0.5257 -0.0685 -0.4810
  114OSM    H3G11930   5.514   0.376  10.585 -2.6705 -1.4340 -1.6674
  114OSM    C4F11931   5.423   0.572  10.513 -0.5510 -0.5964 -0.1288
  114OSM    H4F11932   5.514   0.635  10.524 -0.9840  0.4370 -2.0203
  114OSM    H4G11933   5.333   0.621  10.556 -0.7206 -1.1478  0.1564
  114OSM    C5F11934   5.384   0.540  10.369 -0.3958 -0.0178 -0.6826
  114OSM    H5F11935   5.351   0.634  10.320  0.3273  0.8330  0.3937
  114OSM    H5G11936   5.307   0.460  10.368  1.3088 -1.7260 -2.3598
  114OSM    C6F11937   5.501   0.475  10.290  0.0280 -0.3272 -0.3757
  114OSM    H6F11938   5.555   0.420  10.370  2.4658  2.2247 -0.0994
  114OSM    H6G11939   5.576   0.545  10.248 -0.1369 -1.8359 -3.4654
  114OSM    C7F11940   5.444   0.381  10.183 -0.6306  0.8818 -0.9216
  114OSM    H7F11941   5.382   0.306  10.237 -0.4788  0.2732 -1.5620
  114OSM    H7G11942   5.522   0.308  10.152 -0.9686 -0.2519  0.7459
  114OSM    C8F11943   5.365   0.427  10.062 -0.1786 -0.1688 -0.4155
  114OSM    H8F11944   5.275   0.474  10.107  0.6999 -0.4053  1.6574
  114OSM    H8G11945   5.331   0.347   9.993  0.6584  0.0477 -1.0943
  114OSM    C9F11946   5.439   0.540   9.996 -0.4202 -0.7332  0.4338
  114OSM    H9F11947   5.465   0.625  10.060  1.2399 -1.8241  1.2896
  114OSM   C10F11948   5.475   0.557   9.866  0.1275 -0.0034 -0.3772
  114OSM   H10F11949   5.536   0.644   9.834 -0.0071 -0.9130 -3.4630
  114OSM   C11F11950   5.452   0.463   9.756  0.0215  0.1841  0.1440
  114OSM   H11F11951   5.341   0.452   9.748 -0.0890  0.6203  1.0051
  114OSM   H11G11952   5.507   0.372   9.785  0.3062  0.9853  2.2746
  114OSM   C12F11953   5.502   0.526   9.624  0.8838 -0.4948 -0.2153
  114OSM   H12F11954   5.612   0.510   9.615  0.6970 -1.0634 -1.7575
  114OSM   H12G11955   5.481   0.635   9.624  0.1494 -0.6340 -0.8104
  114OSM   C13F11956   5.445   0.471   9.497  0.2093  0.3551 -0.4595
  114OSM   H13F11957   5.337   0.498   9.504  0.1704  0.1982 -0.4576
  114OSM   H13G11958   5.464   0.362   9.492 -1.8689 -0.1970  1.8384
  114OSM   C14F11959   5.497   0.549   9.372 -0.8763  0.1490 -0.1020
  114OSM   H14F11960   5.607   0.534   9.362 -0.8063  0.7265 -0.2624
  114OSM   H14G11961   5.480   0.658   9.384  0.0945  0.1571  1.5551
  114OSM   C15F11962   5.411   0.510   9.256 -0.6569 -0.7419  0.5318
  114OSM   H15F11963   5.304   0.506   9.287 -0.7900  0.6140  0.2731
  114OSM   H15G11964   5.445   0.406   9.235  0.7715  0.0315 -1.2455
  114OSM   C16F11965   5.439   0.603   9.136  0.2965  0.0300 -1.1144
  114OSM   H16F11966   5.550   0.600   9.130  0.3978  2.3811 -1.1929
  114OSM   H16G11967   5.405   0.703   9.171 -0.5672 -0.0228 -1.7674
  114OSM   C17F11968   5.379   0.575   9.005  0.2214  0.0428  0.6041
  114OSM   H17F11969   5.373   0.666   8.941 -0.3257 -0.3267  0.1087
  114OSM   H17G11970   5.270   0.554   9.013  0.3372 -0.6860  0.3453
  114OSM   C18F11971   5.445   0.478   8.919 -0.6064  0.3275  0.5430
  114OSM   H18F11972   5.444   0.380   8.971  0.2171 -0.8364 -1.5204
  114OSM   H18G11973   5.552   0.506   8.909  0.8094 -3.9212  1.7964
  114OSM   H18H11974   5.396   0.461   8.821  0.5903 -2.9891  0.3861
  115OSM      N11975   2.192   6.116  11.185 -0.7164  0.6944 -0.2403
  115OSM    C1511976   2.300   6.120  11.296  0.2615 -0.2525 -0.3560
  115OSM   H15A11977   2.293   6.038  11.366  2.2140 -1.3619 -1.3911
  115OSM   H15B11978   2.281   6.208  11.356 -1.2905 -2.2697  2.3441
  115OSM   H15C11979   2.393   6.113  11.243  0.4689 -2.1997  0.2011
  115OSM    C1411980   2.233   6.021  11.074  0.5072  0.2086 -0.4419
  115OSM   H14A11981   2.334   6.032  11.037  1.5134 -1.3422  1.6211
  115OSM   H14B11982   2.177   6.022  10.982 -0.9372  0.2732  0.4042
  115OSM   H14C11983   2.198   5.925  11.110  0.8298  0.5863  0.9561
  115OSM    C1311984   2.057   6.077  11.234 -0.3173 -0.6169  0.6122
  115OSM   H13A11985   2.063   5.979  11.279 -1.2006 -0.3609  1.3318
  115OSM   H13B11986   1.987   6.070  11.152  0.8057 -0.5177 -0.3829
  115OSM   H13C11987   2.013   6.151  11.299  0.8272  1.9990 -1.4340
  115OSM    C1211988   2.201   6.251  11.106  0.1090  0.2376  0.3685
  115OSM   H12A11989   2.306   6.261  11.083 -0.1349 -0.8486 -1.3210
  115OSM   H12B11990   2.179   6.337  11.168 -0.5588  2.1348 -2.3281
  115OSM    C1111991   2.126   6.273  10.969 -0.4811 -0.5596  0.7781
  115OSM   H11A11992   2.166   6.192  10.904  2.5133  0.4298  1.2397
  115OSM   H11B11993   2.161   6.364  10.917  1.0733  0.3177  3.2126
  115OSM      P11994   1.891   6.384  10.989 -0.3358  0.1535  0.2930
  115OSM    O1311995   1.749   6.338  10.999 -0.9263  0.2313 -0.3049
  115OSM    O1411996   1.944   6.468  11.096  0.0295 -0.5161  0.1199
  115OSM    O1111997   1.918   6.471  10.854 -0.0004  0.2461 -0.1348
  115OSM    O1211998   1.982   6.257  10.967  0.4261  0.2963 -0.1915
  115OSM    C1S11999   1.928   6.389  10.735  0.1613  0.0751  0.3266
  115OSM    H1S12000   1.834   6.335  10.710  1.2346 -1.8012  0.1310
  115OSM    H1T12001   2.007   6.311  10.734  0.5116  0.4009 -1.7538
  115OSM     NF12002   1.948   6.390  10.488 -0.1501 -0.8533  0.1907
  115OSM    HNF12003   2.030   6.399  10.433 -0.8908  0.2595 -0.7826
  115OSM    C2S12004   1.954   6.474  10.601 -0.6956  0.3783 -0.4777
  115OSM    H2S12005   1.877   6.554  10.590 -1.3262 -0.3934 -1.8485
  115OSM    C3S12006   2.086   6.558  10.620  0.3997 -1.1416 -0.3156
  115OSM    H3S12007   2.172   6.504  10.664  0.3737 -0.6583  0.3395
  115OSM     O312008   2.065   6.669  10.713 -0.1071  0.3725  0.4945
  115OSM    HO312009   1.992   6.641  10.769  1.7455 -1.1882  2.3121
  115OSM    C4S12010   2.141   6.613  10.490  0.6459 -0.2164  0.2245
  115OSM    H4S12011   2.229   6.562  10.449  0.3213  1.0575 -2.2521
  115OSM    C5S12012   2.117   6.729  10.426 -0.1299  0.1695 -0.1977
  115OSM    H5S12013   2.027   6.786  10.452  0.6409  0.9285  0.8685
  115OSM    C6S12014   2.185   6.768  10.292  0.1854 -0.0963  0.0756
  115OSM    H6S12015   2.287   6.724  10.286 -0.8485 -2.7034  0.7618
  115OSM    H6T12016   2.189   6.879  10.298 -1.4777 -0.0036 -0.1616
  115OSM    C7S12017   2.102   6.719  10.168 -0.2875 -1.2044 -0.4134
  115OSM    H7S12018   1.998   6.758  10.171  1.0930  2.9762 -0.5657
  115OSM    H7T12019   2.097   6.608  10.176 -0.7042 -1.1146  0.7673
  115OSM    C8S12020   2.161   6.766  10.034 -0.4630  0.7729  0.9061
  115OSM    H8S12021   2.272   6.753  10.028 -0.6994 -1.7269  0.8097
  115OSM    H8T12022   2.145   6.873  10.012  0.7148  0.9806  0.9756
  115OSM    C9S12023   2.099   6.680   9.919 -0.9197 -0.1370 -0.8024
  115OSM    H9S12024   1.993   6.712   9.906 -1.1003  0.4204  1.5792
  115OSM    H9T12025   2.104   6.574   9.951 -1.3713  0.2627  0.6258
  115OSM   C10S12026   2.184   6.693   9.787 -0.0250  0.9486  0.8793
  115OSM   H10S12027   2.142   6.621   9.714  1.0598  2.4196 -1.2931
  115OSM   H10T12028   2.290   6.660   9.794  0.4340  1.8615 -1.0158
  115OSM   C11S12029   2.169   6.844   9.730  0.2795  0.4010  0.4704
  115OSM   H11S12030   2.226   6.900   9.807 -1.4459 -1.8736  3.6556
  115OSM   H11T12031   2.059   6.857   9.741  0.1077 -0.4895 -0.0661
  115OSM   C12S12032   2.212   6.864   9.587  0.5541 -0.1168 -0.3134
  115OSM   H12S12033   2.323   6.870   9.582  0.4947  2.7979  0.0380
  115OSM   H12T12034   2.175   6.966   9.561 -1.0947 -0.4447  0.5659
  115OSM   C13S12035   2.167   6.761   9.481 -0.2576 -0.0539  0.9074
  115OSM   H13S12036   2.056   6.752   9.489 -0.3859 -0.7208 -1.1698
  115OSM   H13T12037   2.216   6.663   9.504 -2.1730 -1.1621  0.5143
  115OSM   C14S12038   2.201   6.815   9.341 -0.1238  0.0371 -0.6421
  115OSM   H14S12039   2.171   6.921   9.327  3.7127  1.5097  0.9536
  115OSM   H14T12040   2.149   6.745   9.271  1.9103 -0.2597 -1.9507
  115OSM   C15S12041   2.349   6.812   9.304  0.0718  1.2815 -0.3221
  115OSM   H15S12042   2.403   6.719   9.332 -3.0305 -1.0819 -1.5729
  115OSM   H15T12043   2.402   6.893   9.358 -1.1709  1.4199  0.7404
  115OSM   C16S12044   2.367   6.834   9.147  0.2399 -0.5727  0.5891
  115OSM   H16S12045   2.316   6.931   9.128  0.7445 -0.6307 -1.1955
  115OSM   H16T12046   2.304   6.761   9.092 -1.5308  0.8610  0.6510
  115OSM   C17S12047   2.513   6.841   9.097  0.4482 -0.0458  0.5547
  115OSM   H17S12048   2.559   6.748   9.138 -0.4060 -0.7081  0.0731
  115OSM   H17T12049   2.578   6.922   9.136 -1.0508  1.7002 -0.4350
  115OSM   C18S12050   2.515   6.836   8.944 -0.0325 -0.1616  0.2651
  115OSM   H18S12051   2.483   6.739   8.899  0.0491 -0.1989  0.2876
  115OSM   H18T12052   2.618   6.853   8.908 -0.7032  1.1082 -1.1887
  115OSM   H18U12053   2.453   6.923   8.913  1.1373  0.2372 -1.0541
  115OSM    C1F12054   1.832   6.345  10.447  0.6096  0.9224  0.3269
  115OSM     OF12055   1.733   6.379  10.509  0.4510  0.3463  0.3505
  115OSM    C2F12056   1.831   6.255  10.323  0.0097 -0.0943  0.3962
  115OSM    H2F12057   1.876   6.161  10.360  0.5594 -0.0639 -0.1743
  115OSM    H2G12058   1.887   6.308  10.244  0.6094 -0.6210  0.4621
  115OSM    C3F12059   1.686   6.222  10.272  0.5141 -0.1046 -1.0571
  115OSM    H3F12060   1.632   6.315  10.244 -0.0164 -0.1471 -0.1991
  115OSM    H3G12061   1.623   6.193  10.359  2.1730  1.0707  0.6183
  115OSM    C4F12062   1.667   6.111  10.163  0.4157 -0.0430 -0.2823
  115OSM    H4F12063   1.559   6.091  10.147  0.8590 -2.2458 -0.9088
  115OSM    H4G12064   1.708   6.020  10.212 -2.0570 -0.3557  1.3944
  115OSM    C5F12065   1.748   6.120  10.035  0.1408  0.7546  0.3732
  115OSM    H5F12066   1.727   6.030   9.974 -1.7428  0.3518  1.5517
  115OSM    H5G12067   1.854   6.136  10.066  0.1074  2.5671 -0.3214
  115OSM    C6F12068   1.714   6.235   9.942  0.3848 -0.3162  0.4343
  115OSM    H6F12069   1.719   6.325  10.007  1.3491 -1.4992  2.0987
  115OSM    H6G12070   1.609   6.233   9.907  0.1775 -2.4726  1.0305
  115OSM    C7F12071   1.820   6.244   9.828 -0.0452 -0.2143  0.5070
  115OSM    H7F12072   1.807   6.158   9.760 -2.7740  0.3404  0.2016
  115OSM    H7G12073   1.920   6.245   9.876 -0.2412 -1.2215  0.9729
  115OSM    C8F12074   1.784   6.369   9.747  0.1476  0.7086 -0.3955
  115OSM    H8F12075   1.776   6.461   9.809 -1.1649 -0.3332  1.0442
  115OSM    H8G12076   1.680   6.363   9.707  0.6032  1.0309 -1.6995
  115OSM    C9F12077   1.898   6.391   9.647 -1.0390  0.3598 -0.5867
  115OSM    H9F12078   1.994   6.400   9.700 -0.5869  2.7689 -1.7053
  115OSM   C10F12079   1.905   6.391   9.511  0.6003 -0.3958  0.4388
  115OSM   H10F12080   2.004   6.414   9.468  0.7631 -1.9338 -0.0847
  115OSM   C11F12081   1.799   6.360   9.408  0.8647 -0.1668 -0.1331
  115OSM   H11F12082   1.698   6.382   9.449  1.5085  2.1830  0.3524
  115OSM   H11G12083   1.800   6.253   9.376  2.0106 -0.0816 -0.4055
  115OSM   C12F12084   1.810   6.449   9.281 -0.0994  0.3333  0.6973
  115OSM   H12F12085   1.803   6.554   9.315 -2.0509  0.4985 -0.0369
  115OSM   H12G12086   1.714   6.419   9.233 -0.6924 -2.3756  3.2857
  115OSM   C13F12087   1.923   6.435   9.182 -0.6113  0.8551 -0.1123
  115OSM   H13F12088   1.925   6.331   9.143 -3.3732  0.9936 -0.8487
  115OSM   H13G12089   2.009   6.451   9.249 -0.9664 -2.0329  1.1952
  115OSM   C14F12090   1.911   6.517   9.059 -0.0114  0.3295  0.3446
  115OSM   H14F12091   1.939   6.622   9.080 -1.4326  1.2535 -1.9880
  115OSM   H14G12092   1.813   6.500   9.010  0.7280 -1.6783 -0.5803
  115OSM   C15F12093   2.023   6.481   8.959 -0.2108 -0.5209 -0.0648
  115OSM   H15F12094   1.973   6.421   8.881  0.2718  0.4976 -1.1829
  115OSM   H15G12095   2.097   6.418   9.013  0.7268 -0.5691 -1.3574
  115OSM   C16F12096   2.099   6.605   8.892  0.0923 -1.0192  0.0190
  115OSM   H16F12097   2.143   6.665   8.974  0.7178 -1.2517 -0.1419
  115OSM   H16G12098   2.030   6.670   8.835  1.7722  0.3176 -0.5495
  115OSM   C17F12099   2.224   6.561   8.818  0.5300  0.4498 -0.1992
  115OSM   H17F12100   2.196   6.473   8.756 -1.4281  0.5075  0.5384
  115OSM   H17G12101   2.312   6.526   8.876  0.7170  0.0568 -0.7101
  115OSM   C18F12102   2.269   6.665   8.726 -0.0526  0.1311 -0.2957
  115OSM   H18F12103   2.201   6.663   8.638  2.1124 -2.9079 -2.1025
  115OSM   H18G12104   2.374   6.645   8.694  1.0309 -1.3970  3.6265
  115OSM   H18H12105   2.262   6.763   8.777  1.4032  0.1454 -0.0783
  116OSM      N12106   6.131   2.708  11.359 -0.0391  0.6412 -0.2187
  116OSM    C1512107   6.124   2.557  11.369  0.1203 -0.1942 -0.8417
  116OSM   H15A12108   6.029   2.520  11.405 -0.5194  0.3104 -1.9698
  116OSM   H15B12109   6.192   2.524  11.446 -0.2698  0.1556 -0.3395
  116OSM   H15C12110   6.141   2.509  11.274 -0.3319 -0.3365 -0.8517
  116OSM    C1412111   6.121   2.773  11.495  0.0375 -0.3960 -0.0122
  116OSM   H14A12112   6.022   2.766  11.537 -1.0908  0.2915 -2.3869
  116OSM   H14B12113   6.147   2.876  11.477 -0.3230 -0.1388  0.9023
  116OSM   H14C12114   6.183   2.725  11.569 -0.0758 -1.0436 -0.3259
  116OSM    C1312115   6.265   2.734  11.299 -0.3090 -0.1580  0.4072
  116OSM   H13A12116   6.284   2.840  11.301  0.2522 -0.2618  1.1227
  116OSM   H13B12117   6.271   2.696  11.198 -1.7890 -1.8427  0.9080
  116OSM   H13C12118   6.337   2.681  11.359 -0.1011 -0.1851  0.1392
  116OSM    C1212119   6.023   2.759  11.262 -0.0816  0.2669 -0.0070
  116OSM   H12A12120   5.929   2.725  11.303  0.3713  1.5196  2.2470
  116OSM   H12B12121   6.031   2.721  11.161 -0.9394 -0.5331  0.2129
  116OSM    C1112122   6.012   2.913  11.266 -0.4589 -0.0403 -0.0999
  116OSM   H11A12123   5.982   2.946  11.368  1.4369  1.6178 -0.0072
  116OSM   H11B12124   5.926   2.938  11.201  0.7930  2.1497 -1.0391
  116OSM      P12125   6.162   2.982  11.061  0.0948 -0.5905  0.1707
  116OSM    O1312126   6.304   3.020  11.051  0.0901  0.3266 -0.0182
  116OSM    O1412127   6.121   2.862  10.981  0.4364  0.7592  0.1559
  116OSM    O1112128   6.086   3.115  11.011  0.4726 -0.4260 -0.0712
  116OSM    O1212129   6.126   2.975  11.212 -0.5919  0.5209 -0.4129
  116OSM    C1S12130   6.105   3.174  10.885 -0.4195 -0.1784  0.2420
  116OSM    H1S12131   6.205   3.158  10.839 -0.2817 -1.7405  1.0241
  116OSM    H1T12132   6.087   3.284  10.892  0.6360 -0.0520  1.3993
  116OSM     NF12133   6.022   3.172  10.650 -0.4076 -0.1709  0.2375
  116OSM    HNF12134   5.988   3.262  10.626 -0.8455  0.0598  1.6204
  116OSM    C2S12135   5.994   3.119  10.785  0.7212  0.1507  0.4837
  116OSM    H2S12136   6.014   3.010  10.781 -1.5822 -0.4018  1.9376
  116OSM    C3S12137   5.850   3.157  10.850 -0.4877 -0.8036 -0.4301
  116OSM    H3S12138   5.857   3.261  10.888  1.5937 -0.9956 -0.1722
  116OSM     O312139   5.821   3.079  10.966  0.3253  0.0490 -0.2898
  116OSM    HO312140   5.901   3.037  10.998 -0.9347 -0.5412  2.4457
  116OSM    C4S12141   5.746   3.128  10.749 -0.4615 -0.3549 -0.4088
  116OSM    H4S12142   5.722   3.022  10.728  0.1656 -0.3526 -1.1955
  116OSM    C5S12143   5.683   3.223  10.672 -0.1972 -0.4767  0.0274
  116OSM    H5S12144   5.717   3.328  10.676 -0.4799 -0.3814 -0.0324
  116OSM    C6S12145   5.577   3.195  10.566 -0.0330 -0.2139 -0.1807
  116OSM    H6S12146   5.486   3.256  10.580  0.2677  0.7101 -1.9097
  116OSM    H6T12147   5.544   3.089  10.567 -1.3968  0.1874 -0.2522
  116OSM    C7S12148   5.618   3.232  10.417  0.3169 -0.0633  0.7679
  116OSM    H7S12149   5.640   3.340  10.428  0.3455 -0.2351  2.7286
  116OSM    H7T12150   5.527   3.218  10.355  1.5253 -0.8930 -0.8899
  116OSM    C8S12151   5.730   3.159  10.348 -1.0472 -0.6343  0.2644
  116OSM    H8S12152   5.689   3.060  10.320  0.6073 -1.0649 -0.8176
  116OSM    H8T12153   5.816   3.144  10.417 -2.7925  0.2246  2.7715
  116OSM    C9S12154   5.775   3.243  10.224 -0.1358  0.1966 -0.2514
  116OSM    H9S12155   5.827   3.336  10.255  1.1904 -0.7263  0.3826
  116OSM    H9T12156   5.689   3.268  10.158 -0.0873  1.0657  0.0067
  116OSM   C10S12157   5.862   3.164  10.128  0.7551  0.2186  0.2044
  116OSM   H10S12158   5.818   3.068  10.092  1.2316  0.7159 -1.8214
  116OSM   H10T12159   5.950   3.127  10.186  0.6159 -0.0235  0.2643
  116OSM   C11S12160   5.904   3.231  10.004  0.8480  0.3654  0.6855
  116OSM   H11S12161   5.962   3.326  10.012  0.7123  0.3029  3.0084
  116OSM   H11T12162   5.810   3.249   9.948 -0.2429  0.2677  2.3986
  116OSM   C12S12163   5.992   3.136   9.914  0.1364 -0.1431  0.1853
  116OSM   H12S12164   5.932   3.044   9.899  0.0641  0.1671 -1.7843
  116OSM   H12T12165   6.085   3.111   9.970 -0.1364  0.4155  0.8858
  116OSM   C13S12166   6.040   3.199   9.775 -0.8621  0.1336  0.4868
  116OSM   H13S12167   6.100   3.112   9.740  0.1817  0.1747  2.0658
  116OSM   H13T12168   6.111   3.284   9.779 -0.6963 -0.0378  3.2106
  116OSM   C14S12169   5.931   3.221   9.674 -0.1553  0.2524  0.3708
  116OSM   H14S12170   5.854   3.297   9.701 -1.8439 -1.4672  0.6358
  116OSM   H14T12171   5.879   3.123   9.670  3.5454 -2.0246  2.4034
  116OSM   C15S12172   5.982   3.260   9.535  0.2006  0.8039 -0.0250
  116OSM   H15S12173   6.057   3.342   9.533 -0.2463  1.2344  0.6176
  116OSM   H15T12174   5.899   3.303   9.473  1.0378  1.4045 -0.7608
  116OSM   C16S12175   6.056   3.144   9.459  0.3188 -1.2424 -0.6033
  116OSM   H16S12176   6.001   3.048   9.461 -1.3947 -0.3369 -1.6723
  116OSM   H16T12177   6.147   3.133   9.521 -0.6497  1.9410  1.6762
  116OSM   C17S12178   6.102   3.176   9.318  0.1545 -0.0966  0.3108
  116OSM   H17S12179   6.181   3.254   9.320 -0.6937  0.7875  1.0076
  116OSM   H17T12180   6.021   3.217   9.253  0.2005 -0.2628  0.1476
  116OSM   C18S12181   6.171   3.061   9.245 -0.4176 -0.1849 -0.1543
  116OSM   H18S12182   6.099   2.982   9.214 -1.2481  0.0107  1.1987
  116OSM   H18T12183   6.233   3.009   9.320  1.3876 -0.2521 -1.6376
  116OSM   H18U12184   6.235   3.095   9.161 -1.9921  0.9313 -0.9760
  116OSM    C1F12185   6.126   3.128  10.571 -1.1833 -0.0362 -0.1424
  116OSM     OF12186   6.201   3.040  10.614 -0.0865  0.3298 -0.6196
  116OSM    C2F12187   6.158   3.195  10.448  0.2964 -0.1036 -0.2815
  116OSM    H2F12188   6.206   3.293  10.471 -0.1605 -0.3984  2.2496
  116OSM    H2G12189   6.059   3.209  10.401 -0.0743  1.2727  0.8325
  116OSM    C3F12190   6.251   3.113  10.353 -0.5369  0.0085 -0.0632
  116OSM    H3F12191   6.206   3.019  10.317  2.7388 -1.3084 -1.1021
  116OSM    H3G12192   6.347   3.083  10.402  1.7121  1.1140 -3.4189
  116OSM    C4F12193   6.299   3.200  10.239  0.3801  0.0990 -0.2952
  116OSM    H4F12194   6.360   3.283  10.280  1.6578 -1.7890  1.8651
  116OSM    H4G12195   6.209   3.234  10.183  1.2546  1.1865 -1.0913
  116OSM    C5F12196   6.384   3.119  10.140 -1.2226  0.0819  0.6660
  116OSM    H5F12197   6.321   3.039  10.097 -1.4945  0.0057  1.1864
  116OSM    H5G12198   6.469   3.067  10.188 -0.3076  0.4464 -0.5165
  116OSM    C6F12199   6.437   3.202  10.024 -0.6356 -0.6505 -0.6021
  116OSM    H6F12200   6.530   3.253  10.057 -0.4243 -0.4526 -1.4839
  116OSM    H6G12201   6.367   3.283   9.994 -0.5156  0.5074  2.0011
  116OSM    C7F12202   6.458   3.106   9.905  0.3550 -0.0542 -0.0336
  116OSM    H7F12203   6.368   3.051   9.871 -0.3021  1.9031 -1.6446
  116OSM    H7G12204   6.538   3.032   9.926  0.7658  0.3380 -0.1910
  116OSM    C8F12205   6.521   3.187   9.785 -0.0661 -0.4361  0.7424
  116OSM    H8F12206   6.553   3.106   9.716 -0.6607 -1.6660  1.8640
  116OSM    H8G12207   6.610   3.240   9.824 -0.2185  0.6597 -0.3610
  116OSM    C9F12208   6.427   3.286   9.711 -0.2992 -0.0818 -0.4502
  116OSM    H9F12209   6.377   3.359   9.777 -1.0936 -3.2801  2.7918
  116OSM   C10F12210   6.418   3.293   9.578  0.0434  0.5865 -0.1041
  116OSM   H10F12211   6.338   3.353   9.532  1.8720  0.9849 -3.0571
  116OSM   C11F12212   6.480   3.205   9.478 -0.4246  0.0051 -0.2151
  116OSM   H11F12213   6.411   3.120   9.460  0.3834 -0.5791 -0.6233
  116OSM   H11G12214   6.581   3.167   9.508  0.0153 -1.0712 -2.8295
  116OSM   C12F12215   6.511   3.275   9.337  0.9799 -0.3511  0.0052
  116OSM   H12F12216   6.591   3.350   9.354  0.0326  0.2296  2.1883
  116OSM   H12G12217   6.413   3.323   9.318 -1.2981 -3.6050  2.3272
  116OSM   C13F12218   6.551   3.186   9.220  0.6609 -0.0890 -0.2381
  116OSM   H13F12219   6.476   3.104   9.227 -0.5415  1.1471  3.1330
  116OSM   H13G12220   6.649   3.147   9.257  0.2066  0.2858  1.4459
  116OSM   C14F12221   6.572   3.267   9.098 -0.4373  0.1736  0.8792
  116OSM   H14F12222   6.644   3.349   9.119 -1.2794  1.0320  0.4963
  116OSM   H14G12223   6.478   3.321   9.071  1.0214  1.6032 -1.7774
  116OSM   C15F12224   6.627   3.182   8.980 -0.7110  0.0733  0.0654
  116OSM   H15F12225   6.552   3.100   8.986 -1.4858  0.8458  1.3231
  116OSM   H15G12226   6.723   3.138   9.015  0.8453  3.4143  0.3752
  116OSM   C16F12227   6.658   3.247   8.848 -0.7998  0.7894 -0.8875
  116OSM   H16F12228   6.699   3.170   8.778  0.3504 -0.8896  1.4826
  116OSM   H16G12229   6.730   3.332   8.842 -0.6322  0.6250 -1.2784
  116OSM   C17F12230   6.533   3.312   8.779 -1.0108 -0.1127  0.5189
  116OSM   H17F12231   6.515   3.409   8.830 -1.4335  0.3891 -0.5664
  116OSM   H17G12232   6.433   3.266   8.796 -1.6749  1.5807  1.4617
  116OSM   C18F12233   6.544   3.346   8.630 -0.8874  0.1333 -0.2121
  116OSM   H18F12234   6.443   3.377   8.597 -1.4213  0.8989  1.9582
  116OSM   H18G12235   6.588   3.260   8.576  1.5407  0.7691  0.6061
  116OSM   H18H12236   6.606   3.437   8.620  0.6228 -0.9228 -0.8022
  117OSM      N12237   2.232   1.960  11.306  0.1246 -0.0543 -0.3380
  117OSM    C1512238   2.371   1.936  11.343 -0.6867 -0.3463  0.2914
  117OSM   H15A12239   2.409   1.879  11.260 -2.6261 -0.0275 -0.8946
  117OSM   H15B12240   2.376   1.873  11.430  2.7678  0.9545  1.1890
  117OSM   H15C12241   2.427   2.028  11.348 -2.1766  0.5511  1.3171
  117OSM    C1412242   2.165   1.830  11.331  0.6531  0.0768  0.0935
  117OSM   H14A12243   2.066   1.833  11.288  0.0097 -3.8552  0.9078
  117OSM   H14B12244   2.155   1.798  11.434  1.0331 -0.5910 -0.0769
  117OSM   H14C12245   2.218   1.750  11.283  0.9260 -0.5266  1.3502
  117OSM    C1312246   2.177   2.060  11.391  0.0674 -0.3961  0.2632
  117OSM   H13A12247   2.233   2.152  11.382  0.1631 -0.4744  0.0495
  117OSM   H13B12248   2.174   2.026  11.494 -0.6272  0.2202  0.4549
  117OSM   H13C12249   2.075   2.088  11.368 -0.4304 -0.7773  1.8504
  117OSM    C1212250   2.220   1.999  11.153  0.2884  0.1591 -0.3672
  117OSM   H12A12251   2.303   2.064  11.131  0.2517  0.4345  0.2755
  117OSM   H12B12252   2.125   2.049  11.143  0.5397  0.4038 -1.6973
  117OSM    C1112253   2.216   1.895  11.049  0.6948 -0.1611 -0.2101
  117OSM   H11A12254   2.216   1.940  10.948 -0.2475  2.6156  0.9237
  117OSM   H11B12255   2.131   1.824  11.048  0.7690 -0.2611 -1.8259
  117OSM      P12256   2.351   1.671  11.039 -0.3498 -0.3746  0.0399
  117OSM    O1312257   2.498   1.646  11.028  0.6767  0.1834  0.4585
  117OSM    O1412258   2.276   1.594  11.137  0.7805  0.7075  0.0231
  117OSM    O1112259   2.278   1.647  10.903 -0.3672 -0.2854 -0.2244
  117OSM    O1212260   2.342   1.829  11.067  0.7779  0.0143  0.6425
  117OSM    C1S12261   2.306   1.730  10.787  0.1430  0.0573  0.5070
  117OSM    H1S12262   2.372   1.812  10.822 -1.4570  1.6511 -0.0307
  117OSM    H1T12263   2.218   1.791  10.758  1.5626  1.0312 -1.9966
  117OSM     NF12264   2.413   1.738  10.557  0.9119 -0.2556  0.0900
  117OSM    HNF12265   2.357   1.749  10.475  0.5475  0.3397  0.4140
  117OSM    C2S12266   2.354   1.650  10.661 -0.6160  0.1346 -0.2481
  117OSM    H2S12267   2.442   1.591  10.694  1.1721  2.8452  0.1466
  117OSM    C3S12268   2.241   1.559  10.609 -0.3672  0.3158 -0.1488
  117OSM    H3S12269   2.161   1.627  10.572 -0.3033 -0.0279 -0.9351
  117OSM     O312270   2.198   1.474  10.713 -0.6465  0.7139 -0.5967
  117OSM    HO312271   2.237   1.495  10.798 -1.5347 -2.7518  0.8839
  117OSM    C4S12272   2.293   1.486  10.492  0.1776 -1.1659 -0.4947
  117OSM    H4S12273   2.267   1.537  10.399  0.5029 -1.9825 -1.0503
  117OSM    C5S12274   2.344   1.360  10.479  0.1293 -0.3851  0.1808
  117OSM    H5S12275   2.353   1.306  10.575 -1.1281  0.0797  0.5797
  117OSM    C6S12276   2.384   1.292  10.350  0.1589 -0.0417 -1.0276
  117OSM    H6S12277   2.330   1.196  10.335 -0.9190 -0.1629  2.6866
  117OSM    H6T12278   2.492   1.267  10.341  0.4611  1.3589 -1.4112
  117OSM    C7S12279   2.353   1.354  10.207  0.0499  0.3901 -0.0854
  117OSM    H7S12280   2.252   1.398  10.194  0.4732  0.7821 -2.4879
  117OSM    H7T12281   2.338   1.272  10.134 -1.7166  0.1848  0.4640
  117OSM    C8S12282   2.456   1.445  10.156 -0.7264 -0.5728 -0.5211
  117OSM    H8S12283   2.552   1.390  10.149  0.4025  1.3708 -0.8316
  117OSM    H8T12284   2.468   1.534  10.221 -1.1218 -0.1283 -1.0525
  117OSM    C9S12285   2.442   1.489  10.013  0.3551  0.6589  0.0888
  117OSM    H9S12286   2.409   1.403   9.951  3.0005 -0.2084 -0.2312
  117OSM    H9T12287   2.531   1.538   9.968 -1.2890  2.3928 -1.4916
  117OSM   C10S12288   2.335   1.600   9.989 -0.1874  0.4606  0.3192
  117OSM   H10S12289   2.390   1.686  10.031 -1.7820  1.3757  0.6458
  117OSM   H10T12290   2.244   1.592  10.053  1.0353 -1.8610  1.9593
  117OSM   C11S12291   2.294   1.623   9.848  0.0274  0.4502 -0.5843
  117OSM   H11S12292   2.227   1.711   9.839  0.7397  1.0164 -0.4548
  117OSM   H11T12293   2.254   1.525   9.813  0.9850 -0.0112 -0.4310
  117OSM   C12S12294   2.410   1.656   9.760 -0.2197 -0.3848  0.0028
  117OSM   H12S12295   2.486   1.575   9.759 -1.6800 -1.8099 -0.5646
  117OSM   H12T12296   2.461   1.742   9.809 -1.3601  0.4925 -0.3098
  117OSM   C13S12297   2.376   1.689   9.616  0.2940  0.0227  0.3423
  117OSM   H13S12298   2.297   1.767   9.615  1.6567  1.4559  0.4373
  117OSM   H13T12299   2.343   1.600   9.559  0.9198  1.0256 -1.6530
  117OSM   C14S12300   2.494   1.757   9.539 -0.3013  0.2821  0.0307
  117OSM   H14S12301   2.585   1.694   9.553  0.1746  1.1109  0.7573
  117OSM   H14T12302   2.519   1.851   9.593 -0.6821 -0.8450  2.2731
  117OSM   C15S12303   2.475   1.784   9.390  0.6801  0.2923 -0.4067
  117OSM   H15S12304   2.386   1.847   9.367 -1.8087 -2.2085  1.5127
  117OSM   H15T12305   2.457   1.689   9.334 -1.5411  0.9286 -0.8915
  117OSM   C16S12306   2.597   1.846   9.326  0.1355 -0.1825 -0.2570
  117OSM   H16S12307   2.691   1.788   9.334  0.5519 -0.0850 -3.3654
  117OSM   H16T12308   2.615   1.947   9.369  2.4867 -0.3969 -0.6436
  117OSM   C17S12309   2.581   1.864   9.172 -0.3755  0.3902 -0.2041
  117OSM   H17S12310   2.547   1.769   9.127 -1.3202 -0.9312  3.0523
  117OSM   H17T12311   2.681   1.892   9.131 -1.2613 -0.3216 -3.0798
  117OSM   C18S12312   2.492   1.978   9.127 -0.2998  0.0073  0.0661
  117OSM   H18S12313   2.394   1.958   9.177 -0.3027 -1.8070 -0.5800
  117OSM   H18T12314   2.467   1.978   9.019  0.1517  0.6885 -0.0433
  117OSM   H18U12315   2.530   2.076   9.163 -0.7797  0.9541 -1.8973
  117OSM    C1F12316   2.523   1.813  10.572  0.2790  0.3637 -0.7270
  117OSM     OF12317   2.598   1.804  10.669 -0.1281 -0.1353  0.4013
  117OSM    C2F12318   2.549   1.925  10.467  0.5053 -1.0926  0.5062
  117OSM    H2F12319   2.565   2.024  10.515 -0.1249 -0.6362 -0.2125
  117OSM    H2G12320   2.460   1.932  10.401 -0.8072 -2.8014  1.9647
  117OSM    C3F12321   2.668   1.885  10.378 -0.6269  0.4109  0.3228
  117OSM    H3F12322   2.755   1.847  10.435 -1.0010  1.0534  1.3449
  117OSM    H3G12323   2.700   1.974  10.319 -1.4218 -0.6648 -1.8585
  117OSM    C4F12324   2.647   1.780  10.263  1.0189 -0.3999 -0.3727
  117OSM    H4F12325   2.568   1.827  10.200 -0.0035 -1.3436  0.1713
  117OSM    H4G12326   2.585   1.702  10.312 -3.6591  4.0521  1.7113
  117OSM    C5F12327   2.766   1.745  10.172  0.5344  0.0165 -0.1669
  117OSM    H5F12328   2.718   1.703  10.081  0.1310 -0.6015  0.3255
  117OSM    H5G12329   2.847   1.682  10.213  2.1471  2.2312  0.2637
  117OSM    C6F12330   2.851   1.863  10.116  0.2185  0.4383  0.1682
  117OSM    H6F12331   2.899   1.921  10.198  0.3244 -1.0483  1.2042
  117OSM    H6G12332   2.786   1.923  10.049 -0.6071 -2.2796 -1.6084
  117OSM    C7F12333   2.961   1.809  10.020 -0.2621  1.1880 -0.1456
  117OSM    H7F12334   2.991   1.888   9.948  1.6187  0.8589  0.2359
  117OSM    H7G12335   2.928   1.718   9.965  1.6446  0.7748 -0.6959
  117OSM    C8F12336   3.097   1.768  10.095 -0.5277 -0.3709  0.1384
  117OSM    H8F12337   3.071   1.705  10.182 -0.6241 -0.3995  0.0888
  117OSM    H8G12338   3.144   1.858  10.141  0.5376 -0.8962  0.1157
  117OSM    C9F12339   3.193   1.697  10.009 -0.4392 -0.2319 -0.2102
  117OSM    H9F12340   3.166   1.590  10.012 -0.9298 -0.1128 -0.3234
  117OSM   C10F12341   3.317   1.722   9.951  0.3776  0.1836 -0.4745
  117OSM   H10F12342   3.367   1.634   9.907  1.3577 -0.7264  2.2663
  117OSM   C11F12343   3.385   1.859   9.964 -0.6805 -0.3657  0.8873
  117OSM   H11F12344   3.488   1.846  10.004  0.0020 -2.8081 -1.4040
  117OSM   H11G12345   3.330   1.912  10.045  0.9845  0.8457  1.2699
  117OSM   C12F12346   3.388   1.952   9.842 -0.5782  0.3527  0.6529
  117OSM   H12F12347   3.412   2.050   9.889  0.4087  0.7124 -0.5434
  117OSM   H12G12348   3.282   1.962   9.813 -0.4401  0.7794  0.2879
  117OSM   C13F12349   3.484   1.915   9.732  0.0139 -0.0137 -0.5542
  117OSM   H13F12350   3.463   1.812   9.695 -1.8113  0.0930  0.0820
  117OSM   H13G12351   3.583   1.913   9.781 -0.1633  0.1454 -0.1875
  117OSM   C14F12352   3.481   2.016   9.616  0.0593 -0.5130  0.1560
  117OSM   H14F12353   3.521   2.113   9.651  1.9329 -0.2964 -2.3269
  117OSM   H14G12354   3.375   2.033   9.586  0.5328  1.6248 -0.4498
  117OSM   C15F12355   3.554   1.967   9.496 -0.2627 -0.5400  0.5244
  117OSM   H15F12356   3.509   1.872   9.458  0.9606 -0.6022 -0.8333
  117OSM   H15G12357   3.657   1.935   9.522  0.5501  1.6125  0.1088
  117OSM   C16F12358   3.564   2.071   9.388  0.0987 -0.2162  0.6660
  117OSM   H16F12359   3.651   2.046   9.323 -1.6554 -2.1896 -1.0567
  117OSM   H16G12360   3.597   2.164   9.438  0.2074 -0.6029  1.3310
  117OSM   C17F12361   3.443   2.084   9.298 -0.0685  0.7537  0.2176
  117OSM   H17F12362   3.465   2.141   9.206 -1.2303  1.4169  0.3267
  117OSM   H17G12363   3.368   2.143   9.356 -0.9805  0.4684 -0.6414
  117OSM   C18F12364   3.369   1.954   9.254 -0.2212  0.4910 -0.3747
  117OSM   H18F12365   3.271   1.985   9.211 -0.1446 -0.7769 -1.5597
  117OSM   H18G12366   3.336   1.885   9.334  0.4824  1.9469  1.2165
  117OSM   H18H12367   3.422   1.893   9.177  1.0081 -0.6339  1.2862
  118OSM      N12368   2.236   4.734  11.431  0.0038 -0.1104  0.8585
  118OSM    C1512369   2.327   4.652  11.521  0.2639  0.5565 -0.1016
  118OSM   H15A12370   2.271   4.569  11.562  0.6139 -0.0550 -0.8392
  118OSM   H15B12371   2.363   4.708  11.606  0.8146 -0.5676  0.4122
  118OSM   H15C12372   2.411   4.619  11.463 -0.5355 -1.5943 -0.1403
  118OSM    C1412373   2.124   4.800  11.513  0.2799 -0.2058  0.3499
  118OSM   H14A12374   2.063   4.719  11.551 -3.5831  2.2943  0.0549
  118OSM   H14B12375   2.054   4.861  11.458 -0.4299  0.3423  1.7959
  118OSM   H14C12376   2.156   4.870  11.589  0.5548 -0.4444  0.4545
  118OSM    C1312377   2.316   4.848  11.373 -0.2882 -0.9187  1.0600
  118OSM   H13A12378   2.351   4.915  11.451  3.6757 -0.6754 -0.6534
  118OSM   H13B12379   2.254   4.910  11.311  2.5476  1.3044  0.2103
  118OSM   H13C12380   2.394   4.819  11.303 -1.7273 -0.9056 -0.6159
  118OSM    C1212381   2.173   4.649  11.322  0.3138  0.0242  0.1551
  118OSM   H12A12382   2.108   4.583  11.379  2.1165 -1.6594  0.3811
  118OSM   H12B12383   2.248   4.593  11.267  0.9135  0.4309  0.5522
  118OSM    C1112384   2.081   4.720  11.219 -0.8020  0.0699 -0.0217
  118OSM   H11A12385   2.009   4.785  11.272 -0.8454 -1.3638  1.7674
  118OSM   H11B12386   2.020   4.648  11.160 -1.1180  0.4137 -0.1175
  118OSM      P12387   2.121   4.929  11.062 -0.4693 -0.0994 -0.0321
  118OSM    O1312388   1.972   4.945  11.068  0.8394  0.4436  0.1263
  118OSM    O1412389   2.206   5.031  11.128  0.0208 -1.0124 -0.2924
  118OSM    O1112390   2.149   4.923  10.903 -0.3601 -0.0503 -0.4638
  118OSM    O1212391   2.168   4.783  11.119  0.3158  0.2084  0.0208
  118OSM    C1S12392   2.128   4.797  10.839 -0.1858 -0.1019  0.5272
  118OSM    H1S12393   2.022   4.765  10.847 -0.2311 -0.0248  0.2784
  118OSM    H1T12394   2.191   4.717  10.882 -1.7211 -0.2415  2.7104
  118OSM     NF12395   2.099   4.718  10.601 -0.5070  0.2291 -1.0012
  118OSM    HNF12396   2.151   4.643  10.560  1.4254  2.0582 -2.1353
  118OSM    C2S12397   2.168   4.814  10.690  0.9041  0.1810 -0.3226
  118OSM    H2S12398   2.138   4.914  10.652 -1.2446 -0.0929  0.5510
  118OSM    C3S12399   2.320   4.809  10.677 -0.2491  0.1425  0.5525
  118OSM    H3S12400   2.338   4.706  10.715 -1.0989  0.6387  2.3691
  118OSM     O312401   2.399   4.886  10.767  0.5852  0.4400 -0.2989
  118OSM    HO312402   2.337   4.941  10.816  0.2107 -1.8369  1.9534
  118OSM    C4S12403   2.358   4.830  10.530  0.4830  0.1203 -0.0001
  118OSM    H4S12404   2.374   4.737  10.474  1.7368  0.0591  0.4304
  118OSM    C5S12405   2.391   4.937  10.459  0.3415 -0.0268  0.7695
  118OSM    H5S12406   2.417   5.031  10.511  0.6457  1.5532 -2.0430
  118OSM    C6S12407   2.417   4.935  10.315  0.0129  0.3263  0.7292
  118OSM    H6S12408   2.525   4.954  10.297 -0.1547 -0.9715 -2.1532
  118OSM    H6T12409   2.357   5.019  10.274 -1.2899 -0.4193  1.0802
  118OSM    C7S12410   2.388   4.806  10.243 -0.2510 -0.4151  0.0204
  118OSM    H7S12411   2.282   4.773  10.249 -0.3204 -0.1650  0.1905
  118OSM    H7T12412   2.452   4.729  10.291 -1.4151 -1.7444 -0.4924
  118OSM    C8S12413   2.432   4.817  10.095 -0.3071 -0.1318  0.0037
  118OSM    H8S12414   2.432   4.715  10.052 -0.9618 -0.1008 -0.0856
  118OSM    H8T12415   2.525   4.876  10.079 -1.1207  1.4634  0.8330
  118OSM    C9S12416   2.324   4.887  10.015 -0.2209 -0.0062 -0.0592
  118OSM    H9S12417   2.325   4.997  10.035  1.2384  0.7327 -3.4559
  118OSM    H9T12418   2.229   4.840  10.048  1.0647 -2.2500  0.6677
  118OSM   C10S12419   2.335   4.885   9.861 -0.3633 -0.0819  0.1814
  118OSM   H10S12420   2.243   4.919   9.810 -1.9754 -2.1238  1.5659
  118OSM   H10T12421   2.323   4.776   9.847 -0.8652 -0.0333  0.2427
  118OSM   C11S12422   2.463   4.954   9.801 -0.2883 -0.2056 -0.3917
  118OSM   H11S12423   2.554   4.924   9.857 -0.3056  1.2512  0.4656
  118OSM   H11T12424   2.467   5.064   9.814  1.0264 -0.3066  0.2212
  118OSM   C12S12425   2.480   4.920   9.648 -0.7283  0.2537  0.2555
  118OSM   H12S12426   2.425   4.996   9.588 -0.2737  0.8750  0.6108
  118OSM   H12T12427   2.439   4.818   9.631  0.0862 -0.2255  1.0736
  118OSM   C13S12428   2.626   4.910   9.592 -0.1820  0.6715 -0.9688
  118OSM   H13S12429   2.688   4.846   9.659  0.3506  1.1715 -0.9745
  118OSM   H13T12430   2.685   5.004   9.601  1.7584 -0.4914 -0.9231
  118OSM   C14S12431   2.633   4.863   9.450  0.6861  0.1950  0.1850
  118OSM   H14S12432   2.595   4.759   9.442  0.7879  0.2010 -0.3667
  118OSM   H14T12433   2.739   4.869   9.416 -0.4007  2.0199 -3.2952
  118OSM   C15S12434   2.552   4.938   9.346 -0.0835  0.1336  0.3610
  118OSM   H15S12435   2.579   5.045   9.358 -2.4150  0.6933  0.9889
  118OSM   H15T12436   2.442   4.937   9.360  0.0824 -0.2189  1.7630
  118OSM   C16S12437   2.579   4.884   9.205  0.3435 -0.2448  0.4623
  118OSM   H16S12438   2.544   4.780   9.191  0.0509 -0.2015  0.8475
  118OSM   H16T12439   2.688   4.889   9.183  0.1010 -1.6099 -1.1749
  118OSM   C17S12440   2.511   4.986   9.108  0.3478  0.6154 -0.3779
  118OSM   H17S12441   2.552   5.084   9.142 -1.8462  1.3288  0.3797
  118OSM   H17T12442   2.404   4.987   9.137  0.6547 -2.5051  1.3157
  118OSM   C18S12443   2.530   4.960   8.959  0.0287 -0.5044  0.1520
  118OSM   H18S12444   2.510   5.057   8.909  3.5049  0.8212  1.0015
  118OSM   H18T12445   2.453   4.888   8.925 -0.3662  0.1164 -0.2764
  118OSM   H18U12446   2.636   4.930   8.942  0.2050 -1.4187  2.5661
  118OSM    C1F12447   1.970   4.717  10.580  0.1585 -0.1412  0.7561
  118OSM     OF12448   1.890   4.798  10.635  0.5392  0.4055  0.4250
  118OSM    C2F12449   1.921   4.605  10.495 -0.4806  0.4724 -0.0723
  118OSM    H2F12450   1.869   4.530  10.557  0.7191 -0.4048 -0.0811
  118OSM    H2G12451   2.011   4.556  10.451 -0.2349  1.4256 -0.6613
  118OSM    C3F12452   1.826   4.667  10.380  1.0018  0.7480 -0.4918
  118OSM    H3F12453   1.758   4.748  10.416  0.3243 -0.4155  0.9831
  118OSM    H3G12454   1.750   4.593  10.347 -0.1033  1.3734  0.5116
  118OSM    C4F12455   1.910   4.718  10.257 -0.0295 -0.4886 -0.5676
  118OSM    H4F12456   1.996   4.653  10.232  0.5287 -0.3426  0.9019
  118OSM    H4G12457   1.956   4.815  10.285  3.3074 -1.7810 -1.1206
  118OSM    C5F12458   1.829   4.758  10.140  0.4055 -0.6779  0.2946
  118OSM    H5F12459   1.751   4.828  10.179 -1.1439 -2.4683  0.5510
  118OSM    H5G12460   1.774   4.671  10.097 -2.2401  0.4906  1.0788
  118OSM    C6F12461   1.912   4.818  10.027 -0.2622 -0.1735  0.4436
  118OSM    H6F12462   1.993   4.748   9.998  0.6925  1.1704 -0.2565
  118OSM    H6G12463   1.968   4.912  10.046  0.8304 -0.8237  0.5717
  118OSM    C7F12464   1.831   4.854   9.903  0.3478 -0.2060  0.3173
  118OSM    H7F12465   1.751   4.928   9.925  0.9301  0.6162 -0.2610
  118OSM    H7G12466   1.784   4.757   9.875  1.2082 -1.4374  2.8995
  118OSM    C8F12467   1.927   4.904   9.794  0.5942 -0.1923 -0.3224
  118OSM    H8F12468   2.002   4.824   9.772  0.2650 -0.8218  0.7856
  118OSM    H8G12469   1.971   4.999   9.831 -2.9163  0.6622  2.1410
  118OSM    C9F12470   1.832   4.919   9.678 -0.3591  0.3812  0.0975
  118OSM    H9F12471   1.731   4.947   9.710 -0.2231  0.4727  0.4620
  118OSM   C10F12472   1.849   4.873   9.552 -0.0003 -0.6357 -0.5234
  118OSM   H10F12473   1.774   4.898   9.475 -1.4775 -4.9482 -0.7816
  118OSM   C11F12474   1.967   4.802   9.494  0.1006  0.2455  0.7275
  118OSM   H11F12475   1.942   4.707   9.442 -1.1671  0.9316  0.0318
  118OSM   H11G12476   2.050   4.771   9.561 -0.2791  0.6878  1.4138
  118OSM   C12F12477   2.025   4.887   9.390  0.1069 -0.1244  0.3304
  118OSM   H12F12478   2.054   4.984   9.437  2.1812 -0.7144  0.3894
  118OSM   H12G12479   1.949   4.913   9.313  1.1177  0.8660 -0.3723
  118OSM   C13F12480   2.159   4.838   9.329 -0.3462  0.7388  0.2719
  118OSM   H13F12481   2.228   4.791   9.402  1.6922 -0.5773 -2.3078
  118OSM   H13G12482   2.209   4.918   9.271  0.7275 -0.8448 -1.0999
  118OSM   C14F12483   2.143   4.718   9.231 -0.0297  0.1907 -0.1907
  118OSM   H14F12484   2.039   4.725   9.194 -0.0432  0.8333 -0.0451
  118OSM   H14G12485   2.139   4.628   9.296  1.2488  0.3175  0.0845
  118OSM   C15F12486   2.256   4.700   9.131 -0.3579 -0.4646 -0.0842
  118OSM   H15F12487   2.353   4.685   9.183  0.9999  0.1520 -2.3110
  118OSM   H15G12488   2.280   4.795   9.079  1.5706 -1.1202 -0.5195
  118OSM   C16F12489   2.228   4.589   9.032 -0.1748 -0.1310 -0.1126
  118OSM   H16F12490   2.131   4.612   8.982 -0.6394 -1.2090  0.2586
  118OSM   H16G12491   2.207   4.496   9.090  0.2933  0.1804  0.5557
  118OSM   C17F12492   2.334   4.554   8.914 -0.0340  0.4448  0.1018
  118OSM   H17F12493   2.305   4.450   8.890 -1.0588  0.8037 -0.2364
  118OSM   H17G12494   2.436   4.568   8.957  0.7280  1.0173 -1.8042
  118OSM   C18F12495   2.326   4.644   8.788 -0.1931 -0.1210  0.2781
  118OSM   H18F12496   2.253   4.594   8.722  0.5862 -2.1188  0.8680
  118OSM   H18G12497   2.421   4.649   8.730 -0.8301  0.8799 -0.7326
  118OSM   H18H12498   2.279   4.743   8.807 -0.8035 -0.4439  0.4498
  119OSM      N12499   5.678   4.811  11.170  0.2453  0.1619 -0.7639
  119OSM    C1512500   5.825   4.813  11.172  0.3954  0.1400 -0.0774
  119OSM   H15A12501   5.856   4.775  11.075 -1.7731  0.2544 -0.8677
  119OSM   H15B12502   5.868   4.769  11.260 -0.0867  1.0238  0.6135
  119OSM   H15C12503   5.850   4.918  11.178  0.8457  0.1766 -1.9894
  119OSM    C1412504   5.610   4.884  11.284  0.2372 -0.1266  0.1278
  119OSM   H14A12505   5.502   4.874  11.291  0.2321  0.1904  0.4729
  119OSM   H14B12506   5.646   4.985  11.286 -1.1318  0.3837  1.6333
  119OSM   H14C12507   5.639   4.842  11.379  2.4859  0.7786 -0.1192
  119OSM    C1312508   5.651   4.899  11.052 -0.7893 -0.2845 -1.1652
  119OSM   H13A12509   5.715   4.881  10.967  0.6198  3.0356 -0.9359
  119OSM   H13B12510   5.656   5.005  11.069 -2.0899 -0.3452 -0.2077
  119OSM   H13C12511   5.550   4.877  11.019 -1.4339  0.7423  0.0096
  119OSM    C1212512   5.633   4.671  11.141 -0.1309 -0.3304 -0.1910
  119OSM   H12A12513   5.680   4.606  11.214 -0.6136 -1.5745 -0.9519
  119OSM   H12B12514   5.671   4.648  11.042  0.5839  2.2618 -0.5878
  119OSM    C1112515   5.480   4.638  11.124 -0.4441  0.6418  0.2742
  119OSM   H11A12516   5.425   4.661  11.218 -0.3844  0.9383  0.2373
  119OSM   H11B12517   5.476   4.529  11.102  2.7666  0.3271  0.7222
  119OSM      P12518   5.294   4.786  11.025  0.8290 -0.0873  0.5979
  119OSM    O1312519   5.206   4.711  11.120 -0.2241 -0.7587 -0.5557
  119OSM    O1412520   5.302   4.929  11.050 -0.6474 -0.6274  0.5527
  119OSM    O1112521   5.254   4.761  10.868 -0.5300 -0.3434 -0.2976
  119OSM    O1212522   5.431   4.720  11.020 -0.4311 -0.1717 -0.0392
  119OSM    C1S12523   5.262   4.871  10.770  0.6236  0.3393 -0.4747
  119OSM    H1S12524   5.341   4.944  10.794 -1.0664  2.1200 -0.0507
  119OSM    H1T12525   5.166   4.925  10.756  1.0875  1.1154 -0.6761
  119OSM     NF12526   5.334   4.927  10.533  0.4789  0.3139 -0.1726
  119OSM    HNF12527   5.252   4.944  10.479 -0.9343  0.0774  1.7873
  119OSM    C2S12528   5.308   4.815  10.626  0.1992  0.2095 -0.2258
  119OSM    H2S12529   5.402   4.757  10.632  0.2822  0.4806  1.9913
  119OSM    C3S12530   5.201   4.720  10.567 -0.4905  0.3736 -0.2400
  119OSM    H3S12531   5.097   4.754  10.587 -0.0020  1.7777  0.0780
  119OSM     O312532   5.199   4.598  10.631 -0.3795 -0.1669 -0.3231
  119OSM    HO312533   5.242   4.617  10.715 -1.0367  1.6922 -0.3586
  119OSM    C4S12534   5.238   4.683  10.426  0.3640  0.8493 -0.4488
  119OSM    H4S12535   5.322   4.612  10.421 -0.7625 -0.7191  1.3942
  119OSM    C5S12536   5.167   4.707  10.315  0.1433  0.4788  0.8048
  119OSM    H5S12537   5.078   4.772  10.316 -0.3789 -0.2147  0.3899
  119OSM    C6S12538   5.205   4.654  10.174  0.4151 -0.4112  0.0577
  119OSM    H6S12539   5.232   4.736  10.105  0.5074 -0.5302 -0.0489
  119OSM    H6T12540   5.120   4.602  10.125  1.6388 -1.6847 -0.7887
  119OSM    C7S12541   5.334   4.565  10.169 -0.6364 -0.1119 -0.5343
  119OSM    H7S12542   5.304   4.465  10.209  2.3753 -1.8203 -2.2031
  119OSM    H7T12543   5.417   4.613  10.226 -1.2066  0.4547 -0.1599
  119OSM    C8S12544   5.390   4.550  10.024 -0.3543 -0.2449 -0.1579
  119OSM    H8S12545   5.369   4.645   9.972 -0.9250  0.4663  1.3058
  119OSM    H8T12546   5.343   4.460   9.978  1.5424 -1.4961  0.2394
  119OSM    C9S12547   5.535   4.506  10.020 -0.1275  0.1107 -0.4581
  119OSM    H9S12548   5.567   4.426  10.089  0.8011 -0.1107 -1.1246
  119OSM    H9T12549   5.597   4.587  10.063  0.4598 -1.8254  2.6172
  119OSM   C10S12550   5.581   4.475   9.877 -0.0963 -0.0770  0.5316
  119OSM   H10S12551   5.514   4.402   9.827  0.9815 -2.1957  2.0346
  119OSM   H10T12552   5.675   4.416   9.880  0.1918  0.4143  1.7480
  119OSM   C11S12553   5.606   4.606   9.787  0.1775  0.0985 -0.5222
  119OSM   H11S12554   5.663   4.677   9.850 -3.1379  0.9266  1.8404
  119OSM   H11T12555   5.505   4.650   9.773  0.4958  1.5427  1.2730
  119OSM   C12S12556   5.687   4.590   9.660 -0.0378  0.4601  0.8161
  119OSM   H12S12557   5.794   4.567   9.677 -0.1276  1.5471  3.2693
  119OSM   H12T12558   5.685   4.679   9.593 -1.9092 -0.5841 -0.6203
  119OSM   C13S12559   5.627   4.479   9.569 -0.1866 -0.5090  0.2187
  119OSM   H13S12560   5.522   4.512   9.554  0.2566 -0.0426 -2.2236
  119OSM   H13T12561   5.626   4.387   9.632 -0.3680  0.5896  1.8894
  119OSM   C14S12562   5.707   4.450   9.432  1.0803 -0.4985  0.6900
  119OSM   H14S12563   5.666   4.355   9.394  0.7455 -0.5339  1.1370
  119OSM   H14T12564   5.812   4.433   9.464  1.1439  2.7608  2.7437
  119OSM   C15S12565   5.694   4.559   9.325 -0.2823 -0.6198  0.5562
  119OSM   H15S12566   5.738   4.656   9.355  2.3434 -1.4021 -0.4700
  119OSM   H15T12567   5.590   4.589   9.300 -0.0850 -0.5863 -0.2386
  119OSM   C16S12568   5.775   4.515   9.199  0.0330  0.1587  0.0452
  119OSM   H16S12569   5.864   4.453   9.227  0.1490 -0.2272 -1.1390
  119OSM   H16T12570   5.807   4.605   9.143 -0.1084  0.0731 -0.1734
  119OSM   C17S12571   5.683   4.442   9.100  0.5717  0.1399 -0.2375
  119OSM   H17S12572   5.589   4.493   9.069  1.2137  1.9467  0.6237
  119OSM   H17T12573   5.649   4.351   9.153 -1.8280  1.3020  0.3901
  119OSM   C18S12574   5.739   4.404   8.958 -0.4714 -0.3797 -0.0856
  119OSM   H18S12575   5.757   4.503   8.910 -3.4280 -0.7847 -2.3304
  119OSM   H18T12576   5.671   4.345   8.893  0.5230  0.4383 -1.9523
  119OSM   H18U12577   5.840   4.357   8.958  1.0451  2.6100 -1.2478
  119OSM    C1F12578   5.429   5.017  10.546 -0.0869  0.4532  0.2206
  119OSM     OF12579   5.522   5.006  10.630  0.0922  0.1336 -0.1571
  119OSM    C2F12580   5.427   5.134  10.450 -0.0148  0.1722  0.5371
  119OSM    H2F12581   5.509   5.204  10.478 -0.2239  0.8197 -0.4173
  119OSM    H2G12582   5.330   5.183  10.473  0.0884 -0.8725  3.6326
  119OSM    C3F12583   5.433   5.097  10.295 -0.1624 -0.2152  0.5661
  119OSM    H3F12584   5.348   5.038  10.255 -0.2588 -2.1252  3.3285
  119OSM    H3G12585   5.519   5.031  10.271  0.5215  0.0929  2.0724
  119OSM    C4F12586   5.451   5.223  10.215 -0.0024 -0.2243 -0.4590
  119OSM    H4F12587   5.484   5.295  10.293 -0.2840 -1.0109  0.4022
  119OSM    H4G12588   5.347   5.248  10.184 -0.2041 -0.7747 -0.2442
  119OSM    C5F12589   5.531   5.212  10.089 -0.6150  0.7567 -0.3404
  119OSM    H5F12590   5.509   5.114  10.040 -0.3970 -0.1726  1.3396
  119OSM    H5G12591   5.635   5.211  10.127 -1.4022 -0.3114  1.9752
  119OSM    C6F12592   5.524   5.324  10.000 -0.0547  0.3046  0.5602
  119OSM    H6F12593   5.564   5.413  10.053 -1.4335  0.2247  1.8205
  119OSM    H6G12594   5.418   5.348   9.977 -0.1705 -1.1449 -0.5861
  119OSM    C7F12595   5.606   5.317   9.865  1.0422  0.3998 -1.0786
  119OSM    H7F12596   5.578   5.227   9.807  0.0815  2.1657 -3.5473
  119OSM    H7G12597   5.713   5.306   9.892  0.9352  1.2136 -0.2735
  119OSM    C8F12598   5.575   5.428   9.771  0.7287 -0.1937 -0.3742
  119OSM    H8F12599   5.571   5.516   9.838  0.7353 -0.6422  0.2169
  119OSM    H8G12600   5.473   5.422   9.727  0.9120 -0.1309 -0.8109
  119OSM    C9F12601   5.667   5.475   9.664 -0.4832  0.3122  0.3978
  119OSM    H9F12602   5.742   5.550   9.693 -0.5707  0.9589 -1.0005
  119OSM   C10F12603   5.666   5.430   9.532 -0.5952 -0.7183 -0.5268
  119OSM   H10F12604   5.742   5.476   9.467 -0.9741 -0.4347 -0.7744
  119OSM   C11F12605   5.566   5.331   9.470  0.1664  0.1727  0.0445
  119OSM   H11F12606   5.486   5.320   9.546  0.8755 -0.4489  0.7139
  119OSM   H11G12607   5.616   5.236   9.442 -0.8196 -0.5283  0.6086
  119OSM   C12F12608   5.488   5.389   9.349  0.0201 -0.0936  0.2833
  119OSM   H12F12609   5.553   5.442   9.276  1.8313  0.4280  2.1735
  119OSM   H12G12610   5.436   5.478   9.388  0.8399  1.2060 -1.4647
  119OSM   C13F12611   5.400   5.289   9.279  0.3837  0.3134 -0.4478
  119OSM   H13F12612   5.316   5.262   9.347  1.4910 -2.8496 -0.1718
  119OSM   H13G12613   5.457   5.196   9.257 -0.0140 -0.1575  0.4255
  119OSM   C14F12614   5.339   5.341   9.144 -0.1464 -0.2730 -0.0756
  119OSM   H14F12615   5.298   5.442   9.167  2.9890  0.7042  1.8966
  119OSM   H14G12616   5.253   5.274   9.124  1.1714 -2.1421  0.2877
  119OSM   C15F12617   5.433   5.342   9.023  0.0894  0.3285 -0.1007
  119OSM   H15F12618   5.513   5.265   9.030 -0.0420 -0.0237 -2.0133
  119OSM   H15G12619   5.488   5.436   9.044  1.8719 -0.5960 -0.5149
  119OSM   C16F12620   5.367   5.317   8.884  0.0155  0.4635  0.2028
  119OSM   H16F12621   5.326   5.214   8.875  1.1381 -0.1034  1.1720
  119OSM   H16G12622   5.452   5.326   8.813 -0.0268  1.7106  0.2949
  119OSM   C17F12623   5.262   5.413   8.838  0.3615  0.3287  0.2876
  119OSM   H17F12624   5.298   5.516   8.816  0.0982 -0.0711 -2.2936
  119OSM   H17G12625   5.175   5.421   8.907 -0.2853 -0.7266 -0.3807
  119OSM   C18F12626   5.199   5.368   8.709 -0.0879  0.6497  0.1775
  119OSM   H18F12627   5.097   5.401   8.679 -0.1020 -0.5358 -1.2199
  119OSM   H18G12628   5.189   5.257   8.711  0.4174  0.6091  0.6825
  119OSM   H18H12629   5.267   5.385   8.623 -0.2337  1.7353  0.2660
  120OSM      N12630   4.466   0.928  10.871  0.3828  0.3494  0.1069
  120OSM    C1512631   4.461   0.862  10.733 -0.5356 -0.2005  0.5845
  120OSM   H15A12632   4.361   0.826  10.716  0.1672 -1.9711 -0.0560
  120OSM   H15B12633   4.531   0.780  10.723 -0.8394 -0.2931 -1.1567
  120OSM   H15C12634   4.507   0.924  10.657  3.1952 -1.7202  1.3768
  120OSM    C1412635   4.609   0.959  10.896 -0.1502  0.3432  0.6038
  120OSM   H14A12636   4.611   1.024  10.983 -3.8550 -0.4223  1.3926
  120OSM   H14B12637   4.649   1.018  10.814 -3.0004  1.6481  0.0313
  120OSM   H14C12638   4.669   0.869  10.891 -0.0884  0.2847  1.9230
  120OSM    C1312639   4.384   1.047  10.879  0.3636 -0.1308  0.1968
  120OSM   H13A12640   4.411   1.113  10.797  0.6027  1.4541  1.4942
  120OSM   H13B12641   4.401   1.103  10.970  2.0228 -2.6093  1.4875
  120OSM   H13C12642   4.277   1.028  10.881 -0.1638  2.3850  0.3887
  120OSM    C1212643   4.421   0.828  10.975  0.5185  1.0173  0.3521
  120OSM   H12A12644   4.454   0.879  11.064  1.5986 -1.7149  1.6407
  120OSM   H12B12645   4.476   0.735  10.967  0.4125  1.0023 -0.3261
  120OSM    C1112646   4.270   0.800  10.965  0.8880  0.4792 -0.3953
  120OSM   H11A12647   4.216   0.894  10.989  1.1151  0.1384  1.6404
  120OSM   H11B12648   4.243   0.731  11.048  1.1832 -0.8043 -1.3360
  120OSM      P12649   4.169   0.611  10.822 -0.0077  0.0860 -0.5098
  120OSM    O1312650   4.267   0.510  10.878  0.0185 -0.2526 -0.3653
  120OSM    O1412651   4.023   0.604  10.859  0.3694  0.3890  0.1789
  120OSM    O1112652   4.179   0.595  10.662 -0.5917  0.0837  0.1692
  120OSM    O1212653   4.220   0.749  10.842  0.1781 -0.1878 -0.1864
  120OSM    C1S12654   4.146   0.475  10.597 -0.2136  0.3142 -0.1801
  120OSM    H1S12655   4.040   0.483  10.565 -0.3864  0.8818  0.5020
  120OSM    H1T12656   4.173   0.388  10.661  0.5829  0.1727 -0.7070
  120OSM     NF12657   4.170   0.349  10.383  0.1295 -0.6752 -0.1217
  120OSM    HNF12658   4.236   0.277  10.363 -0.5924 -0.7643 -2.4802
  120OSM    C2S12659   4.224   0.457  10.461  0.1782  0.7295  0.0757
  120OSM    H2S12660   4.219   0.543  10.391  0.6227  0.7063  0.0142
  120OSM    C3S12661   4.380   0.448  10.489  0.2131  0.0407 -0.3020
  120OSM    H3S12662   4.396   0.363  10.559  0.2411 -0.2231 -0.6258
  120OSM     O312663   4.436   0.553  10.563 -0.1140 -0.0295 -0.3133
  120OSM    HO312664   4.362   0.597  10.606 -1.8732 -0.7235 -2.3801
  120OSM    C4S12665   4.462   0.422  10.364 -0.0665  0.0589  0.8076
  120OSM    H4S12666   4.520   0.329  10.360  1.3732  0.7535  3.1180
  120OSM    C5S12667   4.483   0.505  10.267 -0.5482  0.4441 -0.5735
  120OSM    H5S12668   4.437   0.604  10.255 -2.5666 -0.2483  0.8898
  120OSM    C6S12669   4.581   0.472  10.155  0.5977 -0.0239  0.0081
  120OSM    H6S12670   4.681   0.518  10.167  0.6449  0.4683 -1.8990
  120OSM    H6T12671   4.530   0.520  10.069  0.9925  0.2354 -0.0789
  120OSM    C7S12672   4.591   0.326  10.106  0.3599 -0.5434 -0.7114
  120OSM    H7S12673   4.628   0.258  10.186  3.9201  0.4328 -1.3899
  120OSM    H7T12674   4.674   0.324  10.033 -0.0037  1.0522 -1.1921
  120OSM    C8S12675   4.462   0.267  10.051 -0.2984  0.3316  0.8893
  120OSM    H8S12676   4.418   0.337   9.977 -2.0765 -0.5855  1.0247
  120OSM    H8T12677   4.393   0.259  10.138 -0.7093 -3.6788  0.3910
  120OSM    C9S12678   4.502   0.133   9.993  0.4132 -0.1019 -0.7746
  120OSM    H9S12679   4.570   0.079  10.062 -0.5037  0.9603  1.0404
  120OSM    H9T12680   4.567   0.146   9.904  1.2035 -0.5029 -0.2687
  120OSM   C10S12681   4.369   0.051   9.961  0.0036 -0.2484  0.0919
  120OSM   H10S12682   4.284   0.110   9.921  1.6171  0.4470 -2.5959
  120OSM   H10T12683   4.331   0.004  10.054  0.6005  0.6699  0.8118
  120OSM   C11S12684   4.391  -0.056   9.851 -0.2817 -0.0305  0.1425
  120OSM   H11S12685   4.491  -0.095   9.880 -0.5946 -0.9144  0.0581
  120OSM   H11T12686   4.393   0.001   9.756 -0.4343 -0.1174  0.0869
  120OSM   C12S12687   4.276  -0.156   9.859 -0.1664 -0.0346 -0.6205
  120OSM   H12S12688   4.184  -0.095   9.876  1.1144  1.9406 -0.4715
  120OSM   H12T12689   4.300  -0.228   9.940  0.9048  0.3751 -0.5671
  120OSM   C13S12690   4.267  -0.240   9.734  0.3551 -0.7186 -0.2774
  120OSM   H13S12691   4.364  -0.293   9.720 -0.1965 -1.9856  0.5661
  120OSM   H13T12692   4.242  -0.169   9.652 -0.8028  0.2109  0.8261
  120OSM   C14S12693   4.164  -0.350   9.751 -0.1740  1.0929  0.5337
  120OSM   H14S12694   4.199  -0.431   9.818 -2.0459  0.0649  0.3131
  120OSM   H14T12695   4.146  -0.408   9.658  1.3842  1.9170 -0.3318
  120OSM   C15S12696   4.021  -0.299   9.794  0.6631 -0.1278 -0.4948
  120OSM   H15S12697   4.005  -0.201   9.745  1.5058  0.4551  0.3732
  120OSM   H15T12698   4.022  -0.266   9.900  0.7458  0.7086 -0.7515
  120OSM   C16S12699   3.904  -0.396   9.762 -0.6847  0.4594  0.0538
  120OSM   H16S12700   3.924  -0.500   9.794  0.2997  0.6812  0.2185
  120OSM   H16T12701   3.891  -0.395   9.652 -1.4685 -0.0849  0.1400
  120OSM   C17S12702   3.780  -0.345   9.838 -0.2078  0.0901  0.0137
  120OSM   H17S12703   3.780  -0.234   9.834  0.3936  0.0570 -1.2695
  120OSM   H17T12704   3.796  -0.385   9.941  2.0071  2.0942  0.5434
  120OSM   C18S12705   3.649  -0.397   9.774  0.3126 -0.5041 -0.0383
  120OSM   H18S12706   3.639  -0.505   9.796 -4.1104  0.0601  1.6920
  120OSM   H18T12707   3.643  -0.376   9.665  2.1628  2.5015  0.3048
  120OSM   H18U12708   3.561  -0.350   9.823 -0.1048 -0.4553 -0.8124
  120OSM    C1F12709   4.048   0.333  10.325 -0.3483  0.3414  0.1667
  120OSM     OF12710   3.949   0.391  10.367 -0.2781 -0.2722  0.5776
  120OSM    C2F12711   4.041   0.228  10.218 -0.5085 -0.6785  0.0788
  120OSM    H2F12712   3.953   0.162  10.236  0.2090 -1.4400  0.8861
  120OSM    H2G12713   4.121   0.152  10.209 -0.8327 -0.8046 -2.9081
  120OSM    C3F12714   4.031   0.290  10.067 -0.0219 -0.9346 -1.0303
  120OSM    H3F12715   4.136   0.320  10.048  0.2711 -0.8553  0.5723
  120OSM    H3G12716   3.964   0.378  10.081 -0.0796 -1.2381  0.9001
  120OSM    C4F12717   3.996   0.188   9.959  0.9636  0.4253  0.0241
  120OSM    H4F12718   3.907   0.123   9.976 -0.5197  1.0791 -4.0525
  120OSM    H4G12719   4.069   0.105   9.963 -0.2855 -0.6693  0.8673
  120OSM    C5F12720   3.989   0.249   9.813 -0.0179 -0.2892 -0.4897
  120OSM    H5F12721   4.067   0.329   9.814  2.3209 -2.4194  0.6314
  120OSM    H5G12722   3.883   0.279   9.809 -0.3116 -0.9974  1.3144
  120OSM    C6F12723   4.010   0.141   9.712 -0.2665  0.3668 -0.2176
  120OSM    H6F12724   4.104   0.088   9.737 -0.3999  1.1986  2.2480
  120OSM    H6G12725   4.040   0.182   9.613 -1.3115  2.1111  0.1550
  120OSM    C7F12726   3.892   0.047   9.689  0.5390  0.3591 -0.0033
  120OSM    H7F12727   3.797   0.103   9.699  0.0503 -0.5678  0.7436
  120OSM    H7G12728   3.887  -0.028   9.771 -0.6094  0.2432 -0.1602
  120OSM    C8F12729   3.903  -0.019   9.554 -0.7189  0.2338 -0.0765
  120OSM    H8F12730   3.993  -0.084   9.546 -1.0618 -0.1336 -1.2123
  120OSM    H8G12731   3.906   0.061   9.477 -2.0462  1.2563  0.8888
  120OSM    C9F12732   3.791  -0.115   9.536 -0.2683 -0.2398  0.0749
  120OSM    H9F12733   3.803  -0.213   9.583  3.4520 -1.3490 -2.7412
  120OSM   C10F12734   3.677  -0.093   9.462 -0.5756 -0.0086 -0.7416
  120OSM   H10F12735   3.603  -0.174   9.471 -1.9236  1.4469  3.6441
  120OSM   C11F12736   3.644   0.020   9.375  0.0073  0.4974  0.0557
  120OSM   H11F12737   3.667  -0.008   9.270  1.0983  0.9973  0.1485
  120OSM   H11G12738   3.703   0.111   9.399  0.3643  1.0699 -2.6261
  120OSM   C12F12739   3.490   0.065   9.368  0.0322 -0.2292  0.2080
  120OSM   H12F12740   3.478   0.156   9.306 -2.0420  0.5458  1.6077
  120OSM   H12G12741   3.461   0.089   9.472  5.3160 -1.1267  2.1942
  120OSM   C13F12742   3.401  -0.047   9.312  0.0475 -0.2265  0.6811
  120OSM   H13F12743   3.297  -0.008   9.309  0.9632  2.4159 -2.8869
  120OSM   H13G12744   3.395  -0.138   9.376  0.1309 -0.0013  1.0172
  120OSM   C14F12745   3.425  -0.079   9.162  0.3197 -0.1846  0.4409
  120OSM   H14F12746   3.529  -0.109   9.139 -0.1759 -0.7885 -1.1055
  120OSM   H14G12747   3.413   0.015   9.105 -2.1482 -0.4209  0.4464
  120OSM   C15F12748   3.318  -0.181   9.104  0.2908  0.4414  0.0874
  120OSM   H15F12749   3.213  -0.145   9.114  0.1132  0.6754 -2.2443
  120OSM   H15G12750   3.325  -0.274   9.165 -1.0247 -0.1424 -0.6054
  120OSM   C16F12751   3.343  -0.216   8.957 -0.3720 -0.0520  0.2863
  120OSM   H16F12752   3.441  -0.266   8.944 -0.8398 -1.3483  1.4491
  120OSM   H16G12753   3.346  -0.119   8.902  1.2072 -1.0983 -1.6002
  120OSM   C17F12754   3.226  -0.284   8.891  0.3447 -0.0305  0.0943
  120OSM   H17F12755   3.135  -0.227   8.920 -1.1282 -1.3742 -1.6579
  120OSM   H17G12756   3.216  -0.385   8.936 -1.2210 -0.6143 -1.4453
  120OSM   C18F12757   3.225  -0.302   8.737 -0.2626 -0.0898  0.1966
  120OSM   H18F12758   3.284  -0.220   8.692 -0.6593 -0.6471 -1.3966
  120OSM   H18G12759   3.121  -0.287   8.702  0.1827  1.1005 -0.6949
  120OSM   H18H12760   3.261  -0.402   8.705 -1.0044 -0.8962  1.7946
  121OSM      N12761   3.115   3.397  11.132  0.2431 -0.2770 -0.7687
  121OSM    C1512762   3.260   3.359  11.144 -0.6716  0.0015 -0.4596
  121OSM   H15A12763   3.323   3.446  11.138 -0.6466  0.0274  0.1736
  121OSM   H15B12764   3.301   3.290  11.071  2.7848  0.1638  1.1433
  121OSM   H15C12765   3.279   3.319  11.242  0.9797  3.5432  0.8095
  121OSM    C1412766   3.086   3.505  11.238  0.1273 -0.1212 -1.4804
  121OSM   H14A12767   3.095   3.469  11.339  1.3565  0.4148 -1.3836
  121OSM   H14B12768   2.987   3.543  11.218 -1.0003 -2.7387 -1.3716
  121OSM   H14C12769   3.155   3.587  11.232  1.6992 -1.1769  0.8611
  121OSM    C1312770   3.082   3.454  10.993 -0.3010  0.5052 -0.3188
  121OSM   H13A12771   2.980   3.485  10.979 -0.5992  1.2700  2.7541
  121OSM   H13B12772   3.101   3.378  10.918 -0.2023 -3.4658  3.3380
  121OSM   H13C12773   3.141   3.543  10.978  0.0811 -0.1268 -3.0098
  121OSM    C1212774   3.033   3.275  11.160  0.2213  0.0177  0.1137
  121OSM   H12A12775   3.068   3.220  11.246  1.5497 -0.8314 -0.9431
  121OSM   H12B12776   3.062   3.209  11.080 -4.3762  0.1974 -2.0810
  121OSM    C1112777   2.883   3.280  11.169  0.2319 -0.4066 -0.1740
  121OSM   H11A12778   2.836   3.330  11.082  1.3430  2.0938  0.5815
  121OSM   H11B12779   2.864   3.342  11.260  1.2206 -0.0599 -0.1954
  121OSM      P12780   2.689   3.110  11.137 -0.0722  0.0596  0.3218
  121OSM    O1312781   2.675   2.962  11.123 -0.1373  0.0213 -0.6721
  121OSM    O1412782   2.579   3.187  11.199 -0.5291  0.1907  0.0044
  121OSM    O1112783   2.708   3.163  10.991  0.2120  0.1857 -0.0637
  121OSM    O1212784   2.828   3.152  11.190 -0.2608  0.1370 -0.3500
  121OSM    C1S12785   2.589   3.186  10.913 -0.4762 -0.0059  0.2083
  121OSM    H1S12786   2.518   3.254  10.965 -1.8069 -2.5703  1.9109
  121OSM    H1T12787   2.532   3.093  10.895  0.4023 -0.1361 -2.3308
  121OSM     NF12788   2.510   3.289  10.701 -0.1326  0.0370  0.1353
  121OSM    HNF12789   2.448   3.233  10.646  0.3313 -3.2014  2.5344
  121OSM    C2S12790   2.621   3.218  10.765  0.0861  0.5947 -0.1562
  121OSM    H2S12791   2.711   3.283  10.768  0.2451  0.3693  2.1682
  121OSM    C3S12792   2.656   3.091  10.695 -0.0721  0.3565 -0.9259
  121OSM    H3S12793   2.570   3.024  10.678  0.0426  0.6982 -3.1812
  121OSM     O312794   2.742   3.012  10.778 -0.5263 -0.7328  0.2724
  121OSM    HO312795   2.746   3.046  10.868  2.5156  1.5356 -0.5248
  121OSM    C4S12796   2.711   3.128  10.556 -0.1401  1.0006 -0.2788
  121OSM    H4S12797   2.632   3.132  10.479 -1.9236  0.3622  1.4135
  121OSM    C5S12798   2.837   3.165  10.521  0.3790 -0.4333 -0.8226
  121OSM    H5S12799   2.905   3.171  10.607 -1.6930 -2.2961  1.0740
  121OSM    C6S12800   2.902   3.200  10.389 -0.4502  0.5517  1.2504
  121OSM    H6S12801   2.992   3.137  10.375 -1.8568 -1.4218  0.7509
  121OSM    H6T12802   2.923   3.308  10.371  2.2978 -0.3882 -2.5044
  121OSM    C7S12803   2.816   3.165  10.260  0.3434 -0.2347 -0.0993
  121OSM    H7S12804   2.725   3.228  10.245  0.0901 -0.3537  0.9103
  121OSM    H7T12805   2.777   3.061  10.257 -0.4943  0.0144  1.3910
  121OSM    C8S12806   2.904   3.193  10.136 -0.4609 -0.7390  0.3790
  121OSM    H8S12807   2.993   3.126  10.135  1.0863  1.0174  3.4599
  121OSM    H8T12808   2.945   3.296  10.143 -1.0533 -0.5301  0.9107
  121OSM    C9S12809   2.821   3.178  10.004  0.1593 -0.3416 -0.6136
  121OSM    H9S12810   2.750   3.262   9.991  2.3746  1.4315 -2.0766
  121OSM    H9T12811   2.764   3.083   9.996 -0.1358 -0.2772  0.5114
  121OSM   C10S12812   2.911   3.187   9.877 -0.3705  0.0543 -0.8518
  121OSM   H10S12813   2.991   3.110   9.878 -0.6379 -0.2763 -2.6024
  121OSM   H10T12814   2.942   3.293   9.866  1.2151 -0.1918  0.6488
  121OSM   C11S12815   2.824   3.164   9.747 -0.4185 -0.2097 -0.0540
  121OSM   H11S12816   2.727   3.218   9.743  0.4500  1.3864 -0.4835
  121OSM   H11T12817   2.809   3.054   9.755  1.2026 -0.3788  1.2266
  121OSM   C12S12818   2.909   3.202   9.628 -0.0371 -0.4670  0.0522
  121OSM   H12S12819   3.007   3.151   9.640  0.0958 -0.2622 -0.1857
  121OSM   H12T12820   2.924   3.311   9.613 -0.4865 -0.0306  2.3160
  121OSM   C13S12821   2.850   3.154   9.497 -0.2669 -0.2966  0.1328
  121OSM   H13S12822   2.739   3.154   9.503 -0.2591  1.1606  0.5100
  121OSM   H13T12823   2.891   3.051   9.484  0.3150  0.0472 -0.8453
  121OSM   C14S12824   2.899   3.228   9.369 -0.1353  0.2152 -0.4246
  121OSM   H14S12825   3.009   3.230   9.361  0.0139  0.3339  1.3874
  121OSM   H14T12826   2.873   3.335   9.382 -1.2806 -0.1605  0.6411
  121OSM   C15S12827   2.836   3.179   9.239 -0.0478 -0.0827 -0.4560
  121OSM   H15S12828   2.727   3.178   9.262  0.0904  1.8951  0.5294
  121OSM   H15T12829   2.875   3.078   9.213 -1.2969 -0.7205  0.0427
  121OSM   C16S12830   2.862   3.277   9.125 -0.7744 -0.1182  0.6007
  121OSM   H16S12831   2.833   3.379   9.160 -0.1190  1.0607 -2.0688
  121OSM   H16T12832   2.793   3.247   9.043 -2.5074  0.7531  1.6726
  121OSM   C17S12833   3.000   3.285   9.060  1.0522  0.2683  0.7785
  121OSM   H17S12834   3.041   3.182   9.050  1.5168  0.6575 -2.3583
  121OSM   H17T12835   3.059   3.341   9.135  0.0021  0.3786  1.5452
  121OSM   C18S12836   3.007   3.350   8.916 -0.2575 -0.2381  0.3152
  121OSM   H18S12837   3.105   3.326   8.870  0.4518 -2.0074  2.5718
  121OSM   H18T12838   3.002   3.460   8.927  2.3997 -0.0052 -0.1754
  121OSM   H18U12839   2.920   3.322   8.853 -2.1124  3.5663  0.9125
  121OSM    C1F12840   2.470   3.411  10.737  0.4688  0.4654  0.6117
  121OSM     OF12841   2.514   3.475  10.830  0.2489 -0.9111  0.5835
  121OSM    C2F12842   2.354   3.465  10.656 -0.0649  0.7685  0.1947
  121OSM    H2F12843   2.281   3.502  10.731  0.2005 -0.6541  1.1962
  121OSM    H2G12844   2.307   3.379  10.603 -2.9541  1.0830  2.0603
  121OSM    C3F12845   2.409   3.560  10.558  0.2320  0.0588  0.2074
  121OSM    H3F12846   2.458   3.642  10.615 -0.3120  0.4127  0.1818
  121OSM    H3G12847   2.315   3.600  10.513  0.7808  1.8353  0.5549
  121OSM    C4F12848   2.499   3.502  10.438 -0.0272 -0.8263 -0.7828
  121OSM    H4F12849   2.446   3.410  10.408 -0.0275 -0.3317 -2.3497
  121OSM    H4G12850   2.593   3.479  10.492 -0.1580  0.3525 -0.0148
  121OSM    C5F12851   2.500   3.601  10.326  0.1774  0.0223 -0.3571
  121OSM    H5F12852   2.539   3.697  10.365 -2.9060  0.3087  2.4795
  121OSM    H5G12853   2.393   3.609  10.297  0.5505  0.8303 -1.6117
  121OSM    C6F12854   2.593   3.545  10.219 -0.5715 -0.3240 -0.0505
  121OSM    H6F12855   2.520   3.502  10.148 -0.1541 -2.5980  0.8241
  121OSM    H6G12856   2.669   3.470  10.250  0.4035  0.1450 -1.2581
  121OSM    C7F12857   2.668   3.663  10.139  0.2304 -0.0335  0.2827
  121OSM    H7F12858   2.742   3.705  10.210 -1.5005 -1.0446  2.8389
  121OSM    H7G12859   2.595   3.740  10.106  1.7198  0.6585 -1.5562
  121OSM    C8F12860   2.750   3.613  10.027  0.5565  0.0746  1.0353
  121OSM    H8F12861   2.814   3.532  10.068  0.7712 -0.2167  0.1321
  121OSM    H8G12862   2.820   3.696  10.004  0.3037  0.3780  1.3433
  121OSM    C9F12863   2.671   3.560   9.906 -0.2721 -0.1676 -0.0174
  121OSM    H9F12864   2.601   3.478   9.928  1.4998 -2.0663 -1.0596
  121OSM   C10F12865   2.687   3.603   9.779  0.2937  1.0238  0.4392
  121OSM   H10F12866   2.622   3.573   9.695  2.6138 -3.5992 -0.0363
  121OSM   C11F12867   2.783   3.698   9.729  0.1496 -0.1045  0.0911
  121OSM   H11F12868   2.875   3.708   9.790  0.3314  0.2189 -0.2314
  121OSM   H11G12869   2.739   3.800   9.735  0.6170  0.1290 -0.4203
  121OSM   C12F12870   2.837   3.657   9.591 -0.3459 -0.2373  0.4058
  121OSM   H12F12871   2.914   3.577   9.591  1.6700  1.5962 -0.3710
  121OSM   H12G12872   2.895   3.749   9.570  0.0765 -0.0905  2.0514
  121OSM   C13F12873   2.743   3.645   9.477 -0.5278 -0.0373 -0.1420
  121OSM   H13F12874   2.685   3.739   9.485  0.3880  0.4709  0.8087
  121OSM   H13G12875   2.670   3.561   9.471  1.3697 -1.7594 -0.6212
  121OSM   C14F12876   2.817   3.670   9.345  0.2527 -0.3811 -0.2744
  121OSM   H14F12877   2.903   3.600   9.330  1.2047  0.7900 -0.4441
  121OSM   H14G12878   2.874   3.765   9.349  1.6694 -1.0310 -2.7818
  121OSM   C15F12879   2.730   3.658   9.215 -0.0114 -0.1525  0.2861
  121OSM   H15F12880   2.653   3.737   9.222 -1.1603 -1.3577  1.8909
  121OSM   H15G12881   2.694   3.554   9.202 -0.0394  0.0583 -1.6131
  121OSM   C16F12882   2.812   3.692   9.091 -0.8396 -0.2954  0.0709
  121OSM   H16F12883   2.909   3.638   9.099  0.1611  1.3139 -0.5386
  121OSM   H16G12884   2.833   3.802   9.090  1.1854 -0.6284 -1.5873
  121OSM   C17F12885   2.744   3.672   8.954  0.0275 -0.8562  0.1332
  121OSM   H17F12886   2.724   3.563   8.958  1.1890 -1.2495 -2.6879
  121OSM   H17G12887   2.818   3.688   8.873 -0.5952  0.1542 -0.2607
  121OSM   C18F12888   2.617   3.749   8.938  0.0622 -0.8028  0.2066
  121OSM   H18F12889   2.559   3.715   8.849  0.5052  0.2121 -0.4787
  121OSM   H18G12890   2.618   3.860   8.939  0.3233 -0.7701 -1.3822
  121OSM   H18H12891   2.549   3.733   9.025  1.6365 -0.4997  1.5523
  122OSM      N12892   1.212   3.083  10.866 -0.4825  0.6619  1.1388
  122OSM    C1512893   1.154   2.965  10.930  0.1393 -0.1235 -0.0836
  122OSM   H15A12894   1.086   2.986  11.011 -1.6288 -1.6020 -1.1165
  122OSM   H15B12895   1.240   2.905  10.957  0.6077 -0.2437 -1.7531
  122OSM   H15C12896   1.105   2.900  10.859 -5.0045  2.6341  0.4962
  122OSM    C1412897   1.115   3.161  10.787  0.4180 -0.2545  0.1139
  122OSM   H14A12898   1.164   3.240  10.732  0.4523 -0.0145  0.4850
  122OSM   H14B12899   1.042   3.218  10.841 -0.4811  0.7272 -2.0609
  122OSM   H14C12900   1.054   3.099  10.722  0.0948 -0.2263  0.3894
  122OSM    C1312901   1.276   3.165  10.976 -0.4318  0.2858  0.8912
  122OSM   H13A12902   1.339   3.104  11.039  1.9073  0.6773 -0.9204
  122OSM   H13B12903   1.195   3.216  11.027 -1.9720  0.9534 -1.9880
  122OSM   H13C12904   1.337   3.242  10.929 -0.8840  0.1715  0.1001
  122OSM    C1212905   1.325   3.045  10.771  0.1589 -0.5386  0.5205
  122OSM   H12A12906   1.355   3.133  10.716  2.5361  0.1964  2.7402
  122OSM   H12B12907   1.278   2.979  10.700  0.1769  1.5026 -1.4767
  122OSM    C1112908   1.451   2.968  10.828  1.0413 -0.0712 -0.1063
  122OSM   H11A12909   1.488   3.027  10.915 -1.8980  2.1871 -0.2339
  122OSM   H11B12910   1.519   2.976  10.741  0.4584 -1.3928 -0.7245
  122OSM      P12911   1.507   2.735  10.914  0.3463 -0.3305 -0.1817
  122OSM    O1312912   1.570   2.779  11.047 -0.1103 -0.1779 -0.0104
  122OSM    O1412913   1.435   2.608  10.912  0.1336  1.0961 -0.7403
  122OSM    O1112914   1.613   2.728  10.799  0.4261 -0.1465 -0.0175
  122OSM    O1212915   1.398   2.840  10.864  0.2350 -0.1058 -0.1042
  122OSM    C1S12916   1.596   2.650  10.684 -0.3617  0.1897  0.2286
  122OSM    H1S12917   1.495   2.611  10.657  0.4738 -0.4390 -2.2889
  122OSM    H1T12918   1.665   2.564  10.694  1.0251  1.2587  0.0304
  122OSM     NF12919   1.606   2.647  10.427  0.5206 -0.1897  0.0731
  122OSM    HNF12920   1.675   2.586  10.388 -0.4047 -0.9455 -0.4438
  122OSM    C2S12921   1.645   2.717  10.551  0.0673  0.5782  0.3030
  122OSM    H2S12922   1.595   2.815  10.533 -3.7316 -1.7017 -3.3298
  122OSM    C3S12923   1.802   2.741  10.564  0.3796 -0.5272 -0.0530
  122OSM    H3S12924   1.844   2.638  10.569  0.0631 -0.6468  0.1258
  122OSM     O312925   1.854   2.807  10.684  0.3520 -0.0938  0.1336
  122OSM    HO312926   1.776   2.790  10.736  1.2510  0.7070  1.8093
  122OSM    C4S12927   1.850   2.829  10.452 -1.2318  0.5456  0.1429
  122OSM    H4S12928   1.803   2.929  10.451 -0.6333  0.8274 -0.0078
  122OSM    C5S12929   1.961   2.800  10.372 -0.2813 -0.0559 -0.6447
  122OSM    H5S12930   2.024   2.714  10.399 -1.9552 -0.9570  0.5893
  122OSM    C6S12931   2.016   2.893  10.268 -0.1321  0.1113  0.2244
  122OSM    H6S12932   2.122   2.917  10.292 -0.4170  1.3742  0.3081
  122OSM    H6T12933   1.964   2.991  10.266  1.4301  0.9756  0.1503
  122OSM    C7S12934   2.007   2.846  10.119 -0.7271  0.1507 -0.7782
  122OSM    H7S12935   1.907   2.804  10.094  0.2963 -2.2211 -1.1029
  122OSM    H7T12936   2.080   2.764  10.105 -0.7361  0.5527 -3.7575
  122OSM    C8S12937   2.047   2.953  10.016  0.4437 -0.3019  0.4452
  122OSM    H8S12938   2.149   2.990  10.041 -0.0617 -0.1099  2.4319
  122OSM    H8T12939   1.971   3.031  10.038 -1.6094 -2.0015 -0.2987
  122OSM    C9S12940   2.043   2.898   9.871  0.1442 -0.0224  1.1290
  122OSM    H9S12941   1.942   2.853   9.860 -0.1793  0.6190  1.4001
  122OSM    H9T12942   2.110   2.810   9.881 -0.6710 -0.9559 -1.0548
  122OSM   C10S12943   2.088   2.987   9.758 -0.2506 -0.4257 -0.1149
  122OSM   H10S12944   2.191   3.027   9.766 -1.1808  1.9608  0.8330
  122OSM   H10T12945   2.022   3.076   9.749 -0.2973 -0.3576  0.8370
  122OSM   C11S12946   2.068   2.912   9.629  0.3093  0.1855 -0.0181
  122OSM   H11S12947   1.960   2.890   9.619  0.6790 -1.1777 -1.5469
  122OSM   H11T12948   2.114   2.812   9.644 -2.1737 -1.2580 -1.3200
  122OSM   C12S12949   2.114   2.987   9.503 -0.8156  0.3592  0.0596
  122OSM   H12S12950   2.209   3.035   9.536 -0.8131 -0.0431  0.6682
  122OSM   H12T12951   2.041   3.069   9.486 -0.2697  0.3117 -3.1172
  122OSM   C13S12952   2.130   2.905   9.374  0.4013  0.4634  0.3486
  122OSM   H13S12953   2.025   2.876   9.350 -0.1898  2.3887  0.4443
  122OSM   H13T12954   2.189   2.813   9.395 -0.0022  0.3775  1.1858
  122OSM   C14S12955   2.168   2.997   9.253  0.3942 -0.2989 -0.7449
  122OSM   H14S12956   2.266   3.048   9.263 -0.8887  2.3040 -0.3962
  122OSM   H14T12957   2.100   3.085   9.245 -1.0009 -1.4775 -2.8959
  122OSM   C15S12958   2.170   2.924   9.113  0.3736  0.0150  0.3234
  122OSM   H15S12959   2.074   2.867   9.112  0.5626 -0.3649  1.7573
  122OSM   H15T12960   2.246   2.844   9.103 -2.0894 -2.3957 -0.7709
  122OSM   C16S12961   2.159   3.016   8.987  0.3246 -0.2194 -0.4021
  122OSM   H16S12962   2.263   3.050   8.969  0.2383  0.1301 -0.2684
  122OSM   H16T12963   2.096   3.107   9.001 -0.0100 -0.5970  0.6529
  122OSM   C17S12964   2.123   2.950   8.850 -0.6486  0.4551  0.5793
  122OSM   H17S12965   2.122   3.032   8.774  2.5818  0.3526  0.2761
  122OSM   H17T12966   2.023   2.905   8.866 -0.9018  1.0765  0.7916
  122OSM   C18S12967   2.227   2.842   8.812 -0.2464  1.0785 -0.1561
  122OSM   H18S12968   2.214   2.804   8.708  0.1704 -1.6619  0.7129
  122OSM   H18T12969   2.206   2.746   8.864 -1.6503  0.5982 -1.5375
  122OSM   H18U12970   2.327   2.885   8.832 -0.7669  1.1378  2.6780
  122OSM    C1F12971   1.483   2.644  10.370 -0.2983 -0.2184  0.2871
  122OSM     OF12972   1.398   2.698  10.439 -0.5253  0.2590  0.7791
  122OSM    C2F12973   1.446   2.571  10.244 -0.6391 -0.2778 -0.5719
  122OSM    H2F12974   1.354   2.512  10.261  0.4473 -1.4862  1.4724
  122OSM    H2G12975   1.520   2.489  10.241  0.4694  0.7077 -1.0380
  122OSM    C3F12976   1.435   2.658  10.124  0.6223 -0.1776  0.6383
  122OSM    H3F12977   1.538   2.684  10.090 -0.4362  2.0849 -1.1470
  122OSM    H3G12978   1.393   2.758  10.150  0.5524  0.2760 -1.1385
  122OSM    C4F12979   1.354   2.587  10.013 -0.0611  0.4650 -0.2902
  122OSM    H4F12980   1.249   2.573  10.046  0.4147 -0.2502  0.9977
  122OSM    H4G12981   1.395   2.484  10.003 -1.4755 -0.3947  2.0783
  122OSM    C5F12982   1.360   2.673   9.885  0.1939  0.3301 -0.0196
  122OSM    H5F12983   1.462   2.710   9.860  1.2714 -3.4201 -1.8593
  122OSM    H5G12984   1.299   2.762   9.913  0.6285  1.1319 -1.5398
  122OSM    C6F12985   1.307   2.610   9.756 -0.3466 -0.7070 -0.0216
  122OSM    H6F12986   1.210   2.563   9.785  0.5493 -1.9849  0.9998
  122OSM    H6G12987   1.366   2.523   9.719 -1.2473 -1.5257  0.4098
  122OSM    C7F12988   1.264   2.705   9.645  0.2082  0.5213  0.1382
  122OSM    H7F12989   1.273   2.804   9.696  1.5352 -0.6228  2.2352
  122OSM    H7G12990   1.154   2.694   9.632  0.5769 -1.9417 -1.3524
  122OSM    C8F12991   1.342   2.706   9.516  0.5430 -0.2263  0.5438
  122OSM    H8F12992   1.327   2.612   9.457  0.8205 -0.8336  1.4259
  122OSM    H8G12993   1.452   2.713   9.530  0.4265 -0.5211  1.6844
  122OSM    C9F12994   1.297   2.827   9.438 -0.2567 -0.6510 -1.1277
  122OSM    H9F12995   1.284   2.917   9.500  0.2853 -0.3138 -1.4976
  122OSM   C10F12996   1.255   2.835   9.310 -0.0632 -0.1746 -0.1127
  122OSM   H10F12997   1.224   2.933   9.269 -1.7880 -1.6325 -2.5278
  122OSM   C11F12998   1.247   2.717   9.214 -0.3761 -0.4184  0.3703
  122OSM   H11F12999   1.142   2.700   9.182 -0.4380 -2.5296  1.4831
  122OSM   H11G13000   1.261   2.619   9.264  0.9503 -1.1300 -1.2994
  122OSM   C12F13001   1.341   2.704   9.096  0.4109 -0.7546 -0.1887
  122OSM   H12F13002   1.366   2.600   9.067  1.6094 -0.7478  0.7475
  122OSM   H12G13003   1.432   2.756   9.133 -1.3685  2.9221 -0.5173
  122OSM   C13F13004   1.306   2.780   8.965 -0.2620 -1.0807  0.5950
  122OSM   H13F13005   1.217   2.728   8.923  0.3208 -1.7111  0.1113
  122OSM   H13G13006   1.393   2.774   8.896 -1.9875 -1.4318 -1.6843
  122OSM   C14F13007   1.266   2.927   8.975 -0.4489  0.0426  0.1544
  122OSM   H14F13008   1.294   2.979   9.069 -1.5011  2.2264 -0.6629
  122OSM   H14G13009   1.155   2.930   8.971 -0.4248  2.1100 -0.0399
  122OSM   C15F13010   1.313   3.014   8.852 -0.0039 -0.1569 -0.7166
  122OSM   H15F13011   1.423   3.010   8.838  0.1576 -4.5774  0.4159
  122OSM   H15G13012   1.281   3.114   8.890 -0.2104 -0.5699  0.2215
  122OSM   C16F13013   1.230   2.964   8.725 -0.3287 -0.5384  0.5823
  122OSM   H16F13014   1.123   2.989   8.740 -0.7990  0.0410 -2.7617
  122OSM   H16G13015   1.234   2.854   8.706 -0.8150 -0.0942 -2.8244
  122OSM   C17F13016   1.276   3.026   8.589 -0.3919 -1.0102  0.4786
  122OSM   H17F13017   1.218   2.981   8.506  0.5007  0.3150 -0.9148
  122OSM   H17G13018   1.384   3.014   8.565 -0.3347  1.9379 -1.3540
  122OSM   C18F13019   1.264   3.181   8.602  0.1400 -0.8104 -0.0092
  122OSM   H18F13020   1.156   3.204   8.617 -0.6274 -1.2994 -3.8458
  122OSM   H18G13021   1.291   3.241   8.513  0.7252  1.2184  1.4541
  122OSM   H18H13022   1.332   3.212   8.685 -0.1781  0.0085 -0.0412
  123OSM      N13023   6.218   0.698   6.350 -0.1937 -0.0283  0.4020
  123OSM    C1513024   6.274   0.737   6.218 -0.7357 -0.5408 -0.0029
  123OSM   H15A13025   6.232   0.827   6.175  0.4112  1.0994  2.1593
  123OSM   H15B13026   6.270   0.654   6.148 -0.4304 -1.6983  1.2953
  123OSM   H15C13027   6.381   0.749   6.220 -0.6737  0.4352 -3.0584
  123OSM    C1413028   6.270   0.799   6.441  0.2308  0.5214  0.3282
  123OSM   H14A13029   6.211   0.808   6.531  2.2649 -1.0041  1.8918
  123OSM   H14B13030   6.265   0.897   6.395 -1.7626 -0.1941 -1.1254
  123OSM   H14C13031   6.372   0.779   6.470  0.6967 -0.0011 -1.4964
  123OSM    C1313032   6.068   0.707   6.336 -0.0330  0.7554 -0.7294
  123OSM   H13A13033   6.036   0.808   6.315 -0.6023  0.4588 -1.3018
  123OSM   H13B13034   6.007   0.679   6.421 -0.9474  2.9942 -0.5796
  123OSM   H13C13035   6.041   0.648   6.250  0.8908  0.4869 -0.8381
  123OSM    C1213036   6.269   0.563   6.401 -0.0228  0.0727 -0.1129
  123OSM   H12A13037   6.254   0.488   6.325 -1.0590 -0.9701  1.0677
  123OSM   H12B13038   6.199   0.520   6.471  0.7254 -1.0575 -0.0377
  123OSM    C1113039   6.412   0.555   6.448  0.6174  0.5259  0.3637
  123OSM   H11A13040   6.440   0.448   6.453  0.6926  0.5773  1.0792
  123OSM   H11B13041   6.408   0.598   6.550 -0.0991 -0.7769  0.9169
  123OSM      P13042   6.647   0.649   6.422 -0.4000 -0.4768  0.1214
  123OSM    O1313043   6.717   0.519   6.414 -0.0630 -0.1525  0.3498
  123OSM    O1413044   6.712   0.770   6.362 -0.4116  0.4597  0.6277
  123OSM    O1113045   6.631   0.695   6.574  0.6528  1.2047  0.8344
  123OSM    O1213046   6.502   0.626   6.369 -0.0239 -0.4525 -0.6130
  123OSM    C1S13047   6.750   0.715   6.660  0.0732  0.3991  0.7874
  123OSM    H1S13048   6.796   0.813   6.634 -2.1439  1.4561  0.5720
  123OSM    H1T13049   6.826   0.635   6.653 -0.2285  0.0335  1.6170
  123OSM     NF13050   6.811   0.748   6.888 -0.0643  0.8740 -0.6650
  123OSM    HNF13051   6.866   0.677   6.933  1.3928  3.2533  1.6604
  123OSM    C2S13052   6.705   0.714   6.808  0.2463  0.5173 -0.1558
  123OSM    H2S13053   6.622   0.788   6.819 -0.5602 -0.3523 -0.2703
  123OSM    C3S13054   6.648   0.574   6.844  0.1438 -0.0407  0.0346
  123OSM    H3S13055   6.743   0.516   6.851  1.0213  1.5143  2.3910
  123OSM     O313056   6.554   0.527   6.755  0.0364 -0.6864 -0.5989
  123OSM    HO313057   6.549   0.594   6.685 -0.0377  0.9472  0.9019
  123OSM    C4S13058   6.608   0.565   6.987  0.3913 -0.1980  0.0207
  123OSM    H4S13059   6.691   0.554   7.058  0.1571  1.4151  0.5961
  123OSM    C5S13060   6.481   0.558   7.031  0.4939 -0.0955  0.4659
  123OSM    H5S13061   6.403   0.572   6.955  1.7120 -2.3856 -1.3478
  123OSM    C6S13062   6.436   0.544   7.176  0.2968  0.1620  0.3301
  123OSM    H6S13063   6.388   0.445   7.191  1.1559 -0.0073  2.2999
  123OSM    H6T13064   6.353   0.617   7.186 -0.0827  0.2012 -2.3255
  123OSM    C7S13065   6.544   0.579   7.274 -0.0216 -0.2287  0.3755
  123OSM    H7S13066   6.574   0.686   7.267 -0.5417 -0.0767  0.4439
  123OSM    H7T13067   6.636   0.517   7.264  1.2431  1.5564  0.5239
  123OSM    C8S13068   6.499   0.542   7.413 -0.3368 -1.2563 -0.5037
  123OSM    H8S13069   6.441   0.447   7.416  1.4062 -2.3457  0.1129
  123OSM    H8T13070   6.417   0.614   7.433  0.0309 -0.2576 -2.3375
  123OSM    C9S13071   6.613   0.544   7.517 -0.6671  0.2057 -0.3770
  123OSM    H9S13072   6.660   0.644   7.519 -0.1954  0.0103  2.9839
  123OSM    H9T13073   6.679   0.459   7.490 -2.5768 -2.1049  1.6744
  123OSM   C10S13074   6.551   0.511   7.657 -0.0680 -0.2374 -0.0896
  123OSM   H10S13075   6.466   0.441   7.647  0.0266 -0.7922  2.3196
  123OSM   H10T13076   6.508   0.604   7.701 -2.1437 -0.5356 -1.3591
  123OSM   C11S13077   6.651   0.459   7.758 -0.4906  0.1954  0.1405
  123OSM   H11S13078   6.711   0.533   7.815  0.6831  0.2344 -1.0635
  123OSM   H11T13079   6.733   0.412   7.699 -1.1752 -2.1148  0.9343
  123OSM   C12S13080   6.604   0.352   7.853 -0.5951  0.0676  0.4825
  123OSM   H12S13081   6.693   0.299   7.894 -0.8089 -1.7579 -1.2848
  123OSM   H12T13082   6.567   0.267   7.792  0.6891 -0.3351  0.2457
  123OSM   C13S13083   6.520   0.387   7.975  0.6324  0.1313  0.6893
  123OSM   H13S13084   6.509   0.298   8.041  0.7830  0.2419  0.8655
  123OSM   H13T13085   6.422   0.422   7.936  0.9064 -0.2550 -0.3608
  123OSM   C14S13086   6.581   0.484   8.075  1.0967  0.4987  0.3591
  123OSM   H14S13087   6.565   0.588   8.040  0.7653  0.7416  1.1890
  123OSM   H14T13088   6.685   0.457   8.104  1.0250 -0.4283 -0.2051
  123OSM   C15S13089   6.502   0.493   8.201  0.8466 -0.6044  0.0352
  123OSM   H15S13090   6.513   0.399   8.259 -1.5000 -0.3554  0.9623
  123OSM   H15T13091   6.399   0.518   8.169  1.6998  0.9686 -1.7408
  123OSM   C16S13092   6.541   0.610   8.303 -0.2214  0.3656 -0.1770
  123OSM   H16S13093   6.531   0.706   8.249  0.1772  0.1166 -0.7088
  123OSM   H16T13094   6.650   0.605   8.324  0.0720  0.5337 -1.5703
  123OSM   C17S13095   6.459   0.610   8.439  0.0560  0.0139 -0.3468
  123OSM   H17S13096   6.472   0.516   8.496  0.3176  0.5205  0.4549
  123OSM   H17T13097   6.352   0.607   8.409 -1.0285 -0.6942  3.1676
  123OSM   C18S13098   6.486   0.729   8.535  0.3017  0.1768  0.3753
  123OSM   H18S13099   6.400   0.741   8.604 -0.5723  3.2394 -1.0580
  123OSM   H18T13100   6.490   0.822   8.474 -0.2898 -0.7812 -1.1968
  123OSM   H18U13101   6.582   0.714   8.589 -0.1943  2.8271  2.2147
  123OSM    C1F13102   6.854   0.872   6.899 -0.9142  0.4986  0.0025
  123OSM     OF13103   6.807   0.965   6.830 -0.7436 -0.5983  0.0625
  123OSM    C2F13104   6.977   0.890   6.989  0.1140  0.0023  0.8965
  123OSM    H2F13105   7.053   0.942   6.927 -0.9677  0.2102 -0.3233
  123OSM    H2G13106   7.025   0.800   7.032  3.3341  1.2251  0.1612
  123OSM    C3F13107   6.927   0.976   7.112  0.8993 -0.5108 -0.9881
  123OSM    H3F13108   6.857   0.924   7.181  1.3104  0.0134 -0.1656
  123OSM    H3G13109   6.867   1.065   7.083  1.9429  0.8890  0.9433
  123OSM    C4F13110   7.044   1.021   7.197  0.3153 -0.1081 -0.0088
  123OSM    H4F13111   7.096   1.097   7.135 -1.7547 -0.1002 -1.8531
  123OSM    H4G13112   7.105   0.936   7.234 -1.4237 -1.6989 -0.6222
  123OSM    C5F13113   7.009   1.092   7.336  0.3936  0.6228 -0.1065
  123OSM    H5F13114   6.919   1.153   7.313  0.8169  1.6796  0.8948
  123OSM    H5G13115   7.100   1.151   7.362 -0.7075  3.8103 -2.7383
  123OSM    C6F13116   6.968   0.999   7.452  0.2896 -0.0595 -0.7164
  123OSM    H6F13117   7.056   0.951   7.499 -0.3502  0.5232  1.1510
  123OSM    H6G13118   6.900   0.925   7.404 -0.7878  1.5587 -1.7895
  123OSM    C7F13119   6.879   1.064   7.556 -0.3887 -0.5341 -0.4527
  123OSM    H7F13120   6.813   1.133   7.499  0.5379  0.7118 -0.0492
  123OSM    H7G13121   6.938   1.122   7.630 -1.0173 -0.7094  0.1949
  123OSM    C8F13122   6.771   0.967   7.625  0.0190  0.3218 -0.2026
  123OSM    H8F13123   6.695   0.931   7.552  1.0361 -0.5962 -0.8385
  123OSM    H8G13124   6.732   1.038   7.701  3.3494  1.1271  0.9273
  123OSM    C9F13125   6.844   0.846   7.690  0.0485 -0.4665  0.0187
  123OSM    H9F13126   6.916   0.801   7.621 -1.0080  0.9159 -2.1051
  123OSM   C10F13127   6.816   0.805   7.816  0.4481  0.5755  0.1126
  123OSM   H10F13128   6.871   0.719   7.859  0.2389  0.5925  0.4161
  123OSM   C11F13129   6.709   0.852   7.909  0.4843 -0.7142  0.5792
  123OSM   H11F13130   6.637   0.768   7.923 -0.6485  0.0134 -0.6918
  123OSM   H11G13131   6.641   0.931   7.872 -1.7105 -2.7457  0.0696
  123OSM   C12F13132   6.769   0.892   8.046 -0.3965 -0.3571 -0.8873
  123OSM   H12F13133   6.683   0.927   8.107 -0.1846  0.7067 -1.1896
  123OSM   H12G13134   6.845   0.971   8.028 -1.4084  0.6697 -0.7888
  123OSM   C13F13135   6.836   0.775   8.125  0.4065  0.3944  0.0744
  123OSM   H13F13136   6.932   0.755   8.074 -0.2598 -0.5177 -0.8605
  123OSM   H13G13137   6.778   0.680   8.123 -0.2352  0.7161  1.8545
  123OSM   C14F13138   6.868   0.811   8.274  0.9775 -0.4128  0.1079
  123OSM   H14F13139   6.767   0.817   8.320 -0.8420 -2.5842 -3.1661
  123OSM   H14G13140   6.923   0.907   8.272 -0.3199  0.3873 -2.2770
  123OSM   C15F13141   6.950   0.702   8.343 -0.0235 -1.0286  0.1586
  123OSM   H15F13142   7.046   0.681   8.291 -0.0466 -0.0991 -0.2840
  123OSM   H15G13143   6.893   0.607   8.343 -1.2811 -0.3090  0.6246
  123OSM   C16F13144   6.980   0.730   8.495  0.1000  0.5138 -0.3699
  123OSM   H16F13145   6.929   0.826   8.520  2.2286  1.2047  1.7816
  123OSM   H16G13146   7.091   0.739   8.498  0.0598  2.2306 -2.0978
  123OSM   C17F13147   6.946   0.605   8.586 -0.2888 -0.4475 -0.5439
  123OSM   H17F13148   7.010   0.528   8.537 -0.1611 -1.4368  1.1033
  123OSM   H17G13149   6.838   0.580   8.581  0.0414 -2.9032  2.1862
  123OSM   C18F13150   6.977   0.628   8.737  0.4781 -0.0767 -0.2317
  123OSM   H18F13151   7.067   0.694   8.737  1.1639 -0.9981 -0.3331
  123OSM   H18G13152   6.985   0.526   8.779 -1.7760 -0.2474 -0.0617
  123OSM   H18H13153   6.899   0.680   8.798  1.5287 -0.8557  1.8658
  124OSM      N13154   2.328   5.209   6.283  0.0276  0.1531  0.5854
  124OSM    C1513155   2.333   5.133   6.405  0.7532 -0.1051  0.1088
  124OSM   H15A13156   2.422   5.161   6.459  2.1264 -0.6659 -1.7499
  124OSM   H15B13157   2.348   5.027   6.388  0.5418 -0.6228  2.7667
  124OSM   H15C13158   2.256   5.153   6.478  1.3902  1.8579  0.3045
  124OSM    C1413159   2.303   5.345   6.326 -0.9349  0.1288  0.1689
  124OSM   H14A13160   2.274   5.410   6.245 -0.3399  1.5043  1.0117
  124OSM   H14B13161   2.393   5.392   6.363 -1.3534  0.5514  0.6611
  124OSM   H14C13162   2.233   5.356   6.407  1.1330  1.8888  1.8318
  124OSM    C1313163   2.453   5.214   6.206  0.7372 -0.3237  0.4387
  124OSM   H13A13164   2.526   5.278   6.253 -0.5527  0.7354  1.0808
  124OSM   H13B13165   2.429   5.254   6.108  1.2661 -2.2058 -0.5051
  124OSM   H13C13166   2.499   5.120   6.181  1.2838  0.1777 -0.5326
  124OSM    C1213167   2.216   5.145   6.207  0.4392 -0.2714  0.5299
  124OSM   H12A13168   2.201   5.209   6.122  1.5744  1.2557  1.4342
  124OSM   H12B13169   2.117   5.152   6.250 -0.0808  0.3105 -0.7109
  124OSM    C1113170   2.228   4.994   6.164  0.6971  0.2812 -0.0376
  124OSM   H11A13171   2.313   4.984   6.094  1.2398  0.0319  0.6529
  124OSM   H11B13172   2.127   4.982   6.117 -0.0031  1.2331  1.1635
  124OSM      P13173   2.256   4.747   6.238 -0.1289 -0.0685  0.1229
  124OSM    O1313174   2.162   4.703   6.123  0.3379 -0.7359 -0.0003
  124OSM    O1413175   2.400   4.724   6.214  0.4485 -0.1702  0.5908
  124OSM    O1113176   2.207   4.672   6.361 -0.0318  0.0876  0.1950
  124OSM    O1213177   2.235   4.897   6.271 -0.1091 -0.6930  0.1548
  124OSM    C1S13178   2.259   4.708   6.492  0.3694  0.4815 -0.2638
  124OSM    H1S13179   2.201   4.793   6.534  1.3457  0.9700  0.1528
  124OSM    H1T13180   2.360   4.751   6.476  0.3191 -0.2031 -2.9183
  124OSM     NF13181   2.304   4.638   6.720 -0.1786 -0.1480 -0.2337
  124OSM    HNF13182   2.398   4.614   6.743 -0.6062 -0.6836  1.0508
  124OSM    C2S13183   2.255   4.588   6.589 -0.6724 -0.5394  0.0132
  124OSM    H2S13184   2.152   4.546   6.597 -0.8993  0.0171  0.0624
  124OSM    C3S13185   2.332   4.466   6.539 -0.2698 -0.1695  0.0282
  124OSM    H3S13186   2.439   4.493   6.526 -0.3946 -1.0340 -4.1789
  124OSM     O313187   2.291   4.430   6.408 -0.2419 -0.2073 -0.0144
  124OSM    HO313188   2.260   4.515   6.375 -1.1078 -0.6204 -0.3005
  124OSM    C4S13189   2.311   4.349   6.630  0.1824  0.2531 -0.4305
  124OSM    H4S13190   2.229   4.286   6.591  0.0391  0.7802 -0.9950
  124OSM    C5S13191   2.386   4.312   6.735  0.4107 -0.4713 -0.2709
  124OSM    H5S13192   2.441   4.396   6.779 -1.9215  1.4130 -0.7450
  124OSM    C6S13193   2.365   4.190   6.817 -0.2004 -0.9981  0.3568
  124OSM    H6S13194   2.427   4.101   6.792  2.7531  1.3745 -1.4432
  124OSM    H6T13195   2.260   4.156   6.805 -0.2994 -0.8587  0.8018
  124OSM    C7S13196   2.394   4.214   6.965  0.1615 -0.7009 -0.2923
  124OSM    H7S13197   2.308   4.269   7.009 -0.2815  1.4661 -3.5534
  124OSM    H7T13198   2.488   4.273   6.970  0.2690 -0.8368 -0.6814
  124OSM    C8S13199   2.432   4.081   7.040  0.0325  0.2625  0.6091
  124OSM    H8S13200   2.505   4.023   6.981 -0.1154 -0.0636  0.7460
  124OSM    H8T13201   2.350   4.010   7.061 -0.2150  1.5419  5.0228
  124OSM    C9S13202   2.502   4.111   7.172 -0.4265  0.0729  0.3514
  124OSM    H9S13203   2.594   4.172   7.164  1.3869 -2.4469  0.6528
  124OSM    H9T13204   2.543   4.014   7.207  1.4172  0.6740 -0.0797
  124OSM   C10S13205   2.416   4.166   7.290 -0.0175  0.1950  0.8586
  124OSM   H10S13206   2.326   4.109   7.321  0.1056  0.2000  1.2272
  124OSM   H10T13207   2.367   4.260   7.256  0.4002 -0.2926 -1.2425
  124OSM   C11S13208   2.509   4.192   7.413 -0.4141 -0.1919 -0.1154
  124OSM   H11S13209   2.545   4.297   7.407  0.3093 -0.3300  1.2750
  124OSM   H11T13210   2.597   4.125   7.424  0.9615  1.4016 -1.0641
  124OSM   C12S13211   2.426   4.189   7.547  0.0836 -0.0698  0.1013
  124OSM   H12S13212   2.363   4.098   7.559 -1.5662  1.0834  0.5248
  124OSM   H12T13213   2.362   4.279   7.534  2.7413  2.1325  1.3063
  124OSM   C13S13214   2.517   4.222   7.662  0.4097 -0.1922 -0.1031
  124OSM   H13S13215   2.580   4.313   7.650  0.1881  0.0288  0.3939
  124OSM   H13T13216   2.594   4.141   7.663 -0.3893 -0.9966 -0.9374
  124OSM   C14S13217   2.446   4.221   7.794  0.7894 -0.4541  0.4371
  124OSM   H14S13218   2.391   4.124   7.801 -1.1927  0.4212 -1.5375
  124OSM   H14T13219   2.368   4.300   7.793  2.4028  1.2159 -1.4596
  124OSM   C15S13220   2.539   4.207   7.914 -0.2006  0.4634  0.6985
  124OSM   H15S13221   2.618   4.285   7.924  2.7267 -2.4250  1.7808
  124OSM   H15T13222   2.598   4.114   7.901 -0.1119  0.4979  0.8497
  124OSM   C16S13223   2.451   4.219   8.033  0.6477  0.1086 -1.5629
  124OSM   H16S13224   2.395   4.124   8.036  0.3501  0.2624 -2.0148
  124OSM   H16T13225   2.375   4.297   8.009  0.3295 -0.4135 -2.3027
  124OSM   C17S13226   2.527   4.230   8.166  0.4410 -0.2667  0.1752
  124OSM   H17S13227   2.564   4.335   8.163  2.3370 -0.8922 -0.0151
  124OSM   H17T13228   2.617   4.164   8.164  0.7423  0.1559 -0.6017
  124OSM   C18S13229   2.438   4.183   8.285  0.2334 -0.0595 -0.2699
  124OSM   H18S13230   2.495   4.168   8.380 -0.4990 -2.3125 -0.1121
  124OSM   H18T13231   2.404   4.077   8.279  1.4251 -0.4544 -0.1772
  124OSM   H18U13232   2.344   4.242   8.295  1.1612  1.9332 -2.5412
  124OSM    C1F13233   2.228   4.714   6.802  0.8182 -0.3077  0.3890
  124OSM     OF13234   2.115   4.734   6.767 -0.3160  0.1360 -0.0649
  124OSM    C2F13235   2.287   4.764   6.926 -0.2252 -0.3027 -0.5247
  124OSM    H2F13236   2.227   4.852   6.957 -1.8050 -1.2603 -0.7716
  124OSM    H2G13237   2.387   4.809   6.906 -1.2930  2.4185 -0.2358
  124OSM    C3F13238   2.272   4.659   7.030  0.0169  0.3193  0.1490
  124OSM    H3F13239   2.348   4.583   7.000  0.5979  0.2546  1.6584
  124OSM    H3G13240   2.166   4.629   7.031 -0.3051  1.2608  2.5486
  124OSM    C4F13241   2.298   4.714   7.174  0.4310  0.9646  0.0711
  124OSM    H4F13242   2.234   4.802   7.195  0.8544  1.5526 -1.0219
  124OSM    H4G13243   2.403   4.751   7.171  0.9018 -0.1719  1.4602
  124OSM    C5F13244   2.299   4.607   7.287 -0.3802  0.1779 -0.2424
  124OSM    H5F13245   2.379   4.535   7.264  2.5457  3.4020 -1.0634
  124OSM    H5G13246   2.203   4.552   7.275  0.1757 -1.1610  1.1297
  124OSM    C6F13247   2.332   4.659   7.425 -0.1717  1.0697 -0.2162
  124OSM    H6F13248   2.289   4.759   7.444  1.9370  2.2336 -1.1952
  124OSM    H6G13249   2.443   4.656   7.432 -0.0763 -1.5068 -1.4415
  124OSM    C7F13250   2.282   4.557   7.534 -0.2684 -0.2445  0.3834
  124OSM    H7F13251   2.358   4.476   7.532  0.2961  0.2682  0.6343
  124OSM    H7G13252   2.181   4.523   7.502 -0.4258  2.2379 -2.0437
  124OSM    C8F13253   2.265   4.615   7.676 -0.5914 -0.1664  0.4536
  124OSM    H8F13254   2.236   4.530   7.741 -3.5252 -1.0115 -1.6960
  124OSM    H8G13255   2.179   4.685   7.688  0.9136  1.6252  1.1723
  124OSM    C9F13256   2.393   4.677   7.734  0.1228 -0.5811 -0.2087
  124OSM    H9F13257   2.471   4.712   7.666 -0.6960  0.9898 -0.3849
  124OSM   C10F13258   2.437   4.675   7.861  0.6327  0.3277 -0.2283
  124OSM   H10F13259   2.532   4.719   7.895  1.0375 -1.1936  0.7208
  124OSM   C11F13260   2.365   4.606   7.976  0.2143 -0.3094 -0.6455
  124OSM   H11F13261   2.424   4.524   8.020  1.2864  0.5003 -0.5306
  124OSM   H11G13262   2.276   4.548   7.944  0.0918 -0.8499  0.6116
  124OSM   C12F13263   2.332   4.704   8.091  0.1247  0.2625 -1.1993
  124OSM   H12F13264   2.295   4.802   8.055  0.4924  1.1446  0.6829
  124OSM   H12G13265   2.402   4.733   8.172  0.8264  0.7225 -1.9592
  124OSM   C13F13266   2.215   4.647   8.173  0.4064  0.1326 -1.0921
  124OSM   H13F13267   2.145   4.605   8.098  0.6380  0.7976 -1.6915
  124OSM   H13G13268   2.165   4.720   8.241  2.3227 -0.6112  1.2801
  124OSM   C14F13269   2.250   4.528   8.265  0.8578  0.0941 -0.0539
  124OSM   H14F13270   2.341   4.541   8.328  0.1238  1.7966  0.6994
  124OSM   H14G13271   2.294   4.452   8.197  0.2620 -0.3445  0.0436
  124OSM   C15F13272   2.123   4.489   8.346 -0.2137 -0.3611  0.4453
  124OSM   H15F13273   2.087   4.576   8.405  0.4082 -0.7024  1.3504
  124OSM   H15G13274   2.153   4.400   8.404 -1.2752 -1.8784 -1.2402
  124OSM   C16F13275   2.006   4.442   8.251  0.6751  0.0362  0.4186
  124OSM   H16F13276   2.035   4.359   8.183 -0.3720  1.0427 -1.3335
  124OSM   H16G13277   1.968   4.526   8.189 -0.1125 -0.2112  0.5482
  124OSM   C17F13278   1.891   4.385   8.336 -0.0210  0.0299 -0.4343
  124OSM   H17F13279   1.863   4.453   8.419 -1.2089 -0.1898 -0.6287
  124OSM   H17G13280   1.939   4.291   8.371 -0.4270 -0.3751 -0.9422
  124OSM   C18F13281   1.777   4.335   8.253  0.7924 -0.3742  0.0617
  124OSM   H18F13282   1.711   4.264   8.308 -2.8842  3.5583  1.2775
  124OSM   H18G13283   1.815   4.288   8.160  2.8280  0.5288  0.3864
  124OSM   H18H13284   1.714   4.417   8.212  0.5850 -0.2011  0.7020
  125OSM      N13285   1.568   0.375   6.017 -0.3500  0.5208 -0.3521
  125OSM    C1513286   1.686   0.282   5.999 -0.5156  0.2159  0.2728
  125OSM   H15A13287   1.675   0.200   6.068  0.1731 -0.2998 -0.2251
  125OSM   H15B13288   1.782   0.319   6.032 -0.5830 -0.5548  1.3896
  125OSM   H15C13289   1.697   0.255   5.895  1.7072  1.8787 -0.0036
  125OSM    C1413290   1.590   0.502   5.933  0.0630  0.3112 -0.0084
  125OSM   H14A13291   1.578   0.484   5.827  0.4549  0.0228 -0.0046
  125OSM   H14B13292   1.693   0.525   5.953  0.4905 -1.7513  0.3830
  125OSM   H14C13293   1.518   0.576   5.964  2.8661  1.9714  3.1172
  125OSM    C1313294   1.455   0.308   5.961  0.5648 -0.4772 -0.1129
  125OSM   H13A13295   1.468   0.308   5.853  0.3987  0.4646 -0.1416
  125OSM   H13B13296   1.362   0.359   5.981 -0.5192 -2.1969 -0.5049
  125OSM   H13C13297   1.447   0.208   6.001 -1.2260 -0.5617 -0.5850
  125OSM    C1213298   1.547   0.409   6.163 -0.2743 -0.3744 -0.2432
  125OSM   H12A13299   1.458   0.470   6.176 -0.7895 -1.2450  0.4346
  125OSM   H12B13300   1.627   0.471   6.201  0.4552 -1.5841  0.2240
  125OSM    C1113301   1.548   0.299   6.273  0.2159  0.2522  0.5343
  125OSM   H11A13302   1.468   0.233   6.233  1.5345 -1.2272  0.2159
  125OSM   H11B13303   1.523   0.350   6.368 -0.4636  2.2870 -0.6796
  125OSM      P13304   1.721   0.134   6.369 -0.5408 -0.3399  0.2446
  125OSM    O1313305   1.620   0.024   6.376 -0.0790 -0.5526  0.6332
  125OSM    O1413306   1.857   0.096   6.344  0.1400  0.2135  0.3095
  125OSM    O1113307   1.717   0.212   6.508  0.2513 -0.3480 -0.3553
  125OSM    O1213308   1.680   0.236   6.261 -0.1463 -0.2687 -0.0965
  125OSM    C1S13309   1.809   0.317   6.535  0.3275 -0.7269 -0.0482
  125OSM    H1S13310   1.787   0.409   6.477  2.9678  0.1581  0.2112
  125OSM    H1T13311   1.910   0.292   6.494  0.0256  0.4921 -1.6027
  125OSM     NF13312   1.886   0.468   6.711  0.2452 -0.4080  0.5763
  125OSM    HNF13313   1.969   0.472   6.766  0.5160  1.6803  0.1298
  125OSM    C2S13314   1.822   0.341   6.683  0.1218  0.5777 -0.2805
  125OSM    H2S13315   1.720   0.338   6.727 -0.4883 -0.6249 -1.6786
  125OSM    C3S13316   1.895   0.217   6.744  0.9397 -0.6230 -0.3439
  125OSM    H3S13317   1.999   0.220   6.705  2.1542  3.2347  2.5293
  125OSM     O313318   1.829   0.093   6.728 -0.4867  0.3614  0.8540
  125OSM    HO313319   1.756   0.128   6.677 -0.9436 -0.0289  1.2290
  125OSM    C4S13320   1.916   0.238   6.900 -0.3406 -0.7787  0.0547
  125OSM    H4S13321   1.829   0.215   6.964 -2.0535 -0.1108 -1.9321
  125OSM    C5S13322   2.036   0.279   6.956  0.4684 -0.6792  0.1665
  125OSM    H5S13323   2.111   0.319   6.887 -0.4339 -1.6631 -1.4319
  125OSM    C6S13324   2.052   0.308   7.100 -0.5450  0.5389  0.0296
  125OSM    H6S13325   2.062   0.419   7.102  0.6843  0.4223  1.1957
  125OSM    H6T13326   2.150   0.267   7.133  1.1331  3.8963 -0.2845
  125OSM    C7S13327   1.941   0.276   7.199 -0.5517  0.2278  0.1610
  125OSM    H7S13328   1.917   0.167   7.197 -0.2572  0.1699 -0.8249
  125OSM    H7T13329   1.852   0.334   7.169 -0.4615 -0.1155 -0.8002
  125OSM    C8S13330   1.976   0.323   7.343 -0.2187 -0.1406 -0.2132
  125OSM    H8S13331   1.997   0.431   7.327  0.4769  0.0097  1.5036
  125OSM    H8T13332   2.065   0.277   7.392 -1.3650 -0.4980  1.6336
  125OSM    C9S13333   1.865   0.318   7.447 -0.0571  0.1822 -0.4487
  125OSM    H9S13334   1.840   0.210   7.459  1.1608 -0.0377  0.3148
  125OSM    H9T13335   1.773   0.372   7.415  0.0783  1.3068  0.9895
  125OSM   C10S13336   1.906   0.374   7.586 -0.2318 -0.2979 -0.7703
  125OSM   H10S13337   1.920   0.484   7.583  2.8444 -0.5635  0.5058
  125OSM   H10T13338   2.002   0.337   7.628 -1.1099 -1.3420  0.3825
  125OSM   C11S13339   1.789   0.340   7.683 -0.1124 -0.4940  0.7769
  125OSM   H11S13340   1.786   0.230   7.694  0.5554 -0.6242 -0.2475
  125OSM   H11T13341   1.694   0.380   7.641  0.0013  0.8993  1.7453
  125OSM   C12S13342   1.795   0.414   7.822 -0.3674  0.1154  0.4323
  125OSM   H12S13343   1.699   0.380   7.867  0.6127 -1.7285  1.2472
  125OSM   H12T13344   1.800   0.523   7.801 -1.8061 -0.3929 -3.4411
  125OSM   C13S13345   1.906   0.350   7.900 -0.4667  0.0176  0.1774
  125OSM   H13S13346   2.007   0.388   7.875 -0.0491 -1.3784 -0.3516
  125OSM   H13T13347   1.904   0.241   7.879 -0.5724  0.5824 -3.3051
  125OSM   C14S13348   1.878   0.364   8.052  0.6580 -0.0356  0.0588
  125OSM   H14S13349   1.951   0.306   8.113  0.8699  0.5254  0.3486
  125OSM   H14T13350   1.783   0.311   8.072  0.9957 -1.0071 -0.8357
  125OSM   C15S13351   1.880   0.511   8.089 -0.6553 -0.2967  0.6993
  125OSM   H15S13352   1.806   0.563   8.025 -2.5916 -1.0474  2.2430
  125OSM   H15T13353   1.980   0.548   8.059 -1.8820  1.4931 -1.4793
  125OSM   C16S13354   1.858   0.538   8.238 -0.1688  0.5752 -0.2830
  125OSM   H16S13355   1.936   0.472   8.282  0.9165  1.2952 -1.0846
  125OSM   H16T13356   1.756   0.500   8.259  0.9173 -2.2950  0.2189
  125OSM   C17S13357   1.887   0.676   8.285  0.3817  0.1914 -0.1052
  125OSM   H17S13358   1.824   0.745   8.224 -0.4309 -1.6309 -1.4080
  125OSM   H17T13359   1.992   0.704   8.258 -0.0960  0.4360 -1.8274
  125OSM   C18S13360   1.868   0.698   8.437 -0.5197 -0.1254  0.2028
  125OSM   H18S13361   1.761   0.695   8.466 -1.2598  0.7955 -2.2253
  125OSM   H18T13362   1.905   0.800   8.458  0.1651 -0.2921 -0.1612
  125OSM   H18U13363   1.931   0.620   8.486 -1.6691 -0.6217  0.9416
  125OSM    C1F13364   1.838   0.591   6.677 -0.0865 -0.0390 -0.6051
  125OSM     OF13365   1.722   0.606   6.642 -0.0955  0.5687  0.0385
  125OSM    C2F13366   1.934   0.701   6.698  0.7357  0.0651 -0.4593
  125OSM    H2F13367   1.933   0.772   6.612  1.0491  1.8948  0.9988
  125OSM    H2G13368   2.035   0.662   6.723  0.5729 -0.0376  0.0498
  125OSM    C3F13369   1.894   0.781   6.829  0.3175  0.4204  0.4686
  125OSM    H3F13370   1.986   0.838   6.855  0.7691  0.5918 -1.3111
  125OSM    H3G13371   1.895   0.701   6.906  3.3863  0.5658  0.7252
  125OSM    C4F13372   1.783   0.883   6.808  0.0818  0.4561 -0.7448
  125OSM    H4F13373   1.692   0.849   6.753  0.2792 -0.0101 -0.7857
  125OSM    H4G13374   1.832   0.973   6.765  2.4418  0.7841  2.3073
  125OSM    C5F13375   1.728   0.927   6.945  0.3354 -0.2192  0.0688
  125OSM    H5F13376   1.653   1.006   6.921 -1.7876 -2.0732  0.2246
  125OSM    H5G13377   1.808   0.962   7.014  0.3945 -0.4580  0.1232
  125OSM    C6F13378   1.633   0.825   7.008 -0.0421 -0.5642 -0.2243
  125OSM    H6F13379   1.664   0.720   7.025 -0.5665 -0.4645  1.5443
  125OSM    H6G13380   1.537   0.811   6.953  0.9644 -1.2151 -1.8943
  125OSM    C7F13381   1.604   0.877   7.150  0.2612 -0.2931 -0.0800
  125OSM    H7F13382   1.560   0.977   7.132  1.6920  0.1033 -1.6138
  125OSM    H7G13383   1.703   0.883   7.199  0.2879 -3.4069  0.4670
  125OSM    C8F13384   1.498   0.808   7.238 -0.1772  0.7615  0.2287
  125OSM    H8F13385   1.405   0.791   7.180  0.4555  0.3498 -0.6877
  125OSM    H8G13386   1.492   0.873   7.327  2.9486  0.4193  0.8303
  125OSM    C9F13387   1.561   0.671   7.267 -0.0791 -0.8847  0.0523
  125OSM    H9F13388   1.627   0.632   7.188  0.1461  1.1337 -0.8168
  125OSM   C10F13389   1.538   0.586   7.373 -0.7149 -0.5165 -0.3586
  125OSM   H10F13390   1.583   0.486   7.366  0.0834 -0.1505 -0.5023
  125OSM   C11F13391   1.436   0.610   7.482  0.1765 -0.0154  0.0854
  125OSM   H11F13392   1.348   0.543   7.469  2.0037 -2.4711 -0.4458
  125OSM   H11G13393   1.400   0.715   7.478 -0.4726 -0.2390 -0.0854
  125OSM   C12F13394   1.497   0.578   7.625  0.2323 -0.5606  0.1258
  125OSM   H12F13395   1.592   0.635   7.637  0.7254 -1.5450  0.9709
  125OSM   H12G13396   1.517   0.470   7.640 -0.1918 -0.6953 -0.2454
  125OSM   C13F13397   1.398   0.616   7.736 -0.5902 -0.9933 -0.3345
  125OSM   H13F13398   1.303   0.560   7.722 -0.3669 -1.4230 -0.1599
  125OSM   H13G13399   1.382   0.726   7.730  0.6319 -0.8468 -1.2387
  125OSM   C14F13400   1.451   0.584   7.884 -0.1004  0.0139 -0.0283
  125OSM   H14F13401   1.561   0.580   7.900 -0.0450 -0.8426 -0.5618
  125OSM   H14G13402   1.418   0.481   7.906 -0.7570  0.3917  0.7884
  125OSM   C15F13403   1.395   0.674   7.990 -0.5184 -0.2651 -0.3520
  125OSM   H15F13404   1.284   0.673   7.987 -0.5073 -0.1395 -2.6536
  125OSM   H15G13405   1.425   0.780   7.973  0.3477 -0.7904 -2.3616
  125OSM   C16F13406   1.447   0.646   8.137  0.4749 -0.0119 -0.7738
  125OSM   H16F13407   1.558   0.645   8.144  0.3727 -0.3066  1.1258
  125OSM   H16G13408   1.405   0.550   8.175  0.5182  0.1267 -0.3749
  125OSM   C17F13409   1.393   0.745   8.239  0.5316 -0.3241  0.1235
  125OSM   H17F13410   1.378   0.689   8.334 -1.6262 -0.6885 -0.3720
  125OSM   H17G13411   1.292   0.780   8.210  0.3825 -0.6232  0.2835
  125OSM   C18F13412   1.492   0.858   8.269  0.1793 -0.3871  0.0188
  125OSM   H18F13413   1.453   0.913   8.358  0.2484 -0.4047  0.0596
  125OSM   H18G13414   1.515   0.929   8.187  2.9945 -0.9013  0.2715
  125OSM   H18H13415   1.591   0.814   8.290  0.1538 -2.6817 -3.7458
  126OSM      N13416   5.759   0.391   6.582  0.0952 -0.3427 -0.0788
  126OSM    C1513417   5.712   0.266   6.645  0.2087 -0.7610  0.3321
  126OSM   H15A13418   5.701   0.280   6.751  0.3620 -2.7466  0.6478
  126OSM   H15B13419   5.787   0.189   6.630  1.2690  0.4994 -1.1492
  126OSM   H15C13420   5.618   0.232   6.605 -0.6100  1.9706 -0.2210
  126OSM    C1413421   5.761   0.366   6.431  0.1901 -0.0199  0.7429
  126OSM   H14A13422   5.799   0.273   6.392  1.7102  0.9527 -0.2011
  126OSM   H14B13423   5.798   0.443   6.366  0.1947  0.9965  1.9044
  126OSM   H14C13424   5.656   0.353   6.410  0.6721 -1.4276 -0.9811
  126OSM    C1313425   5.657   0.494   6.614 -0.2617 -0.6055  0.2360
  126OSM   H13A13426   5.619   0.502   6.715 -2.0233  1.5030 -0.5105
  126OSM   H13B13427   5.561   0.484   6.565 -0.5531  2.1633  0.1178
  126OSM   H13C13428   5.694   0.593   6.592  0.3684 -0.7892  0.4530
  126OSM    C1213429   5.895   0.419   6.652 -0.1108  0.5852 -0.4736
  126OSM   H12A13430   5.962   0.335   6.644  0.8864  1.3488 -0.4355
  126OSM   H12B13431   5.887   0.415   6.760 -1.7893 -1.3169 -0.6249
  126OSM    C1113432   5.975   0.546   6.605 -0.3409 -0.4786 -0.8085
  126OSM   H11A13433   6.010   0.514   6.505  1.1168  0.2412 -0.5565
  126OSM   H11B13434   6.067   0.564   6.665 -1.0653  2.0434 -0.3582
  126OSM      P13435   5.894   0.789   6.683 -0.1219 -0.0136 -0.1247
  126OSM    O1313436   5.810   0.886   6.612 -0.0593 -0.3447  0.0953
  126OSM    O1413437   5.850   0.743   6.819  0.8219 -0.0161  0.0515
  126OSM    O1113438   6.047   0.839   6.679  0.1212 -0.5697 -0.6309
  126OSM    O1213439   5.900   0.665   6.585  0.3494  0.8348  0.0621
  126OSM    C1S13440   6.077   0.976   6.717 -0.9009 -0.8781  0.4678
  126OSM    H1S13441   5.984   1.036   6.708 -0.7118 -0.6132  0.2655
  126OSM    H1T13442   6.148   1.020   6.645 -0.9406 -2.2839 -0.4756
  126OSM     NF13443   6.183   1.126   6.879 -0.1127 -0.4790 -0.7802
  126OSM    HNF13444   6.279   1.148   6.862 -0.5054  1.9594 -0.2676
  126OSM    C2S13445   6.136   0.997   6.863 -0.1756  0.1315  0.3133
  126OSM    H2S13446   6.065   0.981   6.947  0.1721  1.6911  0.9232
  126OSM    C3S13447   6.253   0.881   6.878  0.1651 -0.1184 -0.0919
  126OSM    H3S13448   6.311   0.884   6.783  0.1247 -2.7117 -0.2636
  126OSM     O313449   6.189   0.753   6.878  0.3313 -0.1718  0.1511
  126OSM    HO313450   6.114   0.758   6.818  0.1324  0.3038  0.4392
  126OSM    C4S13451   6.340   0.893   6.996 -0.1490 -0.8301 -0.3483
  126OSM    H4S13452   6.296   0.870   7.094  2.5792 -0.8011  0.9858
  126OSM    C5S13453   6.471   0.917   6.988 -0.2047  0.1121  0.2515
  126OSM    H5S13454   6.516   0.931   6.889  0.1730  0.1392  0.4248
  126OSM    C6S13455   6.565   0.921   7.103  0.4484 -0.3112 -0.0105
  126OSM    H6S13456   6.652   0.976   7.062 -1.9201  3.4727 -0.4373
  126OSM    H6T13457   6.591   0.817   7.132 -1.2825 -0.4003  1.4467
  126OSM    C7S13458   6.520   1.013   7.220  0.4005  0.4032  0.3969
  126OSM    H7S13459   6.599   1.025   7.297 -0.0052  1.2571  0.6937
  126OSM    H7T13460   6.431   0.968   7.269  0.0849 -1.0911 -1.3923
  126OSM    C8S13461   6.473   1.153   7.184  0.1720 -0.7622 -0.3919
  126OSM    H8S13462   6.394   1.161   7.106 -0.2718  0.1917  0.1300
  126OSM    H8T13463   6.553   1.221   7.147  1.1026 -1.9749 -0.6827
  126OSM    C9S13464   6.419   1.224   7.315  0.2658  0.4358 -0.1886
  126OSM    H9S13465   6.510   1.258   7.370  0.4576 -0.7800  0.2929
  126OSM    H9T13466   6.374   1.154   7.389  1.6300  0.1995  0.4503
  126OSM   C10S13467   6.333   1.345   7.290  0.2248 -0.2053 -0.4040
  126OSM   H10S13468   6.233   1.328   7.244  0.3148  1.5015 -1.3023
  126OSM   H10T13469   6.377   1.418   7.219  1.5683 -1.1904 -0.6166
  126OSM   C11S13470   6.296   1.415   7.422  0.3271 -0.5493  0.1771
  126OSM   H11S13471   6.276   1.523   7.403  1.8810 -0.0645  1.0414
  126OSM   H11T13472   6.393   1.404   7.476  0.9553  0.1582 -0.7802
  126OSM   C12S13473   6.176   1.364   7.510  0.7161  0.1810 -1.1274
  126OSM   H12S13474   6.158   1.255   7.502 -0.9193  0.2886  0.4208
  126OSM   H12T13475   6.082   1.418   7.489 -0.2973 -1.0629  0.0216
  126OSM   C13S13476   6.203   1.395   7.658 -0.9479  0.0991 -0.1620
  126OSM   H13S13477   6.193   1.505   7.671  0.0866  0.0930  0.8286
  126OSM   H13T13478   6.308   1.371   7.683 -0.6857  0.2593 -1.0899
  126OSM   C14S13479   6.111   1.312   7.745 -1.0114  0.4352  0.4824
  126OSM   H14S13480   6.108   1.207   7.707  0.5299 -0.0866  1.6828
  126OSM   H14T13481   6.009   1.354   7.737 -0.9354  0.2841 -2.7053
  126OSM   C15S13482   6.148   1.301   7.899 -0.2207  0.6627 -0.6756
  126OSM   H15S13483   6.258   1.307   7.911 -0.2507  0.2420 -0.1123
  126OSM   H15T13484   6.116   1.201   7.937  2.2112  0.5822  1.3927
  126OSM   C16S13485   6.073   1.401   7.993 -0.1394  0.1582 -0.1481
  126OSM   H16S13486   5.965   1.374   7.999  0.3181 -1.6874  0.5044
  126OSM   H16T13487   6.076   1.504   7.951 -0.4074  1.2083  2.2297
  126OSM   C17S13488   6.130   1.410   8.130 -0.7682  0.1568  0.0353
  126OSM   H17S13489   6.241   1.403   8.138 -0.8501 -0.9700  0.2206
  126OSM   H17T13490   6.093   1.325   8.190 -0.1763  0.2889  0.5932
  126OSM   C18S13491   6.091   1.541   8.204  0.0352  0.2257  0.4853
  126OSM   H18S13492   6.112   1.533   8.313 -0.2155 -2.3250  0.4138
  126OSM   H18T13493   5.981   1.556   8.207  0.0439  0.3282  0.3127
  126OSM   H18U13494   6.127   1.634   8.155 -0.0655  0.3818  0.7068
  126OSM    C1F13495   6.094   1.225   6.899 -0.2127  0.5225  0.2354
  126OSM     OF13496   5.976   1.203   6.921 -0.4724  0.2837 -0.0825
  126OSM    C2F13497   6.141   1.369   6.879  0.1228  0.6495  0.1599
  126OSM    H2F13498   6.164   1.389   6.772 -4.9732  0.4347 -1.2577
  126OSM    H2G13499   6.226   1.386   6.948  0.8810  0.9533 -0.8349
  126OSM    C3F13500   6.042   1.484   6.932  0.1780  0.0401 -0.7893
  126OSM    H3F13501   5.935   1.472   6.906 -0.4150 -2.3321  2.1992
  126OSM    H3G13502   6.093   1.573   6.888  0.9966 -0.2887 -0.5396
  126OSM    C4F13503   6.061   1.506   7.083 -0.4475 -0.1191 -0.0635
  126OSM    H4F13504   6.166   1.525   7.113  0.0687 -0.8453 -1.3159
  126OSM    H4G13505   6.031   1.417   7.142  0.4043  0.7282  1.7308
  126OSM    C5F13506   5.961   1.616   7.139 -0.1783  1.0617  0.0798
  126OSM    H5F13507   5.859   1.589   7.105 -0.0579  2.3287 -1.3878
  126OSM    H5G13508   5.987   1.716   7.100  0.8477  1.3611  1.4530
  126OSM    C6F13509   5.972   1.621   7.294  0.5484  0.3198  0.5318
  126OSM    H6F13510   6.081   1.609   7.314  0.3410 -0.8768  1.0367
  126OSM    H6G13511   5.912   1.546   7.348 -1.2239  0.2017 -1.4461
  126OSM    C7F13512   5.921   1.753   7.356 -0.7501  0.1606  0.3890
  126OSM    H7F13513   5.810   1.754   7.348 -0.8783 -2.7222  0.8448
  126OSM    H7G13514   5.954   1.838   7.292  0.4803 -0.0960  0.6634
  126OSM    C8F13515   5.962   1.782   7.504  0.0747 -0.0310 -0.7025
  126OSM    H8F13516   5.931   1.886   7.528  1.2960 -0.0027  0.8812
  126OSM    H8G13517   6.072   1.785   7.513 -0.0335  0.3124  0.8748
  126OSM    C9F13518   5.915   1.687   7.612  0.5397 -0.3340 -0.4094
  126OSM    H9F13519   5.913   1.578   7.597 -1.6469 -0.5381  1.0090
  126OSM   C10F13520   5.877   1.729   7.737 -0.6550 -0.1313  0.1395
  126OSM   H10F13521   5.861   1.652   7.814 -1.2163  1.5456  1.7837
  126OSM   C11F13522   5.877   1.870   7.800 -0.2286 -0.3105  0.6332
  126OSM   H11F13523   5.774   1.907   7.815  0.6915  2.2609  1.1763
  126OSM   H11G13524   5.920   1.936   7.721 -1.1003 -2.7162 -2.0034
  126OSM   C12F13525   5.971   1.874   7.920  0.6691 -0.4435  0.3298
  126OSM   H12F13526   6.071   1.852   7.876 -0.3646 -2.0057 -1.3974
  126OSM   H12G13527   5.944   1.789   7.986 -0.7680 -0.1416  0.1785
  126OSM   C13F13528   5.953   1.997   8.009 -0.2674 -0.0687 -0.6053
  126OSM   H13F13529   5.862   1.993   8.073  1.3190 -0.1165  1.7336
  126OSM   H13G13530   5.938   2.092   7.953  0.1085  0.2708 -0.1326
  126OSM   C14F13531   6.072   2.024   8.095 -0.9758 -0.7513 -0.1455
  126OSM   H14F13532   6.154   2.050   8.026  1.3211 -2.9026  1.5796
  126OSM   H14G13533   6.109   1.927   8.136  2.5164 -0.1955 -1.6531
  126OSM   C15F13534   6.051   2.132   8.201 -0.2629 -0.9553 -0.6264
  126OSM   H15F13535   5.968   2.115   8.273  1.8096 -0.9785  1.8679
  126OSM   H15G13536   6.027   2.222   8.140  1.0524 -0.2662 -0.1522
  126OSM   C16F13537   6.175   2.173   8.278 -0.2133  0.3461 -0.6484
  126OSM   H16F13538   6.165   2.266   8.339  2.6741 -0.8087  1.8775
  126OSM   H16G13539   6.247   2.208   8.201 -0.0383  2.5766  0.4262
  126OSM   C17F13540   6.240   2.070   8.365  0.3190  0.6995 -0.0793
  126OSM   H17F13541   6.305   2.108   8.446 -0.1536  0.6709  0.3214
  126OSM   H17G13542   6.303   2.010   8.296 -1.8337 -1.2275 -0.4997
  126OSM   C18F13543   6.132   1.979   8.432 -0.3658  0.2538 -0.4034
  126OSM   H18F13544   6.169   1.914   8.514 -1.1179 -1.0996 -1.0863
  126OSM   H18G13545   6.077   1.916   8.358  0.1601 -1.2330  0.4237
  126OSM   H18H13546   6.060   2.046   8.483  0.0464  1.0178 -0.8198
  127OSM      N13547   5.096   5.841   6.027 -0.2013 -0.2522  0.0512
  127OSM    C1513548   5.000   5.942   5.978  0.1218 -0.9168  0.7582
  127OSM   H15A13549   5.051   6.037   5.989 -0.5672 -0.4219 -0.2206
  127OSM   H15B13550   4.908   5.944   6.035 -1.4023  0.2714 -1.6002
  127OSM   H15C13551   4.966   5.922   5.878  0.1783  2.6500 -0.1158
  127OSM    C1413552   5.129   5.887   6.167 -0.0574 -0.4778 -0.2585
  127OSM   H14A13553   5.193   5.809   6.206 -1.1724 -0.5004  1.6423
  127OSM   H14B13554   5.046   5.885   6.236 -0.2613  1.4833 -0.3986
  127OSM   H14C13555   5.175   5.984   6.173 -0.7907 -0.1330 -0.1079
  127OSM    C1313556   5.045   5.701   6.026 -0.0424  0.5250  0.1495
  127OSM   H13A13557   5.119   5.625   6.047 -1.6152 -1.2436 -0.4754
  127OSM   H13B13558   4.998   5.679   5.932 -1.3711  0.1240  0.8879
  127OSM   H13C13559   4.963   5.682   6.094  0.0473 -0.5358 -0.0261
  127OSM    C1213560   5.227   5.844   5.942  0.4603 -0.0567  0.6178
  127OSM   H12A13561   5.270   5.943   5.947  2.2579 -0.6599 -1.3220
  127OSM   H12B13562   5.206   5.831   5.837  2.1210  0.0519  0.2501
  127OSM    C1113563   5.342   5.751   5.970  0.4335 -0.1810 -0.3163
  127OSM   H11A13564   5.421   5.764   5.892 -0.2581  2.2026 -0.7014
  127OSM   H11B13565   5.313   5.645   5.961 -0.7988  0.2501 -1.8128
  127OSM      P13566   5.505   5.896   6.120 -0.0314  0.1894 -0.3602
  127OSM    O1313567   5.630   5.868   6.051  0.3827  0.0856 -0.0558
  127OSM    O1413568   5.439   6.026   6.089  0.4336 -0.0209 -0.7673
  127OSM    O1113569   5.523   5.898   6.280  0.4572 -0.2658  0.8657
  127OSM    O1213570   5.406   5.770   6.101 -0.1347 -0.0989  0.0461
  127OSM    C1S13571   5.562   5.797   6.367 -0.7092  0.5816 -0.3705
  127OSM    H1S13572   5.673   5.796   6.378 -0.7446  0.6570 -0.0043
  127OSM    H1T13573   5.537   5.691   6.347  2.0496 -0.3541  0.5769
  127OSM     NF13574   5.608   5.733   6.594  0.0609  0.4305 -0.7157
  127OSM    HNF13575   5.567   5.654   6.640  0.2537  0.2940 -0.7721
  127OSM    C2S13576   5.519   5.817   6.516 -0.3788 -0.2985  0.2459
  127OSM    H2S13577   5.537   5.923   6.542  0.6186 -0.2892 -0.4183
  127OSM    C3S13578   5.366   5.798   6.535 -0.1183 -0.4184  0.2426
  127OSM    H3S13579   5.346   5.691   6.512 -0.2422 -0.7578  1.8334
  127OSM     O313580   5.285   5.873   6.440  0.3399 -1.0152  0.5833
  127OSM    HO313581   5.350   5.906   6.377 -1.2448 -0.5757 -0.9135
  127OSM    C4S13582   5.326   5.831   6.673 -0.3683 -0.4148 -0.7217
  127OSM    H4S13583   5.348   5.766   6.759 -1.3114  0.4196  0.1742
  127OSM    C5S13584   5.266   5.946   6.716 -1.4938  0.1867  0.9644
  127OSM    H5S13585   5.236   6.014   6.635  0.5767 -4.6477 -4.5679
  127OSM    C6S13586   5.230   5.989   6.853  0.5584 -0.2681  0.1012
  127OSM    H6S13587   5.121   5.989   6.875  0.9912 -0.3227  2.4353
  127OSM    H6T13588   5.257   6.094   6.878  0.4741 -0.7902  2.5468
  127OSM    C7S13589   5.293   5.894   6.957  0.7698 -0.2396  1.1409
  127OSM    H7S13590   5.400   5.884   6.929 -0.0767 -0.5697 -2.6097
  127OSM    H7T13591   5.243   5.796   6.942 -0.9789  0.1319  3.7577
  127OSM    C8S13592   5.256   5.935   7.102  0.4301 -0.0499  0.6190
  127OSM    H8S13593   5.147   5.914   7.110  0.2208 -0.3844 -2.1806
  127OSM    H8T13594   5.279   6.044   7.109 -2.2904  0.7624 -1.5304
  127OSM    C9S13595   5.323   5.855   7.212 -0.0108 -0.0405  0.4401
  127OSM    H9S13596   5.429   5.889   7.206 -0.2187  0.3686 -1.6246
  127OSM    H9T13597   5.305   5.746   7.202 -4.1137  0.3026  2.1430
  127OSM   C10S13598   5.295   5.897   7.355  0.8785  0.4230  0.1113
  127OSM   H10S13599   5.197   5.851   7.381  1.0471 -0.2644 -0.4299
  127OSM   H10T13600   5.286   6.007   7.365 -0.0286  0.4925 -1.2837
  127OSM   C11S13601   5.400   5.836   7.453 -1.0759  0.8603 -0.3685
  127OSM   H11S13602   5.496   5.890   7.445 -0.3412 -0.1118  1.3780
  127OSM   H11T13603   5.414   5.726   7.439 -1.0884  0.5337  1.8776
  127OSM   C12S13604   5.353   5.849   7.600  0.7676 -0.2621  0.0759
  127OSM   H12S13605   5.250   5.807   7.604  0.8144 -0.5304 -1.0747
  127OSM   H12T13606   5.346   5.958   7.623 -0.0270 -0.2473 -0.1875
  127OSM   C13S13607   5.441   5.778   7.700 -0.1290  0.0439 -0.6109
  127OSM   H13S13608   5.548   5.788   7.671  0.7297 -4.5832  0.1400
  127OSM   H13T13609   5.418   5.669   7.702 -0.4238  0.1129 -0.1255
  127OSM   C14S13610   5.420   5.827   7.843  0.0056  0.0398  0.1565
  127OSM   H14S13611   5.318   5.804   7.881 -1.3591  3.7557 -0.7529
  127OSM   H14T13612   5.429   5.938   7.841 -1.4179  0.3107  3.3414
  127OSM   C15S13613   5.524   5.765   7.945  0.0951 -0.1116 -0.0043
  127OSM   H15S13614   5.620   5.785   7.894 -0.0617  1.7243  0.3745
  127OSM   H15T13615   5.499   5.657   7.950 -2.5580  0.3722 -1.2274
  127OSM   C16S13616   5.504   5.831   8.085 -0.1108 -0.4264 -0.4535
  127OSM   H16S13617   5.593   5.802   8.146  1.1697  2.1336 -0.9864
  127OSM   H16T13618   5.412   5.795   8.136 -0.5605  0.7485 -0.4060
  127OSM   C17S13619   5.508   5.981   8.094  0.2149  0.0297  0.2083
  127OSM   H17S13620   5.508   6.012   8.201 -1.9806  0.0675  0.2579
  127OSM   H17T13621   5.427   6.035   8.040  0.6802 -0.1139 -0.6317
  127OSM   C18S13622   5.641   6.041   8.032 -0.3995  0.0303 -0.0952
  127OSM   H18S13623   5.654   6.146   8.063 -0.6197 -0.1698  0.7036
  127OSM   H18T13624   5.626   6.045   7.922  2.4153 -1.4326 -0.6288
  127OSM   H18U13625   5.724   5.989   8.084 -2.3777 -0.8670  2.4037
  127OSM    C1F13626   5.738   5.750   6.618  0.2264 -0.3118 -0.2707
  127OSM     OF13627   5.798   5.854   6.579  0.4731  0.3467  0.0605
  127OSM    C2F13628   5.810   5.649   6.691 -0.3028 -0.3441 -0.3289
  127OSM    H2F13629   5.916   5.679   6.706  0.1813 -0.2053 -3.3474
  127OSM    H2G13630   5.818   5.552   6.636 -0.6265 -0.4839 -0.1359
  127OSM    C3F13631   5.750   5.621   6.833  0.8215 -0.9394 -0.3948
  127OSM    H3F13632   5.813   5.550   6.892 -0.2805 -0.7042  1.1253
  127OSM    H3G13633   5.646   5.582   6.832  0.7936 -0.9880  1.2036
  127OSM    C4F13634   5.755   5.747   6.923  0.4607  0.5235  0.6253
  127OSM    H4F13635   5.710   5.832   6.868 -0.5986 -0.2435  0.2742
  127OSM    H4G13636   5.859   5.759   6.959  0.5210  1.4139  0.1636
  127OSM    C5F13637   5.673   5.722   7.047 -0.2801  0.0594  0.2620
  127OSM    H5F13638   5.566   5.707   7.021 -0.3602 -0.1236  0.6937
  127OSM    H5G13639   5.671   5.816   7.107  0.6012 -0.2011  0.7043
  127OSM    C6F13640   5.717   5.606   7.132  0.3750  0.4603 -0.3850
  127OSM    H6F13641   5.826   5.615   7.153  0.5602 -1.3667 -0.3763
  127OSM    H6G13642   5.700   5.509   7.080 -0.3291 -0.3090  1.2235
  127OSM    C7F13643   5.646   5.602   7.270  0.1640 -0.2888 -0.0479
  127OSM    H7F13644   5.535   5.615   7.268  0.3373  2.0132  1.6853
  127OSM    H7G13645   5.689   5.695   7.313 -1.0148  0.0505  0.4474
  127OSM    C8F13646   5.678   5.479   7.358  0.8889 -0.3364  0.4295
  127OSM    H8F13647   5.658   5.383   7.306  3.2048  0.0900 -1.4254
  127OSM    H8G13648   5.601   5.476   7.438  1.2348 -1.0056  0.7517
  127OSM    C9F13649   5.817   5.490   7.408 -0.5457  0.1424  0.0654
  127OSM    H9F13650   5.891   5.504   7.328 -0.2580 -0.3679  0.2355
  127OSM   C10F13651   5.860   5.488   7.535 -0.5933  0.0402 -0.1102
  127OSM   H10F13652   5.965   5.506   7.560 -1.0371 -0.8841  2.8510
  127OSM   C11F13653   5.772   5.484   7.662  0.5699 -0.0421 -0.1244
  127OSM   H11F13654   5.695   5.405   7.655 -0.9254  1.4922 -2.0648
  127OSM   H11G13655   5.720   5.580   7.680 -1.4292 -1.1227  0.1270
  127OSM   C12F13656   5.869   5.448   7.773 -0.1709 -0.5846  0.4261
  127OSM   H12F13657   5.961   5.510   7.764 -1.0365  0.6807 -0.0923
  127OSM   H12G13658   5.896   5.341   7.764  0.0690 -0.4456 -0.5520
  127OSM   C13F13659   5.792   5.503   7.896  0.5054 -0.3321  0.5046
  127OSM   H13F13660   5.685   5.480   7.917  0.0035  0.5668 -0.9320
  127OSM   H13G13661   5.790   5.614   7.889 -1.4522 -0.4153 -1.2446
  127OSM   C14F13662   5.868   5.478   8.026 -0.4858 -0.3157  0.3551
  127OSM   H14F13663   5.969   5.515   8.000 -1.6260  1.7800 -1.3437
  127OSM   H14G13664   5.864   5.372   8.060  0.9589  0.1071  2.0009
  127OSM   C15F13665   5.822   5.582   8.136 -0.3133  0.2336  0.4979
  127OSM   H15F13666   5.716   5.564   8.162  0.0533 -2.5249  0.3817
  127OSM   H15G13667   5.830   5.687   8.101 -0.3763  0.5793  1.5056
  127OSM   C16F13668   5.916   5.572   8.258  0.2798  0.3362  0.6193
  127OSM   H16F13669   6.023   5.574   8.228  1.0272 -1.3402  2.8727
  127OSM   H16G13670   5.913   5.470   8.302  2.4111 -0.4462 -0.8949
  127OSM   C17F13671   5.889   5.677   8.363 -0.3477 -0.1028  0.2302
  127OSM   H17F13672   5.782   5.704   8.351 -1.9206 -5.1384  0.5936
  127OSM   H17G13673   5.954   5.765   8.342  0.6641 -1.1660 -1.3505
  127OSM   C18F13674   5.929   5.623   8.498  0.1570  0.4383 -0.0050
  127OSM   H18F13675   5.937   5.703   8.574  2.8827  0.4690 -0.2234
  127OSM   H18G13676   6.027   5.570   8.497  0.4968  0.7630 -4.5993
  127OSM   H18H13677   5.856   5.548   8.536  1.3466 -1.5236 -1.4258
  128OSM      N13678   2.599   6.095   5.798 -0.0220  0.8035 -0.9831
  128OSM    C1513679   2.537   6.216   5.723  0.2792  0.6183  0.2364
  128OSM   H15A13680   2.554   6.200   5.617  0.0375 -4.1021  0.7134
  128OSM   H15B13681   2.587   6.308   5.751  2.5711  0.2002 -2.0384
  128OSM   H15C13682   2.431   6.228   5.738  0.1062 -0.4783 -0.0261
  128OSM    C1413683   2.530   5.969   5.744 -0.4360  0.2800 -0.7430
  128OSM   H14A13684   2.422   5.972   5.746 -0.4498  0.1793  1.9750
  128OSM   H14B13685   2.565   5.881   5.797  1.3938 -0.1188 -2.5064
  128OSM   H14C13686   2.557   5.945   5.642 -1.0647  0.6471 -0.9998
  128OSM    C1313687   2.751   6.096   5.769  0.1893  0.6646  0.0023
  128OSM   H13A13688   2.807   6.036   5.839  0.0331 -0.5220 -0.8676
  128OSM   H13B13689   2.801   6.192   5.762  0.9769  0.1598 -1.8310
  128OSM   H13C13690   2.772   6.048   5.674  0.5746  0.6003  0.1186
  128OSM    C1213691   2.570   6.101   5.952  0.6185 -0.0394 -0.8001
  128OSM   H12A13692   2.472   6.068   5.980  1.6273 -1.8590  0.8540
  128OSM   H12B13693   2.575   6.207   5.975  0.2458 -0.0402 -0.7209
  128OSM    C1113694   2.664   6.026   6.055  0.1106  0.0652 -0.1238
  128OSM   H11A13695   2.641   6.071   6.154 -1.3242 -1.1136  0.1017
  128OSM   H11B13696   2.769   6.054   6.030  1.2521 -1.9015  2.0584
  128OSM      P13697   2.525   5.815   6.109 -0.3875  0.5613 -0.2023
  128OSM    O1313698   2.409   5.864   6.040  1.0524  0.0320  0.4729
  128OSM    O1413699   2.552   5.673   6.111 -0.4550 -0.4415  0.5949
  128OSM    O1113700   2.537   5.863   6.253  0.1802  0.3159 -0.1752
  128OSM    O1213701   2.657   5.887   6.043  0.5604  0.1653  0.0954
  128OSM    C1S13702   2.451   5.818   6.360 -0.3532 -0.4272  0.9360
  128OSM    H1S13703   2.500   5.731   6.409 -0.7348 -1.5055 -0.5286
  128OSM    H1T13704   2.349   5.791   6.325 -0.5871  0.7901  0.6523
  128OSM     NF13705   2.357   5.867   6.588 -0.5143  0.7267  0.4620
  128OSM    HNF13706   2.261   5.896   6.594 -0.6737  0.9455 -2.2473
  128OSM    C2S13707   2.438   5.917   6.477  0.6934 -0.7499 -0.0166
  128OSM    H2S13708   2.535   5.933   6.527  0.1697 -0.5370  0.9636
  128OSM    C3S13709   2.374   6.054   6.432 -0.8553  0.0095  0.1586
  128OSM    H3S13710   2.276   6.040   6.380  0.4945 -0.5723 -2.3636
  128OSM     O313711   2.454   6.117   6.334  0.0693  0.0694 -0.0987
  128OSM    HO313712   2.493   6.038   6.297  0.6988  0.7555 -0.9344
  128OSM    C4S13713   2.364   6.142   6.550 -0.3756 -0.4014  0.0570
  128OSM    H4S13714   2.458   6.196   6.571 -0.7397 -0.2793  1.5252
  128OSM    C5S13715   2.253   6.188   6.606 -0.2105  0.4024  0.2015
  128OSM    H5S13716   2.160   6.158   6.555  0.7540 -1.7974 -0.3306
  128OSM    C6S13717   2.252   6.276   6.732 -0.2277  0.5020  0.2920
  128OSM    H6S13718   2.210   6.378   6.718 -1.5350  0.1987  1.7902
  128OSM    H6T13719   2.352   6.302   6.773 -0.5742  0.6856  1.0445
  128OSM    C7S13720   2.185   6.206   6.849 -0.2089 -0.2270 -0.3944
  128OSM    H7S13721   2.220   6.101   6.853  2.5129  0.5924 -0.4969
  128OSM    H7T13722   2.075   6.197   6.843 -0.6201  2.1920  1.6299
  128OSM    C8S13723   2.217   6.279   6.986  0.7542  0.4148 -0.4414
  128OSM    H8S13724   2.198   6.388   6.994  1.9630  0.6169 -0.2725
  128OSM    H8T13725   2.321   6.259   7.018  0.1598  0.7131  1.8699
  128OSM    C9S13726   2.130   6.199   7.089  0.4918  0.3224 -0.2864
  128OSM    H9S13727   2.156   6.092   7.069  0.6658  0.3643 -0.2907
  128OSM    H9T13728   2.023   6.206   7.060  1.0463  1.4723 -2.2552
  128OSM   C10S13729   2.142   6.263   7.229  0.5961 -0.0400 -0.0904
  128OSM   H10S13730   2.050   6.263   7.291  1.9509  1.1491  2.0490
  128OSM   H10T13731   2.178   6.366   7.210  1.5263 -0.7716 -2.6290
  128OSM   C11S13732   2.254   6.200   7.319 -0.3533 -0.4940  0.4768
  128OSM   H11S13733   2.336   6.176   7.249  0.0197  1.2394  0.2625
  128OSM   H11T13734   2.214   6.109   7.370 -1.9362 -0.0669  0.0713
  128OSM   C12S13735   2.313   6.301   7.413 -0.5089  0.4612 -0.5686
  128OSM   H12S13736   2.372   6.375   7.356  1.6365 -1.3788 -0.8772
  128OSM   H12T13737   2.372   6.244   7.488 -0.7393  2.1641  0.9833
  128OSM   C13S13738   2.212   6.373   7.510 -0.6140  0.3735  0.2895
  128OSM   H13S13739   2.121   6.311   7.525 -1.3135  1.6179  1.4077
  128OSM   H13T13740   2.166   6.468   7.475 -0.1762  1.3162  2.1396
  128OSM   C14S13741   2.276   6.399   7.642  0.3578 -0.6318 -1.0632
  128OSM   H14S13742   2.373   6.452   7.628  0.6161 -0.5049  0.8789
  128OSM   H14T13743   2.313   6.310   7.698  1.4260  0.8649  0.7330
  128OSM   C15S13744   2.188   6.484   7.738 -0.2094 -0.5827  0.1146
  128OSM   H15S13745   2.088   6.437   7.748 -0.7214  0.2427 -0.9934
  128OSM   H15T13746   2.176   6.584   7.691  2.2209 -0.7664 -1.0835
  128OSM   C16S13747   2.242   6.495   7.881 -0.6698 -0.2248 -0.0968
  128OSM   H16S13748   2.165   6.546   7.942 -1.2349 -0.9299 -0.2023
  128OSM   H16T13749   2.329   6.563   7.885 -1.8040  1.2046  2.5434
  128OSM   C17S13750   2.281   6.364   7.957  0.5743  0.5568 -0.0370
  128OSM   H17S13751   2.294   6.403   8.059 -0.4493  2.6980 -0.6731
  128OSM   H17T13752   2.376   6.331   7.910  0.6244  1.2776 -0.4582
  128OSM   C18S13753   2.173   6.258   7.938  0.1995  0.9097  0.2789
  128OSM   H18S13754   2.188   6.166   7.998 -1.0425 -0.1507 -0.9383
  128OSM   H18T13755   2.158   6.222   7.834 -0.1086 -0.6918  0.8445
  128OSM   H18U13756   2.072   6.289   7.973  0.5926  0.7723  1.5804
  128OSM    C1F13757   2.406   5.786   6.680  0.4466  0.0969 -1.1423
  128OSM     OF13758   2.525   5.744   6.685  0.2064 -0.2260 -0.5030
  128OSM    C2F13759   2.318   5.747   6.795 -0.0744 -0.6728  0.4072
  128OSM    H2F13760   2.314   5.637   6.809 -1.2456 -0.5776  0.9225
  128OSM    H2G13761   2.217   5.781   6.765  0.2863 -0.5010 -0.6645
  128OSM    C3F13762   2.363   5.817   6.931  0.2413 -0.0602  0.0027
  128OSM    H3F13763   2.348   5.927   6.931 -0.9053 -0.1534  2.4763
  128OSM    H3G13764   2.470   5.806   6.957  0.8133  0.4749 -1.9453
  128OSM    C4F13765   2.283   5.763   7.061  0.3623  0.4748 -0.1625
  128OSM    H4F13766   2.283   5.652   7.056 -3.4845  0.4131 -2.7412
  128OSM    H4G13767   2.177   5.792   7.043  0.2859 -0.5122 -1.5039
  128OSM    C5F13768   2.334   5.814   7.198  0.2705  0.3402 -0.3375
  128OSM    H5F13769   2.350   5.923   7.211 -0.0913  0.4665 -0.8752
  128OSM    H5G13770   2.428   5.761   7.221 -0.8869 -0.7791  2.1188
  128OSM    C6F13771   2.228   5.761   7.301  0.1018 -0.1643 -0.4923
  128OSM    H6F13772   2.219   5.651   7.286  0.5865 -0.3551  0.4871
  128OSM    H6G13773   2.130   5.812   7.288  0.2659  0.7397  1.4406
  128OSM    C7F13774   2.279   5.780   7.450 -0.5499  0.3822 -0.7103
  128OSM    H7F13775   2.309   5.886   7.464 -1.4671  0.5368  0.2361
  128OSM    H7G13776   2.377   5.728   7.446 -1.5288 -1.4728 -1.9374
  128OSM    C8F13777   2.188   5.730   7.560  0.1254 -0.0978 -0.4527
  128OSM    H8F13778   2.149   5.632   7.526  1.5163 -0.7413 -0.2701
  128OSM    H8G13779   2.112   5.811   7.568  0.2169  0.1069 -1.5189
  128OSM    C9F13780   2.252   5.692   7.693  0.5243 -0.6725 -0.1568
  128OSM    H9F13781   2.346   5.636   7.690  1.0962  0.1197  1.4905
  128OSM   C10F13782   2.198   5.700   7.817 -0.4963 -0.8333 -0.1280
  128OSM   H10F13783   2.245   5.675   7.913  0.2934 -0.6523 -0.4615
  128OSM   C11F13784   2.056   5.757   7.845 -0.2819  0.4824  0.3122
  128OSM   H11F13785   1.982   5.675   7.848 -1.0886  1.0300 -2.0835
  128OSM   H11G13786   2.013   5.821   7.765 -0.0556  1.0378  0.6319
  128OSM   C12F13787   2.068   5.841   7.971 -0.0769 -0.3134 -0.2882
  128OSM   H12F13788   2.138   5.927   7.956 -1.4128  1.4643  2.7391
  128OSM   H12G13789   2.109   5.784   8.057 -0.1330  0.9267  0.5891
  128OSM   C13F13790   1.931   5.897   8.018  0.3585  0.2228  0.0964
  128OSM   H13F13791   1.887   5.958   7.936  1.7884  1.4700  0.2114
  128OSM   H13G13792   1.960   5.964   8.102 -3.7901  1.7770  0.5060
  128OSM   C14F13793   1.827   5.793   8.060 -0.3773 -0.0686 -0.4063
  128OSM   H14F13794   1.821   5.711   7.985 -0.2978 -1.8334  1.4251
  128OSM   H14G13795   1.726   5.838   8.072 -0.4159 -0.4329  0.7111
  128OSM   C15F13796   1.872   5.718   8.187 -0.9648 -0.0362  0.7288
  128OSM   H15F13797   1.977   5.680   8.185  0.0778  2.4721  2.8268
  128OSM   H15G13798   1.797   5.636   8.197 -1.3725  0.4913  2.0980
  128OSM   C16F13799   1.863   5.798   8.311 -0.3231  0.3406 -0.0955
  128OSM   H16F13800   1.758   5.830   8.328  0.1669  1.1977  1.6096
  128OSM   H16G13801   1.906   5.900   8.308 -2.1096  1.1920  1.1212
  128OSM   C17F13802   1.890   5.712   8.432  0.8065  0.1649  0.1104
  128OSM   H17F13803   1.996   5.677   8.434  0.5157 -0.7019  2.1046
  128OSM   H17G13804   1.821   5.625   8.425  1.6596 -0.4966 -0.2954
  128OSM   C18F13805   1.862   5.794   8.559 -0.0268  0.1551 -0.3052
  128OSM   H18F13806   1.756   5.823   8.545 -0.3954 -1.6549 -1.5817
  128OSM   H18G13807   1.923   5.887   8.558  0.5552 -0.1969  0.7572
  128OSM   H18H13808   1.896   5.741   8.651 -1.0856  1.9854  1.2309
  129OSM      N13809   4.227   4.146   6.140 -0.1427  0.2936 -0.4963
  129OSM    C1513810   4.300   4.240   6.050  0.1810 -0.5043  0.6328
  129OSM   H15A13811   4.399   4.263   6.087  0.4262 -0.1712 -0.2174
  129OSM   H15B13812   4.243   4.330   6.028  0.1399 -0.7211 -0.1772
  129OSM   H15C13813   4.307   4.194   5.953 -1.2784 -0.8641  0.6738
  129OSM    C1413814   4.101   4.109   6.073  0.2829 -0.6137  0.4789
  129OSM   H14A13815   4.030   4.191   6.070 -0.2560 -1.0906  0.0044
  129OSM   H14B13816   4.050   4.028   6.124 -0.3971  0.0961  0.9476
  129OSM   H14C13817   4.119   4.069   5.975  1.2197 -0.5061  0.5990
  129OSM    C1313818   4.304   4.020   6.160  0.4709  0.1161 -0.1662
  129OSM   H13A13819   4.394   4.057   6.208 -0.6696  3.9874 -0.6518
  129OSM   H13B13820   4.328   3.975   6.065  1.9531  2.2631 -0.9034
  129OSM   H13C13821   4.260   3.946   6.226 -0.0562  2.4507  2.3127
  129OSM    C1213822   4.197   4.221   6.269  0.3168  0.1264 -0.7064
  129OSM   H12A13823   4.135   4.301   6.231  0.0948  1.1512  1.6576
  129OSM   H12B13824   4.280   4.285   6.297 -1.8489  2.3804  0.9347
  129OSM    C1113825   4.145   4.147   6.398  0.0610 -0.8072 -0.2122
  129OSM   H11A13826   4.123   4.216   6.482 -0.4444 -2.5083  1.1116
  129OSM   H11B13827   4.244   4.110   6.434  0.4434  0.7231  0.4242
  129OSM      P13828   4.065   3.907   6.470 -0.0304  0.0667  0.3799
  129OSM    O1313829   3.933   3.843   6.466 -0.1828  0.0636 -0.5752
  129OSM    O1413830   4.181   3.835   6.405  0.0348  0.6210  0.1459
  129OSM    O1113831   4.115   3.960   6.605 -0.4068  0.3890  0.0324
  129OSM    O1213832   4.048   4.043   6.382 -0.3847  0.0350  0.0901
  129OSM    C1S13833   4.023   4.027   6.699  0.0665  0.7903 -0.1910
  129OSM    H1S13834   3.945   3.957   6.735 -0.5473  1.1170 -0.8627
  129OSM    H1T13835   3.965   4.105   6.644  0.1063  0.3737 -0.8281
  129OSM     NF13836   4.000   4.180   6.870 -0.5760 -0.6081  0.0439
  129OSM    HNF13837   4.022   4.273   6.840 -0.6452 -0.4314  0.5207
  129OSM    C2S13838   4.094   4.086   6.825  0.1384 -0.1900  0.3215
  129OSM    H2S13839   4.099   3.997   6.891 -1.1870 -2.3786 -2.3101
  129OSM    C3S13840   4.231   4.140   6.785 -0.1649 -0.1529 -0.0492
  129OSM    H3S13841   4.224   4.216   6.705 -0.0692  0.3374  0.3987
  129OSM     O313842   4.327   4.045   6.737  0.4236 -0.2111  0.0769
  129OSM    HO313843   4.270   3.971   6.715  0.5662 -0.8830  1.8069
  129OSM    C4S13844   4.284   4.215   6.905  0.1463 -0.7025 -0.4133
  129OSM    H4S13845   4.253   4.320   6.918 -0.8081 -1.2476  2.6789
  129OSM    C5S13846   4.339   4.158   7.013  0.5071  0.2442 -0.5991
  129OSM    H5S13847   4.349   4.048   7.006  0.8894  0.0980  1.5995
  129OSM    C6S13848   4.392   4.214   7.140  0.3507  0.9275  0.1449
  129OSM    H6S13849   4.500   4.188   7.149  0.1911  0.4437  0.8145
  129OSM    H6T13850   4.340   4.165   7.225 -0.3816  2.2889  0.5033
  129OSM    C7S13851   4.368   4.359   7.166 -0.2965 -0.8158 -0.8705
  129OSM    H7S13852   4.258   4.373   7.169 -0.3481 -1.3658  0.5061
  129OSM    H7T13853   4.406   4.403   7.071 -0.9832  0.3740 -0.6213
  129OSM    C8S13854   4.433   4.413   7.297 -0.5241  0.3042  0.1987
  129OSM    H8S13855   4.412   4.522   7.305 -1.0820  0.1921  0.2609
  129OSM    H8T13856   4.542   4.393   7.284 -0.6200 -0.4272  0.4548
  129OSM    C9S13857   4.393   4.349   7.432 -0.7412 -0.1288 -0.0282
  129OSM    H9S13858   4.403   4.239   7.446 -1.2019  0.1637  3.4228
  129OSM    H9T13859   4.286   4.367   7.452 -0.6648  0.2511  0.0468
  129OSM   C10S13860   4.465   4.409   7.554  0.2994  0.4605 -0.2064
  129OSM   H10S13861   4.453   4.519   7.552  1.2656  0.6136 -3.3406
  129OSM   H10T13862   4.573   4.399   7.532 -0.0152  2.0118 -3.0344
  129OSM   C11S13863   4.409   4.337   7.675  0.1921 -0.3706 -0.4194
  129OSM   H11S13864   4.433   4.229   7.666  1.1959 -0.1450 -0.4908
  129OSM   H11T13865   4.299   4.352   7.674  0.0934 -1.0685 -0.8934
  129OSM   C12S13866   4.462   4.393   7.804 -0.2267  0.5292 -0.4489
  129OSM   H12S13867   4.455   4.503   7.804  1.8896  0.8403 -4.6924
  129OSM   H12T13868   4.569   4.364   7.814 -0.3813 -0.2340 -0.8884
  129OSM   C13S13869   4.389   4.345   7.933  0.0068 -0.5842  0.4909
  129OSM   H13S13870   4.404   4.235   7.931 -1.6110 -0.8352 -1.0324
  129OSM   H13T13871   4.279   4.360   7.939  0.2703  1.6883  0.4339
  129OSM   C14S13872   4.465   4.400   8.059  0.1955  0.2711  0.3080
  129OSM   H14S13873   4.430   4.505   8.070 -0.8193 -0.0532  0.2945
  129OSM   H14T13874   4.575   4.390   8.051  0.1192 -0.0559 -0.4044
  129OSM   C15S13875   4.409   4.326   8.185  0.4645 -0.3872  0.1558
  129OSM   H15S13876   4.407   4.217   8.165 -0.2834 -0.5039  0.8194
  129OSM   H15T13877   4.305   4.351   8.213  1.3075  0.2914  3.0356
  129OSM   C16S13878   4.502   4.343   8.305  0.9670  0.3573 -0.0836
  129OSM   H16S13879   4.606   4.309   8.286  1.1380  2.4344 -3.6115
  129OSM   H16T13880   4.468   4.292   8.398  0.0003 -0.8205 -1.0554
  129OSM   C17S13881   4.512   4.492   8.340 -0.1357 -0.2883  0.6547
  129OSM   H17S13882   4.412   4.535   8.358  0.0833  0.1663  0.7926
  129OSM   H17T13883   4.561   4.529   8.247  1.4844  0.8927  1.9190
  129OSM   C18S13884   4.613   4.538   8.451  0.6847 -0.0600 -0.2621
  129OSM   H18S13885   4.616   4.649   8.450 -3.4624  0.2798  2.4053
  129OSM   H18T13886   4.717   4.508   8.427  0.5725  1.1761 -2.6726
  129OSM   H18U13887   4.576   4.494   8.546 -0.4287  1.0113 -0.1724
  129OSM    C1F13888   3.890   4.136   6.935 -0.2985 -0.1855 -0.4157
  129OSM     OF13889   3.868   4.016   6.949  0.1486 -0.1012  0.0290
  129OSM    C2F13890   3.801   4.241   6.988 -0.0229  0.0701  0.9747
  129OSM    H2F13891   3.709   4.194   7.030 -0.6105 -0.5028 -0.8639
  129OSM    H2G13892   3.764   4.298   6.900  0.4760 -1.5534 -0.3515
  129OSM    C3F13893   3.873   4.337   7.084 -0.1508  0.1294 -0.0476
  129OSM    H3F13894   3.805   4.422   7.106  0.2330 -0.1249  2.4588
  129OSM    H3G13895   3.958   4.387   7.033 -0.2131 -0.3159 -0.6027
  129OSM    C4F13896   3.891   4.275   7.220 -0.0758  0.5892 -0.6899
  129OSM    H4F13897   3.967   4.197   7.198 -2.8958 -2.5761  0.1303
  129OSM    H4G13898   3.793   4.233   7.249 -0.2842 -0.6684 -2.9639
  129OSM    C5F13899   3.941   4.368   7.324  0.1063  0.3823 -0.4828
  129OSM    H5F13900   3.873   4.454   7.336 -1.3955 -0.8217 -0.0317
  129OSM    H5G13901   4.036   4.413   7.289  2.2021 -1.1986  2.6782
  129OSM    C6F13902   3.986   4.302   7.452  1.2516 -0.5230 -0.0772
  129OSM    H6F13903   4.089   4.260   7.449  1.4424 -0.0136 -0.8369
  129OSM    H6G13904   3.931   4.207   7.468  1.4847 -0.4724  1.1081
  129OSM    C7F13905   3.969   4.390   7.577  0.1078  1.1627 -0.2143
  129OSM    H7F13906   3.863   4.424   7.581  0.6921  2.9072  1.9905
  129OSM    H7G13907   4.027   4.484   7.568  0.8223  0.8561  0.9840
  129OSM    C8F13908   3.988   4.322   7.708  0.1496  0.0344 -0.1989
  129OSM    H8F13909   3.983   4.402   7.784  0.0971  0.9793 -1.1763
  129OSM    H8G13910   4.094   4.287   7.713  0.2794  0.4346 -0.1679
  129OSM    C9F13911   3.883   4.220   7.744 -0.9055  0.2603  0.0942
  129OSM    H9F13912   3.831   4.174   7.658  1.3233  0.4668 -1.4237
  129OSM   C10F13913   3.869   4.163   7.866  0.3488 -0.3615  0.3422
  129OSM   H10F13914   3.803   4.075   7.859 -0.0357 -0.0152 -0.5441
  129OSM   C11F13915   3.940   4.200   7.993 -0.1097  0.1645 -0.7105
  129OSM   H11F13916   4.044   4.231   7.970  0.3727 -0.2331  0.7745
  129OSM   H11G13917   3.947   4.107   8.053 -2.2103 -0.6347 -1.5986
  129OSM   C12F13918   3.877   4.303   8.089 -0.0209 -0.2652  0.5538
  129OSM   H12F13919   3.776   4.262   8.109  0.6942 -1.5994  1.6004
  129OSM   H12G13920   3.861   4.398   8.034 -0.9441  0.8421  2.6002
  129OSM   C13F13921   3.966   4.333   8.210 -0.9212  0.2073 -0.6282
  129OSM   H13F13922   3.946   4.439   8.235  0.6337  0.4800 -0.4474
  129OSM   H13G13923   4.075   4.333   8.190 -1.0754  0.0924 -1.5192
  129OSM   C14F13924   3.953   4.230   8.329  0.2622  0.1746 -0.1250
  129OSM   H14F13925   3.936   4.128   8.289  0.9777 -0.0910  0.2199
  129OSM   H14G13926   3.860   4.263   8.379 -0.8722 -2.9413  0.0096
  129OSM   C15F13927   4.072   4.240   8.427  1.0403  0.7811  0.3912
  129OSM   H15F13928   4.162   4.198   8.378  0.0952  1.1243 -1.7644
  129OSM   H15G13929   4.045   4.177   8.515  0.2524  0.1758 -0.2598
  129OSM   C16F13930   4.105   4.381   8.478 -0.1056 -0.0627  0.2097
  129OSM   H16F13931   4.013   4.419   8.527  0.0845  3.6496 -1.9326
  129OSM   H16G13932   4.135   4.456   8.402 -2.2381  0.3443 -0.2937
  129OSM   C17F13933   4.214   4.381   8.579  0.4900 -0.4358  0.1164
  129OSM   H17F13934   4.308   4.353   8.526  1.6661 -1.6598  2.6768
  129OSM   H17G13935   4.197   4.304   8.658 -0.7373  1.2257  1.5290
  129OSM   C18F13936   4.237   4.516   8.647 -0.0456  0.4279 -0.1852
  129OSM   H18F13937   4.282   4.593   8.580  0.9720  0.6170  0.6906
  129OSM   H18G13938   4.306   4.506   8.734  2.3145 -3.3330 -2.2165
  129OSM   H18H13939   4.144   4.563   8.686  0.8065  0.9125  1.3550
  130OSM      N13940   2.748   0.483   6.217 -0.1456 -0.3798 -0.5178
  130OSM    C1513941   2.614   0.432   6.173 -0.2644 -0.8749 -0.1863
  130OSM   H15A13942   2.623   0.330   6.140  2.0263 -1.6472  2.3742
  130OSM   H15B13943   2.572   0.496   6.097 -1.0108  3.6289  3.5499
  130OSM   H15C13944   2.544   0.425   6.256 -1.3717 -0.0373 -1.0196
  130OSM    C1413945   2.816   0.377   6.305  0.5485 -0.3499 -0.7762
  130OSM   H14A13946   2.800   0.273   6.280  0.1247 -0.2731 -0.8413
  130OSM   H14B13947   2.775   0.394   6.404  0.5537  1.4620 -1.0547
  130OSM   H14C13948   2.921   0.401   6.310  0.6538 -0.9022 -0.2284
  130OSM    C1313949   2.824   0.511   6.094 -1.0253 -0.1675  0.5113
  130OSM   H13A13950   2.813   0.437   6.017  0.5824  0.8545 -0.7707
  130OSM   H13B13951   2.926   0.530   6.123 -0.4165  0.1561 -1.6545
  130OSM   H13C13952   2.780   0.601   6.053 -0.4531 -0.1312 -0.0335
  130OSM    C1213953   2.732   0.610   6.303 -0.4657 -0.1392 -0.1078
  130OSM   H12A13954   2.670   0.579   6.386 -0.4400  0.3278  0.0932
  130OSM   H12B13955   2.675   0.683   6.248 -0.8959 -2.0079 -2.2566
  130OSM    C1113956   2.854   0.687   6.353  0.4985 -0.5493 -0.6248
  130OSM   H11A13957   2.891   0.643   6.448 -0.7006  1.4176  0.8387
  130OSM   H11B13958   2.823   0.790   6.383 -1.4158 -1.5358  1.1178
  130OSM      P13959   3.096   0.734   6.284  0.1836 -0.0605 -0.0389
  130OSM    O1313960   3.173   0.616   6.231  0.1773 -0.3969 -0.2435
  130OSM    O1413961   3.111   0.860   6.211 -0.3453  0.3875 -0.0343
  130OSM    O1113962   3.114   0.759   6.432 -0.1681  0.1283 -0.6419
  130OSM    O1213963   2.952   0.698   6.259  0.5998  0.4050 -0.2528
  130OSM    C1S13964   3.234   0.831   6.486 -1.1145  0.7757 -0.5903
  130OSM    H1S13965   3.251   0.923   6.426 -0.0370  0.2007 -1.2051
  130OSM    H1T13966   3.327   0.773   6.466  0.2345  2.9704 -1.0897
  130OSM     NF13967   3.297   0.971   6.672 -0.2335  0.2574 -0.1683
  130OSM    HNF13968   3.374   0.937   6.725 -0.8807 -1.8558 -0.4962
  130OSM    C2S13969   3.197   0.880   6.629 -0.2256  0.3132 -0.1681
  130OSM    H2S13970   3.104   0.940   6.628  1.2795  2.8066 -1.4100
  130OSM    C3S13971   3.191   0.752   6.717  0.1975  0.2350  0.5925
  130OSM    H3S13972   3.288   0.699   6.716  0.9875  1.5814  1.6580
  130OSM     O313973   3.098   0.658   6.662  0.4077  0.1873  0.0470
  130OSM    HO313974   3.077   0.693   6.575  0.1389 -3.2218 -1.4560
  130OSM    C4S13975   3.154   0.788   6.861  0.3201  0.5070  0.0741
  130OSM    H4S13976   3.058   0.842   6.864  0.2084  0.2987  0.2487
  130OSM    C5S13977   3.227   0.764   6.970 -0.0392  0.3200 -0.1744
  130OSM    H5S13978   3.327   0.719   6.960 -0.7184 -0.9196 -1.8252
  130OSM    C6S13979   3.195   0.806   7.107  0.1741  0.1529  0.3716
  130OSM    H6S13980   3.086   0.798   7.125 -0.1384  0.4887 -1.2385
  130OSM    H6T13981   3.222   0.913   7.122 -2.4298  1.1728 -1.5423
  130OSM    C7S13982   3.261   0.708   7.207 -0.5825  0.0721 -0.1885
  130OSM    H7S13983   3.371   0.719   7.214 -0.3635 -2.1003  0.5511
  130OSM    H7T13984   3.236   0.601   7.188  1.2676 -0.7117  1.4961
  130OSM    C8S13985   3.192   0.736   7.343 -0.0516  0.5273 -0.0146
  130OSM    H8S13986   3.082   0.722   7.348  0.2248 -2.3152 -0.4109
  130OSM    H8T13987   3.204   0.842   7.377 -0.7655  0.8310 -0.6686
  130OSM    C9S13988   3.259   0.648   7.451 -0.1913  0.0685  0.3559
  130OSM    H9S13989   3.366   0.668   7.431 -0.2907 -0.9220 -1.5005
  130OSM    H9T13990   3.250   0.541   7.420 -2.0311  0.5199 -0.8307
  130OSM   C10S13991   3.213   0.668   7.595  0.2097 -0.3465  0.1797
  130OSM   H10S13992   3.231   0.576   7.655 -2.0231 -0.4444  0.7968
  130OSM   H10T13993   3.104   0.682   7.604  0.1937 -0.5143  0.2533
  130OSM   C11S13994   3.265   0.793   7.656 -0.5536 -0.8811  0.2666
  130OSM   H11S13995   3.264   0.879   7.585  3.4431 -0.1885  0.8169
  130OSM   H11T13996   3.375   0.789   7.668  0.0069  0.7056 -3.1744
  130OSM   C12S13997   3.189   0.836   7.781  0.3773 -0.0041 -0.4984
  130OSM   H12S13998   3.164   0.743   7.838 -0.8893  0.2445 -0.6042
  130OSM   H12T13999   3.092   0.878   7.745  0.3742 -0.7370 -1.3859
  130OSM   C13S14000   3.259   0.938   7.873 -0.2152  0.4104  0.5592
  130OSM   H13S14001   3.300   1.018   7.807  3.1489 -1.8478 -0.3228
  130OSM   H13T14002   3.351   0.898   7.920  0.8538  0.7893 -1.0903
  130OSM   C14S14003   3.162   0.994   7.974  0.1500  0.4479 -0.3706
  130OSM   H14S14004   3.067   1.025   7.927 -0.6791 -1.9569 -0.4324
  130OSM   H14T14005   3.204   1.085   8.021  2.6321 -1.3855  1.2882
  130OSM   C15S14006   3.143   0.897   8.092 -0.3733 -0.1082  0.1507
  130OSM   H15S14007   3.242   0.886   8.143 -0.7763  0.8472  1.1959
  130OSM   H15T14008   3.108   0.794   8.072  1.0330 -0.3646 -1.1219
  130OSM   C16S14009   3.058   0.964   8.202 -0.1973  0.7280  0.5160
  130OSM   H16S14010   2.959   0.980   8.154 -0.0013 -1.9691 -0.9596
  130OSM   H16T14011   3.100   1.063   8.232  0.7693  0.1291  1.2152
  130OSM   C17S14012   3.024   0.873   8.323 -0.2248  0.2436  0.3727
  130OSM   H17S14013   3.122   0.839   8.362 -0.0278 -0.8094 -0.9769
  130OSM   H17T14014   2.965   0.786   8.288  0.9549 -0.4617  0.0912
  130OSM   C18S14015   2.954   0.952   8.436 -0.2019 -0.0169 -0.1684
  130OSM   H18S14016   2.958   0.893   8.531  0.7470 -1.5568 -1.1193
  130OSM   H18T14017   2.845   0.968   8.424 -0.4238 -0.0171  1.5517
  130OSM   H18U14018   3.013   1.046   8.443  1.4537 -0.9020 -1.5267
  130OSM    C1F14019   3.311   1.101   6.652 -0.0483  0.4134  0.0223
  130OSM     OF14020   3.229   1.162   6.588  0.2883  0.4818 -0.1414
  130OSM    C2F14021   3.431   1.175   6.717  0.6104  0.1924  0.6969
  130OSM    H2F14022   3.512   1.204   6.647  2.4052 -0.1526  2.5225
  130OSM    H2G14023   3.487   1.107   6.785  0.2324  0.0679  0.8872
  130OSM    C3F14024   3.401   1.292   6.811  0.1741 -0.4136  0.2507
  130OSM    H3F14025   3.331   1.354   6.751 -0.2353 -1.4369 -0.3614
  130OSM    H3G14026   3.501   1.339   6.817 -0.5272  1.0979  0.7947
  130OSM    C4F14027   3.351   1.270   6.952  0.4737  0.6220  0.2205
  130OSM    H4F14028   3.411   1.189   6.998 -2.1712 -0.9863  1.0194
  130OSM    H4G14029   3.246   1.236   6.957 -0.9061  4.1895 -0.8822
  130OSM    C5F14030   3.379   1.402   7.026  0.3058 -0.0245  0.4702
  130OSM    H5F14031   3.314   1.482   6.984  0.1167  0.5910  1.9035
  130OSM    H5G14032   3.483   1.431   7.001 -1.0810  1.9817 -4.2941
  130OSM    C6F14033   3.341   1.396   7.171  0.4056 -0.1325 -0.5538
  130OSM    H6F14034   3.230   1.384   7.173 -0.1529  3.8262  0.4969
  130OSM    H6G14035   3.355   1.493   7.222 -0.0686 -0.5252  0.3433
  130OSM    C7F14036   3.421   1.295   7.252 -0.4559  0.2957 -0.1916
  130OSM    H7F14037   3.529   1.321   7.248 -0.2822 -0.4506 -0.8612
  130OSM    H7G14038   3.417   1.191   7.212  1.2713 -0.0069  0.3223
  130OSM    C8F14039   3.379   1.295   7.400  0.8700  0.5449 -0.3194
  130OSM    H8F14040   3.273   1.264   7.402  1.2893 -0.9267  0.8645
  130OSM    H8G14041   3.377   1.402   7.430 -1.3267  1.4924 -3.3244
  130OSM    C9F14042   3.453   1.204   7.494 -0.6500  1.2907 -0.0545
  130OSM    H9F14043   3.498   1.118   7.443 -0.8368  1.4060 -0.4261
  130OSM   C10F14044   3.461   1.217   7.630 -0.2976  0.0015 -0.3734
  130OSM   H10F14045   3.516   1.144   7.691 -1.3263  0.1260  0.7406
  130OSM   C11F14046   3.411   1.325   7.721 -0.0201  0.0078 -0.1165
  130OSM   H11F14047   3.306   1.291   7.734 -0.5523  1.1866 -1.1584
  130OSM   H11G14048   3.425   1.422   7.668 -1.0253  0.9867  1.3306
  130OSM   C12F14049   3.483   1.329   7.856  0.3172  0.5321  0.2183
  130OSM   H12F14050   3.587   1.367   7.850  0.1810  0.9259  0.3567
  130OSM   H12G14051   3.498   1.230   7.905  1.2385  0.9278  0.7411
  130OSM   C13F14052   3.407   1.409   7.960 -0.2862 -0.1210  0.3949
  130OSM   H13F14053   3.299   1.386   7.947  0.0899 -1.3435 -0.8799
  130OSM   H13G14054   3.432   1.516   7.945 -1.5097  0.0412 -0.6511
  130OSM   C14F14055   3.458   1.399   8.103 -0.4710 -0.2307 -0.3449
  130OSM   H14F14056   3.560   1.443   8.104 -0.2770 -0.6085 -1.7172
  130OSM   H14G14057   3.476   1.292   8.127  0.7012  0.5074  2.4747
  130OSM   C15F14058   3.359   1.465   8.203 -0.1017 -0.4123  0.6250
  130OSM   H15F14059   3.269   1.399   8.198  0.7023 -1.6158  1.5556
  130OSM   H15G14060   3.321   1.563   8.166 -1.1264 -0.4539  1.5238
  130OSM   C16F14061   3.401   1.476   8.346 -0.5373  0.1891  0.4923
  130OSM   H16F14062   3.450   1.377   8.363 -1.3663 -0.3452 -0.1587
  130OSM   H16G14063   3.315   1.497   8.414  1.1742  0.0424  2.8430
  130OSM   C17F14064   3.500   1.590   8.367  0.6560 -0.1986  0.3265
  130OSM   H17F14065   3.450   1.688   8.347  1.4096 -0.3827 -3.0903
  130OSM   H17G14066   3.568   1.587   8.280  0.6606 -0.0401  0.3250
  130OSM   C18F14067   3.578   1.589   8.497 -0.2961 -0.0823  0.7937
  130OSM   H18F14068   3.635   1.682   8.517 -0.3318  0.3601 -1.0088
  130OSM   H18G14069   3.644   1.500   8.492  0.7477  0.7343 -1.2369
  130OSM   H18H14070   3.509   1.570   8.582 -1.5191 -2.6468 -0.6375
  131OSM      N14071   5.760   4.504   6.015 -0.2574 -0.6324 -0.5394
  131OSM    C1514072   5.871   4.547   5.915 -0.9761  0.8058 -0.6767
  131OSM   H15A14073   5.902   4.470   5.846  1.6704  0.5300  0.7196
  131OSM   H15B14074   5.962   4.586   5.957 -1.2915  1.3327 -0.4656
  131OSM   H15C14075   5.838   4.631   5.857 -3.3608  0.2672 -0.2144
  131OSM    C1414076   5.645   4.461   5.930  0.1173 -0.3014  0.6212
  131OSM   H14A14077   5.667   4.377   5.866 -0.8115 -0.2207  0.1822
  131OSM   H14B14078   5.623   4.536   5.855 -0.6991  1.0033  2.0918
  131OSM   H14C14079   5.556   4.440   5.987 -1.4622 -0.1188 -1.6401
  131OSM    C1314080   5.804   4.393   6.101  0.1171  0.2956 -0.8580
  131OSM   H13A14081   5.896   4.405   6.156 -0.2656 -2.0853  0.4583
  131OSM   H13B14082   5.827   4.299   6.053 -0.2964 -1.4067  1.9978
  131OSM   H13C14083   5.727   4.367   6.173  2.1327 -0.2393  1.2352
  131OSM    C1214084   5.726   4.625   6.108 -0.0227  0.2224  0.0755
  131OSM   H12A14085   5.691   4.708   6.048 -0.3747 -0.1077 -0.1814
  131OSM   H12B14086   5.818   4.662   6.150 -1.3277  2.9953  0.7012
  131OSM    C1114087   5.631   4.600   6.222 -0.1670  0.5086 -0.0417
  131OSM   H11A14088   5.635   4.699   6.273  0.3038  0.2975  0.3456
  131OSM   H11B14089   5.675   4.534   6.299  1.2227  1.7016  0.2374
  131OSM      P14090   5.405   4.662   6.114 -0.9574 -0.0848  0.0566
  131OSM    O1314091   5.488   4.771   6.053  0.0449  0.3495  0.3290
  131OSM    O1414092   5.313   4.584   6.029 -0.1302  0.2588  0.4451
  131OSM    O1114093   5.324   4.728   6.238 -0.2300  0.5835 -0.0115
  131OSM    O1214094   5.503   4.559   6.177 -0.1234 -0.2111 -0.6430
  131OSM    C1S14095   5.228   4.644   6.309 -0.0708 -0.3037 -1.0487
  131OSM    H1S14096   5.250   4.535   6.303 -0.1789 -0.3254 -1.0628
  131OSM    H1T14097   5.125   4.666   6.273  0.0785  0.2601 -1.1349
  131OSM     NF14098   5.126   4.598   6.536 -0.0314 -0.5170 -0.3415
  131OSM    HNF14099   5.049   4.651   6.570  0.2762  0.0006 -0.4349
  131OSM    C2S14100   5.225   4.670   6.468 -0.7973 -0.5134  0.1980
  131OSM    H2S14101   5.327   4.642   6.503 -0.1283  1.4680 -0.0196
  131OSM    C3S14102   5.218   4.825   6.485  0.3399  0.0290  0.1053
  131OSM    H3S14103   5.142   4.867   6.415 -0.7277 -2.1715 -0.1232
  131OSM     O314104   5.347   4.888   6.462  0.1909 -0.0459  0.0484
  131OSM    HO314105   5.409   4.822   6.430  0.2052  0.7614 -1.7043
  131OSM    C4S14106   5.176   4.865   6.624  0.0047  0.7074  0.5649
  131OSM    H4S14107   5.237   4.821   6.704 -0.8641  1.0903  1.4554
  131OSM    C5S14108   5.078   4.947   6.652  0.1873 -1.0109 -0.5593
  131OSM    H5S14109   5.031   4.996   6.565  2.5072 -0.9511 -1.8611
  131OSM    C6S14110   5.021   4.987   6.789 -0.5517 -0.0410 -0.5287
  131OSM    H6S14111   4.918   4.948   6.808  0.3199 -1.0465  2.8258
  131OSM    H6T14112   5.024   5.098   6.794 -1.5535  0.0950 -2.1642
  131OSM    C7S14113   5.100   4.949   6.915 -0.4418  0.1625 -0.1393
  131OSM    H7S14114   5.202   4.992   6.906 -0.2957  0.5957  2.5119
  131OSM    H7T14115   5.129   4.842   6.921  2.2727  0.8364  0.2860
  131OSM    C8S14116   5.016   4.989   7.042 -0.6533 -0.8772  0.4394
  131OSM    H8S14117   4.912   4.955   7.023 -0.3837 -0.4072 -2.3323
  131OSM    H8T14118   5.022   5.100   7.051  1.4156 -0.8890 -0.1895
  131OSM    C9S14119   5.076   4.944   7.175  0.2344 -0.3089  0.7714
  131OSM    H9S14120   5.183   4.964   7.156  0.7738 -3.3631  0.0374
  131OSM    H9T14121   5.062   4.834   7.184 -2.9527  0.0783  1.8839
  131OSM   C10S14122   5.019   5.010   7.300  0.4380  1.0156  0.0107
  131OSM   H10S14123   4.924   4.956   7.321  1.3321 -0.1532  1.2671
  131OSM   H10T14124   4.992   5.118   7.299 -0.2356  0.9037  1.5436
  131OSM   C11S14125   5.098   4.976   7.429  0.0904  0.0327 -0.1580
  131OSM   H11S14126   5.182   5.049   7.429  0.8230 -0.7376  1.9200
  131OSM   H11T14127   5.133   4.871   7.439 -0.1341 -0.1200 -0.9307
  131OSM   C12S14128   5.011   5.026   7.541 -0.3718 -0.4159 -0.0510
  131OSM   H12S14129   4.927   4.953   7.546 -0.1918 -0.6410 -0.2919
  131OSM   H12T14130   4.959   5.122   7.523 -2.8801 -1.6594  0.1204
  131OSM   C13S14131   5.078   5.029   7.684 -0.4618  0.0156 -0.5552
  131OSM   H13S14132   5.168   5.094   7.681 -0.2760 -0.2307 -0.4027
  131OSM   H13T14133   5.101   4.923   7.706 -0.7223 -0.0485 -0.5922
  131OSM   C14S14134   4.980   5.074   7.796  0.3336  0.2992 -0.0571
  131OSM   H14S14135   4.895   5.003   7.790  2.7861 -2.8934 -0.0571
  131OSM   H14T14136   4.955   5.182   7.798  0.2398  0.2696  1.8354
  131OSM   C15S14137   5.053   5.046   7.926  1.0560 -0.5067 -0.2179
  131OSM   H15S14138   5.154   5.092   7.922  0.9197  0.1072  2.0033
  131OSM   H15T14139   5.071   4.936   7.922  0.4320 -0.5904 -1.1248
  131OSM   C16S14140   4.968   5.077   8.047  0.0597  0.4455 -0.3456
  131OSM   H16S14141   4.860   5.056   8.026 -0.7094  3.0505  0.6332
  131OSM   H16T14142   4.962   5.186   8.066  0.1534  0.4447 -0.3093
  131OSM   C17S14143   5.015   5.008   8.176 -0.2821 -0.3314  0.3517
  131OSM   H17S14144   5.101   5.062   8.220 -0.0067 -0.6864  0.2532
  131OSM   H17T14145   5.037   4.901   8.155 -1.7336 -0.3999 -1.0718
  131OSM   C18S14146   4.905   5.010   8.279  0.4278 -0.6766 -0.1437
  131OSM   H18S14147   4.809   4.959   8.254 -1.2258  0.4649  3.1939
  131OSM   H18T14148   4.875   5.115   8.302 -0.4851 -1.4523  2.6995
  131OSM   H18U14149   4.941   4.968   8.376 -1.4192  1.6295  1.6723
  131OSM    C1F14150   5.126   4.464   6.544  0.5773  0.4280 -0.0823
  131OSM     OF14151   5.217   4.398   6.492 -0.1904 -0.0924  0.4602
  131OSM    C2F14152   5.006   4.403   6.605 -0.3007 -0.6199 -1.3198
  131OSM    H2F14153   5.032   4.298   6.628  0.8838 -0.1979 -0.6213
  131OSM    H2G14154   4.911   4.410   6.548 -1.1348 -0.9034 -0.0166
  131OSM    C3F14155   4.971   4.467   6.746  0.4042 -0.9694  0.0831
  131OSM    H3F14156   4.887   4.417   6.797 -1.1440  2.0219  0.6866
  131OSM    H3G14157   4.925   4.566   6.727  0.0450 -1.4596 -1.8315
  131OSM    C4F14158   5.093   4.466   6.844 -0.3394  0.3218  0.3057
  131OSM    H4F14159   5.146   4.563   6.834  0.0234  0.1753  0.7700
  131OSM    H4G14160   5.163   4.388   6.807  0.6913  0.5566  1.6749
  131OSM    C5F14161   5.078   4.439   6.994 -0.2068  0.5955  0.8049
  131OSM    H5F14162   5.178   4.417   7.036  0.5533  2.5475  0.1260
  131OSM    H5G14163   5.010   4.352   7.011  1.5427 -0.8163  0.8243
  131OSM    C6F14164   5.011   4.552   7.071 -0.5502 -0.0448 -0.3752
  131OSM    H6F14165   4.923   4.598   7.021  0.1150  1.8264  0.0888
  131OSM    H6G14166   5.082   4.637   7.077  1.0590 -1.4321  1.5028
  131OSM    C7F14167   4.978   4.510   7.212  0.3925 -0.2710 -1.0093
  131OSM    H7F14168   5.066   4.471   7.267 -0.7500  0.1974  1.2799
  131OSM    H7G14169   4.912   4.421   7.203  1.5223 -1.4383  1.4481
  131OSM    C8F14170   4.926   4.628   7.294  0.6752  0.4474  0.5286
  131OSM    H8F14171   4.863   4.688   7.226  0.6378 -1.1166 -0.8777
  131OSM    H8G14172   5.009   4.696   7.323  2.3022 -1.6993  1.1507
  131OSM    C9F14173   4.840   4.583   7.406  0.4840 -0.4236 -0.0155
  131OSM    H9F14174   4.748   4.536   7.370 -0.0294  1.5703 -1.4956
  131OSM   C10F14175   4.863   4.599   7.539  0.0114  0.7116 -0.4062
  131OSM   H10F14176   4.788   4.560   7.610  2.8348  0.1036  2.4643
  131OSM   C11F14177   4.985   4.654   7.605  0.3057  0.2904 -0.0765
  131OSM   H11F14178   4.954   4.756   7.635 -1.8518 -0.4783  0.4532
  131OSM   H11G14179   5.082   4.656   7.551  1.6351  0.0081  2.1898
  131OSM   C12F14180   5.014   4.570   7.738 -0.7321 -0.1817 -0.8750
  131OSM   H12F14181   5.066   4.479   7.703  0.1157 -0.0383 -0.0284
  131OSM   H12G14182   4.920   4.541   7.790 -1.1316 -1.1851 -2.0928
  131OSM   C13F14183   5.115   4.634   7.836 -0.1661  0.0697  0.7503
  131OSM   H13F14184   5.069   4.731   7.863 -3.0155 -1.3197  1.2230
  131OSM   H13G14185   5.214   4.649   7.787  0.4408  2.9459  2.5970
  131OSM   C14F14186   5.120   4.553   7.966 -0.8417  0.0204 -0.0704
  131OSM   H14F14187   5.178   4.459   7.954  1.1264  0.7126  2.8728
  131OSM   H14G14188   5.018   4.518   7.991  0.0648 -4.6314 -1.8811
  131OSM   C15F14189   5.194   4.624   8.080 -0.2651  0.0482 -0.5902
  131OSM   H15F14190   5.191   4.563   8.172  3.1899  2.6750  1.5287
  131OSM   H15G14191   5.125   4.710   8.095  0.1693  0.1343  1.0240
  131OSM   C16F14192   5.338   4.666   8.062  0.2979  0.3292 -0.0881
  131OSM   H16F14193   5.341   4.729   7.971  0.0519 -1.4803 -1.4048
  131OSM   H16G14194   5.398   4.576   8.039  0.3308  0.7713 -1.8730
  131OSM   C17F14195   5.393   4.739   8.180 -0.1927 -0.0918  0.0892
  131OSM   H17F14196   5.341   4.836   8.194  1.2334  0.6733  0.3413
  131OSM   H17G14197   5.499   4.763   8.156  0.1609 -1.9630 -0.4104
  131OSM   C18F14198   5.389   4.670   8.321 -0.4595  0.0234  0.1981
  131OSM   H18F14199   5.406   4.746   8.400  0.0538 -0.3783  0.4812
  131OSM   H18G14200   5.465   4.589   8.329 -2.4570 -2.2161 -1.7510
  131OSM   H18H14201   5.288   4.629   8.342 -0.7194 -0.4411 -1.7583
  132OSM      N14202   2.271   2.252   6.657  0.4820  0.1441  0.6262
  132OSM    C1514203   2.170   2.250   6.768 -1.5927  0.2094  0.1342
  132OSM   H15A14204   2.165   2.337   6.833  0.3424 -0.7472  1.6785
  132OSM   H15B14205   2.187   2.157   6.820 -1.1422  0.1330 -0.1447
  132OSM   H15C14206   2.073   2.254   6.721 -1.7735  1.3292  0.5679
  132OSM    C1414207   2.406   2.270   6.724  0.5567  0.2341 -0.9692
  132OSM   H14A14208   2.443   2.175   6.761 -0.3300  0.5529  0.8762
  132OSM   H14B14209   2.409   2.338   6.809  1.0584 -1.3137  0.3154
  132OSM   H14C14210   2.476   2.315   6.655  0.0788  0.6857 -1.1671
  132OSM    C1314211   2.271   2.114   6.590  0.3469 -0.0335 -0.5105
  132OSM   H13A14212   2.171   2.087   6.560  0.9233 -2.0648 -0.7649
  132OSM   H13B14213   2.306   2.036   6.656 -0.9958  1.4744  2.1694
  132OSM   H13C14214   2.337   2.107   6.504  1.4553  0.2779  0.2959
  132OSM    C1214215   2.237   2.356   6.561 -0.0739 -0.6405 -0.2170
  132OSM   H12A14216   2.224   2.451   6.611 -0.8549 -0.4075 -0.8440
  132OSM   H12B14217   2.137   2.343   6.523  0.3116 -1.1181 -1.1108
  132OSM    C1114218   2.326   2.378   6.434 -0.3153  0.1571  0.7303
  132OSM   H11A14219   2.432   2.397   6.464  0.5488  0.8509 -2.4336
  132OSM   H11B14220   2.278   2.468   6.391  1.0336  1.1951  1.3170
  132OSM      P14221   2.204   2.242   6.248 -0.2995  0.2734  0.2339
  132OSM    O1314222   2.233   2.303   6.113  0.3785 -0.0711  0.1908
  132OSM    O1414223   2.161   2.104   6.247  0.1789  0.0044  0.4115
  132OSM    O1114224   2.088   2.331   6.303 -0.3307 -0.1697  0.1742
  132OSM    O1214225   2.323   2.263   6.348 -0.1886 -0.2825  0.3132
  132OSM    C1S14226   1.978   2.274   6.366  0.8537  0.7207  0.5453
  132OSM    H1S14227   2.005   2.222   6.461  0.7942  0.8683  0.6441
  132OSM    H1T14228   1.926   2.196   6.306  0.8033 -0.5746  2.2016
  132OSM     NF14229   1.782   2.318   6.510 -0.1148  0.7074 -0.0943
  132OSM    HNF14230   1.689   2.286   6.494  0.2474 -2.6329  3.1702
  132OSM    C2S14231   1.870   2.375   6.405  0.6677  0.2557  0.1698
  132OSM    H2S14232   1.918   2.468   6.440 -0.2887  0.5926  0.6329
  132OSM    C3S14233   1.792   2.412   6.281  0.7153  0.0300  0.1666
  132OSM    H3S14234   1.722   2.332   6.248 -0.3261 -0.2982  2.9726
  132OSM     O314235   1.883   2.441   6.176 -0.0866  0.1851  0.0316
  132OSM    HO314236   1.966   2.402   6.205 -1.1112 -1.8506  0.3916
  132OSM    C4S14237   1.721   2.542   6.312 -0.0072 -0.3843  0.1278
  132OSM    H4S14238   1.779   2.629   6.346 -2.3199  0.9174  0.9646
  132OSM    C5S14239   1.590   2.549   6.324 -0.1156  0.2991  0.6120
  132OSM    H5S14240   1.535   2.455   6.306 -0.8841  0.9952 -0.8973
  132OSM    C6S14241   1.499   2.664   6.351  0.4960 -0.5553  0.2991
  132OSM    H6S14242   1.433   2.684   6.264 -1.1634 -0.5322  1.4917
  132OSM    H6T14243   1.554   2.759   6.372  0.0898 -0.5219  1.3179
  132OSM    C7S14244   1.419   2.638   6.479 -0.1313 -0.1346  0.0811
  132OSM    H7S14245   1.368   2.539   6.486 -1.5483  0.6171  1.0139
  132OSM    H7T14246   1.344   2.719   6.490 -1.4770 -1.1313 -1.2704
  132OSM    C8S14247   1.504   2.623   6.603 -0.5802  0.5477 -0.3388
  132OSM    H8S14248   1.564   2.713   6.628 -0.4021 -0.0556  1.5757
  132OSM    H8T14249   1.569   2.539   6.571  1.6554  1.6717  1.0170
  132OSM    C9S14250   1.415   2.588   6.730 -0.7201 -0.0226  0.4349
  132OSM    H9S14251   1.348   2.501   6.709  0.3280 -0.7144 -0.1404
  132OSM    H9T14252   1.358   2.682   6.748  1.9223  2.6050 -3.5181
  132OSM   C10S14253   1.511   2.544   6.841 -0.4471  0.2167 -0.0691
  132OSM   H10S14254   1.613   2.561   6.800 -0.1013  0.1135  0.7152
  132OSM   H10T14255   1.509   2.433   6.844  0.0939  0.2174  1.0468
  132OSM   C11S14256   1.491   2.629   6.967  0.2136  0.6484 -0.3348
  132OSM   H11S14257   1.386   2.629   7.004  0.0148 -0.4985 -0.8515
  132OSM   H11T14258   1.487   2.736   6.937  1.3546  1.0644  0.9024
  132OSM   C12S14259   1.591   2.583   7.066  0.5617 -0.3329 -0.6359
  132OSM   H12S14260   1.689   2.573   7.015  1.3039 -0.1900  0.7002
  132OSM   H12T14261   1.555   2.483   7.099  0.7404  0.1228  1.0800
  132OSM   C13S14262   1.601   2.672   7.194 -0.0082 -0.0822 -0.3849
  132OSM   H13S14263   1.498   2.693   7.229 -0.3370 -0.4991 -1.0686
  132OSM   H13T14264   1.647   2.770   7.167 -0.1416 -0.0435 -0.4731
  132OSM   C14S14265   1.689   2.618   7.304  0.0766 -0.3318  0.4646
  132OSM   H14S14266   1.795   2.651   7.302  0.2613 -0.9312 -0.0025
  132OSM   H14T14267   1.690   2.507   7.314 -0.1787 -0.4677 -0.8322
  132OSM   C15S14268   1.631   2.656   7.438  0.2063  0.1751 -0.2519
  132OSM   H15S14269   1.525   2.626   7.451  0.5379 -0.3002  1.5328
  132OSM   H15T14270   1.619   2.766   7.449 -0.5912 -0.0901  1.9296
  132OSM   C16S14271   1.705   2.610   7.565 -0.3087  0.2743  0.5984
  132OSM   H16S14272   1.813   2.629   7.551 -0.6703  3.0223  1.0027
  132OSM   H16T14273   1.707   2.499   7.570 -0.5500  0.1207 -1.5739
  132OSM   C17S14274   1.662   2.660   7.702 -0.1013  0.5230 -1.1595
  132OSM   H17S14275   1.556   2.628   7.710  1.0254 -4.4937 -2.9605
  132OSM   H17T14276   1.670   2.771   7.709  2.6355  0.3282 -0.0553
  132OSM   C18S14277   1.746   2.590   7.810 -0.3495 -0.0338 -0.0031
  132OSM   H18S14278   1.711   2.485   7.804 -1.0158  0.2002 -0.2949
  132OSM   H18T14279   1.732   2.642   7.907  1.6117  1.0850 -0.2628
  132OSM   H18U14280   1.855   2.593   7.791 -0.2324 -0.7767  0.5013
  132OSM    C1F14281   1.828   2.315   6.630 -0.8328  0.2546 -0.0662
  132OSM     OF14282   1.924   2.382   6.663  0.4541 -0.1691 -0.1636
  132OSM    C2F14283   1.757   2.230   6.731 -0.0318  0.4634 -0.6182
  132OSM    H2F14284   1.769   2.121   6.717 -3.1417 -0.0160 -0.2987
  132OSM    H2G14285   1.649   2.237   6.709 -0.7715 -1.7408  1.8404
  132OSM    C3F14286   1.803   2.267   6.879  0.5007 -0.4204 -0.1134
  132OSM    H3F14287   1.769   2.371   6.899  0.5218 -0.4892  0.3020
  132OSM    H3G14288   1.914   2.260   6.886  0.5781  1.2592  1.1776
  132OSM    C4F14289   1.742   2.180   6.993 -0.1975  0.0327  0.6438
  132OSM    H4F14290   1.770   2.072   6.993  0.0188 -0.0135 -2.6785
  132OSM    H4G14291   1.632   2.199   6.999 -0.3089 -0.0639 -0.7838
  132OSM    C5F14292   1.784   2.245   7.127  0.1654 -0.4922  0.1573
  132OSM    H5F14293   1.783   2.355   7.118  0.0124 -0.2284  2.7150
  132OSM    H5G14294   1.891   2.216   7.139  0.0270 -0.3621  1.9686
  132OSM    C6F14295   1.707   2.201   7.252 -0.6703 -0.0825  0.4607
  132OSM    H6F14296   1.599   2.202   7.228 -0.6298 -1.6188  0.0656
  132OSM    H6G14297   1.726   2.271   7.336 -0.5429 -0.0159  0.3770
  132OSM    C7F14298   1.761   2.065   7.297 -0.4393 -0.4128  0.3599
  132OSM    H7F14299   1.870   2.072   7.315 -0.1953 -2.0050 -0.3466
  132OSM    H7G14300   1.747   1.996   7.211  1.3978  0.7619 -0.9704
  132OSM    C8F14301   1.705   2.027   7.429 -0.5705  0.2806 -0.4285
  132OSM    H8F14302   1.719   2.122   7.484 -1.1299  1.1379 -1.7241
  132OSM    H8G14303   1.765   1.938   7.460 -0.2855  0.7231  0.3278
  132OSM    C9F14304   1.555   1.998   7.432  0.4599  0.1631 -0.4920
  132OSM    H9F14305   1.519   1.931   7.353  1.4069  0.3930 -1.1443
  132OSM   C10F14306   1.465   2.059   7.516 -0.1231  0.2073 -0.3887
  132OSM   H10F14307   1.361   2.023   7.515 -0.1763  0.0257  2.5840
  132OSM   C11F14308   1.492   2.160   7.619 -0.6643  0.4022  0.9435
  132OSM   H11F14309   1.422   2.246   7.609 -1.0292  0.0036 -0.0429
  132OSM   H11G14310   1.592   2.205   7.604 -0.7337  0.0888 -0.5893
  132OSM   C12F14311   1.483   2.100   7.759 -0.4325  0.5913 -0.4751
  132OSM   H12F14312   1.572   2.033   7.763  0.9089  2.3158  0.3213
  132OSM   H12G14313   1.389   2.042   7.769 -0.3698  0.6415  0.5165
  132OSM   C13F14314   1.498   2.209   7.868 -0.2242 -0.2190 -0.0383
  132OSM   H13F14315   1.400   2.261   7.875  0.0251  0.3888 -0.8918
  132OSM   H13G14316   1.569   2.292   7.847 -1.9230  1.3216 -0.0078
  132OSM   C14F14317   1.547   2.144   8.000  0.5314 -0.6402 -0.0996
  132OSM   H14F14318   1.649   2.104   7.983  0.5075 -0.8205  0.1827
  132OSM   H14G14319   1.475   2.060   8.007  0.5251 -1.4482 -5.4492
  132OSM   C15F14320   1.543   2.240   8.118 -0.1883 -0.7637  0.0175
  132OSM   H15F14321   1.608   2.184   8.189  0.9032  0.1767 -0.2189
  132OSM   H15G14322   1.442   2.245   8.163  0.2278  2.5143  0.7990
  132OSM   C16F14323   1.605   2.379   8.096 -0.1189 -0.2760 -0.3949
  132OSM   H16F14324   1.530   2.450   8.055 -0.1296  0.4121  0.7733
  132OSM   H16G14325   1.693   2.355   8.032  0.4226 -0.3088  0.3351
  132OSM   C17F14326   1.661   2.452   8.222 -0.9237  0.7110 -0.1281
  132OSM   H17F14327   1.712   2.375   8.284 -0.8309  0.6578 -0.2698
  132OSM   H17G14328   1.586   2.493   8.293 -0.7841  1.8784 -0.6352
  132OSM   C18F14329   1.761   2.568   8.194  0.6343  0.5364 -0.3376
  132OSM   H18F14330   1.824   2.549   8.104 -1.0901  0.2477 -1.5408
  132OSM   H18G14331   1.818   2.592   8.286 -0.6007 -3.4895  1.7095
  132OSM   H18H14332   1.711   2.656   8.149  1.4935  0.4085 -1.6107
  133OSM      N14333   2.065   2.072   5.898  0.3052 -0.1268  0.5890
  133OSM    C1514334   2.216   2.095   5.909  0.4110 -0.3241  0.0359
  133OSM   H15A14335   2.228   2.198   5.941 -0.2541 -0.5339  0.9780
  133OSM   H15B14336   2.269   2.089   5.815  0.0101 -1.2710 -0.1359
  133OSM   H15C14337   2.261   2.031   5.984 -1.0207  1.3962  2.5225
  133OSM    C1414338   2.022   2.152   5.776  0.2922  0.1939  0.2034
  133OSM   H14A14339   1.919   2.128   5.757 -0.6294  2.6941  1.6570
  133OSM   H14B14340   2.089   2.123   5.696  0.9196  1.8735  0.0961
  133OSM   H14C14341   2.041   2.257   5.793 -0.2048  0.0811  1.6140
  133OSM    C1314342   2.042   1.928   5.880  0.2979 -0.2178 -0.1597
  133OSM   H13A14343   2.083   1.869   5.961  1.1708  2.1480  1.2135
  133OSM   H13B14344   2.081   1.887   5.787  0.3443 -1.6546  0.4648
  133OSM   H13C14345   1.934   1.922   5.876  0.2869 -0.9102  0.7816
  133OSM    C1214346   1.988   2.122   6.018 -0.5467  0.4549 -0.0278
  133OSM   H12A14347   1.997   2.229   6.033 -1.6515  0.2577  2.5657
  133OSM   H12B14348   2.029   2.076   6.106 -3.3977 -1.4900  0.4238
  133OSM    C1114349   1.830   2.097   6.026 -0.8776  0.1968 -0.2527
  133OSM   H11A14350   1.787   2.136   5.931  0.9877 -1.0310 -1.6696
  133OSM   H11B14351   1.788   2.162   6.106 -1.3844  0.8901 -1.0578
  133OSM      P14352   1.645   1.907   5.991  0.0525  0.3791  0.1143
  133OSM    O1314353   1.645   1.892   5.842 -0.4992  0.8218  0.5139
  133OSM    O1414354   1.603   1.790   6.071 -0.2846 -0.1329  0.5596
  133OSM    O1114355   1.556   2.028   6.038 -0.4218 -0.1399  0.0645
  133OSM    O1214356   1.790   1.959   6.035  0.1982  0.1766 -0.1556
  133OSM    C1S14357   1.506   2.040   6.174 -0.1764 -0.2778 -0.0915
  133OSM    H1S14358   1.590   2.052   6.246 -0.7727  1.9004  0.2983
  133OSM    H1T14359   1.443   1.953   6.203  0.3446 -0.4046  0.6942
  133OSM     NF14360   1.335   2.145   6.320 -0.2672 -0.3621 -0.3909
  133OSM    HNF14361   1.250   2.096   6.302 -2.1886  2.9978 -1.2836
  133OSM    C2S14362   1.409   2.163   6.197 -0.5345 -0.0804  0.3486
  133OSM    H2S14363   1.469   2.256   6.199  0.1708 -0.4247 -1.8303
  133OSM    C3S14364   1.314   2.185   6.073  0.8715  0.6643  0.0889
  133OSM    H3S14365   1.246   2.097   6.075  1.5979 -0.0400  4.2859
  133OSM     O314366   1.377   2.202   5.952 -0.0539  0.0483  0.5112
  133OSM    HO314367   1.465   2.166   5.960  0.3693  0.9863  0.1311
  133OSM    C4S14368   1.227   2.303   6.095 -0.4174 -0.0256  0.2229
  133OSM    H4S14369   1.270   2.395   6.136 -0.6519  0.0271  0.3532
  133OSM    C5S14370   1.099   2.301   6.072  0.2212 -0.0164 -0.4010
  133OSM    H5S14371   1.051   2.206   6.044 -1.6203  1.1651 -1.5359
  133OSM    C6S14372   0.999   2.414   6.091 -1.1029 -0.4597 -0.3407
  133OSM    H6S14373   0.906   2.362   6.124 -2.1281  1.1893 -0.5114
  133OSM    H6T14374   0.964   2.460   5.997  0.1436 -0.0236 -0.6145
  133OSM    C7S14375   1.016   2.523   6.199  0.0541  0.6302 -0.0922
  133OSM    H7S14376   0.945   2.608   6.187  0.0497  0.5756 -0.4741
  133OSM    H7T14377   1.116   2.567   6.178 -0.8293  1.5118 -3.0660
  133OSM    C8S14378   0.998   2.469   6.344  0.1783  0.1925  0.0859
  133OSM    H8S14379   1.074   2.389   6.354 -1.6541 -1.6502 -0.2545
  133OSM    H8T14380   0.897   2.424   6.348 -0.2826  1.1845 -0.0912
  133OSM    C9S14381   1.011   2.580   6.452 -0.2387  0.0253 -0.0360
  133OSM    H9S14382   0.981   2.684   6.425  1.4006  1.5928  3.4929
  133OSM    H9T14383   1.119   2.596   6.471 -0.2038  0.8821 -0.8563
  133OSM   C10S14384   0.953   2.523   6.583 -0.3157  0.6313  0.0050
  133OSM   H10S14385   0.990   2.419   6.578 -0.7735  0.4710 -0.1614
  133OSM   H10T14386   0.844   2.520   6.562 -0.0373  0.7764 -1.5806
  133OSM   C11S14387   0.991   2.597   6.710  0.0393 -0.1495 -0.1962
  133OSM   H11S14388   0.966   2.704   6.699  0.2197 -0.3309 -3.2030
  133OSM   H11T14389   1.101   2.592   6.727  0.0855 -1.9759 -0.7964
  133OSM   C12S14390   0.928   2.523   6.837  0.4515  0.1983 -0.2387
  133OSM   H12S14391   1.015   2.455   6.848 -0.3748 -1.4111 -2.7429
  133OSM   H12T14392   0.835   2.462   6.827  1.1416 -0.9830  0.4226
  133OSM   C13S14393   0.906   2.612   6.966 -0.9066 -0.4418 -0.5259
  133OSM   H13S14394   0.801   2.648   6.958 -0.7495 -0.2084 -1.7603
  133OSM   H13T14395   0.977   2.697   6.952  0.9140 -2.0988 -1.9509
  133OSM   C14S14396   0.927   2.539   7.106 -0.1919 -0.9940 -0.1882
  133OSM   H14S14397   0.869   2.444   7.112 -0.2545 -1.0619 -1.5619
  133OSM   H14T14398   0.894   2.604   7.190 -0.5973 -1.3855 -0.0428
  133OSM   C15S14399   1.075   2.526   7.120 -0.5166  0.7924 -0.1807
  133OSM   H15S14400   1.122   2.627   7.116  0.4461  0.3676  0.0810
  133OSM   H15T14401   1.109   2.470   7.030 -0.0304  2.7244 -1.2564
  133OSM   C16S14402   1.099   2.455   7.252  0.0375 -0.0409 -0.2938
  133OSM   H16S14403   1.055   2.353   7.247  2.5382 -1.1750 -0.9855
  133OSM   H16T14404   1.054   2.516   7.333 -0.7748 -0.2979 -0.5415
  133OSM   C17S14405   1.248   2.449   7.284 -0.6249  0.2771  0.4415
  133OSM   H17S14406   1.261   2.395   7.380 -0.9204  0.5852  0.6575
  133OSM   H17T14407   1.294   2.551   7.284  0.1312 -0.0549 -0.5095
  133OSM   C18S14408   1.327   2.364   7.177 -0.3622 -0.3466 -0.4231
  133OSM   H18S14409   1.289   2.262   7.157 -0.3877 -0.7561  1.5459
  133OSM   H18T14410   1.433   2.346   7.206  0.7415  4.0305 -1.0326
  133OSM   H18U14411   1.320   2.418   7.080 -3.5969  0.2668  0.0521
  133OSM    C1F14412   1.391   2.151   6.445 -0.2809  0.1029  0.0995
  133OSM     OF14413   1.511   2.169   6.464  0.6207  0.0497 -0.0805
  133OSM    C2F14414   1.305   2.093   6.554  0.3580  0.5566  0.1194
  133OSM    H2F14415   1.319   1.984   6.569 -0.8247  0.1086 -1.6849
  133OSM    H2G14416   1.200   2.104   6.520  0.5240 -0.4730 -0.7859
  133OSM    C3F14417   1.308   2.165   6.687 -0.2264  0.0375  0.3526
  133OSM    H3F14418   1.282   2.273   6.675  0.4830  0.1006 -0.8306
  133OSM    H3G14419   1.413   2.158   6.722 -0.9691  1.2398  3.1025
  133OSM    C4F14420   1.220   2.090   6.792  0.8690  0.2383  0.1718
  133OSM    H4F14421   1.257   2.135   6.886  0.6749  1.4342 -0.3016
  133OSM    H4G14422   1.241   1.982   6.784  1.0158  0.4045 -3.2971
  133OSM    C5F14423   1.068   2.113   6.783 -0.1614 -0.3896 -0.4327
  133OSM    H5F14424   1.021   2.061   6.697  0.7175 -2.2062  0.1394
  133OSM    H5G14425   1.045   2.219   6.756  3.9651  0.5296 -1.0384
  133OSM    C6F14426   0.999   2.074   6.912  0.2500  0.5225  0.5514
  133OSM    H6F14427   1.047   1.981   6.950 -0.6933 -1.3604 -2.4870
  133OSM    H6G14428   0.898   2.036   6.886  1.1597 -1.9342  0.3743
  133OSM    C7F14429   0.978   2.190   7.020 -0.1841 -0.1710  0.3613
  133OSM    H7F14430   0.933   2.279   6.972 -1.4712 -1.7703 -1.5455
  133OSM    H7G14431   1.079   2.232   7.042 -0.1133 -0.4945  0.6741
  133OSM    C8F14432   0.887   2.153   7.138  0.1866  0.9639  0.1222
  133OSM    H8F14433   0.786   2.124   7.101  0.2918  0.0391  0.5178
  133OSM    H8G14434   0.873   2.246   7.197 -1.6434  1.5382 -1.1385
  133OSM    C9F14435   0.917   2.029   7.223 -0.1243  0.4363 -0.2134
  133OSM    H9F14436   0.904   1.933   7.171 -2.0931  0.3204  0.4298
  133OSM   C10F14437   0.946   2.018   7.354  0.0546  0.2048  0.6437
  133OSM   H10F14438   0.963   1.921   7.403  0.7635  1.1040  2.2370
  133OSM   C11F14439   0.938   2.138   7.446 -0.1516  0.1220 -0.5154
  133OSM   H11F14440   0.829   2.146   7.466 -0.1278 -2.9870  1.6005
  133OSM   H11G14441   0.992   2.229   7.413  0.5039 -0.8803 -2.3435
  133OSM   C12F14442   1.006   2.100   7.583 -0.1890 -0.4884 -0.6913
  133OSM   H12F14443   1.108   2.058   7.572 -0.1829 -0.3033 -1.3808
  133OSM   H12G14444   0.941   2.026   7.636 -0.8570  0.0194 -0.7896
  133OSM   C13F14445   1.016   2.218   7.679 -0.1896 -0.1129  0.2503
  133OSM   H13F14446   0.918   2.271   7.691 -0.5422 -0.0013 -2.5887
  133OSM   H13G14447   1.100   2.283   7.646  1.7729 -2.2406  0.8260
  133OSM   C14F14448   1.069   2.184   7.827  0.3818 -0.0529 -0.1628
  133OSM   H14F14449   1.164   2.128   7.828  1.2674  1.2603  2.9045
  133OSM   H14G14450   0.987   2.120   7.866  1.2819 -0.7967  0.5449
  133OSM   C15F14451   1.088   2.316   7.906 -0.1223 -0.1470 -0.3207
  133OSM   H15F14452   0.995   2.377   7.899  1.0962  1.9816  1.1205
  133OSM   H15G14453   1.169   2.371   7.854 -0.0070 -1.7460 -1.9446
  133OSM   C16F14454   1.127   2.287   8.055 -0.6289 -0.1301  0.2120
  133OSM   H16F14455   1.233   2.255   8.048 -1.0285 -1.4032 -0.5018
  133OSM   H16G14456   1.076   2.200   8.103  2.1980 -1.3936  1.1704
  133OSM   C17F14457   1.107   2.409   8.144  0.7442 -0.1081 -0.3345
  133OSM   H17F14458   0.997   2.415   8.154  0.5490 -1.6500 -1.2498
  133OSM   H17G14459   1.146   2.500   8.094 -0.9765  2.4142  2.5772
  133OSM   C18F14460   1.178   2.404   8.280 -0.5003 -0.2178  0.6548
  133OSM   H18F14461   1.126   2.324   8.337  1.7276 -1.2367  1.3819
  133OSM   H18G14462   1.152   2.500   8.330  1.8860  1.2712 -0.7216
  133OSM   H18H14463   1.286   2.376   8.284 -0.0284  1.5481  1.4743
  134OSM      N14464   4.410   1.605   6.183  0.3032  0.0369  0.1598
  134OSM    C1514465   4.330   1.639   6.065 -0.2883  0.4240  0.5322
  134OSM   H15A14466   4.377   1.718   6.008 -1.8304  0.9691 -0.0443
  134OSM   H15B14467   4.235   1.676   6.100  0.3297  1.4756  1.1498
  134OSM   H15C14468   4.320   1.549   6.007  0.3319 -0.9959  2.5312
  134OSM    C1414469   4.552   1.582   6.151 -1.5743 -0.5346  0.1962
  134OSM   H14A14470   4.547   1.495   6.086 -0.8746 -0.7192  0.3816
  134OSM   H14B14471   4.612   1.563   6.239 -3.6063  0.4452  1.8473
  134OSM   H14C14472   4.594   1.662   6.092  1.6263 -2.8790 -1.0283
  134OSM    C1314473   4.394   1.734   6.273 -0.2415  0.4650  0.1980
  134OSM   H13A14474   4.428   1.699   6.370 -0.3979 -1.9789 -0.5663
  134OSM   H13B14475   4.291   1.763   6.285 -0.0658  1.1826  0.0235
  134OSM   H13C14476   4.451   1.816   6.233 -0.9005  0.4333 -0.8275
  134OSM    C1214477   4.354   1.497   6.280 -0.6550 -0.3313 -0.0496
  134OSM   H12A14478   4.357   1.401   6.230  0.3226 -0.4910  0.2823
  134OSM   H12B14479   4.249   1.503   6.303 -1.2786 -1.4778 -2.3277
  134OSM    C1114480   4.436   1.473   6.410  0.5006  0.2203  0.0385
  134OSM   H11A14481   4.544   1.488   6.391  0.5971 -0.2686  0.1866
  134OSM   H11B14482   4.433   1.364   6.434  1.0607  0.4248  1.1074
  134OSM      P14483   4.236   1.542   6.581  0.2703 -0.4822 -0.3641
  134OSM    O1314484   4.216   1.678   6.640 -0.0207  0.1942 -0.3299
  134OSM    O1414485   4.133   1.501   6.485  0.2440  0.1751 -0.1832
  134OSM    O1114486   4.251   1.430   6.690 -0.2618 -0.4544  0.1201
  134OSM    O1214487   4.382   1.552   6.515 -0.1239  0.0831  0.5374
  134OSM    C1S14488   4.321   1.449   6.814 -0.1654  0.6378  0.0364
  134OSM    H1S14489   4.322   1.554   6.852  0.2895  0.4492  0.5509
  134OSM    H1T14490   4.428   1.431   6.790 -0.8209 -0.3811 -2.4682
  134OSM     NF14491   4.310   1.403   7.068 -0.3407 -0.1391  0.4781
  134OSM    HNF14492   4.380   1.360   7.124 -0.3155  1.6008  1.8760
  134OSM    C2S14493   4.282   1.349   6.935  1.3701 -0.2178 -0.2289
  134OSM    H2S14494   4.173   1.332   6.930  1.5287 -2.0933  1.4294
  134OSM    C3S14495   4.348   1.214   6.898  0.3453  0.2402  0.0857
  134OSM    H3S14496   4.458   1.224   6.906  0.3827 -1.1553  2.0465
  134OSM     O314497   4.303   1.161   6.770 -0.4320  0.0005 -0.7523
  134OSM    HO314498   4.275   1.241   6.726  2.3091  1.5549  0.0829
  134OSM    C4S14499   4.319   1.112   7.008  0.5479 -0.2963 -0.5347
  134OSM    H4S14500   4.376   1.126   7.102 -0.2494 -0.0089 -0.0818
  134OSM    C5S14501   4.233   1.008   7.001 -0.6618  0.2311 -0.1177
  134OSM    H5S14502   4.171   0.992   6.912 -0.9816  1.4715 -0.1384
  134OSM    C6S14503   4.233   0.901   7.106 -0.0478  0.4467  0.5152
  134OSM    H6S14504   4.332   0.850   7.112  0.0466  0.5047 -0.3852
  134OSM    H6T14505   4.167   0.825   7.060 -1.9525  2.5697 -0.4649
  134OSM    C7S14506   4.184   0.924   7.243  0.0399  0.2646 -0.0439
  134OSM    H7S14507   4.078   0.957   7.238  0.2997  1.1900  0.3073
  134OSM    H7T14508   4.241   1.007   7.291 -0.2969  0.1510  0.5559
  134OSM    C8S14509   4.197   0.808   7.342 -0.2764 -0.2746 -1.5610
  134OSM    H8S14510   4.302   0.781   7.366 -0.5097  0.1384  0.0424
  134OSM    H8T14511   4.153   0.711   7.310  2.4822 -1.7453 -1.2274
  134OSM    C9S14512   4.149   0.850   7.480  0.6997 -0.4640  0.0025
  134OSM    H9S14513   4.038   0.846   7.493  0.7147  2.3214  2.0135
  134OSM    H9T14514   4.178   0.952   7.513 -0.0028 -0.2995  0.1426
  134OSM   C10S14515   4.213   0.755   7.589  0.1116  0.3826  0.2713
  134OSM   H10S14516   4.322   0.777   7.591  0.1304  0.2820  0.3583
  134OSM   H10T14517   4.199   0.651   7.554  0.7580 -0.8263  3.2973
  134OSM   C11S14518   4.172   0.793   7.728 -0.6790 -0.2950  0.5803
  134OSM   H11S14519   4.067   0.760   7.733 -1.7079  2.1403 -2.1308
  134OSM   H11T14520   4.178   0.903   7.740 -0.1115 -0.3367  0.7389
  134OSM   C12S14521   4.266   0.728   7.836  0.1171 -0.6754 -0.1142
  134OSM   H12S14522   4.366   0.771   7.815 -1.0577  1.2804 -2.0712
  134OSM   H12T14523   4.280   0.618   7.827 -0.9270 -0.9345  1.1185
  134OSM   C13S14524   4.238   0.768   7.985  0.7817 -0.4268 -0.3637
  134OSM   H13S14525   4.169   0.695   8.033 -1.1164  0.0540 -2.2110
  134OSM   H13T14526   4.186   0.863   8.009  1.1331 -0.1987 -0.5130
  134OSM   C14S14527   4.371   0.768   8.068  0.0835  0.1657 -0.3427
  134OSM   H14S14528   4.436   0.846   8.022 -0.7874  1.1329  0.0402
  134OSM   H14T14529   4.420   0.670   8.049  2.1050  0.7466  1.5206
  134OSM   C15S14530   4.361   0.789   8.224  0.1305 -0.0769 -0.0366
  134OSM   H15S14531   4.285   0.870   8.220  0.0336 -0.1645  0.0275
  134OSM   H15T14532   4.454   0.830   8.269  0.7980 -1.5128 -0.0506
  134OSM   C16S14533   4.316   0.649   8.286 -0.0654 -0.8351  0.0784
  134OSM   H16S14534   4.410   0.590   8.289  1.0958  0.8914 -0.3149
  134OSM   H16T14535   4.238   0.608   8.219 -1.6583  2.0323  0.0251
  134OSM   C17S14536   4.251   0.675   8.428  0.4139  0.1733  0.3900
  134OSM   H17S14537   4.173   0.751   8.408  0.5425  0.6367  1.5924
  134OSM   H17T14538   4.328   0.710   8.500  0.4852  1.1879 -0.1549
  134OSM   C18S14539   4.185   0.546   8.487 -0.2956  0.3469  1.2572
  134OSM   H18S14540   4.111   0.559   8.569  0.0060 -0.7182  1.7086
  134OSM   H18T14541   4.266   0.481   8.525 -0.5804 -1.7696 -1.4078
  134OSM   H18U14542   4.129   0.493   8.407  0.4075 -1.0119  1.6486
  134OSM    C1F14543   4.231   1.493   7.117 -0.4155 -0.4185  0.1053
  134OSM     OF14544   4.162   1.562   7.044 -0.5720  0.2904  0.2227
  134OSM    C2F14545   4.256   1.537   7.261 -0.1832 -0.6309 -0.1934
  134OSM    H2F14546   4.352   1.591   7.270 -1.7675  2.2479  0.4875
  134OSM    H2G14547   4.253   1.452   7.333 -1.2215 -2.9144 -2.7390
  134OSM    C3F14548   4.139   1.629   7.306  1.2246 -0.5043  0.2345
  134OSM    H3F14549   4.045   1.571   7.298  1.5025 -1.5066  3.2128
  134OSM    H3G14550   4.131   1.717   7.239  0.0720 -1.0647 -0.3914
  134OSM    C4F14551   4.145   1.691   7.450 -0.0073  0.3907  0.3100
  134OSM    H4F14552   4.064   1.765   7.462  0.1255  0.1585  3.4488
  134OSM    H4G14553   4.240   1.746   7.470  0.8537 -1.3408  1.2916
  134OSM    C5F14554   4.114   1.586   7.560 -0.2678 -0.1217 -0.6288
  134OSM    H5F14555   4.207   1.525   7.565  1.0151  1.7854 -0.3790
  134OSM    H5G14556   4.029   1.520   7.533 -0.8918  0.0876  0.7452
  134OSM    C6F14557   4.084   1.641   7.700 -0.6789 -0.2501  0.4744
  134OSM    H6F14558   4.058   1.560   7.771  2.3946 -2.8912 -1.1675
  134OSM    H6G14559   3.993   1.699   7.672  1.6969  2.3312 -2.6717
  134OSM    C7F14560   4.193   1.728   7.762  0.2044 -0.4802 -0.2408
  134OSM    H7F14561   4.149   1.782   7.848  0.9097  1.5960 -1.1051
  134OSM    H7G14562   4.221   1.808   7.690  0.1655  1.5943  1.9248
  134OSM    C8F14563   4.320   1.650   7.802  0.0275  0.2990 -0.3607
  134OSM    H8F14564   4.345   1.582   7.719 -1.1245  0.6502 -1.0210
  134OSM    H8G14565   4.297   1.593   7.895 -1.4613  1.8693  0.2917
  134OSM    C9F14566   4.430   1.754   7.828  0.6140 -0.1227 -0.2462
  134OSM    H9F14567   4.438   1.826   7.745 -1.9324  0.3579 -0.1602
  134OSM   C10F14568   4.478   1.777   7.948 -0.2462  0.0560 -0.0633
  134OSM   H10F14569   4.559   1.851   7.951 -0.6450  0.4733  1.8470
  134OSM   C11F14570   4.454   1.702   8.077 -0.0221 -0.4555  0.0189
  134OSM   H11F14571   4.546   1.682   8.136  1.5945 -2.0894 -2.8266
  134OSM   H11G14572   4.410   1.601   8.059 -1.1344  0.1719 -0.9669
  134OSM   C12F14573   4.343   1.772   8.162  0.0556  0.3645  1.4626
  134OSM   H12F14574   4.250   1.779   8.101  0.8403 -2.5905 -0.3179
  134OSM   H12G14575   4.384   1.872   8.185 -0.3512  1.1078 -0.7954
  134OSM   C13F14576   4.316   1.699   8.291 -0.5967 -0.8366  0.5175
  134OSM   H13F14577   4.340   1.591   8.277  1.3233 -0.4834  0.8247
  134OSM   H13G14578   4.214   1.717   8.331 -0.2558  1.4440  0.4578
  134OSM   C14F14579   4.421   1.746   8.397 -0.4245 -0.6588 -0.2682
  134OSM   H14F14580   4.438   1.855   8.384  0.6942 -0.8386 -0.4332
  134OSM   H14G14581   4.522   1.705   8.373  0.9928  1.8836  0.9239
  134OSM   C15F14582   4.375   1.710   8.533  0.5255  0.8853  0.0976
  134OSM   H15F14583   4.348   1.603   8.523 -2.4443  1.6149 -0.5079
  134OSM   H15G14584   4.277   1.758   8.551  0.6865  0.8670  1.0695
  134OSM   C16F14585   4.475   1.723   8.643  0.2517 -0.1705 -0.9970
  134OSM   H16F14586   4.571   1.767   8.608  1.7616 -1.3976  1.3643
  134OSM   H16G14587   4.495   1.620   8.679 -0.5252 -0.4170 -1.2643
  134OSM   C17F14588   4.429   1.811   8.758 -0.9968 -0.4371  0.2259
  134OSM   H17F14589   4.424   1.918   8.727 -1.0336 -0.4284  0.2605
  134OSM   H17G14590   4.517   1.806   8.827 -0.9402  0.3341  0.2176
  134OSM   C18F14591   4.300   1.761   8.828 -0.7732 -0.1024 -0.0483
  134OSM   H18F14592   4.216   1.788   8.760 -0.8416  2.1039  0.8603
  134OSM   H18G14593   4.295   1.811   8.927  4.0520  0.1373  0.2720
  134OSM   H18H14594   4.297   1.650   8.836 -1.1426 -0.0003  1.4724
  135OSM      N14595   3.393   1.774   6.461 -0.5515  0.1155  0.3138
  135OSM    C1514596   3.253   1.725   6.431 -0.7594 -0.4799  0.3940
  135OSM   H15A14597   3.254   1.619   6.411  0.0938 -0.5121  0.5910
  135OSM   H15B14598   3.206   1.792   6.360 -2.6930  2.1208  3.7617
  135OSM   H15C14599   3.193   1.740   6.520  0.4449 -0.2870  1.2057
  135OSM    C1414600   3.486   1.738   6.349 -0.2910  0.1425  0.0465
  135OSM   H14A14601   3.572   1.803   6.337  0.9867 -0.9546  2.6064
  135OSM   H14B14602   3.432   1.744   6.255 -0.7870 -0.7137  0.2693
  135OSM   H14C14603   3.517   1.636   6.363 -0.3360  0.4340  2.8106
  135OSM    C1314604   3.392   1.920   6.460  0.0187  0.0189 -0.6621
  135OSM   H13A14605   3.495   1.953   6.471 -0.3111  0.3483  1.9857
  135OSM   H13B14606   3.332   1.943   6.546  2.4357 -0.7126  1.3232
  135OSM   H13C14607   3.350   1.973   6.376  0.9973 -0.9868 -1.8285
  135OSM    C1214608   3.449   1.718   6.590 -0.8438 -0.2121  0.5626
  135OSM   H12A14609   3.416   1.761   6.684 -3.4388  1.2289 -0.9029
  135OSM   H12B14610   3.556   1.727   6.584 -0.5628 -3.1750 -1.6531
  135OSM    C1114611   3.420   1.559   6.614  0.6897  0.4426  0.8174
  135OSM   H11A14612   3.314   1.528   6.603  0.2694  2.3697 -1.2694
  135OSM   H11B14613   3.461   1.541   6.716  1.3317  0.0787  0.4997
  135OSM      P14614   3.647   1.461   6.526 -0.0506 -0.2034  0.2865
  135OSM    O1314615   3.660   1.326   6.469 -0.2711  0.7122  0.2965
  135OSM    O1414616   3.718   1.574   6.462 -0.2997  0.4325 -0.0842
  135OSM    O1114617   3.681   1.452   6.674  0.4936 -0.0509 -0.2653
  135OSM    O1214618   3.498   1.494   6.515  0.4281  0.3215 -0.3723
  135OSM    C1S14619   3.767   1.551   6.736  0.3731 -0.2620 -0.6125
  135OSM    H1S14620   3.718   1.651   6.743  1.9422  0.4426  1.3460
  135OSM    H1T14621   3.868   1.555   6.691  0.6182  1.2274 -0.0024
  135OSM     NF14622   3.858   1.620   6.963  0.3869  0.6100  0.4286
  135OSM    HNF14623   3.957   1.617   6.976  0.7305 -2.7670 -1.6542
  135OSM    C2S14624   3.799   1.506   6.886 -0.0301  0.0313 -0.3871
  135OSM    H2S14625   3.706   1.486   6.944  1.3674 -0.6353  1.7825
  135OSM    C3S14626   3.886   1.377   6.874  0.4528  0.4955 -0.0530
  135OSM    H3S14627   3.988   1.412   6.846 -0.0046  0.8620 -1.3701
  135OSM     O314628   3.854   1.274   6.774 -0.7754  0.1451 -0.1819
  135OSM    HO314629   3.794   1.317   6.713 -0.0589 -0.0477 -1.0387
  135OSM    C4S14630   3.900   1.323   7.013  0.8470  0.2806  0.4199
  135OSM    H4S14631   3.993   1.364   7.056  0.9799 -1.0792  1.5023
  135OSM    C5S14632   3.827   1.227   7.075  0.7810 -0.3360 -0.4181
  135OSM    H5S14633   3.739   1.191   7.021 -0.8788  1.6877  0.7389
  135OSM    C6S14634   3.850   1.174   7.217 -0.1749 -0.0176 -0.3485
  135OSM    H6S14635   3.882   1.070   7.193  0.1911 -0.9232  3.4388
  135OSM    H6T14636   3.759   1.172   7.281  2.1108 -1.6436  3.1153
  135OSM    C7S14637   3.959   1.243   7.300  0.7193  0.1627 -0.6734
  135OSM    H7S14638   3.937   1.351   7.306 -0.6740 -0.1792  1.0260
  135OSM    H7T14639   4.053   1.221   7.244  1.8200 -0.7203  1.4111
  135OSM    C8S14640   3.973   1.193   7.448  0.8907 -0.0849 -0.7566
  135OSM    H8S14641   4.069   1.234   7.484  0.0568  1.2664  0.0036
  135OSM    H8T14642   3.979   1.082   7.453  0.1715 -0.3199 -3.3636
  135OSM    C9S14643   3.862   1.238   7.548  0.6354 -0.0856 -0.1305
  135OSM    H9S14644   3.776   1.180   7.508  0.5351 -0.3356  0.4412
  135OSM    H9T14645   3.843   1.347   7.539 -0.0203 -0.1611  0.2334
  135OSM   C10S14646   3.889   1.197   7.693 -0.3687  0.0689  0.5440
  135OSM   H10S14647   3.828   1.245   7.772  2.8323  2.5445  1.7229
  135OSM   H10T14648   3.986   1.243   7.721 -1.0479  1.9550 -0.0323
  135OSM   C11S14649   3.885   1.049   7.722 -0.3695  0.1255 -0.3840
  135OSM   H11S14650   3.968   0.999   7.667  1.0425  1.7547  0.1667
  135OSM   H11T14651   3.788   1.020   7.677 -1.3698  5.2314 -2.2436
  135OSM   C12S14652   3.909   1.007   7.867  0.4321 -0.1773 -0.2000
  135OSM   H12S14653   3.990   1.061   7.921 -0.1800 -0.6243  1.2199
  135OSM   H12T14654   3.949   0.903   7.869  0.9898  0.0020 -1.3914
  135OSM   C13S14655   3.792   1.008   7.967  0.3790  0.0432 -0.1081
  135OSM   H13S14656   3.698   0.962   7.930 -0.6272  1.3035  0.7892
  135OSM   H13T14657   3.760   1.112   7.989  1.4277 -0.1118  2.5119
  135OSM   C14S14658   3.840   0.943   8.097  0.6373 -0.4360 -0.7313
  135OSM   H14S14659   3.935   0.996   8.120  0.1205  0.6482 -1.0537
  135OSM   H14T14660   3.860   0.834   8.087  1.5985 -0.5733  1.8281
  135OSM   C15S14661   3.742   0.969   8.214 -0.0045  1.1078  0.1852
  135OSM   H15S14662   3.639   0.949   8.178 -0.0912 -1.1422  1.4609
  135OSM   H15T14663   3.748   1.077   8.239 -3.1580  1.1370  1.3236
  135OSM   C16S14664   3.770   0.896   8.340 -0.1184 -0.3466 -0.2015
  135OSM   H16S14665   3.859   0.937   8.392  1.1942 -3.4844  0.2097
  135OSM   H16T14666   3.790   0.787   8.334 -0.9156 -0.4445 -1.3610
  135OSM   C17S14667   3.657   0.908   8.449  0.0005 -1.2355  0.1858
  135OSM   H17S14668   3.635   1.016   8.465  0.0809 -1.4201  1.7239
  135OSM   H17T14669   3.712   0.891   8.544  2.3705 -1.0833 -1.0846
  135OSM   C18S14670   3.539   0.811   8.428 -0.0599  0.5687  0.4925
  135OSM   H18S14671   3.584   0.710   8.421 -0.0314  0.6837 -1.7989
  135OSM   H18T14672   3.476   0.833   8.339 -1.6529  0.9110  1.6736
  135OSM   H18U14673   3.474   0.815   8.518  1.5202 -1.5476  1.8298
  135OSM    C1F14674   3.784   1.724   6.988  0.3765 -0.5028  0.0113
  135OSM     OF14675   3.664   1.720   6.967 -0.1832  0.4315  0.4062
  135OSM    C2F14676   3.838   1.859   7.038  0.3991 -0.4816  0.0838
  135OSM    H2F14677   3.857   1.922   6.949 -1.3991 -1.5071 -1.0749
  135OSM    H2G14678   3.940   1.831   7.073  0.4888 -0.2514  0.0038
  135OSM    C3F14679   3.757   1.916   7.153 -0.2324 -0.3492 -0.0606
  135OSM    H3F14680   3.655   1.944   7.121  0.0249  1.4604  0.5619
  135OSM    H3G14681   3.813   2.009   7.180  1.1392 -0.5023 -2.1155
  135OSM    C4F14682   3.748   1.816   7.274  0.1090 -0.1101 -0.2066
  135OSM    H4F14683   3.851   1.779   7.294  0.3707  0.6179 -0.1954
  135OSM    H4G14684   3.681   1.730   7.252 -0.7227 -0.1846  2.2154
  135OSM    C5F14685   3.705   1.883   7.413  0.1382  0.2631  0.2733
  135OSM    H5F14686   3.602   1.924   7.403 -1.7948 -3.9935  0.2321
  135OSM    H5G14687   3.775   1.968   7.424  0.0627  0.7523 -2.3459
  135OSM    C6F14688   3.714   1.778   7.520  0.9657  0.0452  0.3236
  135OSM    H6F14689   3.816   1.736   7.513  1.1911  0.2265  2.1053
  135OSM    H6G14690   3.639   1.699   7.499  1.7756 -1.4618  2.7046
  135OSM    C7F14691   3.689   1.827   7.662 -0.3718  0.6683 -0.5574
  135OSM    H7F14692   3.599   1.891   7.659 -2.0341 -1.4022  1.3984
  135OSM    H7G14693   3.771   1.899   7.685 -0.8467  0.8729  0.5568
  135OSM    C8F14694   3.676   1.719   7.769 -0.6988 -0.1356 -0.3188
  135OSM    H8F14695   3.772   1.664   7.773  1.0603  2.8082  1.5882
  135OSM    H8G14696   3.604   1.636   7.750  0.0971 -1.2063  1.1291
  135OSM    C9F14697   3.641   1.777   7.906  0.4725  0.6448  0.8032
  135OSM    H9F14698   3.538   1.815   7.898 -0.5594 -2.2335 -1.6424
  135OSM   C10F14699   3.720   1.798   8.008  0.6902 -0.2581 -0.3193
  135OSM   H10F14700   3.678   1.832   8.103  0.4840 -0.3407 -0.3812
  135OSM   C11F14701   3.870   1.768   8.004  0.0104 -0.1370 -0.0000
  135OSM   H11F14702   3.925   1.862   8.026 -0.2469 -0.2497  1.1831
  135OSM   H11G14703   3.912   1.737   7.906  2.2485  1.6516  0.3015
  135OSM   C12F14704   3.911   1.660   8.101 -0.0888 -0.1200  0.0159
  135OSM   H12F14705   3.860   1.674   8.199 -1.6459  0.0014 -0.7741
  135OSM   H12G14706   4.019   1.672   8.122 -0.2907 -1.0230  1.7888
  135OSM   C13F14707   3.889   1.517   8.045  0.0338 -0.4907 -0.0307
  135OSM   H13F14708   3.922   1.507   7.939 -0.3203 -2.9484  0.0271
  135OSM   H13G14709   3.783   1.485   8.038  0.4791 -1.9325 -0.5082
  135OSM   C14F14710   3.975   1.421   8.133 -0.2511  0.1147  0.9493
  135OSM   H14F14711   4.073   1.467   8.155 -1.3092  2.4429  1.0607
  135OSM   H14G14712   3.986   1.330   8.071  0.4042 -0.3013  1.6581
  135OSM   C15F14713   3.908   1.379   8.261 -0.6548 -0.2789 -0.3469
  135OSM   H15F14714   3.814   1.336   8.220 -1.9415  2.5183 -0.5756
  135OSM   H15G14715   3.886   1.472   8.318 -0.0391  0.4321 -1.2440
  135OSM   C16F14716   3.979   1.270   8.351 -0.1158 -0.5799 -0.2490
  135OSM   H16F14717   4.067   1.322   8.394 -1.3738 -0.5805  2.5293
  135OSM   H16G14718   4.020   1.186   8.289  1.0228  1.2504 -2.1189
  135OSM   C17F14719   3.902   1.219   8.473  0.0750 -0.4361 -0.4352
  135OSM   H17F14720   3.810   1.170   8.434 -0.8376  2.0146 -1.5916
  135OSM   H17G14721   3.852   1.304   8.524 -1.8496 -2.2643  0.9016
  135OSM   C18F14722   3.994   1.148   8.577  0.4029  0.6584 -0.7165
  135OSM   H18F14723   4.087   1.208   8.584  0.7318  0.0636  0.1820
  135OSM   H18G14724   4.018   1.046   8.540 -2.1015 -0.8769  1.5743
  135OSM   H18H14725   3.934   1.140   8.670  0.8554 -1.3137 -0.5535
  136OSM      N14726   6.223   5.108   6.063  0.9091 -0.4788 -0.0735
  136OSM    C1514727   6.100   5.073   5.987 -0.4709 -0.2328  0.0053
  136OSM   H15A14728   6.080   5.148   5.912 -0.3599  0.6694  0.8493
  136OSM   H15B14729   6.008   5.075   6.043 -1.0030  1.8232 -0.8342
  136OSM   H15C14730   6.110   4.973   5.948  0.2056 -0.2712  0.2480
  136OSM    C1414731   6.351   5.081   5.990  0.3951 -0.0314  0.4965
  136OSM   H14A14732   6.347   4.982   5.945 -0.6534  0.1718  0.1190
  136OSM   H14B14733   6.439   5.091   6.051  1.0621 -2.4683  0.0305
  136OSM   H14C14734   6.373   5.144   5.905  2.2609 -1.3541 -0.0606
  136OSM    C1314735   6.218   5.255   6.086  0.4340 -0.0690  0.4071
  136OSM   H13A14736   6.220   5.306   5.990 -0.4358  0.3406  0.5927
  136OSM   H13B14737   6.306   5.287   6.140  0.2414 -2.0465  1.9726
  136OSM   H13C14738   6.129   5.270   6.145 -0.9155  1.0920 -1.8049
  136OSM    C1214739   6.228   5.022   6.185 -0.1150  0.5475  0.1709
  136OSM   H12A14740   6.328   4.993   6.212 -0.8527 -3.9950 -1.1500
  136OSM   H12B14741   6.176   4.931   6.159  0.6226 -0.2838  1.4919
  136OSM    C1114742   6.154   5.072   6.316  0.7474 -0.4024 -0.3839
  136OSM   H11A14743   6.168   5.181   6.334  1.9726 -0.9201  2.3411
  136OSM   H11B14744   6.197   5.018   6.403  1.2373 -1.2743 -1.1636
  136OSM      P14745   5.947   4.905   6.327  0.4206  0.1255  0.1069
  136OSM    O1314746   5.802   4.912   6.300  0.0439  0.0923 -0.1537
  136OSM    O1414747   6.019   4.805   6.248 -0.6496  0.1816 -0.1467
  136OSM    O1114748   5.970   4.893   6.484  0.0952 -0.2126  0.2609
  136OSM    O1214749   6.011   5.044   6.299  0.0078  0.9770  0.3627
  136OSM    C1S14750   5.919   5.010   6.556 -0.2297 -0.0160  0.8761
  136OSM    H1S14751   5.814   5.040   6.538  0.0479  0.9167  0.7535
  136OSM    H1T14752   5.986   5.099   6.550  2.8439 -2.1235  1.2778
  136OSM     NF14753   5.854   5.076   6.794 -0.4273 -0.2937  0.4894
  136OSM    HNF14754   5.901   5.140   6.854 -1.0268 -0.0901  0.7473
  136OSM    C2S14755   5.917   4.970   6.707 -0.2629 -0.4717 -0.2218
  136OSM    H2S14756   5.862   4.874   6.715 -0.1023 -0.4699  0.9278
  136OSM    C3S14757   6.060   4.937   6.742 -0.9840 -0.4144  0.3005
  136OSM    H3S14758   6.127   5.024   6.729 -1.0873 -0.3993 -0.1305
  136OSM     O314759   6.121   4.823   6.678  0.1416  0.2012 -0.0585
  136OSM    HO314760   6.082   4.830   6.590  1.7656 -3.5479 -1.2697
  136OSM    C4S14761   6.067   4.910   6.885 -0.3512 -0.4331 -0.6026
  136OSM    H4S14762   6.031   4.811   6.916  1.6001 -1.3237 -1.0565
  136OSM    C5S14763   6.130   4.990   6.981  0.5572 -0.5023  0.0839
  136OSM    H5S14764   6.182   5.081   6.947  1.8289 -0.3539  2.2619
  136OSM    C6S14765   6.136   4.969   7.129 -0.4011 -0.2745 -0.4586
  136OSM    H6S14766   6.179   5.063   7.168  0.0399 -0.2319 -1.0297
  136OSM    H6T14767   6.207   4.888   7.158  0.0232 -0.1335 -1.0836
  136OSM    C7S14768   6.004   4.941   7.193  0.0770 -0.0149 -0.2195
  136OSM    H7S14769   5.954   4.854   7.146  2.5310 -0.5995 -1.9588
  136OSM    H7T14770   5.943   5.033   7.182 -0.6754 -0.6855 -1.9673
  136OSM    C8S14771   6.001   4.912   7.350 -0.2747  0.0039  0.1174
  136OSM    H8S14772   6.073   4.830   7.372  1.1783  0.5745 -2.1727
  136OSM    H8T14773   5.898   4.874   7.370  0.0358 -1.3039 -0.6526
  136OSM    C9S14774   6.030   5.040   7.439  0.1440  0.0638  0.0030
  136OSM    H9S14775   5.939   5.101   7.420 -0.8265 -1.4791 -0.4161
  136OSM    H9T14776   6.115   5.107   7.413 -0.9306  1.1896 -0.7465
  136OSM   C10S14777   6.033   5.007   7.585 -0.1779  0.1018 -0.0697
  136OSM   H10S14778   6.115   4.933   7.590  0.7072  1.0641 -0.1310
  136OSM   H10T14779   5.944   4.946   7.612 -0.5923 -0.1014 -1.7267
  136OSM   C11S14780   6.056   5.128   7.674  0.4411  0.1294 -0.5106
  136OSM   H11S14781   5.988   5.203   7.629  3.1394  1.9388 -1.8455
  136OSM   H11T14782   6.162   5.163   7.668  0.5273 -0.1209 -0.4681
  136OSM   C12S14783   6.014   5.086   7.816  0.3204  0.0125 -0.5187
  136OSM   H12S14784   5.923   5.024   7.831 -0.8730  1.7102 -0.3964
  136OSM   H12T14785   6.016   5.173   7.885  0.6030 -0.0718 -0.4221
  136OSM   C13S14786   6.125   4.993   7.866 -0.3493 -0.4222  0.3013
  136OSM   H13S14787   6.223   5.042   7.850 -1.4421  1.3671 -1.4658
  136OSM   H13T14788   6.122   4.896   7.813 -0.1356  0.4231 -1.3577
  136OSM   C14S14789   6.104   4.965   8.016  0.1535 -0.6267  0.2982
  136OSM   H14S14790   6.162   4.879   8.055  0.4028 -1.0353 -0.9166
  136OSM   H14T14791   5.995   4.955   8.032 -0.0352  1.7022  0.8079
  136OSM   C15S14792   6.152   5.087   8.105  0.4805 -0.2423 -0.2492
  136OSM   H15S14793   6.076   5.168   8.099 -1.4724 -2.0301 -0.9250
  136OSM   H15T14794   6.257   5.116   8.085  0.6652  0.6309  1.7532
  136OSM   C16S14795   6.137   5.045   8.256  0.5375 -0.3162  0.3325
  136OSM   H16S14796   6.224   4.985   8.291  0.6293 -1.3562 -1.5629
  136OSM   H16T14797   6.059   4.968   8.270 -1.4407  1.2868 -1.1676
  136OSM   C17S14798   6.121   5.174   8.343 -0.2411  0.2555 -0.3915
  136OSM   H17S14799   6.037   5.233   8.300  0.4270  0.6924 -1.1112
  136OSM   H17T14800   6.216   5.230   8.338  1.6924 -2.8196 -1.0019
  136OSM   C18S14801   6.101   5.141   8.489 -0.2115 -0.4217  0.4736
  136OSM   H18S14802   6.191   5.094   8.534  2.4298  1.3036 -2.6097
  136OSM   H18T14803   6.019   5.066   8.499 -1.2908  0.5370 -0.8252
  136OSM   H18U14804   6.073   5.233   8.544 -2.2536 -0.4363 -0.4600
  136OSM    C1F14805   5.725   5.113   6.790  0.2015  0.2997 -0.1524
  136OSM     OF14806   5.634   5.045   6.737  0.3815  0.6070 -0.1349
  136OSM    C2F14807   5.696   5.243   6.859 -0.0547 -0.0616  0.6654
  136OSM    H2F14808   5.684   5.318   6.778  2.0374 -0.8758 -0.4922
  136OSM    H2G14809   5.786   5.277   6.915 -1.6682  1.2733  2.6078
  136OSM    C3F14810   5.576   5.246   6.956  0.0193 -0.1733 -0.5859
  136OSM    H3F14811   5.489   5.194   6.912  0.7677 -0.2941 -1.9941
  136OSM    H3G14812   5.563   5.350   6.991 -1.1256 -0.7490  0.7863
  136OSM    C4F14813   5.603   5.166   7.080  0.0425  0.0642 -0.3338
  136OSM    H4F14814   5.695   5.204   7.129  0.0845  0.5318 -0.7695
  136OSM    H4G14815   5.624   5.062   7.047  0.2800 -0.0473  0.1491
  136OSM    C5F14816   5.487   5.170   7.183 -0.1517  0.2220 -0.8402
  136OSM    H5F14817   5.387   5.143   7.143 -1.2797  0.7331  1.4697
  136OSM    H5G14818   5.480   5.271   7.229  2.7433 -0.5815  1.7117
  136OSM    C6F14819   5.497   5.065   7.295 -1.2323  0.2429  0.5507
  136OSM    H6F14820   5.499   4.963   7.252  0.6456 -0.0667  1.2596
  136OSM    H6G14821   5.405   5.070   7.356 -1.8208  0.8952 -0.3656
  136OSM    C7F14822   5.621   5.071   7.385  0.0115  0.1848 -0.1904
  136OSM    H7F14823   5.712   5.104   7.331  0.3797 -0.7398 -0.1606
  136OSM    H7G14824   5.650   4.967   7.413 -0.0698  0.4916  1.0511
  136OSM    C8F14825   5.612   5.152   7.514  0.0410 -0.2540 -0.2745
  136OSM    H8F14826   5.595   5.256   7.478  1.9292 -0.0078 -0.5882
  136OSM    H8G14827   5.714   5.149   7.559  1.2638  1.9143 -2.6746
  136OSM    C9F14828   5.498   5.120   7.614  0.1374  0.0030  0.3283
  136OSM    H9F14829   5.397   5.136   7.572 -0.0326 -0.3358  0.5949
  136OSM   C10F14830   5.507   5.081   7.738 -0.2008 -0.3885 -0.3875
  136OSM   H10F14831   5.420   5.052   7.800  0.1243 -1.7407 -0.5317
  136OSM   C11F14832   5.643   5.066   7.797 -0.3532 -0.0056 -0.0416
  136OSM   H11F14833   5.717   5.146   7.778 -0.8239  0.2226 -0.9465
  136OSM   H11G14834   5.684   4.975   7.748  0.4752 -0.5846  1.6156
  136OSM   C12F14835   5.651   5.045   7.952 -0.0162 -0.4732  0.1530
  136OSM   H12F14836   5.750   5.003   7.980  0.2053 -0.3779 -0.4687
  136OSM   H12G14837   5.577   4.973   7.991 -1.0312  0.0388 -0.7785
  136OSM   C13F14838   5.637   5.173   8.032  0.2814  0.4745 -0.3367
  136OSM   H13F14839   5.539   5.215   8.003 -0.0138 -0.9554 -1.5316
  136OSM   H13G14840   5.720   5.243   8.008  0.4410  0.2866 -0.3331
  136OSM   C14F14841   5.648   5.140   8.184  0.1915  0.4225  0.2277
  136OSM   H14F14842   5.694   5.229   8.232  0.0387 -0.2296  1.6315
  136OSM   H14G14843   5.719   5.055   8.188  0.8324  0.9816  1.8040
  136OSM   C15F14844   5.508   5.120   8.248  0.6559 -0.3824  0.8212
  136OSM   H15F14845   5.440   5.057   8.186  0.1036  0.6478  0.3599
  136OSM   H15G14846   5.459   5.220   8.246 -0.7264 -1.0473  0.3832
  136OSM   C16F14847   5.506   5.071   8.389 -0.4378  0.1447  0.1374
  136OSM   H16F14848   5.566   5.132   8.460  0.2609  0.5762 -0.7963
  136OSM   H16G14849   5.556   4.972   8.384 -0.8199 -0.2634  2.8276
  136OSM   C17F14850   5.363   5.052   8.444 -0.0797  0.0872  0.6170
  136OSM   H17F14851   5.301   4.998   8.370  0.8693  1.0882 -0.9717
  136OSM   H17G14852   5.328   5.158   8.450 -0.9871 -0.0876 -1.0503
  136OSM   C18F14853   5.364   4.996   8.584  0.0428  0.0351 -0.1687
  136OSM   H18F14854   5.435   5.054   8.648 -1.2255  0.6294  0.7348
  136OSM   H18G14855   5.389   4.888   8.578  1.6999  0.4053 -0.4614
  136OSM   H18H14856   5.266   4.991   8.635 -0.4668  0.4620 -1.0919
  137OSM      N14857   3.882   0.296   6.183 -0.1322  0.7454  0.1822
  137OSM    C1514858   4.029   0.340   6.187  0.1522 -0.4528  0.3608
  137OSM   H15A14859   4.089   0.256   6.218  0.8702  0.8048  2.6400
  137OSM   H15B14860   4.049   0.425   6.251  2.7372 -0.0994 -0.8016
  137OSM   H15C14861   4.072   0.371   6.093 -0.4537 -1.8776 -0.4098
  137OSM    C1414862   3.813   0.389   6.087 -0.3709  0.8912 -0.1531
  137OSM   H14A14863   3.837   0.492   6.111 -1.0110  1.2687 -1.0806
  137OSM   H14B14864   3.707   0.367   6.087 -0.2603  0.2023  1.5737
  137OSM   H14C14865   3.849   0.363   5.989  1.5691  1.2488  0.4265
  137OSM    C1314866   3.873   0.154   6.130 -0.3170  0.7379 -0.1045
  137OSM   H13A14867   3.770   0.131   6.107  0.3085 -2.4252 -0.1424
  137OSM   H13B14868   3.893   0.074   6.200 -2.0090  0.3199 -0.0521
  137OSM   H13C14869   3.932   0.141   6.041  0.8028 -2.8842  0.9755
  137OSM    C1214870   3.821   0.309   6.320 -0.0422  0.2653 -0.1363
  137OSM   H12A14871   3.715   0.292   6.308 -0.3188  1.4627  0.3990
  137OSM   H12B14872   3.826   0.413   6.348  0.5960 -0.2241  1.7244
  137OSM    C1114873   3.882   0.231   6.442  0.1963  0.4088  0.0939
  137OSM   H11A14874   3.869   0.122   6.425  1.3779  0.2539  0.0957
  137OSM   H11B14875   3.815   0.258   6.527 -0.1909 -1.2690  0.3589
  137OSM      P14876   4.057   0.394   6.538  0.3453 -0.0699 -0.0754
  137OSM    O1314877   4.202   0.402   6.541 -0.3422 -0.1819  0.4246
  137OSM    O1414878   3.994   0.507   6.470  0.0114 -0.2879  0.5047
  137OSM    O1114879   4.005   0.381   6.686  0.1313  0.6662  0.2114
  137OSM    O1214880   4.015   0.257   6.466 -0.2258  0.4219  0.2166
  137OSM    C1S14881   4.006   0.255   6.755  0.2540  0.0498  0.8290
  137OSM    H1S14882   4.097   0.191   6.742  1.9092  2.5764 -0.9794
  137OSM    H1T14883   3.916   0.200   6.721  1.1376  0.2268 -2.0455
  137OSM     NF14884   4.002   0.130   6.959 -0.3583  0.6699  0.3355
  137OSM    HNF14885   3.916   0.083   6.976 -0.5105 -0.2876 -2.5461
  137OSM    C2S14886   3.986   0.264   6.909 -0.1494  0.1021  0.9819
  137OSM    H2S14887   4.069   0.332   6.937 -1.1700  1.8575 -0.1297
  137OSM    C3S14888   3.852   0.331   6.928  0.8443 -0.0514 -0.3110
  137OSM    H3S14889   3.779   0.276   6.865  0.3750  1.1193 -0.8128
  137OSM     O314890   3.846   0.468   6.890  0.2902 -0.5388  0.5090
  137OSM    HO314891   3.925   0.474   6.836  1.5172  0.1750  2.2784
  137OSM    C4S14892   3.794   0.317   7.071 -0.7154  0.4820  1.0049
  137OSM    H4S14893   3.761   0.215   7.092 -1.7105  0.8017  1.0466
  137OSM    C5S14894   3.801   0.409   7.167 -0.6572 -0.5750 -1.1435
  137OSM    H5S14895   3.833   0.512   7.147 -0.9861 -0.7346 -2.6197
  137OSM    C6S14896   3.756   0.385   7.305 -0.3339 -0.1142 -0.1185
  137OSM    H6S14897   3.683   0.462   7.339 -0.6044 -0.2332 -0.4324
  137OSM    H6T14898   3.841   0.413   7.371 -0.3231 -1.6451  0.5678
  137OSM    C7S14899   3.735   0.238   7.341  0.1326 -0.2761  0.0746
  137OSM    H7S14900   3.823   0.177   7.310  0.9632  1.2060 -0.6066
  137OSM    H7T14901   3.643   0.201   7.291  1.1051 -0.4907 -1.6322
  137OSM    C8S14902   3.729   0.227   7.493 -0.2323  0.3627  0.7922
  137OSM    H8S14903   3.653   0.298   7.534 -0.1229  1.6499 -1.0762
  137OSM    H8T14904   3.829   0.253   7.533  1.1844  1.2448 -2.8651
  137OSM    C9S14905   3.692   0.083   7.523 -0.1631  0.3874 -1.1082
  137OSM    H9S14906   3.742   0.005   7.463  0.9411  1.5182 -1.7126
  137OSM    H9T14907   3.582   0.069   7.519 -0.0217 -0.4979 -2.2147
  137OSM   C10S14908   3.738   0.049   7.668 -0.0978 -0.3684  0.8710
  137OSM   H10S14909   3.712   0.133   7.736 -1.5335  0.3660 -0.5052
  137OSM   H10T14910   3.848   0.048   7.679 -0.2048 -0.1012  2.1055
  137OSM   C11S14911   3.686  -0.083   7.718  0.0473 -0.3504 -0.2764
  137OSM   H11S14912   3.757  -0.157   7.674  1.5614  0.4746  0.7181
  137OSM   H11T14913   3.586  -0.103   7.673 -0.1564  0.5209 -0.2205
  137OSM   C12S14914   3.681  -0.094   7.875 -0.2253  0.1773  0.0648
  137OSM   H12S14915   3.614  -0.022   7.926  1.0824  0.1909  1.8768
  137OSM   H12T14916   3.777  -0.066   7.925 -0.8010  2.5652 -0.0467
  137OSM   C13S14917   3.628  -0.240   7.909  0.5963 -0.1776 -0.1395
  137OSM   H13S14918   3.675  -0.319   7.847  0.8361  0.7716 -1.2120
  137OSM   H13T14919   3.520  -0.232   7.885  0.8360  3.1227 -0.5951
  137OSM   C14S14920   3.623  -0.279   8.061 -0.2154 -0.7551  0.7151
  137OSM   H14S14921   3.585  -0.196   8.125  2.0031 -0.9312  2.3727
  137OSM   H14T14922   3.724  -0.306   8.098 -0.5106  1.0525  3.0501
  137OSM   C15S14923   3.530  -0.400   8.078 -0.6653  0.1258 -0.2567
  137OSM   H15S14924   3.559  -0.476   8.002 -0.5952 -0.1421  0.0375
  137OSM   H15T14925   3.433  -0.357   8.044  0.8008  1.6534 -2.8164
  137OSM   C16S14926   3.545  -0.453   8.222  0.2049 -0.4330  0.2598
  137OSM   H16S14927   3.506  -0.378   8.295 -0.3748  1.1458 -1.6055
  137OSM   H16T14928   3.651  -0.475   8.247  0.4113  0.3838  0.1485
  137OSM   C17S14929   3.458  -0.574   8.244 -0.8337 -0.7901 -0.8444
  137OSM   H17S14930   3.498  -0.661   8.187  0.5323 -1.3388  0.8656
  137OSM   H17T14931   3.361  -0.546   8.199 -0.7123 -1.8783 -1.8323
  137OSM   C18S14932   3.444  -0.617   8.394 -0.1160  0.3305  0.1354
  137OSM   H18S14933   3.363  -0.692   8.388  0.4798 -0.2242 -1.9557
  137OSM   H18T14934   3.411  -0.544   8.471 -2.7725 -2.3897  1.7675
  137OSM   H18U14935   3.536  -0.671   8.424  0.4656  2.0200  1.5811
  137OSM    C1F14936   4.121   0.068   6.987  0.0477  0.2636 -0.6268
  137OSM     OF14937   4.230   0.127   6.987  0.2507 -0.6464 -0.1778
  137OSM    C2F14938   4.117  -0.076   7.033 -0.1021 -0.0227  0.3069
  137OSM    H2F14939   4.222  -0.098   7.061  0.0554 -0.7736 -0.7967
  137OSM    H2G14940   4.079  -0.149   6.958 -1.5639  0.1432  0.8548
  137OSM    C3F14941   4.049  -0.101   7.172 -0.5433 -0.0031 -0.0060
  137OSM    H3F14942   4.045  -0.210   7.191 -4.1734 -0.1179 -0.6345
  137OSM    H3G14943   3.943  -0.067   7.168 -0.3330  0.6964  0.2955
  137OSM    C4F14944   4.102  -0.031   7.294 -0.3568  0.2982  0.1262
  137OSM    H4F14945   4.073   0.076   7.281 -0.3247 -0.1011 -4.6217
  137OSM    H4G14946   4.212  -0.047   7.299 -0.4099 -0.0794  0.0939
  137OSM    C5F14947   4.033  -0.076   7.426 -0.5484  0.5637 -0.1630
  137OSM    H5F14948   3.937  -0.131   7.414 -0.8441  0.9206  0.4942
  137OSM    H5G14949   4.002   0.017   7.479 -0.4546  0.2124  0.5201
  137OSM    C6F14950   4.118  -0.166   7.522  0.1561 -0.1176 -0.5267
  137OSM    H6F14951   4.223  -0.133   7.539 -0.1211  0.3782  0.3265
  137OSM    H6G14952   4.128  -0.261   7.466  0.7973  1.1328 -2.6331
  137OSM    C7F14953   4.047  -0.202   7.649  0.6673 -0.1345 -0.5650
  137OSM    H7F14954   3.956  -0.264   7.630  1.0429 -1.0771  0.5877
  137OSM    H7G14955   4.017  -0.101   7.685 -0.0014 -1.3889  2.8125
  137OSM    C8F14956   4.129  -0.260   7.769  0.0114 -0.4900  0.3493
  137OSM    H8F14957   4.169  -0.358   7.736 -0.8018 -0.7852  0.2376
  137OSM    H8G14958   4.061  -0.284   7.853 -0.4726 -1.7829 -0.3843
  137OSM    C9F14959   4.234  -0.162   7.814  0.6470 -0.2144  0.1707
  137OSM    H9F14960   4.262  -0.095   7.731 -0.6244 -0.9727 -0.9188
  137OSM   C10F14961   4.295  -0.166   7.931 -0.8296  0.6351  0.1265
  137OSM   H10F14962   4.373  -0.091   7.953  0.2810 -0.2758 -0.6036
  137OSM   C11F14963   4.270  -0.261   8.043  0.0798 -0.5690  0.0704
  137OSM   H11F14964   4.362  -0.290   8.097  0.0257  0.1959  0.5980
  137OSM   H11G14965   4.229  -0.353   7.997  1.4280 -1.9290  1.4961
  137OSM   C12F14966   4.163  -0.206   8.137  0.7437 -0.3203  0.1427
  137OSM   H12F14967   4.068  -0.229   8.085  1.9125  0.0260 -2.2954
  137OSM   H12G14968   4.179  -0.097   8.147  0.4228 -0.2291 -0.3230
  137OSM   C13F14969   4.180  -0.269   8.274 -1.3926  0.7676 -0.2762
  137OSM   H13F14970   4.276  -0.253   8.327 -0.3833 -1.6982 -1.1950
  137OSM   H13G14971   4.174  -0.379   8.257 -0.3588  0.6183  0.2184
  137OSM   C14F14972   4.067  -0.227   8.374 -0.0121 -0.7324 -0.0657
  137OSM   H14F14973   4.068  -0.297   8.461 -1.7973  0.2146  0.7796
  137OSM   H14G14974   3.966  -0.241   8.330  0.0049 -0.8367 -0.0708
  137OSM   C15F14975   4.081  -0.085   8.428 -0.3121 -0.2489  0.5091
  137OSM   H15F14976   4.103  -0.011   8.348  0.8998 -2.1189 -0.9899
  137OSM   H15G14977   4.159  -0.080   8.507  0.4845 -0.5730 -0.2457
  137OSM   C16F14978   3.952  -0.046   8.503  0.1451  0.0670 -0.1601
  137OSM   H16F14979   3.950  -0.126   8.580  2.4492  0.5753  0.4816
  137OSM   H16G14980   3.859  -0.062   8.444  0.5877  0.4005 -0.9576
  137OSM   C17F14981   3.965   0.093   8.562  0.2995  0.3000 -0.4723
  137OSM   H17F14982   4.071   0.120   8.580  0.3163  0.2689 -0.5257
  137OSM   H17G14983   3.895   0.102   8.648 -1.0650  1.6932 -1.6509
  137OSM   C18F14984   3.914   0.208   8.478 -0.3053 -0.6777  0.6533
  137OSM   H18F14985   3.806   0.210   8.453  0.0547  2.5988 -1.1338
  137OSM   H18G14986   3.963   0.211   8.379 -0.6607  1.3479  0.5078
  137OSM   H18H14987   3.943   0.307   8.520 -1.5611 -0.2655  0.5878
  138OSM      N14988   5.728   3.524   5.694 -0.3338 -0.5571 -0.3203
  138OSM    C1514989   5.696   3.377   5.684  1.0217 -0.4169  0.4896
  138OSM   H15A14990   5.694   3.335   5.783  1.9842  3.5631  2.4001
  138OSM   H15B14991   5.751   3.327   5.606 -1.0511 -1.3139 -0.4849
  138OSM   H15C14992   5.594   3.361   5.652  0.6004 -0.5982  1.8538
  138OSM    C1414993   5.873   3.541   5.735  0.1375 -0.1246  0.4891
  138OSM   H14A14994   5.882   3.484   5.827  0.0454  1.9520  1.8414
  138OSM   H14B14995   5.899   3.640   5.769  3.7915 -1.4448  2.0293
  138OSM   H14C14996   5.937   3.503   5.657  0.5885 -1.8451  1.6473
  138OSM    C1314997   5.694   3.581   5.555 -0.8255 -0.4670  0.0492
  138OSM   H13A14998   5.769   3.544   5.486  1.1186  0.9386  1.3016
  138OSM   H13B14999   5.705   3.688   5.551 -1.0591 -0.4101  0.7830
  138OSM   H13C15000   5.594   3.550   5.529 -0.4985 -0.1161 -1.7530
  138OSM    C1215001   5.638   3.587   5.801  0.1902  0.3589 -0.4852
  138OSM   H12A15002   5.538   3.560   5.771 -0.5081 -0.4277  2.2303
  138OSM   H12B15003   5.639   3.695   5.792  0.6864  0.6081  1.8176
  138OSM    C1115004   5.655   3.542   5.952 -0.0552 -0.1771  0.3047
  138OSM   H11A15005   5.563   3.566   6.010 -1.5680  1.8863 -2.6836
  138OSM   H11B15006   5.744   3.595   5.993  0.1289  0.4210 -0.8148
  138OSM      P15007   5.771   3.336   6.059 -0.2345 -0.0008 -0.2957
  138OSM    O1315008   5.800   3.198   6.022  0.2577 -0.1674 -0.3786
  138OSM    O1415009   5.897   3.420   6.060  0.0101 -0.8927  0.4407
  138OSM    O1115010   5.684   3.342   6.192  0.3128  0.3814  0.5498
  138OSM    O1215011   5.665   3.398   5.960 -0.6109  0.6626  0.5255
  138OSM    C1S15012   5.667   3.214   6.259  0.3921  0.4496 -0.3647
  138OSM    H1S15013   5.760   3.153   6.255  0.3654  0.4744 -2.6762
  138OSM    H1T15014   5.579   3.164   6.215 -0.1559  0.5569  0.5828
  138OSM     NF15015   5.629   3.111   6.467 -0.0522 -0.3953 -0.3589
  138OSM    HNF15016   5.537   3.073   6.467 -0.7604  1.1735  0.8172
  138OSM    C2S15017   5.627   3.240   6.405  0.1991  0.3347 -0.5267
  138OSM    H2S15018   5.707   3.303   6.450  0.6164  1.2516 -2.4386
  138OSM    C3S15019   5.491   3.321   6.430  0.4461 -0.0341 -0.0716
  138OSM    H3S15020   5.411   3.247   6.411 -1.4690  1.4614  1.6753
  138OSM     O315021   5.473   3.433   6.338 -0.0461  0.2001 -0.4011
  138OSM    HO315022   5.545   3.430   6.275  0.7984  0.5376  0.5130
  138OSM    C4S15023   5.482   3.358   6.577  0.1362  0.2249  0.0962
  138OSM    H4S15024   5.439   3.278   6.639 -0.4204  1.8123  1.8367
  138OSM    C5S15025   5.519   3.473   6.638  0.2383 -0.5900  0.0594
  138OSM    H5S15026   5.567   3.547   6.574 -0.4875 -0.8401 -0.7881
  138OSM    C6S15027   5.508   3.497   6.791 -0.4381 -0.2161 -0.0142
  138OSM    H6S15028   5.410   3.542   6.816 -0.7695  0.0578 -1.6853
  138OSM    H6T15029   5.583   3.570   6.827 -2.6673  1.7685  0.8341
  138OSM    C7S15030   5.510   3.369   6.893  0.1912 -0.5856  0.5050
  138OSM    H7S15031   5.605   3.312   6.885  0.5547  0.0448  0.3065
  138OSM    H7T15032   5.425   3.311   6.849 -2.3410  1.8880  1.8558
  138OSM    C8S15033   5.492   3.420   7.037 -0.2773  0.5467  0.5823
  138OSM    H8S15034   5.580   3.486   7.051  1.1307 -1.3735  1.1952
  138OSM    H8T15035   5.492   3.331   7.104  0.0674  0.1910  0.1143
  138OSM    C9S15036   5.358   3.492   7.065  0.4631 -0.2929 -0.4124
  138OSM    H9S15037   5.275   3.451   7.004 -0.6279  1.4733 -0.2000
  138OSM    H9T15038   5.358   3.599   7.034  0.0647  0.2595  1.3401
  138OSM   C10S15039   5.313   3.482   7.207  0.4743  0.0547 -0.0471
  138OSM   H10S15040   5.316   3.376   7.241 -0.9518 -0.0145 -0.0736
  138OSM   H10T15041   5.208   3.517   7.211  0.0006 -1.1259 -1.3699
  138OSM   C11S15042   5.402   3.559   7.307  0.2655  0.6576 -0.4064
  138OSM   H11S15043   5.384   3.667   7.284  0.8142  0.7057 -0.6368
  138OSM   H11T15044   5.508   3.534   7.287 -0.2796 -0.1528 -2.5988
  138OSM   C12S15045   5.356   3.536   7.458  0.0547  1.3289  0.4050
  138OSM   H12S15046   5.355   3.428   7.484 -0.1158  1.5635  1.4146
  138OSM   H12T15047   5.254   3.579   7.470 -0.3613  0.8400 -1.1696
  138OSM   C13S15048   5.464   3.593   7.555 -0.4436 -1.1864 -0.2769
  138OSM   H13S15049   5.485   3.694   7.515  0.9721 -1.1636  0.4657
  138OSM   H13T15050   5.561   3.538   7.549  1.0742  1.2928  0.2887
  138OSM   C14S15051   5.419   3.593   7.699  0.6252  0.4205 -0.6327
  138OSM   H14S15052   5.404   3.488   7.730 -0.8875  1.3558  2.1858
  138OSM   H14T15053   5.320   3.642   7.709  0.2507 -0.6752  1.5123
  138OSM   C15S15054   5.526   3.662   7.791  0.3165 -0.3281  0.0524
  138OSM   H15S15055   5.526   3.769   7.760 -0.0767 -0.1645  0.6088
  138OSM   H15T15056   5.620   3.609   7.762  1.1282  1.1503 -0.1359
  138OSM   C16S15057   5.488   3.654   7.936  0.1768  0.2890  0.0961
  138OSM   H16S15058   5.481   3.550   7.975 -1.0200 -1.0627 -3.3697
  138OSM   H16T15059   5.385   3.694   7.931 -0.4823 -1.4528 -1.6485
  138OSM   C17S15060   5.577   3.737   8.033 -0.5778  0.4333  0.8694
  138OSM   H17S15061   5.573   3.838   7.985  0.7405 -0.6319 -1.7186
  138OSM   H17T15062   5.676   3.689   8.023 -0.2750  1.1516  0.3367
  138OSM   C18S15063   5.530   3.736   8.173 -0.4622  0.2429  0.1974
  138OSM   H18S15064   5.420   3.752   8.183 -0.2884  0.5178  2.3188
  138OSM   H18T15065   5.591   3.800   8.241  0.7168 -0.3946 -0.2498
  138OSM   H18U15066   5.540   3.631   8.207  0.4426 -0.5378 -2.3208
  138OSM    C1F15067   5.741   3.047   6.507 -0.9447 -0.2071  0.1733
  138OSM     OF15068   5.855   3.081   6.484 -0.5597 -0.4407  0.1432
  138OSM    C2F15069   5.732   2.911   6.572  0.2757  0.8059 -0.5378
  138OSM    H2F15070   5.782   2.842   6.501  1.4960  2.3537 -1.2567
  138OSM    H2G15071   5.626   2.880   6.566  0.4186  0.1099  0.4558
  138OSM    C3F15072   5.775   2.910   6.722  0.1613 -0.1412 -0.6781
  138OSM    H3F15073   5.862   2.978   6.733 -0.3691  0.3362  0.8087
  138OSM    H3G15074   5.807   2.809   6.757  0.6900 -0.1139 -1.0571
  138OSM    C4F15075   5.673   2.961   6.823 -0.3726  0.1279  0.2950
  138OSM    H4F15076   5.604   2.874   6.829  0.6987 -0.8435 -0.8877
  138OSM    H4G15077   5.619   3.050   6.782 -0.2865 -0.4207 -1.0681
  138OSM    C5F15078   5.737   2.979   6.959  0.0549 -0.4264 -0.2048
  138OSM    H5F15079   5.839   3.023   6.952  0.0119 -0.5185 -1.5377
  138OSM    H5G15080   5.753   2.882   7.011 -1.1044  1.4528  4.0847
  138OSM    C6F15081   5.650   3.063   7.049 -0.8216  0.2360 -0.2851
  138OSM    H6F15082   5.545   3.027   7.055 -0.7261 -0.4487 -2.0214
  138OSM    H6G15083   5.645   3.171   7.024  2.6392  2.0363  5.0646
  138OSM    C7F15084   5.720   3.056   7.195  0.0234 -0.4083  0.6766
  138OSM    H7F15085   5.830   3.067   7.181  0.1267 -0.7378  1.2185
  138OSM    H7G15086   5.705   2.957   7.243 -3.6777 -1.8276 -2.8097
  138OSM    C8F15087   5.685   3.168   7.308  0.2357  0.1538 -0.2126
  138OSM    H8F15088   5.730   3.261   7.268 -1.1021 -0.0647 -2.3983
  138OSM    H8G15089   5.752   3.152   7.395  2.3621 -1.5369 -2.0143
  138OSM    C9F15090   5.534   3.159   7.344 -0.4042 -0.6974 -0.6026
  138OSM    H9F15091   5.475   3.147   7.251  2.3848 -0.1960 -2.5708
  138OSM   C10F15092   5.481   3.153   7.466  0.5335 -0.1508  0.2932
  138OSM   H10F15093   5.376   3.121   7.474  1.4274 -3.2583  0.8995
  138OSM   C11F15094   5.558   3.168   7.587  0.4845 -0.9628 -0.8591
  138OSM   H11F15095   5.623   3.256   7.572 -0.2095 -0.3641 -0.4163
  138OSM   H11G15096   5.623   3.078   7.596  0.8409 -0.5398  1.5226
  138OSM   C12F15097   5.478   3.176   7.716 -0.6742 -0.2742  0.1284
  138OSM   H12F15098   5.413   3.088   7.736 -0.2439 -0.4147  0.9553
  138OSM   H12G15099   5.413   3.265   7.731  0.1056  0.0543  1.8910
  138OSM   C13F15100   5.574   3.180   7.837 -1.3563 -0.2068  0.6748
  138OSM   H13F15101   5.650   3.260   7.828 -0.6664 -0.8147  0.9954
  138OSM   H13G15102   5.623   3.081   7.826 -1.4047 -0.0967 -0.7899
  138OSM   C14F15103   5.508   3.196   7.968  0.3386  0.3872  0.2315
  138OSM   H14F15104   5.447   3.104   7.980 -0.0269  0.8137  1.8368
  138OSM   H14G15105   5.434   3.279   7.968 -2.2791 -1.8100  0.2337
  138OSM   C15F15106   5.609   3.211   8.080 -0.0703 -0.1682  0.4322
  138OSM   H15F15107   5.644   3.317   8.080  0.8303 -0.4317 -1.1900
  138OSM   H15G15108   5.696   3.148   8.053 -0.1679  0.1079 -0.5744
  138OSM   C16F15109   5.557   3.166   8.209 -0.2491  0.0030  0.2063
  138OSM   H16F15110   5.504   3.069   8.210  0.1503 -0.2141  0.4610
  138OSM   H16G15111   5.486   3.240   8.252 -0.5510 -0.5795  0.7129
  138OSM   C17F15112   5.669   3.159   8.321 -0.2835  0.0309  0.3919
  138OSM   H17F15113   5.674   3.265   8.352  1.3627 -0.2743  1.2911
  138OSM   H17G15114   5.768   3.123   8.284 -0.7922  0.0506 -1.0750
  138OSM   C18F15115   5.630   3.082   8.445 -0.6064  0.5219  0.8937
  138OSM   H18F15116   5.529   3.117   8.474 -1.7484 -0.6032 -1.3903
  138OSM   H18G15117   5.696   3.090   8.533  0.5427 -1.3345  0.2599
  138OSM   H18H15118   5.615   2.975   8.417  0.5554  0.3508  0.8842
  139OSM      N15119   2.184   2.778   6.051 -0.5864 -0.9201 -0.9672
  139OSM    C1515120   2.303   2.862   6.013  0.2391  0.2095 -0.2986
  139OSM   H15A15121   2.367   2.878   6.098 -1.8973  1.0472  1.2479
  139OSM   H15B15122   2.261   2.952   5.971 -1.4771 -0.1720  0.4680
  139OSM   H15C15123   2.361   2.812   5.937  1.1260 -0.2436  0.6403
  139OSM    C1415124   2.092   2.743   5.941  0.3386  0.0796  0.7063
  139OSM   H14A15125   2.023   2.824   5.924 -1.5817 -2.0534 -2.8162
  139OSM   H14B15126   2.037   2.654   5.967 -2.5090  1.5784  0.2249
  139OSM   H14C15127   2.138   2.714   5.848 -1.3806  0.1500 -0.1967
  139OSM    C1315128   2.249   2.653   6.106  0.3825  0.6037 -0.0384
  139OSM   H13A15129   2.333   2.624   6.045  2.1963  1.2840  2.0278
  139OSM   H13B15130   2.178   2.577   6.135  1.4274 -0.3165  0.1821
  139OSM   H13C15131   2.296   2.684   6.198 -0.3515 -1.6511  1.1909
  139OSM    C1215132   2.110   2.862   6.160 -0.3857  0.4041  0.8455
  139OSM   H12A15133   2.185   2.883   6.235  1.0465  1.5010 -0.8190
  139OSM   H12B15134   2.028   2.802   6.196  0.2378 -1.8312 -1.1513
  139OSM    C1115135   2.051   3.001   6.126 -0.0341 -0.2747 -0.1564
  139OSM   H11A15136   1.999   3.041   6.216  1.2835  2.1993 -0.4116
  139OSM   H11B15137   1.977   2.989   6.044  1.9817 -3.0287 -1.7251
  139OSM      P15138   2.203   3.207   6.197 -0.4063 -0.3160 -0.3700
  139OSM    O1315139   2.352   3.222   6.169  0.2844  0.9770 -0.3166
  139OSM    O1415140   2.115   3.322   6.182 -0.2484  0.3987 -0.3312
  139OSM    O1115141   2.167   3.137   6.333 -0.1344 -0.2849  0.0145
  139OSM    O1215142   2.152   3.099   6.089 -0.2279 -0.1827  0.0038
  139OSM    C1S15143   2.176   3.195   6.464  0.1780  0.9277  0.4808
  139OSM    H1S15144   2.162   3.305   6.458 -2.2545  0.6487 -0.0052
  139OSM    H1T15145   2.273   3.181   6.515 -1.2675 -2.4564  2.7438
  139OSM     NF15146   2.068   3.212   6.691 -0.0165  0.1722 -0.2822
  139OSM    HNF15147   2.117   3.174   6.769 -0.8540  0.6030  0.4661
  139OSM    C2S15148   2.069   3.142   6.556 -0.1007 -0.2362 -0.2802
  139OSM    H2S15149   1.973   3.177   6.511  1.3096  2.5482 -1.4160
  139OSM    C3S15150   2.077   2.996   6.572 -0.3350  0.3066  0.9466
  139OSM    H3S15151   2.176   2.977   6.618  0.5572 -0.3061 -1.1480
  139OSM     O315152   2.080   2.910   6.454  0.2838  0.4190  0.5887
  139OSM    HO315153   2.086   2.984   6.393 -1.6009  3.2063  3.4365
  139OSM    C4S15154   1.980   2.947   6.668  0.3278  0.3912 -0.0226
  139OSM    H4S15155   1.871   2.960   6.657 -0.4719 -3.7439  1.1707
  139OSM    C5S15156   2.015   2.870   6.771  0.5625  0.4382 -0.6805
  139OSM    H5S15157   2.123   2.854   6.788  0.6636  0.5406 -1.2240
  139OSM    C6S15158   1.927   2.814   6.888  0.2547  0.0700  0.3838
  139OSM    H6S15159   1.905   2.711   6.852  0.4419 -0.2292  1.1051
  139OSM    H6T15160   1.824   2.854   6.884  0.6102  1.0098  0.2971
  139OSM    C7S15161   1.981   2.805   7.028 -0.2425 -0.2439 -0.2535
  139OSM    H7S15162   2.061   2.731   7.048 -0.6821 -0.0215  2.8063
  139OSM    H7T15163   1.891   2.785   7.091 -1.0215  0.9749 -0.9170
  139OSM    C8S15164   2.023   2.943   7.083 -0.5441  0.3007  0.4150
  139OSM    H8S15165   1.969   3.024   7.031 -0.6061  0.2109  0.3383
  139OSM    H8T15166   2.126   2.957   7.046 -1.6409 -0.6940 -3.4452
  139OSM    C9S15167   2.012   2.952   7.231  0.3774 -0.0625 -0.9101
  139OSM    H9S15168   1.906   2.947   7.264  0.7286 -0.3175  0.2102
  139OSM    H9T15169   2.048   3.048   7.272  1.1365 -0.9093  0.4983
  139OSM   C10S15170   2.089   2.853   7.317 -0.2115  0.2181 -0.0169
  139OSM   H10S15171   2.198   2.873   7.313 -0.3068  0.9187  0.6515
  139OSM   H10T15172   2.070   2.756   7.267 -0.6249  0.2818  0.0178
  139OSM   C11S15173   2.028   2.828   7.450 -0.3318  0.3409 -0.6973
  139OSM   H11S15174   2.097   2.759   7.504 -1.2183  0.6231  0.8378
  139OSM   H11T15175   1.933   2.774   7.433 -0.4494  0.4839 -0.4902
  139OSM   C12S15176   2.009   2.956   7.533 -0.7816 -0.8921  0.4991
  139OSM   H12S15177   1.949   3.032   7.478  0.7313  0.1524  0.2222
  139OSM   H12T15178   2.114   2.989   7.549  0.1041 -3.1398 -0.2673
  139OSM   C13S15179   1.942   2.927   7.673 -0.9045 -0.2411  0.0079
  139OSM   H13S15180   2.011   2.868   7.738 -1.4873  0.8071  1.6329
  139OSM   H13T15181   1.850   2.871   7.644  0.2760 -0.7226 -3.3113
  139OSM   C14S15182   1.893   3.055   7.736  0.2038 -0.3327 -0.2647
  139OSM   H14S15183   1.839   3.108   7.655  0.8035 -0.9640 -1.0904
  139OSM   H14T15184   1.985   3.111   7.766  0.4487 -0.4412 -0.8069
  139OSM   C15S15185   1.803   3.030   7.848 -1.1741 -0.1918 -0.0425
  139OSM   H15S15186   1.705   2.989   7.815  0.2987 -2.3726 -2.0588
  139OSM   H15T15187   1.769   3.124   7.896 -0.0204 -0.8755  2.3189
  139OSM   C16S15188   1.870   2.941   7.965  0.6639 -0.4389  1.2099
  139OSM   H16S15189   1.968   2.991   7.974  0.4733 -0.1290  1.5691
  139OSM   H16T15190   1.876   2.838   7.924  0.7023  0.6287 -1.7556
  139OSM   C17S15191   1.782   2.943   8.092 -0.0612  0.6766 -0.1908
  139OSM   H17S15192   1.836   2.879   8.165 -0.9831 -2.0875 -1.7456
  139OSM   H17T15193   1.688   2.896   8.055 -0.4366  1.7673 -0.6517
  139OSM   C18S15194   1.747   3.080   8.147  0.3550 -0.0151 -0.0251
  139OSM   H18S15195   1.727   3.075   8.256 -0.6683  0.8102 -0.1604
  139OSM   H18T15196   1.668   3.125   8.083 -0.1643 -0.7109  0.1104
  139OSM   H18U15197   1.838   3.144   8.144  1.3670 -1.4682 -2.0506
  139OSM    C1F15198   2.037   3.341   6.703 -0.2815  0.0804 -0.1647
  139OSM     OF15199   1.982   3.395   6.610  0.3250 -0.4337  0.0212
  139OSM    C2F15200   2.077   3.412   6.828  0.5226  0.4214  0.3045
  139OSM    H2F15201   2.184   3.440   6.834  0.1242  1.7007  3.1053
  139OSM    H2G15202   2.049   3.337   6.905 -1.3578 -2.6874 -3.0977
  139OSM    C3F15203   1.984   3.537   6.863 -0.2832  0.1297 -0.4091
  139OSM    H3F15204   1.877   3.507   6.856  0.0104 -0.6932 -1.7018
  139OSM    H3G15205   2.014   3.620   6.795  2.6929 -1.0551 -0.6707
  139OSM    C4F15206   2.009   3.598   7.007 -0.2108  0.0303 -0.2985
  139OSM    H4F15207   1.968   3.699   7.026  2.0476  0.6916  1.5540
  139OSM    H4G15208   2.119   3.598   7.016 -0.2316 -0.8522  0.1360
  139OSM    C5F15209   1.966   3.500   7.116  0.0570  0.1376  0.4373
  139OSM    H5F15210   1.998   3.394   7.108  0.3628  0.0593  2.2762
  139OSM    H5G15211   1.855   3.494   7.119 -0.0517  0.4233 -1.7619
  139OSM    C6F15212   2.012   3.547   7.258  0.2053 -0.7736  0.0180
  139OSM    H6F15213   1.970   3.645   7.289  0.3912 -0.6966  0.0242
  139OSM    H6G15214   2.122   3.557   7.249  0.4862 -3.7582 -1.1456
  139OSM    C7F15215   1.974   3.449   7.373 -0.3623  0.3689 -0.3347
  139OSM    H7F15216   2.020   3.350   7.354  1.2775  0.2190  3.3967
  139OSM    H7G15217   1.864   3.432   7.371 -0.2605 -0.3746  0.1054
  139OSM    C8F15218   2.001   3.503   7.518  0.1906 -0.5072  0.3852
  139OSM    H8F15219   1.957   3.603   7.534  0.6432 -0.3227  0.5075
  139OSM    H8G15220   2.111   3.519   7.522  0.0417  0.7007 -0.0665
  139OSM    C9F15221   1.955   3.408   7.623  0.5687  0.0500  0.1595
  139OSM    H9F15222   1.938   3.305   7.586 -0.4889 -0.7467  2.6442
  139OSM   C10F15223   1.947   3.424   7.757  0.0445  0.6431  0.2933
  139OSM   H10F15224   1.904   3.346   7.822  0.0992  1.2585  1.0648
  139OSM   C11F15225   1.986   3.552   7.825 -0.4277 -0.0848 -0.3540
  139OSM   H11F15226   2.050   3.615   7.759 -1.0355  0.1596 -0.7233
  139OSM   H11G15227   2.034   3.528   7.922 -0.9304  0.1950 -0.0304
  139OSM   C12F15228   1.876   3.650   7.860 -0.5132 -0.1084  0.4497
  139OSM   H12F15229   1.811   3.680   7.775  0.3516  1.9571  0.4362
  139OSM   H12G15230   1.922   3.737   7.912 -1.2599 -0.9147  2.5896
  139OSM   C13F15231   1.781   3.598   7.969 -0.0088 -0.2315 -0.3514
  139OSM   H13F15232   1.853   3.554   8.042  0.5392 -0.5349 -1.0690
  139OSM   H13G15233   1.719   3.518   7.923 -0.2174 -0.5412  0.4516
  139OSM   C14F15234   1.687   3.709   8.028  0.2184  0.1071 -0.2249
  139OSM   H14F15235   1.620   3.744   7.947  1.0016  1.2782 -0.3941
  139OSM   H14G15236   1.749   3.794   8.063 -0.5405  0.0370  1.3469
  139OSM   C15F15237   1.607   3.657   8.147  0.0412 -0.1152  0.1763
  139OSM   H15F15238   1.568   3.558   8.114 -0.1088 -0.2423  0.7102
  139OSM   H15G15239   1.517   3.714   8.179 -1.4972 -2.4898  0.4147
  139OSM   C16F15240   1.695   3.638   8.269  0.3594  0.5890  0.1308
  139OSM   H16F15241   1.777   3.708   8.295  0.0892  0.3698  1.6922
  139OSM   H16G15242   1.745   3.541   8.250 -3.3671 -1.6187  0.5314
  139OSM   C17F15243   1.609   3.626   8.401  0.3563 -0.1036 -0.6781
  139OSM   H17F15244   1.504   3.600   8.376 -0.3568  0.1858  1.8075
  139OSM   H17G15245   1.618   3.728   8.445 -0.8330 -0.3830  0.2454
  139OSM   C18F15246   1.647   3.513   8.497 -0.4987  0.4611 -0.0478
  139OSM   H18F15247   1.757   3.496   8.495 -0.5198  0.3599 -1.5155
  139OSM   H18G15248   1.602   3.419   8.461 -1.1197  0.7340  0.0032
  139OSM   H18H15249   1.608   3.531   8.599  3.0250  5.5228  0.7981
  140OSM      N15250   2.901   5.355   6.155  0.0345  0.0801 -0.7734
  140OSM    C1515251   2.828   5.484   6.172  0.3199  0.7113  0.3509
  140OSM   H15A15252   2.882   5.561   6.225 -1.5389  1.7521  0.8291
  140OSM   H15B15253   2.730   5.459   6.210  0.2989 -0.9384 -0.6911
  140OSM   H15C15254   2.801   5.522   6.074 -0.6593 -1.2047 -0.1695
  140OSM    C1415255   2.804   5.251   6.099  0.7736 -0.1084  0.0364
  140OSM   H14A15256   2.791   5.282   5.996  1.6121 -0.4263 -0.1773
  140OSM   H14B15257   2.720   5.248   6.167 -0.0665 -1.8338 -1.0186
  140OSM   H14C15258   2.846   5.153   6.084  0.8635 -0.2011  0.8827
  140OSM    C1315259   3.021   5.360   6.061  0.3891  0.2220 -0.2825
  140OSM   H13A15260   3.063   5.260   6.051 -1.5567 -0.7570  0.7178
  140OSM   H13B15261   3.100   5.417   6.107 -0.1818 -0.6349  1.8887
  140OSM   H13C15262   2.982   5.393   5.967 -1.7691  3.4598  1.5743
  140OSM    C1215263   2.954   5.308   6.295  0.5944 -0.3845  0.4829
  140OSM   H12A15264   3.038   5.371   6.322  0.8990 -0.1001 -1.0624
  140OSM   H12B15265   3.000   5.211   6.277 -1.9259 -1.4143 -0.9657
  140OSM    C1115266   2.862   5.289   6.415 -0.8154 -0.0682  0.4399
  140OSM   H11A15267   2.827   5.395   6.426  2.0532  1.5553 -3.6082
  140OSM   H11B15268   2.932   5.272   6.499 -0.0402  0.0445 -0.1744
  140OSM      P15269   2.778   5.033   6.398 -0.4094 -0.3523 -0.3440
  140OSM    O1315270   2.647   4.962   6.417  0.7570 -0.0248 -0.2723
  140OSM    O1415271   2.861   4.989   6.282 -0.0451  0.4107  0.1514
  140OSM    O1115272   2.864   5.008   6.529  0.6824 -0.0037 -0.4682
  140OSM    O1215273   2.758   5.191   6.397 -0.5025 -0.2340  0.3111
  140OSM    C1S15274   2.818   5.066   6.659 -0.4466  0.7262 -0.2150
  140OSM    H1S15275   2.707   5.065   6.657 -0.4724 -1.7946 -1.0064
  140OSM    H1T15276   2.854   5.171   6.671 -1.2562  0.9761  0.0906
  140OSM     NF15277   2.804   5.038   6.900  0.7580  0.5034  0.2028
  140OSM    HNF15278   2.848   5.100   6.964  0.4270  0.8150  0.1360
  140OSM    C2S15279   2.874   4.995   6.785  0.0159  0.6180  0.6570
  140OSM    H2S15280   2.866   4.884   6.777  2.1299  0.0057  4.6777
  140OSM    C3S15281   3.017   5.034   6.789  0.0037  0.0197  0.4991
  140OSM    H3S15282   3.023   5.142   6.814 -0.8076  0.1605  0.1405
  140OSM     O315283   3.087   5.012   6.666 -0.0940  0.0236 -0.9557
  140OSM    HO315284   3.015   4.994   6.605  1.7094  0.0355 -3.2088
  140OSM    C4S15285   3.089   4.964   6.900  0.6510  1.0572  0.6276
  140OSM    H4S15286   3.042   4.868   6.927  1.1853  0.2460 -1.1696
  140OSM    C5S15287   3.198   5.000   6.963  0.9055 -1.0524 -0.2857
  140OSM    H5S15288   3.247   5.094   6.933  1.7371 -0.6560  2.0832
  140OSM    C6S15289   3.273   4.925   7.069 -0.2677 -0.4712  0.7574
  140OSM    H6S15290   3.323   4.997   7.138  1.8583  1.9516 -2.9462
  140OSM    H6T15291   3.358   4.864   7.032  0.4992  0.8179  0.3158
  140OSM    C7S15292   3.184   4.826   7.138 -0.2053  0.2577  0.3998
  140OSM    H7S15293   3.161   4.746   7.064  2.2446  0.8021 -1.0631
  140OSM    H7T15294   3.089   4.876   7.163 -0.6291 -1.3273  2.2121
  140OSM    C8S15295   3.237   4.751   7.267 -0.5637 -0.9737  0.0883
  140OSM    H8S15296   3.344   4.726   7.251 -0.5692 -0.2284 -1.3220
  140OSM    H8T15297   3.179   4.657   7.279  0.3876 -1.4564  1.0398
  140OSM    C9S15298   3.234   4.848   7.384 -0.4531  0.5325 -0.9551
  140OSM    H9S15299   3.143   4.911   7.382 -0.5823  0.5406  1.8520
  140OSM    H9T15300   3.323   4.915   7.384 -0.5866  0.7379  0.4043
  140OSM   C10S15301   3.246   4.769   7.522  0.0779  0.8366  0.1665
  140OSM   H10S15302   3.347   4.724   7.536  1.3456  2.7912 -1.8438
  140OSM   H10T15303   3.165   4.693   7.521  1.6115 -1.1464  3.9344
  140OSM   C11S15304   3.228   4.856   7.645 -0.1240 -0.4178 -0.0231
  140OSM   H11S15305   3.124   4.895   7.640 -0.4468 -1.3157 -0.4965
  140OSM   H11T15306   3.309   4.931   7.639  0.7231 -1.4374 -1.9611
  140OSM   C12S15307   3.228   4.775   7.779 -0.5216  0.1922 -0.2022
  140OSM   H12S15308   3.327   4.725   7.791 -0.7021 -0.0533  0.3048
  140OSM   H12T15309   3.147   4.700   7.768 -1.7115  0.9575  2.5052
  140OSM   C13S15310   3.204   4.874   7.896 -1.0347  0.1267 -0.5046
  140OSM   H13S15311   3.101   4.907   7.873 -1.9155 -2.4035 -0.4868
  140OSM   H13T15312   3.281   4.955   7.896 -0.6443 -0.2251  0.5796
  140OSM   C14S15313   3.215   4.794   8.025  0.0584 -0.1937 -0.2515
  140OSM   H14S15314   3.314   4.744   8.023  0.8494  1.2478  0.6638
  140OSM   H14T15315   3.136   4.716   8.029  0.7225 -0.9424 -1.4451
  140OSM   C15S15316   3.214   4.883   8.155  0.1811 -0.0514  0.0250
  140OSM   H15S15317   3.127   4.953   8.155 -1.1997 -1.6225 -2.1529
  140OSM   H15T15318   3.301   4.951   8.149 -2.3071  3.3225 -1.6823
  140OSM   C16S15319   3.218   4.808   8.283  0.1090  0.1850  0.3850
  140OSM   H16S15320   3.296   4.729   8.277 -0.4025 -0.3244  0.3121
  140OSM   H16T15321   3.120   4.763   8.308 -0.3932  0.8760 -0.3061
  140OSM   C17S15322   3.260   4.896   8.404 -0.0011  0.0627  0.6071
  140OSM   H17S15323   3.341   4.960   8.364  0.4079 -1.1529 -0.5904
  140OSM   H17T15324   3.300   4.830   8.484 -1.8821 -0.0644  1.4932
  140OSM   C18S15325   3.151   4.983   8.461 -0.3315  0.4713  0.0987
  140OSM   H18S15326   3.051   4.935   8.458 -0.3144  0.4006  0.6272
  140OSM   H18T15327   3.148   5.072   8.395 -0.4076  0.1418 -0.3541
  140OSM   H18U15328   3.163   5.006   8.569 -2.1094 -0.5971  0.5635
  140OSM    C1F15329   2.674   5.006   6.915 -0.1440 -0.7520 -0.4515
  140OSM     OF15330   2.617   4.928   6.846  0.5207 -0.0420 -0.2485
  140OSM    C2F15331   2.607   5.076   7.029 -0.7372  0.1025 -0.6162
  140OSM    H2F15332   2.498   5.072   7.006 -0.8010 -0.8950 -0.1783
  140OSM    H2G15333   2.641   5.181   7.039  2.4932 -0.8200 -0.8576
  140OSM    C3F15334   2.632   4.990   7.158  0.3589  0.6346  0.1019
  140OSM    H3F15335   2.735   5.005   7.198  1.5837 -1.6086 -1.9320
  140OSM    H3G15336   2.621   4.884   7.127  0.0046  1.4771 -2.9993
  140OSM    C4F15337   2.531   5.038   7.259 -0.8423 -0.1585 -0.0302
  140OSM    H4F15338   2.428   5.038   7.218 -0.6192  0.5220 -0.6073
  140OSM    H4G15339   2.549   5.141   7.295  2.4379 -0.5981 -0.1294
  140OSM    C5F15340   2.540   4.958   7.392  0.3821  0.1185 -0.2222
  140OSM    H5F15341   2.537   4.851   7.363  3.2533 -0.3470  0.8730
  140OSM    H5G15342   2.455   4.991   7.456 -0.5878  0.3770 -1.5959
  140OSM    C6F15343   2.673   4.965   7.465 -0.4708 -0.1650  0.1270
  140OSM    H6F15344   2.706   5.071   7.469  0.1994 -0.3201 -0.9639
  140OSM    H6G15345   2.750   4.896   7.424 -0.8955 -1.3134  1.1909
  140OSM    C7F15346   2.656   4.909   7.607 -0.9711  0.3253  0.0751
  140OSM    H7F15347   2.630   4.802   7.595 -1.1513  0.2539  1.0546
  140OSM    H7G15348   2.564   4.950   7.654 -0.2932 -0.4983  2.2287
  140OSM    C8F15349   2.780   4.907   7.692  0.3871 -0.2837  0.3735
  140OSM    H8F15350   2.865   4.861   7.636 -0.2676 -0.2461 -0.6825
  140OSM    H8G15351   2.762   4.831   7.772 -1.0194 -1.1668 -0.7327
  140OSM    C9F15352   2.815   5.045   7.753 -0.6803  0.5566 -0.1461
  140OSM    H9F15353   2.824   5.131   7.686 -0.2677  1.7255  1.3405
  140OSM   C10F15354   2.841   5.076   7.884 -0.2154  0.0109 -0.1691
  140OSM   H10F15355   2.866   5.181   7.905 -1.2103  0.3598 -0.6857
  140OSM   C11F15356   2.832   4.981   7.993 -0.4300 -0.2843 -0.6453
  140OSM   H11F15357   2.929   4.929   8.003 -0.8162 -1.1638 -1.3625
  140OSM   H11G15358   2.758   4.900   7.976 -0.6024  0.3165 -3.1794
  140OSM   C12F15359   2.809   5.047   8.124  0.0795 -0.5577  0.5620
  140OSM   H12F15360   2.712   5.095   8.145  0.9052  0.7827  1.4331
  140OSM   H12G15361   2.881   5.131   8.134 -3.3026  2.5499  0.4691
  140OSM   C13F15362   2.821   4.958   8.246  0.0892  0.0403  0.4643
  140OSM   H13F15363   2.818   5.011   8.344 -2.5286  1.9195 -0.5125
  140OSM   H13G15364   2.914   4.898   8.241  0.1371  0.0833  0.8149
  140OSM   C14F15365   2.707   4.844   8.257 -0.0918 -0.2230  0.4734
  140OSM   H14F15366   2.724   4.789   8.162  0.9263  0.7490  0.0716
  140OSM   H14G15367   2.608   4.895   8.254  0.3120  0.5966 -2.4619
  140OSM   C15F15368   2.734   4.770   8.392  0.9780  0.4496  0.0868
  140OSM   H15F15369   2.730   4.829   8.485  1.3556  1.4010 -0.4867
  140OSM   H15G15370   2.834   4.723   8.397  0.6646 -0.0922  2.0029
  140OSM   C16F15371   2.634   4.653   8.415  0.8453  0.2983  0.2814
  140OSM   H16F15372   2.640   4.574   8.337 -0.7098 -1.2784  1.6685
  140OSM   H16G15373   2.536   4.697   8.389  1.7480  2.1038 -0.2607
  140OSM   C17F15374   2.652   4.586   8.556  0.5537 -0.0775 -0.3509
  140OSM   H17F15375   2.628   4.657   8.639  1.6175  0.0707 -0.1632
  140OSM   H17G15376   2.759   4.561   8.566  0.6433  1.0688  2.2009
  140OSM   C18F15377   2.574   4.455   8.559 -0.0885 -0.1258 -0.0431
  140OSM   H18F15378   2.610   4.405   8.651 -1.1206 -0.5178  0.1600
  140OSM   H18G15379   2.593   4.379   8.481 -2.0384 -2.2367  1.3945
  140OSM   H18H15380   2.464   4.473   8.565 -0.1532  0.2577 -1.7929
  141OSM      N15381   3.414   0.901   6.015  0.0306 -0.5539 -0.0900
  141OSM    C1515382   3.516   0.812   5.952  0.5241  0.4578  0.4768
  141OSM   H15A15383   3.608   0.825   6.006 -0.1562  2.8306  1.1994
  141OSM   H15B15384   3.535   0.841   5.849 -0.3416  0.1564  0.2187
  141OSM   H15C15385   3.493   0.706   5.946  1.6729  0.2549 -0.9734
  141OSM    C1415386   3.444   1.040   5.976 -0.4412  0.1304 -0.0818
  141OSM   H14A15387   3.463   1.049   5.870 -0.6907  1.1333 -0.0589
  141OSM   H14B15388   3.540   1.060   6.023 -0.0203 -0.8320 -0.5034
  141OSM   H14C15389   3.378   1.120   6.006  1.1518  1.1181  0.9502
  141OSM    C1315390   3.279   0.862   5.958  0.1759  0.0871 -0.5903
  141OSM   H13A15391   3.269   0.881   5.852  1.0660 -1.3136 -0.9511
  141OSM   H13B15392   3.201   0.912   6.013  0.8218 -0.3181  0.7440
  141OSM   H13C15393   3.257   0.756   5.957 -0.1808  0.1126  0.8972
  141OSM    C1215394   3.418   0.870   6.166  0.1326 -0.7114 -0.2198
  141OSM   H12A15395   3.400   0.765   6.179  0.0196 -0.7888 -0.9566
  141OSM   H12B15396   3.333   0.923   6.207  2.1702  0.7108  2.4462
  141OSM    C1115397   3.540   0.901   6.252 -0.1182  0.2512  0.0981
  141OSM   H11A15398   3.512   0.864   6.353 -2.1153 -0.9427 -0.8374
  141OSM   H11B15399   3.574   1.007   6.258  2.2705 -0.4781  0.6336
  141OSM      P15400   3.678   0.669   6.243  0.3041  0.0217 -0.0482
  141OSM    O1315401   3.590   0.590   6.150 -0.0066  0.0400 -0.2335
  141OSM    O1415402   3.824   0.650   6.243  0.7032  0.1530 -0.2038
  141OSM    O1115403   3.615   0.660   6.384 -0.1915 -0.3547  0.1583
  141OSM    O1215404   3.653   0.824   6.200  0.8362 -0.0699 -0.5182
  141OSM    C1S15405   3.688   0.675   6.504  0.1241 -0.3535 -0.7946
  141OSM    H1S15406   3.701   0.784   6.526 -0.3682 -0.7807  1.9285
  141OSM    H1T15407   3.789   0.629   6.503  0.3918 -0.0262  2.2132
  141OSM     NF15408   3.686   0.686   6.755 -0.5088 -1.3728  0.3077
  141OSM    HNF15409   3.749   0.625   6.802  1.1775 -2.8915 -3.4723
  141OSM    C2S15410   3.615   0.625   6.637 -0.2077  0.2544 -0.6397
  141OSM    H2S15411   3.514   0.671   6.647 -0.1042  0.6775 -1.4369
  141OSM    C3S15412   3.605   0.470   6.634 -0.6585 -0.6918  0.5785
  141OSM    H3S15413   3.707   0.428   6.649 -0.4202 -1.0514 -1.6767
  141OSM     O315414   3.565   0.416   6.512  0.0532  0.1867 -0.8644
  141OSM    HO315415   3.560   0.489   6.450  1.0660  1.3245  0.3265
  141OSM    C4S15416   3.517   0.418   6.745 -0.5626  0.2887 -0.1319
  141OSM    H4S15417   3.571   0.406   6.840 -0.5828 -1.7387 -0.3374
  141OSM    C5S15418   3.388   0.386   6.740 -0.4030 -0.0820 -0.3331
  141OSM    H5S15419   3.340   0.400   6.642 -1.4489  2.0305  0.4109
  141OSM    C6S15420   3.301   0.339   6.855  0.8935 -0.0564  0.1727
  141OSM    H6S15421   3.238   0.253   6.825 -0.7987  0.8271  1.0543
  141OSM    H6T15422   3.213   0.401   6.880 -0.8119 -1.5669 -1.7102
  141OSM    C7S15423   3.377   0.306   6.986 -0.3489  0.1903  0.3054
  141OSM    H7S15424   3.418   0.401   7.028 -2.5865  2.0258 -1.4259
  141OSM    H7T15425   3.459   0.234   6.966  0.4999  1.6675 -1.9490
  141OSM    C8S15426   3.292   0.248   7.096  0.0478 -0.1085 -0.8077
  141OSM    H8S15427   3.241   0.160   7.053 -1.0663  1.2263 -2.3850
  141OSM    H8T15428   3.224   0.328   7.134  2.3938  0.5858  2.3616
  141OSM    C9S15429   3.365   0.217   7.227  0.1236 -0.4553 -0.5245
  141OSM    H9S15430   3.433   0.302   7.250 -0.1757  0.5063 -2.8625
  141OSM    H9T15431   3.416   0.119   7.218 -0.1797 -0.6983  0.3950
  141OSM   C10S15432   3.275   0.204   7.353 -0.4236  0.3562  0.5541
  141OSM   H10S15433   3.229   0.103   7.346 -1.1534  0.6427  1.1183
  141OSM   H10T15434   3.187   0.271   7.343 -1.4955 -0.5847  2.9563
  141OSM   C11S15435   3.335   0.208   7.490 -0.1391 -0.1362  0.0601
  141OSM   H11S15436   3.432   0.262   7.484 -0.4585  0.3198 -1.6718
  141OSM   H11T15437   3.359   0.101   7.508  0.3577  0.0656  0.6030
  141OSM   C12S15438   3.252   0.268   7.603  0.0388  0.3429  0.0733
  141OSM   H12S15439   3.172   0.193   7.618 -1.2245  1.0360 -2.5408
  141OSM   H12T15440   3.204   0.361   7.564  2.2136  0.5660 -2.3794
  141OSM   C13S15441   3.330   0.291   7.735 -0.2454 -0.1412  0.5937
  141OSM   H13S15442   3.420   0.354   7.715  0.7463 -1.3814  1.0062
  141OSM   H13T15443   3.372   0.194   7.767 -0.2293 -0.1868  0.4353
  141OSM   C14S15444   3.239   0.353   7.840  0.1877  0.6303 -0.7945
  141OSM   H14S15445   3.158   0.278   7.857 -0.1007  0.6935 -1.8110
  141OSM   H14T15446   3.183   0.440   7.801  0.7673  1.3733  0.0017
  141OSM   C15S15447   3.303   0.397   7.972 -0.2207  0.1630 -0.8623
  141OSM   H15S15448   3.389   0.330   7.994 -0.3276  0.9593  2.6679
  141OSM   H15T15449   3.228   0.391   8.055  0.2817 -0.3223 -0.4337
  141OSM   C16S15450   3.358   0.547   7.971 -0.2646  0.5450 -0.6286
  141OSM   H16S15451   3.272   0.616   7.958 -0.4707  0.3479 -0.3234
  141OSM   H16T15452   3.416   0.560   7.876  0.7331  0.3120 -0.0661
  141OSM   C17S15453   3.443   0.583   8.100 -0.3438 -0.5182 -0.0755
  141OSM   H17S15454   3.509   0.499   8.128  0.2900 -0.0113 -0.0203
  141OSM   H17T15455   3.385   0.606   8.193 -1.5422  1.4293 -1.2311
  141OSM   C18S15456   3.541   0.698   8.071 -0.0532 -0.0696  0.1306
  141OSM   H18S15457   3.617   0.724   8.148 -1.3682  0.3204  1.3354
  141OSM   H18T15458   3.501   0.799   8.046  1.8514  0.4461 -1.0140
  141OSM   H18U15459   3.606   0.673   7.985 -0.2565  0.3195 -0.1459
  141OSM    C1F15460   3.683   0.823   6.771 -0.0063 -0.0028  0.1481
  141OSM     OF15461   3.601   0.893   6.706  0.1836 -0.7170  0.0520
  141OSM    C2F15462   3.778   0.879   6.865  0.2474 -0.2687  0.1010
  141OSM    H2F15463   3.769   0.990   6.856 -1.6246 -0.5293 -2.2893
  141OSM    H2G15464   3.878   0.848   6.829 -0.5717 -0.7928 -1.8022
  141OSM    C3F15465   3.764   0.845   7.013 -0.2204  0.0540  0.6249
  141OSM    H3F15466   3.841   0.898   7.072 -1.1819  2.8680 -0.4672
  141OSM    H3G15467   3.783   0.736   7.025 -1.3327 -0.6530 -2.8228
  141OSM    C4F15468   3.625   0.863   7.076 -0.3386 -0.2983  0.0566
  141OSM    H4F15469   3.571   0.766   7.075 -1.6735  0.3906 -1.7363
  141OSM    H4G15470   3.568   0.942   7.022  1.9838  1.0262 -0.6344
  141OSM    C5F15471   3.609   0.896   7.227 -0.7546 -0.8303 -0.0898
  141OSM    H5F15472   3.503   0.900   7.258 -0.0966  1.3246  2.1948
  141OSM    H5G15473   3.659   0.990   7.259 -1.9781 -0.1672 -0.0788
  141OSM    C6F15474   3.674   0.782   7.306  0.4608  0.0779 -0.2737
  141OSM    H6F15475   3.781   0.775   7.277  0.5745  0.8745 -0.0893
  141OSM    H6G15476   3.619   0.690   7.277 -0.5196  0.1496  1.2141
  141OSM    C7F15477   3.675   0.804   7.455 -0.2548 -0.3494 -0.2363
  141OSM    H7F15478   3.575   0.842   7.483 -0.7412 -2.5754  1.2585
  141OSM    H7G15479   3.735   0.894   7.483 -1.3342 -0.2982  2.1168
  141OSM    C8F15480   3.726   0.684   7.542 -0.4480  0.2292 -0.2057
  141OSM    H8F15481   3.826   0.654   7.505 -0.5727  0.9942 -1.2183
  141OSM    H8G15482   3.669   0.593   7.514  1.0328  0.1178 -3.3165
  141OSM    C9F15483   3.745   0.711   7.684  0.1440 -0.7417 -0.2194
  141OSM    H9F15484   3.730   0.818   7.706 -0.6139 -0.8897  0.0118
  141OSM   C10F15485   3.798   0.633   7.774  0.8141  0.4540 -0.4303
  141OSM   H10F15486   3.821   0.662   7.877 -0.5073 -0.2184  0.0773
  141OSM   C11F15487   3.836   0.497   7.742  0.2825  0.4721  0.3800
  141OSM   H11F15488   3.938   0.498   7.699  0.6805 -0.0243  1.2796
  141OSM   H11G15489   3.760   0.439   7.685  4.1447 -2.8050 -1.8864
  141OSM   C12F15490   3.844   0.407   7.873  0.0213 -0.5531  0.2453
  141OSM   H12F15491   3.898   0.458   7.956 -1.8871  1.0183  0.5901
  141OSM   H12G15492   3.905   0.320   7.839  1.8917  1.6653 -2.5398
  141OSM   C13F15493   3.711   0.351   7.925 -0.5760 -0.0633  0.2430
  141OSM   H13F15494   3.656   0.314   7.836  1.2667  0.0596 -1.0061
  141OSM   H13G15495   3.655   0.440   7.960 -0.9003 -0.2104  0.1014
  141OSM   C14F15496   3.731   0.243   8.032  0.3591  0.1954  0.2764
  141OSM   H14F15497   3.836   0.251   8.069  0.0209  1.6547  1.0242
  141OSM   H14G15498   3.722   0.143   7.985 -1.6206 -0.0044  0.9955
  141OSM   C15F15499   3.630   0.258   8.146 -0.1854 -0.3464 -0.0967
  141OSM   H15F15500   3.527   0.274   8.107 -1.0249 -1.0879  1.6820
  141OSM   H15G15501   3.652   0.348   8.207 -2.8646  0.3438  0.0117
  141OSM   C16F15502   3.622   0.139   8.243 -0.1499  0.2098  0.1857
  141OSM   H16F15503   3.722   0.103   8.273 -1.1427 -0.1551  3.5006
  141OSM   H16G15504   3.577   0.054   8.186 -0.2158 -0.1696  0.7959
  141OSM   C17F15505   3.528   0.169   8.358 -1.0070  0.3569 -0.6802
  141OSM   H17F15506   3.427   0.183   8.314 -1.6786 -0.8272  0.4011
  141OSM   H17G15507   3.569   0.264   8.399 -0.4549  0.2990 -1.0896
  141OSM   C18F15508   3.525   0.060   8.468  0.0605 -0.1353  0.1960
  141OSM   H18F15509   3.475   0.100   8.558 -0.0588 -1.9426  0.9672
  141OSM   H18G15510   3.630   0.027   8.484  0.7579  1.3171 -1.0989
  141OSM   H18H15511   3.465  -0.031   8.444  0.1322 -0.4938  1.3256
  142OSM      N15512   6.095   2.470   6.063 -0.0942 -0.1757  0.2955
  142OSM    C1515513   6.239   2.444   6.025 -0.7996 -0.2795 -0.4825
  142OSM   H15A15514   6.274   2.355   6.075  0.5929  0.4861 -0.0479
  142OSM   H15B15515   6.303   2.518   6.070 -0.3321 -0.8957 -0.1239
  142OSM   H15C15516   6.269   2.447   5.921  0.2791  0.9632 -0.1527
  142OSM    C1415517   6.053   2.597   5.994  0.2732  0.6888 -0.0671
  142OSM   H14A15518   6.105   2.681   6.038  0.1276  1.1795 -0.8131
  142OSM   H14B15519   5.946   2.610   6.002  0.2592 -0.1111  1.3248
  142OSM   H14C15520   6.084   2.587   5.891 -1.6976 -1.6546 -0.5101
  142OSM    C1315521   6.008   2.359   6.015 -0.4514  0.2215  0.0385
  142OSM   H13A15522   6.039   2.273   6.072 -1.6902  0.0010  0.4099
  142OSM   H13B15523   6.011   2.345   5.908 -0.1639 -0.2720  0.1116
  142OSM   H13C15524   5.905   2.381   6.041 -0.1472  2.9921 -0.7288
  142OSM    C1215525   6.074   2.478   6.210 -0.5269  0.4087 -0.2267
  142OSM   H12A15526   5.967   2.485   6.219 -0.7889 -1.5614 -1.3965
  142OSM   H12B15527   6.115   2.572   6.244 -1.9700  0.2764  2.0947
  142OSM    C1115528   6.131   2.362   6.294 -0.0171  0.6467 -0.4737
  142OSM   H11A15529   6.074   2.365   6.389 -1.2422  1.6510 -1.2009
  142OSM   H11B15530   6.236   2.381   6.327  0.0407 -0.3311 -0.0769
  142OSM      P15531   6.207   2.110   6.268 -0.0556 -0.0573  0.3155
  142OSM    O1315532   6.145   1.988   6.224  0.1181 -0.1295  0.8033
  142OSM    O1415533   6.342   2.138   6.216 -0.1027 -1.0033 -0.0957
  142OSM    O1115534   6.209   2.109   6.431  0.1318  0.0419 -0.2409
  142OSM    O1215535   6.109   2.229   6.233 -0.0929 -0.1160 -0.1893
  142OSM    C1S15536   6.084   2.070   6.499 -0.3004 -0.2795  0.3083
  142OSM    H1S15537   6.050   1.971   6.460  0.9519 -0.8222  0.5375
  142OSM    H1T15538   6.016   2.152   6.469  0.8636  2.0211  3.4696
  142OSM     NF15539   5.943   2.050   6.704 -0.2309 -0.1188 -0.1563
  142OSM    HNF15540   5.870   2.115   6.718  1.8526  2.2593  0.3898
  142OSM    C2S15541   6.074   2.088   6.652  0.0154  0.8018  0.0177
  142OSM    H2S15542   6.155   2.022   6.689  0.4355  0.3341 -1.6516
  142OSM    C3S15543   6.104   2.234   6.687 -0.2510 -0.7607  0.2238
  142OSM    H3S15544   6.012   2.292   6.663 -0.4549 -1.0116  0.4067
  142OSM     O315545   6.212   2.295   6.611  0.4051 -0.6080  0.1667
  142OSM    HO315546   6.212   2.250   6.526  1.8054  2.0199 -1.3395
  142OSM    C4S15547   6.132   2.251   6.837 -0.5584 -0.0681 -0.2708
  142OSM    H4S15548   6.038   2.258   6.894 -0.0523 -2.8315  1.0814
  142OSM    C5S15549   6.250   2.234   6.908  0.3708  0.2132 -0.3171
  142OSM    H5S15550   6.346   2.208   6.862 -1.2010 -0.7491 -3.3075
  142OSM    C6S15551   6.267   2.264   7.054 -0.4759  0.2745 -0.1104
  142OSM    H6S15552   6.378   2.254   7.057 -0.2201  2.2573 -1.3791
  142OSM    H6T15553   6.221   2.183   7.115 -2.1500 -0.4219 -2.1489
  142OSM    C7S15554   6.239   2.405   7.099  0.3710 -0.3956 -0.0946
  142OSM    H7S15555   6.142   2.427   7.049  0.1899 -0.4439  0.2336
  142OSM    H7T15556   6.318   2.468   7.055  0.9098 -1.6820 -1.0460
  142OSM    C8S15557   6.212   2.420   7.249 -0.1826  0.1048  0.1559
  142OSM    H8S15558   6.130   2.347   7.267 -0.1445  0.2505  0.9879
  142OSM    H8T15559   6.171   2.519   7.279  0.1253  0.6384 -1.1575
  142OSM    C9S15560   6.334   2.394   7.350 -0.0609 -0.8556  0.5945
  142OSM    H9S15561   6.400   2.480   7.328 -2.2701  0.4065 -1.6757
  142OSM    H9T15562   6.387   2.304   7.314  2.1249 -0.5236  2.7497
  142OSM   C10S15563   6.295   2.390   7.496 -0.3430  0.4606 -0.0176
  142OSM   H10S15564   6.227   2.307   7.525  2.7455 -1.0640  3.6508
  142OSM   H10T15565   6.260   2.490   7.527 -2.1137  0.8879 -2.9587
  142OSM   C11S15566   6.418   2.346   7.571  0.7100  0.5985  0.0419
  142OSM   H11S15567   6.512   2.406   7.570  0.5885  0.7828 -0.7296
  142OSM   H11T15568   6.453   2.249   7.528  0.7309  0.7556 -0.2971
  142OSM   C12S15569   6.387   2.323   7.715 -0.8209  0.3383 -0.3881
  142OSM   H12S15570   6.287   2.273   7.717 -0.9535  0.6081  1.6902
  142OSM   H12T15571   6.373   2.424   7.760  0.4477  0.1889  0.3837
  142OSM   C13S15572   6.481   2.239   7.803 -0.2231  0.5469  0.2434
  142OSM   H13S15573   6.584   2.268   7.773 -0.7298  2.4467  0.2174
  142OSM   H13T15574   6.457   2.135   7.771 -1.9475  0.6138  1.2079
  142OSM   C14S15575   6.454   2.261   7.950 -0.2740  0.1895  0.2042
  142OSM   H14S15576   6.350   2.231   7.976 -0.4177  0.7048  0.2312
  142OSM   H14T15577   6.470   2.366   7.981  2.3964 -0.0390 -0.1935
  142OSM   C15S15578   6.554   2.186   8.034 -0.1324 -0.2731  0.1158
  142OSM   H15S15579   6.660   2.209   8.009 -0.1666 -1.0173 -0.7952
  142OSM   H15T15580   6.550   2.077   8.013  2.5669 -0.0501 -2.1475
  142OSM   C16S15581   6.541   2.194   8.183 -0.4200  0.8928 -0.3156
  142OSM   H16S15582   6.450   2.137   8.208 -0.8117  1.5814 -0.1269
  142OSM   H16T15583   6.539   2.300   8.217 -0.8607  0.6860  0.3276
  142OSM   C17S15584   6.658   2.119   8.257  0.1544  0.2329 -0.0046
  142OSM   H17S15585   6.753   2.172   8.234 -0.3724  1.3530  0.3513
  142OSM   H17T15586   6.670   2.016   8.217 -2.6755 -0.3319  0.4013
  142OSM   C18S15587   6.650   2.120   8.411 -0.2855  0.2744  0.4036
  142OSM   H18S15588   6.737   2.067   8.457  0.2169 -0.4235 -1.2834
  142OSM   H18T15589   6.566   2.051   8.433  0.6683 -1.0880 -0.0605
  142OSM   H18U15590   6.624   2.222   8.447 -3.3261  1.2351 -3.7961
  142OSM    C1F15591   5.918   1.921   6.702  0.2898 -0.1588 -0.0418
  142OSM     OF15592   5.999   1.835   6.662 -0.5674 -0.4064  0.1034
  142OSM    C2F15593   5.788   1.887   6.758  0.7329  0.7484  0.6107
  142OSM    H2F15594   5.713   1.889   6.676  0.8641 -2.4175  0.3291
  142OSM    H2G15595   5.761   1.970   6.828 -1.3536 -0.6253  1.5347
  142OSM    C3F15596   5.777   1.741   6.817  0.2053 -0.7582 -0.1843
  142OSM    H3F15597   5.844   1.737   6.905 -1.4155  1.3918  1.2728
  142OSM    H3G15598   5.798   1.654   6.752 -0.1689 -0.3094 -0.9316
  142OSM    C4F15599   5.638   1.721   6.894  0.6171 -0.3407  0.6593
  142OSM    H4F15600   5.634   1.616   6.931 -1.8270  0.1001  1.8418
  142OSM    H4G15601   5.559   1.743   6.818  0.5953  1.2001  1.0990
  142OSM    C5F15602   5.620   1.807   7.025 -0.0646 -0.3110  0.6022
  142OSM    H5F15603   5.600   1.914   7.001 -0.8969 -0.5587  0.1401
  142OSM    H5G15604   5.714   1.808   7.083  1.0627  0.3502 -1.1457
  142OSM    C6F15605   5.505   1.755   7.118 -0.6953 -0.4481 -0.4655
  142OSM    H6F15606   5.542   1.655   7.151 -2.1587 -1.1205 -0.7990
  142OSM    H6G15607   5.411   1.762   7.060 -0.9810  1.6053  0.1788
  142OSM    C7F15608   5.474   1.848   7.241  0.4503 -0.0981 -0.2476
  142OSM    H7F15609   5.430   1.943   7.204  0.6137  0.0280 -0.1159
  142OSM    H7G15610   5.569   1.882   7.287  1.4418  0.2011 -2.3809
  142OSM    C8F15611   5.391   1.775   7.350  0.2073 -0.8410  0.2261
  142OSM    H8F15612   5.286   1.757   7.316  0.8977 -2.2062 -1.3605
  142OSM    H8G15613   5.363   1.851   7.425 -1.3624 -1.2880  0.1419
  142OSM    C9F15614   5.451   1.657   7.420  0.0086  0.2742 -0.1559
  142OSM    H9F15615   5.472   1.574   7.351  0.4830  1.3795 -1.3859
  142OSM   C10F15616   5.486   1.640   7.547 -0.1449 -0.4892  0.5040
  142OSM   H10F15617   5.541   1.551   7.582  1.6680  0.3577 -0.0755
  142OSM   C11F15618   5.461   1.742   7.659 -0.3318  0.0930  0.4555
  142OSM   H11F15619   5.353   1.767   7.656 -0.2059  0.5773 -1.2507
  142OSM   H11G15620   5.521   1.835   7.648 -1.4347  0.6649 -1.0358
  142OSM   C12F15621   5.504   1.693   7.799 -0.4489  0.5303 -0.3382
  142OSM   H12F15622   5.610   1.658   7.797 -1.0058 -1.4941  1.3899
  142OSM   H12G15623   5.431   1.610   7.813 -0.2936  0.7676  2.3109
  142OSM   C13F15624   5.488   1.798   7.905  0.1603 -0.4082  0.0163
  142OSM   H13F15625   5.515   1.901   7.871  1.1770 -0.8701 -0.6215
  142OSM   H13G15626   5.557   1.769   7.987  2.5705 -3.0718 -2.7221
  142OSM   C14F15627   5.342   1.817   7.953  0.4537  0.2812  0.0638
  142OSM   H14F15628   5.274   1.833   7.867  1.9482  0.3742 -1.1545
  142OSM   H14G15629   5.342   1.914   8.007 -0.4456 -0.8786  2.2688
  142OSM   C15F15630   5.286   1.695   8.036 -0.3489  0.1334 -0.7386
  142OSM   H15F15631   5.288   1.597   7.983 -1.1800  0.4788 -1.4251
  142OSM   H15G15632   5.176   1.709   8.040 -0.3327  0.2029  3.1909
  142OSM   C16F15633   5.356   1.685   8.168  0.1040 -0.5208  0.3763
  142OSM   H16F15634   5.335   1.780   8.222 -1.6096 -1.7413  2.0236
  142OSM   H16G15635   5.465   1.665   8.165  0.0588 -1.1427  1.7164
  142OSM   C17F15636   5.281   1.595   8.264  0.7064  0.8050  0.2726
  142OSM   H17F15637   5.270   1.494   8.219  0.8343  0.4786  0.9557
  142OSM   H17G15638   5.178   1.636   8.265  0.9988  1.9155 -2.7485
  142OSM   C18F15639   5.350   1.600   8.402  0.0042 -0.1107  0.5105
  142OSM   H18F15640   5.339   1.704   8.439  0.5303  0.2141 -0.2282
  142OSM   H18G15641   5.458   1.578   8.388 -0.0274  0.2907 -0.4453
  142OSM   H18H15642   5.313   1.526   8.476  2.0837 -1.6410  0.1003
  143OSM      N15643   5.068   4.212   6.152 -0.2408 -0.5851 -0.6175
  143OSM    C1515644   5.037   4.349   6.203 -0.0757  0.1665 -0.1711
  143OSM   H15A15645   4.944   4.353   6.257 -0.0619  0.1421 -0.1455
  143OSM   H15B15646   5.020   4.413   6.118 -0.0022 -2.4887 -2.3450
  143OSM   H15C15647   5.118   4.392   6.260 -0.2577 -1.8246  1.7526
  143OSM    C1415648   4.984   4.193   6.032 -0.1257  0.1596  0.0103
  143OSM   H14A15649   5.021   4.108   5.976 -0.9877  0.2827 -0.7739
  143OSM   H14B15650   4.984   4.283   5.972 -2.4764  0.8719  0.9563
  143OSM   H14C15651   4.884   4.162   6.056  0.6437 -3.7308 -1.1363
  143OSM    C1315652   5.213   4.210   6.106  0.2682 -0.1023 -0.0123
  143OSM   H13A15653   5.228   4.293   6.039  0.5037  2.0702  2.5641
  143OSM   H13B15654   5.234   4.122   6.048 -1.6210 -0.0010 -0.9328
  143OSM   H13C15655   5.283   4.221   6.188  1.8029 -1.7699 -1.0206
  143OSM    C1215656   5.063   4.096   6.257  0.0332 -1.1190 -0.4756
  143OSM   H12A15657   5.127   4.119   6.341 -1.4231  0.2547  0.3149
  143OSM   H12B15658   5.093   4.009   6.200  0.2011 -0.9822 -0.5948
  143OSM    C1115659   4.916   4.060   6.314  0.1234 -0.5361  0.1119
  143OSM   H11A15660   4.872   4.154   6.354  0.7319 -1.1111  2.2177
  143OSM   H11B15661   4.937   3.991   6.398 -1.0437  0.6715  1.4558
  143OSM      P15662   4.677   4.037   6.197  0.0276 -0.4627 -0.0759
  143OSM    O1315663   4.680   4.107   6.068 -0.8022  0.5739  0.1788
  143OSM    O1415664   4.597   3.915   6.194  0.5706 -0.3480  0.1754
  143OSM    O1115665   4.629   4.136   6.317 -0.0558  0.0995 -0.2512
  143OSM    O1215666   4.826   3.993   6.222 -0.3039 -0.6672 -0.7457
  143OSM    C1S15667   4.609   4.076   6.447  0.5972  0.0853 -0.5680
  143OSM    H1S15668   4.681   3.995   6.470 -0.5522 -0.5699  0.8535
  143OSM    H1T15669   4.506   4.035   6.445  0.0952  1.1560  1.0267
  143OSM     NF15670   4.596   4.137   6.693 -0.6365 -0.0381 -0.4447
  143OSM    HNF15671   4.509   4.152   6.740 -0.1409  2.0303 -0.0713
  143OSM    C2S15672   4.607   4.187   6.557 -0.7023 -0.8068  0.6520
  143OSM    H2S15673   4.704   4.239   6.546 -1.2534 -0.0721 -1.1347
  143OSM    C3S15674   4.507   4.304   6.521  0.7623  0.7220  0.1722
  143OSM    H3S15675   4.404   4.274   6.548  0.2441  1.5025 -0.8968
  143OSM     O315676   4.483   4.353   6.385  0.3274  0.0299 -0.0378
  143OSM    HO315677   4.548   4.303   6.334  1.6294 -0.3552  1.8771
  143OSM    C4S15678   4.530   4.416   6.615 -1.0906 -0.0755 -0.2451
  143OSM    H4S15679   4.494   4.391   6.716  1.1055 -0.3478  0.5227
  143OSM    C5S15680   4.596   4.532   6.594  0.0779  0.1109  0.1749
  143OSM    H5S15681   4.630   4.556   6.493  2.3427  0.5367  0.9777
  143OSM    C6S15682   4.622   4.642   6.694 -0.3802 -0.1655  0.1196
  143OSM    H6S15683   4.564   4.730   6.660 -0.9836 -0.0332  1.4381
  143OSM    H6T15684   4.732   4.661   6.694 -0.6529  1.5190  0.7875
  143OSM    C7S15685   4.590   4.617   6.832 -0.6027 -0.4410 -0.2751
  143OSM    H7S15686   4.645   4.530   6.874  0.0208  0.4045  0.6927
  143OSM    H7T15687   4.484   4.586   6.841 -0.1247 -2.0233  0.3310
  143OSM    C8S15688   4.636   4.738   6.930  0.0043  0.3578 -0.1256
  143OSM    H8S15689   4.581   4.825   6.888 -0.4836  0.6573  1.1134
  143OSM    H8T15690   4.745   4.756   6.921  0.0997 -0.5504 -1.0921
  143OSM    C9S15691   4.587   4.720   7.075 -0.5279  0.4186 -0.0019
  143OSM    H9S15692   4.638   4.630   7.116 -1.1152 -0.0755 -0.3417
  143OSM    H9T15693   4.476   4.710   7.079 -0.7269  2.2619 -0.1404
  143OSM   C10S15694   4.612   4.843   7.167  0.7275 -0.2302 -0.0590
  143OSM   H10S15695   4.581   4.936   7.115  3.3301  0.7251 -0.0309
  143OSM   H10T15696   4.722   4.838   7.181  0.7554 -0.7821 -0.4568
  143OSM   C11S15697   4.544   4.815   7.300  0.5910  0.3670  0.4045
  143OSM   H11S15698   4.553   4.708   7.329 -1.0780 -0.0439 -0.4528
  143OSM   H11T15699   4.433   4.826   7.291  0.8252  2.6229 -0.2771
  143OSM   C12S15700   4.618   4.892   7.412  0.3070 -0.4144 -0.6905
  143OSM   H12S15701   4.603   5.001   7.423 -0.8310 -0.6095 -0.2277
  143OSM   H12T15702   4.726   4.864   7.413 -0.3888 -3.6263  1.0161
  143OSM   C13S15703   4.560   4.838   7.544 -0.8509 -0.0549  0.2571
  143OSM   H13S15704   4.566   4.728   7.558  1.1442 -0.0427 -0.1939
  143OSM   H13T15705   4.452   4.863   7.547 -0.6066  1.0544  0.1943
  143OSM   C14S15706   4.628   4.891   7.677 -0.4572  0.3508 -0.1655
  143OSM   H14S15707   4.637   5.002   7.672  1.3029  0.1833 -2.4372
  143OSM   H14T15708   4.731   4.852   7.685  0.3704  2.4614  0.1931
  143OSM   C15S15709   4.537   4.865   7.796  0.9896  0.4526 -0.6162
  143OSM   H15S15710   4.477   4.772   7.784  0.5404  0.6885 -0.2529
  143OSM   H15T15711   4.459   4.942   7.816 -1.7761 -2.0296 -1.1104
  143OSM   C16S15712   4.624   4.855   7.922  0.2898 -0.4078 -0.0441
  143OSM   H16S15713   4.556   4.876   8.008  0.0299 -0.0925 -0.3229
  143OSM   H16T15714   4.707   4.929   7.917 -1.1689  1.4623  1.4749
  143OSM   C17S15715   4.683   4.713   7.943  0.3671 -0.4412  0.8981
  143OSM   H17S15716   4.756   4.698   7.860 -0.4184  1.5934 -0.2239
  143OSM   H17T15717   4.606   4.637   7.918 -0.9850  1.4274 -0.9535
  143OSM   C18S15718   4.765   4.683   8.066 -0.4997 -0.0994  0.2961
  143OSM   H18S15719   4.707   4.707   8.158 -0.1555 -0.5139  0.6272
  143OSM   H18T15720   4.850   4.754   8.069 -2.1112  1.9480  0.3859
  143OSM   H18U15721   4.787   4.575   8.070  0.2862  0.0844  2.5424
  143OSM    C1F15722   4.695   4.067   6.750  0.3246 -0.3683  0.6951
  143OSM     OF15723   4.798   4.037   6.692  0.1538 -0.6967 -0.3470
  143OSM    C2F15724   4.666   4.015   6.885 -0.1233 -0.5996 -0.1003
  143OSM    H2F15725   4.703   3.912   6.902 -2.2449 -1.6250 -1.2719
  143OSM    H2G15726   4.555   4.004   6.894 -0.0781 -0.4035  0.7644
  143OSM    C3F15727   4.724   4.113   6.987 -0.9460  0.1184  0.0062
  143OSM    H3F15728   4.676   4.213   6.981  0.7571  0.9583 -0.1641
  143OSM    H3G15729   4.831   4.128   6.960 -1.5789  0.8009 -2.3218
  143OSM    C4F15730   4.729   4.060   7.132 -0.0961 -0.5469  0.1824
  143OSM    H4F15731   4.789   3.967   7.136  0.4145 -0.4284 -2.5874
  143OSM    H4G15732   4.627   4.036   7.170 -0.2861  0.9369  0.6817
  143OSM    C5F15733   4.781   4.162   7.228  1.1240 -0.2290 -0.3349
  143OSM    H5F15734   4.719   4.254   7.232  2.2791  0.5377  0.5516
  143OSM    H5G15735   4.880   4.191   7.187 -0.0231  1.6442 -1.9944
  143OSM    C6F15736   4.804   4.103   7.360 -0.1350  0.3632 -0.3532
  143OSM    H6F15737   4.878   4.021   7.363 -1.0284 -0.4369  0.7193
  143OSM    H6G15738   4.704   4.072   7.398 -0.6059  3.5511  1.3924
  143OSM    C7F15739   4.856   4.193   7.465 -0.3412 -0.1854 -0.2071
  143OSM    H7F15740   4.790   4.282   7.471 -0.7269 -0.4896  0.1592
  143OSM    H7G15741   4.954   4.232   7.430  0.1510 -0.1888  1.1292
  143OSM    C8F15742   4.866   4.125   7.602 -0.2850 -0.0398  0.1665
  143OSM    H8F15743   4.948   4.167   7.663  0.3655  0.2982 -0.9135
  143OSM    H8G15744   4.902   4.020   7.601  1.0419  0.3933  0.7960
  143OSM    C9F15745   4.740   4.148   7.686  0.3991  0.2893  0.3502
  143OSM    H9F15746   4.654   4.142   7.618  0.7265  0.1816 -0.0603
  143OSM   C10F15747   4.729   4.139   7.816  0.0330 -0.3463 -0.8083
  143OSM   H10F15748   4.631   4.155   7.862  0.4507 -1.0899  0.3843
  143OSM   C11F15749   4.840   4.113   7.915 -0.0892 -0.0316  0.0784
  143OSM   H11F15750   4.863   4.202   7.976 -1.4726  0.6473 -0.3550
  143OSM   H11G15751   4.938   4.089   7.868  0.4431  5.5710 -2.4538
  143OSM   C12F15752   4.813   4.003   8.020  0.7367  0.7473 -0.3625
  143OSM   H12F15753   4.910   3.989   8.071  1.2065  1.9747 -0.8922
  143OSM   H12G15754   4.799   3.909   7.962  1.5981  1.2807 -1.4785
  143OSM   C13F15755   4.690   4.038   8.114 -0.6930  0.3185  0.0029
  143OSM   H13F15756   4.597   4.028   8.054 -1.3621 -0.4704  1.1367
  143OSM   H13G15757   4.693   4.137   8.164  1.3178  0.0781  0.4512
  143OSM   C14F15758   4.679   3.929   8.221 -0.0370 -0.0517  0.4224
  143OSM   H14F15759   4.775   3.924   8.275  0.3225  0.1743 -0.1806
  143OSM   H14G15760   4.665   3.828   8.176 -0.1818  0.6283 -1.1398
  143OSM   C15F15761   4.569   3.980   8.321 -0.1731 -0.6975  0.3809
  143OSM   H15F15762   4.476   3.986   8.261  1.9550 -1.4107 -3.3008
  143OSM   H15G15763   4.601   4.079   8.360  1.2168 -1.5545  1.5137
  143OSM   C16F15764   4.566   3.894   8.450 -0.1524  0.2887  0.0567
  143OSM   H16F15765   4.649   3.931   8.514  0.0855  0.6625 -0.4568
  143OSM   H16G15766   4.594   3.793   8.414  0.1671 -0.3660  2.0428
  143OSM   C17F15767   4.426   3.909   8.516 -0.0209 -0.3879  0.0315
  143OSM   H17F15768   4.428   3.834   8.598  3.2510 -1.4052 -0.8335
  143OSM   H17G15769   4.339   3.878   8.456  0.0756 -1.5964  0.4773
  143OSM   C18F15770   4.403   4.043   8.587 -0.2410  0.3894  0.0532
  143OSM   H18F15771   4.325   4.040   8.667  1.4638 -0.3618  1.7662
  143OSM   H18G15772   4.386   4.124   8.513 -0.5865  1.4589  1.2540
  143OSM   H18H15773   4.498   4.076   8.635 -0.1067 -1.6727  1.3174
  144OSM      N15774   4.657   2.537   6.087 -0.5317  0.2108 -0.2405
  144OSM    C1515775   4.789   2.565   6.022  0.5931  0.2661 -0.1196
  144OSM   H15A15776   4.855   2.483   6.045 -1.4651 -1.0271  1.6056
  144OSM   H15B15777   4.833   2.656   6.060  1.6781  1.3154 -3.5497
  144OSM   H15C15778   4.787   2.573   5.914  2.5030  0.7332 -0.1477
  144OSM    C1415779   4.551   2.592   6.010  0.6295 -0.4009  0.6455
  144OSM   H14A15780   4.555   2.570   5.904 -1.7359 -0.8870  0.6166
  144OSM   H14B15781   4.558   2.700   6.014 -0.3040 -0.2967 -0.2940
  144OSM   H14C15782   4.456   2.566   6.053  0.7293  0.9143  1.7274
  144OSM    C1315783   4.639   2.392   6.083  0.1223  0.5859  0.3342
  144OSM   H13A15784   4.636   2.360   5.979  1.6180  0.2836  0.3737
  144OSM   H13B15785   4.546   2.364   6.130 -1.1592  2.4311 -0.9729
  144OSM   H13C15786   4.719   2.343   6.135  2.1123  1.9271 -1.3294
  144OSM    C1215787   4.648   2.591   6.227 -0.0778  0.1623  0.3264
  144OSM   H12A15788   4.551   2.565   6.266  0.6419 -0.9519  1.4460
  144OSM   H12B15789   4.648   2.699   6.220 -0.5203  0.0592 -2.3976
  144OSM    C1115790   4.755   2.556   6.331  0.5161 -0.0907  0.4250
  144OSM   H11A15791   4.797   2.455   6.311 -0.0167  0.1778 -2.5328
  144OSM   H11B15792   4.708   2.564   6.432 -3.0700  0.9293 -1.1737
  144OSM      P15793   4.866   2.791   6.358 -0.3047 -0.2692  0.0096
  144OSM    O1315794   5.006   2.831   6.350 -0.2942  0.5740  0.1611
  144OSM    O1415795   4.780   2.871   6.271  0.4082  0.2173  0.2390
  144OSM    O1115796   4.814   2.796   6.503  0.1347  0.3082 -0.9966
  144OSM    O1215797   4.866   2.641   6.319 -0.2790  0.5914 -0.2893
  144OSM    C1S15798   4.881   2.707   6.597  0.0892  0.0714  0.4631
  144OSM    H1S15799   4.980   2.671   6.561 -1.2519 -2.1913 -1.1263
  144OSM    H1T15800   4.825   2.613   6.610 -0.4853  0.4555  0.8344
  144OSM     NF15801   5.003   2.703   6.813 -0.2244  0.0877  0.8836
  144OSM    HNF15802   4.978   2.633   6.879  0.9429 -0.5422  0.6746
  144OSM    C2S15803   4.905   2.776   6.734 -0.3311 -0.1189  0.6137
  144OSM    H2S15804   4.946   2.876   6.709  1.8474 -0.8003  1.1839
  144OSM    C3S15805   4.767   2.783   6.806  0.2007  0.0788  0.6957
  144OSM    H3S15806   4.744   2.674   6.813  0.9137 -0.1619 -0.4301
  144OSM     O315807   4.660   2.853   6.731 -0.4365  0.0595 -0.4372
  144OSM    HO315808   4.706   2.872   6.649  1.5078  0.9811  0.7759
  144OSM    C4S15809   4.777   2.839   6.940  0.3814 -0.2155 -0.2777
  144OSM    H4S15810   4.807   2.944   6.950 -2.3617  0.4641  2.1341
  144OSM    C5S15811   4.757   2.766   7.052  0.3772 -0.6583 -1.2616
  144OSM    H5S15812   4.729   2.661   7.039 -0.2477 -0.6363 -0.2343
  144OSM    C6S15813   4.771   2.816   7.198  0.3778  0.8317  0.3853
  144OSM    H6S15814   4.669   2.829   7.241 -0.8132 -1.7020 -1.3887
  144OSM    H6T15815   4.803   2.922   7.209  0.2873  0.7553  1.4854
  144OSM    C7S15816   4.851   2.727   7.294  0.1220 -0.1012 -0.1183
  144OSM    H7S15817   4.958   2.758   7.289 -0.0257  0.4619  0.0562
  144OSM    H7T15818   4.854   2.622   7.258  1.5265 -0.0207 -0.2894
  144OSM    C8S15819   4.811   2.726   7.443  0.0665 -0.6934  0.3296
  144OSM    H8S15820   4.705   2.694   7.446  0.0885 -1.2549 -2.3612
  144OSM    H8T15821   4.817   2.834   7.469  1.1870 -0.9171  1.0669
  144OSM    C9S15822   4.899   2.653   7.541  0.2340  0.4681  0.2061
  144OSM    H9S15823   5.010   2.665   7.540  0.3594 -0.6010 -0.9263
  144OSM    H9T15824   4.888   2.544   7.524  0.0143  0.6105 -0.5662
  144OSM   C10S15825   4.859   2.681   7.692 -0.1402 -0.2253  0.8974
  144OSM   H10S15826   4.748   2.676   7.687 -0.1891  1.5560 -1.4326
  144OSM   H10T15827   4.873   2.790   7.711  0.0936 -0.0457 -0.2247
  144OSM   C11S15828   4.931   2.588   7.790  0.1641  0.3238 -0.0451
  144OSM   H11S15829   5.041   2.606   7.788  0.2511 -0.1762  0.0677
  144OSM   H11T15830   4.904   2.488   7.751 -1.7073 -0.0993  2.1518
  144OSM   C12S15831   4.891   2.608   7.934 -0.4434  0.1856 -0.1697
  144OSM   H12S15832   4.782   2.588   7.944 -0.6917  1.2574 -0.5874
  144OSM   H12T15833   4.895   2.715   7.965 -1.5097 -0.2430  1.6412
  144OSM   C13S15834   4.962   2.515   8.022  0.4054 -0.4716 -0.1153
  144OSM   H13S15835   5.072   2.509   8.014  0.3044 -1.6301 -1.0105
  144OSM   H13T15836   4.934   2.414   7.982  1.2207 -0.8767  0.3197
  144OSM   C14S15837   4.937   2.525   8.172 -0.0353 -0.1847 -0.6868
  144OSM   H14S15838   4.834   2.493   8.196 -0.6571  0.3994 -2.4309
  144OSM   H14T15839   4.962   2.627   8.207 -0.1468 -0.5523  0.5043
  144OSM   C15S15840   5.021   2.421   8.250  0.6499 -0.1034 -0.0107
  144OSM   H15S15841   5.123   2.411   8.206  0.1325  2.7077 -2.0948
  144OSM   H15T15842   4.983   2.320   8.226  1.8756 -0.4895 -0.4372
  144OSM   C16S15843   5.007   2.413   8.407  0.0010 -0.4978  0.0863
  144OSM   H16S15844   5.052   2.507   8.445 -1.3838 -0.5488  2.0148
  144OSM   H16T15845   5.057   2.323   8.448 -0.5293 -0.7080  0.2813
  144OSM   C17S15846   4.863   2.407   8.457  0.2959 -0.3316 -0.1889
  144OSM   H17S15847   4.804   2.326   8.407 -3.4835  2.7544 -1.2291
  144OSM   H17T15848   4.805   2.499   8.435  2.7470  1.2580 -0.2989
  144OSM   C18S15849   4.858   2.372   8.605 -0.0519 -0.1930 -0.2015
  144OSM   H18S15850   4.753   2.398   8.631 -0.6024 -1.1875 -1.3018
  144OSM   H18T15851   4.930   2.430   8.666  0.6306 -1.8003  0.5693
  144OSM   H18U15852   4.881   2.264   8.614  1.6153  0.2655  1.6409
  144OSM    C1F15853   5.135   2.713   6.781 -0.2315  0.4352 -0.3431
  144OSM     OF15854   5.173   2.800   6.703 -0.1422  0.1235  0.1704
  144OSM    C2F15855   5.225   2.605   6.829  0.3272  0.7972 -0.7432
  144OSM    H2F15856   5.235   2.529   6.749  3.0163 -0.8293  0.9619
  144OSM    H2G15857   5.184   2.546   6.914  1.2028 -0.4182 -1.1359
  144OSM    C3F15858   5.370   2.651   6.874 -0.3154 -0.9590  0.3987
  144OSM    H3F15859   5.413   2.713   6.793  0.3091 -0.9024  0.7634
  144OSM    H3G15860   5.440   2.565   6.879  1.1383 -0.2392 -3.6853
  144OSM    C4F15861   5.391   2.723   7.008 -0.0226 -0.5747  0.0926
  144OSM    H4F15862   5.351   2.826   6.996 -0.1797 -0.7544 -1.0541
  144OSM    H4G15863   5.500   2.735   7.025  0.0103  0.7634 -0.9021
  144OSM    C5F15864   5.323   2.663   7.130 -0.2675 -0.4456  0.0757
  144OSM    H5F15865   5.363   2.562   7.152 -1.4478 -0.5282  2.0762
  144OSM    H5G15866   5.216   2.641   7.109  0.1671 -0.2363 -2.7350
  144OSM    C6F15867   5.339   2.750   7.254 -0.3511 -0.4224  0.0880
  144OSM    H6F15868   5.291   2.847   7.231  0.1458 -0.7891 -2.8827
  144OSM    H6G15869   5.447   2.759   7.278 -0.4634 -1.0388  0.8884
  144OSM    C7F15870   5.260   2.689   7.377  0.7209 -0.4971 -0.0426
  144OSM    H7F15871   5.299   2.588   7.402  0.9229 -0.7337 -1.2365
  144OSM    H7G15872   5.154   2.669   7.347  1.5704 -2.6829 -1.9052
  144OSM    C8F15873   5.258   2.786   7.498  0.1541 -0.0248 -0.4087
  144OSM    H8F15874   5.200   2.748   7.585  0.0472  0.7457 -0.1423
  144OSM    H8G15875   5.207   2.879   7.465 -0.5175  0.5939  2.1736
  144OSM    C9F15876   5.399   2.800   7.539 -0.2239  0.1065 -0.0112
  144OSM    H9F15877   5.461   2.874   7.486 -0.4049  1.6782  1.8162
  144OSM   C10F15878   5.461   2.733   7.643 -0.5476  0.1121 -0.0885
  144OSM   H10F15879   5.564   2.751   7.677 -0.9829 -0.3572  1.5949
  144OSM   C11F15880   5.396   2.624   7.730 -0.1480  0.3693  0.1419
  144OSM   H11F15881   5.474   2.565   7.782  0.9937  3.0146  1.6494
  144OSM   H11G15882   5.345   2.557   7.659  0.0425  1.1237 -0.7304
  144OSM   C12F15883   5.306   2.692   7.828  0.3129 -0.2530 -0.0870
  144OSM   H12F15884   5.248   2.614   7.882 -2.2890  0.9043 -1.0310
  144OSM   H12G15885   5.225   2.755   7.786  0.3086  0.0173  0.3262
  144OSM   C13F15886   5.374   2.766   7.941  0.0058  0.3303 -1.0036
  144OSM   H13F15887   5.306   2.802   8.021  0.7394 -1.6114  0.5781
  144OSM   H13G15888   5.426   2.858   7.909 -0.3502  1.7199  2.0600
  144OSM   C14F15889   5.473   2.669   8.010  0.1710  0.5662 -0.2211
  144OSM   H14F15890   5.555   2.633   7.944 -0.3894  0.5971 -0.9498
  144OSM   H14G15891   5.422   2.580   8.052  0.3765 -0.3356 -1.8085
  144OSM   C15F15892   5.547   2.743   8.129 -0.6350  0.1277  0.6324
  144OSM   H15F15893   5.471   2.780   8.201  1.0982  1.8512  1.6610
  144OSM   H15G15894   5.597   2.836   8.097  1.3362 -1.1376 -0.1416
  144OSM   C16F15895   5.641   2.641   8.206  0.5291  0.9975 -0.3291
  144OSM   H16F15896   5.714   2.592   8.139 -1.0322 -0.9673 -0.6792
  144OSM   H16G15897   5.577   2.563   8.252  1.1112  0.2724 -0.7429
  144OSM   C17F15898   5.722   2.717   8.314 -0.2164 -0.1028 -0.9463
  144OSM   H17F15899   5.650   2.764   8.385  0.2306  1.0397 -1.2381
  144OSM   H17G15900   5.774   2.799   8.261 -2.3612  1.1715 -1.1796
  144OSM   C18F15901   5.821   2.631   8.387  0.1445 -0.3870 -0.6652
  144OSM   H18F15902   5.869   2.558   8.318  0.5084 -0.7582 -0.0295
  144OSM   H18G15903   5.772   2.579   8.473 -0.1720  3.4409  1.6972
  144OSM   H18H15904   5.905   2.690   8.429 -0.1493 -1.1028  1.0375
  145SAPE     N15905   4.880   5.759  11.009  0.5300 -0.0714 -0.0732
  145SAPE   HN115906   4.884   5.757  11.113  2.5050 -1.1125 -0.1214
  145SAPE   HN215907   4.950   5.685  10.988 -0.6491 -1.5087  0.8307
  145SAPE   HN315908   4.901   5.859  10.990 -1.7326  0.7328  1.2094
  145SAPE   C1215909   4.758   5.720  10.917  0.4269 -0.0156  0.3423
  145SAPE  H12A15910   4.682   5.798  10.938  0.0957 -0.8343  2.3486
  145SAPE  H12B15911   4.718   5.624  10.956 -0.4434  0.4720  0.6832
  145SAPE   C1115912   4.808   5.712  10.769 -0.2141  0.2892 -0.0097
  145SAPE  H11A15913   4.721   5.684  10.705 -1.0492 -0.3311  1.3430
  145SAPE  H11B15914   4.880   5.628  10.765 -0.1576  0.1563  2.2578
  145SAPE     P15915   4.950   5.842  10.584  0.1350  0.4049 -0.1052
  145SAPE   O1315916   4.938   5.975  10.512  0.8018  0.4251 -0.9522
  145SAPE   O1415917   5.078   5.789  10.633 -0.0697  0.0160  0.1252
  145SAPE   O1215918   4.861   5.835  10.718 -0.1169 -1.0038 -0.0341
  145SAPE   O1115919   4.885   5.732  10.488  0.2745 -0.1951 -0.6348
  145SAPE    C115920   4.968   5.657  10.395  0.0125 -0.6435 -0.1396
  145SAPE    HA15921   5.074   5.688  10.391 -0.1352  0.3666  2.4180
  145SAPE    HB15922   4.971   5.552  10.431  1.9426 -0.2629  0.9437
  145SAPE    C215923   4.916   5.665  10.252  0.1459  0.4248  0.4692
  145SAPE    HS15924   4.818   5.612  10.250  0.7748 -0.7688 -1.4265
  145SAPE   O2115925   5.004   5.605  10.156 -0.1477  0.1574 -0.2498
  145SAPE   C2115926   4.954   5.557  10.042 -0.1338 -0.4755  0.1697
  145SAPE   O2215927   4.840   5.528  10.015  0.0540 -0.1728 -0.1371
  145SAPE   C2215928   5.061   5.541   9.929 -0.4378 -0.5146  0.1482
  145SAPE   H2R15929   5.046   5.634   9.869 -0.8812 -1.0540 -0.5936
  145SAPE   H2S15930   5.159   5.544   9.980  0.8312 -1.5752 -2.0928
  145SAPE    C315931   4.907   5.809  10.215  0.1798 -0.9843 -0.7770
  145SAPE    HX15932   5.007   5.859  10.222 -0.3715  0.0190  0.2298
  145SAPE    HY15933   4.849   5.868  10.289 -0.3442  0.3102 -2.1692
  145SAPE   O3115934   4.853   5.826  10.081 -0.0510  0.4569  0.2358
  145SAPE   C3115935   4.721   5.814  10.079  0.5077 -0.5921 -0.4251
  145SAPE   O3215936   4.652   5.785  10.177 -0.6156 -0.2177  0.2734
  145SAPE   C3215937   4.655   5.845   9.940 -0.1673 -0.7610  0.4956
  145SAPE   H2X15938   4.626   5.952   9.938 -1.0690 -0.9730  1.5694
  145SAPE   H2Y15939   4.561   5.787   9.935 -1.0048  0.5570  0.3572
  145SAPE   C2315940   5.039   5.414   9.847 -0.5737 -0.1265  1.1813
  145SAPE   H3R15941   4.949   5.421   9.781  0.6845 -0.4171 -0.6352
  145SAPE   H3S15942   5.026   5.317   9.900  0.5713 -1.2795 -0.5616
  145SAPE   C2415943   5.155   5.391   9.742 -0.1047 -0.0703  0.0081
  145SAPE   H4R15944   5.110   5.304   9.689  0.4443  0.2157 -0.9482
  145SAPE   H4S15945   5.247   5.354   9.791  0.9273  1.5463 -0.6542
  145SAPE   C2515946   5.199   5.493   9.639  0.9750  0.7024  0.5035
  145SAPE   H5R15947   5.279   5.560   9.675  1.7057  0.0975  0.0465
  145SAPE   C2615948   5.133   5.520   9.516 -0.1691  0.4775 -1.0790
  145SAPE   H6R15949   5.160   5.608   9.456 -0.0374  1.2666  0.0954
  145SAPE   C2715950   5.019   5.451   9.454  0.3037 -1.0082 -0.1967
  145SAPE   H7R15951   4.929   5.515   9.463 -0.0656 -1.5281 -0.0901
  145SAPE   H7S15952   4.992   5.357   9.509 -2.6048 -0.0389  0.2124
  145SAPE   C2815953   5.048   5.435   9.304  0.5228  0.4123 -0.4907
  145SAPE   H8R15954   5.124   5.498   9.256  1.5582 -0.6298 -0.2787
  145SAPE   C2915955   4.993   5.340   9.224  0.3196  0.0853  0.0511
  145SAPE   H9R15956   5.011   5.355   9.116  1.2656  1.3225  0.3620
  145SAPE  C21015957   4.894   5.236   9.261  0.7493  0.0385  0.4742
  145SAPE  H10R15958   4.815   5.224   9.183  3.2888  0.6593 -2.3521
  145SAPE  H10S15959   4.851   5.254   9.362  0.1592 -1.0790  0.4381
  145SAPE  C21115960   4.967   5.105   9.273 -0.8661 -0.5747 -0.0096
  145SAPE  H11R15961   5.054   5.110   9.340 -0.1452 -0.3078 -0.9296
  145SAPE  C21215962   4.942   4.991   9.211 -0.0831  0.5881  0.7794
  145SAPE  H12R15963   4.996   4.902   9.247 -1.0931  0.5681  2.3548
  145SAPE  C21315964   4.837   4.976   9.101  0.9709 -0.7892  0.1084
  145SAPE  H13R15965   4.752   5.043   9.126  0.8020 -0.8104 -0.4084
  145SAPE  H13S15966   4.793   4.876   9.115 -2.5170  0.4687 -0.8424
  145SAPE  C21415967   4.879   5.007   8.961 -0.2468 -0.6051 -0.4404
  145SAPE  H14R15968   4.916   5.109   8.943  3.3430 -1.9457 -1.5973
  145SAPE  C21515969   4.876   4.920   8.857 -0.6677 -0.4184 -0.4601
  145SAPE  H15R15970   4.904   4.971   8.764  0.2521  1.1315  0.6142
  145SAPE  C21615971   4.830   4.781   8.852 -0.1137  0.3139  0.4981
  145SAPE  H16R15972   4.759   4.771   8.768  1.2907 -0.8284 -0.6042
  145SAPE  H16S15973   4.774   4.753   8.944 -1.8307  2.7303  0.2517
  145SAPE  C21715974   4.953   4.697   8.841  0.4247  0.2528  0.0096
  145SAPE  H17R15975   4.924   4.592   8.859  0.8148  0.1777  0.2168
  145SAPE  H17S15976   5.034   4.725   8.912 -0.7431 -0.0121  1.4827
  145SAPE  C21815977   5.027   4.705   8.703 -0.1069  0.4691 -0.1672
  145SAPE  H18R15978   5.115   4.637   8.708 -1.2974 -1.1731 -0.8232
  145SAPE  H18S15979   5.056   4.811   8.685 -0.7284  0.7777  0.5838
  145SAPE  C21915980   4.950   4.641   8.590  0.4510  0.6694 -0.2126
  145SAPE  H19R15981   4.851   4.691   8.599  0.9995  1.6865  0.2707
  145SAPE  H19S15982   4.931   4.533   8.606 -1.0451  0.8222 -0.7787
  145SAPE  C22015983   5.019   4.662   8.456  0.9879 -0.0944  0.9433
  145SAPE  H20R15984   5.125   4.627   8.455  0.5227 -1.6140  1.7820
  145SAPE  H20S15985   5.014   4.767   8.421 -0.2684 -0.3943  0.1607
  145SAPE  H20T15986   4.974   4.602   8.374 -1.0382  0.2335  1.7718
  145SAPE   C3315987   4.745   5.814   9.820  0.4788 -0.3363  0.3649
  145SAPE   H3X15988   4.771   5.706   9.808 -0.8972 -0.9026  2.0176
  145SAPE   H3Y15989   4.841   5.869   9.829 -0.2456  1.0197  0.0426
  145SAPE   C3415990   4.684   5.864   9.683  0.3130 -0.3355 -0.3539
  145SAPE   H4X15991   4.641   5.964   9.704  1.4581  0.0313  0.3019
  145SAPE   H4Y15992   4.598   5.797   9.661  0.6888 -0.8986 -0.1127
  145SAPE   C3515993   4.781   5.871   9.572 -0.2409 -0.5866  0.3132
  145SAPE   H5X15994   4.843   5.779   9.567  2.2789  1.0079  0.2132
  145SAPE   H5Y15995   4.849   5.959   9.574  0.4385 -1.1023  0.2291
  145SAPE   C3615996   4.703   5.895   9.435  0.1491  0.2939 -0.5055
  145SAPE   H6X15997   4.636   5.983   9.436  0.2368  0.3546  0.5985
  145SAPE   H6Y15998   4.642   5.809   9.400  0.3770  0.7973 -2.2646
  145SAPE   C3715999   4.797   5.926   9.313  0.0656 -0.2581 -0.1222
  145SAPE   H7X16000   4.862   5.837   9.310 -0.4021 -0.6615  1.0678
  145SAPE   H7Y16001   4.876   6.001   9.336  0.2031 -0.6433  0.7120
  145SAPE   C3816002   4.731   5.940   9.181 -1.0463 -0.2103  0.1640
  145SAPE   H8X16003   4.639   5.880   9.170  0.1178 -1.7887 -1.7854
  145SAPE   H8Y16004   4.811   5.905   9.111  1.7520  1.2085  2.4463
  145SAPE   C3916005   4.706   6.084   9.124 -0.4566  0.5259  0.7790
  145SAPE   H9X16006   4.794   6.151   9.122  0.1235 -0.2119 -1.5367
  145SAPE   H9Y16007   4.631   6.125   9.195 -0.1830 -2.4754  3.0030
  145SAPE  C31016008   4.649   6.068   8.985 -0.4402  0.3202 -0.7240
  145SAPE  H10X16009   4.560   6.001   8.983  0.3347 -0.7405 -0.7145
  145SAPE  H10Y16010   4.722   6.020   8.916  0.7974  2.3928 -0.9561
  145SAPE  C31116011   4.599   6.195   8.918 -0.1756 -0.0821  0.4122
  145SAPE  H11X16012   4.529   6.255   8.980  0.7679  0.3385  1.0906
  145SAPE  H11Y16013   4.542   6.165   8.827 -2.4728  2.7304  0.8020
  145SAPE  C31216014   4.718   6.279   8.863 -0.0569 -0.2940 -0.4226
  145SAPE  H12X16015   4.801   6.295   8.935 -0.8735 -0.4830  0.5902
  145SAPE  H12Y16016   4.681   6.382   8.843  1.4686  0.4203  0.2600
  145SAPE  C31316017   4.772   6.214   8.738  0.1067 -0.4644 -0.0557
  145SAPE  H13X16018   4.689   6.195   8.667  1.7298 -0.1602 -2.1352
  145SAPE  H13Y16019   4.820   6.115   8.756  2.4649  0.4343 -1.0199
  145SAPE  C31416020   4.872   6.302   8.667 -0.7450  0.8584 -0.4385
  145SAPE  H14X16021   4.941   6.336   8.747 -1.9932 -0.3529  1.2412
  145SAPE  H14Y16022   4.825   6.392   8.622 -0.3431  0.6093 -1.3975
  145SAPE  C31516023   4.965   6.229   8.572 -0.3941  0.0780 -0.6320
  145SAPE  H15X16024   4.923   6.205   8.472 -0.2020 -0.7978 -0.5137
  145SAPE  H15Y16025   5.003   6.137   8.621 -0.9848  0.2720  0.1954
  145SAPE  C31616026   5.087   6.316   8.529  0.5113  1.0868  0.2644
  145SAPE  H16X16027   5.141   6.349   8.620  2.0549  0.2662 -0.3142
  145SAPE  H16Y16028   5.047   6.408   8.480 -0.6958  0.4391  0.0111
  145SAPE  C31716029   5.182   6.228   8.437 -0.2129 -0.6005  0.0258
  145SAPE  H17X16030   5.121   6.207   8.347  1.4784  0.7284 -1.4998
  145SAPE  H17Y16031   5.206   6.129   8.480  1.9450  0.4292  1.3441
  145SAPE  C31816032   5.312   6.298   8.393  0.1117  0.1334 -0.5267
  145SAPE  H18X16033   5.299   6.404   8.364  1.3365 -0.4928 -3.7949
  145SAPE  H18Y16034   5.347   6.248   8.300  0.7734  0.5110 -0.4863
  145SAPE  H18Z16035   5.397   6.292   8.464  1.1315  2.5382 -1.4312
  146SAPE     N16036   3.545   3.887  10.755 -0.2389 -0.1194 -0.4104
  146SAPE   HN116037   3.551   3.990  10.741  1.5478 -0.2769 -1.0235
  146SAPE   HN216038   3.638   3.848  10.731  0.2064  0.2524  0.6804
  146SAPE   HN316039   3.478   3.847  10.686 -2.4390 -0.1261  1.5980
  146SAPE   C1216040   3.503   3.829  10.883  0.3204  0.1830  0.3476
  146SAPE  H12A16041   3.459   3.917  10.935 -0.0638 -1.5318  3.1683
  146SAPE  H12B16042   3.591   3.795  10.941 -0.3927 -0.7438  0.9141
  146SAPE   C1116043   3.402   3.723  10.848  0.9014 -0.3182 -0.3554
  146SAPE  H11A16044   3.363   3.692  10.947 -2.1101  4.1195  0.0947
  146SAPE  H11B16045   3.449   3.639  10.791  1.2799 -0.6312  0.4060
  146SAPE     P16046   3.179   3.853  10.837  0.0493 -0.0702 -0.4589
  146SAPE   O1316047   3.113   3.753  10.920  0.7094 -0.2564 -0.4051
  146SAPE   O1416048   3.230   3.973  10.910 -0.0120  0.4216  0.7014
  146SAPE   O1216049   3.296   3.771  10.766  0.7688  0.4354  0.4462
  146SAPE   O1116050   3.073   3.888  10.730  0.3686  0.3536  0.7545
  146SAPE    C116051   3.040   3.796  10.628 -0.5625  0.2489 -0.4950
  146SAPE    HA16052   3.021   3.693  10.666 -2.7533  0.2528 -1.4205
  146SAPE    HB16053   2.941   3.821  10.584 -2.0908 -1.8852  1.4639
  146SAPE    C216054   3.141   3.803  10.508 -0.2090  0.5702 -0.6047
  146SAPE    HS16055   3.233   3.749  10.538 -1.0080 -0.3098  0.2950
  146SAPE   O2116056   3.166   3.939  10.462  0.1216  0.6062 -0.0589
  146SAPE   C2116057   3.295   3.985  10.479  0.9861 -0.5663 -0.4609
  146SAPE   O2216058   3.381   3.924  10.541  0.9836  0.6541 -0.0339
  146SAPE   C2216059   3.314   4.130  10.421 -0.1535  0.2872  0.4175
  146SAPE   H2R16060   3.245   4.201  10.472  0.4270  1.3028 -0.1608
  146SAPE   H2S16061   3.414   4.159  10.461  0.1847 -0.1365 -0.1159
  146SAPE    C316062   3.074   3.720  10.388  0.3635  0.1023 -0.5549
  146SAPE    HX16063   2.969   3.755  10.384 -0.3095 -1.5693  1.2031
  146SAPE    HY16064   3.060   3.620  10.433 -2.2416  0.4610 -0.4197
  146SAPE   O3116065   3.140   3.723  10.263  0.0045  0.0234 -0.0515
  146SAPE   C3116066   3.255   3.669  10.252 -0.1151  0.8108 -0.1303
  146SAPE   O3216067   3.312   3.616  10.345 -0.0267 -0.0472 -0.0529
  146SAPE   C3216068   3.304   3.672  10.108 -0.9456  0.1276 -0.8667
  146SAPE   H2X16069   3.387   3.599  10.097 -0.6858  0.2493  0.1575
  146SAPE   H2Y16070   3.337   3.775  10.084 -0.1629  0.3076  0.7999
  146SAPE   C2316071   3.297   4.134  10.269 -0.0984  0.2304  0.2514
  146SAPE   H3R16072   3.292   4.243  10.244 -0.1241 -0.6973 -4.8668
  146SAPE   H3S16073   3.202   4.090  10.231  1.0401 -0.5288 -1.8924
  146SAPE   C2416074   3.418   4.073  10.200  0.1250  0.2576  0.2056
  146SAPE   H4R16075   3.399   3.964  10.204 -0.8772  0.3733 -0.8091
  146SAPE   H4S16076   3.513   4.094  10.252  0.7729 -1.8092 -0.0440
  146SAPE   C2516077   3.409   4.129  10.057  0.0180 -0.5416  0.5042
  146SAPE   H5R16078   3.317   4.124   9.997  0.2238 -0.8221  0.2076
  146SAPE   C2616079   3.507   4.210  10.001 -0.2351  0.2546  0.3575
  146SAPE   H6R16080   3.502   4.234   9.894  0.2494 -1.8241 -0.1779
  146SAPE   C2716081   3.629   4.264  10.065 -0.5183 -0.9628  0.3780
  146SAPE   H7R16082   3.698   4.301   9.987 -0.8616  0.2421  0.6187
  146SAPE   H7S16083   3.683   4.177  10.108  1.9047  0.0841 -0.3779
  146SAPE   C2816084   3.605   4.382  10.162  0.3831 -0.1458 -0.1773
  146SAPE   H8R16085   3.502   4.391  10.199 -0.3663  1.8373 -2.4378
  146SAPE   C2916086   3.693   4.486  10.177 -0.5225 -0.1721 -0.4691
  146SAPE   H9R16087   3.672   4.562  10.253  0.7361  0.7346 -0.9937
  146SAPE  C21016088   3.836   4.501  10.114  0.6263  0.1122 -0.4843
  146SAPE  H10R16089   3.845   4.611  10.095  1.4480  0.2695  0.6892
  146SAPE  H10S16090   3.840   4.449  10.016 -1.9495 -2.2902  0.5667
  146SAPE  C21116091   3.942   4.475  10.221 -0.3605 -0.1362 -0.3930
  146SAPE  H11R16092   3.921   4.524  10.318 -2.4249  2.7166 -2.1319
  146SAPE  C21216093   4.054   4.402  10.205 -0.7583 -0.7703  0.2533
  146SAPE  H12R16094   4.115   4.365  10.288 -2.3107 -2.5771  0.6608
  146SAPE  C21316095   4.090   4.335  10.072  0.6755 -0.5227 -0.1449
  146SAPE  H13R16096   4.193   4.368  10.046  0.3158  0.7113 -0.0944
  146SAPE  H13S16097   4.039   4.379   9.983  1.9230 -0.8733 -1.0738
  146SAPE  C21416098   4.074   4.185  10.070  0.3016  0.4645  0.0995
  146SAPE  H14R16099   3.986   4.146  10.122 -2.3700  4.0814 -1.2970
  146SAPE  C21516100   4.147   4.102   9.995 -0.0790 -0.2602  1.0673
  146SAPE  H15R16101   4.119   3.996  10.008  0.9186 -0.8763 -1.3112
  146SAPE  C21616102   4.269   4.130   9.905  0.6213 -0.0937 -0.0844
  146SAPE  H16R16103   4.346   4.063   9.950  0.5886  0.3826  0.7146
  146SAPE  H16S16104   4.302   4.235   9.919  2.8727 -0.7590 -0.0400
  146SAPE  C21716105   4.259   4.098   9.757  0.6580 -0.3129  0.6965
  146SAPE  H17R16106   4.231   3.994   9.732 -0.7738  0.0701  0.6305
  146SAPE  H17S16107   4.361   4.120   9.717  0.2694  3.3790  1.3701
  146SAPE  C21816108   4.152   4.190   9.683 -0.3714  0.0941 -0.3356
  146SAPE  H18R16109   4.155   4.293   9.725 -1.1968 -0.5330  1.3486
  146SAPE  H18S16110   4.055   4.148   9.713 -0.9495 -0.2592 -2.5008
  146SAPE  C21916111   4.171   4.189   9.531 -0.3838  0.0579 -0.3465
  146SAPE  H19R16112   4.271   4.214   9.489  0.2974 -0.6937  0.7678
  146SAPE  H19S16113   4.108   4.267   9.484  1.2724 -0.0895 -3.0427
  146SAPE  C22016114   4.134   4.056   9.483 -0.6484  0.7842  0.4056
  146SAPE  H20R16115   4.206   3.980   9.520 -0.5788  0.5374 -0.2244
  146SAPE  H20S16116   4.151   4.043   9.374  0.8035  2.3032  0.4135
  146SAPE  H20T16117   4.030   4.024   9.506 -0.8827 -0.4003 -1.9682
  146SAPE   C3316118   3.200   3.622  10.005  0.3341  0.7379  0.3125
  146SAPE   H3X16119   3.117   3.694   9.984  0.2615  0.6743  0.3827
  146SAPE   H3Y16120   3.162   3.526  10.045 -1.0514  0.4212 -1.5965
  146SAPE   C3416121   3.257   3.577   9.874 -0.1319  0.6165  0.1626
  146SAPE   H4X16122   3.333   3.502   9.905 -1.4708 -0.5630  0.7036
  146SAPE   H4Y16123   3.314   3.655   9.820 -0.1482  0.0781 -0.6440
  146SAPE   C3516124   3.166   3.515   9.769  0.4169  0.5137 -0.5816
  146SAPE   H5X16125   3.075   3.577   9.751 -1.1458 -1.2801  0.7874
  146SAPE   H5Y16126   3.125   3.420   9.810 -0.5187  1.3388  0.4560
  146SAPE   C3616127   3.239   3.482   9.631 -0.4209 -0.2044 -0.1844
  146SAPE   H6X16128   3.177   3.405   9.579  1.0446 -0.4463 -1.6471
  146SAPE   H6Y16129   3.335   3.432   9.654 -0.7716 -0.6641  0.3173
  146SAPE   C3716130   3.257   3.595   9.529 -0.1973 -0.1724 -0.1990
  146SAPE   H7X16131   3.339   3.661   9.565  0.8682 -1.3392 -0.3938
  146SAPE   H7Y16132   3.160   3.646   9.512 -0.1571  0.4210  1.2480
  146SAPE   C3816133   3.299   3.536   9.391 -0.1101  0.2905 -0.0977
  146SAPE   H8X16134   3.303   3.620   9.317 -0.6920 -0.0193 -0.4926
  146SAPE   H8Y16135   3.212   3.477   9.355  1.2730 -1.9168  0.0091
  146SAPE   C3916136   3.426   3.446   9.389  0.5063 -0.0574 -0.4703
  146SAPE   H9X16137   3.406   3.345   9.432  0.2436 -0.5060 -1.6062
  146SAPE   H9Y16138   3.508   3.494   9.446 -0.5781  1.3038  0.0048
  146SAPE  C31016139   3.466   3.433   9.236  0.0193  0.1218  0.2748
  146SAPE  H10X16140   3.550   3.360   9.242 -0.7542 -0.8131 -0.0471
  146SAPE  H10Y16141   3.498   3.535   9.205  0.2891  0.2801  1.0366
  146SAPE  C31116142   3.357   3.397   9.133  0.5996 -0.1776 -0.0128
  146SAPE  H11X16143   3.287   3.480   9.110  0.0277 -0.6815 -0.1195
  146SAPE  H11Y16144   3.301   3.316   9.185  1.0742 -0.2207  0.4354
  146SAPE  C31216145   3.402   3.324   9.011 -0.1033  1.1820  0.1201
  146SAPE  H12X16146   3.318   3.282   8.953  0.0960  1.8057 -0.6388
  146SAPE  H12Y16147   3.460   3.235   9.042  0.9288  1.6322 -0.4452
  146SAPE  C31316148   3.500   3.404   8.926  0.1877 -0.8332  0.2746
  146SAPE  H13X16149   3.586   3.419   8.994 -1.0227 -1.8428  2.0996
  146SAPE  H13Y16150   3.447   3.493   8.886  3.3031  1.7647  1.4397
  146SAPE  C31416151   3.548   3.309   8.814 -0.0244 -0.1376  0.0603
  146SAPE  H14X16152   3.455   3.257   8.782 -0.8241  0.6671  1.0446
  146SAPE  H14Y16153   3.616   3.232   8.855  0.9478  1.1660  0.9832
  146SAPE  C31516154   3.602   3.373   8.685  0.2032  0.4651 -0.7816
  146SAPE  H15X16155   3.534   3.458   8.660 -0.8130  0.7461  2.4275
  146SAPE  H15Y16156   3.599   3.293   8.608  0.5965 -0.3631  0.0469
  146SAPE  C31616157   3.745   3.412   8.712 -0.2890  0.1794  0.2686
  146SAPE  H16X16158   3.808   3.321   8.717 -0.1310  0.3511  1.7478
  146SAPE  H16Y16159   3.748   3.461   8.811  1.8452  1.9340 -0.5621
  146SAPE  C31716160   3.808   3.498   8.597  0.0774  0.5562 -0.0802
  146SAPE  H17X16161   3.775   3.453   8.501 -2.0567  1.2538  0.2725
  146SAPE  H17Y16162   3.917   3.475   8.593 -0.1003 -0.4142  0.3300
  146SAPE  C31816163   3.786   3.647   8.611 -0.8410 -0.3477 -0.0649
  146SAPE  H18X16164   3.839   3.695   8.526 -0.8086  0.2467  0.2845
  146SAPE  H18Y16165   3.830   3.684   8.705  1.9208  2.4628 -2.2545
  146SAPE  H18Z16166   3.679   3.677   8.602 -0.9528 -0.3366  1.1396
  147SAPE     N16167   4.067   1.619  10.942  0.0102 -0.5108  0.0765
  147SAPE   HN116168   4.009   1.672  10.874  0.8530 -0.5776 -0.7157
  147SAPE   HN216169   4.002   1.566  11.003  1.3398 -1.1603  0.9688
  147SAPE   HN316170   4.119   1.685  11.004  0.3949 -0.9208  0.1939
  147SAPE   C1216171   4.171   1.539  10.862  0.4979  0.0697  0.7316
  147SAPE  H12A16172   4.265   1.597  10.849  1.4693 -1.1558  1.9955
  147SAPE  H12B16173   4.122   1.521  10.764 -1.3662  0.8074  1.4800
  147SAPE   C1116174   4.203   1.405  10.933 -0.0738 -0.7568  0.0606
  147SAPE  H11A16175   4.279   1.420  11.013  0.5190 -1.7097 -0.3094
  147SAPE  H11B16176   4.252   1.335  10.862 -0.3277  0.5393 -1.4242
  147SAPE     P16177   4.032   1.206  10.973  0.3208  0.1920 -0.1659
  147SAPE   O1316178   4.068   1.125  11.090  0.0975  0.4321  0.3660
  147SAPE   O1416179   3.888   1.218  10.952  0.3818 -0.4565 -0.0605
  147SAPE   O1216180   4.081   1.353  10.987  0.2768  0.0972  0.4282
  147SAPE   O1116181   4.105   1.149  10.846 -0.0178  0.6193  0.0605
  147SAPE    C116182   4.042   1.052  10.766 -0.0155 -0.5473 -0.3307
  147SAPE    HA16183   4.058   0.957  10.823  1.5267  0.8673  1.7310
  147SAPE    HB16184   3.936   1.076  10.741 -0.1009 -1.2388 -0.6761
  147SAPE    C216185   4.116   1.029  10.629  0.0203  0.1697 -0.1313
  147SAPE    HS16186   4.222   0.999  10.649 -0.0765  1.2676  2.3657
  147SAPE   O2116187   4.098   1.150  10.547 -0.9633 -0.5638 -0.3264
  147SAPE   C2116188   4.208   1.217  10.521 -0.4586  0.5535 -0.3390
  147SAPE   O2216189   4.317   1.192  10.568  0.1038  0.2102  0.0191
  147SAPE   C2216190   4.180   1.333  10.426  0.5337  0.1250  0.2782
  147SAPE   H2R16191   4.163   1.288  10.326  0.4155 -0.6028  0.6160
  147SAPE   H2S16192   4.093   1.392  10.461 -0.2927 -0.1562 -1.2304
  147SAPE    C316193   4.050   0.906  10.557 -0.0155  1.1054  0.3331
  147SAPE    HX16194   3.941   0.922  10.544  0.0543  0.4096 -1.3441
  147SAPE    HY16195   4.071   0.811  10.610 -2.7227  0.9270  1.2653
  147SAPE   O3116196   4.114   0.896  10.425  0.1540 -0.2847 -0.3867
  147SAPE   C3116197   4.042   0.819  10.340  0.8105  1.2062  0.6223
  147SAPE   O3216198   3.940   0.759  10.362  1.1202 -0.0893  0.1835
  147SAPE   C3216199   4.113   0.825  10.204 -0.0155  0.0312 -0.5794
  147SAPE   H2X16200   4.223   0.822  10.224 -0.1342  1.7241  0.4899
  147SAPE   H2Y16201   4.096   0.925  10.159 -1.1828 -0.0721 -0.3984
  147SAPE   C2316202   4.295   1.442  10.433  0.4579  0.5538  0.1593
  147SAPE   H3R16203   4.388   1.388  10.404 -0.1736  0.5055 -1.9750
  147SAPE   H3S16204   4.304   1.484  10.535  1.5325  1.0063 -0.1076
  147SAPE   C2416205   4.294   1.551  10.334  0.2245  0.5218  0.1175
  147SAPE   H4R16206   4.386   1.612  10.333  3.3358 -3.6797  0.2759
  147SAPE   H4S16207   4.220   1.627  10.366  1.6688  1.8480  0.4056
  147SAPE   C2516208   4.257   1.504  10.193 -0.1940 -0.1165 -0.5354
  147SAPE   H5R16209   4.150   1.491  10.170 -0.1022 -2.0159 -0.0592
  147SAPE   C2616210   4.352   1.468  10.094  0.1112  0.0831  0.2530
  147SAPE   H6R16211   4.305   1.421  10.006 -0.2171 -2.4146  1.6664
  147SAPE   C2716212   4.501   1.487  10.098  0.0490  0.2960  0.7674
  147SAPE   H7R16213   4.535   1.412  10.172  0.2976  0.3833  0.7420
  147SAPE   H7S16214   4.527   1.590  10.129  0.4529  0.2229  0.6726
  147SAPE   C2816215   4.581   1.460   9.966  0.3287  0.4197  0.9708
  147SAPE   H8R16216   4.677   1.408   9.979 -0.4803 -1.0574  1.1494
  147SAPE   C2916217   4.540   1.504   9.846 -0.1113  0.0101 -0.2621
  147SAPE   H9R16218   4.606   1.497   9.759  0.1103 -0.5136 -0.0561
  147SAPE  C21016219   4.416   1.585   9.805 -0.4676  0.0462  0.0144
  147SAPE  H10R16220   4.456   1.675   9.753 -1.5537  1.7130  1.9142
  147SAPE  H10S16221   4.353   1.620   9.890 -2.3969  0.3203 -1.4496
  147SAPE  C21116222   4.322   1.503   9.719  0.0265  0.9360  0.0970
  147SAPE  H11R16223   4.274   1.411   9.753  0.0175  0.6652 -0.6358
  147SAPE  C21216224   4.284   1.534   9.595 -0.2810 -0.0346  0.8334
  147SAPE  H12R16225   4.226   1.459   9.539  0.7347  0.9691 -1.7404
  147SAPE  C21316226   4.319   1.662   9.518 -0.2917 -0.5867  0.0942
  147SAPE  H13R16227   4.427   1.682   9.531 -0.4445 -0.7218  1.8184
  147SAPE  H13S16228   4.273   1.741   9.582  0.8919 -0.5187  0.8913
  147SAPE  C21416229   4.274   1.665   9.378  0.8377  0.0972  1.2150
  147SAPE  H14R16230   4.189   1.600   9.352 -0.1983  1.5763  0.7793
  147SAPE  C21516231   4.322   1.738   9.279  0.1996  0.1407  0.1068
  147SAPE  H15R16232   4.284   1.734   9.176 -1.1937  2.8535  0.4395
  147SAPE  C21616233   4.447   1.824   9.291  0.6805 -0.2794  0.1063
  147SAPE  H16R16234   4.485   1.824   9.395 -1.7662 -3.0791  1.1214
  147SAPE  H16S16235   4.433   1.929   9.255 -2.2214 -0.5907  0.1587
  147SAPE  C21716236   4.555   1.775   9.196  0.4838 -0.5457 -0.5950
  147SAPE  H17R16237   4.520   1.731   9.100  1.1469  0.0399 -1.1256
  147SAPE  H17S16238   4.609   1.689   9.240 -0.6501  0.5988  3.3782
  147SAPE  C21816239   4.670   1.873   9.173 -0.6466 -0.0422  0.4521
  147SAPE  H18R16240   4.743   1.818   9.109 -1.1790 -1.9575  1.4348
  147SAPE  H18S16241   4.718   1.893   9.271  2.8153 -0.7729 -0.9453
  147SAPE  C21916242   4.644   2.009   9.107 -0.5700 -0.1369 -0.4088
  147SAPE  H19R16243   4.612   2.083   9.183  0.3127  0.5982 -0.7385
  147SAPE  H19S16244   4.550   1.987   9.051 -1.5285  1.3725  0.5265
  147SAPE  C22016245   4.742   2.062   8.998  0.2603 -0.1163 -0.5777
  147SAPE  H20R16246   4.835   2.083   9.055 -0.6042 -1.8243  1.5941
  147SAPE  H20S16247   4.716   2.158   8.949  0.4213 -1.7890 -4.3317
  147SAPE  H20T16248   4.759   1.992   8.914  0.6652  0.5745 -1.0794
  147SAPE   C3316249   4.047   0.726  10.108 -0.3154  0.0560  0.6366
  147SAPE   H3X16250   3.957   0.770  10.060  0.0064 -1.3516 -1.3971
  147SAPE   H3Y16251   4.014   0.636  10.165  0.3172 -0.3737  0.3311
  147SAPE   C3416252   4.133   0.671   9.989  0.1754 -0.4964  0.1892
  147SAPE   H4X16253   4.075   0.594   9.934  0.1677  0.8938 -1.8273
  147SAPE   H4Y16254   4.219   0.620  10.038 -0.3668 -1.2222  0.4113
  147SAPE   C3516255   4.196   0.761   9.889 -0.9528 -0.2473 -0.2622
  147SAPE   H5X16256   4.274   0.823   9.939 -1.7267 -0.2841  1.0251
  147SAPE   H5Y16257   4.123   0.824   9.833 -0.2897  1.6632  0.9250
  147SAPE   C3616258   4.292   0.691   9.790  0.4508  0.5860  0.1457
  147SAPE   H6X16259   4.385   0.652   9.837 -0.1440 -0.0460  0.8189
  147SAPE   H6Y16260   4.327   0.767   9.717  0.5798 -0.4856 -0.9389
  147SAPE   C3716261   4.219   0.588   9.703  0.4680  0.0995 -0.3631
  147SAPE   H7X16262   4.140   0.632   9.639 -0.3487  0.2320  0.7039
  147SAPE   H7Y16263   4.156   0.515   9.759 -1.1918  0.6157 -1.4722
  147SAPE   C3816264   4.310   0.499   9.609  0.4572  0.2720  0.0515
  147SAPE   H8X16265   4.399   0.556   9.576  0.0292 -0.5899 -3.0066
  147SAPE   H8Y16266   4.251   0.476   9.517 -0.4551  0.0831  0.6746
  147SAPE   C3916267   4.356   0.364   9.671 -0.1595 -0.5598  0.1357
  147SAPE   H9X16268   4.274   0.289   9.670 -0.3286 -0.3680 -0.5123
  147SAPE   H9Y16269   4.385   0.386   9.776 -4.7877  0.3918  1.4317
  147SAPE  C31016270   4.470   0.307   9.589  0.1104  0.0069  0.2799
  147SAPE  H10X16271   4.534   0.230   9.637 -0.6088 -1.5536 -1.1861
  147SAPE  H10Y16272   4.545   0.390   9.581  1.4167 -1.1590  0.0880
  147SAPE  C31116273   4.439   0.278   9.439  0.1665  0.4259  0.3284
  147SAPE  H11X16274   4.530   0.227   9.401  0.1540  0.3160  0.4436
  147SAPE  H11Y16275   4.406   0.358   9.370  0.5077 -1.1751 -1.8017
  147SAPE  C31216276   4.333   0.163   9.425 -0.5635  0.2920  0.3180
  147SAPE  H12X16277   4.306   0.135   9.321  0.4667 -1.5050  0.4806
  147SAPE  H12Y16278   4.240   0.183   9.483 -1.2571 -0.5172 -0.4913
  147SAPE  C31316279   4.390   0.027   9.466  0.8040  0.5781 -0.5206
  147SAPE  H13X16280   4.302  -0.038   9.488  1.5271 -0.7805 -1.4804
  147SAPE  H13Y16281   4.442   0.028   9.564  1.2321 -1.4708 -0.6697
  147SAPE  C31416282   4.475  -0.037   9.363  0.2828 -0.1194 -0.8534
  147SAPE  H14X16283   4.553   0.019   9.307 -0.5776 -0.3968 -2.3884
  147SAPE  H14Y16284   4.418  -0.053   9.269  1.7672 -2.0066 -1.5050
  147SAPE  C31516285   4.526  -0.169   9.412 -0.6128  0.1891  0.4240
  147SAPE  H15X16286   4.438  -0.232   9.435 -0.5582  0.5196  1.6214
  147SAPE  H15Y16287   4.581  -0.151   9.507 -1.3122  0.7473  0.7323
  147SAPE  C31616288   4.606  -0.246   9.303  0.0863  0.5028  0.2398
  147SAPE  H16X16289   4.533  -0.268   9.222  2.2671  0.5336 -1.8322
  147SAPE  H16Y16290   4.644  -0.339   9.350 -1.0023  0.7476  1.6960
  147SAPE  C31716291   4.727  -0.171   9.249  0.3526 -0.6156 -0.7590
  147SAPE  H17X16292   4.760  -0.097   9.325  0.9157 -0.1460 -1.4488
  147SAPE  H17Y16293   4.696  -0.106   9.164 -2.4383 -1.4982 -0.5271
  147SAPE  C31816294   4.848  -0.256   9.218  0.4211  0.7865 -0.1911
  147SAPE  H18X16295   4.920  -0.200   9.156 -0.0917  1.8053  0.1199
  147SAPE  H18Y16296   4.832  -0.348   9.158  0.1256  0.6354  0.1092
  147SAPE  H18Z16297   4.897  -0.292   9.312  2.7102 -0.5593 -1.7974
  148SAPE     N16298   6.161   4.500  10.635  0.1578  0.7716 -0.0821
  148SAPE   HN116299   6.108   4.414  10.612  2.3833 -1.0543  1.1638
  148SAPE   HN216300   6.258   4.464  10.642 -0.7901 -1.8575  0.3915
  148SAPE   HN316301   6.129   4.552  10.720 -5.5389  1.0629 -2.0050
  148SAPE   C1216302   6.150   4.591  10.516  0.2141 -0.0642 -0.6000
  148SAPE  H12A16303   6.042   4.614  10.504 -0.0742 -1.9210 -2.0802
  148SAPE  H12B16304   6.176   4.543  10.419 -0.7634  0.0659 -0.9426
  148SAPE   C1116305   6.231   4.718  10.535  0.0252 -0.5936  0.1925
  148SAPE  H11A16306   6.207   4.781  10.446  0.1773 -0.8886 -0.0589
  148SAPE  H11B16307   6.337   4.686  10.524  0.1622  0.1297 -0.7228
  148SAPE     P16308   6.316   4.838  10.755  0.3635 -0.0228 -0.2566
  148SAPE   O1316309   6.257   4.901  10.874 -0.0063 -0.7638  0.2615
  148SAPE   O1416310   6.400   4.723  10.788 -0.1073 -0.8334 -0.3328
  148SAPE   O1216311   6.199   4.797  10.650 -0.4017  0.2987 -0.4128
  148SAPE   O1116312   6.394   4.951  10.678  0.5594 -0.5429  0.3789
  148SAPE    C116313   6.329   5.038  10.580 -0.1733 -0.5700 -1.2035
  148SAPE    HA16314   6.266   4.970  10.519  1.3294 -1.7967 -1.4379
  148SAPE    HB16315   6.272   5.105  10.648 -1.6518 -2.5735 -0.3466
  148SAPE    C216316   6.432   5.100  10.475  0.6755 -0.1939  1.0283
  148SAPE    HS16317   6.492   5.176  10.531 -0.3892  0.4889  1.2684
  148SAPE   O2116318   6.360   5.169  10.369  0.1016  0.2713  0.1296
  148SAPE   C2116319   6.293   5.280  10.410  0.4321  0.0852 -0.2082
  148SAPE   O2216320   6.313   5.332  10.518  0.1570 -0.7345 -0.4162
  148SAPE   C2216321   6.189   5.316  10.309  0.4437 -0.1365  0.0763
  148SAPE   H2R16322   6.232   5.401  10.253 -1.1956  0.3190 -0.5522
  148SAPE   H2S16323   6.173   5.228  10.242  0.8675  0.4244 -0.7839
  148SAPE    C316324   6.524   4.989  10.417  0.0650 -0.2939 -0.4995
  148SAPE    HX16325   6.459   4.907  10.382  0.2378 -0.3002 -0.8060
  148SAPE    HY16326   6.584   4.947  10.501  1.8482 -1.1430 -2.1304
  148SAPE   O3116327   6.616   5.030  10.312 -0.0736 -0.2497  0.5471
  148SAPE   C3116328   6.716   5.097  10.361 -0.6687 -0.4364 -0.1246
  148SAPE   O3216329   6.742   5.123  10.479  0.1413  0.0208 -0.4574
  148SAPE   C3216330   6.808   5.138  10.243  0.2975  0.4942 -0.2551
  148SAPE   H2X16331   6.821   5.051  10.176 -0.1938  0.8294 -0.7932
  148SAPE   H2Y16332   6.910   5.169  10.274  0.3088  0.4444 -0.2421
  148SAPE   C2316333   6.044   5.373  10.366 -0.4411 -0.2854  0.3125
  148SAPE   H3R16334   6.067   5.429  10.459  0.3139  0.7110 -0.4483
  148SAPE   H3S16335   5.981   5.289  10.402  0.1514  0.3542  3.0317
  148SAPE   C2416336   5.977   5.460  10.263  0.0363  0.4372  0.0890
  148SAPE   H4R16337   6.049   5.539  10.231  0.2474 -0.1254 -0.9098
  148SAPE   H4S16338   5.889   5.513  10.304  0.1462  0.6323  0.0754
  148SAPE   C2516339   5.931   5.376  10.143 -0.3867  0.6283  0.0837
  148SAPE   H5R16340   5.888   5.280  10.176  1.2882  0.4932  2.0832
  148SAPE   C2616341   5.932   5.407  10.015  0.5584 -0.0383  0.3415
  148SAPE   H6R16342   5.893   5.340   9.937 -1.0028  1.2578 -0.0400
  148SAPE   C2716343   5.970   5.546   9.961 -0.6638 -0.2651 -0.0629
  148SAPE   H7R16344   5.958   5.629  10.033  0.2226 -0.9023  0.8533
  148SAPE   H7S16345   5.900   5.584   9.885  0.3927 -0.1597 -1.0157
  148SAPE   C2816346   6.118   5.552   9.918  0.4618 -0.8916 -0.1797
  148SAPE   H8R16347   6.188   5.586   9.996  2.3134 -2.8425 -0.8972
  148SAPE   C2916348   6.164   5.522   9.795 -0.4788  0.4928  0.3230
  148SAPE   H9R16349   6.273   5.530   9.778  0.4119 -2.3043  3.6220
  148SAPE  C21016350   6.078   5.473   9.681 -0.4565 -0.1264 -0.2720
  148SAPE  H10R16351   6.025   5.563   9.642  0.9844  0.4578 -0.9451
  148SAPE  H10S16352   5.997   5.410   9.723 -0.6599  2.4423  3.8010
  148SAPE  C21116353   6.152   5.410   9.564 -0.2581  0.4330 -0.1848
  148SAPE  H11R16354   6.177   5.303   9.574 -2.7250 -0.4837 -2.6587
  148SAPE  C21216355   6.192   5.460   9.443  0.3772  0.1595 -0.3320
  148SAPE  H12R16356   6.240   5.391   9.372  0.9175 -1.3367  1.4080
  148SAPE  C21316357   6.172   5.603   9.402  0.0997 -0.4959  0.0685
  148SAPE  H13R16358   6.147   5.653   9.498 -1.0426  0.2175 -0.5875
  148SAPE  H13S16359   6.080   5.613   9.341  0.9654 -0.4748 -1.2610
  148SAPE  C21416360   6.295   5.668   9.338  0.5658  0.4381 -0.1497
  148SAPE  H14R16361   6.366   5.726   9.400 -0.2052  0.4491  0.7411
  148SAPE  C21516362   6.324   5.662   9.204  0.4892 -0.0727 -0.2599
  148SAPE  H15R16363   6.419   5.703   9.167 -0.1164  1.7783  0.1698
  148SAPE  C21616364   6.235   5.599   9.097 -0.8539  0.4908  0.0050
  148SAPE  H16R16365   6.184   5.513   9.145  0.3116  0.7387  1.7872
  148SAPE  H16S16366   6.295   5.545   9.021 -0.7747  0.0377  0.3838
  148SAPE  C21716367   6.149   5.703   9.022  0.3697 -0.1884 -0.5127
  148SAPE  H17R16368   6.109   5.770   9.102  0.3986 -1.5509  0.6848
  148SAPE  H17S16369   6.058   5.653   8.983  0.1222  0.1158 -0.3314
  148SAPE  C21816370   6.218   5.766   8.902 -0.2085 -0.4308 -0.0800
  148SAPE  H18R16371   6.257   5.691   8.830  2.0496 -0.7194  1.3190
  148SAPE  H18S16372   6.309   5.817   8.943 -0.1221 -1.6445  1.3170
  148SAPE  C21916373   6.128   5.871   8.831 -0.3558 -0.2331  0.4284
  148SAPE  H19R16374   6.115   5.958   8.899 -0.0094  0.8332 -0.8264
  148SAPE  H19S16375   6.030   5.820   8.816 -0.2708 -0.2388 -0.1370
  148SAPE  C22016376   6.186   5.929   8.703 -0.3528 -0.0727  0.4089
  148SAPE  H20R16377   6.126   6.017   8.673 -0.5228 -0.9505 -2.0464
  148SAPE  H20S16378   6.193   5.853   8.622 -0.6012  0.5473 -0.2046
  148SAPE  H20T16379   6.290   5.969   8.710 -0.5644  1.1759 -2.4249
  148SAPE   C3316380   6.738   5.249  10.159 -0.4441 -0.3347 -0.3775
  148SAPE   H3X16381   6.749   5.347  10.210 -1.8042 -0.2398 -0.2187
  148SAPE   H3Y16382   6.629   5.231  10.149 -0.4102 -0.2882 -0.8417
  148SAPE   C3416383   6.782   5.261  10.011 -0.5032 -0.4690 -0.2720
  148SAPE   H4X16384   6.781   5.160   9.966  0.2723 -1.8344  2.5289
  148SAPE   H4Y16385   6.887   5.300  10.007 -0.7542  0.1825 -0.7272
  148SAPE   C3516386   6.695   5.355   9.932 -0.2751 -0.3276 -0.2712
  148SAPE   H5X16387   6.690   5.457   9.975  1.5201  0.3619 -1.5781
  148SAPE   H5Y16388   6.590   5.320   9.931 -1.2685  2.3339  1.1968
  148SAPE   C3616389   6.736   5.386   9.790  0.7178  0.1683  0.0121
  148SAPE   H6X16390   6.738   5.289   9.736 -0.4677 -0.9416  1.8216
  148SAPE   H6Y16391   6.836   5.433   9.792  0.0788  1.8623 -2.6206
  148SAPE   C3716392   6.625   5.463   9.718 -0.2766  0.5324 -0.1447
  148SAPE   H7X16393   6.605   5.557   9.773 -1.8843  0.0552  0.1345
  148SAPE   H7Y16394   6.531   5.404   9.721  0.5484 -0.7909  0.5763
  148SAPE   C3816395   6.650   5.498   9.568  0.1201 -0.3681  0.0820
  148SAPE   H8X16396   6.688   5.597   9.536  0.9506 -1.6476 -3.2635
  148SAPE   H8Y16397   6.555   5.489   9.512 -0.1062 -2.6120  0.7112
  148SAPE   C3916398   6.749   5.410   9.480 -0.0788 -0.0100 -0.3562
  148SAPE   H9X16399   6.720   5.303   9.482 -0.2977  0.0485  1.9078
  148SAPE   H9Y16400   6.839   5.405   9.546 -0.3517  3.2463  0.4326
  148SAPE  C31016401   6.783   5.464   9.340  0.5060  0.2599  0.8729
  148SAPE  H10X16402   6.878   5.418   9.307  0.2127 -0.4798  1.0427
  148SAPE  H10Y16403   6.792   5.575   9.340 -1.4790  0.4639  0.6712
  148SAPE  C31116404   6.662   5.429   9.242  0.1107 -0.0642 -0.3392
  148SAPE  H11X16405   6.566   5.469   9.282  1.2718  1.1494  1.3713
  148SAPE  H11Y16406   6.661   5.318   9.242  1.0458 -0.0808  0.1286
  148SAPE  C31216407   6.679   5.498   9.109 -0.4031 -0.1668  0.2452
  148SAPE  H12X16408   6.651   5.604   9.125 -1.2141 -0.3204 -0.1108
  148SAPE  H12Y16409   6.607   5.446   9.043 -0.5408 -0.2286  0.4410
  148SAPE  C31316410   6.812   5.497   9.043  0.1389  0.1915  0.1083
  148SAPE  H13X16411   6.891   5.512   9.119 -0.8052 -0.2535  1.2178
  148SAPE  H13Y16412   6.822   5.581   8.971  2.8993 -1.1027 -1.1803
  148SAPE  C31416413   6.840   5.365   8.965  0.2729 -0.9401  0.0365
  148SAPE  H14X16414   6.790   5.276   9.009  2.4975 -1.5952  1.4096
  148SAPE  H14Y16415   6.948   5.339   8.976  0.1873 -0.7035  1.7827
  148SAPE  C31516416   6.797   5.372   8.816  0.2887 -0.1562  0.2485
  148SAPE  H15X16417   6.867   5.447   8.773  1.7022 -0.8810  1.2024
  148SAPE  H15Y16418   6.688   5.392   8.804  0.1324 -0.6984  0.6816
  148SAPE  C31616419   6.824   5.240   8.741 -0.2022  0.4136  0.0654
  148SAPE  H16X16420   6.782   5.154   8.798 -0.5404  0.6422  0.1661
  148SAPE  H16Y16421   6.934   5.228   8.743  0.1539  3.2467  1.3879
  148SAPE  C31716422   6.766   5.223   8.603 -0.1670  0.7173  0.3758
  148SAPE  H17X16423   6.658   5.196   8.610  0.1113 -2.6525 -4.0383
  148SAPE  H17Y16424   6.821   5.133   8.569 -1.4491 -0.5590  1.5389
  148SAPE  C31816425   6.774   5.335   8.517 -0.3720 -0.2284  0.2254
  148SAPE  H18X16426   6.715   5.331   8.424 -0.6036  2.1558  0.2078
  148SAPE  H18Y16427   6.879   5.364   8.495 -0.6798  0.9784  0.2903
  148SAPE  H18Z16428   6.736   5.429   8.561  0.1409 -0.3868  1.0390
  149SAPE     N16429   1.753   5.259  11.372 -0.3329  0.7113 -0.3116
  149SAPE   HN116430   1.749   5.233  11.271 -0.8763  2.0346 -0.6432
  149SAPE   HN216431   1.848   5.270  11.412  0.8102  0.4801 -2.8160
  149SAPE   HN316432   1.701   5.178  11.414 -0.7765  0.6656 -0.9373
  149SAPE   C1216433   1.671   5.383  11.370  0.5280  0.7799  0.0057
  149SAPE  H12A16434   1.656   5.425  11.471 -0.4482 -1.3987  0.8348
  149SAPE  H12B16435   1.574   5.352  11.325 -0.6151 -0.7351  3.1740
  149SAPE   C1116436   1.731   5.478  11.271  1.3737 -0.0838  0.1617
  149SAPE  H11A16437   1.821   5.526  11.315  0.0831  2.5625  0.1174
  149SAPE  H11B16438   1.658   5.561  11.258  0.8774 -0.3405  1.1728
  149SAPE     P16439   1.836   5.478  11.031  0.3338 -0.2792 -0.2470
  149SAPE   O1316440   1.797   5.623  11.014 -0.3388  0.0892  0.0353
  149SAPE   O1416441   1.981   5.452  11.066 -0.1255 -0.0654  0.0447
  149SAPE   O1216442   1.747   5.414  11.144 -0.1159 -0.0662  0.0898
  149SAPE   O1116443   1.798   5.396  10.899 -0.3829 -0.3025 -0.0797
  149SAPE    C116444   1.883   5.296  10.852 -0.2658  1.0008  0.2668
  149SAPE    HA16445   1.928   5.240  10.937  0.0059  1.6848  0.5822
  149SAPE    HB16446   1.826   5.222  10.792 -0.5864  2.2576 -1.0215
  149SAPE    C216447   2.004   5.346  10.760  0.0694 -0.5008 -0.3170
  149SAPE    HS16448   2.060   5.413  10.827 -1.0907  2.1009 -1.8061
  149SAPE   O2116449   1.955   5.420  10.653  0.1120 -0.7076  0.0991
  149SAPE   C2116450   2.038   5.499  10.592  0.2374  0.8392  1.1341
  149SAPE   O2216451   2.152   5.523  10.635 -0.2093 -0.6628  0.1948
  149SAPE   C2216452   1.970   5.560  10.470  0.2821 -0.4010 -0.2887
  149SAPE   H2R16453   1.882   5.496  10.448 -0.2429 -0.2429  1.2754
  149SAPE   H2S16454   1.933   5.661  10.498 -1.9108 -0.8537 -1.3194
  149SAPE    C316455   2.102   5.235  10.725 -0.4688  0.0139  0.0169
  149SAPE    HX16456   2.119   5.182  10.821 -0.9876  1.3179  0.8457
  149SAPE    HY16457   2.200   5.275  10.690 -0.8092  0.0731 -0.9025
  149SAPE   O3116458   2.044   5.136  10.640  0.4460 -0.1981 -1.1040
  149SAPE   C3116459   2.068   5.147  10.507 -0.1676 -0.1381 -0.7031
  149SAPE   O3216460   2.147   5.224  10.457  0.2074 -0.0058  0.4733
  149SAPE   C3216461   1.954   5.081  10.432 -0.0687  0.5452 -0.4325
  149SAPE   H2X16462   1.860   5.138  10.447 -1.1767 -0.7073 -2.2061
  149SAPE   H2Y16463   1.939   4.980  10.475  1.3981  0.2296 -0.6045
  149SAPE   C2316464   2.066   5.567  10.349 -0.4180 -0.1945 -0.5036
  149SAPE   H3R16465   2.142   5.487  10.360  1.1659  1.0353 -1.8467
  149SAPE   H3S16466   2.126   5.659  10.366  0.1304 -0.6695  0.1583
  149SAPE   C2416467   1.995   5.577  10.212 -0.3759 -0.6182 -0.0146
  149SAPE   H4R16468   1.925   5.491  10.200  0.3998 -1.1988 -0.5375
  149SAPE   H4S16469   2.078   5.561  10.139 -0.5258 -1.0757 -0.0902
  149SAPE   C2516470   1.930   5.712  10.186 -0.9085 -0.9103  0.0385
  149SAPE   H5R16471   1.883   5.753  10.277  3.4527  0.5191  1.9000
  149SAPE   C2616472   1.918   5.775  10.067  0.0117 -0.6142 -1.8116
  149SAPE   H6R16473   1.863   5.870  10.062 -0.9044 -0.6687  2.8654
  149SAPE   C2716474   1.967   5.734   9.934 -0.3255 -0.1476  0.0285
  149SAPE   H7R16475   1.881   5.710   9.869  0.4133 -0.0021 -1.0215
  149SAPE   H7S16476   2.020   5.637   9.942 -1.1391 -0.5637  0.5318
  149SAPE   C2816477   2.058   5.834   9.876 -0.1411  0.0273  0.0106
  149SAPE   H8R16478   2.141   5.864   9.942  0.8158  1.0989 -1.6265
  149SAPE   C2916479   2.057   5.888   9.746  0.3636 -0.0406 -0.6765
  149SAPE   H9R16480   2.136   5.957   9.714 -0.6556  0.4147 -2.3787
  149SAPE  C21016481   1.947   5.854   9.641  0.4385  0.8147 -0.2551
  149SAPE  H10R16482   1.853   5.848   9.700 -0.0881  1.7667 -0.9637
  149SAPE  H10S16483   1.961   5.753   9.597 -1.0125 -1.4404  3.8733
  149SAPE  C21116484   1.926   5.957   9.533 -0.1979 -0.0461  0.3753
  149SAPE  H11R16485   1.948   6.062   9.553  0.0450  0.1346 -0.7436
  149SAPE  C21216486   1.886   5.929   9.403 -0.7622  0.5307 -0.1420
  149SAPE  H12R16487   1.871   6.018   9.340 -0.5449  0.5040 -0.2309
  149SAPE  C21316488   1.839   5.799   9.346  0.0465 -0.2238  0.4753
  149SAPE  H13R16489   1.734   5.805   9.309  0.7230 -0.6754 -1.6716
  149SAPE  H13S16490   1.830   5.725   9.428 -2.2564 -1.2816 -0.6205
  149SAPE  C21416491   1.945   5.741   9.252  0.2163 -0.1502 -1.1256
  149SAPE  H14R16492   2.036   5.713   9.308 -0.9218  0.8813  1.3823
  149SAPE  C21516493   1.953   5.741   9.120 -0.2733 -0.3802  0.5899
  149SAPE  H15R16494   2.049   5.699   9.086  0.8354  1.3605  1.3659
  149SAPE  C21616495   1.861   5.798   9.015  0.0191 -0.0018 -0.1457
  149SAPE  H16R16496   1.763   5.822   9.061 -0.0126  0.5545 -0.4951
  149SAPE  H16S16497   1.841   5.731   8.929  1.3809  0.3095 -0.7224
  149SAPE  C21716498   1.908   5.929   8.963 -0.0721 -0.0835  0.4225
  149SAPE  H17R16499   2.006   5.909   8.914  1.0353  0.9076  2.1558
  149SAPE  H17S16500   1.927   6.003   9.044  0.5454  0.1650  0.0622
  149SAPE  C21816501   1.807   6.002   8.869 -0.0925 -0.0364 -0.2198
  149SAPE  H18R16502   1.718   6.025   8.932 -0.4511 -1.4175 -0.1794
  149SAPE  H18S16503   1.771   5.925   8.797 -0.5351 -0.3085  0.2804
  149SAPE  C21916504   1.868   6.127   8.805 -1.2064 -0.7461  0.2427
  149SAPE  H19R16505   1.975   6.114   8.778 -1.0247  1.7691 -0.5379
  149SAPE  H19S16506   1.876   6.207   8.881  2.1601 -0.5482 -0.1874
  149SAPE  C22016507   1.814   6.179   8.678 -0.3493  0.9968 -0.0584
  149SAPE  H20R16508   1.874   6.119   8.606 -1.1576 -1.3707  1.1309
  149SAPE  H20S16509   1.837   6.287   8.668  0.3421  0.7494 -1.2407
  149SAPE  H20T16510   1.710   6.166   8.641  0.3033  2.3059 -2.5943
  149SAPE   C3316511   1.979   5.062  10.283  0.6187  0.0402  0.2966
  149SAPE   H3X16512   1.879   5.032  10.245  0.7734  0.9820 -0.9079
  149SAPE   H3Y16513   2.062   4.991  10.264  0.5034 -0.5065  1.6962
  149SAPE   C3416514   2.002   5.189  10.206  0.2760 -0.6207 -0.5690
  149SAPE   H4X16515   2.103   5.225  10.233 -0.0400  0.3451 -0.6594
  149SAPE   H4Y16516   1.933   5.271  10.232  2.3431  0.9435  0.2373
  149SAPE   C3516517   2.008   5.167  10.052  0.1348 -0.2790  0.0228
  149SAPE   H5X16518   1.908   5.121  10.035 -0.3286  0.4225  0.7541
  149SAPE   H5Y16519   2.087   5.092  10.030 -0.3168 -0.8476  0.2934
  149SAPE   C3616520   2.018   5.291   9.962 -0.0755 -0.8171  0.6479
  149SAPE   H6X16521   2.119   5.337   9.967 -0.4227  0.4465 -2.1656
  149SAPE   H6Y16522   1.946   5.365  10.003  2.7267  2.7552 -0.3575
  149SAPE   C3716523   1.987   5.267   9.824 -0.2409 -0.0911  0.4431
  149SAPE   H7X16524   1.884   5.234   9.802 -0.1210 -0.0480 -0.2002
  149SAPE   H7Y16525   2.047   5.176   9.803 -1.1916 -0.5426 -0.3655
  149SAPE   C3816526   2.028   5.385   9.727 -0.0319 -0.4842 -0.4756
  149SAPE   H8X16527   2.120   5.439   9.759 -1.9601  2.5430  0.3431
  149SAPE   H8Y16528   1.945   5.457   9.738  1.3458  1.0804  0.1118
  149SAPE   C3916529   2.030   5.334   9.584 -1.0971 -0.5460  0.1980
  149SAPE   H9X16530   1.936   5.291   9.545 -0.1540 -2.6812  0.1233
  149SAPE   H9Y16531   2.103   5.251   9.575 -2.3969 -1.6449 -0.5316
  149SAPE  C31016532   2.073   5.442   9.482 -0.1231 -0.5379 -0.4284
  149SAPE  H10X16533   2.146   5.505   9.537 -0.3451 -0.9493  0.3573
  149SAPE  H10Y16534   1.992   5.518   9.469  1.1830  0.9353 -0.2676
  149SAPE  C31116535   2.128   5.389   9.347  0.1087 -0.1708 -0.0352
  149SAPE  H11X16536   2.227   5.344   9.370  0.5602 -0.1671 -1.8212
  149SAPE  H11Y16537   2.149   5.475   9.280 -2.1660  0.2963 -0.2332
  149SAPE  C31216538   2.048   5.277   9.273 -0.6724 -0.5017 -0.3994
  149SAPE  H12X16539   1.955   5.328   9.241  0.0018  1.2373  0.2882
  149SAPE  H12Y16540   2.026   5.194   9.343  0.5138  0.2463  0.9157
  149SAPE  C31316541   2.129   5.225   9.154  0.3485  0.2171  0.1414
  149SAPE  H13X16542   2.196   5.148   9.198  0.4366  0.8330  1.1314
  149SAPE  H13Y16543   2.183   5.298   9.090 -0.0649 -0.6641 -1.2599
  149SAPE  C31416544   2.046   5.154   9.045  0.4002 -0.0185 -0.4144
  149SAPE  H14X16545   1.988   5.227   8.984  1.2296  0.1425 -1.0273
  149SAPE  H14Y16546   1.979   5.088   9.104  2.5209 -1.1086  0.8818
  149SAPE  C31516547   2.139   5.067   8.947  0.2226  0.3599  0.2309
  149SAPE  H15X16548   2.204   5.010   9.016  1.2918 -0.3067 -1.2692
  149SAPE  H15Y16549   2.199   5.146   8.897 -1.5828  0.4591 -1.9453
  149SAPE  C31616550   2.075   4.979   8.831 -0.3321  0.1600 -0.0904
  149SAPE  H16X16551   2.161   4.931   8.780  0.0874  1.1172 -0.2897
  149SAPE  H16Y16552   2.014   5.041   8.762  0.8241 -0.4566 -1.7196
  149SAPE  C31716553   1.978   4.873   8.880 -0.5040  0.6548 -0.0914
  149SAPE  H17X16554   1.886   4.921   8.919  0.2120  2.8366 -0.9641
  149SAPE  H17Y16555   2.023   4.818   8.966 -1.7524 -0.3463 -0.0501
  149SAPE  C31816556   1.936   4.771   8.776  0.2853  0.2974  0.6093
  149SAPE  H18X16557   2.009   4.687   8.773  0.1013  0.1231  0.9234
  149SAPE  H18Y16558   1.931   4.811   8.673 -0.2961  0.4597  0.6948
  149SAPE  H18Z16559   1.844   4.719   8.811  0.6648 -0.1804  0.9210
  150SAPE     N16560   4.295   4.760  11.048  0.0479  0.3603  0.6845
  150SAPE   HN116561   4.366   4.685  11.036  0.1789  0.5886 -0.0488
  150SAPE   HN216562   4.341   4.842  11.094  0.1752  1.3859 -1.1559
  150SAPE   HN316563   4.233   4.721  11.122 -0.9320  2.1855  0.8855
  150SAPE   C1216564   4.216   4.791  10.921 -0.6810 -0.1741 -0.1038
  150SAPE  H12A16565   4.281   4.848  10.851  1.7306  0.0507  2.1872
  150SAPE  H12B16566   4.134   4.856  10.960  0.4967  0.6052  1.1820
  150SAPE   C1116567   4.148   4.671  10.857 -0.2912  0.0010 -0.1476
  150SAPE  H11A16568   4.224   4.600  10.818  0.2996  0.8762 -0.6094
  150SAPE  H11B16569   4.091   4.705  10.768  0.4195 -0.3716 -0.7535
  150SAPE     P16570   3.944   4.498  10.900 -0.0349  0.3677 -0.0226
  150SAPE   O1316571   4.006   4.364  10.896 -0.1939 -0.3542  0.3595
  150SAPE   O1416572   3.815   4.510  10.971 -0.1884 -0.1502 -0.1761
  150SAPE   O1216573   4.056   4.602  10.948  0.0443 -0.6649  0.4348
  150SAPE   O1116574   3.932   4.536  10.752  0.4452 -0.6002  0.5737
  150SAPE    C116575   3.830   4.610  10.692 -0.2028  0.2204  0.2600
  150SAPE    HA16576   3.792   4.689  10.760  0.2529 -0.3773  1.2403
  150SAPE    HB16577   3.888   4.657  10.610  0.6114  0.7212  1.0919
  150SAPE    C216578   3.723   4.523  10.628 -0.7765  0.0191  0.2260
  150SAPE    HS16579   3.672   4.476  10.715  1.1935 -1.9990  0.3860
  150SAPE   O2116580   3.790   4.423  10.556 -0.1712 -0.3850 -0.4744
  150SAPE   C2116581   3.718   4.308  10.537 -0.2613 -0.7421 -0.5458
  150SAPE   O2216582   3.607   4.286  10.581 -0.2244  0.1495 -0.0072
  150SAPE   C2216583   3.801   4.218  10.452  0.6136  0.7868 -0.0567
  150SAPE   H2R16584   3.804   4.269  10.354 -2.0864  1.1359 -0.0326
  150SAPE   H2S16585   3.902   4.217  10.498  1.1082 -1.8218 -1.0098
  150SAPE    C316586   3.623   4.601  10.539 -0.5441 -0.0243  0.0962
  150SAPE    HX16587   3.569   4.655  10.620 -0.8032 -1.2247  0.7451
  150SAPE    HY16588   3.541   4.540  10.495 -1.8503  2.0734 -0.5471
  150SAPE   O3116589   3.694   4.675  10.443 -0.4596 -0.1214  0.3457
  150SAPE   C3116590   3.676   4.806  10.445 -0.0813  0.2160 -0.5477
  150SAPE   O3216591   3.601   4.869  10.519 -0.4376 -0.0297 -0.1400
  150SAPE   C3216592   3.745   4.861  10.328  0.2751  0.3155 -0.1929
  150SAPE   H2X16593   3.833   4.799  10.303 -0.1653 -0.2963 -0.2366
  150SAPE   H2Y16594   3.796   4.956  10.358  0.7904  0.2394 -0.8162
  150SAPE   C2316595   3.729   4.077  10.444 -0.6785 -0.4371 -0.0235
  150SAPE   H3R16596   3.621   4.091  10.422 -0.0784  0.9908 -2.4108
  150SAPE   H3S16597   3.742   4.029  10.544  5.2042 -2.2160 -1.2062
  150SAPE   C2416598   3.810   3.987  10.352 -0.1419 -0.5196  1.1135
  150SAPE   H4R16599   3.909   3.977  10.400  0.5771  1.7700  0.2200
  150SAPE   H4S16600   3.829   4.039  10.255 -2.1953 -0.1227  0.8642
  150SAPE   C2516601   3.759   3.852  10.334 -0.6207 -0.2545 -0.5652
  150SAPE   H5R16602   3.743   3.788  10.423  1.1754  0.3822  0.2592
  150SAPE   C2616603   3.724   3.797  10.217  0.3659  0.7632 -0.4431
  150SAPE   H6R16604   3.680   3.697  10.227  1.9117 -0.0579 -1.4941
  150SAPE   C2716605   3.723   3.855  10.074  0.4963 -0.0783 -0.5363
  150SAPE   H7R16606   3.727   3.966  10.068 -0.9518 -0.0755 -2.0445
  150SAPE   H7S16607   3.633   3.816  10.022 -0.4659  1.5698 -0.1728
  150SAPE   C2816608   3.848   3.822   9.992 -0.4143 -0.3007 -0.0457
  150SAPE   H8R16609   3.932   3.791  10.055 -1.0048 -0.8162  0.5040
  150SAPE   C2916610   3.871   3.845   9.860 -0.1567  0.2440 -0.0809
  150SAPE   H9R16611   3.968   3.815   9.817  0.9826 -0.8968  3.0030
  150SAPE  C21016612   3.770   3.899   9.761 -0.1112 -0.9619 -0.0119
  150SAPE  H10R16613   3.828   3.943   9.677 -1.2655 -1.1646 -0.9420
  150SAPE  H10S16614   3.710   3.974   9.818 -1.0336 -1.2537 -0.5895
  150SAPE  C21116615   3.679   3.789   9.704 -0.1060 -0.1962 -0.3181
  150SAPE  H11R16616   3.645   3.729   9.790  2.7768 -0.1790  0.9330
  150SAPE  C21216617   3.641   3.758   9.580  0.3411  0.0352  0.8640
  150SAPE  H12R16618   3.588   3.662   9.565  2.4399 -0.9689 -0.8250
  150SAPE  C21316619   3.688   3.834   9.453  0.4437 -0.5099  0.1187
  150SAPE  H13R16620   3.746   3.927   9.471  0.4953  0.0088 -2.3843
  150SAPE  H13S16621   3.599   3.868   9.398  1.3841 -1.9619 -2.4706
  150SAPE  C21416622   3.754   3.748   9.343  0.4109 -0.4663  0.1357
  150SAPE  H14R16623   3.732   3.641   9.328  0.3437 -0.2390 -1.6803
  150SAPE  C21516624   3.830   3.797   9.244  0.3422  0.7319 -0.1792
  150SAPE  H15R16625   3.867   3.719   9.175 -0.6140  1.5452 -1.6563
  150SAPE  C21616626   3.857   3.940   9.221  0.0903  0.4539  0.1060
  150SAPE  H16R16627   3.965   3.963   9.230  0.3629 -1.0400  0.9495
  150SAPE  H16S16628   3.800   4.003   9.292 -1.2645 -0.7387  0.1257
  150SAPE  C21716629   3.810   3.972   9.081  0.3520 -0.0010  0.1344
  150SAPE  H17R16630   3.829   4.081   9.070  2.5757  0.0355  3.1667
  150SAPE  H17S16631   3.700   3.958   9.086  0.0731  2.0057  0.5655
  150SAPE  C21816632   3.867   3.903   8.964 -0.2607  0.5539  0.0098
  150SAPE  H18R16633   3.819   3.807   8.934  2.8104 -0.7951 -0.9827
  150SAPE  H18S16634   3.975   3.883   8.981 -0.9416 -0.5846  3.7984
  150SAPE  C21916635   3.868   3.981   8.828 -0.9134 -0.9207  0.1369
  150SAPE  H19R16636   3.870   4.092   8.834 -0.5978 -0.6704 -2.8152
  150SAPE  H19S16637   3.762   3.962   8.799 -1.0874 -2.9206  1.8405
  150SAPE  C22016638   3.982   3.939   8.734  0.5360 -0.1670 -0.8521
  150SAPE  H20R16639   3.997   4.006   8.646 -0.4736  1.1419 -0.0689
  150SAPE  H20S16640   3.975   3.830   8.713 -0.3036 -0.3043  0.0415
  150SAPE  H20T16641   4.077   3.949   8.790  0.4769  0.6422 -0.8765
  150SAPE   C3316642   3.650   4.869  10.206  0.0869  0.1922 -0.2113
  150SAPE   H3X16643   3.573   4.946  10.228  0.3583  0.7093 -1.0535
  150SAPE   H3Y16644   3.598   4.772  10.194  1.3042 -0.6252  0.8625
  150SAPE   C3416645   3.725   4.888  10.075  0.3324 -0.0714  0.8118
  150SAPE   H4X16646   3.820   4.830  10.071  2.8932  3.7913  0.3347
  150SAPE   H4Y16647   3.750   4.993  10.048  1.0387 -0.7132 -1.2208
  150SAPE   C3516648   3.628   4.844   9.956 -0.1641  1.2735 -0.2433
  150SAPE   H5X16649   3.525   4.880   9.977 -0.8524  0.1188 -1.4839
  150SAPE   H5Y16650   3.616   4.735   9.975  1.5516  1.3499  1.5999
  150SAPE   C3616651   3.677   4.887   9.815  0.5607 -0.2540  0.2744
  150SAPE   H6X16652   3.781   4.849   9.801 -0.0931 -1.3401 -2.1307
  150SAPE   H6Y16653   3.689   4.997   9.805 -0.2948 -0.2070 -0.3405
  150SAPE   C3716654   3.579   4.833   9.717 -0.1709  0.1890  0.1889
  150SAPE   H7X16655   3.511   4.915   9.687  0.0499  1.0112  1.8478
  150SAPE   H7Y16656   3.527   4.747   9.764 -0.3414 -0.4337 -1.0800
  150SAPE   C3816657   3.657   4.779   9.595 -0.1523  0.1572  0.1589
  150SAPE   H8X16658   3.683   4.677   9.631  1.7964  0.9108  1.0667
  150SAPE   H8Y16659   3.748   4.838   9.573 -0.8507  1.1135 -0.2352
  150SAPE   C3916660   3.579   4.750   9.462 -0.9252  0.1229 -0.0682
  150SAPE   H9X16661   3.526   4.846   9.444 -0.0792  0.7217  0.5708
  150SAPE   H9Y16662   3.509   4.667   9.484  3.4231 -4.0570 -0.5000
  150SAPE  C31016663   3.667   4.715   9.344 -0.2943 -0.4156  0.5112
  150SAPE  H10X16664   3.596   4.676   9.268 -3.9455 -1.4518  4.1107
  150SAPE  H10Y16665   3.733   4.632   9.377 -0.1611 -0.5223 -0.0093
  150SAPE  C31116666   3.742   4.842   9.296 -0.3887  1.6590  0.4622
  150SAPE  H11X16667   3.828   4.855   9.366  1.1442  2.5797 -1.5132
  150SAPE  H11Y16668   3.685   4.937   9.288 -0.4802  1.4719 -1.3463
  150SAPE  C31216669   3.798   4.817   9.149  0.4538  0.4825  0.4558
  150SAPE  H12X16670   3.721   4.777   9.079 -1.2558 -0.0913  2.5569
  150SAPE  H12Y16671   3.881   4.744   9.158 -0.7336 -1.3747 -2.2072
  150SAPE  C31316672   3.862   4.948   9.105  0.5470 -0.4010 -0.5767
  150SAPE  H13X16673   3.941   4.985   9.173  0.6329 -1.8320  0.1386
  150SAPE  H13Y16674   3.781   5.021   9.086 -0.4549 -0.5137  2.7147
  150SAPE  C31416675   3.924   4.947   8.967 -0.5712 -0.2678 -0.0155
  150SAPE  H14X16676   3.854   4.886   8.905 -1.5742 -1.3857  2.1118
  150SAPE  H14Y16677   4.021   4.895   8.975 -0.4734 -0.1420 -0.3714
  150SAPE  C31516678   3.936   5.083   8.898  0.3358 -0.0946 -0.1955
  150SAPE  H15X16679   4.014   5.139   8.954  1.5428 -0.2482 -1.6537
  150SAPE  H15Y16680   3.843   5.144   8.895  0.3751 -0.0215  0.0824
  150SAPE  C31616681   3.980   5.069   8.750  0.2349 -0.3717  0.0884
  150SAPE  H16X16682   3.895   5.010   8.711 -1.0111  1.4949 -0.1687
  150SAPE  H16Y16683   4.071   5.006   8.747  1.0399  0.7758 -1.6851
  150SAPE  C31716684   3.997   5.206   8.689 -0.8696  0.6099 -0.7185
  150SAPE  H17X16685   4.076   5.268   8.736 -0.8624 -0.4692  0.7460
  150SAPE  H17Y16686   3.908   5.269   8.708 -0.3846  0.6084  1.8265
  150SAPE  C31816687   4.034   5.203   8.539  0.2430 -0.1989 -0.4978
  150SAPE  H18X16688   4.040   5.308   8.504 -0.8594 -0.0108 -0.1750
  150SAPE  H18Y16689   3.957   5.144   8.485 -1.3136  0.1393  1.2397
  150SAPE  H18Z16690   4.136   5.161   8.525  0.9177  1.3999 -0.5003
  151SAPE     N16691   0.006   4.169  10.850  0.0052  0.4962 -0.3179
  151SAPE   HN116692  -0.035   4.074  10.849  0.1148  0.4204  0.8396
  151SAPE   HN216693   0.086   4.181  10.915 -0.4503  0.0181  0.3437
  151SAPE   HN316694  -0.064   4.243  10.869 -0.5180  0.4164 -1.7833
  151SAPE   C1216695   0.043   4.197  10.711  0.0135 -0.0323 -0.1428
  151SAPE  H12A16696   0.141   4.158  10.675  0.6341  0.6569  0.7216
  151SAPE  H12B16697   0.058   4.307  10.712 -2.2242  0.3724  2.5409
  151SAPE   C1116698  -0.060   4.175  10.606 -0.0985  0.1214 -0.0863
  151SAPE  H11A16699  -0.098   4.071  10.598  0.9791 -0.5215  2.3046
  151SAPE  H11B16700  -0.014   4.211  10.511 -1.0145 -0.3389 -0.7166
  151SAPE     P16701  -0.230   4.387  10.584 -0.9421  0.0536  0.3328
  151SAPE   O1316702  -0.359   4.410  10.644  1.0142  0.2425 -0.0558
  151SAPE   O1416703  -0.129   4.497  10.589  0.0175  0.2782 -0.4499
  151SAPE   O1216704  -0.169   4.262  10.645  0.1014  1.1591 -0.7272
  151SAPE   O1116705  -0.242   4.335  10.439 -0.3049 -0.4042  0.2893
  151SAPE    C116706  -0.356   4.295  10.376  0.1740  0.3770  0.1933
  151SAPE    HA16707  -0.447   4.326  10.432  0.7341 -2.6227  3.1158
  151SAPE    HB16708  -0.357   4.333  10.272 -1.2841 -0.0488  0.0326
  151SAPE    C216709  -0.352   4.140  10.350  0.3393 -0.2862  0.1817
  151SAPE    HS16710  -0.337   4.079  10.441  0.2092 -0.7536 -0.1040
  151SAPE   O2116711  -0.247   4.122  10.252 -0.0647  0.1257  0.3697
  151SAPE   C2116712  -0.203   3.999  10.250 -0.1319 -0.1108  0.2489
  151SAPE   O2216713  -0.235   3.911  10.321 -0.0481 -0.4028 -0.1961
  151SAPE   C2216714  -0.112   3.980  10.130 -0.3314 -0.7085 -0.6431
  151SAPE   H2R16715  -0.038   3.906  10.166  0.0713  1.1439  2.7907
  151SAPE   H2S16716  -0.165   3.947  10.038  2.6046  0.6234 -2.9780
  151SAPE    C316717  -0.492   4.093  10.305  0.0833  0.0524  1.1773
  151SAPE    HX16718  -0.572   4.107  10.380 -2.0996  1.1344 -1.2137
  151SAPE    HY16719  -0.485   3.983  10.292 -0.3309  0.2321 -0.8410
  151SAPE   O3116720  -0.526   4.157  10.179 -0.2834  0.1581 -0.4339
  151SAPE   C3116721  -0.493   4.097  10.068  0.2780  1.4527 -0.0612
  151SAPE   O3216722  -0.456   3.981  10.061  0.2752  0.3683 -0.0229
  151SAPE   C3216723  -0.525   4.191   9.950  0.7321 -0.0421 -0.5799
  151SAPE   H2X16724  -0.562   4.288   9.991 -0.7944 -0.1828 -1.5516
  151SAPE   H2Y16725  -0.599   4.132   9.892  0.0757 -0.8643  1.0094
  151SAPE   C2316726  -0.045   4.110  10.082  0.5381 -0.9385 -0.5933
  151SAPE   H3R16727  -0.000   4.153  10.174 -0.8792  2.3230 -1.3162
  151SAPE   H3S16728  -0.122   4.177  10.040 -0.9293 -2.6788 -0.8047
  151SAPE   C2416729   0.060   4.077   9.973 -0.0368 -0.1849  0.4637
  151SAPE   H4R16730   0.002   4.042   9.885 -1.4100  2.8111  0.0461
  151SAPE   H4S16731   0.133   4.001  10.008  0.8452 -0.0170 -0.9371
  151SAPE   C2516732   0.139   4.202   9.941 -0.0480  0.3159  0.1282
  151SAPE   H5R16733   0.183   4.255  10.027  0.3336  2.0659 -1.0853
  151SAPE   C2616734   0.165   4.248   9.817 -0.0023  0.8139  0.0710
  151SAPE   H6R16735   0.234   4.331   9.800  0.5094  0.4539  0.3732
  151SAPE   C2716736   0.139   4.175   9.683 -0.3007  0.0377 -0.3405
  151SAPE   H7R16737   0.092   4.075   9.697 -0.7407  0.5829  3.1386
  151SAPE   H7S16738   0.240   4.148   9.644  1.2364  1.8052  2.1021
  151SAPE   C2816739   0.070   4.271   9.595  0.5064 -0.9402 -0.7810
  151SAPE   H8R16740  -0.035   4.293   9.622  0.4420 -1.3398 -0.7009
  151SAPE   C2916741   0.136   4.351   9.508  0.4484 -0.5869  1.0007
  151SAPE   H9R16742   0.071   4.420   9.452  0.9379 -0.8017  0.1529
  151SAPE  C21016743   0.279   4.351   9.473  0.2662  0.1629  0.0675
  151SAPE  H10R16744   0.284   4.338   9.363 -1.3105  1.1132 -0.1545
  151SAPE  H10S16745   0.330   4.268   9.525 -0.6327  0.5540  1.6235
  151SAPE  C21116746   0.337   4.482   9.523 -0.0957  0.1325 -0.4564
  151SAPE  H11R16747   0.378   4.483   9.625 -1.0848  0.1642 -0.0425
  151SAPE  C21216748   0.350   4.603   9.463  0.1166 -0.0343  0.0890
  151SAPE  H12R16749   0.396   4.680   9.527  0.3345 -1.4411  1.7199
  151SAPE  C21316750   0.298   4.637   9.327 -0.4222 -0.1409  1.1737
  151SAPE  H13R16751   0.289   4.745   9.305 -1.0970 -0.1203  1.5149
  151SAPE  H13S16752   0.200   4.587   9.310 -1.7118  2.4266  0.5042
  151SAPE  C21416753   0.388   4.574   9.219 -0.7915  0.2357  0.3007
  151SAPE  H14R16754   0.460   4.501   9.260 -2.3134 -0.9197  1.0293
  151SAPE  C21516755   0.387   4.601   9.086  0.2219  0.4125 -0.0530
  151SAPE  H15R16756   0.458   4.546   9.023  0.0439 -1.2236  1.1038
  151SAPE  C21616757   0.296   4.706   9.020 -0.1595  0.6369  0.0750
  151SAPE  H16R16758   0.224   4.750   9.093 -1.6068  0.2334 -1.0526
  151SAPE  H16S16759   0.251   4.662   8.928  0.9236 -1.2704  0.3955
  151SAPE  C21716760   0.377   4.829   8.968  0.3736  0.1972 -0.4989
  151SAPE  H17R16761   0.457   4.800   8.897  0.7167 -1.6420  0.5905
  151SAPE  H17S16762   0.409   4.883   9.059 -0.5914  0.1477 -0.1184
  151SAPE  C21816763   0.287   4.941   8.902  0.8813 -0.5720 -0.7049
  151SAPE  H18R16764   0.333   5.041   8.919  0.6381 -0.6260  0.3646
  151SAPE  H18S16765   0.194   4.942   8.962  0.7946 -1.0991 -0.8299
  151SAPE  C21916766   0.268   4.912   8.753  0.0492 -0.5570 -0.3565
  151SAPE  H19R16767   0.192   4.986   8.720 -0.1565  0.0943  1.4861
  151SAPE  H19S16768   0.234   4.806   8.743  1.3848 -0.8917 -1.7243
  151SAPE  C22016769   0.407   4.941   8.684 -0.0583  0.1046 -0.2155
  151SAPE  H20R16770   0.396   4.920   8.576 -2.3919  1.0196 -0.2131
  151SAPE  H20S16771   0.498   4.883   8.712 -0.2709  1.0881  2.8609
  151SAPE  H20T16772   0.421   5.051   8.690 -2.0790  0.3373  1.1963
  151SAPE   C3316773  -0.407   4.221   9.862  0.2106 -0.1879  0.2663
  151SAPE   H3X16774  -0.316   4.248   9.919 -0.3030 -1.3181  1.6877
  151SAPE   H3Y16775  -0.428   4.309   9.799  0.8663 -1.6607 -2.1637
  151SAPE   C3416776  -0.366   4.111   9.768  0.8128 -0.4212 -0.1982
  151SAPE   H4X16777  -0.458   4.061   9.728  1.2826  0.6253 -2.8275
  151SAPE   H4Y16778  -0.305   4.039   9.826  0.2867  0.1377  1.0774
  151SAPE   C3516779  -0.284   4.166   9.653 -0.0293 -0.1000  0.3301
  151SAPE   H5X16780  -0.211   4.083   9.642 -0.4881 -0.6970  1.6308
  151SAPE   H5Y16781  -0.237   4.257   9.695  1.9653 -0.9631  0.1072
  151SAPE   C3616782  -0.348   4.191   9.517  0.7941  0.4547 -0.5383
  151SAPE   H6X16783  -0.437   4.257   9.529 -1.7829 -2.8615 -0.0361
  151SAPE   H6Y16784  -0.396   4.105   9.466  0.5399  1.8270 -2.7519
  151SAPE   C3716785  -0.259   4.272   9.421  0.5820 -0.7878 -0.3454
  151SAPE   H7X16786  -0.156   4.229   9.414  0.2245 -2.1292  1.7358
  151SAPE   H7Y16787  -0.244   4.377   9.453  0.5097 -0.0701 -2.5548
  151SAPE   C3816788  -0.301   4.265   9.273  0.0810 -0.3760  0.3638
  151SAPE   H8X16789  -0.387   4.333   9.257  0.7077  0.2103 -0.5781
  151SAPE   H8Y16790  -0.333   4.162   9.246 -0.6243 -0.1142  0.2004
  151SAPE   C3916791  -0.182   4.310   9.187  0.1740 -0.4191  0.6207
  151SAPE   H9X16792  -0.100   4.236   9.200  0.0320 -0.4422  1.4132
  151SAPE   H9Y16793  -0.147   4.406   9.231  0.0560  0.5186 -1.2262
  151SAPE  C31016794  -0.216   4.327   9.044  0.3321  0.3950  0.0872
  151SAPE  H10X16795  -0.309   4.386   9.033 -0.7480 -1.1901  0.3813
  151SAPE  H10Y16796  -0.242   4.227   9.003 -0.0297  0.6138 -0.2159
  151SAPE  C31116797  -0.104   4.388   8.955  0.4411 -0.1126  0.9490
  151SAPE  H11X16798  -0.028   4.308   8.960  0.4065 -0.3544 -1.2834
  151SAPE  H11Y16799  -0.060   4.477   9.006 -0.0309 -0.2136  1.5546
  151SAPE  C31216800  -0.133   4.413   8.811 -0.1136  0.0517 -0.1969
  151SAPE  H12X16801  -0.191   4.508   8.805 -1.9055 -0.7773  2.3223
  151SAPE  H12Y16802  -0.203   4.337   8.772 -0.8225  0.8975 -0.6203
  151SAPE  C31316803  -0.001   4.413   8.720  0.9498 -0.4794 -0.2950
  151SAPE  H13X16804   0.046   4.312   8.721 -0.5716 -1.2298  1.1593
  151SAPE  H13Y16805   0.065   4.493   8.761 -0.6774 -0.2912  2.1462
  151SAPE  C31416806  -0.042   4.448   8.577  0.5668  0.6755 -0.0936
  151SAPE  H14X16807  -0.066   4.556   8.572  1.6769  0.9841  0.9444
  151SAPE  H14Y16808  -0.129   4.381   8.559  2.1034 -1.7206  0.9326
  151SAPE  C31516809   0.066   4.415   8.480  0.2744 -0.2044  0.4840
  151SAPE  H15X16810   0.103   4.310   8.481  0.7502 -0.0483 -0.1498
  151SAPE  H15Y16811   0.155   4.478   8.503  0.3683 -0.0701 -0.2085
  151SAPE  C31616812   0.031   4.456   8.334  0.2139  0.2504  0.6085
  151SAPE  H16X16813   0.004   4.564   8.337 -0.2508  0.1599 -0.0413
  151SAPE  H16Y16814  -0.065   4.414   8.296  1.3452  0.6007 -2.9927
  151SAPE  C31716815   0.142   4.434   8.234  0.0969 -0.0830  0.2635
  151SAPE  H17X16816   0.237   4.473   8.275  1.1476 -1.4002 -0.8201
  151SAPE  H17Y16817   0.126   4.497   8.144 -0.2411 -1.3441 -0.5874
  151SAPE  C31816818   0.169   4.293   8.189 -0.5523  1.0458 -0.2598
  151SAPE  H18X16819   0.077   4.236   8.165  1.8366 -3.3583 -0.0606
  151SAPE  H18Y16820   0.207   4.225   8.268 -4.4301  0.8898  1.6557
  151SAPE  H18Z16821   0.245   4.293   8.107 -0.6892 -3.2395 -0.6580
  152SAPE     N16822   3.780   2.149  10.943 -0.2919 -0.6932  0.1368
  152SAPE   HN116823   3.711   2.198  11.003 -0.1752 -3.9223  3.1955
  152SAPE   HN216824   3.816   2.076  11.007 -2.3504 -1.3352  0.6225
  152SAPE   HN316825   3.849   2.223  10.919  0.8715 -1.5966  0.5811
  152SAPE   C1216826   3.715   2.087  10.829  0.3551  0.5401 -0.2785
  152SAPE  H12A16827   3.620   2.139  10.808 -0.5009 -0.5892  0.6818
  152SAPE  H12B16828   3.702   1.981  10.861 -1.9378  0.7831 -0.2537
  152SAPE   C1116829   3.808   2.097  10.702 -0.5200 -0.5726 -0.4283
  152SAPE  H11A16830   3.829   2.203  10.679  0.8130 -1.1075 -1.8485
  152SAPE  H11B16831   3.756   2.057  10.612 -1.3192  0.9415 -0.6721
  152SAPE     P16832   3.946   1.876  10.688 -0.0831 -0.5701  0.0519
  152SAPE   O1316833   4.064   1.823  10.760 -0.3895  0.5962  0.1385
  152SAPE   O1416834   3.823   1.799  10.706  0.6434 -0.2808 -0.4295
  152SAPE   O1216835   3.924   2.029  10.725 -0.5650  0.0607 -0.2389
  152SAPE   O1116836   3.976   1.890  10.536 -0.2307 -0.1673  0.0763
  152SAPE    C116837   4.113   1.912  10.481 -0.2999 -0.3221 -0.0175
  152SAPE    HA16838   4.192   1.871  10.547  1.5839 -2.1856 -3.2017
  152SAPE    HB16839   4.115   1.849  10.390 -3.3225  1.1107 -1.2246
  152SAPE    C216840   4.150   2.063  10.451  0.2057  0.0747  0.9735
  152SAPE    HS16841   4.235   2.050  10.380  0.5615 -2.8292  1.7867
  152SAPE   O2116842   4.180   2.148  10.565 -0.2685 -0.2830 -0.7366
  152SAPE   C2116843   4.302   2.129  10.617 -0.1735  0.2795  0.3750
  152SAPE   O2216844   4.366   2.031  10.590 -0.3234 -0.3946 -0.4934
  152SAPE   C2216845   4.343   2.243  10.706 -0.0656 -0.8552 -0.3783
  152SAPE   H2R16846   4.249   2.300  10.724  0.8296  0.5302  0.0541
  152SAPE   H2S16847   4.377   2.205  10.805 -1.4926  0.5306  0.7003
  152SAPE    C316848   4.029   2.130  10.375 -0.8686  0.5314 -0.1132
  152SAPE    HX16849   3.964   2.195  10.438 -2.7444  1.7502 -3.0496
  152SAPE    HY16850   3.963   2.050  10.335 -1.1433  0.7171 -0.0430
  152SAPE   O3116851   4.075   2.218  10.266  0.0506 -0.3393  0.0864
  152SAPE   C3116852   4.129   2.156  10.158  0.3872 -0.5339 -0.2093
  152SAPE   O3216853   4.142   2.035  10.152  0.1157 -0.4621 -0.0114
  152SAPE   C3216854   4.181   2.254  10.058  0.8336  0.3698  0.6426
  152SAPE   H2X16855   4.115   2.253   9.969 -0.4389 -3.4859  1.4385
  152SAPE   H2Y16856   4.284   2.220  10.036  0.3845 -0.3154 -0.5119
  152SAPE   C2316857   4.447   2.342  10.642  0.1155  0.2091 -0.2658
  152SAPE   H3R16858   4.533   2.280  10.610  0.9979  1.5022 -0.4978
  152SAPE   H3S16859   4.486   2.412  10.720 -1.9468 -0.8957  1.8978
  152SAPE   C2416860   4.386   2.424  10.529 -0.1849 -0.7822  0.5190
  152SAPE   H4R16861   4.305   2.481  10.579 -0.0160 -0.5957  0.5798
  152SAPE   H4S16862   4.334   2.354  10.460  0.6056  0.0620 -1.0119
  152SAPE   C2516863   4.482   2.518  10.458  0.0745  0.3417 -0.4645
  152SAPE   H5R16864   4.486   2.620  10.500 -1.1554 -0.7957  2.7392
  152SAPE   C2616865   4.553   2.479  10.347  0.7690 -0.3767 -1.2421
  152SAPE   H6R16866   4.607   2.563  10.302  0.3537  1.5109  1.5276
  152SAPE   C2716867   4.551   2.354  10.272 -0.2623  0.2715 -0.6226
  152SAPE   H7R16868   4.487   2.357  10.181 -1.6145 -0.6566  0.2739
  152SAPE   H7S16869   4.500   2.269  10.321  0.8149 -0.3843 -0.6131
  152SAPE   C2816870   4.691   2.312  10.252 -0.5994  0.2893  0.1489
  152SAPE   H8R16871   4.750   2.302  10.345  0.6305 -0.2992 -0.6578
  152SAPE   C2916872   4.756   2.281  10.136  0.1948 -0.7083  0.1167
  152SAPE   H9R16873   4.859   2.241  10.141 -0.0853 -1.4662 -0.1601
  152SAPE  C21016874   4.690   2.277   9.998 -0.6506  0.0760  0.0182
  152SAPE  H10R16875   4.580   2.262  10.006 -0.6229 -0.4145 -0.5027
  152SAPE  H10S16876   4.727   2.185   9.948  0.8816  0.7166 -0.0676
  152SAPE  C21116877   4.714   2.398   9.912  0.2056 -0.1715 -0.1291
  152SAPE  H11R16878   4.673   2.491   9.954 -0.9760 -0.8434  0.2483
  152SAPE  C21216879   4.773   2.404   9.790  0.4911  0.7167  0.1196
  152SAPE  H12R16880   4.762   2.501   9.738 -0.9063  0.7923  0.4951
  152SAPE  C21316881   4.828   2.290   9.708 -0.0639 -0.6561 -0.0705
  152SAPE  H13R16882   4.763   2.272   9.620  0.8836 -0.3583 -0.8524
  152SAPE  H13S16883   4.835   2.200   9.772 -0.0289 -0.9616 -0.4994
  152SAPE  C21416884   4.969   2.329   9.667  0.3050  0.0828 -0.2519
  152SAPE  H14R16885   5.049   2.279   9.724  0.3048 -0.7874 -0.9838
  152SAPE  C21516886   5.002   2.419   9.573  0.0437  0.2499  1.1358
  152SAPE  H15R16887   5.104   2.450   9.544 -1.1121  1.7468 -1.7567
  152SAPE  C21616888   4.901   2.489   9.484  0.1945 -0.0306  0.6930
  152SAPE  H16R16889   4.918   2.599   9.480  0.6948 -0.1390 -0.7077
  152SAPE  H16S16890   4.800   2.474   9.528 -0.7133  1.4980 -0.7613
  152SAPE  C21716891   4.892   2.442   9.341 -0.2196  0.1645 -0.3926
  152SAPE  H17R16892   4.814   2.495   9.282  1.5470  3.2267 -0.2064
  152SAPE  H17S16893   4.871   2.333   9.341  2.9531 -0.5917  1.8952
  152SAPE  C21816894   5.023   2.476   9.270 -0.1858  0.4382  0.8054
  152SAPE  H18R16895   5.101   2.397   9.274 -1.6846 -1.5356 -3.2510
  152SAPE  H18S16896   5.076   2.572   9.287  2.7006 -1.0831  1.0452
  152SAPE  C21916897   4.995   2.449   9.118  0.4226 -0.3587  0.2176
  152SAPE  H19R16898   4.897   2.498   9.096  1.5943  1.8212 -0.4278
  152SAPE  H19S16899   4.976   2.340   9.100  1.7119 -0.5398 -0.1216
  152SAPE  C22016900   5.109   2.497   9.033  0.4005 -0.0801  0.4133
  152SAPE  H20R16901   5.097   2.465   8.928 -1.3398  0.5100  0.3984
  152SAPE  H20S16902   5.202   2.443   9.059  1.2464  0.8155 -0.6820
  152SAPE  H20T16903   5.110   2.608   9.040 -2.6676  0.2182 -1.6680
  152SAPE   C3316904   4.213   2.397  10.113 -0.6060  0.0901  0.0407
  152SAPE   H3X16905   4.274   2.398  10.206 -1.0353 -0.5441  0.3436
  152SAPE   H3Y16906   4.123   2.456  10.141 -1.5025 -0.6480 -1.1878
  152SAPE   C3416907   4.295   2.478  10.009 -0.4768  0.4088 -0.5421
  152SAPE   H4X16908   4.246   2.465   9.911  0.8867 -0.7961 -1.0915
  152SAPE   H4Y16909   4.397   2.434   9.999  0.4186  2.0434  0.7333
  152SAPE   C3516910   4.316   2.623  10.040  0.5707  0.1605 -0.2653
  152SAPE   H5X16911   4.357   2.622  10.143 -0.3883 -1.1145  0.1250
  152SAPE   H5Y16912   4.222   2.682  10.033  0.0969 -0.5402  0.1128
  152SAPE   C3616913   4.423   2.689   9.954  1.0491 -0.6635  0.3918
  152SAPE   H6X16914   4.515   2.631   9.976 -0.0818 -2.8153 -0.3163
  152SAPE   H6Y16915   4.448   2.793   9.985  1.3377  0.6646 -3.6661
  152SAPE   C3716916   4.396   2.709   9.804 -0.2869  0.5140  0.2888
  152SAPE   H7X16917   4.297   2.759   9.793 -0.8514 -0.6808 -0.1868
  152SAPE   H7Y16918   4.374   2.608   9.764 -0.8544  0.8343 -0.2226
  152SAPE   C3816919   4.509   2.777   9.730 -0.2461 -0.1918  0.1601
  152SAPE   H8X16920   4.600   2.733   9.777 -0.3122  0.4374  0.8838
  152SAPE   H8Y16921   4.514   2.886   9.750  0.3748  0.0815 -1.3398
  152SAPE   C3916922   4.500   2.744   9.585  0.2638 -0.3809 -0.1326
  152SAPE   H9X16923   4.416   2.811   9.558  0.0889  0.6100  2.6138
  152SAPE   H9Y16924   4.485   2.635   9.570 -1.3224 -0.5373  2.1855
  152SAPE  C31016925   4.630   2.790   9.512 -1.0347 -0.5590  0.3058
  152SAPE  H10X16926   4.719   2.735   9.550 -2.9381 -3.3511  0.9992
  152SAPE  H10Y16927   4.647   2.899   9.528 -0.0994 -0.7776  0.9272
  152SAPE  C31116928   4.625   2.771   9.362 -0.6560 -0.1669  0.2637
  152SAPE  H11X16929   4.539   2.828   9.322 -0.5917 -0.4688 -0.3155
  152SAPE  H11Y16930   4.599   2.663   9.354 -1.6106  0.1136 -0.6820
  152SAPE  C31216931   4.763   2.807   9.290  0.2528  0.2362 -0.1364
  152SAPE  H12X16932   4.832   2.731   9.331 -2.0893 -1.0186  1.7284
  152SAPE  H12Y16933   4.786   2.908   9.329  0.1853  1.0075 -1.9590
  152SAPE  C31316934   4.747   2.787   9.141  0.7557  0.2990 -0.4302
  152SAPE  H13X16935   4.665   2.855   9.109 -0.6491 -0.5065  1.2358
  152SAPE  H13Y16936   4.729   2.678   9.126  0.8931 -0.0222  1.4680
  152SAPE  C31416937   4.869   2.831   9.061  0.0214 -0.8283 -0.3141
  152SAPE  H14X16938   4.954   2.767   9.092  0.1378 -1.2064 -1.3946
  152SAPE  H14Y16939   4.909   2.934   9.073 -0.5813  0.4833 -6.4055
  152SAPE  C31516940   4.838   2.822   8.913 -0.4787 -0.2557 -0.2907
  152SAPE  H15X16941   4.738   2.859   8.883 -0.1946  2.0307  1.3105
  152SAPE  H15Y16942   4.838   2.712   8.898  1.8026 -0.7976  2.6501
  152SAPE  C31616943   4.953   2.877   8.824  0.3706  0.0707 -0.3162
  152SAPE  H16X16944   5.042   2.829   8.869 -0.6747 -1.3281  0.3467
  152SAPE  H16Y16945   4.960   2.987   8.839 -1.9740  0.1397  0.6667
  152SAPE  C31716946   4.941   2.848   8.676  0.5763  0.5097 -0.1591
  152SAPE  H17X16947   5.018   2.905   8.620  1.6242  0.9218  1.6093
  152SAPE  H17Y16948   4.843   2.884   8.639 -0.2155 -1.3407 -0.0029
  152SAPE  C31816949   4.957   2.697   8.650  0.1253 -0.2269  0.2125
  152SAPE  H18X16950   5.048   2.645   8.687  1.2432  1.2880 -0.3379
  152SAPE  H18Y16951   4.966   2.697   8.540  0.7016  1.9754  0.2168
  152SAPE  H18Z16952   4.863   2.644   8.678  0.9827 -1.1128  1.4922
  153SAPE     N16953   2.050   2.658  10.805  0.2912  0.0671  0.3015
  153SAPE   HN116954   2.126   2.728  10.817  1.4084 -0.9490 -0.5885
  153SAPE   HN216955   2.069   2.611  10.714 -1.4303  0.1067 -0.1190
  153SAPE   HN316956   1.967   2.720  10.793  0.6861  0.3490 -1.2113
  153SAPE   C1216957   2.043   2.556  10.916 -0.1469  0.3422 -0.2800
  153SAPE  H12A16958   2.040   2.626  11.002  0.3420  1.1897 -0.9379
  153SAPE  H12B16959   2.133   2.491  10.914  1.8746  2.8855 -3.4342
  153SAPE   C1116960   1.904   2.497  10.907 -0.2306  0.1267 -0.1672
  153SAPE  H11A16961   1.825   2.574  10.920 -0.6017 -0.2970  0.1163
  153SAPE  H11B16962   1.888   2.428  10.992 -1.6917 -0.6269 -1.0244
  153SAPE     P16963   1.836   2.282  10.763  0.1737  0.0100 -0.0928
  153SAPE   O1316964   1.886   2.209  10.882 -0.2256  0.7583 -0.1888
  153SAPE   O1416965   1.692   2.289  10.740  0.2975  0.2705 -0.0272
  153SAPE   O1216966   1.887   2.430  10.779 -0.5470 -0.0448  0.4123
  153SAPE   O1116967   1.909   2.224  10.642 -0.3356 -0.2489  0.4286
  153SAPE    C116968   1.889   2.282  10.513 -0.4010  0.2477  0.5148
  153SAPE    HA16969   1.889   2.199  10.439  0.9419 -0.5531  1.3815
  153SAPE    HB16970   1.792   2.336  10.502 -0.6750  0.1635  2.3433
  153SAPE    C216971   2.006   2.379  10.459 -0.0860  0.0332 -0.2769
  153SAPE    HS16972   1.984   2.478  10.504  1.5192 -0.3424  1.4391
  153SAPE   O2116973   2.010   2.382  10.316 -0.4959 -0.0513 -0.4870
  153SAPE   C2116974   1.914   2.453  10.257 -0.2360  0.0272  1.0044
  153SAPE   O2216975   1.824   2.515  10.306 -0.1333  0.1028 -0.3182
  153SAPE   C2216976   1.931   2.421  10.109 -0.1374 -0.5280 -0.6477
  153SAPE   H2R16977   2.026   2.459  10.066  0.4114 -2.6374 -1.4221
  153SAPE   H2S16978   1.934   2.312  10.086  0.5883 -0.7684  0.4800
  153SAPE    C316979   2.150   2.338  10.515  0.7574  0.0042 -0.2180
  153SAPE    HX16980   2.158   2.229  10.494  0.0141 -0.5115  1.8979
  153SAPE    HY16981   2.138   2.348  10.625 -3.3971  0.2051 -0.5432
  153SAPE   O3116982   2.259   2.407  10.456 -0.3534  0.1304  0.1509
  153SAPE   C3116983   2.271   2.534  10.497  0.7783  0.6800  0.4326
  153SAPE   O3216984   2.205   2.578  10.588  0.4380 -0.0643 -0.2562
  153SAPE   C3216985   2.371   2.612  10.402 -0.2621  1.0537  0.0400
  153SAPE   H2X16986   2.315   2.617  10.306  0.2138  0.3837 -0.2731
  153SAPE   H2Y16987   2.458   2.546  10.390 -0.6255  0.7227 -0.8636
  153SAPE   C2316988   1.806   2.480  10.030 -0.4689 -0.2953  0.8902
  153SAPE   H3R16989   1.802   2.590  10.048  2.1089  0.2412 -1.0663
  153SAPE   H3S16990   1.713   2.430  10.063 -1.0856  0.4158  0.2586
  153SAPE   C2416991   1.823   2.461   9.875 -0.6141 -0.1260 -0.1165
  153SAPE   H4R16992   1.860   2.360   9.847  1.2983  0.5854 -0.3184
  153SAPE   H4S16993   1.900   2.532   9.838 -0.2238  1.5215  3.4187
  153SAPE   C2516994   1.698   2.497   9.798  0.2846  0.5197  0.3386
  153SAPE   H5R16995   1.616   2.445   9.850 -1.2663  3.1264  0.6718
  153SAPE   C2616996   1.667   2.583   9.702 -1.0250  0.8895 -0.1433
  153SAPE   H6R16997   1.566   2.579   9.658 -0.2727  0.0059 -1.9238
  153SAPE   C2716998   1.766   2.673   9.633  0.3429 -0.3758  0.1414
  153SAPE   H7R16999   1.824   2.711   9.720 -1.0170 -1.9752  1.8288
  153SAPE   H7S17000   1.712   2.763   9.597 -1.7073 -1.2601  0.8299
  153SAPE   C2817001   1.845   2.613   9.526 -0.9446 -0.5428 -0.3657
  153SAPE   H8R17002   1.953   2.629   9.536 -1.0915  1.5983 -1.5939
  153SAPE   C2917003   1.811   2.564   9.409  0.2337  0.3840  0.3418
  153SAPE   H9R17004   1.884   2.516   9.342  1.3279 -0.2877  1.9791
  153SAPE  C21017005   1.668   2.567   9.353 -0.0769  0.0614  0.3488
  153SAPE  H10R17006   1.631   2.669   9.329 -0.1982 -0.5843 -2.6951
  153SAPE  H10S17007   1.606   2.525   9.435  1.4659 -0.0044  1.5270
  153SAPE  C21117008   1.655   2.491   9.227 -0.4537 -0.2278  0.3860
  153SAPE  H11R17009   1.617   2.389   9.244  1.1158 -0.4619  2.9319
  153SAPE  C21217010   1.691   2.529   9.106 -0.6243  0.3488 -0.0769
  153SAPE  H12R17011   1.682   2.457   9.024  0.2212 -0.0675  0.1758
  153SAPE  C21317012   1.746   2.667   9.057  0.4782  0.2611  0.6258
  153SAPE  H13R17013   1.775   2.720   9.150  3.8504 -0.1265 -0.0722
  153SAPE  H13S17014   1.666   2.723   9.004  1.7653  1.3960 -0.1589
  153SAPE  C21417015   1.859   2.663   8.964  0.1130 -1.1959  0.3270
  153SAPE  H14R17016   1.951   2.710   9.002 -1.4549  0.7800  1.9601
  153SAPE  C21517017   1.852   2.625   8.834  0.4129  0.0187  0.6354
  153SAPE  H15R17018   1.941   2.650   8.774  1.6414 -1.4074  1.7958
  153SAPE  C21617019   1.737   2.565   8.753  0.3035  0.5178 -0.1144
  153SAPE  H16R17020   1.642   2.563   8.811  0.9171  0.1507  0.9043
  153SAPE  H16S17021   1.757   2.459   8.728 -0.3994  0.6924 -1.4857
  153SAPE  C21717022   1.713   2.644   8.629 -0.4630 -0.1169  0.1575
  153SAPE  H17R17023   1.802   2.637   8.563  0.0985  1.0400  0.7483
  153SAPE  H17S17024   1.697   2.747   8.669 -0.6093 -0.7097  1.6998
  153SAPE  C21817025   1.582   2.612   8.557 -0.1502 -0.0538  0.0125
  153SAPE  H18R17026   1.590   2.505   8.529 -1.1595 -0.1827  0.1530
  153SAPE  H18S17027   1.577   2.674   8.465 -0.1205  0.8707  0.6218
  153SAPE  C21917028   1.446   2.620   8.645  0.5751 -0.2165  0.1210
  153SAPE  H19R17029   1.440   2.720   8.693  1.4870 -0.6683  1.2403
  153SAPE  H19S17030   1.444   2.550   8.731  1.9204 -0.7868 -0.2734
  153SAPE  C22017031   1.324   2.590   8.560  0.0561  0.8417  0.3582
  153SAPE  H20R17032   1.234   2.623   8.616 -0.2485  0.5366  0.0497
  153SAPE  H20S17033   1.322   2.481   8.538  0.0337  0.5098  1.8525
  153SAPE  H20T17034   1.330   2.656   8.471 -3.7213 -0.0640 -0.7478
  153SAPE   C3317035   2.401   2.755  10.439 -0.4763 -0.8294 -0.8051
  153SAPE   H3X17036   2.444   2.764  10.541  1.6488 -0.1660 -1.7077
  153SAPE   H3Y17037   2.316   2.826  10.425  2.0543  1.8703 -4.5408
  153SAPE   C3417038   2.502   2.814  10.348  0.2717 -1.0660  0.0698
  153SAPE   H4X17039   2.602   2.766  10.357 -0.1932 -1.9711  0.5273
  153SAPE   H4Y17040   2.521   2.915  10.391 -1.9002 -0.2253 -0.8355
  153SAPE   C3517041   2.458   2.818  10.199  1.0526 -0.0682 -0.1315
  153SAPE   H5X17042   2.360   2.869  10.198  1.0482 -0.0621  0.6686
  153SAPE   H5Y17043   2.448   2.713  10.162 -2.0277  0.7875 -2.0769
  153SAPE   C3617044   2.560   2.886  10.108  0.1060  0.7212 -0.1136
  153SAPE   H6X17045   2.644   2.816  10.085 -0.3415 -0.5668  1.9164
  153SAPE   H6Y17046   2.603   2.976  10.157  2.9333  0.5666 -2.0691
  153SAPE   C3717047   2.509   2.914   9.964 -0.1500 -0.1824  0.8706
  153SAPE   H7X17048   2.577   2.986   9.912  1.2327 -1.5709  0.6759
  153SAPE   H7Y17049   2.404   2.949   9.968  0.2696  1.7265 -1.8572
  153SAPE   C3817050   2.496   2.792   9.864 -0.4427  0.7697 -0.6883
  153SAPE   H8X17051   2.418   2.725   9.907  0.9222 -1.0647 -0.9590
  153SAPE   H8Y17052   2.593   2.738   9.864 -1.1293 -0.6493  1.8677
  153SAPE   C3917053   2.447   2.824   9.721 -0.0404 -0.3687  0.1691
  153SAPE   H9X17054   2.350   2.879   9.724  1.2814  2.2751 -1.6182
  153SAPE   H9Y17055   2.430   2.727   9.669  1.7289 -1.5124  1.5939
  153SAPE  C31017056   2.539   2.917   9.648  0.6117 -0.4351 -0.7884
  153SAPE  H10X17057   2.646   2.887   9.653  0.7554  0.1541 -0.1491
  153SAPE  H10Y17058   2.531   3.020   9.687 -0.0093  0.1387 -2.3327
  153SAPE  C31117059   2.501   2.928   9.494 -0.6708 -0.1924  0.4198
  153SAPE  H11X17060   2.553   3.018   9.455  1.8561  0.7601  5.1650
  153SAPE  H11Y17061   2.391   2.934   9.488 -0.5409  2.0591 -0.5245
  153SAPE  C31217062   2.569   2.814   9.417  0.5454 -0.8464  0.1273
  153SAPE  H12X17063   2.545   2.716   9.464 -4.5955  1.0817  2.2645
  153SAPE  H12Y17064   2.679   2.824   9.429  0.2301  0.2890  2.4912
  153SAPE  C31317065   2.527   2.806   9.270 -0.2820 -0.1344 -0.2482
  153SAPE  H13X17066   2.418   2.788   9.259  0.0622 -1.0101 -2.5721
  153SAPE  H13Y17067   2.587   2.724   9.226 -0.7719 -0.0450 -1.0962
  153SAPE  C31417068   2.571   2.937   9.191 -0.3432  0.1748  0.6672
  153SAPE  H14X17069   2.676   2.960   9.219  0.0473 -1.4551  0.6070
  153SAPE  H14Y17070   2.492   3.010   9.220 -2.7127 -1.9443 -0.0530
  153SAPE  C31517071   2.569   2.910   9.040 -0.5597  0.5162  0.5027
  153SAPE  H15X17072   2.466   2.885   9.007  0.3413  0.1881 -2.3761
  153SAPE  H15Y17073   2.634   2.824   9.011 -1.8618  0.3788 -2.3840
  153SAPE  C31617074   2.613   3.033   8.968  0.2315 -0.3425  0.3427
  153SAPE  H16X17075   2.723   3.036   8.983  0.4389 -0.3982 -0.9886
  153SAPE  H16Y17076   2.554   3.117   9.011 -0.3570 -1.3627  1.5770
  153SAPE  C31717077   2.591   3.040   8.815  0.3069 -0.1094 -0.4399
  153SAPE  H17X17078   2.644   3.130   8.775  1.2887 -1.5969 -2.6975
  153SAPE  H17Y17079   2.484   3.042   8.787  0.9319 -0.6949 -3.0961
  153SAPE  C31817080   2.647   2.917   8.739  0.0077  0.5163 -0.5574
  153SAPE  H18X17081   2.754   2.891   8.755 -1.0872 -2.9238  2.5337
  153SAPE  H18Y17082   2.631   2.926   8.630  0.2606  0.0860 -0.6319
  153SAPE  H18Z17083   2.575   2.836   8.760 -2.2212  2.2066 -1.3292
  154SAPE     N17084   2.741   2.153  10.896  0.4331  0.7153  0.1169
  154SAPE   HN117085   2.664   2.091  10.932  1.4207 -2.4203 -2.6715
  154SAPE   HN217086   2.811   2.144  10.972  0.3105 -0.0048  0.1590
  154SAPE   HN317087   2.703   2.249  10.889 -1.3485 -0.0492 -1.8711
  154SAPE   C1217088   2.780   2.122  10.754  0.7278 -0.3068 -0.1119
  154SAPE  H12A17089   2.715   2.179  10.684  0.0960 -1.0842 -0.1733
  154SAPE  H12B17090   2.773   2.013  10.731  0.8683 -0.4779  0.6282
  154SAPE   C1117091   2.924   2.160  10.738  0.1014 -0.2359  0.4125
  154SAPE  H11A17092   2.940   2.269  10.752  3.1026 -0.5610  0.0670
  154SAPE  H11B17093   2.937   2.136  10.630 -3.6266 -3.5628  0.4635
  154SAPE     P17094   3.163   2.055  10.794  0.5514 -0.2750 -0.3128
  154SAPE   O1317095   3.247   2.177  10.804 -0.1135  0.5765  0.3294
  154SAPE   O1417096   3.208   1.932  10.862 -0.4773 -0.6796 -0.1507
  154SAPE   O1217097   3.009   2.085  10.818  0.6848 -0.2529 -0.4498
  154SAPE   O1117098   3.160   2.032  10.639  0.1479  0.3455  0.2876
  154SAPE    C117099   3.096   1.926  10.574 -0.3461  0.5542  0.5277
  154SAPE    HA17100   3.010   1.881  10.628 -1.3385  2.2557  0.4478
  154SAPE    HB17101   3.056   1.967  10.478 -2.1241 -1.4903  0.2944
  154SAPE    C217102   3.206   1.821  10.529  0.8151  0.5388 -0.1116
  154SAPE    HS17103   3.260   1.789  10.620 -0.6784  1.5175  1.1686
  154SAPE   O2117104   3.295   1.878  10.427  0.1468  0.0067  0.2784
  154SAPE   C2117105   3.413   1.922  10.457  0.2093  0.0391  0.6067
  154SAPE   O2217106   3.464   1.926  10.568 -0.2861  0.0545 -0.0273
  154SAPE   C2217107   3.463   1.972  10.324 -0.4848  0.2943 -0.2491
  154SAPE   H2R17108   3.485   1.880  10.265 -2.0917 -1.3590  1.5813
  154SAPE   H2S17109   3.395   2.037  10.266  1.5347  2.4915 -0.3349
  154SAPE    C317110   3.151   1.690  10.473  0.9625 -0.2566  0.5215
  154SAPE    HX17111   3.075   1.712  10.395 -0.3331 -2.9606  0.8730
  154SAPE    HY17112   3.097   1.635  10.554  0.5286  0.2465  0.5804
  154SAPE   O3117113   3.235   1.610  10.398 -0.6735 -0.0176 -0.2163
  154SAPE   C3117114   3.314   1.536  10.465 -1.3744  0.8311  0.4604
  154SAPE   O3217115   3.352   1.546  10.578 -0.8402 -0.1560 -0.5043
  154SAPE   C3217116   3.364   1.423  10.379 -0.2303  1.2648 -0.1966
  154SAPE   H2X17117   3.283   1.353  10.350  1.6686 -1.3560  0.4681
  154SAPE   H2Y17118   3.426   1.350  10.435 -0.2713 -1.6185 -3.5530
  154SAPE   C2317119   3.605   2.037  10.340 -0.0864  0.1184  0.1040
  154SAPE   H3R17120   3.674   1.977  10.403  0.1108 -0.0651 -0.2822
  154SAPE   H3S17121   3.587   2.126  10.404 -0.4091 -1.6545  2.6255
  154SAPE   C2417122   3.677   2.042  10.204  0.2638  0.5562  0.3634
  154SAPE   H4R17123   3.665   1.946  10.150 -0.5804  2.0629 -2.3091
  154SAPE   H4S17124   3.787   2.058  10.208  0.1992  2.1671 -2.2961
  154SAPE   C2517125   3.605   2.146  10.120 -0.5414 -0.2300 -0.7590
  154SAPE   H5R17126   3.503   2.125  10.087 -1.0000  2.0475 -0.9809
  154SAPE   C2617127   3.666   2.258  10.069 -0.0114 -0.3041 -0.4394
  154SAPE   H6R17128   3.616   2.317   9.991 -1.0903  0.1534  0.5651
  154SAPE   C2717129   3.812   2.290  10.081  0.6420 -0.1056  0.0649
  154SAPE   H7R17130   3.866   2.206  10.034 -0.2971  0.2634 -1.7982
  154SAPE   H7S17131   3.841   2.285  10.188 -1.7284 -1.4179  0.7327
  154SAPE   C2817132   3.864   2.421  10.031  0.3385 -0.1136  0.5385
  154SAPE   H8R17133   3.901   2.486  10.112 -2.3430 -0.0535  1.8432
  154SAPE   C2917134   3.892   2.454   9.905  0.2289  0.6674  0.1694
  154SAPE   H9R17135   3.950   2.545   9.885  0.9190  0.6250  1.8381
  154SAPE  C21017136   3.867   2.365   9.781 -0.1214 -0.6855  0.5218
  154SAPE  H10R17137   3.797   2.423   9.718 -0.5887 -0.8361  0.8982
  154SAPE  H10S17138   3.827   2.266   9.812 -0.6004 -1.5985 -2.6968
  154SAPE  C21117139   4.004   2.348   9.717 -0.3528 -0.1505  0.0016
  154SAPE  H11R17140   4.080   2.428   9.726 -0.2548 -0.1864 -0.4708
  154SAPE  C21217141   4.040   2.251   9.626 -0.4353 -0.3643 -0.5424
  154SAPE  H12R17142   4.140   2.254   9.581  0.8791  4.0061  2.1039
  154SAPE  C21317143   3.942   2.144   9.573 -0.0335  0.6621 -0.3538
  154SAPE  H13R17144   3.884   2.193   9.492 -1.4362  0.3761  0.4455
  154SAPE  H13S17145   3.862   2.111   9.643 -0.5385 -0.9239 -1.6360
  154SAPE  C21417146   3.995   2.011   9.527  0.6466 -0.1918 -0.1930
  154SAPE  H14R17147   4.036   1.957   9.613 -0.6631 -0.4797  0.2758
  154SAPE  C21517148   4.004   1.966   9.399 -0.3801 -0.1424  0.0184
  154SAPE  H15R17149   4.066   1.875   9.403  2.3571  1.6367  1.5077
  154SAPE  C21617150   3.963   2.034   9.268 -1.2019 -0.7895 -0.2679
  154SAPE  H16R17151   3.955   2.145   9.278 -1.5826 -0.9053  0.7683
  154SAPE  H16S17152   3.867   1.992   9.231 -0.5198 -0.9728 -1.9151
  154SAPE  C21717153   4.067   1.985   9.172 -0.1134  0.3404 -0.6620
  154SAPE  H17R17154   4.072   1.875   9.186 -1.0611  0.4529  0.7917
  154SAPE  H17S17155   4.165   2.032   9.193  0.9484 -1.7472 -0.7010
  154SAPE  C21817156   4.033   2.028   9.029 -0.5232 -0.0641  0.0194
  154SAPE  H18R17157   4.119   2.026   8.959 -1.0422  0.9335 -0.6748
  154SAPE  H18S17158   4.003   2.135   9.024  3.2200  1.1107 -0.2083
  154SAPE  C21917159   3.924   1.939   8.961  0.5534  0.1374  0.1713
  154SAPE  H19R17160   3.834   1.923   9.024 -1.5148 -1.3170 -2.9198
  154SAPE  H19S17161   3.970   1.837   8.965  1.1076  0.3744  3.5099
  154SAPE  C22017162   3.887   1.977   8.819  0.0261 -0.4411  0.2857
  154SAPE  H20R17163   3.981   1.993   8.763  0.7800  0.5951  1.7809
  154SAPE  H20S17164   3.840   2.078   8.812 -1.3707 -1.0610  0.4209
  154SAPE  H20T17165   3.819   1.905   8.770 -0.6269  1.7811 -2.3515
  154SAPE   C3317166   3.455   1.475  10.267  0.4699 -0.3677 -0.3663
  154SAPE   H3X17167   3.398   1.543  10.200  0.8964  0.0794 -0.2895
  154SAPE   H3Y17168   3.492   1.388  10.209  0.6516 -0.4046 -0.1977
  154SAPE   C3417169   3.583   1.553  10.319  0.3066 -0.1297 -0.7599
  154SAPE   H4X17170   3.630   1.478  10.387 -0.8081 -0.1262  0.0427
  154SAPE   H4Y17171   3.558   1.636  10.389  1.2910 -1.3921  1.2059
  154SAPE   C3517172   3.680   1.583  10.206 -0.8670  0.3380 -0.1003
  154SAPE   H5X17173   3.632   1.659  10.140  1.2947  1.7476 -0.1666
  154SAPE   H5Y17174   3.693   1.494  10.142 -1.1053  1.6437 -2.0575
  154SAPE   C3617175   3.816   1.631  10.243 -0.1433  0.2789 -0.2425
  154SAPE   H6X17176   3.875   1.541  10.272  1.3376  0.5877 -2.0848
  154SAPE   H6Y17177   3.806   1.706  10.324 -1.0505 -0.8364  0.7076
  154SAPE   C3717178   3.885   1.715  10.135 -0.0153  0.4205  0.0299
  154SAPE   H7X17179   3.994   1.724  10.152  0.6935 -3.9953 -1.0677
  154SAPE   H7Y17180   3.842   1.817  10.129 -0.9574 -0.0376 -2.0387
  154SAPE   C3817181   3.872   1.661   9.997  0.9620 -0.1870 -0.2938
  154SAPE   H8X17182   3.762   1.654   9.977  1.2584 -4.1435 -1.3469
  154SAPE   H8Y17183   3.905   1.555   9.998 -0.7897 -0.8507 -2.4099
  154SAPE   C3917184   3.949   1.729   9.890 -0.2591  0.5916 -0.0743
  154SAPE   H9X17185   4.056   1.731   9.919 -0.5705 -0.1764  1.1879
  154SAPE   H9Y17186   3.902   1.829   9.881 -1.9014 -0.2338 -1.0398
  154SAPE  C31017187   3.954   1.658   9.749 -1.1000  0.2309 -0.5781
  154SAPE  H10X17188   4.013   1.565   9.749  0.2033  1.0400 -0.4523
  154SAPE  H10Y17189   3.990   1.738   9.681 -0.2519  0.6412  0.3243
  154SAPE  C31117190   3.818   1.632   9.684  0.4708  0.7368  0.0984
  154SAPE  H11X17191   3.759   1.726   9.681  2.0065  1.7628  0.4538
  154SAPE  H11Y17192   3.758   1.570   9.754 -0.1484  1.8849  0.6211
  154SAPE  C31217193   3.816   1.572   9.542  0.5148  0.1293  0.5226
  154SAPE  H12X17194   3.712   1.545   9.514  1.5697 -3.5077 -0.4316
  154SAPE  H12Y17195   3.872   1.475   9.544 -0.2196 -0.3032  2.1738
  154SAPE  C31317196   3.858   1.668   9.436 -0.0783  0.6014  0.6341
  154SAPE  H13X17197   3.969   1.670   9.423 -0.2032 -0.2080 -0.7173
  154SAPE  H13Y17198   3.815   1.761   9.479 -1.8137 -1.4900  3.8345
  154SAPE  C31417199   3.798   1.633   9.300  0.7864  0.1916 -0.3331
  154SAPE  H14X17200   3.835   1.700   9.220 -0.0292  0.5623 -0.4156
  154SAPE  H14Y17201   3.687   1.640   9.302  0.5611  0.2590 -4.3879
  154SAPE  C31517202   3.834   1.491   9.258  0.2383 -0.1023  0.1806
  154SAPE  H15X17203   3.790   1.475   9.157 -2.5357 -0.5318  1.3603
  154SAPE  H15Y17204   3.789   1.416   9.327 -1.1344  1.9831  1.6796
  154SAPE  C31617205   3.985   1.476   9.234 -0.7495  0.9498 -0.2020
  154SAPE  H16X17206   4.036   1.482   9.332  0.9581  0.5090 -1.0326
  154SAPE  H16Y17207   4.015   1.568   9.180 -0.6681  1.6892  1.0810
  154SAPE  C31717208   4.035   1.368   9.146 -0.6630 -0.2386  0.0551
  154SAPE  H17X17209   4.012   1.376   9.038  2.1917  1.5477 -0.5143
  154SAPE  H17Y17210   3.996   1.275   9.193  0.1638 -0.2949  0.6480
  154SAPE  C31817211   4.183   1.366   9.151 -0.2031 -0.4589  0.4636
  154SAPE  H18X17212   4.232   1.458   9.114 -1.2606  0.9624  2.4266
  154SAPE  H18Y17213   4.224   1.287   9.084  0.7488  1.9088 -1.9523
  154SAPE  H18Z17214   4.220   1.330   9.249 -1.7302 -0.5305  1.0425
  155SAPE     N17215   4.951   4.595  11.094  0.3466 -0.9284 -0.3831
  155SAPE   HN117216   4.895   4.562  11.175  1.0392 -3.3938 -0.8099
  155SAPE   HN217217   5.000   4.508  11.065  0.2470 -0.5449 -1.7995
  155SAPE   HN317218   5.012   4.670  11.131 -0.7374 -0.8535  1.3359
  155SAPE   C1217219   4.875   4.628  10.969  0.6900 -0.1225 -0.1234
  155SAPE  H12A17220   4.765   4.630  10.982  0.7513  2.3798  0.4172
  155SAPE  H12B17221   4.890   4.534  10.911 -1.6682 -2.7696  3.1691
  155SAPE   C1117222   4.929   4.752  10.900  0.1409  0.4834  0.3246
  155SAPE  H11A17223   4.856   4.773  10.819 -0.1601  1.0216  0.7263
  155SAPE  H11B17224   5.023   4.715  10.853  0.3307  0.3982  0.7617
  155SAPE     P17225   4.821   4.961  11.013  0.4716  0.1342 -0.4209
  155SAPE   O1317226   4.707   4.873  11.059 -0.0815  0.0492 -0.1006
  155SAPE   O1417227   4.865   5.062  11.115  0.2081 -0.5115  0.3751
  155SAPE   O1217228   4.936   4.871  10.992 -0.9308 -0.2361 -0.0026
  155SAPE   O1117229   4.800   5.013  10.868  0.2029  0.0508  0.0049
  155SAPE    C117230   4.908   5.091  10.811  0.5074  0.7315  0.6248
  155SAPE    HA17231   4.901   5.197  10.845 -1.7912  1.3032 -1.3590
  155SAPE    HB17232   5.005   5.040  10.830 -0.3502 -1.5418 -0.7759
  155SAPE    C217233   4.906   5.103  10.651  0.7435  1.2250 -0.3112
  155SAPE    HS17234   4.831   5.182  10.627  1.0463  2.0344  1.2382
  155SAPE   O2117235   4.880   4.970  10.595  0.0086  0.1407  0.3310
  155SAPE   C2117236   4.751   4.945  10.581 -0.2268  0.0034  0.4168
  155SAPE   O2217237   4.662   5.025  10.584  0.0387  0.2720 -0.1961
  155SAPE   C2217238   4.735   4.803  10.533 -0.0478 -0.3245  0.1949
  155SAPE   H2R17239   4.791   4.745  10.610 -0.4610 -1.1087 -0.0832
  155SAPE   H2S17240   4.627   4.776  10.539 -0.0873 -0.1117  0.5358
  155SAPE    C317241   5.039   5.165  10.599  0.2131 -0.1081  0.7908
  155SAPE    HX17242   5.131   5.103  10.611 -0.1545 -0.6847  0.6920
  155SAPE    HY17243   5.047   5.256  10.662 -2.6176  1.2198 -0.6107
  155SAPE   O3117244   5.017   5.214  10.466 -0.2797 -0.3396  0.2928
  155SAPE   C3117245   5.053   5.127  10.373  1.2106 -0.3231 -0.0786
  155SAPE   O3217246   5.112   5.027  10.389 -0.0925  0.6153 -0.3560
  155SAPE   C3217247   5.009   5.191  10.235 -0.3828 -0.1860  0.5995
  155SAPE   H2X17248   5.080   5.276  10.224 -0.2614 -0.3135  0.3890
  155SAPE   H2Y17249   4.908   5.228  10.263 -1.4721 -2.3428 -0.2248
  155SAPE   C2317250   4.783   4.780  10.387  0.0723 -0.5838 -0.1090
  155SAPE   H3R17251   4.816   4.674  10.386  0.3908 -0.5554 -3.4167
  155SAPE   H3S17252   4.870   4.841  10.352 -1.0014  1.4595  0.5923
  155SAPE   C2417253   4.667   4.795  10.282  0.7029 -0.2851 -0.8227
  155SAPE   H4R17254   4.625   4.898  10.291  0.6646 -0.3063 -0.7578
  155SAPE   H4S17255   4.583   4.725  10.302  1.8899 -1.5022  0.0156
  155SAPE   C2517256   4.726   4.777  10.142  0.5421 -0.2492  0.0672
  155SAPE   H5R17257   4.827   4.818  10.136  1.0216 -1.3879  0.0199
  155SAPE   C2617258   4.670   4.697  10.049 -0.6407 -0.3165 -0.0536
  155SAPE   H6R17259   4.715   4.696   9.948 -2.4794 -0.5974 -0.9151
  155SAPE   C2717260   4.542   4.618  10.049  0.6977  0.0087  0.0514
  155SAPE   H7R17261   4.491   4.634   9.951  1.0128  0.0098 -0.1149
  155SAPE   H7S17262   4.468   4.629  10.131 -0.3897  0.1675 -0.9257
  155SAPE   C2817263   4.576   4.466  10.061 -0.7673 -1.1201  0.4510
  155SAPE   H8R17264   4.577   4.439  10.167 -2.0396 -0.6785  0.5918
  155SAPE   C2917265   4.601   4.379   9.968 -0.7150  0.2274 -0.3872
  155SAPE   H9R17266   4.631   4.280  10.006  1.5429  0.7889 -0.6062
  155SAPE  C21017267   4.617   4.406   9.825 -0.1310  0.0270 -0.2119
  155SAPE  H10R17268   4.719   4.371   9.797  0.7278  0.2806  2.3385
  155SAPE  H10S17269   4.618   4.515   9.804  0.7205  0.0779  0.0427
  155SAPE  C21117270   4.519   4.356   9.720  0.3092  0.7471 -0.8889
  155SAPE  H11R17271   4.418   4.329   9.754  1.5624 -4.1126 -0.2332
  155SAPE  C21217272   4.545   4.332   9.588  0.1292  0.2826  0.3578
  155SAPE  H12R17273   4.457   4.299   9.530 -0.5534  3.9400 -0.9173
  155SAPE  C21317274   4.672   4.344   9.512 -0.0222 -0.3214  0.1742
  155SAPE  H13R17275   4.737   4.425   9.550  1.7719 -1.4245 -0.4361
  155SAPE  H13S17276   4.644   4.388   9.414  1.7688  2.7939  0.9313
  155SAPE  C21417277   4.767   4.221   9.493  0.1720 -0.7619  0.0358
  155SAPE  H14R17278   4.806   4.183   9.588 -1.4931  3.4193  2.7031
  155SAPE  C21517279   4.816   4.163   9.381  0.3129  0.0494  0.0757
  155SAPE  H15R17280   4.886   4.078   9.393  1.1324  0.5197 -1.2257
  155SAPE  C21617281   4.778   4.200   9.242  0.5867  0.2399 -0.1366
  155SAPE  H16R17282   4.846   4.157   9.165 -1.8418 -0.2910 -2.1195
  155SAPE  H16S17283   4.790   4.311   9.239  1.7419  0.1167 -1.0867
  155SAPE  C21717284   4.632   4.165   9.211  0.4869 -0.0718 -0.1893
  155SAPE  H17R17285   4.574   4.240   9.268  5.1565  1.3866  3.2270
  155SAPE  H17S17286   4.589   4.067   9.241  0.3923 -0.8606 -2.6789
  155SAPE  C21817287   4.603   4.185   9.063 -0.3668  0.9307 -0.7541
  155SAPE  H18R17288   4.497   4.169   9.036 -0.5807  1.4235 -0.2392
  155SAPE  H18S17289   4.659   4.118   8.995  0.5706  0.8782  0.0471
  155SAPE  C21917290   4.644   4.323   9.013 -1.3234 -0.2575 -0.6140
  155SAPE  H19R17291   4.753   4.343   9.023 -1.8196  3.2877 -0.8202
  155SAPE  H19S17292   4.591   4.399   9.075  1.5974  0.1529  1.6113
  155SAPE  C22017293   4.619   4.342   8.864 -0.0377  0.0393 -0.0507
  155SAPE  H20R17294   4.667   4.260   8.806  1.2280  2.0718 -2.0556
  155SAPE  H20S17295   4.659   4.438   8.826 -0.3837 -0.2636 -1.2050
  155SAPE  H20T17296   4.511   4.344   8.837  0.6766  0.4968 -3.2037
  155SAPE   C3317297   4.980   5.106  10.109  0.1259  0.0665 -0.3239
  155SAPE   H3X17298   4.926   5.166  10.032 -0.0180  1.3251  0.7253
  155SAPE   H3Y17299   4.917   5.018  10.131 -1.1443  0.7287 -1.1796
  155SAPE   C3417300   5.112   5.048  10.052  1.3368  0.2438  0.0285
  155SAPE   H4X17301   5.167   4.985  10.125  0.5275 -1.9430 -1.1387
  155SAPE   H4Y17302   5.175   5.135  10.024 -1.6635  2.1676 -1.2283
  155SAPE   C3517303   5.088   4.962   9.924  0.4090 -0.2888  0.3205
  155SAPE   H5X17304   5.034   5.027   9.852  1.6718  1.4854  0.9177
  155SAPE   H5Y17305   5.038   4.868   9.954  1.5929 -1.6448 -1.7119
  155SAPE   C3617306   5.220   4.909   9.870  0.3406  0.2860 -0.6265
  155SAPE   H6X17307   5.199   4.835   9.790 -2.2191  0.6355 -0.3669
  155SAPE   H6Y17308   5.280   4.866   9.952  0.9370  1.7154 -0.2903
  155SAPE   C3717309   5.307   5.022   9.809  0.0921  0.2561  0.0939
  155SAPE   H7X17310   5.339   5.086   9.894  0.7292 -0.5964  0.5146
  155SAPE   H7Y17311   5.241   5.086   9.747  0.0027 -0.3026 -0.3960
  155SAPE   C3817312   5.433   4.983   9.723  0.0577  0.5529 -0.3967
  155SAPE   H8X17313   5.514   4.955   9.794  0.1335 -1.6678 -1.2821
  155SAPE   H8Y17314   5.478   5.073   9.677 -1.2844  1.5206  0.1063
  155SAPE   C3917315   5.416   4.874   9.618  0.4442  0.6323  0.7744
  155SAPE   H9X17316   5.336   4.800   9.637 -0.1056  0.3155 -2.2647
  155SAPE   H9Y17317   5.515   4.827   9.598  1.1749  2.0041  1.0433
  155SAPE  C31017318   5.390   4.933   9.485 -0.2071  0.4728  0.4675
  155SAPE  H10X17319   5.486   4.965   9.440 -0.3316  2.4693  1.5222
  155SAPE  H10Y17320   5.321   5.019   9.485 -0.4806  0.2569 -0.0620
  155SAPE  C31117321   5.322   4.837   9.385  0.2439  0.5703  0.0007
  155SAPE  H11X17322   5.214   4.838   9.409 -0.1542  0.1360 -1.6617
  155SAPE  H11Y17323   5.360   4.734   9.402 -0.6019  0.6942  3.5659
  155SAPE  C31217324   5.314   4.884   9.235 -0.2006  0.4709  0.2666
  155SAPE  H12X17325   5.304   4.994   9.224 -1.2303  0.4600  0.9506
  155SAPE  H12Y17326   5.225   4.838   9.186 -0.9828  0.6754  1.4638
  155SAPE  C31317327   5.451   4.852   9.175  0.7001  0.2184 -0.4609
  155SAPE  H13X17328   5.454   4.741   9.164 -3.1829 -0.2814  1.7420
  155SAPE  H13Y17329   5.530   4.896   9.240 -0.0036 -0.1154  0.6507
  155SAPE  C31417330   5.475   4.915   9.041  0.8765 -0.4042  0.0820
  155SAPE  H14X17331   5.470   5.026   9.049  0.6977 -0.5023  1.5472
  155SAPE  H14Y17332   5.395   4.868   8.980  0.0492  0.4473  0.4676
  155SAPE  C31517333   5.601   4.872   8.984 -0.3997  0.1159  0.7939
  155SAPE  H15X17334   5.597   4.762   8.969  0.3774  0.1609  0.1655
  155SAPE  H15Y17335   5.677   4.893   9.062  0.8530 -2.9650  0.5349
  155SAPE  C31617336   5.637   4.941   8.847 -0.4380  0.3856 -0.1079
  155SAPE  H16X17337   5.628   5.051   8.859  1.7617  0.7973 -1.5473
  155SAPE  H16Y17338   5.565   4.912   8.767  0.3958 -4.3836  0.5683
  155SAPE  C31717339   5.772   4.891   8.801  0.0142 -0.1218  0.7490
  155SAPE  H17X17340   5.769   4.780   8.795 -1.0658 -0.0340 -0.9008
  155SAPE  H17Y17341   5.842   4.926   8.880  2.5735 -1.5940 -0.7115
  155SAPE  C31817342   5.823   4.971   8.674  0.7261  0.1637 -0.1802
  155SAPE  H18X17343   5.773   4.927   8.585 -0.9570 -1.7212  1.5840
  155SAPE  H18Y17344   5.933   4.974   8.661  0.8989 -0.2040  1.0628
  155SAPE  H18Z17345   5.781   5.074   8.671  1.2392  0.4775  1.8511
  156SAPE     N17346   2.903   0.688  10.791 -0.6366 -0.3474  0.6165
  156SAPE   HN117347   2.805   0.720  10.800 -0.6589  0.5481 -1.9748
  156SAPE   HN217348   2.904   0.584  10.791  0.0818 -0.3486  1.0252
  156SAPE   HN317349   2.963   0.727  10.867 -0.0211  2.9688 -1.3575
  156SAPE   C1217350   2.950   0.760  10.659  0.6162  0.5204  0.2494
  156SAPE  H12A17351   2.897   0.858  10.661 -0.6536 -0.1479  1.6482
  156SAPE  H12B17352   2.909   0.705  10.572  1.4648 -0.7676  0.6325
  156SAPE   C1117353   3.100   0.769  10.645  0.7244  0.0778  0.1546
  156SAPE  H11A17354   3.141   0.820  10.735  1.2595 -2.2866  1.3130
  156SAPE  H11B17355   3.124   0.841  10.564  1.6259  1.2761  1.4286
  156SAPE     P17356   3.316   0.643  10.587 -0.3619  0.0218 -0.0727
  156SAPE   O1317357   3.388   0.719  10.693  0.7018  0.6879  0.0253
  156SAPE   O1417358   3.351   0.506  10.565 -0.0759 -0.0030 -0.3697
  156SAPE   O1217359   3.161   0.639  10.621 -0.2312 -0.4315 -0.1951
  156SAPE   O1117360   3.323   0.724  10.457 -0.0634 -0.5704 -0.4205
  156SAPE    C117361   3.225   0.688  10.357 -0.4699  0.0114  0.7407
  156SAPE    HA17362   3.208   0.578  10.357  1.0535 -0.2865 -1.2220
  156SAPE    HB17363   3.121   0.725  10.374 -0.8407 -0.3676 -0.5601
  156SAPE    C217364   3.275   0.706  10.211  0.4940 -0.4969  0.1458
  156SAPE    HS17365   3.225   0.633  10.143  1.0489 -0.2388 -0.5542
  156SAPE   O2117366   3.416   0.680  10.207 -0.0795  0.0882  0.2891
  156SAPE   C2117367   3.445   0.549  10.217 -0.3528 -0.0121  0.1806
  156SAPE   O2217368   3.364   0.455  10.212 -0.1434 -0.3484  0.4498
  156SAPE   C2217369   3.596   0.522  10.221  0.2290  0.0999 -0.7278
  156SAPE   H2R17370   3.649   0.618  10.241 -3.1115  1.7624  1.0454
  156SAPE   H2S17371   3.624   0.457  10.307  0.0084 -0.3675 -1.0049
  156SAPE    C317372   3.258   0.853  10.162  0.3700 -0.3145  0.4447
  156SAPE    HX17373   3.299   0.920  10.241  1.8703 -1.0704  0.3402
  156SAPE    HY17374   3.149   0.866  10.151 -0.0012 -2.8981  0.5359
  156SAPE   O3117375   3.318   0.879  10.032 -0.2897  0.1076 -0.3078
  156SAPE   C3117376   3.268   0.811   9.927  1.0359 -0.8721  0.5428
  156SAPE   O3217377   3.182   0.727   9.928  0.3760 -0.2699 -0.1884
  156SAPE   C3217378   3.332   0.858   9.794 -0.1449 -0.1383 -0.0723
  156SAPE   H2X17379   3.435   0.820   9.812 -0.1035  0.6864  1.6374
  156SAPE   H2Y17380   3.342   0.966   9.771  1.1616 -0.0942  0.6038
  156SAPE   C2317381   3.649   0.454  10.095  0.2844  0.3658 -0.0352
  156SAPE   H3R17382   3.574   0.392  10.042  2.3427 -1.4871 -0.9139
  156SAPE   H3S17383   3.736   0.393  10.127 -0.1981  0.8542  2.3484
  156SAPE   C2417384   3.701   0.565  10.004 -0.1993  0.6494  0.1246
  156SAPE   H4R17385   3.756   0.636  10.068 -1.3069 -0.8167  2.8620
  156SAPE   H4S17386   3.620   0.627   9.958 -1.8158 -1.2419  0.2849
  156SAPE   C2517387   3.792   0.520   9.897 -0.1000 -0.0595  0.2378
  156SAPE   H5R17388   3.897   0.502   9.925 -0.6648 -2.1004  1.2583
  156SAPE   C2617389   3.766   0.506   9.764  0.2488  0.0857 -0.1206
  156SAPE   H6R17390   3.850   0.489   9.694 -1.5342 -2.3188 -1.8840
  156SAPE   C2717391   3.625   0.529   9.706  0.7001 -0.4636 -0.5621
  156SAPE   H7R17392   3.611   0.631   9.665 -2.4382  0.5832  2.6115
  156SAPE   H7S17393   3.551   0.535   9.788  1.2083 -1.3482 -0.0215
  156SAPE   C2817394   3.570   0.426   9.613  0.9294 -0.3538 -0.4942
  156SAPE   H8R17395   3.491   0.371   9.667  1.1872  0.3348  0.6120
  156SAPE   C2917396   3.609   0.399   9.491  0.1630  0.1914 -0.0114
  156SAPE   H9R17397   3.542   0.323   9.447  0.4595 -2.3119  3.5127
  156SAPE  C21017398   3.723   0.463   9.420  0.1002 -0.2905  0.0394
  156SAPE  H10R17399   3.767   0.549   9.475  1.0556 -0.7063 -0.0434
  156SAPE  H10S17400   3.701   0.504   9.319  0.8808  1.1771  0.4446
  156SAPE  C21117401   3.846   0.378   9.408  0.3430 -0.1383  0.4331
  156SAPE  H11R17402   3.827   0.283   9.460 -0.9756  0.7522  1.6791
  156SAPE  C21217403   3.958   0.408   9.335 -0.4035 -0.4169 -0.3048
  156SAPE  H12R17404   4.040   0.336   9.324  0.4390  0.4191  0.3305
  156SAPE  C21317405   3.992   0.534   9.257 -0.1171 -0.0904  0.7171
  156SAPE  H13R17406   4.078   0.582   9.308 -0.8495 -1.1867  3.1556
  156SAPE  H13S17407   3.903   0.601   9.260 -0.2819  0.2414 -4.1405
  156SAPE  C21417408   4.031   0.507   9.115  0.6038  0.0891  0.2136
  156SAPE  H14R17409   4.133   0.468   9.103  0.5734 -0.7545  2.2745
  156SAPE  C21517410   3.951   0.515   9.001  0.7630  0.3478 -0.5375
  156SAPE  H15R17411   3.994   0.488   8.903  0.6283  2.5436 -1.2595
  156SAPE  C21617412   3.808   0.555   8.994  0.5550  0.2555  0.5016
  156SAPE  H16R17413   3.796   0.623   8.907 -1.2194 -0.9213 -0.2332
  156SAPE  H16S17414   3.773   0.608   9.084  0.6197  1.2217 -0.0334
  156SAPE  C21717415   3.714   0.432   8.967 -0.6422 -0.4853 -0.1673
  156SAPE  H17R17416   3.613   0.472   8.943  0.0798  1.0961 -0.7620
  156SAPE  H17S17417   3.719   0.380   9.065  1.9583 -0.8452 -0.4209
  156SAPE  C21817418   3.762   0.342   8.855  0.2689  0.1709  0.4840
  156SAPE  H18R17419   3.869   0.316   8.868  0.0143 -1.9731 -1.1591
  156SAPE  H18S17420   3.747   0.389   8.756 -0.8672 -1.9990 -0.4390
  156SAPE  C21917421   3.690   0.208   8.858 -0.2432 -0.1125 -0.0924
  156SAPE  H19R17422   3.717   0.140   8.941 -1.5674 -2.5990 -1.5736
  156SAPE  H19S17423   3.703   0.146   8.767 -0.2589  0.6593 -0.6349
  156SAPE  C22017424   3.535   0.213   8.870 -0.1020  0.2238  0.1411
  156SAPE  H20R17425   3.497   0.275   8.953 -0.7281  0.4375 -0.3051
  156SAPE  H20S17426   3.502   0.107   8.865  1.1517 -0.1617 -0.6460
  156SAPE  H20T17427   3.493   0.260   8.779 -0.6521  0.3662  0.4677
  156SAPE   C3317428   3.276   0.786   9.671  0.1755 -0.4196  0.2305
  156SAPE   H3X17429   3.177   0.829   9.645  0.3746  1.8086  2.7190
  156SAPE   H3Y17430   3.267   0.678   9.694 -1.2690 -0.1959  0.8122
  156SAPE   C3417431   3.365   0.804   9.545 -0.6774  0.3485 -0.3741
  156SAPE   H4X17432   3.441   0.723   9.553 -0.3187  0.5336 -1.6618
  156SAPE   H4Y17433   3.416   0.902   9.532 -0.2525  0.2226  0.2514
  156SAPE   C3517434   3.292   0.766   9.409 -0.3590  0.2061 -0.2653
  156SAPE   H5X17435   3.223   0.848   9.380 -0.4373  0.3936  0.4320
  156SAPE   H5Y17436   3.220   0.683   9.428  0.5075 -0.3369  0.7815
  156SAPE   C3617437   3.396   0.754   9.292 -0.2054  0.8150  0.4110
  156SAPE   H6X17438   3.381   0.657   9.240 -1.3648  1.3630 -0.3098
  156SAPE   H6Y17439   3.502   0.741   9.325 -0.5483 -1.8257  0.7507
  156SAPE   C3717440   3.375   0.863   9.178  0.5131  0.3205 -0.7113
  156SAPE   H7X17441   3.392   0.966   9.216  0.3667  0.7355 -1.7333
  156SAPE   H7Y17442   3.272   0.846   9.140  0.5786 -0.7892 -0.4224
  156SAPE   C3817443   3.472   0.834   9.064 -0.6117  0.5897  0.1750
  156SAPE   H8X17444   3.443   0.897   8.977  0.0732  3.0645  1.6183
  156SAPE   H8Y17445   3.473   0.727   9.034 -1.9243  0.6528 -0.1806
  156SAPE   C3917446   3.619   0.863   9.106 -0.0051  0.5844 -0.2176
  156SAPE   H9X17447   3.700   0.851   9.031  0.5215 -0.8982  0.5427
  156SAPE   H9Y17448   3.655   0.797   9.188 -0.0434  0.6980 -0.1099
  156SAPE  C31017449   3.650   1.010   9.152 -0.4265  0.3453 -0.5879
  156SAPE  H10X17450   3.760   1.024   9.162 -0.4377 -0.0026  0.0885
  156SAPE  H10Y17451   3.605   1.031   9.251 -0.8573  0.5248 -0.8211
  156SAPE  C31117452   3.590   1.113   9.046  0.7727  0.3870 -0.2775
  156SAPE  H11X17453   3.607   1.210   9.097 -0.6462  0.1957  0.6337
  156SAPE  H11Y17454   3.480   1.114   9.065  1.0021 -0.1919  1.2884
  156SAPE  C31217455   3.660   1.127   8.915 -0.2894  0.3569  0.1276
  156SAPE  H12X17456   3.660   1.026   8.868  1.9933  0.6202 -0.5985
  156SAPE  H12Y17457   3.769   1.144   8.927 -0.0635 -1.0847  0.3353
  156SAPE  C31317458   3.595   1.233   8.826  0.3445  0.6195  0.2625
  156SAPE  H13X17459   3.486   1.213   8.832  0.4888 -0.4409 -0.3663
  156SAPE  H13Y17460   3.618   1.214   8.719  0.1459  1.1661  0.1151
  156SAPE  C31417461   3.637   1.376   8.854  0.0734 -0.0691 -0.3022
  156SAPE  H14X17462   3.621   1.397   8.962  2.8820  0.7738  0.0152
  156SAPE  H14Y17463   3.564   1.435   8.795  2.1761  1.6719 -1.2908
  156SAPE  C31517464   3.781   1.406   8.821  0.3784 -0.4032  0.0264
  156SAPE  H15X17465   3.801   1.356   8.724 -0.6482  0.4881 -0.6799
  156SAPE  H15Y17466   3.854   1.362   8.892 -0.7008  0.6130  1.8359
  156SAPE  C31617467   3.797   1.558   8.805 -0.4416 -0.1565  0.2297
  156SAPE  H16X17468   3.792   1.601   8.908  0.5874 -1.5678  0.9112
  156SAPE  H16Y17469   3.716   1.598   8.741 -0.8143 -0.5491  0.4454
  156SAPE  C31717470   3.939   1.590   8.755 -0.2672  0.9205  0.2774
  156SAPE  H17X17471   4.013   1.516   8.791 -0.2340  1.3162  1.0414
  156SAPE  H17Y17472   3.971   1.681   8.811  0.9900  0.6385  0.0398
  156SAPE  C31817473   3.952   1.615   8.604 -0.0712  0.7256 -0.2587
  156SAPE  H18X17474   4.044   1.671   8.576 -0.8763  2.6540  0.7279
  156SAPE  H18Y17475   3.870   1.676   8.559  0.1568  1.9653  0.9468
  156SAPE  H18Z17476   3.953   1.517   8.552  0.6688 -0.4873  1.9208
  157SAPE     N17477   1.357   0.146  11.084  0.1063  0.4971  0.0342
  157SAPE   HN117478   1.338   0.046  11.062 -3.1977  0.4077  2.4872
  157SAPE   HN217479   1.439   0.158  11.147  0.2387 -0.7461  0.1285
  157SAPE   HN317480   1.275   0.177  11.139  1.0908 -0.1549  1.9944
  157SAPE   C1217481   1.379   0.230  10.960 -0.6346 -0.2800 -0.2754
  157SAPE  H12A17482   1.428   0.318  11.005 -0.4205 -0.4804 -0.1155
  157SAPE  H12B17483   1.281   0.268  10.924 -0.3640  2.8194  1.8893
  157SAPE   C1117484   1.480   0.178  10.859  0.6850  0.2076  0.1402
  157SAPE  H11A17485   1.487   0.247  10.772  0.8835 -1.4474 -1.2066
  157SAPE  H11B17486   1.432   0.088  10.813  0.6418  0.9130 -1.2596
  157SAPE     P17487   1.710   0.070  10.838  0.1720  0.3022 -0.1166
  157SAPE   O1317488   1.844   0.081  10.899 -0.1569 -0.1066  0.3311
  157SAPE   O1417489   1.655  -0.062  10.806 -0.4504 -0.2397  0.1180
  157SAPE   O1217490   1.607   0.159  10.916  0.1187  0.0329 -0.0660
  157SAPE   O1117491   1.706   0.144  10.703  0.2874  0.6201  0.5431
  157SAPE    C117492   1.807   0.092  10.613 -0.0730 -0.1732 -0.4149
  157SAPE    HA17493   1.898   0.151  10.636 -0.8834  0.2601  1.9573
  157SAPE    HB17494   1.820  -0.019  10.616 -2.9562 -0.5679  1.5539
  157SAPE    C217495   1.769   0.131  10.470  0.2241 -0.3374  0.0016
  157SAPE    HS17496   1.842   0.095  10.393 -0.3140  1.5136 -1.4548
  157SAPE   O2117497   1.766   0.269  10.443 -0.5955  0.2035 -0.2081
  157SAPE   C2117498   1.885   0.333  10.433 -0.0145 -0.2052 -0.6724
  157SAPE   O2217499   1.995   0.278  10.428 -0.6806 -0.7316 -0.0083
  157SAPE   C2217500   1.847   0.484  10.444  0.2679  0.5125 -0.1303
  157SAPE   H2R17501   1.745   0.494  10.485  1.8190 -0.4965  4.6061
  157SAPE   H2S17502   1.916   0.532  10.517 -2.3456  1.6079  1.7679
  157SAPE    C317503   1.634   0.059  10.432 -0.1477  0.0195 -0.2500
  157SAPE    HX17504   1.564   0.104  10.506  2.6178  1.4444  1.6820
  157SAPE    HY17505   1.638  -0.050  10.452  1.3882 -0.1748 -1.3883
  157SAPE   O3117506   1.597   0.089  10.296  0.2461  0.1038  0.1095
  157SAPE   C3117507   1.628  -0.006  10.201 -0.1453 -1.1515 -0.6448
  157SAPE   O3217508   1.689  -0.108  10.222  0.5614  0.6214  0.3179
  157SAPE   C3217509   1.580   0.032  10.066  0.5227 -0.9826 -0.0918
  157SAPE   H2X17510   1.593   0.141  10.049  2.9604 -1.1648  0.2314
  157SAPE   H2Y17511   1.473   0.003  10.058  0.5871 -1.2903  0.1266
  157SAPE   C2317512   1.875   0.553  10.309  0.6488 -0.0808  0.9460
  157SAPE   H3R17513   1.977   0.529  10.274  0.1438  0.9884 -1.4462
  157SAPE   H3S17514   1.881   0.664  10.317  2.4335 -0.1145  0.3510
  157SAPE   C2417515   1.758   0.510  10.212 -0.6513  0.0540  0.2956
  157SAPE   H4R17516   1.663   0.507  10.269 -0.5361  2.1138  0.6448
  157SAPE   H4S17517   1.778   0.405  10.182 -1.1275 -0.1880  0.8205
  157SAPE   C2517518   1.738   0.594  10.086 -0.0107 -0.0435 -0.2785
  157SAPE   H5R17519   1.704   0.698  10.099 -0.3604 -0.2245  0.2689
  157SAPE   C2617520   1.767   0.551   9.964  0.5916 -0.5938 -0.1261
  157SAPE   H6R17521   1.729   0.619   9.887  0.4572 -0.8422 -0.2829
  157SAPE   C2717522   1.833   0.421   9.913 -0.1961 -0.3528  0.2198
  157SAPE   H7R17523   1.833   0.338   9.986  0.3135  0.8246  1.6247
  157SAPE   H7S17524   1.943   0.433   9.905 -0.2165  2.3971  2.3216
  157SAPE   C2817525   1.774   0.379   9.779  0.4102  0.5100  0.8293
  157SAPE   H8R17526   1.705   0.294   9.786  1.6394 -0.3929  3.6013
  157SAPE   C2917527   1.798   0.434   9.661  0.3698 -0.4325  0.2718
  157SAPE   H9R17528   1.745   0.409   9.568  1.5572 -3.1553  0.2182
  157SAPE  C21017529   1.884   0.559   9.660  0.0497  0.0873 -0.0790
  157SAPE  H10R17530   1.966   0.550   9.586 -0.9690  1.1409 -1.3770
  157SAPE  H10S17531   1.928   0.585   9.759  2.0361 -0.5270 -0.7610
  157SAPE  C21117532   1.814   0.681   9.605  0.3301 -0.1912 -0.4053
  157SAPE  H11R17533   1.781   0.749   9.685  4.3936  2.7704 -0.9500
  157SAPE  C21217534   1.784   0.721   9.482 -0.6877  0.5427  0.5931
  157SAPE  H12R17535   1.734   0.819   9.478  1.0861  1.5380  1.5068
  157SAPE  C21317536   1.815   0.646   9.347 -0.1384 -0.0655 -0.2381
  157SAPE  H13R17537   1.718   0.611   9.306 -0.9867 -0.1737  1.7245
  157SAPE  H13S17538   1.868   0.553   9.375 -1.1375 -0.4133  0.5839
  157SAPE  C21417539   1.880   0.735   9.243 -0.3769  0.1805  0.0611
  157SAPE  H14R17540   1.978   0.703   9.206  0.1515  3.1093 -1.4495
  157SAPE  C21517541   1.825   0.835   9.171  0.5569 -0.2094 -0.9052
  157SAPE  H15R17542   1.889   0.884   9.096 -0.6509  0.2493 -1.6638
  157SAPE  C21617543   1.683   0.879   9.179 -0.2642 -0.3113  0.0853
  157SAPE  H16R17544   1.674   0.922   9.281 -1.9518 -2.9965  1.1731
  157SAPE  H16S17545   1.618   0.790   9.167 -0.8999  0.3035 -1.2040
  157SAPE  C21717546   1.643   0.980   9.076  0.6221  0.3036 -0.5163
  157SAPE  H17R17547   1.534   1.004   9.077  0.3160 -0.9829 -0.1204
  157SAPE  H17S17548   1.662   0.949   8.971 -1.8936  0.5159 -1.0906
  157SAPE  C21817549   1.706   1.113   9.102  0.2009 -0.7420 -0.1895
  157SAPE  H18R17550   1.813   1.107   9.072  0.5325  2.7618 -0.1970
  157SAPE  H18S17551   1.697   1.141   9.209 -2.8156 -2.4160  0.1001
  157SAPE  C21917552   1.659   1.228   9.015 -0.4198 -0.1552  0.5164
  157SAPE  H19R17553   1.615   1.316   9.066 -0.1847  0.5492 -0.4654
  157SAPE  H19S17554   1.581   1.196   8.943 -1.3992  1.1133  0.9738
  157SAPE  C22017555   1.772   1.285   8.921  0.1601  0.1878  1.1104
  157SAPE  H20R17556   1.735   1.376   8.867 -0.2146 -0.0723  0.9248
  157SAPE  H20S17557   1.795   1.203   8.849 -0.4976  0.5775  0.4381
  157SAPE  H20T17558   1.860   1.317   8.980 -0.9244 -0.1307  2.9580
  157SAPE   C3317559   1.665  -0.034   9.950  0.0669  0.7262  0.3259
  157SAPE   H3X17560   1.656  -0.144   9.962 -0.5415  0.4249 -2.3213
  157SAPE   H3Y17561   1.771  -0.000   9.954  0.0205  1.4712 -2.6321
  157SAPE   C3417562   1.600   0.009   9.815 -0.0709 -0.4214  0.1053
  157SAPE   H4X17563   1.571   0.116   9.817 -0.6857 -0.5856  1.0481
  157SAPE   H4Y17564   1.506  -0.050   9.810 -0.4890  0.0543  1.5597
  157SAPE   C3517565   1.691  -0.035   9.703 -0.1699 -0.6194  0.2292
  157SAPE   H5X17566   1.677  -0.144   9.689  0.2300 -0.6394 -0.0381
  157SAPE   H5Y17567   1.798  -0.006   9.708 -0.7558  1.9593 -0.4916
  157SAPE   C3617568   1.642   0.017   9.563 -0.1347 -0.1183 -0.1353
  157SAPE   H6X17569   1.577   0.106   9.576 -0.0836 -0.3061  1.7400
  157SAPE   H6Y17570   1.609  -0.068   9.500  2.3374  0.6591 -2.6872
  157SAPE   C3717571   1.767   0.071   9.483 -0.0442  0.0164 -0.1133
  157SAPE   H7X17572   1.841  -0.009   9.461  0.5661  0.0959  1.4748
  157SAPE   H7Y17573   1.815   0.152   9.543 -0.8639 -1.5300  2.8562
  157SAPE   C3817574   1.720   0.128   9.347  0.1099  0.2477  0.0494
  157SAPE   H8X17575   1.653   0.215   9.366 -1.6184 -1.3148  1.5912
  157SAPE   H8Y17576   1.659   0.047   9.301  1.5657  0.0881 -1.7006
  157SAPE   C3917577   1.838   0.171   9.259  0.5201 -0.0088 -0.4037
  157SAPE   H9X17578   1.888   0.077   9.228  0.6920 -0.1604  0.3098
  157SAPE   H9Y17579   1.914   0.235   9.308 -0.4735  1.1148 -0.2811
  157SAPE  C31017580   1.795   0.258   9.133 -0.4188  0.4522  0.1597
  157SAPE  H10X17581   1.794   0.360   9.178  1.0809  0.5411  0.0211
  157SAPE  H10Y17582   1.691   0.232   9.102 -0.4626 -0.5080  1.0501
  157SAPE  C31117583   1.872   0.243   8.999 -0.0752 -0.0190 -0.6101
  157SAPE  H11X17584   1.853   0.333   8.937  0.9259  1.2704  0.8855
  157SAPE  H11Y17585   1.838   0.149   8.950  1.5048 -1.7290  1.3628
  157SAPE  C31217586   2.024   0.234   9.005 -0.1178  0.1988  0.0225
  157SAPE  H12X17587   2.077   0.209   8.911 -0.9025  0.5373 -0.5197
  157SAPE  H12Y17588   2.066   0.156   9.072 -0.6800  0.1577  0.3346
  157SAPE  C31317589   2.090   0.368   9.038 -0.0430 -0.1015 -0.8171
  157SAPE  H13X17590   2.196   0.351   9.069 -0.4928 -1.8431 -0.1422
  157SAPE  H13Y17591   2.037   0.406   9.128 -2.4261 -2.2289 -1.2256
  157SAPE  C31417592   2.067   0.475   8.924 -0.9305 -0.3411  0.6205
  157SAPE  H14X17593   1.961   0.507   8.914 -0.2160  2.1888  0.3791
  157SAPE  H14Y17594   2.088   0.440   8.821  1.0077  2.7394 -0.1759
  157SAPE  C31517595   2.152   0.600   8.949 -0.0318  0.1141  0.0172
  157SAPE  H15X17596   2.260   0.579   8.939 -0.4515 -1.8991 -0.9365
  157SAPE  H15Y17597   2.136   0.643   9.050 -2.8213 -1.2820  0.2932
  157SAPE  C31617598   2.137   0.710   8.836 -0.5497  0.1649 -0.8741
  157SAPE  H16X17599   2.183   0.671   8.743  1.1888  2.7491 -1.1685
  157SAPE  H16Y17600   2.201   0.794   8.869 -1.6032  0.9559 -0.7657
  157SAPE  C31717601   2.000   0.762   8.808 -0.3951 -0.0099  0.0669
  157SAPE  H17X17602   1.945   0.760   8.905  1.3323 -0.5584  1.0792
  157SAPE  H17Y17603   1.953   0.695   8.733 -1.0550  1.1263 -0.5596
  157SAPE  C31817604   1.996   0.909   8.746 -0.2661  0.0862  0.0681
  157SAPE  H18X17605   2.044   0.978   8.818  0.6768 -0.6615  0.1694
  157SAPE  H18Y17606   1.891   0.944   8.748 -0.5282 -0.6948  0.6172
  157SAPE  H18Z17607   2.036   0.912   8.642 -0.4390  0.9664  0.0174
  158SAPE     N17608   2.474   1.104  11.192  0.3460  0.0883 -0.0566
  158SAPE   HN117609   2.551   1.131  11.127 -0.7930  2.5069 -0.4931
  158SAPE   HN217610   2.429   1.195  11.213  0.5623  0.3720 -0.7996
  158SAPE   HN317611   2.523   1.067  11.276  1.2466 -0.7067 -0.8937
  158SAPE   C1217612   2.380   1.002  11.131 -0.2522  1.1937 -0.8968
  158SAPE  H12A17613   2.368   1.022  11.022 -0.2237 -0.2212 -1.1716
  158SAPE  H12B17614   2.288   1.018  11.191  1.1833  0.9965  1.4734
  158SAPE   C1117615   2.436   0.857  11.156  0.0096  0.1752 -0.3073
  158SAPE  H11A17616   2.361   0.778  11.134  0.4876 -0.0628 -1.1406
  158SAPE  H11B17617   2.458   0.847  11.264  2.0673  0.5747 -0.6395
  158SAPE     P17618   2.562   0.786  10.934 -0.4557 -0.2523  0.5595
  158SAPE   O1317619   2.680   0.831  10.853  0.7654  0.3474 -0.3550
  158SAPE   O1417620   2.554   0.640  10.948  0.1517  0.0608 -0.5733
  158SAPE   O1217621   2.556   0.837  11.082 -0.3385 -0.5193 -0.2508
  158SAPE   O1117622   2.429   0.851  10.876 -0.4957  0.3199  0.3125
  158SAPE    C117623   2.339   0.770  10.801  0.7255  0.8121  0.1465
  158SAPE    HA17624   2.301   0.685  10.862 -1.1451  1.2717 -0.3035
  158SAPE    HB17625   2.247   0.831  10.790  0.0449 -0.4430 -1.5498
  158SAPE    C217626   2.385   0.718  10.661 -0.1402  0.9255  0.5620
  158SAPE    HS17627   2.469   0.648  10.681 -0.4465  1.0352  2.3326
  158SAPE   O2117628   2.414   0.820  10.571 -0.3185 -0.8563 -0.1264
  158SAPE   C2117629   2.521   0.819  10.496  0.4744  0.2307  0.5778
  158SAPE   O2217630   2.619   0.747  10.511  0.2800  0.0287  0.0241
  158SAPE   C2217631   2.498   0.931  10.385 -0.3560 -0.3397 -0.1893
  158SAPE   H2R17632   2.394   0.967  10.402 -1.1557 -2.8226  0.5539
  158SAPE   H2S17633   2.572   1.015  10.386 -1.7760  0.9635  0.7168
  158SAPE    C317634   2.273   0.630  10.592 -0.0069  0.4039  0.0976
  158SAPE    HX17635   2.190   0.695  10.556  0.5086  0.6669 -0.6435
  158SAPE    HY17636   2.224   0.569  10.671 -4.3503 -0.7765 -3.1064
  158SAPE   O3117637   2.330   0.534  10.495  0.1166 -0.5791  0.5640
  158SAPE   C3117638   2.288   0.546  10.377 -0.3786  1.1088  0.8849
  158SAPE   O3217639   2.219   0.637  10.338 -0.6097  0.3069  0.0033
  158SAPE   C3217640   2.356   0.444  10.279 -0.1989  0.5671  0.4692
  158SAPE   H2X17641   2.321   0.344  10.312  1.4035  0.0319  0.5803
  158SAPE   H2Y17642   2.466   0.451  10.289 -0.0303  3.6630 -1.9080
  158SAPE   C2317643   2.494   0.869  10.246  0.3057 -0.2116 -0.2970
  158SAPE   H3R17644   2.400   0.812  10.232  0.2457  0.4598 -3.2553
  158SAPE   H3S17645   2.583   0.804  10.235 -0.2516 -1.0715  0.2029
  158SAPE   C2417646   2.493   0.971  10.128  0.0760  0.2780 -0.5469
  158SAPE   H4R17647   2.576   1.042  10.148  0.7720 -0.8300  0.6847
  158SAPE   H4S17648   2.400   1.031  10.127 -1.2772 -1.4445  3.3785
  158SAPE   C2517649   2.518   0.893   9.997  0.1706  0.9353 -0.0150
  158SAPE   H5R17650   2.531   0.784   9.999 -3.6582  0.2882 -1.3571
  158SAPE   C2617651   2.494   0.944   9.876 -0.6624 -0.0501  0.2462
  158SAPE   H6R17652   2.514   0.884   9.786  1.2969  0.3487  0.3693
  158SAPE   C2717653   2.453   1.079   9.833 -0.0538 -0.5062 -0.3522
  158SAPE   H7R17654   2.409   1.141   9.914 -0.8603  0.2374 -1.3303
  158SAPE   H7S17655   2.371   1.081   9.759 -0.0782 -1.2654 -0.3440
  158SAPE   C2817656   2.579   1.157   9.784 -0.7344  0.0424 -0.0347
  158SAPE   H8R17657   2.678   1.147   9.831  0.1050 -1.1200 -1.9567
  158SAPE   C2917658   2.576   1.241   9.676 -0.7055  0.2057 -1.3458
  158SAPE   H9R17659   2.673   1.291   9.660  0.0502 -1.0230 -0.7356
  158SAPE  C21017660   2.463   1.270   9.586 -0.1666  0.4619  0.2275
  158SAPE  H10R17661   2.456   1.380   9.581  1.0357  0.6305  1.5376
  158SAPE  H10S17662   2.367   1.235   9.628  0.4918 -1.2967  0.3612
  158SAPE  C21117663   2.491   1.231   9.438 -0.1618  0.2403  0.0284
  158SAPE  H11R17664   2.421   1.153   9.406  1.1623 -1.2822  0.7269
  158SAPE  C21217665   2.573   1.279   9.343 -1.0595 -0.1510 -0.9232
  158SAPE  H12R17666   2.563   1.243   9.239 -4.0069  1.5189 -1.3391
  158SAPE  C21317667   2.669   1.390   9.373 -0.1474  0.5544  0.1190
  158SAPE  H13R17668   2.678   1.420   9.479  3.0277 -0.4229  0.2454
  158SAPE  H13S17669   2.635   1.480   9.317 -0.3130  0.8560  0.6975
  158SAPE  C21417670   2.807   1.348   9.324 -0.1152  0.0379 -0.4217
  158SAPE  H14R17671   2.836   1.254   9.373  0.6469  1.3674  1.8528
  158SAPE  C21517672   2.896   1.421   9.248 -0.5389 -0.3655 -0.5483
  158SAPE  H15R17673   2.995   1.379   9.225  0.6787  0.6388  2.3476
  158SAPE  C21617674   2.877   1.559   9.198  0.2630 -0.0191  0.5710
  158SAPE  H16R17675   2.961   1.629   9.214 -0.7446  0.9561  1.8754
  158SAPE  H16S17676   2.784   1.603   9.243  0.6431  2.1172 -0.5807
  158SAPE  C21717677   2.838   1.568   9.043 -0.0606  0.2107  0.2348
  158SAPE  H17R17678   2.918   1.547   8.969 -0.8038  0.5101 -0.6723
  158SAPE  H17S17679   2.819   1.677   9.031 -0.9570 -0.0132 -0.4300
  158SAPE  C21817680   2.716   1.495   9.004 -0.0316 -0.1443 -0.1410
  158SAPE  H18R17681   2.630   1.560   9.031  0.6555  0.5009  0.5507
  158SAPE  H18S17682   2.705   1.404   9.067 -0.9336 -0.5057 -0.8064
  158SAPE  C21917683   2.713   1.460   8.857  0.0948 -0.0846  0.7335
  158SAPE  H19R17684   2.630   1.390   8.833  0.6576  0.0408 -1.8614
  158SAPE  H19S17685   2.807   1.406   8.833 -0.2321 -0.3754  0.0728
  158SAPE  C22017686   2.710   1.582   8.760 -0.2866 -0.1970 -0.3241
  158SAPE  H20R17687   2.606   1.622   8.764 -0.5845 -0.6317 -2.7113
  158SAPE  H20S17688   2.728   1.553   8.655  1.1309 -0.8251  0.0649
  158SAPE  H20T17689   2.792   1.654   8.779 -0.9812  0.2404  1.2590
  158SAPE   C3317690   2.312   0.477  10.134 -0.4904 -0.7383  0.0752
  158SAPE   H3X17691   2.330   0.579  10.094 -2.2424 -0.9865 -1.4782
  158SAPE   H3Y17692   2.202   0.461  10.131 -0.2429 -2.7707 -2.5708
  158SAPE   C3417693   2.375   0.394  10.029  0.2768 -0.2139 -0.0313
  158SAPE   H4X17694   2.367   0.290  10.067  1.0170 -0.7756 -1.3563
  158SAPE   H4Y17695   2.483   0.413  10.010  0.4578  0.1621  1.2708
  158SAPE   C3517696   2.311   0.411   9.887  0.1383  0.0740 -0.0446
  158SAPE   H5X17697   2.201   0.417   9.881  0.0526 -1.0124  0.2204
  158SAPE   H5Y17698   2.347   0.316   9.842  0.1400 -0.1958  0.5147
  158SAPE   C3617699   2.358   0.532   9.807 -0.3792  0.6244  0.0035
  158SAPE   H6X17700   2.459   0.499   9.774 -0.7000  0.3420 -0.7234
  158SAPE   H6Y17701   2.377   0.630   9.856  1.5680  0.1186  0.3491
  158SAPE   C3717702   2.288   0.534   9.667 -0.1354 -0.0997  0.0849
  158SAPE   H7X17703   2.180   0.537   9.694 -0.2609 -1.5832 -0.1786
  158SAPE   H7Y17704   2.311   0.442   9.609 -1.9501 -1.2261  1.0746
  158SAPE   C3817705   2.323   0.648   9.568 -0.0550  0.2993  0.5209
  158SAPE   H8X17706   2.426   0.629   9.532 -0.4001  2.1627 -1.6750
  158SAPE   H8Y17707   2.325   0.741   9.628  1.6336  0.0197  0.9446
  158SAPE   C3917708   2.225   0.660   9.447 -1.0735 -0.6574  1.0375
  158SAPE   H9X17709   2.121   0.645   9.484 -0.8388  1.4191  2.7348
  158SAPE   H9Y17710   2.248   0.581   9.373  3.1888  2.1559 -1.0355
  158SAPE  C31017711   2.253   0.799   9.371  0.4235  0.5446  0.2618
  158SAPE  H10X17712   2.251   0.889   9.436 -0.8782  0.7141  0.0090
  158SAPE  H10Y17713   2.168   0.819   9.302 -0.6645  1.7170  1.8937
  158SAPE  C31117714   2.384   0.809   9.299  0.0112 -0.8081 -0.2287
  158SAPE  H11X17715   2.405   0.710   9.252  2.2046  0.2247 -1.6081
  158SAPE  H11Y17716   2.470   0.818   9.369  0.8242  0.3122 -1.3375
  158SAPE  C31217717   2.383   0.918   9.194 -0.1201  0.4095 -0.0399
  158SAPE  H12X17718   2.373   1.018   9.242 -1.7753 -0.0804  0.7519
  158SAPE  H12Y17719   2.289   0.901   9.137 -0.4670 -2.6743  1.2617
  158SAPE  C31317720   2.503   0.916   9.094  0.5951 -0.1666  0.4703
  158SAPE  H13X17721   2.470   0.824   9.042  1.4454  0.0486 -0.4873
  158SAPE  H13Y17722   2.603   0.909   9.143 -0.4336  0.6253  2.8241
  158SAPE  C31417723   2.483   1.041   9.003  1.0483  0.7203  0.0973
  158SAPE  H14X17724   2.543   1.122   9.050  1.4116  1.5022 -1.5994
  158SAPE  H14Y17725   2.376   1.066   8.989  0.4655 -1.4046  0.4698
  158SAPE  C31517726   2.543   1.026   8.860 -0.3937  0.6086 -0.3204
  158SAPE  H15X17727   2.493   0.937   8.816 -2.1549 -0.5700  3.6007
  158SAPE  H15Y17728   2.654   1.029   8.865 -0.4169  2.6369 -0.1998
  158SAPE  C31617729   2.502   1.147   8.773 -1.3325  0.3558  0.2917
  158SAPE  H16X17730   2.510   1.236   8.839 -1.0516 -0.4382  1.3555
  158SAPE  H16Y17731   2.395   1.145   8.743 -1.3667  1.2554  0.3326
  158SAPE  C31717732   2.592   1.154   8.649  0.8033 -0.4164 -0.0580
  158SAPE  H17X17733   2.594   1.062   8.587  1.6331 -0.0034 -0.6681
  158SAPE  H17Y17734   2.698   1.163   8.681  0.6854  0.6959  0.0613
  158SAPE  C31817735   2.549   1.279   8.561 -0.4584 -0.0855  0.3338
  158SAPE  H18X17736   2.448   1.260   8.518 -0.3801 -1.6866  0.8205
  158SAPE  H18Y17737   2.629   1.288   8.484  1.0509  0.5804  1.9048
  158SAPE  H18Z17738   2.550   1.377   8.614 -1.6708  0.7574 -1.1227
  159SAPE     N17739   0.706   0.195   6.165  0.0301 -0.0828 -0.0252
  159SAPE   HN117740   0.773   0.275   6.163  0.0672 -0.1311 -1.1235
  159SAPE   HN217741   0.746   0.118   6.108 -0.3321 -0.1246 -0.2245
  159SAPE   HN317742   0.617   0.234   6.128  1.1868  2.7708 -0.0800
  159SAPE   C1217743   0.686   0.151   6.311 -0.8962 -0.4800 -0.2969
  159SAPE  H12A17744   0.778   0.107   6.356  0.1440  1.9152  0.1169
  159SAPE  H12B17745   0.608   0.073   6.310 -0.1875 -1.2808  1.4101
  159SAPE   C1117746   0.642   0.266   6.398 -0.0024 -0.2916  0.0594
  159SAPE  H11A17747   0.615   0.236   6.502 -0.8976  0.0205 -0.0752
  159SAPE  H11B17748   0.539   0.296   6.367  0.3317 -0.1067 -0.8969
  159SAPE     P17749   0.878   0.376   6.460 -0.0437  0.0660 -0.3230
  159SAPE   O1317750   0.940   0.241   6.439 -0.4284  0.5580  0.3579
  159SAPE   O1417751   0.949   0.498   6.423 -0.9309  0.1772 -0.0160
  159SAPE   O1217752   0.732   0.378   6.403  0.4101  0.1804  0.0192
  159SAPE   O1117753   0.845   0.388   6.616 -0.3329 -0.0641 -0.1882
  159SAPE    C117754   0.740   0.473   6.661 -0.2264 -0.2689  0.0524
  159SAPE    HA17755   0.724   0.552   6.584  1.6448  1.4900  1.3566
  159SAPE    HB17756   0.648   0.419   6.692 -0.3658  0.1510  0.3845
  159SAPE    C217757   0.793   0.545   6.791  1.0292 -0.4704 -0.0167
  159SAPE    HS17758   0.810   0.480   6.879  1.5267  0.1870  0.3822
  159SAPE   O2117759   0.703   0.655   6.818 -0.0194 -0.2298 -0.0595
  159SAPE   C2117760   0.603   0.629   6.892 -0.1945  0.3347  0.3709
  159SAPE   O2217761   0.566   0.521   6.940 -0.3733 -0.0507  0.5639
  159SAPE   C2217762   0.521   0.765   6.922 -0.4175  0.6740 -0.2082
  159SAPE   H2R17763   0.495   0.815   6.827  0.4650  2.8326  0.6200
  159SAPE   H2S17764   0.431   0.729   6.976  0.8392  0.3916  1.7963
  159SAPE    C317765   0.934   0.599   6.764  0.0429 -0.4264 -0.1418
  159SAPE    HX17766   0.931   0.655   6.668  1.3453 -0.6862 -0.3600
  159SAPE    HY17767   1.001   0.512   6.744  0.7660 -0.3923  1.8497
  159SAPE   O3117768   0.988   0.678   6.875 -0.0872 -0.3593  0.1253
  159SAPE   C3117769   1.069   0.610   6.961 -0.3556 -0.7390  0.1888
  159SAPE   O3217770   1.081   0.487   6.959  0.4111 -0.2239 -0.1527
  159SAPE   C3217771   1.130   0.696   7.067 -0.8134  0.6162  0.8687
  159SAPE   H2X17772   1.139   0.802   7.034  0.9135 -0.6175 -3.3919
  159SAPE   H2Y17773   1.234   0.660   7.079 -0.2489  0.4158 -3.2028
  159SAPE   C2317774   0.604   0.873   7.006  0.4825  0.0949 -0.2668
  159SAPE   H3R17775   0.529   0.955   7.000 -1.5590 -1.7977 -2.2796
  159SAPE   H3S17776   0.699   0.894   6.952  1.8490 -1.9108  1.2338
  159SAPE   C2417777   0.630   0.828   7.148  0.2155 -0.8220 -0.1701
  159SAPE   H4R17778   0.673   0.726   7.140  2.3858  0.1364 -1.5126
  159SAPE   H4S17779   0.530   0.818   7.196  1.1409 -0.5751  1.9145
  159SAPE   C2517780   0.716   0.927   7.220 -0.4726  0.7526  0.0795
  159SAPE   H5R17781   0.793   0.972   7.156  0.7619 -2.2543 -0.7519
  159SAPE   C2617782   0.700   0.965   7.345  0.1964 -0.4786 -0.4970
  159SAPE   H6R17783   0.765   1.046   7.382  0.5132  0.9492 -3.8100
  159SAPE   C2717784   0.594   0.926   7.442  0.4191  0.0028 -0.4733
  159SAPE   H7R17785   0.507   0.882   7.388 -0.1159 -0.5949  0.8108
  159SAPE   H7S17786   0.561   1.018   7.497 -0.1338 -0.1743 -0.5004
  159SAPE   C2817787   0.629   0.823   7.548  0.0679 -0.2883 -0.1727
  159SAPE   H8R17788   0.671   0.727   7.514 -0.8409 -0.4690 -0.7962
  159SAPE   C2917789   0.612   0.838   7.681  0.8533 -0.1583  0.8939
  159SAPE   H9R17790   0.646   0.760   7.750  2.1956  1.0191  1.6278
  159SAPE  C21017791   0.550   0.956   7.753  0.1900 -0.0006  0.9618
  159SAPE  H10R17792   0.537   1.046   7.688  0.0900 -0.8924 -0.2792
  159SAPE  H10S17793   0.624   0.993   7.827 -1.4383 -0.6736  3.0277
  159SAPE  C21117794   0.415   0.916   7.814 -0.0233  0.6841 -0.1611
  159SAPE  H11R17795   0.339   0.884   7.741  1.0468  1.1195 -1.5243
  159SAPE  C21217796   0.387   0.920   7.946  0.2775 -0.7629 -0.0601
  159SAPE  H12R17797   0.286   0.886   7.974  0.5997 -2.7954 -1.2030
  159SAPE  C21317798   0.471   0.966   8.058 -0.1588 -0.1798  0.5648
  159SAPE  H13R17799   0.578   0.975   8.027 -0.5868  2.9126 -0.4388
  159SAPE  H13S17800   0.463   0.894   8.141 -2.1562  1.5052  1.9341
  159SAPE  C21417801   0.440   1.114   8.100 -0.2461  0.4121  0.5353
  159SAPE  H14R17802   0.470   1.192   8.027  1.2729 -0.0229  0.6548
  159SAPE  C21517803   0.409   1.150   8.222  0.0640 -0.4577 -0.4474
  159SAPE  H15R17804   0.411   1.260   8.231 -0.0666 -0.4631 -0.3462
  159SAPE  C21617805   0.385   1.063   8.344 -0.3151  0.4645 -0.7463
  159SAPE  H16R17806   0.368   0.956   8.323 -1.9245  0.6985 -0.7692
  159SAPE  H16S17807   0.295   1.092   8.403  0.6127  1.3165  0.3216
  159SAPE  C21717808   0.514   1.069   8.436  0.1665  0.3762  0.4349
  159SAPE  H17R17809   0.532   1.174   8.467  0.4021  0.2785  0.6375
  159SAPE  H17S17810   0.604   1.053   8.373  0.4044 -1.1505  1.1195
  159SAPE  C21817811   0.521   0.979   8.556 -0.4295  0.0727 -0.1754
  159SAPE  H18R17812   0.496   0.877   8.520  2.1476 -0.8235  0.3280
  159SAPE  H18S17813   0.454   1.005   8.640  1.2910 -1.9328  1.9406
  159SAPE  C21917814   0.660   0.960   8.615  0.2201 -0.1754 -1.0222
  159SAPE  H19R17815   0.708   1.057   8.643 -1.0322 -0.0514  0.9125
  159SAPE  H19S17816   0.725   0.905   8.543 -1.4598 -2.7938 -0.6566
  159SAPE  C22017817   0.655   0.872   8.745  0.4316 -0.6668 -0.0875
  159SAPE  H20R17818   0.611   0.772   8.725 -1.3742 -0.0984  0.8562
  159SAPE  H20S17819   0.594   0.928   8.819 -0.0929  1.6649 -2.1422
  159SAPE  H20T17820   0.759   0.850   8.779 -0.6716 -3.0339  2.0651
  159SAPE   C3317821   1.043   0.686   7.192  0.0159  0.2917 -0.3700
  159SAPE   H3X17822   1.025   0.580   7.220  0.2850  0.4130  0.2739
  159SAPE   H3Y17823   0.944   0.734   7.175 -0.0185  1.4118  2.4099
  159SAPE   C3417824   1.106   0.745   7.313  0.6020 -0.1618  0.4594
  159SAPE   H4X17825   1.120   0.853   7.293 -2.8223  0.4687  0.8091
  159SAPE   H4Y17826   1.200   0.689   7.331  0.2556 -1.9663 -2.6058
  159SAPE   C3517827   1.020   0.741   7.433  0.0950  0.0187 -0.5760
  159SAPE   H5X17828   0.984   0.637   7.447 -0.4134  0.3899  1.0399
  159SAPE   H5Y17829   0.929   0.802   7.411  1.8705  3.5968  1.2354
  159SAPE   C3617830   1.083   0.787   7.563  0.1376  0.0032  0.2341
  159SAPE   H6X17831   1.140   0.880   7.543 -0.0808  0.1826  0.4423
  159SAPE   H6Y17832   1.163   0.720   7.601 -1.4334 -0.8443  2.2669
  159SAPE   C3717833   0.984   0.796   7.681 -0.1503 -0.1252 -0.7291
  159SAPE   H7X17834   0.928   0.700   7.677 -0.4718 -0.0462  1.0735
  159SAPE   H7Y17835   0.921   0.888   7.671  2.1684  1.7058  0.5163
  159SAPE   C3817836   1.053   0.815   7.816 -0.5214  0.1781  0.9644
  159SAPE   H8X17837   1.100   0.914   7.835  0.8165 -0.2651  0.0695
  159SAPE   H8Y17838   1.129   0.734   7.816 -2.9985 -2.2934  0.5057
  159SAPE   C3917839   0.962   0.774   7.934 -0.5829  0.4783  0.1801
  159SAPE   H9X17840   0.984   0.671   7.968 -0.7359  0.0128 -1.1117
  159SAPE   H9Y17841   0.857   0.775   7.900 -0.7233 -0.9364  0.5229
  159SAPE  C31017842   0.983   0.859   8.063  0.1283 -0.7595 -0.1074
  159SAPE  H10X17843   0.934   0.957   8.044  2.1908  0.2016 -0.7503
  159SAPE  H10Y17844   1.092   0.873   8.081  0.1560 -0.6104 -0.3848
  159SAPE  C31117845   0.910   0.799   8.188 -0.0419  0.0287 -0.0916
  159SAPE  H11X17846   0.955   0.701   8.215 -0.7018 -0.0886  0.6285
  159SAPE  H11Y17847   0.809   0.760   8.162  0.9300 -1.1003 -2.4470
  159SAPE  C31217848   0.918   0.889   8.315  0.2768 -0.3904 -0.7662
  159SAPE  H12X17849   0.839   0.848   8.382  1.2901  0.6415  1.1409
  159SAPE  H12Y17850   0.892   0.992   8.285 -0.4061 -0.3997 -0.2117
  159SAPE  C31317851   1.051   0.875   8.389  0.2679 -0.3617  0.0323
  159SAPE  H13X17852   1.124   0.934   8.330  1.3413  0.5689  2.1947
  159SAPE  H13Y17853   1.074   0.768   8.408 -0.3152 -0.3244  0.9970
  159SAPE  C31417854   1.045   0.949   8.529  1.2030 -0.2572 -0.1282
  159SAPE  H14X17855   1.001   0.877   8.601  0.4742 -1.0164 -1.2902
  159SAPE  H14Y17856   0.989   1.044   8.516  1.5169  0.1450  1.3044
  159SAPE  C31517857   1.176   0.989   8.594 -0.3796  0.1578 -0.2710
  159SAPE  H15X17858   1.164   1.030   8.697 -0.9968 -1.7083  0.4393
  159SAPE  H15Y17859   1.210   1.076   8.533  1.8495  1.0159  1.9902
  159SAPE  C31617860   1.276   0.874   8.600  0.1092 -0.0307  0.2579
  159SAPE  H16X17861   1.289   0.826   8.500  3.4191 -3.2207  1.9970
  159SAPE  H16Y17862   1.242   0.792   8.666 -0.5477 -1.5226 -1.8219
  159SAPE  C31717863   1.418   0.912   8.650  0.1823 -0.8665 -0.4582
  159SAPE  H17X17864   1.409   0.978   8.738  1.3651 -1.7353  0.3530
  159SAPE  H17Y17865   1.461   0.964   8.562  1.3557  0.4379  0.8296
  159SAPE  C31817866   1.505   0.786   8.678  0.0776  0.9175  0.3442
  159SAPE  H18X17867   1.448   0.712   8.738 -1.0961  0.3356 -1.4460
  159SAPE  H18Y17868   1.596   0.823   8.730  0.2554  1.5398 -0.3997
  159SAPE  H18Z17869   1.528   0.746   8.578 -2.8380  0.0066 -0.0395
  160SAPE     N17870   5.291   1.080   6.512 -0.5980  0.0506  0.3110
  160SAPE   HN117871   5.240   0.992   6.530  0.8664 -0.7543  0.6913
  160SAPE   HN217872   5.238   1.144   6.448 -0.5744  1.6363  1.7985
  160SAPE   HN317873   5.384   1.051   6.476  0.2158  0.7495  1.7560
  160SAPE   C1217874   5.312   1.163   6.637  0.3808 -0.4070  0.0763
  160SAPE  H12A17875   5.366   1.256   6.606 -0.5163 -0.2759 -1.1625
  160SAPE  H12B17876   5.375   1.112   6.713  1.1204  0.8114  0.3070
  160SAPE   C1117877   5.173   1.182   6.705 -0.4782  0.4704 -0.7524
  160SAPE  H11A17878   5.171   1.249   6.793  0.3401 -0.2445 -0.1780
  160SAPE  H11B17879   5.146   1.081   6.742  0.5636 -0.1396 -1.6042
  160SAPE     P17880   5.017   1.342   6.595 -0.5865  0.0118 -0.5747
  160SAPE   O1317881   5.135   1.418   6.547 -0.1382 -0.4828 -0.0901
  160SAPE   O1417882   4.893   1.337   6.509 -0.2242  0.6715 -0.2957
  160SAPE   O1217883   5.075   1.198   6.613  0.1225  0.1975  0.1435
  160SAPE   O1117884   4.985   1.390   6.747 -0.1614 -0.3158  0.4381
  160SAPE    C117885   4.884   1.334   6.831 -0.1316  0.3914  1.0518
  160SAPE    HA17886   4.785   1.363   6.789 -0.2027 -3.3036 -1.8195
  160SAPE    HB17887   4.892   1.224   6.824  2.3420  0.5019  1.3880
  160SAPE    C217888   4.897   1.373   6.980  0.0347 -0.0172 -0.3565
  160SAPE    HS17889   4.892   1.484   6.978 -2.7041 -0.0444 -2.9039
  160SAPE   O2117890   5.016   1.324   7.033  0.2073  0.4142  0.1790
  160SAPE   C2117891   5.122   1.396   7.069 -0.4573  0.4061 -0.5768
  160SAPE   O2217892   5.152   1.511   7.050  0.1431  0.1200  0.4431
  160SAPE   C2217893   5.207   1.298   7.154 -0.6909  0.1866  0.3095
  160SAPE   H2R17894   5.164   1.195   7.146 -1.6950  0.5173  1.1800
  160SAPE   H2S17895   5.294   1.298   7.085 -1.6350  1.7775 -0.9454
  160SAPE    C317896   4.774   1.312   7.063  0.3070 -0.7797  0.3468
  160SAPE    HX17897   4.779   1.202   7.062 -1.2939 -0.8889  0.9912
  160SAPE    HY17898   4.694   1.350   6.995  1.2474  0.3491 -0.1654
  160SAPE   O3117899   4.770   1.361   7.195 -0.0231  0.1470  0.1895
  160SAPE   C3117900   4.644   1.354   7.249 -0.5506 -0.4181  0.1605
  160SAPE   O3217901   4.546   1.309   7.191 -1.2470  0.0315  0.4647
  160SAPE   C3217902   4.656   1.371   7.400 -0.2002 -0.4799 -0.1425
  160SAPE   H2X17903   4.680   1.478   7.417 -2.0611  0.1486 -1.1497
  160SAPE   H2Y17904   4.747   1.313   7.424  1.4370  1.4083 -1.4460
  160SAPE   C2317905   5.240   1.337   7.302  0.2183 -0.7885 -0.1764
  160SAPE   H3R17906   5.305   1.427   7.305 -1.3828  0.4156  2.3499
  160SAPE   H3S17907   5.304   1.259   7.348  1.3751  0.2215 -0.0292
  160SAPE   C2417908   5.108   1.345   7.377 -0.5715 -0.0297  0.6102
  160SAPE   H4R17909   5.047   1.260   7.338 -0.3937  0.7082 -1.3718
  160SAPE   H4S17910   5.051   1.427   7.329  1.6101  0.8683 -0.5427
  160SAPE   C2517911   5.128   1.366   7.522 -0.1178  0.2359  0.0627
  160SAPE   H5R17912   5.187   1.452   7.555  1.4666 -1.0043  0.6115
  160SAPE   C2617913   5.081   1.273   7.611 -0.5308 -0.1910  0.2011
  160SAPE   H6R17914   5.101   1.301   7.716  2.7403  0.7103 -0.5543
  160SAPE   C2717915   5.008   1.140   7.591  0.2760  0.5707 -0.3775
  160SAPE   H7R17916   5.024   1.106   7.487  0.3873 -2.7087  0.5721
  160SAPE   H7S17917   4.899   1.146   7.613  0.6999  1.1079  1.8868
  160SAPE   C2817918   5.054   1.016   7.672  0.6424 -0.0220 -0.1272
  160SAPE   H8R17919   5.115   0.936   7.626 -0.8368 -0.5463 -1.2332
  160SAPE   C2917920   5.023   1.002   7.807 -0.3738 -0.2217  0.8490
  160SAPE   H9R17921   5.070   0.918   7.861 -0.0731 -1.8019 -1.6831
  160SAPE  C21017922   4.944   1.099   7.893 -0.0807  0.2018 -0.8085
  160SAPE  H10R17923   4.858   1.039   7.929 -0.1298  0.7800  0.0743
  160SAPE  H10S17924   4.902   1.185   7.837  0.5787  1.9267  1.2219
  160SAPE  C21117925   5.029   1.155   8.009  0.1653 -0.1538 -0.7219
  160SAPE  H11R17926   5.070   1.255   7.991 -2.4525  1.4025  1.1938
  160SAPE  C21217927   5.027   1.124   8.138  0.3982  0.2072 -0.3964
  160SAPE  H12R17928   5.082   1.192   8.203 -0.4768 -1.3085  2.0870
  160SAPE  C21317929   4.950   1.013   8.203  0.0034 -0.6757 -0.2116
  160SAPE  H13R17930   4.842   1.022   8.176  0.3677 -0.8285 -1.8444
  160SAPE  H13S17931   4.951   1.022   8.314  2.4605  2.8822 -0.3606
  160SAPE  C21417932   5.001   0.881   8.158  0.3393 -0.1751 -0.4003
  160SAPE  H14R17933   5.075   0.875   8.077  1.4767 -1.0682  0.6721
  160SAPE  C21517934   4.951   0.766   8.208 -0.0382 -0.1829  0.7310
  160SAPE  H15R17935   4.996   0.674   8.167  0.4181 -0.0267  0.8776
  160SAPE  C21617936   4.851   0.740   8.314  0.5994 -0.1367 -0.5288
  160SAPE  H16R17937   4.755   0.792   8.291  0.5139 -0.4071 -0.7927
  160SAPE  H16S17938   4.893   0.781   8.408  0.5150 -0.7268 -0.2263
  160SAPE  C21717939   4.825   0.593   8.338  0.5073 -0.2859 -0.2120
  160SAPE  H17R17940   4.784   0.550   8.243  0.3102 -1.0739  0.2195
  160SAPE  H17S17941   4.754   0.580   8.422 -0.4227 -0.5529 -1.0096
  160SAPE  C21817942   4.953   0.522   8.385  0.2741  0.5186  0.0689
  160SAPE  H18R17943   4.992   0.581   8.470 -0.6389 -1.8554  2.2820
  160SAPE  H18S17944   5.029   0.521   8.304  0.5401  0.8821  0.3150
  160SAPE  C21917945   4.925   0.376   8.430 -0.0707  0.9534  1.2774
  160SAPE  H19R17946   4.903   0.316   8.339 -4.8996  1.2515  1.9953
  160SAPE  H19S17947   4.831   0.370   8.488 -0.3587 -1.2763  0.6881
  160SAPE  C22017948   5.032   0.313   8.515 -0.1145  0.3628 -0.1040
  160SAPE  H20R17949   5.043   0.363   8.614  0.9765  3.1224 -1.5211
  160SAPE  H20S17950   5.131   0.348   8.479 -1.1761  1.9082 -1.7055
  160SAPE  H20T17951   5.019   0.203   8.527 -1.1323  0.6277  1.4991
  160SAPE   C3317952   4.526   1.326   7.466  0.4171 -0.3751 -0.0408
  160SAPE   H3X17953   4.518   1.215   7.461 -0.4967 -0.3031 -0.5212
  160SAPE   H3Y17954   4.438   1.383   7.428 -0.4308  1.8529  4.5553
  160SAPE   C3417955   4.530   1.360   7.611  0.3457  0.6058 -0.2220
  160SAPE   H4X17956   4.502   1.463   7.640  0.4746  0.6147 -0.1301
  160SAPE   H4Y17957   4.627   1.324   7.651 -0.0440  0.6878  0.8172
  160SAPE   C3517958   4.423   1.262   7.677  0.5269  0.0595  0.9620
  160SAPE   H5X17959   4.454   1.161   7.641  0.4287  1.4329 -3.5561
  160SAPE   H5Y17960   4.321   1.278   7.635  1.4196 -0.3700 -1.5301
  160SAPE   C3617961   4.417   1.270   7.826 -0.4542 -0.6362  1.0196
  160SAPE   H6X17962   4.392   1.376   7.848  1.4073  0.1843 -0.5132
  160SAPE   H6Y17963   4.522   1.246   7.854  0.7296  1.2794 -1.4052
  160SAPE   C3717964   4.309   1.169   7.885 -0.5179  0.1872  0.2178
  160SAPE   H7X17965   4.307   1.088   7.810  1.7220 -0.9850  1.3227
  160SAPE   H7Y17966   4.212   1.221   7.874  0.2461  2.5534  3.2134
  160SAPE   C3817967   4.338   1.124   8.029  0.8951 -0.2764  0.1163
  160SAPE   H8X17968   4.411   1.040   8.022  0.5878 -0.4013 -3.0395
  160SAPE   H8Y17969   4.240   1.080   8.055  1.4035 -2.4300 -1.3573
  160SAPE   C3917970   4.383   1.233   8.126 -0.2774  0.0879 -0.2072
  160SAPE   H9X17971   4.307   1.310   8.104 -1.2551 -0.9303 -0.5042
  160SAPE   H9Y17972   4.483   1.258   8.084 -0.6453  3.0300  0.5041
  160SAPE  C31017973   4.385   1.188   8.276  0.2947  0.5229 -0.3859
  160SAPE  H10X17974   4.456   1.103   8.286  0.9247  1.1130  0.3075
  160SAPE  H10Y17975   4.287   1.152   8.313  0.2731  1.6349  0.6971
  160SAPE  C31117976   4.414   1.300   8.375 -0.5704  0.7420  0.0002
  160SAPE  H11X17977   4.320   1.353   8.400  0.9399  2.6550  2.0508
  160SAPE  H11Y17978   4.479   1.380   8.332 -1.1221  1.1833 -0.0207
  160SAPE  C31217979   4.491   1.254   8.502  0.2480  1.0436 -0.2222
  160SAPE  H12X17980   4.528   1.343   8.556 -0.6932  1.2802  0.0521
  160SAPE  H12Y17981   4.577   1.186   8.482  0.5898  0.5479  2.5398
  160SAPE  C31317982   4.389   1.184   8.593 -0.0294  0.1569 -0.0492
  160SAPE  H13X17983   4.344   1.098   8.538  1.0369  0.5183 -1.5610
  160SAPE  H13Y17984   4.314   1.264   8.607  0.3067  0.6646 -1.0481
  160SAPE  C31417985   4.455   1.141   8.719  0.0854  0.1089  0.1160
  160SAPE  H14X17986   4.470   1.227   8.788  0.1284 -0.7457  1.2059
  160SAPE  H14Y17987   4.564   1.119   8.712 -0.1151 -2.1695  2.5947
  160SAPE  C31517988   4.372   1.039   8.791  0.3153 -0.4950  0.2575
  160SAPE  H15X17989   4.270   1.081   8.777 -0.6751 -2.8382 -0.0139
  160SAPE  H15Y17990   4.389   1.056   8.899  0.0049 -1.3064  0.4425
  160SAPE  C31617991   4.376   0.897   8.741 -0.7174 -0.0429  0.0262
  160SAPE  H16X17992   4.479   0.859   8.759 -0.9945 -0.9134 -0.1463
  160SAPE  H16Y17993   4.369   0.895   8.630  0.3603 -3.2768 -0.1012
  160SAPE  C31717994   4.264   0.802   8.795 -0.3354  0.4353 -0.0309
  160SAPE  H17X17995   4.291   0.790   8.902 -0.7033 -0.8234 -0.0706
  160SAPE  H17Y17996   4.275   0.710   8.733  2.0357  1.5624 -1.4495
  160SAPE  C31817997   4.132   0.862   8.762  0.2243 -0.6024  0.1579
  160SAPE  H18X17998   4.123   0.950   8.828  3.1686 -0.9031  1.0976
  160SAPE  H18Y17999   4.048   0.790   8.771 -0.4465 -0.2410 -2.3742
  160SAPE  H18Z18000   4.124   0.894   8.656 -2.4500  0.0906  0.5086
  161SAPE     N18001   6.241   6.199   6.251  0.2213  0.2699  0.5404
  161SAPE   HN118002   6.174   6.119   6.250 -1.0349  1.2542  1.3766
  161SAPE   HN218003   6.254   6.218   6.352  0.0997  1.6767  0.3191
  161SAPE   HN318004   6.188   6.276   6.204  0.5179 -0.3341 -0.8263
  161SAPE   C1218005   6.377   6.167   6.187  0.6166 -0.0784  0.1159
  161SAPE  H12A18006   6.443   6.252   6.209  0.2368  0.3859 -0.5030
  161SAPE  H12B18007   6.352   6.148   6.080 -0.4785 -0.1676  0.3755
  161SAPE   C1118008   6.419   6.038   6.258  0.5632  0.0315  0.0586
  161SAPE  H11A18009   6.501   5.988   6.202 -0.5743 -0.1353 -1.5559
  161SAPE  H11B18010   6.344   5.957   6.260  1.1172 -0.4878  0.0407
  161SAPE     P18011   6.596   6.068   6.464 -0.7208  0.1370  0.2836
  161SAPE   O1318012   6.712   6.096   6.376  0.4903  0.6456  0.0942
  161SAPE   O1418013   6.594   6.156   6.580  0.1211 -0.0746  0.2016
  161SAPE   O1218014   6.454   6.070   6.389 -0.7553  0.2040  0.0877
  161SAPE   O1118015   6.606   5.909   6.499  0.3444 -0.1287  0.0783
  161SAPE    C118016   6.501   5.828   6.554 -0.3776 -0.6830  0.2768
  161SAPE    HA18017   6.414   5.896   6.568  0.3513  0.4854 -0.6494
  161SAPE    HB18018   6.471   5.742   6.490 -0.9424 -0.3215  0.0397
  161SAPE    C218019   6.532   5.796   6.699 -0.2872 -0.2467 -0.6642
  161SAPE    HS18020   6.583   5.885   6.741 -0.7580 -1.0305  1.7280
  161SAPE   O2118021   6.622   5.679   6.696 -0.4608  0.0066 -0.5838
  161SAPE   C2118022   6.718   5.668   6.793  0.1380  0.6989 -0.6990
  161SAPE   O2218023   6.720   5.741   6.893 -0.0510 -0.2158  0.4133
  161SAPE   C2218024   6.827   5.561   6.763 -0.2829 -0.5489  0.1646
  161SAPE   H2R18025   6.804   5.470   6.823  5.3617 -1.6186  1.2052
  161SAPE   H2S18026   6.826   5.528   6.656 -0.2151 -0.6920  0.2066
  161SAPE    C318027   6.407   5.769   6.778 -0.3141 -0.3346 -0.3686
  161SAPE    HX18028   6.362   5.675   6.739 -0.0639  0.5085 -2.8677
  161SAPE    HY18029   6.330   5.847   6.758 -0.2684 -0.2442 -0.1990
  161SAPE   O3118030   6.438   5.765   6.920 -0.6908  0.0982  0.1950
  161SAPE   C3118031   6.455   5.875   6.993  0.7033  0.8239 -0.2096
  161SAPE   O3218032   6.438   5.990   6.955 -0.4649  0.2091  0.2845
  161SAPE   C3218033   6.480   5.830   7.140 -0.3849 -0.6520 -0.5382
  161SAPE   H2X18034   6.583   5.788   7.143 -0.2551 -0.6223 -2.8663
  161SAPE   H2Y18035   6.407   5.749   7.161 -1.9951  0.7863 -0.3784
  161SAPE   C2318036   6.960   5.612   6.810  0.3121 -0.3295 -0.5722
  161SAPE   H3R18037   6.962   5.722   6.796 -3.2060  0.1383  1.3509
  161SAPE   H3S18038   7.039   5.574   6.742  0.7654 -0.0080 -0.2345
  161SAPE   C2418039   6.994   5.586   6.957  0.4815  0.5754  0.1638
  161SAPE   H4R18040   6.927   5.643   7.026  0.8111  1.5819 -0.3296
  161SAPE   H4S18041   7.097   5.619   6.984  1.3821 -1.9419  0.0815
  161SAPE   C2518042   6.987   5.440   6.994  0.0627  0.8772  0.0708
  161SAPE   H5R18043   7.041   5.375   6.924  0.9332  0.3196  1.2303
  161SAPE   C2618044   6.933   5.394   7.111 -1.0774  0.2950 -0.0741
  161SAPE   H6R18045   6.925   5.285   7.128 -0.6925 -0.0442 -1.8269
  161SAPE   C2718046   6.873   5.476   7.226 -0.8185  0.1457 -0.0506
  161SAPE   H7R18047   6.766   5.453   7.244 -0.5206 -0.9645  0.3611
  161SAPE   H7S18048   6.874   5.586   7.210 -1.3540 -0.1054 -2.2418
  161SAPE   C2818049   6.951   5.467   7.361 -0.0846  0.0938  0.2560
  161SAPE   H8R18050   7.042   5.529   7.371  0.1239  0.0444 -1.1467
  161SAPE   C2918051   6.930   5.383   7.470 -0.2527 -0.7549 -0.4453
  161SAPE   H9R18052   7.006   5.384   7.550  0.2914  2.3736 -0.8652
  161SAPE  C21018053   6.820   5.282   7.478 -0.5234  0.2408 -0.5554
  161SAPE  H10R18054   6.800   5.231   7.381  0.2813  1.1286 -1.2056
  161SAPE  H10S18055   6.724   5.333   7.498 -0.7428  0.2664 -1.6225
  161SAPE  C21118056   6.865   5.181   7.587  0.6500  0.0506 -0.2698
  161SAPE  H11R18057   6.852   5.222   7.688 -0.9693  0.0447 -0.4458
  161SAPE  C21218058   6.901   5.051   7.568  0.5936 -0.9133  0.7466
  161SAPE  H12R18059   6.923   4.990   7.657  1.2166 -0.9192  0.5932
  161SAPE  C21318060   6.906   4.977   7.435 -0.4111 -0.0754  0.2628
  161SAPE  H13R18061   6.921   5.050   7.352  1.0968  1.6460  1.9519
  161SAPE  H13S18062   6.807   4.932   7.409 -0.0412  0.1714 -1.7102
  161SAPE  C21418063   7.016   4.875   7.429  0.1968  0.1215 -0.2728
  161SAPE  H14R18064   7.050   4.838   7.527  1.1540 -2.4432 -1.4727
  161SAPE  C21518065   7.081   4.814   7.325 -0.6392  0.4291  0.0429
  161SAPE  H15R18066   7.163   4.744   7.346 -0.3962 -0.3973 -3.2003
  161SAPE  C21618067   7.047   4.847   7.179  1.2136  0.2728  0.0219
  161SAPE  H16R18068   6.943   4.885   7.169 -0.4784 -3.6742  0.5046
  161SAPE  H16S18069   7.028   4.749   7.130 -0.2287  1.2719 -1.5076
  161SAPE  C21718070   7.152   4.938   7.096  0.8429  0.7112 -0.7577
  161SAPE  H17R18071   7.250   4.886   7.095  1.2473  1.4032 -3.0904
  161SAPE  H17S18072   7.168   5.028   7.159  0.6002  0.8844 -0.9428
  161SAPE  C21818073   7.100   4.962   6.949 -0.3645  0.3865 -0.5736
  161SAPE  H18R18074   7.014   5.031   6.933 -0.5342 -0.0126 -1.4323
  161SAPE  H18S18075   7.053   4.866   6.917 -0.9120  0.1570  0.8115
  161SAPE  C21918076   7.204   5.006   6.847  0.6847 -0.6858  0.3030
  161SAPE  H19R18077   7.261   4.917   6.812 -0.1045 -0.7059 -1.0229
  161SAPE  H19S18078   7.279   5.080   6.882  0.0685  0.6358 -1.0423
  161SAPE  C22018079   7.137   5.063   6.718 -0.1998  0.1289  0.5388
  161SAPE  H20R18080   7.060   4.994   6.676 -1.1743  2.6448 -2.1245
  161SAPE  H20S18081   7.214   5.070   6.638  0.4887 -0.4027  1.1423
  161SAPE  H20T18082   7.099   5.164   6.743  0.6304  0.6474 -0.2182
  161SAPE   C3318083   6.449   5.948   7.241 -0.0649 -0.1920  0.2266
  161SAPE   H3X18084   6.356   6.004   7.216 -0.6460  0.4592  3.4319
  161SAPE   H3Y18085   6.537   6.016   7.234  0.3713 -0.7978 -0.2902
  161SAPE   C3418086   6.438   5.909   7.387 -0.1412  0.0949 -0.2328
  161SAPE   H4X18087   6.519   5.835   7.406  1.3827  0.8361 -3.2114
  161SAPE   H4Y18088   6.335   5.868   7.387  0.3569 -1.2139 -0.1405
  161SAPE   C3518089   6.454   6.022   7.484  0.0782  0.5050  0.1143
  161SAPE   H5X18090   6.373   6.098   7.474  0.0849  0.4109 -0.8133
  161SAPE   H5Y18091   6.550   6.076   7.468 -0.7063  1.9667  0.1502
  161SAPE   C3618092   6.439   5.978   7.634  0.1489  0.0360  0.1953
  161SAPE   H6X18093   6.469   5.871   7.636 -0.4990 -0.1408  0.8377
  161SAPE   H6Y18094   6.333   5.971   7.666 -0.9808 -2.7418 -3.4511
  161SAPE   C3718095   6.532   6.056   7.731 -0.2964 -1.0427  0.6572
  161SAPE   H7X18096   6.519   6.165   7.745 -0.1818 -0.8808 -0.3907
  161SAPE   H7Y18097   6.636   6.028   7.703 -0.9120 -0.0075 -3.2547
  161SAPE   C3818098   6.507   6.006   7.878 -0.5639  0.6675  0.5036
  161SAPE   H8X18099   6.448   5.913   7.874 -1.1392  1.0325  0.3201
  161SAPE   H8Y18100   6.437   6.078   7.926 -0.8866  0.5645  0.1914
  161SAPE   C3918101   6.641   5.990   7.957  1.0363  0.1318 -0.6917
  161SAPE   H9X18102   6.673   6.096   7.950 -1.7996  1.0244 -1.3271
  161SAPE   H9Y18103   6.709   5.916   7.909  0.6929 -1.1653  0.7627
  161SAPE  C31018104   6.622   5.947   8.104 -0.5448 -0.1454 -0.3812
  161SAPE  H10X18105   6.564   5.852   8.108  0.9592 -1.0724  2.8885
  161SAPE  H10Y18106   6.573   6.029   8.161  1.6769  1.0967 -0.1259
  161SAPE  C31118107   6.750   5.894   8.177  1.0254  0.0466  0.8764
  161SAPE  H11X18108   6.784   5.811   8.111 -2.1708 -0.0210 -0.9286
  161SAPE  H11Y18109   6.733   5.857   8.280  3.5457  0.3519  1.4565
  161SAPE  C31218110   6.858   5.997   8.172 -0.4719  0.7754  0.0207
  161SAPE  H12X18111   6.854   6.044   8.071 -0.6154 -1.8301 -1.2804
  161SAPE  H12Y18112   6.959   5.952   8.186 -0.1024  1.4109 -0.5377
  161SAPE  C31318113   6.847   6.110   8.284  0.1824  0.4697  0.6675
  161SAPE  H13X18114   6.813   6.070   8.382 -1.1007  0.4956  0.2473
  161SAPE  H13Y18115   6.749   6.154   8.259  0.2309 -0.2718 -0.9450
  161SAPE  C31418116   6.959   6.215   8.306  0.0289  0.3648  0.2703
  161SAPE  H14X18117   6.912   6.294   8.368 -1.5836  0.4713 -1.0228
  161SAPE  H14Y18118   6.984   6.258   8.206  1.9997  2.1034  1.4224
  161SAPE  C31518119   7.064   6.157   8.396 -0.0363 -0.6111 -0.0306
  161SAPE  H15X18120   7.132   6.083   8.349 -0.9618 -1.7663  0.3944
  161SAPE  H15Y18121   7.015   6.115   8.486  0.0939  1.0058  0.8279
  161SAPE  C31618122   7.154   6.269   8.460  0.0987 -0.0511 -0.2014
  161SAPE  H16X18123   7.099   6.353   8.508 -0.0723 -0.0333 -0.4243
  161SAPE  H16Y18124   7.197   6.316   8.369  0.6876  0.6388  0.4277
  161SAPE  C31718125   7.257   6.222   8.556  0.4053 -0.1240 -0.3598
  161SAPE  H17X18126   7.346   6.184   8.501  1.3934  3.1976 -1.2749
  161SAPE  H17Y18127   7.205   6.146   8.619 -1.4949  1.1045 -0.3640
  161SAPE  C31818128   7.308   6.337   8.650  0.0836  0.2383 -0.0231
  161SAPE  H18X18129   7.353   6.420   8.591  0.0056 -0.4582 -1.0816
  161SAPE  H18Y18130   7.396   6.306   8.710  0.8220 -0.1273 -1.2718
  161SAPE  H18Z18131   7.232   6.374   8.722  1.3143 -0.0229  1.4539
  162SAPE     N18132   1.573   0.894   6.258 -0.3302 -0.0308 -0.4604
  162SAPE   HN118133   1.614   0.885   6.163 -1.8251 -1.6482 -0.9922
  162SAPE   HN218134   1.570   0.799   6.298 -1.0778  0.3625  0.4572
  162SAPE   HN318135   1.470   0.910   6.255 -0.6198 -1.7295 -0.1657
  162SAPE   C1218136   1.633   1.010   6.344  0.1448 -0.3587  0.7006
  162SAPE  H12A18137   1.744   0.998   6.335  0.0322 -0.0986 -4.8514
  162SAPE  H12B18138   1.580   1.006   6.441  1.3802  2.4418  1.5953
  162SAPE   C1118139   1.594   1.135   6.268  0.6568 -0.1219 -0.1750
  162SAPE  H11A18140   1.597   1.214   6.346 -0.8574  0.6032 -0.8128
  162SAPE  H11B18141   1.484   1.135   6.252  0.2049  2.7529  2.0466
  162SAPE     P18142   1.739   1.284   6.120  0.0755 -0.4239  0.0002
  162SAPE   O1318143   1.854   1.254   6.033  0.1410 -0.1849 -0.2389
  162SAPE   O1418144   1.646   1.391   6.077  0.1193  0.0429  0.3137
  162SAPE   O1218145   1.662   1.151   6.154  0.1836  0.3420  0.2147
  162SAPE   O1118146   1.803   1.330   6.256 -0.0294 -0.4427 -0.6150
  162SAPE    C118147   1.917   1.266   6.323  0.4960  0.8447  0.0067
  162SAPE    HA18148   1.946   1.168   6.279 -0.1020  0.0815  1.2771
  162SAPE    HB18149   1.999   1.341   6.330 -0.4161  1.9130 -0.4608
  162SAPE    C218150   1.890   1.233   6.469 -0.1391 -0.6489 -0.2421
  162SAPE    HS18151   1.830   1.140   6.464 -0.5204 -0.5474  1.6980
  162SAPE   O2118152   1.840   1.349   6.536 -0.6784 -0.4390 -0.2191
  162SAPE   C2118153   1.725   1.325   6.596  0.5498 -0.7336  0.4538
  162SAPE   O2218154   1.675   1.221   6.623 -0.1058  0.3650 -0.2383
  162SAPE   C2218155   1.644   1.456   6.604 -0.1297 -0.6042 -0.3644
  162SAPE   H2R18156   1.684   1.522   6.524  0.8708  0.7484  1.2199
  162SAPE   H2S18157   1.547   1.428   6.556 -0.4531 -0.9619  0.4890
  162SAPE    C318158   2.024   1.196   6.540  0.4733 -0.1649  0.0323
  162SAPE    HX18159   2.090   1.282   6.516  1.0016 -0.5194  0.1848
  162SAPE    HY18160   2.066   1.106   6.490  2.2802  0.6906 -0.0920
  162SAPE   O3118161   2.003   1.171   6.686  0.0971 -0.3700 -0.3303
  162SAPE   C3118162   2.057   1.255   6.767 -0.1049 -0.1035 -0.2445
  162SAPE   O3218163   2.137   1.345   6.735  0.0881 -0.1203  0.1644
  162SAPE   C3218164   2.026   1.204   6.912 -0.1686 -0.1278  0.2682
  162SAPE   H2X18165   2.112   1.246   6.968  0.0159  0.5694 -0.5209
  162SAPE   H2Y18166   2.022   1.093   6.918 -1.4356 -0.0328  1.6752
  162SAPE   C2318167   1.623   1.531   6.742  0.3551 -0.4152 -0.5022
  162SAPE   H3R18168   1.662   1.453   6.810  0.5998 -0.5280 -0.7723
  162SAPE   H3S18169   1.514   1.548   6.754  0.8081  1.8201  1.0818
  162SAPE   C2418170   1.693   1.662   6.737 -0.5359 -0.0478 -0.1733
  162SAPE   H4R18171   1.790   1.643   6.687  0.3406  0.9973  1.0681
  162SAPE   H4S18172   1.724   1.672   6.843  1.5807 -0.8512 -0.6643
  162SAPE   C2518173   1.632   1.797   6.695  0.2745 -0.4453 -0.5063
  162SAPE   H5R18174   1.667   1.833   6.597 -0.8526 -0.7535 -1.0433
  162SAPE   C2618175   1.575   1.883   6.782 -0.0935  0.2115  0.1467
  162SAPE   H6R18176   1.544   1.984   6.750  1.4390  2.2727  4.3562
  162SAPE   C2718177   1.558   1.848   6.930 -0.1730  0.2139  1.2032
  162SAPE   H7R18178   1.655   1.850   6.984  1.2417 -0.6061 -1.1430
  162SAPE   H7S18179   1.524   1.743   6.933 -1.4542  0.6302  2.4129
  162SAPE   C2818180   1.461   1.935   7.006 -0.1650 -1.1843 -0.8156
  162SAPE   H8R18181   1.460   2.042   6.980  1.6850 -1.2585 -1.2837
  162SAPE   C2918182   1.362   1.888   7.082  0.1512 -0.3551 -0.5402
  162SAPE   H9R18183   1.303   1.961   7.140  0.5653 -0.7913  0.4619
  162SAPE  C21018184   1.334   1.743   7.109 -0.3117 -0.8282  0.0154
  162SAPE  H10R18185   1.360   1.688   7.015 -0.5628  2.5470 -2.2060
  162SAPE  H10S18186   1.224   1.729   7.118 -0.8062  2.7565  0.8672
  162SAPE  C21118187   1.409   1.686   7.225 -0.1105  0.4752 -0.4137
  162SAPE  H11R18188   1.497   1.625   7.201 -0.7088  0.3373 -2.4053
  162SAPE  C21218189   1.374   1.690   7.355  0.7783  0.3566 -0.2445
  162SAPE  H12R18190   1.443   1.637   7.422 -0.8889 -0.0713  1.2010
  162SAPE  C21318191   1.260   1.762   7.426 -0.0324 -0.2395  0.4478
  162SAPE  H13R18192   1.196   1.820   7.357  1.0882  0.8122  0.2617
  162SAPE  H13S18193   1.300   1.832   7.503 -2.4004 -0.4478  1.9565
  162SAPE  C21418194   1.169   1.668   7.500 -0.0608  0.1104 -0.8767
  162SAPE  H14R18195   1.082   1.634   7.442 -0.1750  1.0325 -1.2635
  162SAPE  C21518196   1.178   1.635   7.632 -0.0483 -0.6341 -0.1984
  162SAPE  H15R18197   1.101   1.568   7.672 -0.4374  0.5295  1.0850
  162SAPE  C21618198   1.285   1.694   7.727 -0.2964  0.5366  0.2865
  162SAPE  H16R18199   1.282   1.805   7.733  0.8236  0.5337  1.4986
  162SAPE  H16S18200   1.388   1.664   7.699  0.7934  3.8881  0.2223
  162SAPE  C21718201   1.253   1.651   7.864 -0.2979  0.5561  0.1093
  162SAPE  H17R18202   1.338   1.684   7.927  1.7450 -3.6438 -0.1185
  162SAPE  H17S18203   1.261   1.541   7.877 -0.4074  0.4941 -0.3469
  162SAPE  C21818204   1.121   1.698   7.928  0.0279  0.1561 -0.0355
  162SAPE  H18R18205   1.036   1.640   7.886  0.7565 -1.0305  0.0686
  162SAPE  H18S18206   1.110   1.806   7.906 -1.9607 -0.0657 -0.2712
  162SAPE  C21918207   1.131   1.686   8.081 -0.1584 -0.1154 -0.1477
  162SAPE  H19R18208   1.224   1.735   8.117  0.2082 -0.2057 -0.9364
  162SAPE  H19S18209   1.141   1.577   8.100 -0.7459 -0.0676  0.4463
  162SAPE  C22018210   1.001   1.745   8.143 -0.0655 -0.4274  0.0903
  162SAPE  H20R18211   0.910   1.718   8.085 -0.4377  0.2902  0.3139
  162SAPE  H20S18212   1.014   1.855   8.155 -1.1728 -0.0271 -1.8212
  162SAPE  H20T18213   0.986   1.699   8.242  0.0881  0.0804  0.3531
  162SAPE   C3318214   1.880   1.244   6.958  0.4661  0.3596  0.3078
  162SAPE   H3X18215   1.808   1.186   6.897  0.8088  0.5814 -0.3201
  162SAPE   H3Y18216   1.851   1.347   6.925 -1.7749 -0.1684  0.5078
  162SAPE   C3418217   1.843   1.226   7.102  0.0932  0.6038 -0.3152
  162SAPE   H4X18218   1.914   1.297   7.152 -0.7524  0.7313  0.7389
  162SAPE   H4Y18219   1.869   1.124   7.137  4.1077  1.2780 -0.8278
  162SAPE   C3518220   1.700   1.269   7.129  0.7987 -0.1751  0.4712
  162SAPE   H5X18221   1.636   1.193   7.079  0.1102  1.0022 -0.5232
  162SAPE   H5Y18222   1.673   1.371   7.093  0.3575 -0.4373  0.0337
  162SAPE   C3618223   1.671   1.247   7.276 -0.6365  0.4870 -0.6273
  162SAPE   H6X18224   1.751   1.286   7.342  0.0665  0.1276 -1.2553
  162SAPE   H6Y18225   1.682   1.137   7.289  1.1613  0.8040  0.8951
  162SAPE   C3718226   1.523   1.281   7.323  0.1395  0.2193  0.1410
  162SAPE   H7X18227   1.457   1.232   7.248 -0.3339  0.0216  0.6737
  162SAPE   H7Y18228   1.514   1.392   7.322 -1.0750  0.1466  0.9805
  162SAPE   C3818229   1.492   1.209   7.452 -0.6289  0.1406  0.3789
  162SAPE   H8X18230   1.581   1.226   7.517 -0.5926  1.7823 -0.0666
  162SAPE   H8Y18231   1.489   1.098   7.448  0.5578 -0.1526  3.8358
  162SAPE   C3918232   1.376   1.264   7.523 -0.2296 -0.2150  0.2265
  162SAPE   H9X18233   1.291   1.270   7.451  0.6714 -1.2238 -0.9656
  162SAPE   H9Y18234   1.374   1.374   7.535 -6.0011  0.3420 -2.2810
  162SAPE  C31018235   1.341   1.199   7.658  0.3062  0.4837 -0.4710
  162SAPE  H10X18236   1.333   1.088   7.646  1.1128  0.3046  0.4937
  162SAPE  H10Y18237   1.242   1.238   7.689  0.0567 -0.8745  0.5627
  162SAPE  C31118238   1.433   1.249   7.774 -0.1942 -0.5178 -1.0083
  162SAPE  H11X18239   1.414   1.359   7.779 -0.6421 -0.5186 -2.3126
  162SAPE  H11Y18240   1.540   1.231   7.750  0.6163  2.5498 -0.2357
  162SAPE  C31218241   1.396   1.187   7.911 -0.1479 -0.2412 -0.3790
  162SAPE  H12X18242   1.400   1.078   7.891 -0.5877 -0.5052  0.8555
  162SAPE  H12Y18243   1.289   1.203   7.934  0.1236 -0.0713  0.8501
  162SAPE  C31318244   1.483   1.225   8.030 -0.2147 -0.4153  0.6520
  162SAPE  H13X18245   1.586   1.244   7.992 -0.2326 -0.5540  0.5319
  162SAPE  H13Y18246   1.476   1.141   8.102 -1.5813 -1.7459 -0.9671
  162SAPE  C31418247   1.442   1.361   8.097 -0.0403  0.8176 -0.1892
  162SAPE  H14X18248   1.412   1.439   8.024  1.0139  1.1811 -0.2493
  162SAPE  H14Y18249   1.530   1.405   8.148  0.1256  1.0903 -0.7023
  162SAPE  C31518250   1.332   1.348   8.200  0.5497 -0.3176  0.4480
  162SAPE  H15X18251   1.346   1.252   8.254  0.3760  0.1166  1.2904
  162SAPE  H15Y18252   1.237   1.352   8.143  1.6144 -0.0760 -1.3597
  162SAPE  C31618253   1.329   1.456   8.306 -1.2792 -0.2875 -0.1296
  162SAPE  H16X18254   1.352   1.555   8.262  1.3893 -0.5684  0.4764
  162SAPE  H16Y18255   1.417   1.436   8.370 -0.5832 -0.2329 -1.0401
  162SAPE  C31718256   1.197   1.459   8.389 -0.1856  0.0892 -0.0062
  162SAPE  H17X18257   1.112   1.458   8.317 -0.8001 -2.8666  0.6210
  162SAPE  H17Y18258   1.200   1.558   8.440 -1.7490  1.1042 -1.7442
  162SAPE  C31818259   1.183   1.342   8.485 -0.0279 -0.5167 -0.1323
  162SAPE  H18X18260   1.107   1.359   8.565  1.0687  0.5119  0.7227
  162SAPE  H18Y18261   1.269   1.343   8.555 -0.8020 -0.7919  0.8440
  162SAPE  H18Z18262   1.169   1.245   8.432 -1.3647 -0.9171  0.8666
  163SAPE     N18263   3.292   5.260   6.474 -0.2754  0.0222  0.6496
  163SAPE   HN118264   3.242   5.221   6.391  1.5501  0.5079 -0.7432
  163SAPE   HN218265   3.231   5.277   6.556  1.8128  0.3719  2.2174
  163SAPE   HN318266   3.336   5.345   6.435 -0.1171 -0.3478 -0.0015
  163SAPE   C1218267   3.408   5.179   6.526  0.0297 -0.1188  0.2944
  163SAPE  H12A18268   3.449   5.119   6.442 -1.0541 -0.8875  0.2930
  163SAPE  H12B18269   3.362   5.100   6.589 -0.2914 -0.1988 -0.0410
  163SAPE   C1118270   3.529   5.258   6.569  0.1441  0.2447 -0.3828
  163SAPE  H11A18271   3.609   5.185   6.596 -0.6678 -0.2638  0.7088
  163SAPE  H11B18272   3.505   5.315   6.661  0.7565  0.3944 -0.3091
  163SAPE     P18273   3.561   5.495   6.464  0.5764  0.3124  0.2718
  163SAPE   O1318274   3.632   5.547   6.348 -0.3354  0.0732  0.2817
  163SAPE   O1418275   3.412   5.520   6.459  0.0602  0.2469 -0.1908
  163SAPE   O1218276   3.571   5.332   6.461 -0.6713 -0.5322 -0.2255
  163SAPE   O1118277   3.626   5.546   6.599 -0.2317 -0.5324 -0.1288
  163SAPE    C118278   3.767   5.539   6.616  0.8789 -0.5558  0.0693
  163SAPE    HA18279   3.792   5.431   6.606  0.3698 -0.5765 -1.2237
  163SAPE    HB18280   3.821   5.596   6.537  0.2003 -1.8148 -1.3441
  163SAPE    C218281   3.800   5.592   6.761  1.0897 -0.3122 -0.3965
  163SAPE    HS18282   3.778   5.701   6.759 -0.2704 -0.5760 -0.9384
  163SAPE   O2118283   3.938   5.578   6.789 -0.3507  0.4476 -0.4450
  163SAPE   C2118284   4.021   5.671   6.747  0.5894  0.0023  0.9403
  163SAPE   O2218285   3.988   5.763   6.674 -0.3383  0.2465  0.2723
  163SAPE   C2218286   4.162   5.635   6.781 -0.0910  0.0419 -0.2333
  163SAPE   H2R18287   4.153   5.570   6.871 -0.6909 -0.5752 -0.7238
  163SAPE   H2S18288   4.211   5.569   6.707 -0.0231  0.7762 -0.8503
  163SAPE    C318289   3.705   5.530   6.861  0.4816 -0.3172 -0.1346
  163SAPE    HX18290   3.711   5.419   6.859 -2.2130 -0.5607  0.6515
  163SAPE    HY18291   3.597   5.549   6.840  0.3402 -0.5166  0.3783
  163SAPE   O3118292   3.743   5.575   6.995 -0.2704 -0.5107  0.5286
  163SAPE   C3118293   3.646   5.549   7.087  0.4367  0.5389  0.3592
  163SAPE   O3218294   3.528   5.526   7.064  0.0237 -0.0480  0.1901
  163SAPE   C3218295   3.710   5.542   7.229  0.0903  0.1574  0.4689
  163SAPE   H2X18296   3.770   5.634   7.243  0.0908  0.4202 -1.0569
  163SAPE   H2Y18297   3.786   5.462   7.219 -1.0151 -0.7159 -1.3437
  163SAPE   C2318298   4.239   5.768   6.801 -0.2055  0.5970  0.4266
  163SAPE   H3R18299   4.183   5.836   6.870 -2.0933  1.5536 -1.9079
  163SAPE   H3S18300   4.244   5.823   6.705  1.7415 -1.7082 -0.8993
  163SAPE   C2418301   4.379   5.736   6.860 -0.2894 -0.6721  0.3493
  163SAPE   H4R18302   4.435   5.828   6.887  0.5092 -1.5447  1.7466
  163SAPE   H4S18303   4.445   5.692   6.781  1.5105  0.8485  0.9228
  163SAPE   C2518304   4.389   5.653   6.991  0.0927 -0.2880  0.4556
  163SAPE   H5R18305   4.423   5.551   6.968  2.4188  0.9322 -2.0778
  163SAPE   C2618306   4.344   5.681   7.115  0.2186 -0.2031 -0.2803
  163SAPE   H6R18307   4.359   5.610   7.197  2.9533  1.1688  0.5166
  163SAPE   C2718308   4.299   5.818   7.155  0.4576  0.0145 -0.1629
  163SAPE   H7R18309   4.189   5.823   7.168  0.4815 -0.8802  0.4696
  163SAPE   H7S18310   4.322   5.892   7.076  0.6350  0.8540  0.6564
  163SAPE   C2818311   4.372   5.866   7.276  0.9698  0.1155 -1.0467
  163SAPE   H8R18312   4.467   5.921   7.268  0.3184  2.0150  2.1802
  163SAPE   C2918313   4.336   5.842   7.407  0.4447  0.2329 -0.3197
  163SAPE   H9R18314   4.392   5.882   7.492 -0.5660  1.2079 -0.0914
  163SAPE  C21018315   4.217   5.774   7.463  0.3284  0.1985 -0.0340
  163SAPE  H10R18316   4.132   5.761   7.392  0.1406  0.5787  0.1114
  163SAPE  H10S18317   4.166   5.845   7.533 -0.7981 -0.2225 -0.4030
  163SAPE  C21118318   4.254   5.639   7.515 -0.5058 -0.1493  0.5314
  163SAPE  H11R18319   4.314   5.575   7.448  1.6461  0.1388  2.0589
  163SAPE  C21218320   4.224   5.586   7.633 -0.3032  1.0768  0.3385
  163SAPE  H12R18321   4.260   5.489   7.669  1.1817  0.3004 -2.8561
  163SAPE  C21318322   4.149   5.662   7.742 -0.0415  0.5770  0.3276
  163SAPE  H13R18323   4.108   5.587   7.813 -2.7276 -0.3085 -1.9626
  163SAPE  H13S18324   4.059   5.707   7.694 -0.8708 -2.3091 -1.0488
  163SAPE  C21418325   4.244   5.763   7.810  0.0477  1.2141  0.3516
  163SAPE  H14R18326   4.318   5.821   7.754  1.6354 -0.5062  0.5509
  163SAPE  C21518327   4.230   5.794   7.939 -0.4362  0.9630 -0.2659
  163SAPE  H15R18328   4.296   5.870   7.982  0.1244  1.2978 -1.6578
  163SAPE  C21618329   4.127   5.733   8.032 -0.1847  0.0406 -0.3850
  163SAPE  H16R18330   4.128   5.622   8.023  4.1835 -0.4429  2.5302
  163SAPE  H16S18331   4.025   5.764   8.001 -0.0110  0.0698 -0.9336
  163SAPE  C21718332   4.153   5.762   8.187 -0.0516  0.3573  0.6834
  163SAPE  H17R18333   4.067   5.725   8.246  0.9388  1.6612  3.1075
  163SAPE  H17S18334   4.156   5.872   8.203 -1.5681  0.5811 -0.3951
  163SAPE  C21818335   4.291   5.709   8.229 -0.3615 -0.5358  0.1587
  163SAPE  H18R18336   4.295   5.741   8.335  0.6596  0.4228 -0.1509
  163SAPE  H18S18337   4.371   5.758   8.170 -0.4088 -0.2635  0.3212
  163SAPE  C21918338   4.307   5.556   8.228  0.1162 -0.4604 -0.0222
  163SAPE  H19R18339   4.415   5.530   8.239  0.9682  3.4239  3.6585
  163SAPE  H19S18340   4.275   5.516   8.129 -0.7076  3.5814 -1.6194
  163SAPE  C22018341   4.210   5.491   8.333 -1.5547  0.4128  0.2981
  163SAPE  H20R18342   4.224   5.381   8.336  0.1508  0.6325  2.6874
  163SAPE  H20S18343   4.104   5.518   8.318 -2.1290 -1.4034  0.7945
  163SAPE  H20T18344   4.230   5.521   8.438 -0.6712 -1.2670  0.6520
  163SAPE   C3318345   3.614   5.514   7.344 -0.1006 -0.0412 -0.0835
  163SAPE   H3X18346   3.597   5.404   7.352 -2.1321  0.3723  3.5124
  163SAPE   H3Y18347   3.518   5.570   7.337 -1.3982 -1.9934  1.0426
  163SAPE   C3418348   3.699   5.545   7.473 -0.4652 -0.1789  0.3498
  163SAPE   H4X18349   3.748   5.644   7.457 -0.1698 -0.7116 -2.6963
  163SAPE   H4Y18350   3.778   5.467   7.476 -2.4371 -2.4727 -2.6308
  163SAPE   C3518351   3.632   5.542   7.608  0.5229 -0.5204 -0.2125
  163SAPE   H5X18352   3.590   5.440   7.621  0.4181 -0.5419 -0.7004
  163SAPE   H5Y18353   3.543   5.608   7.608  0.9975  0.8296  6.2105
  163SAPE   C3618354   3.707   5.597   7.722  0.3891 -0.2297 -0.0839
  163SAPE   H6X18355   3.727   5.705   7.712  0.5937 -0.3319 -0.8223
  163SAPE   H6Y18356   3.797   5.532   7.727  0.6431  0.1482  0.3639
  163SAPE   C3718357   3.632   5.587   7.851 -0.1821 -0.7676 -0.5015
  163SAPE   H7X18358   3.601   5.482   7.873  0.3491 -0.9023 -0.3638
  163SAPE   H7Y18359   3.539   5.648   7.852  0.3003 -0.0166  0.1372
  163SAPE   C3818360   3.715   5.624   7.977 -0.9851 -0.4050  0.5596
  163SAPE   H8X18361   3.767   5.722   7.975  0.0404 -0.8988  1.6521
  163SAPE   H8Y18362   3.806   5.561   7.986  0.7557  2.0317  1.4661
  163SAPE   C3918363   3.636   5.630   8.109  0.4915  0.6021  1.0701
  163SAPE   H9X18364   3.571   5.717   8.086  1.8158  1.7658  1.6573
  163SAPE   H9Y18365   3.704   5.664   8.189  1.1450 -0.2380  0.8886
  163SAPE  C31018366   3.583   5.506   8.162  0.3847 -0.2171  0.1327
  163SAPE  H10X18367   3.669   5.436   8.175  2.4572  2.2842  0.7093
  163SAPE  H10Y18368   3.508   5.454   8.098 -1.7736  1.4619  1.1681
  163SAPE  C31118369   3.521   5.513   8.303  0.1048  0.4171 -0.2200
  163SAPE  H11X18370   3.485   5.419   8.350  0.5592  0.9725  1.2937
  163SAPE  H11Y18371   3.446   5.595   8.301 -0.6424 -0.2317  0.3813
  163SAPE  C31218372   3.614   5.552   8.419 -0.1738 -0.1823  0.3835
  163SAPE  H12X18373   3.658   5.653   8.406  0.7152 -0.6642 -0.4715
  163SAPE  H12Y18374   3.703   5.486   8.412  0.6373  0.9397 -0.3939
  163SAPE  C31318375   3.537   5.536   8.552 -0.8482  0.5677  1.0399
  163SAPE  H13X18376   3.617   5.507   8.624  0.3117 -0.4645 -0.6105
  163SAPE  H13Y18377   3.473   5.445   8.545 -1.4137  1.0547 -0.6315
  163SAPE  C31418378   3.464   5.666   8.602 -0.4607 -0.3727 -0.4040
  163SAPE  H14X18379   3.459   5.751   8.530 -3.6569  1.2385  1.5133
  163SAPE  H14Y18380   3.535   5.697   8.681 -1.3010 -0.3282  0.3396
  163SAPE  C31518381   3.316   5.651   8.647 -0.0941  0.2327  0.3347
  163SAPE  H15X18382   3.267   5.632   8.549  0.5941 -0.8624  0.1807
  163SAPE  H15Y18383   3.287   5.746   8.697 -1.5539 -0.0415  0.0532
  163SAPE  C31618384   3.291   5.533   8.738 -0.8352 -0.4277 -0.5805
  163SAPE  H16X18385   3.359   5.542   8.826  0.9136  0.4331 -1.9353
  163SAPE  H16Y18386   3.330   5.438   8.694  0.5703  0.4467 -1.3269
  163SAPE  C31718387   3.141   5.516   8.762  0.1208  0.1215 -0.2438
  163SAPE  H17X18388   3.119   5.407   8.754 -2.6904  0.7739 -3.4543
  163SAPE  H17Y18389   3.092   5.567   8.677  0.0087 -1.7400 -1.3431
  163SAPE  C31818390   3.076   5.574   8.890 -0.3495  0.4603 -0.8634
  163SAPE  H18X18391   2.969   5.547   8.902  0.3301 -2.3057 -0.3680
  163SAPE  H18Y18392   3.079   5.685   8.900  1.5710  0.6212 -2.5712
  163SAPE  H18Z18393   3.125   5.526   8.978 -0.2582  0.4367 -0.9268
  164SAPE     N18394   1.846   4.610   5.816 -0.0464 -0.2766 -0.2272
  164SAPE   HN118395   1.862   4.507   5.811 -0.0270 -0.5323  3.0209
  164SAPE   HN218396   1.937   4.658   5.802 -0.4668  1.1975  1.7788
  164SAPE   HN318397   1.810   4.629   5.911 -0.4880 -1.4502 -0.1396
  164SAPE   C1218398   1.738   4.637   5.717 -0.4303 -0.3614  0.0706
  164SAPE  H12A18399   1.761   4.580   5.624 -0.8362  0.6289 -0.6527
  164SAPE  H12B18400   1.737   4.746   5.698 -2.3170 -0.1857  0.9655
  164SAPE   C1118401   1.604   4.585   5.773  0.2702  0.4974  0.0379
  164SAPE  H11A18402   1.611   4.475   5.785 -0.9363  0.0994 -2.4821
  164SAPE  H11B18403   1.523   4.604   5.700  0.6831  4.3480  0.3775
  164SAPE     P18404   1.582   4.597   6.036 -0.1436  0.0554 -0.3677
  164SAPE   O1318405   1.721   4.551   6.051 -0.2434 -0.0571  0.5995
  164SAPE   O1418406   1.524   4.685   6.141 -0.2391 -0.4682 -0.4441
  164SAPE   O1218407   1.560   4.659   5.890 -0.8786  0.5727 -0.6347
  164SAPE   O1118408   1.495   4.467   6.041 -0.5434 -0.8216  0.1749
  164SAPE    C118409   1.364   4.447   5.990 -0.1947  0.1781 -0.2794
  164SAPE    HA18410   1.349   4.486   5.887  0.6328 -0.3209 -0.5932
  164SAPE    HB18411   1.357   4.337   5.979  0.9223  0.2287 -1.8430
  164SAPE    C218412   1.254   4.504   6.078  0.0366  0.0082  0.1899
  164SAPE    HS18413   1.232   4.610   6.052 -1.1847 -0.3631 -0.3582
  164SAPE   O2118414   1.288   4.484   6.215  0.2221 -0.5090 -0.7538
  164SAPE   C2118415   1.272   4.589   6.301 -0.2585 -0.9041 -0.6008
  164SAPE   O2218416   1.231   4.698   6.268  0.5682  0.6861  0.2289
  164SAPE   C2218417   1.323   4.563   6.438 -0.1724  0.5629  0.3811
  164SAPE   H2R18418   1.319   4.453   6.457 -2.0388  0.0024 -2.5854
  164SAPE   H2S18419   1.431   4.584   6.443  0.4543 -1.6226 -1.9241
  164SAPE    C318420   1.113   4.438   6.046 -0.6360  0.4956 -0.4091
  164SAPE    HX18421   1.117   4.329   6.067 -1.5831  0.8193  1.7194
  164SAPE    HY18422   1.085   4.439   5.938 -0.2066 -2.1510 -0.6060
  164SAPE   O3118423   1.007   4.496   6.123 -0.0529 -0.3492 -0.4897
  164SAPE   C3118424   0.890   4.424   6.120 -0.2346  0.6373  0.1612
  164SAPE   O3218425   0.878   4.314   6.069 -0.6428  0.7943 -0.2024
  164SAPE   C3218426   0.778   4.518   6.155  0.2993  0.3137  0.5355
  164SAPE   H2X18427   0.694   4.485   6.091  1.1746 -0.7850 -0.0821
  164SAPE   H2Y18428   0.811   4.621   6.128  2.0014 -0.1982  0.5676
  164SAPE   C2318429   1.250   4.652   6.548 -0.0724  0.0595  0.3989
  164SAPE   H3R18430   1.140   4.643   6.543  0.0499 -2.4037  1.0177
  164SAPE   H3S18431   1.277   4.757   6.525 -0.1228 -0.3109 -1.5495
  164SAPE   C2418432   1.294   4.621   6.694  0.2306 -0.4113  0.1109
  164SAPE   H4R18433   1.290   4.511   6.706  2.9722 -0.5110  0.9068
  164SAPE   H4S18434   1.216   4.662   6.761 -1.1155  0.0053 -1.6440
  164SAPE   C2518435   1.435   4.667   6.730 -0.2080  0.3473  0.4510
  164SAPE   H5R18436   1.484   4.738   6.662 -0.8013  0.5016  0.1738
  164SAPE   C2618437   1.501   4.623   6.839 -0.1312  0.5097 -0.3298
  164SAPE   H6R18438   1.606   4.652   6.851 -0.0174  0.6308 -1.5107
  164SAPE   C2718439   1.440   4.532   6.951  0.4024  0.8730  0.2743
  164SAPE   H7R18440   1.330   4.543   6.955  0.4339  0.9294  1.2084
  164SAPE   H7S18441   1.474   4.558   7.054 -0.6096  3.4741  0.0194
  164SAPE   C2818442   1.476   4.391   6.914  0.1705  0.6186  0.2579
  164SAPE   H8R18443   1.525   4.385   6.816 -1.0787 -1.1153 -0.3001
  164SAPE   C2918444   1.447   4.283   6.982  0.2631 -0.0815 -0.2828
  164SAPE   H9R18445   1.492   4.194   6.936 -1.6410  0.0664 -2.6224
  164SAPE  C21018446   1.376   4.273   7.122 -0.2549 -0.1346  0.3684
  164SAPE  H10R18447   1.271   4.237   7.113 -0.0596 -0.6180  0.0159
  164SAPE  H10S18448   1.359   4.368   7.177 -0.0120  0.4530 -0.5563
  164SAPE  C21118449   1.447   4.165   7.210  0.4122  0.3109  0.0356
  164SAPE  H11R18450   1.469   4.070   7.159  1.0940 -0.0614  0.9943
  164SAPE  C21218451   1.463   4.167   7.344 -0.3184  0.0779  0.5942
  164SAPE  H12R18452   1.504   4.074   7.386  1.5557 -0.0610 -1.3643
  164SAPE  C21318453   1.436   4.281   7.447  0.4904  0.0789 -0.3049
  164SAPE  H13R18454   1.364   4.246   7.523 -2.1965  0.9291 -2.2645
  164SAPE  H13S18455   1.390   4.370   7.397 -0.4722 -0.2677 -0.0619
  164SAPE  C21418456   1.555   4.342   7.504 -0.4341  0.0756  0.9386
  164SAPE  H14R18457   1.623   4.388   7.430  0.0217 -1.7835  0.1354
  164SAPE  C21518458   1.592   4.363   7.629 -0.6278  0.0459 -0.1448
  164SAPE  H15R18459   1.686   4.416   7.651 -0.1232 -1.7072  2.3973
  164SAPE  C21618460   1.516   4.320   7.751  0.0817 -0.4011  0.6384
  164SAPE  H16R18461   1.410   4.353   7.743  0.7052  1.3518 -5.3284
  164SAPE  H16S18462   1.555   4.373   7.840 -2.4452  1.4011  0.7750
  164SAPE  C21718463   1.542   4.172   7.784  0.1499  0.2777  1.4838
  164SAPE  H17R18464   1.652   4.158   7.796  0.1743  0.1753  1.1506
  164SAPE  H17S18465   1.507   4.106   7.703  1.9934  0.9983  0.0248
  164SAPE  C21818466   1.464   4.139   7.910  0.4374 -0.5519 -0.1321
  164SAPE  H18R18467   1.359   4.174   7.900 -0.1475 -1.3192  2.5541
  164SAPE  H18S18468   1.505   4.193   7.997 -1.0591 -0.0296  0.2809
  164SAPE  C21918469   1.443   3.985   7.943 -0.1895 -0.9796  0.4790
  164SAPE  H19R18470   1.545   3.950   7.920  0.0049 -0.0264 -0.1942
  164SAPE  H19S18471   1.375   3.947   7.864 -0.6585 -1.6837  1.2036
  164SAPE  C22018472   1.383   3.939   8.078 -0.0377 -0.5218  0.5846
  164SAPE  H20R18473   1.276   3.969   8.081  0.2520  1.0049 -1.9170
  164SAPE  H20S18474   1.437   3.983   8.165  1.7682 -0.8587 -0.3251
  164SAPE  H20T18475   1.384   3.828   8.070 -1.2785 -0.4323 -1.2733
  164SAPE   C3318476   0.740   4.512   6.305 -0.3138  0.8964 -0.0258
  164SAPE   H3X18477   0.711   4.405   6.318  0.6144  0.6179 -0.2099
  164SAPE   H3Y18478   0.649   4.576   6.308 -1.5279 -0.7507 -0.0609
  164SAPE   C3418479   0.852   4.572   6.390 -0.2180 -0.4316 -0.1392
  164SAPE   H4X18480   0.884   4.674   6.359 -1.5228  0.7908  2.2237
  164SAPE   H4Y18481   0.949   4.518   6.387  0.2553  0.3541  0.4167
  164SAPE   C3518482   0.790   4.561   6.530  0.6778  0.0723  0.0851
  164SAPE   H5X18483   0.762   4.459   6.561  1.3683  0.0473  0.6649
  164SAPE   H5Y18484   0.690   4.609   6.533  0.9658  0.6791  0.2670
  164SAPE   C3618485   0.867   4.635   6.646 -0.3641 -0.2266 -0.3662
  164SAPE   H6X18486   0.912   4.727   6.601 -0.2406 -0.6926 -1.2327
  164SAPE   H6Y18487   0.951   4.566   6.668 -1.4682 -2.3255 -2.2749
  164SAPE   C3718488   0.781   4.685   6.765 -0.1458 -0.6299  0.2935
  164SAPE   H7X18489   0.747   4.598   6.826 -1.1851  0.4885  1.3669
  164SAPE   H7Y18490   0.695   4.737   6.720 -2.0772 -3.2818  0.7003
  164SAPE   C3818491   0.867   4.779   6.857  0.2904 -0.7348  1.0496
  164SAPE   H8X18492   0.904   4.861   6.792  1.3593 -1.2453  1.0056
  164SAPE   H8Y18493   0.955   4.723   6.896  1.8342  1.1527  0.4359
  164SAPE   C3918494   0.784   4.828   6.971 -0.1155  0.2905  0.8638
  164SAPE   H9X18495   0.739   4.742   7.025  2.1703 -0.4467  1.6967
  164SAPE   H9Y18496   0.697   4.877   6.921 -0.7305 -2.0894 -0.5364
  164SAPE  C31018497   0.860   4.923   7.070 -0.1952 -0.0868  0.5906
  164SAPE  H10X18498   0.876   5.020   7.019 -0.3979 -0.2610  0.1854
  164SAPE  H10Y18499   0.964   4.886   7.083 -0.3173 -1.0005 -0.7728
  164SAPE  C31118500   0.787   4.943   7.199 -0.2306 -0.5664 -0.7114
  164SAPE  H11X18501   0.680   4.966   7.179 -0.3831 -0.5563  0.0877
  164SAPE  H11Y18502   0.842   5.024   7.252  1.1561 -1.2503 -1.0595
  164SAPE  C31218503   0.795   4.823   7.287  0.2662  0.3492  0.3594
  164SAPE  H12X18504   0.897   4.791   7.317 -0.0136 -1.9318 -0.8858
  164SAPE  H12Y18505   0.758   4.734   7.232 -0.2909  2.0676 -2.2141
  164SAPE  C31318506   0.703   4.845   7.414 -0.2338  0.4938  0.2978
  164SAPE  H13X18507   0.614   4.910   7.407  0.4356  1.2638 -1.6695
  164SAPE  H13Y18508   0.766   4.914   7.476 -3.0736  2.2748  1.3849
  164SAPE  C31418509   0.666   4.706   7.475 -0.0317  0.5564 -0.7342
  164SAPE  H14X18510   0.762   4.650   7.478 -0.9466 -1.0256 -0.0847
  164SAPE  H14Y18511   0.592   4.658   7.408 -0.0602 -4.0826  2.2152
  164SAPE  C31518512   0.606   4.732   7.617 -0.6617  0.0185  0.2090
  164SAPE  H15X18513   0.556   4.639   7.651 -0.5461 -1.8164 -4.0169
  164SAPE  H15Y18514   0.534   4.813   7.597 -0.1407  0.2977 -0.5907
  164SAPE  C31618515   0.697   4.794   7.728  0.5618  0.7721  0.0868
  164SAPE  H16X18516   0.626   4.831   7.805 -1.2724 -1.9871 -0.1618
  164SAPE  H16Y18517   0.760   4.879   7.692  0.0792 -0.2798 -3.6802
  164SAPE  C31718518   0.777   4.682   7.796 -0.7751  0.5296 -0.1293
  164SAPE  H17X18519   0.835   4.632   7.716 -1.3741 -2.2553  1.0537
  164SAPE  H17Y18520   0.716   4.608   7.853 -0.7526 -1.6443 -2.7219
  164SAPE  C31818521   0.882   4.730   7.892  0.4630  0.2344  0.0090
  164SAPE  H18X18522   0.842   4.795   7.973  0.6559 -1.6516  1.6944
  164SAPE  H18Y18523   0.956   4.796   7.842  1.1862 -0.4292  0.1857
  164SAPE  H18Z18524   0.945   4.651   7.939  1.0652 -0.0822 -1.2915
  165SAPE     N18525   1.893   6.303   6.293 -0.6846 -0.0540  0.1058
  165SAPE   HN118526   1.976   6.315   6.232  0.4843 -0.4176  1.5677
  165SAPE   HN218527   1.921   6.345   6.384 -0.5875 -2.0370  1.0404
  165SAPE   HN318528   1.888   6.203   6.320 -1.4564  0.0486  0.3835
  165SAPE   C1218529   1.777   6.355   6.235  0.1785 -0.0498  0.3013
  165SAPE  H12A18530   1.744   6.291   6.151  0.5411 -0.1342  0.2207
  165SAPE  H12B18531   1.800   6.457   6.197  0.1516 -0.2131 -0.1585
  165SAPE   C1118532   1.682   6.364   6.342  0.5553 -0.1513 -0.8089
  165SAPE  H11A18533   1.598   6.414   6.289 -0.9878  0.1794  1.7728
  165SAPE  H11B18534   1.711   6.430   6.427 -2.0606  0.1502 -0.0367
  165SAPE     P18535   1.545   6.129   6.315  0.4472 -0.2847  0.4188
  165SAPE   O1318536   1.441   6.211   6.246  0.1077  0.4431 -0.0276
  165SAPE   O1418537   1.620   6.021   6.240 -0.1641 -1.1115  0.4914
  165SAPE   O1218538   1.647   6.224   6.387 -0.0623 -0.2533 -0.1660
  165SAPE   O1118539   1.477   6.045   6.432 -0.5278 -1.3246  0.5665
  165SAPE    C118540   1.558   5.964   6.516 -0.2806 -0.8381 -0.2680
  165SAPE    HA18541   1.498   5.876   6.546 -0.6892 -1.3736 -2.4909
  165SAPE    HB18542   1.638   5.912   6.458 -0.8040 -1.1043 -0.7624
  165SAPE    C218543   1.621   6.047   6.641  0.8608  0.4044  0.3009
  165SAPE    HS18544   1.719   6.091   6.610  3.0370 -1.7573  3.4908
  165SAPE   O2118545   1.640   5.969   6.762  0.2673  0.8942  0.5231
  165SAPE   C2118546   1.727   5.870   6.744  0.0541 -0.3644 -0.4010
  165SAPE   O2218547   1.788   5.851   6.641  0.4057  0.7356  0.6643
  165SAPE   C2218548   1.745   5.797   6.878  0.3868 -0.1792 -0.3537
  165SAPE   H2R18549   1.662   5.828   6.944 -0.5451  0.3830 -1.7331
  165SAPE   H2S18550   1.744   5.690   6.847  1.7023 -1.1978  2.7713
  165SAPE    C318551   1.531   6.165   6.683  0.1647  0.4296 -0.6366
  165SAPE    HX18552   1.433   6.121   6.709  0.5970  0.0629  0.4351
  165SAPE    HY18553   1.516   6.226   6.591 -1.5666 -1.2245 -1.5143
  165SAPE   O3118554   1.588   6.230   6.793 -0.1682  0.0252  0.1926
  165SAPE   C3118555   1.686   6.315   6.774  0.0385  0.0697  0.4652
  165SAPE   O3218556   1.740   6.333   6.666  0.8112 -0.4889  0.1445
  165SAPE   C3218557   1.721   6.380   6.912 -0.8392 -0.4382 -0.6287
  165SAPE   H2X18558   1.757   6.291   6.968 -0.6222  0.4487  0.6662
  165SAPE   H2Y18559   1.630   6.422   6.959 -1.0336 -0.9144 -0.5667
  165SAPE   C2318560   1.877   5.825   6.946  0.6260 -0.2992  0.0268
  165SAPE   H3R18561   1.962   5.778   6.891  0.7276 -0.4479  0.3062
  165SAPE   H3S18562   1.868   5.775   7.045 -0.9031  1.4332  0.8070
  165SAPE   C2418563   1.904   5.972   6.983  0.6375  0.4255  0.2088
  165SAPE   H4R18564   1.921   6.032   6.891 -1.2841 -1.2659 -1.3604
  165SAPE   H4S18565   1.997   5.955   7.041  0.5770  1.7561  0.7259
  165SAPE   C2518566   1.787   6.027   7.061 -0.2102  0.9015 -0.4752
  165SAPE   H5R18567   1.704   6.068   7.001 -0.7627  0.7492  0.1721
  165SAPE   C2618568   1.773   6.024   7.198  0.3485  0.2235 -0.4225
  165SAPE   H6R18569   1.689   6.072   7.251  1.4307  0.4960  1.1013
  165SAPE   C2718570   1.873   5.979   7.295  0.3091  0.3479 -0.4157
  165SAPE   H7R18571   1.937   6.063   7.330  0.8121 -1.0496  2.2891
  165SAPE   H7S18572   1.939   5.903   7.247 -0.1936 -0.8205  0.6763
  165SAPE   C2818573   1.801   5.912   7.423 -0.2868 -0.6497 -0.0467
  165SAPE   H8R18574   1.742   5.822   7.402 -0.4541 -1.1473  2.2430
  165SAPE   C2918575   1.821   5.941   7.550  0.5392 -1.1135 -0.4634
  165SAPE   H9R18576   1.753   5.896   7.624  1.0000  1.2494  1.4998
  165SAPE  C21018577   1.917   6.041   7.611  0.5553  0.6333 -0.9754
  165SAPE  H10R18578   2.019   6.032   7.567  0.2355  2.3391 -2.1321
  165SAPE  H10S18579   1.912   6.012   7.718 -0.6585  0.5836 -1.0329
  165SAPE  C21118580   1.870   6.185   7.602  0.1128 -0.1235  0.0695
  165SAPE  H11R18581   1.904   6.236   7.510  0.2372  1.4446  0.9511
  165SAPE  C21218582   1.809   6.270   7.693  0.0805  0.3101  0.7758
  165SAPE  H12R18583   1.796   6.373   7.658  2.0349 -0.0712 -1.3650
  165SAPE  C21318584   1.768   6.230   7.832 -0.0810  0.4691 -0.8254
  165SAPE  H13R18585   1.857   6.239   7.898  1.0865 -3.0940 -1.7067
  165SAPE  H13S18586   1.732   6.126   7.829  0.6206  0.1989 -0.2509
  165SAPE  C21418587   1.649   6.307   7.887 -0.3593 -0.2802  0.0838
  165SAPE  H14R18588   1.585   6.350   7.809  1.4621 -0.2715 -1.4834
  165SAPE  C21518589   1.620   6.315   8.024  0.2121  0.4019  0.0192
  165SAPE  H15R18590   1.534   6.377   8.053 -0.6239 -0.5846 -0.2767
  165SAPE  C21618591   1.707   6.260   8.137  0.2801  0.7547  0.4125
  165SAPE  H16R18592   1.786   6.195   8.096 -2.1408 -1.2496 -1.4129
  165SAPE  H16S18593   1.645   6.193   8.201 -0.4749 -0.0490 -1.1138
  165SAPE  C21718594   1.755   6.369   8.230 -0.0749 -0.2518  0.1964
  165SAPE  H17R18595   1.668   6.410   8.286 -2.3911  0.4443 -3.5505
  165SAPE  H17S18596   1.813   6.443   8.171  1.2095 -1.8791 -0.6644
  165SAPE  C21818597   1.856   6.300   8.320 -0.1821  0.5800 -0.3581
  165SAPE  H18R18598   1.825   6.196   8.343  0.7989  0.1559 -0.8644
  165SAPE  H18S18599   1.862   6.346   8.421 -1.4102 -0.0874  0.0365
  165SAPE  C21918600   1.996   6.288   8.257 -0.0765  0.3977 -0.3050
  165SAPE  H19R18601   2.011   6.381   8.198 -4.9730  0.5670 -1.7428
  165SAPE  H19S18602   1.993   6.195   8.196  0.3082 -1.0115  1.7261
  165SAPE  C22018603   2.111   6.265   8.359  0.0905 -0.4142 -0.7659
  165SAPE  H20R18604   2.120   6.164   8.403 -0.8712  0.4792  1.6280
  165SAPE  H20S18605   2.091   6.340   8.439  0.0469 -0.5066 -0.6904
  165SAPE  H20T18606   2.207   6.282   8.305  0.6109  1.1226  0.5735
  165SAPE   C3318607   1.840   6.477   6.922  0.3537 -0.8373 -0.0140
  165SAPE   H3X18608   1.815   6.577   6.880 -0.0852 -2.2056 -3.2621
  165SAPE   H3Y18609   1.919   6.427   6.862  0.2067  0.8630 -1.7084
  165SAPE   C3418610   1.903   6.497   7.059 -0.7052 -0.3314 -0.0066
  165SAPE   H4X18611   2.003   6.545   7.054 -1.2558  0.7903 -0.6513
  165SAPE   H4Y18612   1.924   6.396   7.099 -0.6843 -1.3254 -2.3570
  165SAPE   C3518613   1.821   6.574   7.158  0.3125  0.0997  0.7307
  165SAPE   H5X18614   1.715   6.543   7.170 -0.7534  2.6628 -1.1113
  165SAPE   H5Y18615   1.810   6.678   7.121 -0.7870  0.1876  1.2816
  165SAPE   C3618616   1.883   6.581   7.297  0.1517 -0.2227 -0.4260
  165SAPE   H6X18617   1.973   6.646   7.289  1.2879 -1.8104 -0.9359
  165SAPE   H6Y18618   1.917   6.482   7.334 -0.2342  0.5535  2.2613
  165SAPE   C3718619   1.787   6.636   7.418  0.0106 -0.6581 -0.0700
  165SAPE   H7X18620   1.714   6.559   7.448 -0.8598  0.4990  0.9128
  165SAPE   H7Y18621   1.737   6.730   7.385  0.7281 -1.0565 -2.5012
  165SAPE   C3818622   1.865   6.680   7.535  0.3373 -0.1325 -0.3564
  165SAPE   H8X18623   1.921   6.771   7.506 -1.3280  1.1998  0.3962
  165SAPE   H8Y18624   1.932   6.599   7.571 -0.6917 -0.4322  0.9742
  165SAPE   C3918625   1.785   6.714   7.670  0.2361  0.0463 -0.4672
  165SAPE   H9X18626   1.704   6.640   7.681  0.7769 -0.6444 -1.0097
  165SAPE   H9Y18627   1.741   6.815   7.653  0.3491  0.8139  3.1265
  165SAPE  C31018628   1.879   6.716   7.788  0.5090  0.6134 -0.5925
  165SAPE  H10X18629   1.949   6.800   7.767 -0.1875  0.9341 -1.7633
  165SAPE  H10Y18630   1.925   6.617   7.805  2.0933  1.1568 -1.4841
  165SAPE  C31118631   1.806   6.742   7.923 -0.3631  0.5270 -0.9326
  165SAPE  H11X18632   1.744   6.653   7.948 -0.9880  1.4205  0.8384
  165SAPE  H11Y18633   1.736   6.828   7.928  0.4812  1.1502  1.2292
  165SAPE  C31218634   1.908   6.760   8.039 -0.5839  0.1074 -1.0069
  165SAPE  H12X18635   1.961   6.855   8.018 -2.6643  1.7761  0.8818
  165SAPE  H12Y18636   1.981   6.676   8.034 -0.5606  0.0740 -0.1496
  165SAPE  C31318637   1.846   6.778   8.179  0.4642 -0.0090 -0.1262
  165SAPE  H13X18638   1.779   6.695   8.210  0.8890  0.4027  2.0713
  165SAPE  H13Y18639   1.772   6.860   8.161 -0.9999 -1.9405 -3.8498
  165SAPE  C31418640   1.958   6.794   8.288  0.4841  0.5367 -0.2806
  165SAPE  H14X18641   2.012   6.890   8.271 -0.1337  1.0096  0.3807
  165SAPE  H14Y18642   2.037   6.716   8.289 -1.1325 -1.2421  2.9628
  165SAPE  C31518643   1.909   6.791   8.436  0.5870 -0.1818  0.6551
  165SAPE  H15X18644   1.995   6.828   8.495  1.8744 -0.4012 -0.9958
  165SAPE  H15Y18645   1.885   6.688   8.469  1.2373 -0.6093 -0.1529
  165SAPE  C31618646   1.797   6.896   8.445  0.5517  0.7215  0.2503
  165SAPE  H16X18647   1.715   6.856   8.382 -0.0403  0.6217  1.0592
  165SAPE  H16Y18648   1.829   6.990   8.396 -0.1740  1.0227  0.3443
  165SAPE  C31718649   1.751   6.937   8.584 -0.7024 -0.3640  0.3548
  165SAPE  H17X18650   1.678   7.020   8.585  1.2888  1.4701  1.6958
  165SAPE  H17Y18651   1.843   6.982   8.626 -1.9564  1.6884  1.0472
  165SAPE  C31818652   1.696   6.829   8.669 -0.6358 -0.1311 -0.2572
  165SAPE  H18X18653   1.622   6.862   8.745  0.7403  1.9099  0.3051
  165SAPE  H18Y18654   1.777   6.761   8.703 -0.2680 -0.6055 -2.0228
  165SAPE  H18Z18655   1.638   6.758   8.608 -1.1604 -2.2528  2.5143
  166SAPE     N18656   6.472   4.228   6.092 -0.1348  0.8543  0.4876
  166SAPE   HN118657   6.441   4.189   6.000 -0.7610  0.4598  0.8569
  166SAPE   HN218658   6.529   4.313   6.073  0.3954  0.2592 -0.6996
  166SAPE   HN318659   6.529   4.151   6.133  0.2734 -0.0063 -1.5465
  166SAPE   C1218660   6.357   4.250   6.179 -0.2280  0.7386  0.3941
  166SAPE  H12A18661   6.388   4.313   6.266  2.8611  0.1569 -0.1769
  166SAPE  H12B18662   6.317   4.148   6.195  0.3878  0.0685 -2.0540
  166SAPE   C1118663   6.244   4.313   6.101 -0.0443 -0.1135  0.3244
  166SAPE  H11A18664   6.284   4.408   6.060 -1.6043  0.8708  1.0081
  166SAPE  H11B18665   6.165   4.361   6.161  1.0981  2.3835 -0.0491
  166SAPE     P18666   6.085   4.126   6.026 -0.2079 -0.0993 -0.2119
  166SAPE   O1318667   5.974   4.150   5.933 -0.3802 -0.3499 -0.7867
  166SAPE   O1418668   6.141   3.984   6.036 -0.1008 -0.5070  0.1367
  166SAPE   O1218669   6.202   4.224   5.994 -0.0552 -0.1493 -0.3918
  166SAPE   O1118670   6.040   4.173   6.170 -0.0142  0.0483  0.2286
  166SAPE    C118671   5.945   4.090   6.234 -0.0107  0.7986 -0.5958
  166SAPE    HA18672   5.843   4.132   6.217 -0.1958  1.5984  2.0410
  166SAPE    HB18673   5.945   3.987   6.193 -0.6064  0.9775 -1.0523
  166SAPE    C218674   5.961   4.100   6.391 -0.4502 -0.7604  0.2768
  166SAPE    HS18675   5.900   4.028   6.450 -1.4332 -0.4314 -0.3137
  166SAPE   O2118676   5.912   4.229   6.430 -0.5881 -0.4258  0.0311
  166SAPE   C2118677   5.824   4.248   6.529 -0.3490 -0.1810  0.2335
  166SAPE   O2218678   5.756   4.167   6.590  0.1103 -0.1940 -0.0878
  166SAPE   C2218679   5.805   4.398   6.544  0.4057  0.3833 -0.2482
  166SAPE   H2R18680   5.769   4.427   6.443 -0.4208 -0.2342 -0.1501
  166SAPE   H2S18681   5.732   4.421   6.625  0.0742  1.0816 -0.7443
  166SAPE    C318682   6.110   4.085   6.425  0.3205  0.6510  0.4051
  166SAPE    HX18683   6.182   4.150   6.370  0.4748 -0.2159 -0.4330
  166SAPE    HY18684   6.141   3.982   6.398 -0.0744  0.0379  2.1993
  166SAPE   O3118685   6.128   4.083   6.564 -0.0937 -0.1261  0.3491
  166SAPE   C3118686   6.221   4.158   6.607  0.6738 -0.6637 -0.5506
  166SAPE   O3218687   6.288   4.235   6.540 -0.1208 -0.2437 -0.1953
  166SAPE   C3218688   6.240   4.126   6.753 -1.2151 -0.0590  0.4778
  166SAPE   H2X18689   6.269   4.019   6.754 -0.3858  0.1433 -0.5673
  166SAPE   H2Y18690   6.141   4.120   6.804 -0.5400  0.9126  1.9870
  166SAPE   C2318691   5.938   4.472   6.585 -0.2561  0.9192  0.2231
  166SAPE   H3R18692   5.918   4.576   6.550  0.7453  1.9723  2.5964
  166SAPE   H3S18693   6.028   4.426   6.538  0.3001  1.5409  0.6674
  166SAPE   C2418694   5.956   4.463   6.735  0.1504  0.3472  0.1602
  166SAPE   H4R18695   5.947   4.356   6.765 -2.8523  0.4152 -0.2413
  166SAPE   H4S18696   5.868   4.510   6.783  1.2228  2.1235  0.4573
  166SAPE   C2518697   6.086   4.520   6.794  0.5986 -0.0296  0.0762
  166SAPE   H5R18698   6.146   4.563   6.713 -0.9249 -0.1209 -1.1585
  166SAPE   C2618699   6.125   4.524   6.923 -0.9980  0.0089 -0.2685
  166SAPE   H6R18700   6.220   4.575   6.945 -1.3265  0.0793  1.1247
  166SAPE   C2718701   6.053   4.470   7.044  0.0988  0.0417 -0.2902
  166SAPE   H7R18702   6.091   4.366   7.052  0.1336  0.0043 -0.9038
  166SAPE   H7S18703   5.944   4.469   7.024 -0.2071  0.6560  1.1593
  166SAPE   C2818704   6.089   4.567   7.147  0.4593 -0.0578  0.6473
  166SAPE   H8R18705   6.064   4.669   7.115 -1.7033 -1.0576 -1.1080
  166SAPE   C2918706   6.142   4.535   7.260  0.0537  0.4615  0.3062
  166SAPE   H9R18707   6.165   4.617   7.330 -0.8829  3.3910 -2.5587
  166SAPE  C21018708   6.183   4.400   7.309  0.5224  0.6844  0.8114
  166SAPE  H10R18709   6.207   4.324   7.232 -3.8635 -1.3051  1.0953
  166SAPE  H10S18710   6.092   4.363   7.362 -0.6620 -0.2350 -1.7012
  166SAPE  C21118711   6.305   4.390   7.397  0.0175 -0.2463 -0.7197
  166SAPE  H11R18712   6.395   4.349   7.348  1.9590  0.1591  2.1979
  166SAPE  C21218713   6.324   4.427   7.524  0.2563 -0.0608  0.0027
  166SAPE  H12R18714   6.418   4.399   7.573 -1.1484 -0.8966  2.3943
  166SAPE  C21318715   6.219   4.486   7.614  0.1540 -0.0666  0.0714
  166SAPE  H13R18716   6.227   4.425   7.706 -0.6281 -0.0385  0.1668
  166SAPE  H13S18717   6.119   4.486   7.566 -0.0831  1.0475  0.5497
  166SAPE  C21418718   6.257   4.629   7.639 -0.4599  0.4627  0.3111
  166SAPE  H14R18719   6.283   4.688   7.549 -1.9650  1.7265  0.6629
  166SAPE  C21518720   6.291   4.680   7.762 -0.1116  0.0301  0.3905
  166SAPE  H15R18721   6.311   4.788   7.760  0.5932 -0.1084 -0.0490
  166SAPE  C21618722   6.284   4.618   7.902  0.3335 -0.1790  0.2069
  166SAPE  H16R18723   6.246   4.514   7.892  1.2874 -0.5199  0.0058
  166SAPE  H16S18724   6.215   4.685   7.958 -1.7069  1.3571 -3.7238
  166SAPE  C21718725   6.425   4.600   7.968  0.0718  0.0697  0.4141
  166SAPE  H17R18726   6.480   4.691   8.001  0.5349  0.4435 -1.2838
  166SAPE  H17S18727   6.481   4.549   7.887  0.6727  0.6451  0.4577
  166SAPE  C21818728   6.423   4.514   8.091 -0.3486  0.4255 -0.1242
  166SAPE  H18R18729   6.529   4.507   8.123 -1.1223  0.8612  2.8772
  166SAPE  H18S18730   6.399   4.408   8.068 -0.2590 -0.1038  1.9730
  166SAPE  C21918731   6.344   4.581   8.207  0.3218  0.0624  0.6426
  166SAPE  H19R18732   6.235   4.579   8.185  0.2271 -0.6971  1.1249
  166SAPE  H19S18733   6.355   4.691   8.203  1.5215 -0.0677 -1.9678
  166SAPE  C22018734   6.364   4.536   8.348 -0.1114 -0.1043 -0.3721
  166SAPE  H20R18735   6.472   4.536   8.373 -0.0581  2.3196 -0.4483
  166SAPE  H20S18736   6.314   4.437   8.358 -2.2256  1.0315  1.1357
  166SAPE  H20T18737   6.308   4.594   8.424 -1.8039 -1.6467 -0.3707
  166SAPE   C3318738   6.331   4.217   6.832 -0.4594  0.1061 -0.5718
  166SAPE   H3X18739   6.298   4.323   6.831 -3.3596 -0.7096 -1.5876
  166SAPE   H3Y18740   6.433   4.219   6.786  0.6095  2.7304  1.6533
  166SAPE   C3418741   6.339   4.174   6.981  0.1890 -0.4006 -0.2949
  166SAPE   H4X18742   6.234   4.165   7.017  0.6130 -2.9648  0.5128
  166SAPE   H4Y18743   6.391   4.255   7.036 -0.5713 -0.8236  1.0942
  166SAPE   C3518744   6.412   4.042   7.000  0.0161  0.4710  0.6049
  166SAPE   H5X18745   6.519   4.043   6.971 -0.0107 -1.4845  0.3176
  166SAPE   H5Y18746   6.349   3.969   6.945 -0.4984  1.6551 -0.4298
  166SAPE   C3618747   6.424   3.995   7.147  0.0095  0.0074 -0.4030
  166SAPE   H6X18748   6.456   3.889   7.147  1.3160  0.3548  0.6474
  166SAPE   H6Y18749   6.321   4.005   7.188 -1.4965 -2.0916 -3.3227
  166SAPE   C3718750   6.532   4.072   7.226  0.0025 -0.1138 -0.1952
  166SAPE   H7X18751   6.492   4.175   7.237 -3.9379 -1.4184 -0.4075
  166SAPE   H7Y18752   6.628   4.072   7.171  0.2768  0.6868  0.2645
  166SAPE   C3818753   6.561   4.012   7.369  0.0670  0.1840 -0.1574
  166SAPE   H8X18754   6.665   4.032   7.403 -0.1906  0.6318  0.3855
  166SAPE   H8Y18755   6.554   3.902   7.358 -1.3937  0.4172 -2.0011
  166SAPE   C3918756   6.462   4.066   7.473 -0.3297 -0.1099 -0.1229
  166SAPE   H9X18757   6.363   4.072   7.421 -0.3123  0.8949 -0.0702
  166SAPE   H9Y18758   6.492   4.169   7.505 -3.0539  1.1295 -1.2220
  166SAPE  C31018759   6.455   3.966   7.592 -0.5445  0.1873  0.4514
  166SAPE  H10X18760   6.451   3.861   7.556  0.5881  0.2269  0.1768
  166SAPE  H10Y18761   6.374   3.987   7.666 -1.6201 -2.3059  0.0849
  166SAPE  C31118762   6.595   3.961   7.668  0.3045 -0.6977 -0.0025
  166SAPE  H11X18763   6.614   4.068   7.687  2.1374 -1.0206  0.1518
  166SAPE  H11Y18764   6.661   3.914   7.592  0.1117 -0.2068 -0.4830
  166SAPE  C31218765   6.581   3.871   7.793 -0.0196  0.1597  0.3499
  166SAPE  H12X18766   6.679   3.831   7.827 -0.6216 -2.4323 -0.6762
  166SAPE  H12Y18767   6.527   3.776   7.773  0.0734  0.5330 -1.9377
  166SAPE  C31318768   6.507   3.941   7.908  0.2846 -0.6135  0.3686
  166SAPE  H13X18769   6.433   4.014   7.870  0.5963  0.3991  1.6553
  166SAPE  H13Y18770   6.577   4.007   7.963 -0.3510  2.0507 -1.8130
  166SAPE  C31418771   6.442   3.845   8.010  0.4881  0.5003 -0.7038
  166SAPE  H14X18772   6.377   3.771   7.958  0.1279  2.0414 -2.5418
  166SAPE  H14Y18773   6.386   3.901   8.088  1.0014  0.9631 -0.6590
  166SAPE  C31518774   6.561   3.770   8.083 -0.3348  0.0406 -0.5545
  166SAPE  H15X18775   6.635   3.847   8.115  1.3956 -2.5322  2.1709
  166SAPE  H15Y18776   6.594   3.695   8.008 -1.3948 -0.7107 -0.2895
  166SAPE  C31618777   6.517   3.706   8.220 -0.0978  0.1105  0.8144
  166SAPE  H16X18778   6.469   3.785   8.282 -0.4911  1.9371 -1.6502
  166SAPE  H16Y18779   6.605   3.664   8.273  1.6836  1.3436 -1.0024
  166SAPE  C31718780   6.414   3.597   8.187  0.8737 -0.1192 -0.1966
  166SAPE  H17X18781   6.460   3.534   8.108  0.6152 -1.2417  0.5243
  166SAPE  H17Y18782   6.326   3.644   8.139  1.0715  0.0127 -0.4313
  166SAPE  C31818783   6.374   3.516   8.307  0.2193  0.3748  0.1575
  166SAPE  H18X18784   6.329   3.575   8.389 -1.3059 -0.3258 -0.1582
  166SAPE  H18Y18785   6.459   3.457   8.349 -0.0933 -2.2177 -2.5323
  166SAPE  H18Z18786   6.290   3.446   8.289 -0.5459  1.3573 -0.1717
  167SAPE     N18787   0.499   3.453   5.875 -0.2930 -0.3505  0.1972
  167SAPE   HN118788   0.432   3.530   5.857  0.1685 -0.6824 -3.6037
  167SAPE   HN218789   0.595   3.488   5.855 -0.7533  2.4101  2.1950
  167SAPE   HN318790   0.476   3.376   5.810  1.1571 -0.4875 -0.2011
  167SAPE   C1218791   0.475   3.394   6.009 -0.2217  0.6942 -0.7067
  167SAPE  H12A18792   0.370   3.356   6.007  0.2833 -0.7481 -1.5784
  167SAPE  H12B18793   0.503   3.474   6.080  0.3829 -2.3020  2.7403
  167SAPE   C1118794   0.583   3.286   6.018 -0.0878  0.2826  0.3873
  167SAPE  H11A18795   0.574   3.209   5.939 -0.4288  0.2384  0.4671
  167SAPE  H11B18796   0.569   3.231   6.113 -1.3936 -1.2858 -0.6630
  167SAPE     P18797   0.806   3.362   6.128  0.2169  0.0456 -0.0346
  167SAPE   O1318798   0.883   3.233   6.146 -0.3646 -1.1268 -0.5750
  167SAPE   O1418799   0.877   3.491   6.103  0.2134 -0.6274 -0.0057
  167SAPE   O1218800   0.719   3.339   6.001 -0.3094 -0.2481 -0.5882
  167SAPE   O1118801   0.700   3.394   6.246  0.1354  0.4795 -0.1117
  167SAPE    C118802   0.730   3.341   6.378  0.2218 -0.0935 -0.2674
  167SAPE    HA18803   0.646   3.388   6.434 -1.2918  1.5892 -3.6727
  167SAPE    HB18804   0.729   3.230   6.374  0.9528 -0.1008 -0.2829
  167SAPE    C218805   0.866   3.386   6.438 -0.1139  0.4069 -0.0583
  167SAPE    HS18806   0.931   3.317   6.380  0.0811 -0.1842  0.8503
  167SAPE   O2118807   0.873   3.337   6.571 -0.4119  0.1182  0.3730
  167SAPE   C2118808   0.998   3.338   6.625 -0.2925 -0.6299 -0.6187
  167SAPE   O2218809   1.103   3.355   6.565 -0.1314 -0.0263 -0.0719
  167SAPE   C2218810   0.988   3.307   6.780 -0.5903 -0.7864 -0.5188
  167SAPE   H2R18811   0.888   3.333   6.821 -0.2156 -0.5340  0.2540
  167SAPE   H2S18812   1.020   3.201   6.787  0.2924 -0.5009 -0.0790
  167SAPE    C318813   0.901   3.538   6.429  0.8239 -0.1947 -0.1579
  167SAPE    HX18814   0.832   3.590   6.358  0.1221 -0.1600  0.5404
  167SAPE    HY18815   1.000   3.542   6.378  2.4861  1.6617  2.9224
  167SAPE   O3118816   0.890   3.605   6.554  0.2224  0.4220 -0.4573
  167SAPE   C3118817   0.996   3.683   6.589  0.0164  0.3778  0.0545
  167SAPE   O3218818   1.104   3.678   6.526  0.8348 -0.1468  0.7913
  167SAPE   C3218819   0.966   3.757   6.716  0.0148 -0.1297 -0.3292
  167SAPE   H2X18820   0.902   3.692   6.779 -0.1327  3.8076  4.1928
  167SAPE   H2Y18821   0.910   3.842   6.671  3.2293  2.8481  0.8605
  167SAPE   C2318822   1.093   3.396   6.855 -0.0174 -0.0546 -0.0582
  167SAPE   H3R18823   1.071   3.503   6.831  1.4394 -0.4592 -4.0518
  167SAPE   H3S18824   1.193   3.360   6.822  0.2819 -1.4174  2.1741
  167SAPE   C2418825   1.083   3.380   7.008 -0.8906 -0.4738 -0.0151
  167SAPE   H4R18826   1.105   3.274   7.034 -0.6915 -0.6404 -0.8266
  167SAPE   H4S18827   0.977   3.394   7.039 -0.2472  0.4876  1.9320
  167SAPE   C2518828   1.191   3.462   7.067 -0.8014  0.3512  0.6439
  167SAPE   H5R18829   1.275   3.496   7.004 -0.2725 -1.0862  0.5262
  167SAPE   C2618830   1.190   3.518   7.183 -0.4151  0.0264 -0.0724
  167SAPE   H6R18831   1.278   3.575   7.216  0.8812 -0.7471 -2.0076
  167SAPE   C2718832   1.081   3.513   7.289 -0.2811 -0.0268  0.2713
  167SAPE   H7R18833   1.018   3.430   7.250 -0.0989  0.0918 -0.2833
  167SAPE   H7S18834   1.022   3.607   7.278 -0.7736 -0.5264 -1.7906
  167SAPE   C2818835   1.129   3.504   7.436  0.5376 -0.1515  0.4670
  167SAPE   H8R18836   1.175   3.599   7.467  2.8064 -0.5071 -1.4678
  167SAPE   C2918837   1.102   3.399   7.519  0.7241 -0.0377 -0.2227
  167SAPE   H9R18838   1.147   3.409   7.618  1.2221 -0.6637 -0.3751
  167SAPE  C21018839   1.037   3.263   7.496 -0.7383 -0.3091  0.5395
  167SAPE  H10R18840   1.124   3.198   7.522  2.4226  3.0843 -0.6879
  167SAPE  H10S18841   1.021   3.253   7.387 -1.4538  0.7770  0.5419
  167SAPE  C21118842   0.904   3.245   7.569 -0.5958  0.4405 -0.2758
  167SAPE  H11R18843   0.823   3.266   7.498 -2.5906 -0.1689  1.6767
  167SAPE  C21218844   0.883   3.205   7.696 -0.1443 -0.3641  0.0903
  167SAPE  H12R18845   0.780   3.198   7.736  0.7620 -0.6124  2.5205
  167SAPE  C21318846   0.993   3.166   7.794  0.5033  0.3702  0.5575
  167SAPE  H13R18847   0.992   3.249   7.868 -1.9510  1.2349 -0.3614
  167SAPE  H13S18848   1.092   3.159   7.743 -0.2975  2.6195 -1.4461
  167SAPE  C21418849   0.974   3.028   7.849 -0.5218 -0.3174  0.4188
  167SAPE  H14R18850   1.018   2.957   7.778 -1.0236 -0.9710  0.7444
  167SAPE  C21518851   0.900   2.972   7.951 -0.0339  0.2190  0.0938
  167SAPE  H15R18852   0.910   2.865   7.976 -0.2087  0.6722  2.2019
  167SAPE  C21618853   0.818   3.053   8.040  0.2415  0.0237 -0.0177
  167SAPE  H16R18854   0.722   3.003   8.065  0.4012 -2.9711 -4.3731
  167SAPE  H16S18855   0.799   3.155   8.001  0.4005 -0.3887 -1.2224
  167SAPE  C21718856   0.893   3.066   8.175 -0.4195 -0.6921  0.5668
  167SAPE  H17R18857   0.843   3.143   8.237 -0.4050  0.0804 -0.3700
  167SAPE  H17S18858   0.996   3.094   8.145  0.3842 -3.5090  0.4009
  167SAPE  C21818859   0.904   2.933   8.256  0.7935  0.4315 -0.5600
  167SAPE  H18R18860   0.964   2.851   8.211  0.8969  0.7124 -0.9432
  167SAPE  H18S18861   0.802   2.894   8.274  0.6987  2.0965  3.6313
  167SAPE  C21918862   0.943   2.954   8.403 -0.4091  0.8992 -1.0795
  167SAPE  H19R18863   0.867   3.019   8.451  0.2142  2.6327 -2.3173
  167SAPE  H19S18864   1.037   3.014   8.401 -0.9259  2.2453  3.4321
  167SAPE  C22018865   0.963   2.820   8.480  0.3541 -0.1726  0.5376
  167SAPE  H20R18866   1.034   2.751   8.430  1.0667  1.4853 -0.8498
  167SAPE  H20S18867   0.870   2.761   8.494  0.0581 -0.1552 -1.1325
  167SAPE  H20T18868   0.999   2.838   8.584 -0.0788 -2.8401  1.2208
  167SAPE   C3318869   1.087   3.801   6.791  0.2730  0.5557  0.2219
  167SAPE   H3X18870   1.108   3.902   6.750 -1.5002  1.4134  1.2793
  167SAPE   H3Y18871   1.177   3.736   6.784  0.8877  1.5201 -1.2528
  167SAPE   C3418872   1.044   3.815   6.934 -0.5351  0.0183 -0.3061
  167SAPE   H4X18873   1.008   3.717   6.972 -1.9858  0.9527  0.8414
  167SAPE   H4Y18874   0.955   3.880   6.929 -0.1807  0.4886 -0.5769
  167SAPE   C3518875   1.149   3.878   7.028  0.2979  0.7181 -0.0641
  167SAPE   H5X18876   1.190   3.967   6.976 -2.9089  2.0172 -0.6389
  167SAPE   H5Y18877   1.231   3.805   7.043  0.8052  1.1723 -0.5595
  167SAPE   C3618878   1.079   3.915   7.160  0.5577 -0.0580 -0.3259
  167SAPE   H6X18879   1.001   3.843   7.192  0.0782  1.3008  1.6758
  167SAPE   H6Y18880   1.007   3.999   7.151  0.8850  0.2828  0.2180
  167SAPE   C3718881   1.171   3.936   7.285  0.3500  0.5194 -0.6719
  167SAPE   H7X18882   1.211   4.038   7.272  2.2677 -0.0551  0.3527
  167SAPE   H7Y18883   1.260   3.870   7.276 -0.4499 -0.4079 -2.1081
  167SAPE   C3818884   1.093   3.909   7.419  0.7840  0.5661  0.8369
  167SAPE   H8X18885   1.072   3.800   7.420  2.7078  0.1083 -1.3590
  167SAPE   H8Y18886   1.002   3.966   7.445  0.7768 -0.1935  2.6364
  167SAPE   C3918887   1.186   3.939   7.536 -0.2897 -0.3244 -0.4147
  167SAPE   H9X18888   1.206   4.048   7.543 -3.2400  0.2168  1.4803
  167SAPE   H9Y18889   1.283   3.887   7.522 -0.0758 -0.3373  0.9312
  167SAPE  C31018890   1.140   3.893   7.675 -0.5506  0.4130 -0.1295
  167SAPE  H10X18891   1.043   3.940   7.705  0.4491  1.9930  0.7923
  167SAPE  H10Y18892   1.210   3.929   7.754 -1.1698 -0.4667  0.8448
  167SAPE  C31118893   1.128   3.739   7.688 -0.2728 -0.0270 -0.2300
  167SAPE  H11X18894   1.218   3.701   7.634 -0.2381 -1.4712  0.7683
  167SAPE  H11Y18895   1.040   3.693   7.636 -1.0453 -1.8732  2.4873
  167SAPE  C31218896   1.137   3.701   7.836  0.0269 -0.0465 -0.4920
  167SAPE  H12X18897   1.068   3.766   7.895  1.9997  1.1110  0.6629
  167SAPE  H12Y18898   1.241   3.715   7.871  0.0324 -2.0144  0.3809
  167SAPE  C31318899   1.091   3.563   7.857 -0.9543 -0.2973 -0.2754
  167SAPE  H13X18900   1.168   3.504   7.805  0.7250  3.1267 -2.0090
  167SAPE  H13Y18901   0.995   3.541   7.806 -1.4218  0.9929 -0.0138
  167SAPE  C31418902   1.089   3.526   8.006  0.5192  0.6225 -0.2579
  167SAPE  H14X18903   1.052   3.422   8.011  0.7834  0.5664  0.7762
  167SAPE  H14Y18904   1.020   3.598   8.056 -0.2746 -0.7943  0.7631
  167SAPE  C31518905   1.226   3.517   8.072 -0.7083 -0.0440 -0.3174
  167SAPE  H15X18906   1.274   3.615   8.092  1.0648 -1.0667  0.7868
  167SAPE  H15Y18907   1.280   3.451   8.000 -0.2318 -0.3660  0.3192
  167SAPE  C31618908   1.213   3.461   8.210 -0.4507  0.0160 -0.2855
  167SAPE  H16X18909   1.318   3.450   8.247  0.0806 -0.5100 -1.8679
  167SAPE  H16Y18910   1.150   3.371   8.193 -2.1534  1.1059  0.0134
  167SAPE  C31718911   1.141   3.557   8.305  1.1149  0.1178 -0.1170
  167SAPE  H17X18912   1.044   3.590   8.263  0.1527 -0.7538  1.3363
  167SAPE  H17Y18913   1.204   3.648   8.306  1.0462  0.2951 -2.9957
  167SAPE  C31818914   1.126   3.497   8.441 -0.0834 -0.0636 -0.3382
  167SAPE  H18X18915   1.225   3.486   8.490  0.3810 -3.6880 -1.7638
  167SAPE  H18Y18916   1.069   3.402   8.455  0.9464 -0.5330  0.8035
  167SAPE  H18Z18917   1.061   3.566   8.500  0.1345 -0.8223  0.8226
  168SAPE     N18918   3.989   5.327   6.246 -0.0993  0.0207 -0.4748
  168SAPE   HN118919   4.085   5.294   6.269  0.0285 -0.1788 -1.2677
  168SAPE   HN218920   3.961   5.257   6.174  1.6267  1.2979 -2.5067
  168SAPE   HN318921   3.999   5.421   6.205  0.7861 -0.3210 -1.0589
  168SAPE   C1218922   3.911   5.308   6.371 -0.6119 -0.0939  0.4804
  168SAPE  H12A18923   3.805   5.288   6.343 -1.2156  2.9009  0.3113
  168SAPE  H12B18924   3.920   5.403   6.427  1.5024  0.9412 -1.4649
  168SAPE   C1118925   3.985   5.195   6.460  0.2276 -0.1561  1.1412
  168SAPE  H11A18926   3.935   5.194   6.559  1.3150  2.1003  1.7734
  168SAPE  H11B18927   4.081   5.236   6.497 -0.0267  0.2514  1.3516
  168SAPE     P18928   3.861   4.971   6.390 -0.2455  0.1007  0.1673
  168SAPE   O1318929   3.762   5.033   6.295 -0.3988  0.3852  0.7647
  168SAPE   O1418930   3.911   4.834   6.357 -0.3564  0.1175  0.1515
  168SAPE   O1218931   3.993   5.062   6.396  0.2361 -0.5617  0.6318
  168SAPE   O1118932   3.809   4.975   6.537 -0.7359 -0.3984  0.0907
  168SAPE    C118933   3.898   4.915   6.630  0.1596 -0.9036 -0.0805
  168SAPE    HA18934   3.912   4.806   6.622  2.1688 -0.6937  0.2221
  168SAPE    HB18935   4.000   4.958   6.619 -0.1134 -0.2763 -0.2428
  168SAPE    C218936   3.850   4.952   6.768  0.2700  0.5795  0.5032
  168SAPE    HS18937   3.752   5.001   6.752  0.7439  0.9810 -1.4386
  168SAPE   O2118938   3.949   5.038   6.836  0.2865  0.6033 -0.0467
  168SAPE   C2118939   3.928   5.167   6.821 -0.3425  0.0731 -0.7080
  168SAPE   O2218940   3.825   5.213   6.778  0.4155 -0.2124 -0.3719
  168SAPE   C2218941   4.057   5.242   6.846  1.0296 -0.1801  0.6724
  168SAPE   H2R18942   4.149   5.180   6.840  1.3744  0.4177 -0.5258
  168SAPE   H2S18943   4.057   5.314   6.761 -0.9678  0.4737  1.1727
  168SAPE    C318944   3.824   4.818   6.844  0.5110 -1.1833 -0.2419
  168SAPE    HX18945   3.914   4.755   6.856  1.1205 -0.2229  0.3254
  168SAPE    HY18946   3.746   4.762   6.788 -1.6425  1.0480  0.3265
  168SAPE   O3118947   3.767   4.857   6.967  0.5996 -0.2445  0.2153
  168SAPE   C3118948   3.763   4.764   7.067  0.3260  0.2356 -0.5774
  168SAPE   O3218949   3.816   4.656   7.049  0.5145  0.5003 -0.2864
  168SAPE   C3218950   3.702   4.826   7.197  0.0944  0.2766  0.7506
  168SAPE   H2X18951   3.593   4.816   7.179 -0.0990  0.6612  1.6787
  168SAPE   H2Y18952   3.722   4.935   7.190  2.4946 -0.0745  1.1374
  168SAPE   C2318953   4.085   5.306   6.984 -0.1199  0.9370 -0.0710
  168SAPE   H3R18954   4.031   5.252   7.065 -1.7547 -1.0020 -2.3224
  168SAPE   H3S18955   4.027   5.400   6.976 -2.4751 -0.4622 -0.3005
  168SAPE   C2418956   4.238   5.330   6.996 -0.5762  0.2088 -0.5654
  168SAPE   H4R18957   4.256   5.414   7.067 -1.6627 -0.7825  0.9406
  168SAPE   H4S18958   4.273   5.366   6.897  1.4283  0.5773  0.2338
  168SAPE   C2518959   4.326   5.215   7.045 -0.7602  0.1293  0.2170
  168SAPE   H5R18960   4.365   5.149   6.966 -1.5008 -1.1070  0.8374
  168SAPE   C2618961   4.357   5.185   7.170  0.0879 -0.6160  0.1608
  168SAPE   H6R18962   4.424   5.099   7.185  1.3213 -0.5596 -3.8428
  168SAPE   C2718963   4.309   5.260   7.291 -0.6952  0.1338  0.0016
  168SAPE   H7R18964   4.213   5.314   7.275  0.1649  2.2294  1.4569
  168SAPE   H7S18965   4.375   5.344   7.322  0.9268 -0.9644 -0.3736
  168SAPE   C2818966   4.295   5.159   7.400 -0.3559 -0.6911  0.4057
  168SAPE   H8R18967   4.380   5.134   7.466 -0.2737 -2.1676 -0.2147
  168SAPE   C2918968   4.179   5.130   7.454 -0.3519  0.2363 -0.4514
  168SAPE   H9R18969   4.172   5.043   7.522 -0.7677  0.0352 -0.7488
  168SAPE  C21018970   4.047   5.187   7.419  0.5559 -0.2172 -0.6316
  168SAPE  H10R18971   3.996   5.099   7.374 -0.6633  1.1812 -2.1405
  168SAPE  H10S18972   4.046   5.267   7.342 -0.9735 -0.6926 -1.1497
  168SAPE  C21118973   3.992   5.247   7.536  0.0231  0.6472  0.0726
  168SAPE  H11R18974   4.049   5.336   7.568  0.3549  0.4753 -0.0310
  168SAPE  C21218975   3.881   5.216   7.599 -0.6067  0.3883  0.5777
  168SAPE  H12R18976   3.858   5.279   7.687  0.5775  0.4371  0.8685
  168SAPE  C21318977   3.788   5.100   7.581  0.0297 -0.0409 -0.3126
  168SAPE  H13R18978   3.797   5.026   7.663 -2.0276 -0.2249 -0.2055
  168SAPE  H13S18979   3.799   5.049   7.482 -2.4793 -4.4154  1.3604
  168SAPE  C21418980   3.646   5.151   7.594 -0.3832  0.0827 -0.2157
  168SAPE  H14R18981   3.622   5.228   7.519 -0.1651  1.9834  1.5723
  168SAPE  C21518982   3.560   5.136   7.697 -0.1863  0.4257  0.1277
  168SAPE  H15R18983   3.467   5.193   7.695 -0.8457 -0.6099  0.3168
  168SAPE  C21618984   3.581   5.066   7.827  0.2139 -0.2249 -0.9666
  168SAPE  H16R18985   3.675   5.006   7.822  0.9846  0.9152 -0.4094
  168SAPE  H16S18986   3.494   4.999   7.844  0.7833 -0.0634  3.8628
  168SAPE  C21718987   3.586   5.163   7.948 -0.5022 -0.0453  0.4780
  168SAPE  H17R18988   3.493   5.224   7.948 -1.4691 -1.3564 -2.1878
  168SAPE  H17S18989   3.663   5.243   7.936 -1.0699  0.8957  2.7041
  168SAPE  C21818990   3.600   5.095   8.083 -0.1658 -0.3993 -0.7600
  168SAPE  H18R18991   3.670   5.008   8.077 -0.2464 -0.4056 -1.7924
  168SAPE  H18S18992   3.502   5.051   8.111  1.0629 -1.7392  1.7644
  168SAPE  C21918993   3.658   5.166   8.206 -0.4902 -0.0740  0.0769
  168SAPE  H19R18994   3.587   5.245   8.238 -0.2321  0.0444  0.3676
  168SAPE  H19S18995   3.762   5.201   8.191  0.0274 -1.3622  0.4610
  168SAPE  C22018996   3.680   5.067   8.319  0.5392  0.1985 -0.1896
  168SAPE  H20R18997   3.586   5.009   8.333 -0.4306  1.4688 -1.1713
  168SAPE  H20S18998   3.717   5.119   8.410  0.6939 -2.7962  1.5725
  168SAPE  H20T18999   3.759   4.995   8.290  0.0657 -1.0352  1.4204
  168SAPE   C3319000   3.748   4.761   7.332 -0.5426 -0.6102  0.5450
  168SAPE   H3X19001   3.818   4.830   7.384 -0.0975 -0.6275 -0.0218
  168SAPE   H3Y19002   3.782   4.656   7.326  2.0974  0.1568  1.1078
  168SAPE   C3419003   3.642   4.765   7.441 -0.6745  0.5153  0.1970
  168SAPE   H4X19004   3.559   4.695   7.417 -0.0216  0.1838 -1.1780
  168SAPE   H4Y19005   3.602   4.867   7.465 -2.1265 -0.2963  1.4188
  168SAPE   C3519006   3.710   4.706   7.573  0.5461 -0.1534 -0.1397
  168SAPE   H5X19007   3.787   4.780   7.602  2.2149 -2.3430  1.4190
  168SAPE   H5Y19008   3.742   4.599   7.573 -1.3941 -0.7765  0.7616
  168SAPE   C3619009   3.600   4.701   7.681 -0.1344 -0.8058  0.3096
  168SAPE   H6X19010   3.528   4.619   7.657 -0.4553 -0.5722  0.4638
  168SAPE   H6Y19011   3.546   4.798   7.675  1.9262  0.3126 -1.5828
  168SAPE   C3719012   3.668   4.701   7.822 -0.4139 -0.3166  0.9064
  168SAPE   H7X19013   3.719   4.800   7.824  1.1920 -1.0277 -1.0891
  168SAPE   H7Y19014   3.735   4.613   7.831 -2.1087 -2.4063 -3.7940
  168SAPE   C3819015   3.580   4.692   7.949  0.9085  0.4149  0.2590
  168SAPE   H8X19016   3.501   4.618   7.926  0.9570  0.1981  0.7948
  168SAPE   H8Y19017   3.532   4.789   7.976  1.0221  0.2452  1.0837
  168SAPE   C3919018   3.670   4.639   8.059  0.7365 -0.2474  0.1763
  168SAPE   H9X19019   3.765   4.696   8.070 -0.1299  1.4879 -0.7798
  168SAPE   H9Y19020   3.696   4.533   8.039  2.8467 -0.0759  1.6898
  168SAPE  C31019021   3.608   4.648   8.200 -0.1002  0.4361  0.2348
  168SAPE  H10X19022   3.522   4.578   8.212  0.4315 -0.2412  0.1857
  168SAPE  H10Y19023   3.575   4.753   8.217  3.9763  1.7491  1.1328
  168SAPE  C31119024   3.712   4.617   8.310  0.0250  0.0263 -0.0401
  168SAPE  H11X19025   3.784   4.701   8.307 -2.2689  2.1736  0.7575
  168SAPE  H11Y19026   3.758   4.518   8.289 -1.1005 -0.4748 -0.2784
  168SAPE  C31219027   3.665   4.620   8.454 -0.3353  0.0449 -0.5102
  168SAPE  H12X19028   3.754   4.594   8.513 -0.0453 -2.2951 -1.8384
  168SAPE  H12Y19029   3.591   4.538   8.463  0.6887 -0.8764 -0.3950
  168SAPE  C31319030   3.622   4.760   8.501 -0.3907 -0.2782 -0.2158
  168SAPE  H13X19031   3.530   4.800   8.452  0.3267  0.4820 -0.9929
  168SAPE  H13Y19032   3.699   4.839   8.483 -0.8042 -0.2816 -2.2509
  168SAPE  C31419033   3.594   4.751   8.655 -0.0990  0.3151 -0.2175
  168SAPE  H14X19034   3.676   4.699   8.709 -0.9220 -0.3050  0.4695
  168SAPE  H14Y19035   3.506   4.683   8.660 -2.1866  2.8340 -0.9357
  168SAPE  C31519036   3.558   4.892   8.706  0.6716 -0.7353 -0.4968
  168SAPE  H15X19037   3.474   4.938   8.649  1.2468  1.7390  0.5249
  168SAPE  H15Y19038   3.645   4.959   8.687  2.1960 -1.8848  2.0323
  168SAPE  C31619039   3.536   4.895   8.857  0.6172  0.6373 -0.3282
  168SAPE  H16X19040   3.628   4.853   8.904  0.1107  1.0820  1.1186
  168SAPE  H16Y19041   3.454   4.821   8.859  1.4798 -0.4172 -2.1515
  168SAPE  C31719042   3.495   5.031   8.922  0.0231  0.0260 -0.0577
  168SAPE  H17X19043   3.582   5.100   8.931 -0.2672  0.7368 -2.1709
  168SAPE  H17Y19044   3.477   5.014   9.030  1.6959  0.8349  0.3918
  168SAPE  C31819045   3.380   5.104   8.849 -0.2701  0.5510 -0.6080
  168SAPE  H18X19046   3.296   5.031   8.846 -1.6014  1.9852  0.2669
  168SAPE  H18Y19047   3.398   5.133   8.743 -1.1843  0.1086 -0.8999
  168SAPE  H18Z19048   3.340   5.193   8.902 -0.5240 -0.1112  0.3313
  169SAPE     N19049   0.946   0.052   6.659  0.4053  0.2319 -0.2390
  169SAPE   HN119050   1.002   0.096   6.735  1.7342 -1.1304 -0.3574
  169SAPE   HN219051   0.939   0.119   6.580  1.2819  0.5056 -0.1044
  169SAPE   HN319052   0.856   0.024   6.703  0.3139  0.2234 -0.4330
  169SAPE   C1219053   1.025  -0.064   6.605 -0.2245  0.1977 -0.2374
  169SAPE  H12A19054   1.035  -0.136   6.689  3.8978  1.7012  0.8064
  169SAPE  H12B19055   1.127  -0.036   6.571 -0.0928 -1.3627 -1.2193
  169SAPE   C1119056   0.969  -0.128   6.476 -0.6900 -0.5773  0.2518
  169SAPE  H11A19057   1.035  -0.213   6.449 -0.4675  0.0160 -1.1465
  169SAPE  H11B19058   0.968  -0.056   6.391 -0.7425 -2.4499 -1.4245
  169SAPE     P19059   0.776  -0.293   6.392  0.1821 -0.1571 -0.1490
  169SAPE   O1319060   0.732  -0.207   6.278  0.2976  0.7461 -0.0059
  169SAPE   O1419061   0.864  -0.405   6.367 -0.4160  0.7224  0.0821
  169SAPE   O1219062   0.837  -0.183   6.496 -0.2846  0.3407  0.1392
  169SAPE   O1119063   0.645  -0.352   6.469  0.1901  0.1838  0.0313
  169SAPE    C119064   0.615  -0.322   6.607  0.7470 -0.3955  0.3101
  169SAPE    HA19065   0.587  -0.215   6.621 -1.0569 -0.8787  0.6864
  169SAPE    HB19066   0.525  -0.382   6.633  0.3793  0.4470  1.0209
  169SAPE    C219067   0.721  -0.359   6.714  0.4560 -0.6105  0.1126
  169SAPE    HS19068   0.815  -0.306   6.688  1.7329 -2.9337 -0.3580
  169SAPE   O2119069   0.738  -0.507   6.706  0.2625 -0.1762 -1.3844
  169SAPE   C2119070   0.856  -0.541   6.748  0.5197 -0.6231 -0.2666
  169SAPE   O2219071   0.947  -0.465   6.773  0.2031 -0.2843  0.3969
  169SAPE   C2219072   0.856  -0.692   6.770  0.4262  0.0691 -0.2959
  169SAPE   H2R19073   0.774  -0.723   6.839  0.5039 -0.6385 -0.5131
  169SAPE   H2S19074   0.821  -0.737   6.675 -0.3576  0.4429 -0.1992
  169SAPE    C319075   0.688  -0.313   6.861  0.1841 -0.1589  0.6616
  169SAPE    HX19076   0.606  -0.382   6.889 -0.4763  0.1331 -0.5038
  169SAPE    HY19077   0.651  -0.210   6.843 -1.4928 -0.7669  0.5235
  169SAPE   O3119078   0.796  -0.322   6.964 -0.1948  0.5008  0.5049
  169SAPE   C3119079   0.884  -0.216   6.952  0.0222 -0.1795 -0.0795
  169SAPE   O3219080   0.869  -0.111   6.894 -0.7936  0.6865 -0.6158
  169SAPE   C3219081   1.007  -0.253   7.032 -0.1650 -0.3545 -0.2802
  169SAPE   H2X19082   1.080  -0.170   7.016 -1.5328  0.8225 -0.5895
  169SAPE   H2Y19083   1.041  -0.352   6.994 -1.8433 -0.8813 -0.4799
  169SAPE   C2319084   0.984  -0.753   6.825  0.6748 -0.4101  0.1376
  169SAPE   H3R19085   0.995  -0.717   6.929  2.4925 -0.0568 -0.1575
  169SAPE   H3S19086   1.070  -0.719   6.764  1.2281  0.3965  1.3294
  169SAPE   C2419087   0.976  -0.904   6.827  0.1826  0.3792 -0.2468
  169SAPE   H4R19088   0.953  -0.938   6.724 -4.2369 -1.1473  1.0219
  169SAPE   H4S19089   0.890  -0.937   6.888 -0.6256  1.3203 -0.8406
  169SAPE   C2519090   1.100  -0.959   6.877  0.0117  0.1546 -1.0520
  169SAPE   H5R19091   1.187  -0.908   6.834  0.4888 -1.0452 -1.5460
  169SAPE   C2619092   1.121  -1.054   6.970  0.2149 -0.5082 -0.3223
  169SAPE   H6R19093   1.224  -1.065   7.008 -0.2414 -2.0403  0.5407
  169SAPE   C2719094   1.007  -1.121   7.038 -0.7452  0.2157  0.8278
  169SAPE   H7R19095   1.050  -1.223   7.050  2.3906  1.1999 -0.7664
  169SAPE   H7S19096   0.923  -1.128   6.966  0.6145 -0.0935 -0.7930
  169SAPE   C2819097   0.948  -1.065   7.158 -1.4415  0.2303 -0.1201
  169SAPE   H8R19098   0.879  -0.980   7.145 -0.9536  0.8648  1.2190
  169SAPE   C2919099   0.971  -1.127   7.281  0.5639 -0.2432  0.8449
  169SAPE   H9R19100   0.907  -1.096   7.365  0.3740  0.2453  0.5204
  169SAPE  C21019101   1.061  -1.248   7.309  0.0545  0.3255  0.2684
  169SAPE  H10R19102   1.097  -1.244   7.414 -3.7257 -0.9185  1.7605
  169SAPE  H10S19103   1.157  -1.238   7.254 -0.4299 -1.6279 -1.0505
  169SAPE  C21119104   1.000  -1.391   7.280  0.1807  0.3207  0.2914
  169SAPE  H11R19105   0.962  -1.399   7.177  0.8728  2.7307 -0.2295
  169SAPE  C21219106   1.012  -1.497   7.352 -0.1049  0.0742 -0.2445
  169SAPE  H12R19107   0.974  -1.593   7.314 -1.0694  0.1973  0.3708
  169SAPE  C21319108   1.075  -1.506   7.487  0.4354  0.0426 -0.9526
  169SAPE  H13R19109   1.138  -1.415   7.498  2.3370 -1.3459  0.3986
  169SAPE  H13S19110   1.147  -1.591   7.491 -0.3020 -0.5574  0.2136
  169SAPE  C21419111   0.967  -1.506   7.593 -0.7188  0.2031 -0.1573
  169SAPE  H14R19112   0.872  -1.451   7.578 -0.2405  0.4519 -2.5674
  169SAPE  C21519113   0.979  -1.562   7.715 -0.4790  0.2248  0.1149
  169SAPE  H15R19114   0.895  -1.565   7.786  0.2330 -0.2903  0.9533
  169SAPE  C21619115   1.098  -1.638   7.771  0.1990  0.4117  0.3856
  169SAPE  H16R19116   1.197  -1.603   7.734  0.8702  1.2722  2.8318
  169SAPE  H16S19117   1.081  -1.747   7.759 -0.2780  0.5866 -0.6320
  169SAPE  C21719118   1.107  -1.604   7.921  0.2255  0.2384  0.5247
  169SAPE  H17R19119   1.018  -1.643   7.975  0.7228 -2.7281 -0.6099
  169SAPE  H17S19120   1.103  -1.496   7.946 -1.2165  0.2593  0.3236
  169SAPE  C21819121   1.217  -1.659   8.006  0.1735  0.6172  0.6568
  169SAPE  H18R19122   1.310  -1.605   7.979 -0.7497  1.7250 -0.3850
  169SAPE  H18S19123   1.224  -1.770   8.014 -0.9924  0.6317  2.4240
  169SAPE  C21919124   1.209  -1.615   8.148  0.0633 -0.1698 -0.3058
  169SAPE  H19R19125   1.110  -1.651   8.182  0.8714 -1.2334  0.9979
  169SAPE  H19S19126   1.213  -1.504   8.149  1.4687 -0.1759 -1.4449
  169SAPE  C22019127   1.319  -1.657   8.238  0.2642 -0.3651  0.3002
  169SAPE  H20R19128   1.312  -1.583   8.320 -1.2037  0.2486 -0.3413
  169SAPE  H20S19129   1.417  -1.643   8.189  2.4203  2.1275  4.6571
  169SAPE  H20T19130   1.316  -1.763   8.273  1.0525  0.0822  1.8171
  169SAPE   C3319131   0.963  -0.251   7.185 -0.2638  0.6221  0.0742
  169SAPE   H3X19132   1.060  -0.276   7.232  0.4735  0.1046 -1.6137
  169SAPE   H3Y19133   0.891  -0.335   7.197 -0.2831  0.8011  1.3336
  169SAPE   C3419134   0.910  -0.118   7.239  0.2889  0.3442 -0.4630
  169SAPE   H4X19135   0.823  -0.112   7.170  1.3037 -0.9351 -1.9234
  169SAPE   H4Y19136   0.999  -0.052   7.234  0.6498 -0.1680 -0.9592
  169SAPE   C3519137   0.855  -0.126   7.384 -0.2081  0.1789  0.6716
  169SAPE   H5X19138   0.748  -0.156   7.376 -0.0170 -0.6071  1.0155
  169SAPE   H5Y19139   0.856  -0.019   7.414 -0.4435  0.5926 -0.7201
  169SAPE   C3619140   0.949  -0.208   7.474 -0.3332 -1.0975 -0.3865
  169SAPE   H6X19141   1.058  -0.207   7.453 -0.3429 -0.5511 -0.4192
  169SAPE   H6Y19142   0.907  -0.311   7.475 -1.0842 -0.8334  2.1711
  169SAPE   C3719143   0.934  -0.167   7.621  0.3019 -0.4196 -1.4011
  169SAPE   H7X19144   0.823  -0.162   7.630  0.2111 -1.8891 -1.3573
  169SAPE   H7Y19145   0.979  -0.067   7.637 -2.3734  0.4732  1.3453
  169SAPE   C3819146   0.982  -0.256   7.741 -0.0837  0.1575  0.3023
  169SAPE   H8X19147   1.088  -0.287   7.737 -0.1600 -0.2546  1.2680
  169SAPE   H8Y19148   0.926  -0.352   7.733  0.8411 -0.5041  1.4175
  169SAPE   C3919149   0.947  -0.190   7.878 -0.0500  0.0573  0.3054
  169SAPE   H9X19150   0.841  -0.158   7.885  0.3373  2.0237 -1.5251
  169SAPE   H9Y19151   1.005  -0.095   7.887  2.1586 -0.9374 -2.2267
  169SAPE  C31019152   0.998  -0.269   8.000  1.5986  0.3463  0.8477
  169SAPE  H10X19153   1.107  -0.281   7.982  1.3797 -1.1260  0.4342
  169SAPE  H10Y19154   0.962  -0.374   8.006  4.2318 -0.6825 -0.0998
  169SAPE  C31119155   0.984  -0.194   8.141 -0.0687  0.1025  0.4993
  169SAPE  H11X19156   0.877  -0.184   8.169 -0.5335 -1.5780 -0.4745
  169SAPE  H11Y19157   1.017  -0.089   8.127 -3.6137  1.2183 -0.7673
  169SAPE  C31219158   1.041  -0.280   8.256  0.0440  0.2727  0.5083
  169SAPE  H12X19159   1.044  -0.211   8.343 -2.9942 -0.6757  1.4807
  169SAPE  H12Y19160   1.146  -0.300   8.225 -0.4949 -0.2506 -1.0619
  169SAPE  C31319161   0.945  -0.382   8.311  0.0516  0.3858  0.7631
  169SAPE  H13X19162   0.924  -0.460   8.235 -2.7322  2.0458 -0.3326
  169SAPE  H13Y19163   0.848  -0.331   8.331 -0.2603  0.5269 -0.9985
  169SAPE  C31419164   1.002  -0.446   8.440 -0.1552 -0.3406 -0.0438
  169SAPE  H14X19165   0.928  -0.513   8.489  2.1005 -1.7222  1.6873
  169SAPE  H14Y19166   1.024  -0.365   8.513 -1.2095 -0.8554  0.8740
  169SAPE  C31519167   1.138  -0.520   8.423  0.9121  0.2558  0.0075
  169SAPE  H15X19168   1.211  -0.462   8.363 -0.7213  0.6329 -1.6888
  169SAPE  H15Y19169   1.107  -0.600   8.352 -1.9652  2.1353 -1.0172
  169SAPE  C31619170   1.196  -0.563   8.554 -1.0809  0.3327 -0.0907
  169SAPE  H16X19171   1.117  -0.620   8.607 -0.4866 -0.6236 -0.2099
  169SAPE  H16Y19172   1.219  -0.469   8.608  1.1583 -0.0800 -0.2066
  169SAPE  C31719173   1.327  -0.638   8.549  0.1288  0.7607 -0.1606
  169SAPE  H17X19174   1.364  -0.674   8.648  1.2748 -1.0789 -1.1850
  169SAPE  H17Y19175   1.391  -0.552   8.520 -0.8207  1.8309  0.8110
  169SAPE  C31819176   1.339  -0.761   8.457  0.1395  0.1563 -0.3205
  169SAPE  H18X19177   1.307  -0.734   8.354 -1.1092  0.5007  0.1437
  169SAPE  H18Y19178   1.279  -0.846   8.496  1.4410 -0.3415  0.7006
  169SAPE  H18Z19179   1.441  -0.805   8.452 -0.6555 -2.1734  1.5602
  170SAPE     N19180   2.596   3.155   6.270 -0.0199 -0.2388 -0.0510
  170SAPE   HN119181   2.649   3.068   6.248 -2.5506 -2.2314  1.2066
  170SAPE   HN219182   2.516   3.170   6.206  0.5408  2.4832 -0.2208
  170SAPE   HN319183   2.660   3.236   6.257 -2.2939  2.1939  2.6365
  170SAPE   C1219184   2.551   3.128   6.409 -0.0746  0.1076 -0.4893
  170SAPE  H12A19185   2.482   3.211   6.436 -0.4057  0.3149 -1.9109
  170SAPE  H12B19186   2.644   3.146   6.466  0.0841  1.8092 -1.2398
  170SAPE   C1119187   2.475   2.995   6.419 -0.1950  0.2857  0.1310
  170SAPE  H11A19188   2.387   3.005   6.353 -0.1540  0.3754  0.0906
  170SAPE  H11B19189   2.450   2.967   6.524 -0.1767  1.2354  0.3988
  170SAPE     P19190   2.521   2.738   6.389 -0.2603 -0.4065 -0.2441
  170SAPE   O1319191   2.374   2.716   6.396 -0.0102  0.0021 -0.2188
  170SAPE   O1419192   2.596   2.667   6.284  0.1456 -0.0686  0.8027
  170SAPE   O1219193   2.552   2.895   6.365 -0.1959 -0.6350  0.4702
  170SAPE   O1119194   2.590   2.705   6.533 -0.4454 -0.4549  0.1495
  170SAPE    C119195   2.525   2.676   6.659 -0.7826  0.5770  1.0537
  170SAPE    HA19196   2.417   2.651   6.652 -0.6131  0.2611 -0.8563
  170SAPE    HB19197   2.586   2.597   6.707 -1.0068  2.4498  4.7997
  170SAPE    C219198   2.544   2.797   6.752 -0.0513  0.4451 -0.7391
  170SAPE    HS19199   2.516   2.881   6.685 -1.3418 -0.6442 -1.6431
  170SAPE   O2119200   2.684   2.795   6.790 -0.2308 -0.7359 -0.1508
  170SAPE   C2119201   2.739   2.907   6.833  0.1444  0.6800 -0.2701
  170SAPE   O2219202   2.680   3.015   6.844  0.0209 -0.1743 -0.3833
  170SAPE   C2219203   2.881   2.880   6.887  0.4490  0.4099  0.1391
  170SAPE   H2R19204   2.863   2.793   6.954 -1.2428  2.5366  2.6674
  170SAPE   H2S19205   2.940   2.839   6.803 -0.6328 -0.3425 -0.2721
  170SAPE    C319206   2.444   2.782   6.879 -0.5004 -0.7189  0.4102
  170SAPE    HX19207   2.477   2.690   6.932  1.3834  0.4298  1.3488
  170SAPE    HY19208   2.340   2.765   6.844 -0.7864 -0.6499  1.2069
  170SAPE   O3119209   2.453   2.889   6.977  0.2936  0.1171 -0.1090
  170SAPE   C3119210   2.382   3.000   6.944 -0.6825 -0.2409 -0.2622
  170SAPE   O3219211   2.312   3.013   6.843  0.6551  0.1015 -0.0286
  170SAPE   C3219212   2.421   3.120   7.037  0.3507  0.0176  0.0478
  170SAPE   H2X19213   2.411   3.212   6.975 -0.8288 -0.2123 -0.1229
  170SAPE   H2Y19214   2.528   3.116   7.068  0.3573 -0.2071 -0.0091
  170SAPE   C2319215   2.927   2.986   6.992  0.3091 -0.2127 -0.1005
  170SAPE   H3R19216   2.848   2.997   7.069 -0.8583 -1.0564 -1.1412
  170SAPE   H3S19217   2.952   3.089   6.960  0.7495 -0.5411 -0.8632
  170SAPE   C2419218   3.057   2.955   7.063  0.3814 -0.5717  0.1888
  170SAPE   H4R19219   3.039   2.886   7.148  0.4069 -1.2487 -0.3482
  170SAPE   H4S19220   3.075   3.052   7.114 -2.0815  1.2131 -2.0514
  170SAPE   C2519221   3.176   2.906   6.981  0.7404 -0.5217 -0.0618
  170SAPE   H5R19222   3.208   2.980   6.905 -2.0897 -1.0983 -2.0023
  170SAPE   C2619223   3.230   2.786   6.980  0.6855  0.7894  0.3240
  170SAPE   H6R19224   3.308   2.746   6.914  1.1974 -0.6140  1.7094
  170SAPE   C2719225   3.173   2.670   7.064  0.8172  0.0186 -0.1574
  170SAPE   H7R19226   3.068   2.644   7.039 -0.3776  0.8767  3.3094
  170SAPE   H7S19227   3.167   2.701   7.171 -0.7571 -2.8476  0.6897
  170SAPE   C2819228   3.247   2.537   7.068  0.5396  0.1892 -0.4511
  170SAPE   H8R19229   3.322   2.519   6.989  0.6598 -0.3950 -0.2051
  170SAPE   C2919230   3.247   2.446   7.170  0.3047  0.0173 -0.0233
  170SAPE   H9R19231   3.310   2.357   7.162 -1.2282 -0.9888 -2.0264
  170SAPE  C21019232   3.158   2.458   7.296  0.3684 -0.0105 -0.1789
  170SAPE  H10R19233   3.061   2.407   7.273  0.4327 -0.1851 -0.0682
  170SAPE  H10S19234   3.141   2.565   7.318  3.4902  1.0413 -2.2025
  170SAPE  C21119235   3.221   2.395   7.420  0.1961 -0.2972  0.4319
  170SAPE  H11R19236   3.303   2.324   7.402 -0.0576 -0.6098  0.4990
  170SAPE  C21219237   3.193   2.436   7.547  0.1067 -0.0368 -0.9940
  170SAPE  H12R19238   3.246   2.374   7.621  1.7875 -0.1527 -2.2428
  170SAPE  C21319239   3.090   2.543   7.579 -0.2018  0.2087 -0.0469
  170SAPE  H13R19240   3.037   2.584   7.490  1.2023  0.6434 -0.7159
  170SAPE  H13S19241   3.138   2.633   7.622 -1.8886  1.0548  0.1578
  170SAPE  C21419242   2.984   2.486   7.670 -0.0158 -0.1629  0.2333
  170SAPE  H14R19243   2.915   2.416   7.619  0.3096 -1.8233  1.9612
  170SAPE  C21519244   2.957   2.524   7.794 -0.2530  0.3795 -0.0391
  170SAPE  H15R19245   2.870   2.482   7.847 -0.5330  0.9020 -0.0808
  170SAPE  C21619246   3.028   2.621   7.883 -0.5258 -0.5822 -0.4885
  170SAPE  H16R19247   2.972   2.716   7.890  4.1471  2.6576 -2.2689
  170SAPE  H16S19248   3.125   2.643   7.835 -0.8336  1.4784 -0.2468
  170SAPE  C21719249   3.058   2.540   8.021  0.5568 -0.3802 -0.2196
  170SAPE  H17R19250   2.961   2.531   8.074  0.5729  1.7919  0.2686
  170SAPE  H17S19251   3.121   2.612   8.078 -1.0747 -0.4690  1.8293
  170SAPE  C21819252   3.133   2.413   8.002 -0.1109  0.4924  0.0471
  170SAPE  H18R19253   3.200   2.417   7.914 -3.7253 -0.8570 -3.0547
  170SAPE  H18S19254   3.053   2.343   7.969 -0.9212  0.7909  1.3017
  170SAPE  C21919255   3.190   2.371   8.142  0.8532  0.1609  0.5879
  170SAPE  H19R19256   3.213   2.263   8.145  0.3260  0.0456  0.5547
  170SAPE  H19S19257   3.115   2.384   8.222  0.9734 -0.5433  0.8148
  170SAPE  C22019258   3.313   2.451   8.185  0.0770  0.5000  0.1178
  170SAPE  H20R19259   3.385   2.382   8.233  0.9445  0.7102 -0.8308
  170SAPE  H20S19260   3.293   2.528   8.263  0.5088  2.5785 -1.7069
  170SAPE  H20T19261   3.369   2.487   8.096  0.4105 -1.3706 -0.4706
  170SAPE   C3319262   2.353   3.116   7.174 -0.3533 -0.1699 -0.1403
  170SAPE   H3X19263   2.374   3.017   7.220  0.2952  0.1214  0.2054
  170SAPE   H3Y19264   2.243   3.118   7.160 -0.7161 -1.2797  2.1042
  170SAPE   C3419265   2.403   3.223   7.269 -0.0689  0.2807  1.0460
  170SAPE   H4X19266   2.412   3.325   7.225  0.3457 -0.0444  0.3644
  170SAPE   H4Y19267   2.507   3.193   7.297 -0.0468 -0.0477  0.6088
  170SAPE   C3519268   2.313   3.225   7.390 -0.5414  0.1712 -0.3740
  170SAPE   H5X19269   2.268   3.126   7.410 -0.9699  1.1730  5.1535
  170SAPE   H5Y19270   2.229   3.297   7.378 -0.8892  0.0029  0.8977
  170SAPE   C3619271   2.391   3.254   7.519  0.3986 -0.5035  0.2533
  170SAPE   H6X19272   2.445   3.351   7.517 -0.9863  0.3870 -4.0506
  170SAPE   H6Y19273   2.472   3.177   7.515 -1.9315 -3.1548  0.9054
  170SAPE   C3719274   2.296   3.248   7.640 -0.3400  0.6497 -0.3324
  170SAPE   H7X19275   2.250   3.147   7.644  1.0912 -0.0071  0.4826
  170SAPE   H7Y19276   2.202   3.305   7.629 -3.0764 -2.8532  2.5350
  170SAPE   C3819277   2.357   3.290   7.776  0.5071 -0.1704 -0.1515
  170SAPE   H8X19278   2.380   3.398   7.783 -3.1304  0.7662 -0.6768
  170SAPE   H8Y19279   2.457   3.242   7.783  0.4904 -0.2492 -0.4319
  170SAPE   C3919280   2.262   3.240   7.883  0.1937  0.0731 -0.1318
  170SAPE   H9X19281   2.261   3.129   7.886 -0.9705  0.0932  0.8457
  170SAPE   H9Y19282   2.161   3.285   7.874  1.5240  3.2011 -0.7876
  170SAPE  C31019283   2.306   3.278   8.025 -0.0772 -0.8819 -0.1628
  170SAPE  H10X19284   2.316   3.388   8.036 -0.6093 -0.7468 -0.9983
  170SAPE  H10Y19285   2.401   3.224   8.048  0.1385 -0.5808 -0.3383
  170SAPE  C31119286   2.186   3.229   8.122 -0.8048 -0.0359  0.6329
  170SAPE  H11X19287   2.144   3.141   8.069 -0.5912  0.2650 -0.0444
  170SAPE  H11Y19288   2.105   3.304   8.115 -1.5243 -0.9747 -2.4899
  170SAPE  C31219289   2.220   3.194   8.270  0.3662 -0.0964  0.1701
  170SAPE  H12X19290   2.120   3.168   8.309  0.1569 -2.6395 -1.8276
  170SAPE  H12Y19291   2.265   3.283   8.321  1.9783 -0.2378 -0.9253
  170SAPE  C31319292   2.320   3.080   8.281  0.4812  0.1298 -0.3017
  170SAPE  H13X19293   2.424   3.090   8.243  0.2575 -2.2042 -1.7728
  170SAPE  H13Y19294   2.279   2.994   8.223  0.9958 -1.9496  2.1912
  170SAPE  C31419295   2.324   3.026   8.416  0.0650  0.3089 -0.3534
  170SAPE  H14X19296   2.230   2.981   8.453  0.8755 -0.6489  0.6201
  170SAPE  H14Y19297   2.370   3.095   8.490  1.6693 -3.3758  2.4211
  170SAPE  C31519298   2.414   2.901   8.418  0.4234  0.3398 -0.6696
  170SAPE  H15X19299   2.425   2.875   8.525  1.6109  0.4250 -0.7587
  170SAPE  H15Y19300   2.512   2.925   8.371  0.3302  0.0868 -0.9982
  170SAPE  C31619301   2.342   2.775   8.355 -0.4519 -0.2528 -0.4457
  170SAPE  H16X19302   2.336   2.785   8.244  2.6518 -2.0652 -0.8950
  170SAPE  H16Y19303   2.249   2.764   8.414 -0.8306  1.7201 -0.5847
  170SAPE  C31719304   2.417   2.642   8.381 -0.0207 -0.5765 -0.3083
  170SAPE  H17X19305   2.429   2.609   8.486  0.5285  0.0637 -0.1553
  170SAPE  H17Y19306   2.523   2.657   8.351  0.3563  0.3647  1.3666
  170SAPE  C31819307   2.374   2.515   8.301  0.5263  0.0758  0.4219
  170SAPE  H18X19308   2.277   2.474   8.337  0.8246  1.2464  2.6811
  170SAPE  H18Y19309   2.447   2.433   8.316 -0.1511 -0.4237  1.0567
  170SAPE  H18Z19310   2.372   2.536   8.192 -0.9634  1.1924  0.6319
  171SAPE     N19311   4.885   3.737   6.250  0.1136 -0.4557 -0.7470
  171SAPE   HN119312   4.982   3.736   6.288 -0.8340 -0.6924  1.9174
  171SAPE   HN219313   4.872   3.839   6.235  0.4406 -0.2405  0.3403
  171SAPE   HN319314   4.823   3.701   6.325  0.7507 -4.8357 -2.0606
  171SAPE   C1219315   4.860   3.661   6.128  0.1261 -0.7709 -0.4053
  171SAPE  H12A19316   4.938   3.698   6.058  0.5983  1.7310  1.2706
  171SAPE  H12B19317   4.758   3.683   6.090  0.6306  1.2568 -0.7065
  171SAPE   C1119318   4.881   3.515   6.154  0.9473 -0.4275  0.5114
  171SAPE  H11A19319   4.986   3.479   6.162  1.0346 -0.0090  1.3956
  171SAPE  H11B19320   4.829   3.454   6.077 -0.1389  0.6412  0.3665
  171SAPE     P19321   4.797   3.332   6.329  0.2565  0.3712 -0.1664
  171SAPE   O1319322   4.651   3.312   6.343  0.3976  0.1423  0.5394
  171SAPE   O1419323   4.862   3.244   6.230  0.4323  0.4667  0.4896
  171SAPE   O1219324   4.817   3.477   6.276 -0.1484 -0.0354 -1.2567
  171SAPE   O1119325   4.877   3.324   6.463 -0.0750  0.2396 -0.2692
  171SAPE    C119326   4.938   3.442   6.522 -0.3820  0.3865  0.5116
  171SAPE    HA19327   4.981   3.505   6.441 -3.6466 -2.9018 -4.3167
  171SAPE    HB19328   4.854   3.503   6.562 -1.0018  1.6265 -2.4099
  171SAPE    C219329   5.047   3.396   6.625  0.0628  0.0437 -0.6150
  171SAPE    HS19330   5.132   3.355   6.567  0.1172  0.8617 -1.1224
  171SAPE   O2119331   4.993   3.287   6.710 -0.4318  0.2718  0.3270
  171SAPE   C2119332   5.083   3.220   6.774  0.1912 -0.3769 -0.4050
  171SAPE   O2219333   5.205   3.234   6.763  0.3829 -0.1146 -0.1012
  171SAPE   C2219334   5.019   3.115   6.859  0.3145  0.3641  0.9323
  171SAPE   H2R19335   4.949   3.058   6.794  1.1232  0.8433 -0.4020
  171SAPE   H2S19336   5.100   3.040   6.874  0.3557  0.4711  1.2462
  171SAPE    C319337   5.099   3.506   6.723 -1.3871  0.1518  0.3658
  171SAPE    HX19338   5.129   3.584   6.650  1.7440 -1.5662 -0.3638
  171SAPE    HY19339   5.195   3.474   6.769 -1.4547  0.0139  0.4125
  171SAPE   O3119340   4.995   3.556   6.811  0.3389  0.2380  0.1935
  171SAPE   C3119341   5.028   3.681   6.866 -0.7880 -0.2005  0.5521
  171SAPE   O3219342   5.143   3.722   6.852  0.7330 -0.9816 -0.1190
  171SAPE   C3219343   4.918   3.743   6.951 -0.2419 -0.3871  0.4746
  171SAPE   H2X19344   4.823   3.762   6.897 -0.8815 -0.8979  1.3946
  171SAPE   H2Y19345   4.960   3.841   6.981 -1.2713  0.6455 -1.3189
  171SAPE   C2319346   4.956   3.170   6.987 -0.6442 -0.2960  0.6560
  171SAPE   H3R19347   4.917   3.084   7.045 -0.6687 -2.0546 -1.8295
  171SAPE   H3S19348   4.873   3.241   6.966 -1.0253 -0.1517  2.4515
  171SAPE   C2419349   5.052   3.250   7.085  0.5336  0.3721  0.2416
  171SAPE   H4R19350   4.986   3.299   7.159 -0.3055 -2.3903  1.4683
  171SAPE   H4S19351   5.112   3.327   7.033  1.2007 -0.9143 -0.9704
  171SAPE   C2519352   5.137   3.149   7.158 -0.6945 -0.1031  0.0551
  171SAPE   H5R19353   5.205   3.085   7.100  0.7453  1.5078 -0.1245
  171SAPE   C2619354   5.115   3.101   7.282  0.0039  0.1061  0.2736
  171SAPE   H6R19355   5.189   3.028   7.316 -0.8917 -0.3209  1.3481
  171SAPE   C2719356   5.012   3.152   7.382  0.6540 -0.3387 -1.0908
  171SAPE   H7R19357   4.960   3.068   7.433 -0.9107  0.9811 -0.4231
  171SAPE   H7S19358   4.928   3.204   7.331  1.0245  0.3761 -0.9918
  171SAPE   C2819359   5.076   3.256   7.472  0.6871 -0.1689  0.9052
  171SAPE   H8R19360   5.127   3.337   7.418  2.4921 -1.9516 -0.1828
  171SAPE   C2919361   5.056   3.266   7.604  0.3405 -0.4242  1.0449
  171SAPE   H9R19362   5.127   3.330   7.657  0.6449  0.5695 -0.5005
  171SAPE  C21019363   4.986   3.178   7.700 -1.6638 -0.1265 -0.2048
  171SAPE  H10R19364   4.900   3.132   7.647 -0.6457 -0.1237 -1.9054
  171SAPE  H10S19365   4.946   3.250   7.775  2.2759  0.2198  1.8085
  171SAPE  C21119366   5.083   3.075   7.762  0.4912  0.9897  0.2635
  171SAPE  H11R19367   5.140   3.008   7.696  2.0482  0.9051  1.6313
  171SAPE  C21219368   5.108   3.070   7.895  0.2423  0.0686 -0.5128
  171SAPE  H12R19369   5.163   2.982   7.932  0.4463  0.5474  0.3529
  171SAPE  C21319370   5.055   3.146   8.014 -0.1501  0.7856  0.7721
  171SAPE  H13R19371   4.976   3.082   8.059 -0.4722  0.9084  0.3837
  171SAPE  H13S19372   5.016   3.246   7.988  1.6988  1.7221  1.4300
  171SAPE  C21419373   5.164   3.164   8.116 -0.0372  0.3063  0.3607
  171SAPE  H14R19374   5.245   3.223   8.072 -0.8394  1.3548  0.2555
  171SAPE  C21519375   5.180   3.127   8.239  0.8777  0.1689 -0.0810
  171SAPE  H15R19376   5.262   3.174   8.296  0.2949 -1.5654  2.3575
  171SAPE  C21619377   5.081   3.049   8.326  0.6914 -0.5961 -0.8768
  171SAPE  H16R19378   5.118   2.953   8.368 -2.2164 -0.6413  2.0791
  171SAPE  H16S19379   4.994   3.012   8.268  0.8174  1.3736 -2.4299
  171SAPE  C21719380   5.030   3.131   8.449  0.2503 -0.0228 -0.4794
  171SAPE  H17R19381   5.102   3.120   8.533  1.4735 -4.0662 -1.8272
  171SAPE  H17S19382   4.933   3.088   8.482  0.3016 -0.1680 -0.5167
  171SAPE  C21819383   5.007   3.280   8.428  0.6010 -0.1622  0.1024
  171SAPE  H18R19384   4.938   3.314   8.347  0.0468  0.2068  0.7184
  171SAPE  H18S19385   5.108   3.326   8.416  0.7585 -0.8341 -1.3542
  171SAPE  C21919386   4.948   3.337   8.559 -0.1838  0.2379 -0.2451
  171SAPE  H19R19387   5.010   3.282   8.633 -1.1395 -1.3088 -0.5548
  171SAPE  H19S19388   4.844   3.298   8.566 -0.2993  0.5635 -0.1235
  171SAPE  C22019389   4.960   3.486   8.571 -0.5766 -0.3949 -0.4235
  171SAPE  H20R19390   4.907   3.532   8.657  0.1222 -0.5213  0.0838
  171SAPE  H20S19391   4.932   3.542   8.479  0.5302 -0.3870 -0.7639
  171SAPE  H20T19392   5.069   3.496   8.587  0.1379 -2.5400 -3.1747
  171SAPE   C3319393   4.883   3.641   7.060 -0.2856  0.0910 -0.7030
  171SAPE   H3X19394   4.973   3.582   7.085 -0.7514 -0.1648  0.4561
  171SAPE   H3Y19395   4.805   3.567   7.032  0.5599  0.3708 -4.1675
  171SAPE   C3419396   4.844   3.704   7.199  0.6661  0.7038 -0.3700
  171SAPE   H4X19397   4.739   3.739   7.212  0.6906  0.4937  0.4380
  171SAPE   H4Y19398   4.909   3.792   7.218  0.1289  0.6433  2.1944
  171SAPE   C3519399   4.872   3.610   7.314  0.4516 -0.2356  0.4281
  171SAPE   H5X19400   4.974   3.568   7.297  0.4234  0.5279 -2.0903
  171SAPE   H5Y19401   4.793   3.535   7.337 -0.8348  1.6645  2.5468
  171SAPE   C3619402   4.879   3.691   7.446  0.6251 -0.4021  0.2834
  171SAPE   H6X19403   4.773   3.707   7.474  0.9107  1.4721  0.4065
  171SAPE   H6Y19404   4.926   3.790   7.430  0.6665 -0.5894 -0.8415
  171SAPE   C3719405   4.940   3.613   7.558  0.4620  0.4087 -0.0200
  171SAPE   H7X19406   5.042   3.581   7.528  0.4184  0.1350  0.1229
  171SAPE   H7Y19407   4.894   3.514   7.577  1.4801  0.1908  1.4030
  171SAPE   C3819408   4.948   3.698   7.681 -0.1195 -0.0873  0.3374
  171SAPE   H8X19409   4.838   3.708   7.695 -0.2950 -0.6620 -0.5652
  171SAPE   H8Y19410   4.994   3.797   7.661 -0.8030  0.1989  0.1529
  171SAPE   C3919411   5.011   3.622   7.796 -0.1872 -0.0159 -0.5496
  171SAPE   H9X19412   5.120   3.617   7.777 -0.2679  0.1500 -1.0697
  171SAPE   H9Y19413   4.969   3.519   7.801  0.6277 -0.7560 -4.8735
  171SAPE  C31019414   4.992   3.697   7.927  0.6351 -0.1344  0.5329
  171SAPE  H10X19415   4.887   3.687   7.960  1.1345 -0.7007  2.0344
  171SAPE  H10Y19416   5.022   3.802   7.904  1.3691 -0.3364  0.5245
  171SAPE  C31119417   5.072   3.649   8.042  0.4915 -0.3742 -0.0510
  171SAPE  H11X19418   5.180   3.640   8.017  0.6115 -3.3761  1.0972
  171SAPE  H11Y19419   5.044   3.548   8.078 -1.9014 -0.6473 -2.3728
  171SAPE  C31219420   5.057   3.736   8.164  0.2317 -0.2425 -0.5566
  171SAPE  H12X19421   4.961   3.755   8.215  1.2282  0.3303  1.1734
  171SAPE  H12Y19422   5.099   3.838   8.147  0.1515 -0.1621 -0.2676
  171SAPE  C31319423   5.154   3.682   8.266  0.1781  0.1834  0.2424
  171SAPE  H13X19424   5.240   3.642   8.209 -0.8819 -0.6430 -0.8276
  171SAPE  H13Y19425   5.104   3.596   8.316  0.4240 -0.7893 -1.1452
  171SAPE  C31419426   5.196   3.785   8.370  0.1480  0.0710  0.3070
  171SAPE  H14X19427   5.117   3.855   8.403 -0.0238 -0.0012  0.0520
  171SAPE  H14Y19428   5.274   3.849   8.325  1.3059 -2.1202 -1.0082
  171SAPE  C31519429   5.265   3.716   8.493  0.4689 -0.2264  0.2689
  171SAPE  H15X19430   5.201   3.672   8.573 -0.7015 -1.7244 -1.4101
  171SAPE  H15Y19431   5.329   3.785   8.552  1.0469 -0.8111  0.3403
  171SAPE  C31619432   5.370   3.603   8.474  0.2899 -0.4991  0.2383
  171SAPE  H16X19433   5.428   3.650   8.392 -2.6212  0.4930 -1.4273
  171SAPE  H16Y19434   5.316   3.512   8.439 -0.1180 -0.9812  2.0192
  171SAPE  C31719435   5.455   3.568   8.591 -0.1752  0.3150 -0.5591
  171SAPE  H17X19436   5.391   3.520   8.668 -0.7357 -0.1841 -1.3238
  171SAPE  H17Y19437   5.492   3.663   8.636 -1.4410  0.2130  0.7582
  171SAPE  C31819438   5.570   3.465   8.571  0.1024  0.1088 -0.1816
  171SAPE  H18X19439   5.643   3.518   8.506  0.0141 -1.4099 -1.6008
  171SAPE  H18Y19440   5.528   3.373   8.524  1.2966 -1.5345  1.8189
  171SAPE  H18Z19441   5.611   3.434   8.669  1.1479  0.4740 -0.4873
  172SAPE     N19442   5.157   1.892   6.572  0.1899  0.7479 -0.3384
  172SAPE   HN119443   5.164   1.939   6.665 -0.5359  1.9104 -0.8385
  172SAPE   HN219444   5.058   1.880   6.543  0.1403 -0.9125  0.4247
  172SAPE   HN319445   5.196   1.797   6.584  1.4637  1.1359 -1.2821
  172SAPE   C1219446   5.221   1.975   6.467  0.2791 -0.1190  0.3415
  172SAPE  H12A19447   5.242   1.903   6.385 -1.2617 -1.3791  1.0124
  172SAPE  H12B19448   5.317   2.011   6.509  1.2745 -1.4880 -0.6596
  172SAPE   C1119449   5.129   2.087   6.421 -0.0942  0.4050  0.0879
  172SAPE  H11A19450   5.027   2.049   6.398  0.3789 -1.0534  0.3171
  172SAPE  H11B19451   5.170   2.136   6.330  3.0323  0.2257  1.2832
  172SAPE     P19452   5.064   2.323   6.515 -0.2687 -0.0502  0.7026
  172SAPE   O1319453   5.174   2.416   6.499  0.2194 -0.0073  0.1858
  172SAPE   O1419454   4.971   2.324   6.404  0.3493 -0.1105  0.2832
  172SAPE   O1219455   5.125   2.181   6.530  0.3462  0.2466  0.8157
  172SAPE   O1119456   4.985   2.336   6.655 -0.1278  0.3836 -0.2142
  172SAPE    C119457   5.019   2.264   6.765  0.1874 -0.1734  0.0853
  172SAPE    HA19458   5.013   2.155   6.750  1.6115 -0.2275 -0.2507
  172SAPE    HB19459   5.126   2.287   6.783  0.5161 -1.6340  0.0958
  172SAPE    C219460   4.928   2.320   6.875  0.2025  0.1908 -0.0829
  172SAPE    HS19461   4.921   2.431   6.873  1.6113  0.3113  0.3689
  172SAPE   O2119462   4.966   2.279   7.013  0.3269 -0.1755  0.3191
  172SAPE   C2119463   4.987   2.384   7.087 -0.1945  0.1414  0.0035
  172SAPE   O2219464   4.985   2.504   7.058 -0.2820 -0.6100  0.1468
  172SAPE   C2219465   5.017   2.342   7.236 -0.4422  0.0283  0.2207
  172SAPE   H2R19466   5.082   2.253   7.235 -1.0792 -0.4436  0.0551
  172SAPE   H2S19467   5.066   2.423   7.295 -0.8039  0.9445 -0.7010
  172SAPE    C319468   4.777   2.286   6.843  1.1421 -0.4383 -0.1420
  172SAPE    HX19469   4.764   2.177   6.859 -0.8417 -0.0945  0.7948
  172SAPE    HY19470   4.763   2.311   6.736  0.9064  0.8868  0.1719
  172SAPE   O3119471   4.690   2.361   6.931 -0.5726  0.0853  0.2932
  172SAPE   C3119472   4.562   2.371   6.893 -0.4829 -1.4016  0.1647
  172SAPE   O3219473   4.516   2.331   6.788 -0.1995 -0.1387 -0.0036
  172SAPE   C3219474   4.481   2.465   6.989  0.6745  0.1724  0.3239
  172SAPE   H2X19475   4.375   2.434   6.977  0.3385  1.5959 -0.6370
  172SAPE   H2Y19476   4.491   2.567   6.946 -0.3903  0.8611  1.6230
  172SAPE   C2319477   4.896   2.297   7.316  0.0717 -0.7685  0.6442
  172SAPE   H3R19478   4.855   2.208   7.263  2.0177 -2.0638  1.2183
  172SAPE   H3S19479   4.820   2.377   7.302 -0.3503 -1.6985 -3.6119
  172SAPE   C2419480   4.924   2.264   7.458 -0.4016 -0.3908 -0.0335
  172SAPE   H4R19481   4.840   2.260   7.531 -0.1332 -0.8532  0.2543
  172SAPE   H4S19482   4.977   2.351   7.502 -1.3536 -0.5868  1.5953
  172SAPE   C2519483   4.999   2.133   7.477 -0.3142  0.0625 -0.1928
  172SAPE   H5R19484   4.958   2.048   7.421  2.4230 -1.1588 -0.4523
  172SAPE   C2619485   5.094   2.111   7.563 -0.6543 -0.5658  0.3811
  172SAPE   H6R19486   5.148   2.016   7.549 -0.2213 -0.5267  1.6726
  172SAPE   C2719487   5.164   2.199   7.653  0.1613 -0.4690 -0.4540
  172SAPE   H7R19488   5.145   2.307   7.633 -1.2340 -0.7712 -0.8680
  172SAPE   H7S19489   5.275   2.195   7.640  0.3059  0.7978  0.2429
  172SAPE   C2819490   5.156   2.149   7.796  0.0674  0.3961 -0.5172
  172SAPE   H8R19491   5.057   2.104   7.813  0.4633 -1.0359 -1.7816
  172SAPE   C2919492   5.228   2.188   7.902  0.3561 -0.0831  0.3461
  172SAPE   H9R19493   5.211   2.150   8.003  1.8831 -0.8761  0.3491
  172SAPE  C21019494   5.354   2.279   7.902  0.2296  0.1286 -0.1697
  172SAPE  H10R19495   5.344   2.342   7.993  0.0132  1.6039 -1.1803
  172SAPE  H10S19496   5.344   2.357   7.823  0.0775 -1.9235 -2.2726
  172SAPE  C21119497   5.490   2.225   7.891  0.5751  0.5346  0.0032
  172SAPE  H11R19498   5.520   2.186   7.793 -1.4883  1.7567 -1.1754
  172SAPE  C21219499   5.580   2.198   7.988 -0.4903 -0.9003 -0.2289
  172SAPE  H12R19500   5.683   2.176   7.957 -0.3275 -0.5971  0.0956
  172SAPE  C21319501   5.556   2.231   8.134 -0.0147  0.7638 -0.5881
  172SAPE  H13R19502   5.490   2.319   8.151 -1.0792  0.1860 -1.5977
  172SAPE  H13S19503   5.646   2.267   8.188 -1.5792  1.9639  1.3868
  172SAPE  C21419504   5.495   2.111   8.213  0.6876  0.3369  0.0814
  172SAPE  H14R19505   5.385   2.104   8.201  0.8910  1.0899 -2.8271
  172SAPE  C21519506   5.559   2.018   8.298 -0.4948 -0.6718 -0.3874
  172SAPE  H15R19507   5.502   1.949   8.361 -1.9609  1.7084  1.0829
  172SAPE  C21619508   5.707   2.010   8.313 -0.0108 -0.2779  0.7123
  172SAPE  H16R19509   5.743   2.061   8.404 -0.6598 -2.8690  2.5366
  172SAPE  H16S19510   5.760   2.068   8.234 -0.1164  0.2801  1.0524
  172SAPE  C21719511   5.759   1.863   8.310  0.3150 -0.8699  0.0022
  172SAPE  H17R19512   5.869   1.863   8.303  0.2561 -0.2781 -1.2445
  172SAPE  H17S19513   5.711   1.811   8.223 -1.6360  0.7180  0.0441
  172SAPE  C21819514   5.715   1.775   8.429 -0.3405  0.2152  0.0209
  172SAPE  H18R19515   5.613   1.735   8.414 -0.2049 -1.0156  2.0449
  172SAPE  H18S19516   5.704   1.832   8.524  1.9699  0.0008  0.4719
  172SAPE  C21919517   5.806   1.663   8.463 -0.6693  0.1808  0.3123
  172SAPE  H19R19518   5.898   1.710   8.506 -0.5239 -1.9014  2.4126
  172SAPE  H19S19519   5.838   1.606   8.373 -0.7722  1.4976 -0.5836
  172SAPE  C22019520   5.754   1.571   8.568  0.2701  0.2163  0.2275
  172SAPE  H20R19521   5.832   1.492   8.571 -0.4778 -0.6008 -0.7367
  172SAPE  H20S19522   5.664   1.522   8.526  0.7660  0.2641 -0.9284
  172SAPE  H20T19523   5.743   1.619   8.667  1.3636  1.4720 -0.2348
  172SAPE   C3319524   4.509   2.480   7.141  0.2773  0.3995  0.0183
  172SAPE   H3X19525   4.484   2.586   7.163  0.2426  0.4816 -0.3990
  172SAPE   H3Y19526   4.617   2.468   7.161  0.0494  0.5980  1.4930
  172SAPE   C3419527   4.434   2.376   7.230 -0.0271 -0.6802 -0.2501
  172SAPE   H4X19528   4.480   2.285   7.187  1.9410  0.8765 -1.6342
  172SAPE   H4Y19529   4.325   2.364   7.215  0.2708 -1.6854 -1.8049
  172SAPE   C3519530   4.476   2.394   7.375  0.3177 -0.7470 -0.2279
  172SAPE   H5X19531   4.587   2.390   7.383  0.2148 -0.2744  2.2973
  172SAPE   H5Y19532   4.443   2.311   7.442  1.3535  0.1188  1.4380
  172SAPE   C3619533   4.426   2.524   7.445 -0.0392 -0.0296  0.6391
  172SAPE   H6X19534   4.318   2.547   7.447  0.0561  0.6583 -0.7138
  172SAPE   H6Y19535   4.467   2.602   7.376  1.8874  0.6255  2.4197
  172SAPE   C3719536   4.490   2.540   7.587 -0.1182 -0.3374 -0.1884
  172SAPE   H7X19537   4.493   2.646   7.619 -0.0416 -0.0835 -0.9952
  172SAPE   H7Y19538   4.598   2.514   7.593  0.0822  0.7459  1.6863
  172SAPE   C3819539   4.423   2.457   7.697 -0.6761 -0.3195 -0.3340
  172SAPE   H8X19540   4.462   2.353   7.697 -0.9071 -0.4296 -1.6175
  172SAPE   H8Y19541   4.313   2.467   7.694 -0.7570 -1.1311 -0.2860
  172SAPE   C3919542   4.459   2.529   7.835  0.1690  0.9217  0.1791
  172SAPE   H9X19543   4.567   2.517   7.854  0.1474 -0.5929 -0.4373
  172SAPE   H9Y19544   4.387   2.479   7.903 -3.5589  0.6303 -3.5245
  172SAPE  C31019545   4.420   2.674   7.848 -0.5260 -0.7165 -1.5035
  172SAPE  H10X19546   4.332   2.694   7.784 -0.7462 -0.9554 -1.2773
  172SAPE  H10Y19547   4.504   2.737   7.812  0.5133  0.1732  2.0670
  172SAPE  C31119548   4.381   2.732   7.986 -0.2976 -0.1440 -0.3812
  172SAPE  H11X19549   4.288   2.681   8.017 -1.1294  1.2106 -0.5832
  172SAPE  H11Y19550   4.373   2.842   7.978  2.7793  0.3125  1.0528
  172SAPE  C31219551   4.483   2.702   8.095 -0.0608  0.4541  0.2780
  172SAPE  H12X19552   4.581   2.739   8.060 -0.2454  0.6820 -0.0051
  172SAPE  H12Y19553   4.493   2.591   8.090  0.7041  0.5294  0.0672
  172SAPE  C31319554   4.442   2.753   8.230 -0.1557  0.1481  0.6149
  172SAPE  H13X19555   4.354   2.687   8.245  0.9747 -1.7169 -0.5555
  172SAPE  H13Y19556   4.437   2.864   8.239  0.7326  0.1588  1.0826
  172SAPE  C31419557   4.542   2.707   8.344  0.5361  0.8433 -0.1206
  172SAPE  H14X19558   4.544   2.598   8.323  1.7225  0.6674  0.7832
  172SAPE  H14Y19559   4.491   2.722   8.442 -0.4182 -1.0786 -0.2707
  172SAPE  C31519560   4.687   2.762   8.353 -0.5398  0.2964 -0.2555
  172SAPE  H15X19561   4.745   2.725   8.266 -2.1132 -0.9519 -0.8389
  172SAPE  H15Y19562   4.734   2.704   8.434 -1.1134 -0.0731 -0.1804
  172SAPE  C31619563   4.697   2.912   8.380 -0.5520  0.5885  0.2210
  172SAPE  H16X19564   4.681   2.974   8.289 -0.7977  1.0689  0.5861
  172SAPE  H16Y19565   4.803   2.931   8.406 -0.4114 -0.6739  0.6311
  172SAPE  C31719566   4.605   2.965   8.490 -0.3472  0.1414 -0.2557
  172SAPE  H17X19567   4.650   2.921   8.582  0.2108  1.8897  0.3411
  172SAPE  H17Y19568   4.500   2.932   8.475 -0.5053 -0.0521  1.1789
  172SAPE  C31819569   4.594   3.122   8.505 -0.1005 -0.0125 -0.2281
  172SAPE  H18X19570   4.528   3.154   8.422 -0.2162  0.5354  0.0714
  172SAPE  H18Y19571   4.695   3.166   8.494  0.3922 -0.9844  0.1988
  172SAPE  H18Z19572   4.550   3.151   8.603  0.4673  1.6150 -0.4271
  173SOPE     N19573   5.581   2.000  11.129 -0.0205 -0.1132 -0.1044
  173SOPE   HN119574   5.637   2.082  11.162  0.3870 -0.2962 -0.3380
  173SOPE   HN219575   5.495   2.039  11.087  0.5796 -0.1696 -1.4392
  173SOPE   HN319576   5.549   1.943  11.210  0.8643  1.5614  1.5222
  173SOPE   C1219577   5.651   1.919  11.020  0.3194  0.2052 -0.3407
  173SOPE  H12A19578   5.577   1.846  10.980 -1.1732  1.4155  0.0780
  173SOPE  H12B19579   5.733   1.860  11.065  1.7363  2.7831  0.6484
  173SOPE   C1119580   5.709   2.014  10.909  0.5188 -0.2878  0.3481
  173SOPE  H11A19581   5.618   2.066  10.872  1.0074  2.0951  2.2017
  173SOPE  H11B19582   5.758   1.949  10.834 -0.5738 -0.6705 -0.0476
  173SOPE     P19583   5.947   2.083  11.002  0.2453  0.1931  0.2072
  173SOPE   O1319584   5.927   1.992  11.115  0.5890 -0.0331  0.6447
  173SOPE   O1419585   6.013   2.213  11.030  0.4902  0.0671  0.1876
  173SOPE   O1219586   5.806   2.114  10.952  0.1869  0.1936 -0.4723
  173SOPE   O1119587   6.005   2.005  10.878 -0.3822 -0.2088 -0.0929
  173SOPE    C119588   6.146   2.021  10.857 -0.0737  0.0198 -0.0650
  173SOPE    HA19589   6.194   1.925  10.827  2.7580  1.1327  0.5884
  173SOPE    HB19590   6.200   2.035  10.953  0.1864  0.2088 -0.2415
  173SOPE    C219591   6.188   2.142  10.770  0.7266  0.0575 -0.7645
  173SOPE    HS19592   6.141   2.234  10.810  2.3874  0.6572 -0.0555
  173SOPE   O2119593   6.135   2.128  10.641 -0.0490 -0.2005 -0.2718
  173SOPE   C2119594   6.137   2.236  10.559 -0.5201 -0.3933  0.7514
  173SOPE   O2219595   6.172   2.347  10.590 -0.1272  0.0194 -0.2650
  173SOPE   C2219596   6.093   2.191  10.416 -0.0234  0.0104 -0.3428
  173SOPE   H2R19597   5.983   2.175  10.423 -0.3588  2.3531  0.5815
  173SOPE   H2S19598   6.139   2.090  10.404  0.7356  0.0008  2.2555
  173SOPE    C319599   6.340   2.160  10.768 -0.0962  0.9005  0.0766
  173SOPE    HX19600   6.355   2.186  10.875  0.1471  2.8536 -0.3997
  173SOPE    HY19601   6.380   2.253  10.722  3.6317  0.5298  2.1663
  173SOPE   O3119602   6.411   2.039  10.738 -0.7271 -0.1090 -0.0437
  173SOPE   C3119603   6.436   2.020  10.614 -0.1742  0.2345 -0.8765
  173SOPE   O3219604   6.394   2.080  10.521  0.5006 -0.1488 -0.4279
  173SOPE   C3219605   6.540   1.910  10.612 -0.1896  0.1340  0.0053
  173SOPE   H2X19606   6.489   1.816  10.642  0.5133  0.1849  1.3949
  173SOPE   H2Y19607   6.609   1.937  10.694 -2.2888 -1.2209  2.3764
  173SOPE   C2319608   6.121   2.288  10.296 -0.2460  0.6257  0.0260
  173SOPE   H3R19609   6.231   2.305  10.301 -0.2701  0.8170 -0.1003
  173SOPE   H3S19610   6.064   2.383  10.300  0.9553  1.3249  1.5297
  173SOPE   C2419611   6.101   2.221  10.158 -0.2297  0.6696 -0.5605
  173SOPE   H4R19612   6.170   2.137  10.137 -1.8954 -0.5026 -1.6395
  173SOPE   H4S19613   5.998   2.178  10.159 -0.3022  0.8295  0.7863
  173SOPE   C2519614   6.115   2.318  10.039 -0.4306  0.1536 -0.5431
  173SOPE   H5R19615   6.062   2.412  10.064 -1.0105 -0.3904  0.3436
  173SOPE   H5S19616   6.225   2.331  10.026 -0.4402 -1.8022 -3.9148
  173SOPE   C2619617   6.068   2.259   9.910 -0.3229 -0.1264  0.4899
  173SOPE   H6R19618   6.121   2.166   9.880  1.9798  1.5602 -0.9870
  173SOPE   H6S19619   5.960   2.235   9.918 -0.0115 -1.9154 -0.0834
  173SOPE   C2719620   6.084   2.364   9.805  0.8685  0.2889  0.5707
  173SOPE   H7R19621   6.021   2.452   9.830 -0.1334 -0.3750  0.4302
  173SOPE   H7S19622   6.189   2.399   9.807  1.0063 -0.1007  0.3351
  173SOPE   C2819623   6.038   2.301   9.674  0.0418 -0.1174  0.6117
  173SOPE   H8R19624   6.108   2.216   9.660  0.3359 -0.1604  2.1625
  173SOPE   H8S19625   5.933   2.264   9.673  0.1470 -0.4189  0.1898
  173SOPE   C2919626   6.068   2.396   9.560  0.0174  0.3185 -0.0204
  173SOPE   H9119627   6.085   2.500   9.589  0.0036 -0.0579  1.4303
  173SOPE  C21019628   6.080   2.363   9.432 -0.1006 -0.6226  0.0576
  173SOPE  H10119629   6.097   2.445   9.361 -2.7321 -0.1927 -0.1580
  173SOPE  C21119630   6.073   2.224   9.373  0.4826  0.1211  0.6352
  173SOPE  H11R19631   5.983   2.176   9.416 -0.5699  1.0171 -0.4887
  173SOPE  H11S19632   6.152   2.150   9.398 -1.1144 -1.9936 -0.2504
  173SOPE  C21219633   6.058   2.232   9.219 -0.3059  0.2824  0.3454
  173SOPE  H12R19634   5.962   2.284   9.201  0.4052  3.0901  3.6226
  173SOPE  H12S19635   6.043   2.135   9.167 -1.2451  0.9734 -0.7130
  173SOPE  C21319636   6.171   2.311   9.142 -0.6216  0.1301 -0.1360
  173SOPE  H13R19637   6.265   2.262   9.176 -1.7515 -1.0807  1.4021
  173SOPE  H13S19638   6.170   2.420   9.162  0.5781  0.0324  0.5022
  173SOPE  C21419639   6.152   2.294   8.991  0.1584  0.0989  0.0135
  173SOPE  H14R19640   6.056   2.334   8.952 -0.6411 -0.9642  0.8051
  173SOPE  H14S19641   6.149   2.184   8.976 -2.3324  0.1248 -0.1357
  173SOPE  C21519642   6.250   2.380   8.897  0.4945 -0.4818  0.1598
  173SOPE  H15R19643   6.266   2.488   8.921  0.0770  0.2778 -2.5722
  173SOPE  H15S19644   6.206   2.373   8.795 -0.3869 -1.9563  0.6159
  173SOPE  C21619645   6.378   2.315   8.858 -0.7150  0.2851  0.3811
  173SOPE  H16R19646   6.431   2.295   8.954 -2.8221  1.2838  1.8279
  173SOPE  H16S19647   6.448   2.381   8.803  0.0488 -0.7290  0.1075
  173SOPE  C21719648   6.385   2.175   8.788 -0.4239 -0.4495 -0.0865
  173SOPE  H17R19649   6.343   2.187   8.685  0.5397  1.4420 -0.3092
  173SOPE  H17S19650   6.320   2.101   8.839  1.1010 -1.6381  0.2167
  173SOPE  C21819651   6.532   2.121   8.785  0.5115 -0.2735 -0.1727
  173SOPE  H18R19652   6.592   2.190   8.721  0.0896  0.7978  0.5441
  173SOPE  H18S19653   6.533   2.023   8.733  1.5581 -0.5545  0.3612
  173SOPE  H18T19654   6.568   2.124   8.890  0.1108  1.6829 -0.0423
  173SOPE   C3319655   6.606   1.895  10.478  0.3121  0.1887 -0.0217
  173SOPE   H3X19656   6.671   1.984  10.466  2.2459 -0.9725  1.2565
  173SOPE   H3Y19657   6.529   1.901  10.398  0.1533  1.1997  0.1956
  173SOPE   C3419658   6.688   1.762  10.471 -0.2336 -0.6193  0.2292
  173SOPE   H4X19659   6.615   1.682  10.496  0.5640 -1.1015  1.0967
  173SOPE   H4Y19660   6.759   1.777  10.555  1.2558 -0.9012 -0.9340
  173SOPE   C3519661   6.762   1.738  10.336 -0.3582  0.0827 -0.2573
  173SOPE   H5X19662   6.785   1.630  10.339 -2.5562 -0.5805 -3.1751
  173SOPE   H5Y19663   6.854   1.801  10.338 -0.3191  0.0327 -0.4566
  173SOPE   C3619664   6.679   1.753  10.205 -0.5228 -0.1550  0.1903
  173SOPE   H6X19665   6.651   1.860  10.213  0.1726  0.0175  0.3943
  173SOPE   H6Y19666   6.589   1.689  10.192 -0.6917 -0.3127  1.8960
  173SOPE   C3719667   6.761   1.725  10.071  0.3811 -0.8267  0.0258
  173SOPE   H7X19668   6.822   1.635  10.092  3.8896  0.6185 -2.8572
  173SOPE   H7Y19669   6.833   1.810  10.065 -0.5629  0.0160  0.2411
  173SOPE   C3819670   6.687   1.714   9.936  0.1933 -0.1791 -0.2017
  173SOPE   H8X19671   6.605   1.788   9.946 -2.0386 -2.6225  0.9320
  173SOPE   H8Y19672   6.649   1.611   9.918  1.1971 -0.7291  0.7208
  173SOPE   C3919673   6.777   1.765   9.821  0.3100 -0.5074  0.9556
  173SOPE   H9X19674   6.882   1.730   9.833  0.8530  0.4970 -0.5511
  173SOPE   H9Y19675   6.773   1.876   9.826  0.3241 -0.4398 -0.1710
  173SOPE  C31019676   6.705   1.717   9.688  0.3857 -0.3811 -0.1491
  173SOPE  H10X19677   6.601   1.755   9.682 -0.1281 -0.7088  3.8204
  173SOPE  H10Y19678   6.701   1.607   9.677  1.0261 -0.6338  1.7340
  173SOPE  C31119679   6.778   1.780   9.576  0.1354  0.7561 -0.1200
  173SOPE  H11X19680   6.882   1.747   9.595  0.2557  0.6751 -0.9114
  173SOPE  H11Y19681   6.766   1.891   9.576 -3.6193  0.5072  1.1812
  173SOPE  C31219682   6.720   1.743   9.440  0.2676  0.1068  0.3907
  173SOPE  H12X19683   6.685   1.638   9.440 -0.8893  0.3509 -2.9662
  173SOPE  H12Y19684   6.810   1.737   9.376  1.5314  0.9592  2.0170
  173SOPE  C31319685   6.618   1.843   9.379  0.3435 -0.0125 -0.8525
  173SOPE  H13X19686   6.645   1.950   9.394 -1.7273  0.3581  0.5426
  173SOPE  H13Y19687   6.519   1.837   9.427  1.0966 -0.9053  0.6580
  173SOPE  C31419688   6.592   1.804   9.229  0.5314  0.7033 -0.5133
  173SOPE  H14X19689   6.493   1.850   9.208 -0.3766 -1.3334 -0.9063
  173SOPE  H14Y19690   6.592   1.694   9.221  1.5018  0.6425  0.1746
  173SOPE  C31519691   6.701   1.863   9.136 -0.5223 -0.7725 -0.5811
  173SOPE  H15X19692   6.804   1.839   9.170 -0.3897  1.3518  0.6662
  173SOPE  H15Y19693   6.693   1.972   9.156 -0.8980 -0.7728 -0.7168
  173SOPE  C31619694   6.686   1.820   8.995  0.6687  0.3661  0.4261
  173SOPE  H16X19695   6.580   1.832   8.962  0.8554  0.4380 -0.1570
  173SOPE  H16Y19696   6.696   1.709   8.994  0.0892  0.3113 -0.3321
  173SOPE  C31719697   6.777   1.903   8.915 -0.6145  0.5976 -0.0203
  173SOPE  H17X19698   6.882   1.898   8.952 -1.0902 -3.0403  1.1863
  173SOPE  H17Y19699   6.737   2.007   8.919 -2.8089 -0.1170 -1.3405
  173SOPE  C31819700   6.779   1.866   8.763 -0.8275  0.3782 -0.1079
  173SOPE  H18X19701   6.674   1.844   8.733 -1.0620  1.9204 -0.5141
  173SOPE  H18Y19702   6.837   1.772   8.752 -1.9088 -0.2912 -0.2004
  173SOPE  H18Z19703   6.820   1.948   8.701  0.5522  0.3234  0.7053
  174SOPE     N19704   0.326   5.061  11.217  0.0270 -0.0805  0.0654
  174SOPE   HN119705   0.366   4.996  11.288 -0.8755 -0.7171  0.0075
  174SOPE   HN219706   0.230   5.076  11.255 -0.6028  1.9944 -2.1228
  174SOPE   HN319707   0.317   5.010  11.127 -2.9032  1.6817 -0.7578
  174SOPE   C1219708   0.412   5.181  11.193  0.4880  0.4571 -0.6677
  174SOPE  H12A19709   0.515   5.140  11.183  0.5607  0.4723 -0.0075
  174SOPE  H12B19710   0.412   5.227  11.294  0.3217 -2.9705  1.0195
  174SOPE   C1119711   0.363   5.279  11.096 -0.2318  0.5832  0.4344
  174SOPE  H11A19712   0.425   5.371  11.083 -1.0182  0.9390 -1.1330
  174SOPE  H11B19713   0.267   5.325  11.127 -1.3739  0.8275 -3.0021
  174SOPE     P19714   0.470   5.207  10.865 -0.4854  0.0491 -0.3901
  174SOPE   O1319715   0.429   5.134  10.742 -0.0571 -0.2493  0.0561
  174SOPE   O1419716   0.595   5.166  10.930  0.0724  0.4628  0.2976
  174SOPE   O1219717   0.349   5.206  10.974  0.6800  0.2388 -0.7338
  174SOPE   O1119718   0.476   5.363  10.843  0.1792  0.3107  0.3875
  174SOPE    C119719   0.367   5.441  10.796  0.2153 -0.3948 -0.4224
  174SOPE    HA19720   0.335   5.522  10.866 -0.0660  0.1571 -1.1796
  174SOPE    HB19721   0.274   5.383  10.776 -0.4499  0.1787  0.8510
  174SOPE    C219722   0.378   5.520  10.664  0.9952  0.2673  0.3180
  174SOPE    HS19723   0.280   5.559  10.627  1.5018 -0.3878 -1.8566
  174SOPE   O2119724   0.430   5.430  10.572 -0.6420  0.2155  0.3634
  174SOPE   C2119725   0.344   5.350  10.504 -0.0739 -0.0611 -1.0206
  174SOPE   O2219726   0.224   5.361  10.508 -0.1645 -0.1089  0.0216
  174SOPE   C2219727   0.424   5.249  10.419  0.0181 -0.2829 -0.0604
  174SOPE   H2R19728   0.346   5.185  10.373  0.9789 -1.2009 -0.4400
  174SOPE   H2S19729   0.482   5.174  10.477 -0.8417 -0.4803  0.5626
  174SOPE    C319730   0.459   5.648  10.680  0.1536 -0.0490  0.6773
  174SOPE    HX19731   0.559   5.609  10.710  0.2374  1.0483  1.8973
  174SOPE    HY19732   0.407   5.698  10.764 -1.4658 -2.4715  1.2091
  174SOPE   O3119733   0.472   5.726  10.559  0.8137  0.3972  0.0055
  174SOPE   C3119734   0.374   5.824  10.529  0.3475  0.8615 -0.4985
  174SOPE   O3219735   0.269   5.836  10.588  0.6380 -0.6857  0.7206
  174SOPE   C3219736   0.424   5.911  10.411 -0.0094 -0.1458  0.0389
  174SOPE   H2X19737   0.533   5.890  10.409 -0.4068 -2.4530  0.4766
  174SOPE   H2Y19738   0.402   6.018  10.431  0.0332 -0.5787  2.6951
  174SOPE   C2319739   0.488   5.328  10.294 -0.5886  0.3936  0.1595
  174SOPE   H3R19740   0.534   5.424  10.328  0.9380 -0.4162  0.4714
  174SOPE   H3S19741   0.413   5.340  10.213 -2.3466  1.6729  1.8796
  174SOPE   C2419742   0.605   5.247  10.235  0.1300  0.0890  0.4903
  174SOPE   H4R19743   0.685   5.228  10.309  0.3645 -1.9702 -0.2379
  174SOPE   H4S19744   0.569   5.147  10.202  1.0522 -0.4004  0.9601
  174SOPE   C2519745   0.673   5.313  10.109 -0.0426 -0.2152  0.3263
  174SOPE   H5R19746   0.744   5.237  10.070 -0.8524  0.1122 -1.9436
  174SOPE   H5S19747   0.590   5.342  10.040  1.0063  0.0035 -0.8716
  174SOPE   C2619748   0.754   5.437  10.134  0.0542  0.0534  0.1539
  174SOPE   H6R19749   0.682   5.512  10.172 -1.0752 -0.6114 -0.6329
  174SOPE   H6S19750   0.824   5.417  10.219 -1.0621 -0.5142  0.9667
  174SOPE   C2719751   0.839   5.486  10.008  0.2829  0.4445 -0.1137
  174SOPE   H7R19752   0.779   5.517   9.919 -0.7429 -1.7220 -0.2359
  174SOPE   H7S19753   0.902   5.569  10.046 -0.8667  0.2292  2.4137
  174SOPE   C2819754   0.936   5.375   9.951 -0.4132 -1.0877  1.1969
  174SOPE   H8R19755   0.987   5.349  10.046 -0.3043  0.6497  1.6518
  174SOPE   H8S19756   0.873   5.292   9.913 -1.3599  0.1878 -0.1161
  174SOPE   C2919757   1.033   5.427   9.847  0.4303  0.0906  0.1540
  174SOPE   H9119758   1.135   5.418   9.887  0.4320 -1.8907 -0.2115
  174SOPE  C21019759   1.019   5.485   9.728 -0.1768 -0.3285 -0.5319
  174SOPE  H10119760   1.108   5.505   9.666  0.1144 -0.4148 -0.1448
  174SOPE  C21119761   0.885   5.499   9.657 -0.3261 -0.4721  0.0110
  174SOPE  H11R19762   0.858   5.606   9.672  2.3459  0.3296 -0.3965
  174SOPE  H11S19763   0.808   5.431   9.701  0.5696 -1.9059 -0.5659
  174SOPE  C21219764   0.890   5.467   9.504 -0.7026  0.0827  0.6980
  174SOPE  H12R19765   0.790   5.477   9.457 -0.1981  0.1717 -0.3948
  174SOPE  H12S19766   0.922   5.361   9.490 -1.3660 -0.2404  1.5483
  174SOPE  C21319767   0.977   5.560   9.413 -0.2012 -0.7789 -0.2235
  174SOPE  H13R19768   1.086   5.535   9.410 -0.0715 -0.3967  0.9186
  174SOPE  H13S19769   0.960   5.656   9.465 -2.1143 -1.8802  1.3407
  174SOPE  C21419770   0.922   5.576   9.277 -0.0446 -0.5311  0.5440
  174SOPE  H14R19771   0.812   5.593   9.281  0.2780  2.3753 -0.4865
  174SOPE  H14S19772   0.929   5.479   9.224 -2.6469 -1.6234  2.0138
  174SOPE  C21519773   0.981   5.683   9.187  0.3396 -0.6848  0.2079
  174SOPE  H15R19774   1.089   5.695   9.209  0.5596 -3.0257  0.7302
  174SOPE  H15S19775   0.927   5.780   9.188  0.1504 -0.7879  1.1776
  174SOPE  C21619776   0.989   5.627   9.043 -0.0671  0.8112  0.0897
  174SOPE  H16R19777   0.896   5.573   9.014  0.8906 -0.5353 -0.5432
  174SOPE  H16S19778   1.056   5.539   9.045 -0.4207  0.5495  0.5849
  174SOPE  C21719779   1.029   5.730   8.940 -0.4336 -0.7705  0.0450
  174SOPE  H17R19780   1.099   5.803   8.986 -0.8237  0.1954 -0.8689
  174SOPE  H17S19781   0.942   5.794   8.917  0.4959  0.7888  0.6450
  174SOPE  C21819782   1.095   5.675   8.815  0.3222 -0.0925 -0.1182
  174SOPE  H18R19783   1.042   5.585   8.778  1.1861 -0.2225 -1.0828
  174SOPE  H18S19784   1.198   5.645   8.842  0.1531  0.5591  1.3996
  174SOPE  H18T19785   1.096   5.756   8.740 -0.2384  1.7727  1.8008
  174SOPE   C3319786   0.359   5.866  10.281 -0.1378  0.0243  0.0618
  174SOPE   H3X19787   0.398   5.936  10.205 -0.2524 -0.7611 -0.7450
  174SOPE   H3Y19788   0.248   5.874  10.282 -0.1242  0.7832  2.3784
  174SOPE   C3419789   0.406   5.725  10.222  0.4168 -0.3198  0.0541
  174SOPE   H4X19790   0.389   5.643  10.295  0.7035 -0.4226  0.0042
  174SOPE   H4Y19791   0.514   5.740  10.205  0.0973  1.3191 -0.7081
  174SOPE   C3519792   0.333   5.678  10.092  0.8526  0.2347 -0.4068
  174SOPE   H5X19793   0.225   5.704  10.096  0.9635  0.5846  2.0027
  174SOPE   H5Y19794   0.341   5.567  10.088  2.7515  0.3016  0.6207
  174SOPE   C3619795   0.381   5.744   9.963  0.2330  0.1874 -0.0187
  174SOPE   H6X19796   0.489   5.763   9.950 -0.0525  1.3965 -0.8242
  174SOPE   H6Y19797   0.329   5.838   9.932  1.5751  0.2297 -2.3221
  174SOPE   C3719798   0.352   5.664   9.837  0.4916 -0.1212  1.0002
  174SOPE   H7X19799   0.242   5.663   9.822  0.7576  0.8355 -1.5612
  174SOPE   H7Y19800   0.393   5.561   9.843 -1.6830 -1.1095 -0.0989
  174SOPE   C3819801   0.421   5.744   9.717 -0.0579  0.1534 -0.7338
  174SOPE   H8X19802   0.530   5.741   9.735 -0.0254  0.4449 -0.8794
  174SOPE   H8Y19803   0.376   5.846   9.714 -0.0663  0.1899  0.3939
  174SOPE   C3919804   0.407   5.670   9.586 -0.6049  0.2785  1.1512
  174SOPE   H9X19805   0.298   5.659   9.568 -0.7585  2.5317  0.4045
  174SOPE   H9Y19806   0.453   5.569   9.577  0.5895  0.8420  0.6866
  174SOPE  C31019807   0.436   5.764   9.461 -0.6354  0.4740 -0.2716
  174SOPE  H10X19808   0.534   5.816   9.471 -1.0622  1.0789  0.9798
  174SOPE  H10Y19809   0.357   5.843   9.460 -0.1567  1.0101 -2.6758
  174SOPE  C31119810   0.432   5.692   9.320 -0.1915  0.6729 -0.1946
  174SOPE  H11X19811   0.325   5.697   9.290 -1.0800 -0.7104  2.4088
  174SOPE  H11Y19812   0.469   5.588   9.332  0.4967  0.8735 -0.5228
  174SOPE  C31219813   0.502   5.777   9.212  0.0314  0.7029  0.3357
  174SOPE  H12X19814   0.604   5.801   9.249 -0.6911  0.0247  2.9702
  174SOPE  H12Y19815   0.443   5.871   9.220 -0.0857  0.6103  0.5519
  174SOPE  C31319816   0.523   5.713   9.073  0.2289  0.3646 -0.4601
  174SOPE  H13X19817   0.435   5.655   9.038 -0.1735 -0.0258  1.1238
  174SOPE  H13Y19818   0.601   5.635   9.082  0.7120  0.4787 -2.8831
  174SOPE  C31419819   0.567   5.820   8.980  0.0840 -0.1678 -0.3316
  174SOPE  H14X19820   0.662   5.866   9.015  0.0180  0.2486 -0.7003
  174SOPE  H14Y19821   0.496   5.900   8.950  2.0209  1.1303 -1.6986
  174SOPE  C31519822   0.600   5.770   8.836 -0.5426  0.2411 -0.1926
  174SOPE  H15X19823   0.505   5.729   8.794 -0.3088  0.8597 -1.3420
  174SOPE  H15Y19824   0.680   5.693   8.842  0.9241  1.5271 -1.9789
  174SOPE  C31619825   0.641   5.893   8.745  0.8933 -0.0398  0.2434
  174SOPE  H16X19826   0.572   5.979   8.763 -1.1060 -1.4754 -0.2143
  174SOPE  H16Y19827   0.619   5.859   8.642 -1.7946 -2.9447  1.6086
  174SOPE  C31719828   0.790   5.923   8.750  0.0163  0.0562 -0.4611
  174SOPE  H17X19829   0.844   5.827   8.739  0.8743  0.3773  0.8058
  174SOPE  H17Y19830   0.811   5.958   8.853 -1.8826  1.4100 -0.4806
  174SOPE  C31819831   0.851   6.014   8.642  0.0337  0.0231  0.5210
  174SOPE  H18X19832   0.816   6.000   8.537 -0.8761  2.4230  0.4363
  174SOPE  H18Y19833   0.961   6.000   8.639 -0.1114 -1.2211 -1.3253
  174SOPE  H18Z19834   0.835   6.121   8.666  1.2497  0.3145  0.1088
  175SOPE     N19835   2.538   0.054  10.948  0.2186  0.0960 -0.4580
  175SOPE   HN119836   2.600  -0.020  10.989 -0.6263  1.5148  3.9625
  175SOPE   HN219837   2.549   0.140  11.006  0.6434  0.0525 -0.4645
  175SOPE   HN319838   2.442   0.015  10.956  0.6532 -0.9835 -0.3810
  175SOPE   C1219839   2.566   0.076  10.809  0.7911  0.3875  0.1014
  175SOPE  H12A19840   2.506   0.158  10.765  1.1731 -0.7706 -2.8410
  175SOPE  H12B19841   2.535  -0.017  10.755  0.7925  1.4215 -1.7605
  175SOPE   C1119842   2.713   0.097  10.793 -0.2378 -0.2350  0.1488
  175SOPE  H11A19843   2.739   0.122  10.688  4.1817 -1.3828  0.7665
  175SOPE  H11B19844   2.763   0.004  10.826 -1.5528 -0.6707  0.9801
  175SOPE     P19845   2.905   0.272  10.885  0.4527 -0.3826 -0.1109
  175SOPE   O1319846   2.970   0.217  11.009  0.2829  0.2166  0.7513
  175SOPE   O1419847   2.909   0.423  10.880  0.1351 -0.5227 -0.1353
  175SOPE   O1219848   2.764   0.218  10.865  0.1055  0.1245  0.2270
  175SOPE   O1119849   2.994   0.218  10.765  0.1535 -0.2453 -0.0550
  175SOPE    C119850   3.036   0.306  10.661 -0.4906  0.6624  0.4377
  175SOPE    HA19851   3.141   0.284  10.633 -0.4002  2.0302 -0.3856
  175SOPE    HB19852   3.047   0.413  10.689  1.2294  0.0067  2.5063
  175SOPE    C219853   2.954   0.289  10.527 -0.3610 -0.3058 -0.3428
  175SOPE    HS19854   2.851   0.286  10.569  0.0699  2.9694  1.2803
  175SOPE   O2119855   3.001   0.167  10.465 -0.2527 -0.1009  0.1799
  175SOPE   C2119856   2.915   0.083  10.411 -0.5380  0.3112  0.3449
  175SOPE   O2219857   2.796   0.093  10.418 -0.1180  0.0652  0.1084
  175SOPE   C2219858   2.993  -0.029  10.349  0.4626  0.4242 -0.2912
  175SOPE   H2R19859   2.932  -0.121  10.348  1.5043 -0.2968 -1.9320
  175SOPE   H2S19860   3.091  -0.032  10.402  1.4101 -1.6544 -2.0388
  175SOPE    C319861   2.968   0.406  10.430  0.0328  0.9725 -0.6472
  175SOPE    HX19862   3.074   0.420  10.399  0.1999  1.5611  0.1613
  175SOPE    HY19863   2.939   0.499  10.483 -0.1574  0.2969  0.4601
  175SOPE   O3119864   2.889   0.391  10.314 -0.0540  0.4601 -0.1168
  175SOPE   C3119865   2.868   0.505  10.243 -0.5506 -0.1055  0.2021
  175SOPE   O3219866   2.919   0.611  10.269  0.3990  0.6834 -0.3836
  175SOPE   C3219867   2.795   0.464  10.116 -0.1498  0.6249 -0.6950
  175SOPE   H2X19868   2.700   0.418  10.151 -1.2682  2.4921 -1.1251
  175SOPE   H2Y19869   2.866   0.397  10.062  1.8187  2.6789 -0.7684
  175SOPE   C2319870   3.010   0.010  10.196 -0.0388  0.3313  0.5385
  175SOPE   H3R19871   2.912   0.034  10.150  0.7131  1.3962 -0.5736
  175SOPE   H3S19872   3.055  -0.074  10.139  0.5849  0.8133  0.3079
  175SOPE   C2419873   3.094   0.135  10.172  0.0492 -0.0802  0.1414
  175SOPE   H4R19874   3.054   0.224  10.226 -1.8377 -0.3355 -0.7832
  175SOPE   H4S19875   3.199   0.113  10.203  0.3417  0.1158 -0.6829
  175SOPE   C2519876   3.108   0.176  10.023 -0.1028  0.1061  0.1202
  175SOPE   H5R19877   3.154   0.094   9.964  0.0398  0.8033 -0.7613
  175SOPE   H5S19878   3.006   0.190   9.981  0.7170  0.5438 -1.8341
  175SOPE   C2619879   3.196   0.302  10.010 -0.4101 -0.0178 -0.4231
  175SOPE   H6R19880   3.141   0.390  10.050  1.0061 -0.9437  4.0473
  175SOPE   H6S19881   3.286   0.290  10.074  0.6412 -1.8768 -2.1070
  175SOPE   C2719882   3.245   0.336   9.869 -0.2378  0.1583 -0.5427
  175SOPE   H7R19883   3.319   0.417   9.890 -0.6259  0.1506  0.9894
  175SOPE   H7S19884   3.296   0.255   9.813  0.8170 -0.6793  1.5122
  175SOPE   C2819885   3.142   0.407   9.778 -0.5457 -0.4678  1.3510
  175SOPE   H8R19886   3.081   0.478   9.838 -1.5894 -1.2538  1.2544
  175SOPE   H8S19887   3.202   0.479   9.719 -1.5213  0.9756  2.0635
  175SOPE   C2919888   3.052   0.310   9.700 -0.1517  1.3512  0.9279
  175SOPE   H9119889   2.983   0.268   9.775  1.3746 -0.1631  1.5517
  175SOPE  C21019890   3.058   0.263   9.579 -0.1454  0.5341 -0.1100
  175SOPE  H10119891   2.988   0.185   9.547  0.9584 -0.4399 -0.2468
  175SOPE  C21119892   3.152   0.294   9.470 -0.5001  0.0962  0.1753
  175SOPE  H11R19893   3.186   0.200   9.424 -1.8005 -0.8256  1.0306
  175SOPE  H11S19894   3.248   0.338   9.505  0.3861 -1.4303 -0.2520
  175SOPE  C21219895   3.093   0.385   9.361  0.6219 -0.0217  1.1979
  175SOPE  H12R19896   3.074   0.485   9.407 -0.8496  0.0810  0.4223
  175SOPE  H12S19897   2.997   0.338   9.331  1.4898 -1.2150  0.2218
  175SOPE  C21319898   3.178   0.400   9.235  0.1189 -0.6765  0.3296
  175SOPE  H13R19899   3.203   0.297   9.203  1.2174 -0.6563  1.0599
  175SOPE  H13S19900   3.270   0.454   9.266  1.3447 -0.8456 -2.7053
  175SOPE  C21419901   3.104   0.488   9.134 -0.7372  0.8460  0.0908
  175SOPE  H14R19902   3.083   0.584   9.185 -2.7668 -1.1978  3.4854
  175SOPE  H14S19903   3.006   0.437   9.121  0.3688 -2.0665  2.0818
  175SOPE  C21519904   3.197   0.512   9.009  1.1709 -0.8452  1.1551
  175SOPE  H15R19905   3.198   0.422   8.944  0.9277  1.0858 -1.7364
  175SOPE  H15S19906   3.297   0.531   9.052  2.0644  0.6821 -1.3927
  175SOPE  C21619907   3.147   0.613   8.900 -0.0212 -0.9528 -0.0319
  175SOPE  H16R19908   3.157   0.720   8.926 -0.0872 -0.2738 -2.5604
  175SOPE  H16S19909   3.040   0.596   8.873 -0.4593  1.8387 -0.2911
  175SOPE  C21719910   3.222   0.601   8.764  0.5597 -0.2116  0.0141
  175SOPE  H17R19911   3.229   0.492   8.741  0.7713 -0.1872 -0.0329
  175SOPE  H17S19912   3.330   0.627   8.762  1.2406 -2.6799 -3.0314
  175SOPE  C21819913   3.148   0.678   8.656 -1.2318 -0.7941  0.3521
  175SOPE  H18R19914   3.039   0.657   8.653 -0.9326 -2.4419  0.4170
  175SOPE  H18S19915   3.190   0.672   8.553 -0.7488 -0.5964  0.5346
  175SOPE  H18T19916   3.149   0.786   8.681 -0.0876 -0.3059 -1.5848
  175SOPE   C3319917   2.751   0.580  10.030 -0.0300 -0.4995  0.5360
  175SOPE   H3X19918   2.760   0.676  10.085 -3.3017 -0.4787  1.2270
  175SOPE   H3Y19919   2.646   0.559  10.001  0.0581 -0.4129  0.1499
  175SOPE   C3419920   2.836   0.587   9.902  0.1633  0.6876 -0.0403
  175SOPE   H4X19921   2.848   0.483   9.864 -0.5606 -0.0582  1.6867
  175SOPE   H4Y19922   2.933   0.635   9.927  0.5226 -0.2059  0.3125
  175SOPE   C3519923   2.775   0.667   9.783 -0.1417 -0.1185 -0.2705
  175SOPE   H5X19924   2.745   0.768   9.817 -2.7589 -0.5840 -0.9615
  175SOPE   H5Y19925   2.685   0.610   9.752  0.3809 -0.7707 -0.6146
  175SOPE   C3619926   2.861   0.679   9.662  0.4729 -0.5113  0.2577
  175SOPE   H6X19927   2.889   0.579   9.621 -2.1114 -1.0093 -0.4660
  175SOPE   H6Y19928   2.954   0.733   9.691  0.3865 -0.0976 -0.2211
  175SOPE   C3719929   2.806   0.757   9.546 -0.6542  0.4461  0.5585
  175SOPE   H7X19930   2.768   0.855   9.582  1.5140  1.4984  0.1538
  175SOPE   H7Y19931   2.724   0.689   9.515  0.7481 -0.3461 -1.6166
  175SOPE   C3819932   2.916   0.764   9.431 -0.0136 -0.5501 -0.0893
  175SOPE   H8X19933   2.956   0.664   9.405  1.7416  0.5742 -1.9867
  175SOPE   H8Y19934   3.012   0.816   9.455  0.3213 -1.6334  1.0669
  175SOPE   C3919935   2.853   0.833   9.307 -0.3434  0.0985 -0.6479
  175SOPE   H9X19936   2.824   0.934   9.342 -0.0501 -0.2891  0.7695
  175SOPE   H9Y19937   2.767   0.767   9.282 -2.0719  1.4574  1.3313
  175SOPE  C31019938   2.952   0.844   9.189  0.2185 -0.1648  0.0948
  175SOPE  H10X19939   2.943   0.743   9.143 -1.1230 -0.6531  1.3471
  175SOPE  H10Y19940   3.053   0.848   9.236 -0.7312 -1.6319  2.4518
  175SOPE  C31119941   2.921   0.964   9.093  0.3518 -0.0290  0.2470
  175SOPE  H11X19942   2.922   1.060   9.148  2.5641 -0.5222  1.1890
  175SOPE  H11Y19943   2.820   0.948   9.049 -0.6003  2.6956  1.2235
  175SOPE  C31219944   3.009   0.976   8.967 -0.1565 -0.2005 -0.1581
  175SOPE  H12X19945   2.982   0.888   8.905  1.1060 -1.1213  0.5366
  175SOPE  H12Y19946   3.116   0.973   8.999 -0.4423  1.5078  1.0726
  175SOPE  C31319947   2.977   1.103   8.895 -0.5444 -0.0154 -0.0630
  175SOPE  H13X19948   3.008   1.183   8.966  1.3706 -0.6893 -0.1027
  175SOPE  H13Y19949   2.867   1.110   8.878 -0.4135  0.7192 -0.6948
  175SOPE  C31419950   3.049   1.106   8.766  0.6450  0.4256  0.1181
  175SOPE  H14X19951   3.024   1.195   8.705  2.4962 -0.3116 -1.8406
  175SOPE  H14Y19952   3.014   1.022   8.702  2.0538  0.3660 -0.6074
  175SOPE  C31519953   3.205   1.106   8.759  0.4202 -0.4031 -0.3363
  175SOPE  H15X19954   3.232   0.999   8.772 -2.0930 -1.3268 -1.9272
  175SOPE  H15Y19955   3.243   1.171   8.841  0.2217  0.3369 -0.8134
  175SOPE  C31619956   3.267   1.157   8.623 -0.0401 -0.1077 -0.5926
  175SOPE  H16X19957   3.358   1.215   8.650  0.7336 -1.0749 -1.0604
  175SOPE  H16Y19958   3.198   1.231   8.577  0.9513  0.5038 -1.1224
  175SOPE  C31719959   3.312   1.048   8.526  0.0500 -0.4621 -0.7532
  175SOPE  H17X19960   3.231   0.975   8.505 -0.0317 -1.5746  2.7607
  175SOPE  H17Y19961   3.394   0.996   8.580 -1.2623 -1.3006  0.5244
  175SOPE  C31819962   3.369   1.105   8.400  0.1291  0.3308  0.6220
  175SOPE  H18X19963   3.468   1.150   8.421  0.2494  0.2774  0.1784
  175SOPE  H18Y19964   3.298   1.181   8.361  1.3996  1.2579  0.0407
  175SOPE  H18Z19965   3.393   1.027   8.325  0.0257  0.5490  0.3575
  176SOPE     N19966   1.314   0.992  10.976 -1.0196 -0.1492  0.6623
  176SOPE   HN119967   1.365   1.059  10.916  0.5363  0.2141  2.3235
  176SOPE   HN219968   1.227   0.950  10.937 -0.9503 -0.0743  0.4279
  176SOPE   HN319969   1.280   1.051  11.055  0.2460 -0.1774  1.2480
  176SOPE   C1219970   1.400   0.892  11.045  0.7437  0.3998 -0.5701
  176SOPE  H12A19971   1.488   0.941  11.093  1.2739 -0.2319 -0.8822
  176SOPE  H12B19972   1.435   0.832  10.958 -2.5899  0.3767 -2.0381
  176SOPE   C1119973   1.320   0.814  11.148 -0.4314  0.8200  1.0722
  176SOPE  H11A19974   1.280   0.879  11.228 -1.0974  1.2605  0.4013
  176SOPE  H11B19975   1.388   0.744  11.201 -1.8791 -0.0356  1.8547
  176SOPE     P19976   1.219   0.593  11.039 -0.2949  0.2265 -0.4913
  176SOPE   O1319977   1.084   0.528  11.025  0.2326 -0.0844 -0.1198
  176SOPE   O1419978   1.312   0.520  11.127 -0.3286 -0.8420  0.1803
  176SOPE   O1219979   1.209   0.741  11.084  0.3879 -0.1156  0.0746
  176SOPE   O1119980   1.273   0.610  10.890  0.1373  0.2047 -0.5809
  176SOPE    C119981   1.410   0.564  10.858 -0.4923  0.3348 -0.1660
  176SOPE    HA19982   1.416   0.457  10.826 -1.5731  0.1629  0.1589
  176SOPE    HB19983   1.478   0.571  10.945 -0.6775  1.6636 -0.1129
  176SOPE    C219984   1.455   0.648  10.738  0.1313 -0.3732 -0.3843
  176SOPE    HS19985   1.471   0.754  10.766  0.0300 -0.2429 -0.8160
  176SOPE   O2119986   1.346   0.646  10.642 -0.2353 -0.0475 -0.8703
  176SOPE   C2119987   1.284   0.762  10.617  0.3476  0.2421 -0.0317
  176SOPE   O2219988   1.325   0.868  10.655  0.0165  0.0312  0.1442
  176SOPE   C2219989   1.154   0.743  10.539  0.0540 -0.0920  0.4018
  176SOPE   H2R19990   1.177   0.682  10.448  0.3509  0.4030  0.1360
  176SOPE   H2S19991   1.133   0.848  10.507  0.0138 -0.2776 -0.1945
  176SOPE    C319992   1.588   0.596  10.689  0.7102  0.0904 -0.0197
  176SOPE    HX19993   1.586   0.492  10.651 -0.7067  0.9222 -2.4403
  176SOPE    HY19994   1.654   0.596  10.778  2.2507 -0.1366 -1.1165
  176SOPE   O3119995   1.641   0.677  10.585 -0.4028  0.3137  0.5687
  176SOPE   C3119996   1.704   0.786  10.617  0.0981  0.0042  0.1270
  176SOPE   O3219997   1.732   0.824  10.730 -0.5513 -0.0858 -0.0153
  176SOPE   C3219998   1.751   0.858  10.491 -0.2663 -0.5424  0.0699
  176SOPE   H2X19999   1.771   0.784  10.410 -0.0745  0.2737 -0.6425
  176SOPE   H2Y20000   1.845   0.914  10.511 -0.5563 -0.8526  2.6018
  176SOPE   C2320001   1.034   0.681  10.601  0.8781  0.9349  0.6152
  176SOPE   H3R20002   0.977   0.756  10.660 -2.7245 -0.4454 -0.7734
  176SOPE   H3S20003   1.058   0.603  10.676  0.6936 -0.1107 -0.3900
  176SOPE   C2420004   0.930   0.618  10.510  0.1050  0.1991  0.2125
  176SOPE   H4R20005   0.950   0.512  10.480 -3.2186 -0.1470 -1.1786
  176SOPE   H4S20006   0.837   0.606  10.569 -0.2308  1.3748 -0.0597
  176SOPE   C2520007   0.887   0.708  10.398 -0.1291 -0.2512 -0.0602
  176SOPE   H5R20008   0.829   0.793  10.439 -0.7791  0.0054 -1.4445
  176SOPE   H5S20009   0.981   0.738  10.346  0.5659 -0.6231  0.9437
  176SOPE   C2620010   0.805   0.626  10.297 -0.5161 -1.0268  0.5849
  176SOPE   H6R20011   0.858   0.531  10.274  0.4192 -0.3789  0.0146
  176SOPE   H6S20012   0.702   0.617  10.339 -0.9409  1.4038  0.1766
  176SOPE   C2720013   0.798   0.708  10.166 -0.3802  0.1362  0.0895
  176SOPE   H7R20014   0.758   0.805  10.203 -2.6457 -0.9226  0.6035
  176SOPE   H7S20015   0.897   0.725  10.118  0.4843  0.3223  1.8802
  176SOPE   C2820016   0.698   0.650  10.067  0.6692  0.2823  0.0097
  176SOPE   H8R20017   0.610   0.614  10.124 -0.4579  1.2342 -1.0630
  176SOPE   H8S20018   0.663   0.737  10.006  0.4961  0.7764  0.7910
  176SOPE   C2920019   0.765   0.546   9.982  0.2019  0.7670  0.0903
  176SOPE   H9120020   0.826   0.474  10.038  1.3908  0.6224 -1.3404
  176SOPE  C21020021   0.778   0.533   9.849  0.8713 -0.0493 -0.5590
  176SOPE  H10120022   0.809   0.435   9.810  0.5042 -0.3275 -0.1688
  176SOPE  C21120023   0.724   0.629   9.746  0.2629 -0.3932 -0.5030
  176SOPE  H11R20024   0.697   0.727   9.792 -1.3583 -1.7907  1.6992
  176SOPE  H11S20025   0.633   0.581   9.705  0.2318 -1.2349  0.5122
  176SOPE  C21220026   0.811   0.666   9.628  0.0460  0.0155 -0.3195
  176SOPE  H12R20027   0.905   0.697   9.679 -0.6573  1.8350 -0.0644
  176SOPE  H12S20028   0.769   0.746   9.564 -0.9298 -0.5444 -0.3855
  176SOPE  C21320029   0.848   0.547   9.538 -0.2551 -0.3607 -0.0247
  176SOPE  H13R20030   0.760   0.485   9.512  1.5861 -4.2668  2.1538
  176SOPE  H13S20031   0.915   0.477   9.592  0.1764 -0.2205 -0.3744
  176SOPE  C21420032   0.920   0.592   9.406 -0.7950 -0.0198  0.8849
  176SOPE  H14R20033   0.848   0.649   9.344 -0.9222 -1.7999 -0.7219
  176SOPE  H14S20034   0.947   0.503   9.345 -1.1185  0.5475 -0.1082
  176SOPE  C21520035   1.050   0.667   9.435 -0.2676  0.1685 -0.2198
  176SOPE  H15R20036   1.103   0.607   9.513  0.3050  1.7387  0.6521
  176SOPE  H15S20037   1.019   0.756   9.494 -1.9460 -2.0722  2.5305
  176SOPE  C21620038   1.137   0.696   9.317 -0.6152 -0.1548  0.7946
  176SOPE  H16R20039   1.092   0.778   9.257  0.0143 -2.5219 -3.2998
  176SOPE  H16S20040   1.133   0.606   9.252  2.0546 -0.1759  0.5164
  176SOPE  C21720041   1.282   0.733   9.354  0.5545 -0.0612  0.2211
  176SOPE  H17R20042   1.338   0.745   9.259 -1.2650 -1.3957 -1.0777
  176SOPE  H17S20043   1.344   0.657   9.407  0.2527 -1.6543 -1.6109
  176SOPE  C21820044   1.291   0.863   9.436  0.2100 -0.1270 -1.1541
  176SOPE  H18R20045   1.223   0.941   9.396 -0.8171 -0.6724 -0.5314
  176SOPE  H18S20046   1.396   0.900   9.435  0.7693 -1.5968 -0.4744
  176SOPE  H18T20047   1.263   0.846   9.542  0.2981  0.6714 -1.0005
  176SOPE   C3320048   1.640   0.946  10.424 -0.3619 -0.0935  0.0885
  176SOPE   H3X20049   1.675   1.026  10.354  0.5537  0.0951  0.7562
  176SOPE   H3Y20050   1.577   0.997  10.500 -1.3478 -2.1133  0.6949
  176SOPE   C3420051   1.544   0.860  10.336  0.5325 -0.0906 -0.3300
  176SOPE   H4X20052   1.488   0.795  10.406  1.6446  0.3978  1.0544
  176SOPE   H4Y20053   1.614   0.801  10.273  1.2094  1.4800 -1.1220
  176SOPE   C3520054   1.450   0.940  10.242 -1.1194 -0.4154 -0.1210
  176SOPE   H5X20055   1.515   1.017  10.195 -0.5400  0.3240  1.7727
  176SOPE   H5Y20056   1.387   1.003  10.309  0.1243  1.0276 -0.2426
  176SOPE   C3620057   1.377   0.870  10.135  0.6126  1.0446  0.5170
  176SOPE   H6X20058   1.344   0.777  10.187 -0.8448  1.7079  0.8342
  176SOPE   H6Y20059   1.449   0.837  10.057 -1.9692 -2.3800 -0.6697
  176SOPE   C3720060   1.248   0.936  10.079 -0.2554  0.1765 -0.2661
  176SOPE   H7X20061   1.273   1.038  10.042 -0.5294 -0.1121 -1.3005
  176SOPE   H7Y20062   1.178   0.954  10.164  1.5643 -0.7076  1.4933
  176SOPE   C3820063   1.184   0.839   9.980  0.1186 -0.7048 -0.0128
  176SOPE   H8X20064   1.171   0.741  10.030 -1.7533 -1.6649 -2.1631
  176SOPE   H8Y20065   1.260   0.812   9.903  0.2455 -0.6919  0.1060
  176SOPE   C3920066   1.055   0.899   9.924 -0.4526 -0.1995  0.2271
  176SOPE   H9X20067   0.993   0.946  10.003  0.3692  0.0433  0.7438
  176SOPE   H9Y20068   0.984   0.824   9.885 -0.4998  0.0919 -0.2567
  176SOPE  C31020069   1.083   0.993   9.812 -0.3892 -0.4058 -0.3347
  176SOPE  H10X20070   1.136   0.932   9.735  3.0218  1.0917  0.6170
  176SOPE  H10Y20071   1.155   1.075   9.836  1.0945 -1.7359 -0.1172
  176SOPE  C31120072   0.953   1.053   9.757 -0.1376 -0.2681 -0.2933
  176SOPE  H11X20073   0.942   1.153   9.803 -0.1583 -0.2199 -0.4041
  176SOPE  H11Y20074   0.864   0.992   9.786 -1.4443  1.7639  0.1696
  176SOPE  C31220075   0.956   1.051   9.602 -0.8010  0.2795  1.0342
  176SOPE  H12X20076   0.957   0.945   9.565  1.7291  0.7009 -0.3577
  176SOPE  H12Y20077   1.045   1.102   9.559 -1.2063  0.3443  0.2510
  176SOPE  C31320078   0.830   1.107   9.546  0.8408 -0.6216 -0.8106
  176SOPE  H13X20079   0.824   1.218   9.538 -0.3761 -0.5825  0.3764
  176SOPE  H13Y20080   0.752   1.071   9.615  1.0610  0.7804  0.2061
  176SOPE  C31420081   0.784   1.041   9.415 -0.9741  0.1643 -0.5660
  176SOPE  H14X20082   0.685   1.073   9.376 -1.3219  0.4998  0.5529
  176SOPE  H14Y20083   0.765   0.934   9.439 -0.4615  0.0287 -0.7460
  176SOPE  C31520084   0.872   1.052   9.291 -0.5419 -0.1367  0.6566
  176SOPE  H15X20085   0.979   1.022   9.300 -0.5002 -0.4706 -0.7422
  176SOPE  H15Y20086   0.869   1.157   9.258 -0.7749 -0.9631 -2.2100
  176SOPE  C31620087   0.816   0.972   9.177  0.2822  0.6780 -0.4150
  176SOPE  H16X20088   0.706   0.982   9.174  0.1173 -0.2623  1.1311
  176SOPE  H16Y20089   0.841   0.865   9.195  0.3731  0.3645 -2.2689
  176SOPE  C31720090   0.890   1.011   9.048  0.2108  0.3252  0.0815
  176SOPE  H17X20091   0.898   1.121   9.041  3.5431  0.2311  0.6293
  176SOPE  H17Y20092   0.823   0.985   8.963 -0.5481  2.0099  0.1205
  176SOPE  C31820093   1.031   0.953   9.027 -0.1857  0.1371  0.0714
  176SOPE  H18X20094   1.104   1.007   9.089  0.7180 -0.2841 -0.6017
  176SOPE  H18Y20095   1.064   0.957   8.921 -0.1008  0.2719  0.1030
  176SOPE  H18Z20096   1.026   0.844   9.050  0.7666 -0.3716 -1.8376
  177SOPE     N20097   2.911   4.491  10.919  0.9854  0.2343  0.8386
  177SOPE   HN120098   2.860   4.559  10.858 -0.2402 -1.4035 -0.0166
  177SOPE   HN220099   2.875   4.500  11.016  0.8335  0.0900  0.7947
  177SOPE   HN320100   3.014   4.502  10.922  1.0806 -0.3419 -0.1292
  177SOPE   C1220101   2.862   4.352  10.884 -0.5130  0.2042 -0.3159
  177SOPE  H12A20102   2.872   4.286  10.973  0.0456  1.0636  0.2745
  177SOPE  H12B20103   2.936   4.321  10.807  2.6683  1.7842  1.8496
  177SOPE   C1120104   2.721   4.350  10.823  0.3666 -0.4236  0.3005
  177SOPE  H11A20105   2.700   4.242  10.813  0.1025 -0.4388  0.9652
  177SOPE  H11B20106   2.722   4.411  10.730  1.3706 -1.4736 -0.4018
  177SOPE     P20107   2.474   4.377  10.913 -0.3644  0.1400 -0.6849
  177SOPE   O1320108   2.415   4.430  11.037 -0.4132  0.1410 -0.2505
  177SOPE   O1420109   2.457   4.234  10.890 -0.2639  0.7318  0.4159
  177SOPE   O1220110   2.626   4.414  10.911 -0.0437 -0.1737  0.0372
  177SOPE   O1120111   2.397   4.438  10.793  0.0628 -0.1199 -0.5471
  177SOPE    C120112   2.254   4.438  10.795  0.2942  0.0999  0.1609
  177SOPE    HA20113   2.227   4.544  10.773  3.9779  0.8647 -1.3627
  177SOPE    HB20114   2.212   4.405  10.893  1.8974 -0.9809  0.5220
  177SOPE    C220115   2.201   4.356  10.674 -0.3394 -0.6341  0.0058
  177SOPE    HS20116   2.258   4.261  10.676 -0.6689 -0.8703 -1.0252
  177SOPE   O2120117   2.226   4.437  10.554  0.1690  0.2138 -0.3054
  177SOPE   C2120118   2.250   4.373  10.442 -0.1431  1.1406  0.3409
  177SOPE   O2220119   2.271   4.252  10.435  0.1286  0.0642  0.0781
  177SOPE   C2220120   2.252   4.458  10.316  0.6210 -0.9210  1.0414
  177SOPE   H2R20121   2.332   4.533  10.327 -1.6889  1.9284 -0.3666
  177SOPE   H2S20122   2.157   4.515  10.316  0.5964 -0.8353 -1.7092
  177SOPE    C320123   2.050   4.323  10.697 -0.0380  0.0314 -0.0326
  177SOPE    HX20124   1.994   4.415  10.722 -0.0048  0.1064 -0.2307
  177SOPE    HY20125   2.046   4.261  10.789  0.0979 -0.7706 -0.5593
  177SOPE   O3120126   1.999   4.259  10.575 -0.4164  0.0081  0.1873
  177SOPE   C3120127   1.875   4.223  10.587 -0.2969  0.3727 -0.3695
  177SOPE   O3220128   1.812   4.239  10.689  0.6834  0.3589  0.2253
  177SOPE   C3220129   1.827   4.151  10.462  0.7468 -0.3851  0.7279
  177SOPE   H2X20130   1.805   4.046  10.493 -0.2456 -0.0592  1.1760
  177SOPE   H2Y20131   1.910   4.141  10.390  0.5930 -0.7564  0.6022
  177SOPE   C2320132   2.237   4.373  10.183 -0.8087 -0.0027 -0.5552
  177SOPE   H3R20133   2.136   4.329  10.189 -0.7841  0.1386  1.9558
  177SOPE   H3S20134   2.317   4.296  10.178 -1.2042 -0.6694  1.9434
  177SOPE   C2420135   2.250   4.461  10.054 -0.7180  0.8525 -0.3262
  177SOPE   H4R20136   2.159   4.523  10.049 -0.7301  0.7667 -1.3943
  177SOPE   H4S20137   2.330   4.529  10.091 -1.5324  1.5407  0.2083
  177SOPE   C2520138   2.298   4.394   9.927  0.1638 -0.2852  0.7169
  177SOPE   H5R20139   2.389   4.333   9.945 -0.2313 -1.4512 -0.9605
  177SOPE   H5S20140   2.219   4.321   9.900  0.5170 -1.4567  2.6788
  177SOPE   C2620141   2.321   4.484   9.811 -0.5723 -0.2976  0.3084
  177SOPE   H6R20142   2.223   4.528   9.783 -0.7420 -0.0095  1.3494
  177SOPE   H6S20143   2.387   4.568   9.841  0.0904 -0.8566  0.4379
  177SOPE   C2720144   2.371   4.408   9.686  0.2329 -0.0629  0.4149
  177SOPE   H7R20145   2.471   4.362   9.702  1.6915  2.6249 -0.4553
  177SOPE   H7S20146   2.291   4.333   9.671 -0.8944  0.7502  2.0816
  177SOPE   C2820147   2.386   4.501   9.564  0.4682 -0.9918  0.0800
  177SOPE   H8R20148   2.319   4.586   9.588  0.7022 -1.4912  2.9441
  177SOPE   H8S20149   2.485   4.551   9.573  0.1055 -0.5372  2.0575
  177SOPE   C2920150   2.362   4.434   9.427 -0.4630 -0.8726 -0.8962
  177SOPE   H9120151   2.273   4.371   9.416  0.5290 -2.4327 -0.3253
  177SOPE  C21020152   2.457   4.416   9.337  0.1011  0.4593 -0.2199
  177SOPE  H10120153   2.429   4.369   9.241 -0.7038 -2.0598  1.1382
  177SOPE  C21120154   2.596   4.472   9.353 -0.2265  0.5528 -0.0744
  177SOPE  H11R20155   2.630   4.497   9.455 -0.3093 -0.7382  0.2945
  177SOPE  H11S20156   2.592   4.569   9.299 -1.4653  1.1397  1.0345
  177SOPE  C21220157   2.699   4.372   9.299 -0.8582  0.1665  0.0541
  177SOPE  H12R20158   2.679   4.267   9.328 -1.0510 -0.3121 -1.6962
  177SOPE  H12S20159   2.793   4.402   9.350  0.0956 -0.7193 -1.1219
  177SOPE  C21320160   2.719   4.395   9.149  0.0519  0.3836 -0.3883
  177SOPE  H13R20161   2.713   4.503   9.123 -2.9110  0.0478 -1.5396
  177SOPE  H13S20162   2.635   4.353   9.090 -0.0592  2.7669 -2.0704
  177SOPE  C21420163   2.852   4.338   9.098 -0.8277 -0.0337 -0.2945
  177SOPE  H14R20164   2.929   4.345   9.178  0.0002 -2.4293 -0.7858
  177SOPE  H14S20165   2.872   4.413   9.019 -0.2454  0.7467  0.5757
  177SOPE  C21520166   2.841   4.187   9.042  0.0422  0.2140  0.4548
  177SOPE  H15R20167   2.806   4.137   9.134  0.0973  1.5385  1.2212
  177SOPE  H15S20168   2.941   4.149   9.012 -0.1427  0.4184 -0.4483
  177SOPE  C21620169   2.746   4.163   8.924 -0.4102  0.2220  0.0868
  177SOPE  H16R20170   2.641   4.175   8.957 -0.5638  0.7124 -0.5442
  177SOPE  H16S20171   2.765   4.058   8.894  0.6807  0.2576  0.6167
  177SOPE  C21720172   2.780   4.245   8.800 -0.1062 -0.7805  0.8244
  177SOPE  H17R20173   2.739   4.348   8.811 -1.1740 -0.9923 -0.8571
  177SOPE  H17S20174   2.729   4.209   8.709 -1.2565 -1.4771  1.7134
  177SOPE  C21820175   2.930   4.250   8.760  0.2480  0.5767 -0.1999
  177SOPE  H18R20176   2.977   4.149   8.757  0.7053  0.7499  0.5632
  177SOPE  H18S20177   2.995   4.308   8.830  0.2435 -0.1002  0.3844
  177SOPE  H18T20178   2.945   4.294   8.660 -0.8017 -0.5075 -0.8560
  177SOPE   C3320179   1.692   4.203  10.401 -0.6424 -0.2315  0.0693
  177SOPE   H3X20180   1.643   4.257  10.485  1.3933  0.4619  0.8779
  177SOPE   H3Y20181   1.629   4.118  10.366 -1.4142 -0.1074  1.1303
  177SOPE   C3420182   1.715   4.302  10.285 -0.4354 -0.3686 -0.2747
  177SOPE   H4X20183   1.791   4.371  10.327 -1.8499 -0.3452  2.4621
  177SOPE   H4Y20184   1.622   4.357  10.261 -0.6153 -0.7851 -0.5501
  177SOPE   C3520185   1.783   4.237  10.159 -0.2572  0.7306 -0.0913
  177SOPE   H5X20186   1.714   4.160  10.119  0.5131  0.8529 -1.7257
  177SOPE   H5Y20187   1.868   4.180  10.203 -0.3911  1.1243  0.7093
  177SOPE   C3620188   1.823   4.346  10.060  0.2026  0.5894  0.2182
  177SOPE   H6X20189   1.906   4.404  10.107  0.7716 -0.7504  0.9432
  177SOPE   H6Y20190   1.729   4.404  10.051 -0.3862 -0.3307  0.3704
  177SOPE   C3720191   1.843   4.283   9.919 -0.4694 -0.2428  0.8382
  177SOPE   H7X20192   1.748   4.235   9.889 -0.1506  0.5285 -1.5941
  177SOPE   H7Y20193   1.929   4.213   9.913  0.0172  0.4777 -1.3343
  177SOPE   C3820194   1.883   4.388   9.812 -0.1094 -0.0896  0.8053
  177SOPE   H8X20195   1.980   4.436   9.835  0.0426  0.4802 -0.8954
  177SOPE   H8Y20196   1.813   4.474   9.816  0.5638  0.4188  2.9976
  177SOPE   C3920197   1.881   4.343   9.662 -0.3747 -0.3899 -0.0491
  177SOPE   H9X20198   1.853   4.437   9.609  0.3408 -0.0364  0.1852
  177SOPE   H9Y20199   1.804   4.264   9.669 -1.2813  0.5118  0.5197
  177SOPE  C31020200   2.013   4.282   9.600  1.2823  0.3323  0.2143
  177SOPE  H10X20201   2.055   4.214   9.678  0.6762  0.9753  1.1246
  177SOPE  H10Y20202   2.085   4.366   9.607  0.1388  1.4921 -1.2476
  177SOPE  C31120203   1.998   4.229   9.457 -0.0705  0.1863  0.4145
  177SOPE  H11X20204   1.938   4.136   9.460 -1.9242  1.3680  1.7840
  177SOPE  H11Y20205   2.098   4.198   9.421  0.0640  0.5947  0.4291
  177SOPE  C31220206   1.932   4.334   9.370  0.2177  0.2609 -1.1426
  177SOPE  H12X20207   1.975   4.436   9.364 -1.9450  1.2033 -1.5339
  177SOPE  H12Y20208   1.827   4.351   9.404  0.5056  0.5391 -0.3896
  177SOPE  C31320209   1.932   4.283   9.224 -0.4017 -0.7073 -0.3095
  177SOPE  H13X20210   1.900   4.178   9.206  2.7186 -1.3590 -3.2022
  177SOPE  H13Y20211   2.039   4.288   9.196 -0.7190  1.6363 -1.4002
  177SOPE  C31420212   1.842   4.364   9.126 -0.4742 -0.1720 -0.0098
  177SOPE  H14X20213   1.872   4.471   9.123  0.1584 -0.3686 -1.3689
  177SOPE  H14Y20214   1.739   4.357   9.167 -0.1927 -0.4910  0.6664
  177SOPE  C31520215   1.836   4.320   8.980  0.1229 -0.3093  0.5629
  177SOPE  H15X20216   1.746   4.355   8.925  0.8381 -0.7583 -0.9538
  177SOPE  H15Y20217   1.834   4.210   8.965 -1.0918 -0.3707  1.1154
  177SOPE  C31620218   1.963   4.372   8.897 -0.3559  0.5340 -0.5796
  177SOPE  H16X20219   2.045   4.305   8.929 -1.1342 -0.0442  0.2600
  177SOPE  H16Y20220   1.979   4.478   8.930 -0.6378  0.1132  1.0145
  177SOPE  C31720221   1.952   4.367   8.743 -0.1300  0.0353 -0.2489
  177SOPE  H17X20222   2.044   4.412   8.702  0.3061 -0.0377  0.6293
  177SOPE  H17Y20223   1.851   4.407   8.718 -1.2062 -1.9421  0.6238
  177SOPE  C31820224   1.953   4.219   8.690  0.2357 -0.1749 -0.0075
  177SOPE  H18X20225   1.888   4.219   8.600  0.7692  1.1815 -0.4214
  177SOPE  H18Y20226   1.915   4.142   8.761  2.5827 -1.6447 -0.2579
  177SOPE  H18Z20227   2.050   4.186   8.648 -0.6287 -0.7273 -1.6331
  178SOPE     N20228   4.769   3.934  11.038 -0.2200  1.1158 -0.3148
  178SOPE   HN120229   4.708   3.892  10.964  1.6742  0.5317 -1.6214
  178SOPE   HN220230   4.724   3.945  11.131 -0.0166  0.3152 -0.1127
  178SOPE   HN320231   4.790   4.023  10.988  1.3172 -0.5633 -2.9142
  178SOPE   C1220232   4.893   3.849  11.045  0.2255  0.0831 -0.1514
  178SOPE  H12A20233   4.863   3.747  11.075 -0.6219  0.7028  1.1944
  178SOPE  H12B20234   4.954   3.889  11.129 -1.5894 -0.7206  1.6576
  178SOPE   C1120235   4.955   3.850  10.913 -0.4918  0.6535 -0.3474
  178SOPE  H11A20236   4.874   3.829  10.840 -0.9736 -2.5501  0.9500
  178SOPE  H11B20237   5.023   3.762  10.911 -0.4518  0.6638  0.1954
  178SOPE     P20238   5.173   3.993  10.912 -0.0638 -0.2502 -0.1985
  178SOPE   O1320239   5.223   3.904  11.022 -0.4376  0.5764 -0.2522
  178SOPE   O1420240   5.207   4.135  10.926 -0.5690  0.2604  0.5738
  178SOPE   O1220241   5.015   3.981  10.885 -0.0615  0.4923 -0.3926
  178SOPE   O1120242   5.233   3.948  10.777  0.8479  0.1656  0.1878
  178SOPE    C120243   5.260   4.046  10.674 -0.2574 -0.3693 -0.3956
  178SOPE    HA20244   5.358   4.090  10.703 -0.3342  0.6112 -1.5624
  178SOPE    HB20245   5.189   4.131  10.669 -1.5008 -1.4243 -1.7126
  178SOPE    C220246   5.264   3.981  10.537 -0.2332  0.2588  0.1912
  178SOPE    HS20247   5.164   3.941  10.509 -0.2696 -0.4544  1.2391
  178SOPE   O2120248   5.364   3.878  10.542  0.0214 -0.0878 -0.6589
  178SOPE   C2120249   5.356   3.771  10.460  0.0449  0.1378 -0.3834
  178SOPE   O2220250   5.260   3.748  10.389  0.1938 -0.3955  0.2202
  178SOPE   C2220251   5.493   3.698  10.460 -0.2272 -0.8526 -0.5772
  178SOPE   H2R20252   5.484   3.590  10.484  2.3743 -0.5312  2.4932
  178SOPE   H2S20253   5.554   3.733  10.546 -0.3872 -2.6760  0.3229
  178SOPE    C320254   5.315   4.088  10.433  0.3896 -0.4025  0.3238
  178SOPE    HX20255   5.420   4.110  10.461  0.8050 -1.9873  0.0991
  178SOPE    HY20256   5.247   4.174  10.453 -1.2552 -1.3676 -0.8215
  178SOPE   O3120257   5.304   4.042  10.299  0.7711  0.1796 -0.1467
  178SOPE   C3120258   5.385   4.085  10.205 -0.5838 -0.2897  0.1253
  178SOPE   O3220259   5.478   4.162  10.224  0.7472 -0.1945 -0.3980
  178SOPE   C3220260   5.354   4.018  10.074  0.1536 -0.7634 -0.4305
  178SOPE   H2X20261   5.248   4.040  10.049  0.2506 -0.9961 -1.0904
  178SOPE   H2Y20262   5.352   3.907  10.071  0.9169 -0.7867 -0.2591
  178SOPE   C2320263   5.575   3.728  10.333  0.3876 -0.0783  0.0469
  178SOPE   H3R20264   5.680   3.737  10.370 -0.3651 -0.3348  2.4672
  178SOPE   H3S20265   5.549   3.829  10.297 -0.7888 -0.2471  0.3801
  178SOPE   C2420266   5.561   3.623  10.221 -0.1883  0.0741 -0.0926
  178SOPE   H4R20267   5.585   3.523  10.261  0.3598  0.5142  0.6948
  178SOPE   H4S20268   5.454   3.627  10.192 -0.6861  1.1496  1.7856
  178SOPE   C2520269   5.641   3.645  10.097 -0.6653  0.3113  0.0861
  178SOPE   H5R20270   5.641   3.747  10.052  2.9742  0.1482 -0.6155
  178SOPE   H5S20271   5.744   3.613  10.123 -0.6630  0.2854  0.0456
  178SOPE   C2620272   5.590   3.543   9.988 -0.3245 -1.1623  0.4025
  178SOPE   H6R20273   5.564   3.447  10.037  0.3512 -0.8660  1.3728
  178SOPE   H6S20274   5.497   3.581   9.940 -0.7276 -0.9789  1.3015
  178SOPE   C2720275   5.695   3.535   9.877 -0.7429 -0.1794 -0.1906
  178SOPE   H7R20276   5.792   3.552   9.929 -0.3293 -3.3435  0.2482
  178SOPE   H7S20277   5.700   3.439   9.821 -2.4762 -0.5089  0.1682
  178SOPE   C2820278   5.683   3.645   9.767 -0.0468 -1.7105  0.2927
  178SOPE   H8R20279   5.720   3.737   9.817 -0.2550  0.2471 -2.8741
  178SOPE   H8S20280   5.765   3.626   9.695  0.6541 -0.7605  0.8130
  178SOPE   C2920281   5.541   3.657   9.707 -0.0333  0.1418 -0.8809
  178SOPE   H9120282   5.470   3.717   9.766  2.4563  1.9068  0.4921
  178SOPE  C21020283   5.504   3.601   9.595 -0.1090  0.6119  0.4818
  178SOPE  H10120284   5.398   3.594   9.567 -0.3581  0.5216  1.4319
  178SOPE  C21120285   5.591   3.515   9.505  0.1049 -0.0159 -0.6128
  178SOPE  H11R20286   5.522   3.441   9.458 -0.9265  0.2836  0.3852
  178SOPE  H11S20287   5.656   3.452   9.569  0.9421 -0.1689 -1.5986
  178SOPE  C21220288   5.676   3.593   9.403  0.2185  0.1794  0.1347
  178SOPE  H12R20289   5.762   3.530   9.368  0.5200  0.2768  0.6944
  178SOPE  H12S20290   5.727   3.677   9.454  0.0473 -2.0239  4.3361
  178SOPE  C21320291   5.597   3.637   9.274 -0.0169  0.2617  0.3828
  178SOPE  H13R20292   5.676   3.682   9.211  0.6998 -0.8140  0.4799
  178SOPE  H13S20293   5.540   3.716   9.326  0.5459 -0.7776  2.6933
  178SOPE  C21420294   5.523   3.529   9.198  0.3085  0.0635  0.3450
  178SOPE  H14R20295   5.459   3.462   9.260 -0.0119  1.2311  1.3268
  178SOPE  H14S20296   5.597   3.463   9.150 -1.1052 -1.2918 -0.0476
  178SOPE  C21520297   5.432   3.578   9.083  0.4884  0.1394 -0.0363
  178SOPE  H15R20298   5.488   3.631   9.003  0.6328 -2.1992 -1.5952
  178SOPE  H15S20299   5.366   3.660   9.120 -2.0699 -2.1515  0.7859
  178SOPE  C21620300   5.350   3.471   9.025 -0.2962  0.6621 -0.0875
  178SOPE  H16R20301   5.277   3.427   9.097  0.2439  0.2745  0.2289
  178SOPE  H16S20302   5.414   3.386   8.992  1.1539  1.7437 -0.1372
  178SOPE  C21720303   5.255   3.521   8.911 -0.3670  0.5451 -0.4640
  178SOPE  H17R20304   5.249   3.437   8.839 -0.2909  1.0989 -1.1232
  178SOPE  H17S20305   5.291   3.609   8.854 -1.7555  1.0819 -0.5531
  178SOPE  C21820306   5.111   3.564   8.948  0.2909  0.3868 -0.1824
  178SOPE  H18R20307   5.131   3.646   9.020 -0.5509 -0.4738  1.0749
  178SOPE  H18S20308   5.056   3.480   8.996 -0.1842 -0.2410 -1.7866
  178SOPE  H18T20309   5.056   3.589   8.855 -1.0354 -0.7561  0.2459
  178SOPE   C3320310   5.429   4.072   9.950 -0.2643  0.2121 -0.0300
  178SOPE   H3X20311   5.524   4.013   9.951  0.4574  1.3378  1.4451
  178SOPE   H3Y20312   5.431   4.183   9.957 -2.5149  0.3087 -0.1372
  178SOPE   C3420313   5.364   4.038   9.820  0.4866 -0.0776 -0.3290
  178SOPE   H4X20314   5.279   4.109   9.804  0.3873 -0.7328 -3.4400
  178SOPE   H4Y20315   5.313   3.941   9.838 -0.7935  0.8677  1.4873
  178SOPE   C3520316   5.463   4.038   9.705  0.0811  0.7443  0.3588
  178SOPE   H5X20317   5.535   3.959   9.735 -1.1027 -0.3996  0.2588
  178SOPE   H5Y20318   5.523   4.131   9.718 -2.5155  2.7340 -0.7925
  178SOPE   C3620319   5.403   4.015   9.561  0.7715 -0.4696 -0.4338
  178SOPE   H6X20320   5.305   4.063   9.540  0.5237 -0.3022  0.9796
  178SOPE   H6Y20321   5.382   3.909   9.540 -1.3365 -0.1376 -0.2382
  178SOPE   C3720322   5.490   4.088   9.453  0.4289  0.2320 -0.5329
  178SOPE   H7X20323   5.585   4.032   9.440  1.2766  1.8739 -1.8603
  178SOPE   H7Y20324   5.506   4.190   9.492  0.0416 -0.3757  1.2919
  178SOPE   C3820325   5.420   4.104   9.317 -0.0900 -0.3134 -0.3140
  178SOPE   H8X20326   5.461   4.197   9.272 -0.9804 -1.0263 -2.7472
  178SOPE   H8Y20327   5.310   4.107   9.326 -0.0911 -2.8685  1.5175
  178SOPE   C3920328   5.448   3.979   9.231  0.5781 -0.0100 -0.2429
  178SOPE   H9X20329   5.413   3.893   9.291 -2.1524 -0.6497 -2.5015
  178SOPE   H9Y20330   5.557   3.959   9.218  0.0708 -1.5622 -2.8219
  178SOPE  C31020331   5.373   3.990   9.090  0.8707 -0.2320  0.3854
  178SOPE  H10X20332   5.416   3.910   9.025 -0.2842  0.0644 -0.7625
  178SOPE  H10Y20333   5.409   4.085   9.046 -0.4016 -0.9648 -2.4774
  178SOPE  C31120334   5.222   3.989   9.098  0.3754  0.0365 -0.0315
  178SOPE  H11X20335   5.174   4.073   9.154 -0.1289 -0.5617  0.4560
  178SOPE  H11Y20336   5.189   3.898   9.153  1.3323  0.3514  1.1161
  178SOPE  C31220337   5.152   3.965   8.963 -0.2792  0.2109  0.4837
  178SOPE  H12X20338   5.130   3.858   8.944  0.9191  0.3265 -2.1161
  178SOPE  H12Y20339   5.229   3.996   8.888  0.8581 -0.0924  1.5016
  178SOPE  C31320340   5.028   4.055   8.938  0.1684  0.8357  0.7524
  178SOPE  H13X20341   5.064   4.161   8.938  2.8457  0.0350 -1.0469
  178SOPE  H13Y20342   4.963   4.031   9.025  0.9140 -0.0487  1.0852
  178SOPE  C31420343   4.939   4.029   8.812  0.0827 -0.5237  0.1083
  178SOPE  H14X20344   4.830   4.039   8.827 -0.0281 -0.5226 -0.6852
  178SOPE  H14Y20345   4.960   3.926   8.777  0.4449 -0.9796  1.5823
  178SOPE  C31520346   4.996   4.124   8.702  0.4717  0.7167  0.3105
  178SOPE  H15X20347   5.106   4.134   8.712  1.2703 -1.7943 -3.8748
  178SOPE  H15Y20348   4.955   4.225   8.726 -1.6869 -0.1409  0.4321
  178SOPE  C31620349   4.959   4.078   8.560  0.0524  0.2252 -0.5140
  178SOPE  H16X20350   4.852   4.050   8.551 -0.7782  2.9765 -0.0741
  178SOPE  H16Y20351   5.021   3.986   8.548  2.6545  1.6679  0.8423
  178SOPE  C31720352   4.997   4.186   8.458  0.0736  0.1888  0.1401
  178SOPE  H17X20353   5.100   4.221   8.481  0.0751 -0.2880  0.8744
  178SOPE  H17Y20354   4.928   4.273   8.463 -2.2939 -1.5175 -0.9284
  178SOPE  C31820355   4.996   4.140   8.313 -0.0313 -0.2151  0.0287
  178SOPE  H18X20356   5.072   4.064   8.287 -0.7469 -0.3711 -1.8003
  178SOPE  H18Y20357   5.009   4.226   8.244  0.5776  0.1102  0.5357
  178SOPE  H18Z20358   4.906   4.085   8.279  1.2612 -1.7225 -1.1395
  179SOPE     N20359   6.640   6.263   6.819 -0.0401 -0.2731 -0.1481
  179SOPE   HN120360   6.541   6.279   6.844  0.4165  0.2623  1.3857
  179SOPE   HN220361   6.681   6.358   6.809  0.2942 -0.4721 -0.7391
  179SOPE   HN320362   6.640   6.218   6.725  0.6427 -0.0294 -0.2688
  179SOPE   C1220363   6.696   6.186   6.932 -0.3431 -0.0369  0.2032
  179SOPE  H12A20364   6.665   6.079   6.932  0.2547 -0.2506  2.7061
  179SOPE  H12B20365   6.647   6.217   7.026 -2.8273 -1.4599 -0.5271
  179SOPE   C1120366   6.851   6.194   6.931  0.2254  0.0974  0.2951
  179SOPE  H11A20367   6.907   6.136   7.007  2.3482  1.2036 -0.3296
  179SOPE  H11B20368   6.869   6.301   6.957  1.6767  0.4063 -1.7067
  179SOPE     P20369   7.022   6.245   6.742 -0.2671  0.1466  0.3911
  179SOPE   O1320370   6.984   6.384   6.736 -0.4766 -0.2896 -0.3097
  179SOPE   O1420371   7.061   6.189   6.609 -0.1094 -0.3194 -0.1946
  179SOPE   O1220372   6.894   6.169   6.799  0.3838  0.0794  0.1080
  179SOPE   O1120373   7.128   6.223   6.858  0.1911  0.0343  0.4695
  179SOPE    C120374   7.210   6.105   6.858  0.3323 -0.2025  0.1136
  179SOPE    HA20375   7.305   6.113   6.801 -0.2324 -2.5871 -1.2978
  179SOPE    HB20376   7.153   6.022   6.810 -0.3126  1.0428 -1.3425
  179SOPE    C220377   7.244   6.048   7.000 -0.7579 -0.4088  0.5115
  179SOPE    HS20378   7.156   6.068   7.064  0.6997  0.2417  2.3743
  179SOPE   O2120379   7.374   6.100   7.037 -0.9522  0.8535  0.2651
  179SOPE   C2120380   7.392   6.110   7.162 -0.6866 -0.1107  0.4644
  179SOPE   O2220381   7.302   6.090   7.243 -0.3381 -0.1829  0.3133
  179SOPE   C2220382   7.538   6.136   7.202  0.7855 -0.9792  0.0762
  179SOPE   H2R20383   7.570   6.203   7.119 -0.4532 -3.1949 -2.3685
  179SOPE   H2S20384   7.596   6.041   7.193  3.4928  0.3965  1.8038
  179SOPE    C320385   7.252   5.893   6.985 -0.7818  0.5224  0.6419
  179SOPE    HX20386   7.338   5.880   6.915 -0.0217  0.0754  1.6318
  179SOPE    HY20387   7.164   5.851   6.933  0.0811  2.1944 -2.4067
  179SOPE   O3120388   7.287   5.829   7.104 -0.1308  0.5983 -0.2048
  179SOPE   C3120389   7.197   5.813   7.200 -0.0195  0.9743 -0.1693
  179SOPE   O3220390   7.076   5.825   7.190  0.2393 -0.2218 -0.5210
  179SOPE   C3220391   7.270   5.756   7.323  0.6744 -0.0568  0.1421
  179SOPE   H2X20392   7.377   5.770   7.299  0.3556  2.3127 -0.1443
  179SOPE   H2Y20393   7.246   5.648   7.320 -0.0021  0.0422  1.2182
  179SOPE   C2320394   7.560   6.196   7.345 -0.0270  0.3344  0.2706
  179SOPE   H3R20395   7.497   6.285   7.366  1.3738  1.0479  1.7359
  179SOPE   H3S20396   7.664   6.235   7.342  0.9403 -1.9123  1.8317
  179SOPE   C2420397   7.541   6.096   7.451 -0.2853  0.9346 -0.2130
  179SOPE   H4R20398   7.440   6.051   7.456  0.8819 -1.9122 -0.5552
  179SOPE   H4S20399   7.600   6.009   7.416 -0.3602  0.6176  0.4354
  179SOPE   C2520400   7.584   6.159   7.582 -0.0781  0.3530 -0.5034
  179SOPE   H5R20401   7.687   6.197   7.563  0.5298 -0.5924  0.7526
  179SOPE   H5S20402   7.524   6.250   7.603  1.6113  1.3787  0.1063
  179SOPE   C2620403   7.567   6.063   7.701  0.2573 -0.1165 -0.4878
  179SOPE   H6R20404   7.461   6.032   7.697  0.5951 -1.3251 -0.3974
  179SOPE   H6S20405   7.629   5.972   7.685 -1.0897 -1.0631 -0.4837
  179SOPE   C2720406   7.593   6.130   7.844  0.1078  0.0844  0.2847
  179SOPE   H7R20407   7.691   6.182   7.847 -0.4573  1.1509  1.3104
  179SOPE   H7S20408   7.516   6.211   7.842  0.6142  0.5624 -0.2248
  179SOPE   C2820409   7.606   6.035   7.960 -0.0662  0.1831 -0.4033
  179SOPE   H8R20410   7.673   5.951   7.931  1.4592  1.7512 -1.6234
  179SOPE   H8S20411   7.652   6.091   8.044 -1.3623 -0.4855  0.7861
  179SOPE   C2920412   7.467   5.988   7.997  0.0207 -0.3448  0.4090
  179SOPE   H9120413   7.436   5.911   7.925  1.2044 -0.8171  0.3735
  179SOPE  C21020414   7.383   6.033   8.096  0.1240 -0.0401  0.4779
  179SOPE  H10120415   7.291   5.975   8.113  2.1813 -3.8755 -0.4367
  179SOPE  C21120416   7.413   6.139   8.198 -0.1390 -0.7260 -0.1995
  179SOPE  H11R20417   7.513   6.117   8.240 -0.8229 -0.1611  1.8574
  179SOPE  H11S20418   7.348   6.136   8.289 -0.5143 -0.2266 -0.4445
  179SOPE  C21220419   7.420   6.282   8.165 -0.2812 -1.3293 -0.2264
  179SOPE  H12R20420   7.501   6.297   8.090 -0.1404  0.9112  0.2949
  179SOPE  H12S20421   7.462   6.342   8.248 -0.3301  1.0632 -1.8168
  179SOPE  C21320422   7.294   6.342   8.094 -0.2528 -0.2360 -0.7322
  179SOPE  H13R20423   7.200   6.299   8.134  1.7064 -2.7954  1.5308
  179SOPE  H13S20424   7.291   6.313   7.987  0.3262 -0.5316 -0.6745
  179SOPE  C21420425   7.291   6.497   8.110 -0.1309 -0.2668  0.8285
  179SOPE  H14R20426   7.207   6.528   8.043  0.3820  0.5579  0.5558
  179SOPE  H14S20427   7.383   6.538   8.064 -1.4924  0.0414 -1.8409
  179SOPE  C21520428   7.250   6.542   8.247  0.1978  0.1160 -1.7395
  179SOPE  H15R20429   7.324   6.522   8.328  1.8421  3.5639 -2.1863
  179SOPE  H15S20430   7.153   6.495   8.272  1.4838 -1.1502  1.3204
  179SOPE  C21620431   7.234   6.694   8.233  0.1827  0.5467 -0.3840
  179SOPE  H16R20432   7.178   6.726   8.143  1.3342 -0.2355 -1.4059
  179SOPE  H16S20433   7.337   6.730   8.215 -0.1389  0.9454 -1.4653
  179SOPE  C21720434   7.164   6.754   8.358 -0.2381  0.5284 -0.1312
  179SOPE  H17R20435   7.059   6.721   8.347 -0.4775  1.6427 -1.5307
  179SOPE  H17S20436   7.148   6.862   8.339  2.0467  0.7674 -0.9951
  179SOPE  C21820437   7.215   6.718   8.500 -0.5601 -0.1181  0.4087
  179SOPE  H18R20438   7.214   6.608   8.516 -4.2354 -0.1623  0.7342
  179SOPE  H18S20439   7.159   6.768   8.582  0.3453 -0.0520  0.9995
  179SOPE  H18T20440   7.320   6.756   8.503 -0.6896  0.1735  2.0894
  179SOPE   C3320441   7.236   5.826   7.460  0.0725  0.3945  0.1318
  179SOPE   H3X20442   7.135   5.791   7.492 -0.6517 -0.1729 -2.5499
  179SOPE   H3Y20443   7.233   5.936   7.445 -0.7326  0.2149 -1.1589
  179SOPE   C3420444   7.333   5.784   7.576 -0.0132 -0.7502  0.0216
  179SOPE   H4X20445   7.306   5.855   7.658  0.8186 -1.5580  1.0291
  179SOPE   H4Y20446   7.439   5.811   7.557  0.0071  0.0768  1.2041
  179SOPE   C3520447   7.315   5.634   7.626  0.0114 -0.4904  0.1606
  179SOPE   H5X20448   7.367   5.574   7.548  0.5823  1.9329 -1.4032
  179SOPE   H5Y20449   7.210   5.597   7.631 -0.6672  1.4781  2.2988
  179SOPE   C3620450   7.378   5.610   7.760 -0.2632  0.1456 -0.7048
  179SOPE   H6X20451   7.474   5.666   7.753 -0.0100 -0.3902 -1.7600
  179SOPE   H6Y20452   7.409   5.503   7.765 -0.5439  0.0775 -0.3936
  179SOPE   C3720453   7.293   5.645   7.881  0.0502 -0.4266  0.6049
  179SOPE   H7X20454   7.212   5.569   7.888 -1.4866  1.2484  2.1307
  179SOPE   H7Y20455   7.250   5.747   7.866  0.8510  0.2947  2.8738
  179SOPE   C3820456   7.380   5.636   8.011  0.3602  0.3818 -0.3088
  179SOPE   H8X20457   7.474   5.695   7.998  1.3315 -1.3419 -1.4552
  179SOPE   H8Y20458   7.401   5.531   8.038  1.0260  0.3281 -0.9966
  179SOPE   C3920459   7.298   5.687   8.128  0.0245 -0.4599 -0.2408
  179SOPE   H9X20460   7.220   5.609   8.136 -0.7020  0.1651 -1.0768
  179SOPE   H9Y20461   7.257   5.787   8.103 -0.2834 -1.1498 -2.8105
  179SOPE  C31020462   7.381   5.685   8.263  0.0775 -0.3455  0.1807
  179SOPE  H10X20463   7.475   5.738   8.239  0.7416 -1.8812 -0.7806
  179SOPE  H10Y20464   7.417   5.584   8.295 -0.7821 -0.0147  2.3767
  179SOPE  C31120465   7.305   5.757   8.371  0.2511 -0.3221  0.0094
  179SOPE  H11X20466   7.293   5.864   8.343  2.6423 -0.3230 -1.2178
  179SOPE  H11Y20467   7.369   5.753   8.462  0.7375 -1.5168 -0.3614
  179SOPE  C31220468   7.164   5.693   8.403  0.2375  0.5260 -0.7942
  179SOPE  H12X20469   7.183   5.595   8.452 -1.7947  0.0687 -0.8323
  179SOPE  H12Y20470   7.105   5.679   8.310 -1.0351 -1.3289  0.2153
  179SOPE  C31320471   7.073   5.782   8.489 -0.0646  0.2417  0.1723
  179SOPE  H13X20472   7.054   5.867   8.420  3.4117 -0.3728 -1.8356
  179SOPE  H13Y20473   7.129   5.808   8.581 -1.0898 -1.2126  1.2597
  179SOPE  C31420474   6.940   5.715   8.510 -0.6134  1.3801 -0.2930
  179SOPE  H14X20475   6.946   5.625   8.575  1.3928  1.8551  0.2618
  179SOPE  H14Y20476   6.893   5.690   8.413 -0.4848  1.7088 -0.4439
  179SOPE  C31520477   6.851   5.804   8.593  0.1851 -0.0180 -0.0349
  179SOPE  H15X20478   6.850   5.897   8.531 -1.1924 -0.7029 -1.0937
  179SOPE  H15Y20479   6.889   5.828   8.695 -0.6718 -0.1573  0.3276
  179SOPE  C31620480   6.704   5.755   8.604  0.1930  0.4741  0.6968
  179SOPE  H16X20481   6.700   5.650   8.642 -3.1161 -0.1111 -0.9312
  179SOPE  H16Y20482   6.661   5.744   8.502  0.9636  0.7215  0.3361
  179SOPE  C31720483   6.620   5.836   8.700  0.4778 -0.2976 -0.2896
  179SOPE  H17X20484   6.650   5.820   8.806 -0.4005  0.5432  0.1014
  179SOPE  H17Y20485   6.515   5.802   8.710  0.4780  0.2121  2.0775
  179SOPE  C31820486   6.622   5.987   8.665 -0.3359 -0.5312 -0.2326
  179SOPE  H18X20487   6.564   6.056   8.730  1.7816  1.1746 -0.0349
  179SOPE  H18Y20488   6.591   6.007   8.559 -0.3138  1.0559  0.0325
  179SOPE  H18Z20489   6.726   6.019   8.684 -0.3409  0.2745 -1.3859
  180SOPE     N20490   1.925   4.574   6.227  0.0624 -0.5075  0.0346
  180SOPE   HN120491   1.838   4.583   6.172 -0.3092  2.2717  0.9044
  180SOPE   HN220492   1.976   4.658   6.191  0.0113  0.1345  1.4078
  180SOPE   HN320493   1.977   4.490   6.194  0.8178  0.1330 -0.4665
  180SOPE   C1220494   1.880   4.579   6.368 -0.0254 -0.1211  0.3879
  180SOPE  H12A20495   1.855   4.684   6.397 -2.5085  0.0016 -1.8223
  180SOPE  H12B20496   1.973   4.551   6.422  0.9246  0.9633 -0.5985
  180SOPE   C1120497   1.764   4.476   6.393  1.0725 -0.4356 -1.5051
  180SOPE  H11A20498   1.672   4.510   6.340  0.1427  0.8095  0.7528
  180SOPE  H11B20499   1.741   4.478   6.502 -0.0467 -2.0372 -1.6821
  180SOPE     P20500   1.755   4.212   6.407 -0.0900  0.2470  0.1041
  180SOPE   O1320501   1.824   4.193   6.535 -0.5767  0.4412 -0.3075
  180SOPE   O1420502   1.772   4.096   6.313  0.1160 -0.4022  0.1467
  180SOPE   O1220503   1.806   4.347   6.343 -0.3567 -0.5297  0.2568
  180SOPE   O1120504   1.601   4.241   6.429 -0.4134  0.1787  0.0559
  180SOPE    C120505   1.547   4.202   6.557  0.4334  0.1689  0.1205
  180SOPE    HA20506   1.514   4.303   6.591  3.4161  1.8147 -1.4542
  180SOPE    HB20507   1.614   4.165   6.638 -0.3453 -2.7976 -0.4867
  180SOPE    C220508   1.422   4.116   6.533 -0.1356  0.3757 -0.0105
  180SOPE    HS20509   1.434   4.040   6.453 -2.3069 -0.7845  0.6895
  180SOPE   O2120510   1.322   4.206   6.494 -0.1347 -0.3325  0.2887
  180SOPE   C2120511   1.217   4.157   6.434 -0.4209  0.1316 -0.0262
  180SOPE   O2220512   1.202   4.041   6.395  0.0742 -0.1019 -0.0163
  180SOPE   C2220513   1.115   4.253   6.418 -0.2128  0.0111  0.2538
  180SOPE   H2R20514   1.093   4.270   6.311 -2.5264 -0.5325  0.5947
  180SOPE   H2S20515   1.133   4.349   6.472  4.7513 -0.0885 -0.7498
  180SOPE    C320516   1.381   4.035   6.659  0.3784  0.2727 -0.0351
  180SOPE    HX20517   1.306   3.961   6.625 -0.7303  0.1384  2.5209
  180SOPE    HY20518   1.336   4.098   6.739  0.5655  0.7658 -0.3075
  180SOPE   O3120519   1.495   3.971   6.722  0.2726  0.7245 -0.0116
  180SOPE   C3120520   1.500   3.837   6.717  0.1071 -0.0818  0.2385
  180SOPE   O3220521   1.408   3.767   6.682  0.2043  0.4013 -0.2005
  180SOPE   C3220522   1.626   3.773   6.773 -0.4627  0.1226 -0.3592
  180SOPE   H2X20523   1.709   3.780   6.700 -0.8565 -1.0470 -0.9419
  180SOPE   H2Y20524   1.605   3.665   6.786 -0.2790  0.0815 -0.4108
  180SOPE   C2320525   0.975   4.207   6.465  0.3346  0.0120  0.2500
  180SOPE   H3R20526   0.944   4.117   6.408  0.0115 -0.5289  1.2540
  180SOPE   H3S20527   0.900   4.282   6.433 -1.4740 -1.9043 -0.1912
  180SOPE   C2420528   0.968   4.186   6.611 -0.1091  0.2636  0.0706
  180SOPE   H4R20529   0.869   4.142   6.632 -0.5521 -0.0947 -2.5084
  180SOPE   H4S20530   1.045   4.112   6.642  0.5542  0.6667 -0.5767
  180SOPE   C2520531   0.987   4.301   6.713  0.1003  0.1563  0.0609
  180SOPE   H5R20532   1.075   4.366   6.693  0.2177 -0.3101 -1.0039
  180SOPE   H5S20533   0.901   4.367   6.688 -0.2499 -0.2784  0.1139
  180SOPE   C2620534   0.991   4.263   6.862  1.1095 -0.3684  0.3225
  180SOPE   H6R20535   0.891   4.220   6.886  0.1757  1.4464 -0.1436
  180SOPE   H6S20536   1.071   4.188   6.880 -0.0650 -1.8106 -0.2183
  180SOPE   C2720537   1.007   4.389   6.947  0.0225 -0.0162 -0.4520
  180SOPE   H7R20538   1.109   4.418   6.915  0.2203 -0.4561 -0.2254
  180SOPE   H7S20539   0.954   4.480   6.912  1.7139  1.7687  1.3825
  180SOPE   C2820540   0.989   4.355   7.098 -0.0693 -0.4451 -0.5370
  180SOPE   H8R20541   0.887   4.323   7.127 -0.7959  0.5155 -1.9400
  180SOPE   H8S20542   1.051   4.268   7.130 -1.6658 -0.5703  2.6264
  180SOPE   C2920543   1.028   4.476   7.180  0.1118  0.8196 -0.6705
  180SOPE   H9120544   1.115   4.530   7.141  2.9893 -1.1332  2.5133
  180SOPE  C21020545   0.996   4.488   7.307  0.7129 -0.1604 -0.0204
  180SOPE  H10120546   1.035   4.578   7.357 -2.4438  1.3594 -0.0645
  180SOPE  C21120547   0.910   4.394   7.390  0.4591 -0.2980  0.6121
  180SOPE  H11R20548   0.896   4.299   7.335 -1.9599 -0.8994  2.0934
  180SOPE  H11S20549   0.816   4.452   7.406  0.7869  0.9568 -1.6461
  180SOPE  C21220550   0.988   4.358   7.513 -0.0006 -0.0861 -0.0675
  180SOPE  H12R20551   1.026   4.451   7.561  0.9351  0.3430 -1.5629
  180SOPE  H12S20552   1.070   4.288   7.486 -0.4988 -0.8815  0.4456
  180SOPE  C21320553   0.893   4.273   7.604 -0.1337 -0.3402 -0.0940
  180SOPE  H13R20554   0.873   4.171   7.566  2.0579 -0.2262 -1.7575
  180SOPE  H13S20555   0.802   4.336   7.601  0.9725  1.3401 -2.1550
  180SOPE  C21420556   0.955   4.254   7.742 -0.1139  0.1764  0.4518
  180SOPE  H14R20557   0.950   4.350   7.798 -2.0689  0.8609 -0.8090
  180SOPE  H14S20558   1.062   4.226   7.745 -0.9322 -3.3930  2.2391
  180SOPE  C21520559   0.886   4.145   7.827 -0.3125 -0.5650 -0.5159
  180SOPE  H15R20560   0.899   4.048   7.773  1.1683 -1.0936  0.7123
  180SOPE  H15S20561   0.781   4.176   7.840  0.4776  1.2738  2.2664
  180SOPE  C21620562   0.945   4.115   7.970 -0.4358 -0.2547  0.4439
  180SOPE  H16R20563   0.934   4.210   8.027 -2.9227  0.1271 -0.5481
  180SOPE  H16S20564   1.054   4.093   7.960 -0.3134  0.7993 -0.9791
  180SOPE  C21720565   0.867   4.002   8.035 -0.2114  0.1996  0.0071
  180SOPE  H17R20566   0.878   3.910   7.974 -2.6601 -0.6472  0.6858
  180SOPE  H17S20567   0.758   4.017   8.051 -0.4457 -1.7706  0.5722
  180SOPE  C21820568   0.920   3.967   8.169  0.5930  0.4230 -0.6940
  180SOPE  H18R20569   1.021   3.925   8.150  0.6363  0.2758 -0.1609
  180SOPE  H18S20570   0.861   3.892   8.226  2.0124 -0.2922 -0.1062
  180SOPE  H18T20571   0.921   4.055   8.236 -1.9034 -1.0748  1.5408
  180SOPE   C3320572   1.668   3.834   6.905  0.3138  0.2154  0.2045
  180SOPE   H3X20573   1.679   3.944   6.897  1.9533  0.0277 -0.4922
  180SOPE   H3Y20574   1.765   3.783   6.923  1.9043  2.6940 -0.7603
  180SOPE   C3420575   1.570   3.800   7.023  0.3117  0.2919  0.1388
  180SOPE   H4X20576   1.521   3.703   7.001 -0.7177  0.2178  2.5532
  180SOPE   H4Y20577   1.489   3.875   7.012 -1.1563 -1.4730 -1.8389
  180SOPE   C3520578   1.650   3.785   7.148 -0.7972  0.1283  0.5115
  180SOPE   H5X20579   1.706   3.876   7.179 -1.3967  0.8424 -0.4388
  180SOPE   H5Y20580   1.737   3.719   7.127 -1.6696 -0.7060 -0.5975
  180SOPE   C3620581   1.580   3.733   7.271 -0.1581  0.4304  0.2794
  180SOPE   H6X20582   1.560   3.625   7.257 -2.1032  0.8605 -0.6120
  180SOPE   H6Y20583   1.482   3.782   7.289 -0.2511  0.0009  0.9990
  180SOPE   C3720584   1.659   3.755   7.403  0.0992  0.0812  0.5175
  180SOPE   H7X20585   1.697   3.859   7.414  1.7536 -0.1763 -2.0718
  180SOPE   H7Y20586   1.738   3.677   7.394 -0.3161 -0.2188 -0.6683
  180SOPE   C3820587   1.572   3.714   7.525  0.3974  0.1152  0.7375
  180SOPE   H8X20588   1.483   3.778   7.545 -0.1333 -0.6816  0.9514
  180SOPE   H8Y20589   1.646   3.736   7.604  1.0835 -0.4737  0.2674
  180SOPE   C3920590   1.535   3.568   7.522  0.4958  0.0535  0.0488
  180SOPE   H9X20591   1.603   3.498   7.469 -0.1312 -0.0766 -0.6045
  180SOPE   H9Y20592   1.443   3.567   7.459  1.9724  2.1185 -2.3615
  180SOPE  C31020593   1.507   3.512   7.658 -0.1108  0.2610 -0.0300
  180SOPE  H10X20594   1.420   3.562   7.706 -0.4000  0.3131 -0.6061
  180SOPE  H10Y20595   1.598   3.541   7.716  0.8370 -2.9028  0.2316
  180SOPE  C31120596   1.479   3.360   7.665  0.1510  0.5161  0.4855
  180SOPE  H11X20597   1.569   3.302   7.634 -2.0763 -2.8621 -0.2905
  180SOPE  H11Y20598   1.397   3.342   7.593 -0.3420  2.1688  0.5955
  180SOPE  C31220599   1.433   3.319   7.807 -0.1414 -0.2942  0.5345
  180SOPE  H12X20600   1.330   3.359   7.817  0.2332  0.5057  1.3769
  180SOPE  H12Y20601   1.497   3.365   7.885  0.1261 -1.4200  0.9977
  180SOPE  C31320602   1.432   3.170   7.834 -0.2742  0.4699 -0.0875
  180SOPE  H13X20603   1.534   3.131   7.815  0.0242  0.3062  1.7307
  180SOPE  H13Y20604   1.367   3.112   7.765  0.1710  0.0176 -0.1322
  180SOPE  C31420605   1.379   3.142   7.971  0.2663  0.3018  0.2405
  180SOPE  H14X20606   1.281   3.187   7.997 -0.1381 -0.5654  0.2474
  180SOPE  H14Y20607   1.450   3.185   8.046  0.5196 -1.9644  1.3800
  180SOPE  C31520608   1.368   2.986   7.998 -0.7090 -0.3194  0.0994
  180SOPE  H15X20609   1.466   2.937   7.984 -0.6315 -0.3127  0.6227
  180SOPE  H15Y20610   1.289   2.947   7.930 -2.2710  1.3360  0.8808
  180SOPE  C31620611   1.323   2.966   8.142  0.7612  0.1650 -0.6762
  180SOPE  H16X20612   1.234   3.028   8.166  0.5545 -0.5455  0.4523
  180SOPE  H16Y20613   1.402   3.022   8.195  0.1345  1.4438 -1.0470
  180SOPE  C31720614   1.302   2.818   8.200  0.1176 -0.1294  0.8678
  180SOPE  H17X20615   1.219   2.774   8.140  0.8698  0.6764 -0.8062
  180SOPE  H17Y20616   1.268   2.818   8.306 -1.2665  1.7543  0.4804
  180SOPE  C31820617   1.424   2.730   8.184  0.0785  0.0284  0.5865
  180SOPE  H18X20618   1.515   2.770   8.232  1.3096 -3.0933  1.0825
  180SOPE  H18Y20619   1.446   2.714   8.076 -1.1213 -2.3820  0.6333
  180SOPE  H18Z20620   1.417   2.636   8.242 -2.9472  0.3002  0.8046
  181SOPE     N20621   0.934   1.620   5.750  0.3123  0.4718  0.0826
  181SOPE   HN120622   0.916   1.624   5.647 -0.7747  0.8841  0.2776
  181SOPE   HN220623   0.867   1.681   5.800 -0.0730  1.7187 -1.8362
  181SOPE   HN320624   1.022   1.661   5.786  0.2331 -1.1085  2.2239
  181SOPE   C1220625   0.913   1.477   5.805  0.2580 -0.5904  0.1198
  181SOPE  H12A20626   1.006   1.417   5.788 -0.1756 -1.3195  0.2658
  181SOPE  H12B20627   0.830   1.433   5.747 -0.5607 -1.0919  1.6185
  181SOPE   C1120628   0.886   1.470   5.956  0.1921  0.1775  0.1580
  181SOPE  H11A20629   0.858   1.365   5.982  2.7841 -1.5989 -3.3751
  181SOPE  H11B20630   0.794   1.526   5.983  0.8249  1.0060  0.6563
  181SOPE     P20631   1.112   1.438   6.090 -0.1856 -0.0641  0.3333
  181SOPE   O1320632   1.220   1.525   6.141 -0.3919  0.7233  0.3339
  181SOPE   O1420633   1.157   1.339   5.992  0.3044 -0.4107  0.5424
  181SOPE   O1220634   0.993   1.525   6.031 -0.7888 -0.3397 -0.9139
  181SOPE   O1120635   1.050   1.353   6.212 -0.0251  0.3383  0.2057
  181SOPE    C120636   0.928   1.387   6.278 -0.5252 -0.0569 -0.0991
  181SOPE    HA20637   0.910   1.306   6.352 -0.4896  0.8939  0.9764
  181SOPE    HB20638   0.839   1.387   6.211  0.6111  0.4667 -1.6466
  181SOPE    C220639   0.947   1.522   6.356  0.0034 -0.5249 -0.1610
  181SOPE    HS20640   0.952   1.594   6.271  0.0687  0.6638  0.8137
  181SOPE   O2120641   1.059   1.509   6.445 -0.7246 -0.1405 -0.1185
  181SOPE   C2120642   1.127   1.621   6.463  0.3951 -0.7550  0.4077
  181SOPE   O2220643   1.123   1.727   6.397 -0.3364  1.1706 -0.4409
  181SOPE   C2220644   1.203   1.604   6.596  0.6990 -0.3342  0.0549
  181SOPE   H2R20645   1.309   1.609   6.563  0.0764  0.9435 -1.9771
  181SOPE   H2S20646   1.188   1.499   6.630  1.7080 -0.0972  1.3259
  181SOPE    C320647   0.816   1.558   6.431 -0.1207 -0.7874  1.2639
  181SOPE    HX20648   0.789   1.481   6.507  2.5246 -2.1256  0.9642
  181SOPE    HY20649   0.722   1.549   6.373 -0.6144  0.6207  1.8118
  181SOPE   O3120650   0.837   1.685   6.496  0.8370 -0.0576  0.5835
  181SOPE   C3120651   0.816   1.796   6.431 -0.1896 -0.5897  0.5216
  181SOPE   O3220652   0.776   1.803   6.315 -0.1276  0.5876  0.5967
  181SOPE   C3220653   0.833   1.917   6.524 -0.8052  0.9199  0.4416
  181SOPE   H2X20654   0.865   1.997   6.454  4.2485 -0.9677  0.2330
  181SOPE   H2Y20655   0.921   1.915   6.590 -1.4304  1.4083  1.3072
  181SOPE   C2320656   1.184   1.706   6.703 -0.1965  0.1429  0.2794
  181SOPE   H3R20657   1.118   1.789   6.670  0.5406  0.9633  0.8309
  181SOPE   H3S20658   1.285   1.740   6.735  0.1447  2.2245 -2.5456
  181SOPE   C2420659   1.116   1.651   6.836 -0.4111  0.0126  0.2369
  181SOPE   H4R20660   1.156   1.549   6.856 -0.9440 -0.0793  0.8678
  181SOPE   H4S20661   1.155   1.714   6.919 -2.0638  1.8723 -0.3364
  181SOPE   C2520662   0.962   1.667   6.847 -0.8026 -0.0603  0.6958
  181SOPE   H5R20663   0.931   1.773   6.837 -0.0242  0.2351  1.2581
  181SOPE   H5S20664   0.916   1.613   6.761  1.6849 -1.6151  0.2226
  181SOPE   C2620665   0.920   1.604   6.983  0.1136 -0.0347  0.5353
  181SOPE   H6R20666   0.918   1.493   6.976  1.0808 -0.1202  1.4646
  181SOPE   H6S20667   1.002   1.635   7.051  1.2102 -0.0472 -0.7269
  181SOPE   C2720668   0.782   1.644   7.034 -0.3506  0.4093  0.4174
  181SOPE   H7R20669   0.794   1.746   7.076  0.8021  0.6102 -0.3460
  181SOPE   H7S20670   0.728   1.640   6.937  1.1842  0.5887 -0.4719
  181SOPE   C2820671   0.726   1.559   7.139 -0.1343 -0.8108  0.6093
  181SOPE   H8R20672   0.800   1.482   7.168 -0.0446 -0.6005  0.9348
  181SOPE   H8S20673   0.699   1.611   7.233  1.2279 -1.7022  1.5250
  181SOPE   C2920674   0.615   1.477   7.095 -0.0714 -0.1221 -0.1392
  181SOPE   H9120675   0.632   1.431   6.997 -1.3237  1.5966 -1.2363
  181SOPE  C21020676   0.499   1.456   7.156  0.2391  1.0208 -0.2458
  181SOPE  H10120677   0.427   1.384   7.114  0.5264  0.5823  0.0133
  181SOPE  C21120678   0.462   1.512   7.289 -0.3800 -0.2132 -0.2830
  181SOPE  H11R20679   0.375   1.581   7.289 -1.6059 -1.7049 -0.0440
  181SOPE  H11S20680   0.547   1.572   7.330 -0.6827 -1.4454  2.3949
  181SOPE  C21220681   0.438   1.407   7.398 -0.2995 -0.0599 -0.1469
  181SOPE  H12R20682   0.530   1.344   7.404  0.4197  1.0644  3.5175
  181SOPE  H12S20683   0.340   1.356   7.388 -1.0964  1.6414 -1.4297
  181SOPE  C21320684   0.442   1.488   7.528  0.4735 -0.4811  0.1484
  181SOPE  H13R20685   0.380   1.579   7.514 -0.8835 -1.5299 -1.0091
  181SOPE  H13S20686   0.549   1.513   7.541  0.3554  0.0155  0.1942
  181SOPE  C21420687   0.399   1.396   7.641  0.5019  0.6219 -0.3216
  181SOPE  H14R20688   0.465   1.307   7.647 -0.6169 -0.3533 -1.7816
  181SOPE  H14S20689   0.292   1.366   7.636  0.6448  0.0153  0.1982
  181SOPE  C21520690   0.414   1.472   7.772 -0.5543  0.3497 -0.1688
  181SOPE  H15R20691   0.378   1.398   7.846  2.5543 -0.3443  0.8071
  181SOPE  H15S20692   0.351   1.563   7.777  0.5925  1.1950 -0.5482
  181SOPE  C21620693   0.556   1.510   7.815 -0.3875  0.3068 -0.6229
  181SOPE  H16R20694   0.622   1.438   7.763 -1.5347 -1.3129  0.0662
  181SOPE  H16S20695   0.574   1.487   7.922 -1.6598  0.0854 -0.4405
  181SOPE  C21720696   0.598   1.651   7.782  0.1079 -0.1953  0.1425
  181SOPE  H17R20697   0.551   1.723   7.853  2.5059  2.0909 -0.4131
  181SOPE  H17S20698   0.559   1.681   7.683  0.8558 -1.0456 -0.4181
  181SOPE  C21820699   0.752   1.676   7.780  0.7186 -0.6093  0.1878
  181SOPE  H18R20700   0.770   1.784   7.766  0.7633 -0.5640  0.5758
  181SOPE  H18S20701   0.802   1.612   7.704 -0.4780 -1.0415 -0.2577
  181SOPE  H18T20702   0.792   1.658   7.883  0.0240  0.5122  0.6623
  181SOPE   C3320703   0.699   1.951   6.593 -0.7332 -0.2423 -0.6562
  181SOPE   H3X20704   0.634   2.002   6.519 -0.4546  2.4527  0.8187
  181SOPE   H3Y20705   0.720   2.032   6.665  0.4089 -0.7654 -0.3673
  181SOPE   C3420706   0.629   1.839   6.673  1.1580 -0.3720  0.2822
  181SOPE   H4X20707   0.691   1.776   6.740  1.6201  0.4932  0.6808
  181SOPE   H4Y20708   0.585   1.777   6.592 -0.3048  0.2119  0.6024
  181SOPE   C3520709   0.507   1.898   6.754 -0.1763 -0.5710  0.1366
  181SOPE   H5X20710   0.457   1.810   6.799 -0.3264 -1.4789 -1.6993
  181SOPE   H5Y20711   0.430   1.948   6.692  0.5833  0.4541 -0.0076
  181SOPE   C3620712   0.555   1.992   6.865  0.3919  0.0648 -0.7982
  181SOPE   H6X20713   0.581   2.087   6.815 -0.1987  0.8557  0.3687
  181SOPE   H6Y20714   0.647   1.951   6.912 -0.9628 -0.7923  1.2862
  181SOPE   C3720715   0.450   2.023   6.971  0.3324 -0.1302 -0.1371
  181SOPE   H7X20716   0.354   2.063   6.933 -0.1335 -2.2420 -1.3269
  181SOPE   H7Y20717   0.497   2.096   7.040 -1.1947  0.4975  0.2575
  181SOPE   C3820718   0.404   1.892   7.043 -0.2478  0.4148 -0.2974
  181SOPE   H8X20719   0.479   1.811   7.031 -0.4493  0.5189 -2.6347
  181SOPE   H8Y20720   0.310   1.865   6.990 -0.4531  1.2963 -0.4063
  181SOPE   C3920721   0.373   1.923   7.193 -0.5064  0.0749 -0.3727
  181SOPE   H9X20722   0.316   1.841   7.242  0.5311 -0.9748 -0.8720
  181SOPE   H9Y20723   0.299   2.006   7.192 -2.7661 -1.7933  0.4345
  181SOPE  C31020724   0.489   1.939   7.283  0.2868  0.3339 -0.9359
  181SOPE  H10X20725   0.533   2.039   7.264  1.3266  0.3742  1.4009
  181SOPE  H10Y20726   0.569   1.868   7.255  1.7635  1.9826 -1.1089
  181SOPE  C31120727   0.447   1.921   7.428  0.0668 -0.1235 -0.0728
  181SOPE  H11X20728   0.463   1.819   7.472  1.5354 -1.3546 -3.1563
  181SOPE  H11Y20729   0.338   1.939   7.441  0.0640  0.1279 -0.4561
  181SOPE  C31220730   0.535   2.014   7.515 -0.5322  0.1016  0.3697
  181SOPE  H12X20731   0.502   2.114   7.478 -2.5539 -1.1803 -1.5204
  181SOPE  H12Y20732   0.643   2.003   7.490  0.4520  0.0606  4.1037
  181SOPE  C31320733   0.504   2.015   7.662  0.1492  0.3482 -0.5157
  181SOPE  H13X20734   0.484   1.914   7.703  0.4726  0.2156 -0.6840
  181SOPE  H13Y20735   0.412   2.070   7.693  1.0388  1.4945  0.1908
  181SOPE  C31420736   0.623   2.080   7.736  0.4198 -0.7955 -0.7391
  181SOPE  H14X20737   0.659   2.172   7.685  1.1925  1.6519  3.7240
  181SOPE  H14Y20738   0.711   2.012   7.743  1.3909  0.5325  0.4579
  181SOPE  C31520739   0.590   2.122   7.889 -1.0720  0.2496 -0.1760
  181SOPE  H15X20740   0.501   2.188   7.886  1.3694  3.8971  1.1900
  181SOPE  H15Y20741   0.676   2.184   7.924 -1.4649  0.4077  0.5226
  181SOPE  C31620742   0.557   2.013   7.984 -0.4012  0.7947 -0.2243
  181SOPE  H16X20743   0.511   1.926   7.934 -0.7813  0.0412  1.3629
  181SOPE  H16Y20744   0.484   2.039   8.064 -1.7029 -0.0461 -1.1127
  181SOPE  C31720745   0.678   1.966   8.068 -0.1592 -0.0832 -0.9870
  181SOPE  H17X20746   0.727   2.056   8.111 -0.6269  1.2784 -3.1661
  181SOPE  H17Y20747   0.754   1.925   7.998  1.6297  1.4746 -0.0550
  181SOPE  C31820748   0.647   1.860   8.165  0.5017  0.2099  0.2334
  181SOPE  H18X20749   0.588   1.777   8.121 -0.0492  1.0937 -0.7541
  181SOPE  H18Y20750   0.600   1.901   8.257  1.9315 -0.0947  1.1323
  181SOPE  H18Z20751   0.740   1.824   8.212  0.9936  1.9184  0.6289
  182SOPE     N20752   4.802   6.115   6.424  0.1104  0.0449 -0.0875
  182SOPE   HN120753   4.875   6.041   6.434  2.4869  2.1194 -0.9034
  182SOPE   HN220754   4.831   6.206   6.464  0.5867 -0.1859  0.0961
  182SOPE   HN320755   4.708   6.087   6.457 -0.4265 -0.1987 -1.6973
  182SOPE   C1220756   4.786   6.140   6.275  0.0889  0.2298  0.4644
  182SOPE  H12A20757   4.882   6.179   6.234 -0.9697  1.0283 -1.3804
  182SOPE  H12B20758   4.700   6.210   6.268 -0.1641  0.0815  1.8531
  182SOPE   C1120759   4.729   6.019   6.203  0.1381  0.1504 -0.0855
  182SOPE  H11A20760   4.732   6.042   6.095  2.9987 -0.1082 -0.1425
  182SOPE  H11B20761   4.623   6.006   6.233  0.4237 -1.2225  0.4124
  182SOPE     P20762   4.739   5.765   6.276  0.3483  0.7050 -0.2827
  182SOPE   O1320763   4.758   5.667   6.168  0.7473 -0.2118  0.3171
  182SOPE   O1420764   4.600   5.784   6.327 -0.2178 -0.2281 -0.1707
  182SOPE   O1220765   4.805   5.902   6.227 -0.1350 -0.3293 -0.1084
  182SOPE   O1120766   4.838   5.725   6.394  0.3114 -0.1396 -0.7020
  182SOPE    C120767   4.820   5.592   6.456 -0.3538 -0.7408  0.2164
  182SOPE    HA20768   4.835   5.513   6.379 -0.7581 -1.5382  0.9361
  182SOPE    HB20769   4.715   5.585   6.491 -0.5612  0.6539 -0.0841
  182SOPE    C220770   4.912   5.580   6.583 -0.1469  0.2228  0.1298
  182SOPE    HS20771   4.884   5.486   6.635 -0.0357  1.4522  2.5647
  182SOPE   O2120772   4.897   5.690   6.673 -0.6243  0.0629  0.2600
  182SOPE   C2120773   4.779   5.700   6.734 -0.3490  0.2973 -0.1417
  182SOPE   O2220774   4.686   5.618   6.725  0.4967 -0.7188  0.0900
  182SOPE   C2220775   4.757   5.841   6.805 -0.1506 -0.4082  0.7306
  182SOPE   H2R20776   4.661   5.878   6.765  0.2771 -1.8333 -1.8156
  182SOPE   H2S20777   4.847   5.903   6.784  0.1161 -1.4176 -1.3106
  182SOPE    C320778   5.056   5.563   6.533 -1.4389 -0.0709 -0.9670
  182SOPE    HX20779   5.086   5.662   6.494 -4.1489  0.5514 -1.6684
  182SOPE    HY20780   5.070   5.490   6.451  0.1259 -0.4764 -0.3806
  182SOPE   O3120781   5.135   5.528   6.652  0.7916 -0.1470  0.1767
  182SOPE   C3120782   5.137   5.403   6.690 -0.0460 -0.2155  0.7639
  182SOPE   O3220783   5.088   5.310   6.630 -0.0261  0.2288  0.1263
  182SOPE   C3220784   5.226   5.403   6.822  0.0307  0.5224 -0.0590
  182SOPE   H2X20785   5.327   5.442   6.798  0.5287 -0.6912 -0.0439
  182SOPE   H2Y20786   5.248   5.296   6.845 -1.5521 -0.4145 -2.4567
  182SOPE   C2320787   4.746   5.827   6.955  0.2875  0.3912 -0.2633
  182SOPE   H3R20788   4.668   5.753   6.984  2.0834 -0.2704  3.5168
  182SOPE   H3S20789   4.721   5.924   7.003 -0.7377  0.1834 -0.3434
  182SOPE   C2420790   4.872   5.776   7.027  0.3823 -0.5888 -0.5204
  182SOPE   H4R20791   4.905   5.681   6.979  0.3457 -0.2056 -1.3310
  182SOPE   H4S20792   4.950   5.854   7.012  0.7165 -1.0697 -1.3883
  182SOPE   C2520793   4.849   5.743   7.178  0.1655  0.7981 -0.2500
  182SOPE   H5R20794   4.790   5.649   7.180  0.0083  0.8781 -0.8537
  182SOPE   H5S20795   4.943   5.715   7.229 -0.2459  2.1539  1.3653
  182SOPE   C2620796   4.780   5.844   7.267  0.1445 -0.5054 -0.4959
  182SOPE   H6R20797   4.850   5.927   7.290 -0.6817 -0.5546  2.6161
  182SOPE   H6S20798   4.698   5.891   7.210 -0.2501 -1.6603 -0.9033
  182SOPE   C2720799   4.732   5.777   7.396  0.0216 -0.1822 -0.8396
  182SOPE   H7R20800   4.650   5.830   7.448 -0.3017 -1.9870  0.5691
  182SOPE   H7S20801   4.685   5.680   7.373  1.4148 -1.3554  0.9965
  182SOPE   C2820802   4.848   5.753   7.494 -0.3935 -0.4851  0.1130
  182SOPE   H8R20803   4.814   5.675   7.565  0.3960 -1.5312 -0.6273
  182SOPE   H8S20804   4.938   5.718   7.438 -0.6218  4.0019 -3.7011
  182SOPE   C2920805   4.871   5.885   7.559  0.2028  0.2706 -0.4548
  182SOPE   H9120806   4.867   5.964   7.484  3.2227 -1.2524 -2.4334
  182SOPE  C21020807   4.903   5.906   7.689  0.2742  0.5358 -0.2006
  182SOPE  H10120808   4.910   6.006   7.733  0.2922 -0.1078  1.3576
  182SOPE  C21120809   4.923   5.788   7.787  0.0078  0.4576  0.0633
  182SOPE  H11R20810   5.004   5.812   7.859  0.6800  0.4559 -0.6790
  182SOPE  H11S20811   4.958   5.697   7.735 -0.6363 -0.2138  0.7783
  182SOPE  C21220812   4.798   5.743   7.867 -0.0210  0.6413 -0.1095
  182SOPE  H12R20813   4.741   5.681   7.794  3.0843  0.6644 -2.7831
  182SOPE  H12S20814   4.727   5.824   7.897 -0.4099  0.3670 -0.2716
  182SOPE  C21320815   4.842   5.660   7.985 -0.8395  0.1426 -0.0814
  182SOPE  H13R20816   4.892   5.736   8.049 -1.6258  2.8759 -2.5017
  182SOPE  H13S20817   4.917   5.584   7.955 -1.4734 -0.4678 -0.1699
  182SOPE  C21420818   4.719   5.586   8.054 -0.5783 -0.2768 -0.7464
  182SOPE  H14R20819   4.659   5.527   7.983 -0.7515 -1.3810  0.2893
  182SOPE  H14S20820   4.657   5.666   8.100  1.3360  0.0438  1.5184
  182SOPE  C21520821   4.779   5.503   8.173  0.0223  0.4355  0.2321
  182SOPE  H15R20822   4.826   5.577   8.241 -0.3477 -0.1361  1.1237
  182SOPE  H15S20823   4.859   5.434   8.140  0.7130  0.5813  1.5397
  182SOPE  C21620824   4.660   5.440   8.256  0.2228 -0.0665 -0.3787
  182SOPE  H16R20825   4.597   5.382   8.186 -0.1892  1.7670 -1.6232
  182SOPE  H16S20826   4.601   5.524   8.298  2.0069 -0.3971  3.1535
  182SOPE  C21720827   4.704   5.369   8.388 -0.6672 -0.7317 -0.7560
  182SOPE  H17R20828   4.812   5.342   8.378 -0.6278 -0.7895 -0.2010
  182SOPE  H17S20829   4.647   5.274   8.393  1.4815 -2.0798 -0.2065
  182SOPE  C21820830   4.686   5.461   8.513 -0.5595  0.6009 -0.3084
  182SOPE  H18R20831   4.580   5.493   8.516 -0.7110  0.6942 -3.1836
  182SOPE  H18S20832   4.756   5.547   8.514  0.1078  0.0674  0.8995
  182SOPE  H18T20833   4.711   5.402   8.603  1.2188  2.8578  0.7679
  182SOPE   C3320834   5.154   5.469   6.948 -0.0594 -0.2998  0.2137
  182SOPE   H3X20835   5.050   5.429   6.949 -0.6297  0.9979  3.3744
  182SOPE   H3Y20836   5.148   5.579   6.934  0.0563 -0.2359  0.6543
  182SOPE   C3420837   5.223   5.413   7.075 -0.0235  0.0610 -0.2697
  182SOPE   H4X20838   5.328   5.449   7.071 -0.1061  0.3667  0.2373
  182SOPE   H4Y20839   5.226   5.302   7.079  0.3955  0.0089 -1.5633
  182SOPE   C3520840   5.166   5.469   7.209 -0.5477 -0.0047  0.3137
  182SOPE   H5X20841   5.066   5.435   7.243 -0.1473  0.1419  1.7042
  182SOPE   H5Y20842   5.148   5.578   7.198 -1.1587 -0.0303  1.0135
  182SOPE   C3620843   5.261   5.433   7.327 -0.6085 -0.5415  0.1990
  182SOPE   H6X20844   5.366   5.464   7.307 -0.7393  0.7461  1.4048
  182SOPE   H6Y20845   5.257   5.322   7.336 -2.6579 -0.5749 -0.4833
  182SOPE   C3720846   5.208   5.476   7.466 -0.2167 -0.1245  0.2288
  182SOPE   H7X20847   5.098   5.464   7.474 -0.2253 -0.4419 -0.2788
  182SOPE   H7Y20848   5.237   5.583   7.473  0.2583 -0.2700  0.5569
  182SOPE   C3820849   5.266   5.397   7.581 -0.3830 -0.0564  0.1194
  182SOPE   H8X20850   5.377   5.400   7.579 -0.3604  0.1966  1.2841
  182SOPE   H8Y20851   5.237   5.290   7.568 -1.6544  0.0216  2.0199
  182SOPE   C3920852   5.211   5.450   7.718  0.5047  0.0237 -0.0026
  182SOPE   H9X20853   5.101   5.453   7.709  0.5132  1.4559  0.0217
  182SOPE   H9Y20854   5.237   5.555   7.744 -1.0984  0.4736 -0.1312
  182SOPE  C31020855   5.259   5.371   7.839  0.5748 -0.6341 -0.1062
  182SOPE  H10X20856   5.371   5.373   7.841  0.5866 -0.2622 -0.9253
  182SOPE  H10Y20857   5.239   5.263   7.824  0.3102 -0.4181 -1.4513
  182SOPE  C31120858   5.207   5.426   7.965  0.3812  0.4458  0.6229
  182SOPE  H11X20859   5.097   5.420   7.976  0.4218 -1.9963  0.1624
  182SOPE  H11Y20860   5.222   5.536   7.973  0.4728  0.3650  1.8227
  182SOPE  C31220861   5.262   5.349   8.088 -0.2113 -0.1037  0.9432
  182SOPE  H12X20862   5.372   5.363   8.087 -0.2294  0.1611  1.7891
  182SOPE  H12Y20863   5.248   5.240   8.069  0.3812  0.1788 -1.4730
  182SOPE  C31320864   5.212   5.389   8.223 -0.4713  0.5637 -0.1531
  182SOPE  H13X20865   5.253   5.321   8.301 -0.9376  0.0661 -0.3355
  182SOPE  H13Y20866   5.103   5.365   8.223 -0.9361  2.3894  1.8614
  182SOPE  C31420867   5.258   5.536   8.257  0.6268 -0.4722 -0.2649
  182SOPE  H14X20868   5.197   5.601   8.191  2.1224  0.3280 -0.8794
  182SOPE  H14Y20869   5.365   5.557   8.238  1.1033  0.2780  2.7654
  182SOPE  C31520870   5.218   5.574   8.393  0.4803 -0.5604 -0.2253
  182SOPE  H15X20871   5.288   5.532   8.469 -0.1806 -0.9606  0.1710
  182SOPE  H15Y20872   5.117   5.535   8.417 -0.9688  2.1719 -1.4530
  182SOPE  C31620873   5.212   5.727   8.412 -0.2219  0.4560 -0.9772
  182SOPE  H16X20874   5.150   5.778   8.336 -1.7758  3.3916  2.0019
  182SOPE  H16Y20875   5.315   5.768   8.418 -0.8897  1.9955  0.8336
  182SOPE  C31720876   5.138   5.760   8.549  0.0709  0.2517 -0.3062
  182SOPE  H17X20877   5.083   5.666   8.572 -0.7546  0.8331  0.1615
  182SOPE  H17Y20878   5.064   5.838   8.521  0.1933  0.1540 -0.9063
  182SOPE  C31820879   5.231   5.793   8.671  0.0972 -0.2279  0.4167
  182SOPE  H18X20880   5.321   5.731   8.655 -0.9951 -1.7824  0.0590
  182SOPE  H18Y20881   5.180   5.757   8.762 -0.2851 -2.9944 -0.7900
  182SOPE  H18Z20882   5.245   5.903   8.678 -3.2058  0.2435  1.7305
  183SOPE     N20883   5.254   2.649   6.390 -0.3368 -0.2759 -0.3033
  183SOPE   HN120884   5.235   2.555   6.430  1.1274  0.7276  3.1350
  183SOPE   HN220885   5.185   2.722   6.415 -0.6664 -0.3246 -1.0473
  183SOPE   HN320886   5.247   2.632   6.287 -0.7769 -0.6049 -0.2234
  183SOPE   C1220887   5.391   2.703   6.426  0.0656  0.6525  0.1438
  183SOPE  H12A20888   5.375   2.748   6.526  1.5887 -2.3706  1.8854
  183SOPE  H12B20889   5.427   2.768   6.343  3.6476 -2.4934 -1.0463
  183SOPE   C1120890   5.498   2.587   6.446  0.0663  0.2301 -0.2282
  183SOPE  H11A20891   5.469   2.508   6.519 -1.0567  0.9875  0.1912
  183SOPE  H11B20892   5.592   2.637   6.478  0.3016  0.1113 -0.7271
  183SOPE     P20893   5.639   2.563   6.218  0.0713 -0.0943  0.8380
  183SOPE   O1320894   5.650   2.711   6.196 -0.0535 -0.2444 -0.2153
  183SOPE   O1420895   5.632   2.490   6.091 -0.1927 -0.1358  0.1249
  183SOPE   O1220896   5.514   2.527   6.314 -0.3804 -0.4080 -0.0557
  183SOPE   O1120897   5.765   2.514   6.297 -0.2316  0.0772  0.1782
  183SOPE    C120898   5.784   2.378   6.337  0.5455  0.6981 -0.4048
  183SOPE    HA20899   5.884   2.346   6.302  0.0749 -0.2528 -0.9115
  183SOPE    HB20900   5.718   2.310   6.280  0.4165 -0.7588  1.3789
  183SOPE    C220901   5.781   2.352   6.489  0.5367 -0.5933 -0.0881
  183SOPE    HS20902   5.844   2.266   6.523  1.5300  0.6472  1.3746
  183SOPE   O2120903   5.641   2.329   6.524  0.4667 -0.2649 -0.0160
  183SOPE   C2120904   5.621   2.264   6.639  0.9063 -0.5127  0.1208
  183SOPE   O2220905   5.706   2.210   6.708  0.0512 -0.5407  0.4650
  183SOPE   C2220906   5.467   2.258   6.681 -0.4126  0.3383 -0.0052
  183SOPE   H2R20907   5.402   2.250   6.591  0.8465 -0.7334 -0.8550
  183SOPE   H2S20908   5.451   2.352   6.738 -1.5183 -0.6868  1.4762
  183SOPE    C320909   5.830   2.473   6.573 -0.3230  0.5463  0.0771
  183SOPE    HX20910   5.768   2.564   6.558 -0.3732  0.8602  1.9299
  183SOPE    HY20911   5.926   2.508   6.529  1.2647 -2.5577  0.8159
  183SOPE   O3120912   5.843   2.444   6.713 -0.0812  0.1896  0.2240
  183SOPE   C3120913   5.776   2.524   6.799  0.1896 -0.1596  0.8285
  183SOPE   O3220914   5.681   2.595   6.782  0.5411 -0.3176  0.1021
  183SOPE   C3220915   5.821   2.482   6.935  0.6217  0.2273 -0.0551
  183SOPE   H2X20916   5.931   2.492   6.947  1.0602 -3.3430  0.1442
  183SOPE   H2Y20917   5.801   2.375   6.959 -1.0730  0.5039 -0.1028
  183SOPE   C2320918   5.434   2.138   6.780  0.3563 -0.2206 -0.0129
  183SOPE   H3R20919   5.474   2.039   6.750 -0.5982 -0.3260 -1.0008
  183SOPE   H3S20920   5.325   2.115   6.772  0.7048 -2.3348  0.6192
  183SOPE   C2420921   5.448   2.177   6.930  0.5732  0.8539  0.6642
  183SOPE   H4R20922   5.442   2.083   6.990  1.2365  2.2057  2.9662
  183SOPE   H4S20923   5.543   2.233   6.941 -0.1413  2.5301 -1.1217
  183SOPE   C2520924   5.334   2.256   6.989 -0.3092  0.1580  0.2047
  183SOPE   H5R20925   5.321   2.359   6.951 -2.3381 -0.2890 -0.4295
  183SOPE   H5S20926   5.241   2.204   6.956 -0.0181  0.3859 -1.0420
  183SOPE   C2620927   5.341   2.251   7.143 -0.3643  0.1163  0.9079
  183SOPE   H6R20928   5.265   2.325   7.174 -0.5262  0.1712  0.3896
  183SOPE   H6S20929   5.315   2.150   7.181 -0.3908  0.0503  0.7162
  183SOPE   C2720930   5.484   2.301   7.191  0.4934  0.7883  0.7957
  183SOPE   H7R20931   5.578   2.246   7.172  0.3144  1.1435 -1.3867
  183SOPE   H7S20932   5.499   2.398   7.139  0.1399  0.5479  0.2264
  183SOPE   C2820933   5.468   2.320   7.341 -0.4699 -0.1033 -0.0544
  183SOPE   H8R20934   5.548   2.393   7.368 -1.6718  1.0794  0.3971
  183SOPE   H8S20935   5.371   2.366   7.367  0.7859  1.3894  2.2974
  183SOPE   C2920936   5.489   2.212   7.444  0.1617  0.6766  0.4420
  183SOPE   H9120937   5.394   2.165   7.473  0.9365 -0.9689  0.4569
  183SOPE  C21020938   5.609   2.166   7.487 -0.5609 -0.4069 -0.1151
  183SOPE  H10120939   5.605   2.081   7.557  0.1017  2.0242  3.0650
  183SOPE  C21120940   5.748   2.204   7.429 -0.8210 -0.1586 -0.2504
  183SOPE  H11R20941   5.740   2.300   7.373  0.7070 -0.1214 -0.4522
  183SOPE  H11S20942   5.781   2.123   7.359  1.7935 -0.6930  1.4560
  183SOPE  C21220943   5.856   2.212   7.538 -0.7412 -0.7501 -0.6133
  183SOPE  H12R20944   5.959   2.200   7.499 -0.8747 -0.3568 -1.1068
  183SOPE  H12S20945   5.841   2.127   7.608 -1.9855 -0.7984 -0.9083
  183SOPE  C21320946   5.856   2.335   7.630 -0.7272  0.1794  0.3322
  183SOPE  H13R20947   5.753   2.343   7.671 -0.9268  2.5478 -0.4672
  183SOPE  H13S20948   5.868   2.432   7.576 -0.7189  0.3641  0.6635
  183SOPE  C21420949   5.963   2.344   7.733 -0.7110  0.2386  0.3115
  183SOPE  H14R20950   6.068   2.330   7.702 -0.2982  1.1870  1.2303
  183SOPE  H14S20951   5.936   2.265   7.807 -0.3491 -1.1133 -0.9496
  183SOPE  C21520952   5.957   2.479   7.820 -0.2391  0.2497  0.2283
  183SOPE  H15R20953   5.854   2.496   7.860 -0.6388  0.3704 -0.8285
  183SOPE  H15S20954   5.994   2.558   7.751  0.1667 -1.2257 -1.3222
  183SOPE  C21620955   6.053   2.480   7.944  0.2501 -0.4559  0.4550
  183SOPE  H16R20956   6.158   2.459   7.914  0.0133 -0.5693 -0.3206
  183SOPE  H16S20957   6.024   2.391   8.004 -2.0724  1.3723  2.2782
  183SOPE  C21720958   6.047   2.607   8.022  0.1768  0.0927  0.0566
  183SOPE  H17R20959   5.949   2.643   8.061  0.5284  1.9893 -0.7142
  183SOPE  H17S20960   6.083   2.692   7.960  0.5955  0.3858  0.6925
  183SOPE  C21820961   6.138   2.583   8.146  0.7998  0.2401 -0.2853
  183SOPE  H18R20962   6.235   2.534   8.124  1.0195  0.0031  1.0777
  183SOPE  H18S20963   6.082   2.507   8.204  0.2099  0.3820 -0.6651
  183SOPE  H18T20964   6.126   2.667   8.218  0.4203 -0.9088  1.0487
  183SOPE   C3320965   5.752   2.569   7.045 -0.5403 -0.2198 -0.1025
  183SOPE   H3X20966   5.641   2.569   7.044 -0.6303 -0.5505  2.3936
  183SOPE   H3Y20967   5.776   2.672   7.013 -0.5277 -0.5717 -1.2696
  183SOPE   C3420968   5.795   2.541   7.192 -0.2790  0.1103 -0.1825
  183SOPE   H4X20969   5.906   2.539   7.189 -0.2881 -2.1223 -2.4598
  183SOPE   H4Y20970   5.756   2.447   7.235  1.2238  0.9785  3.4766
  183SOPE   C3520971   5.734   2.652   7.280  0.0246  0.3767  0.5683
  183SOPE   H5X20972   5.623   2.647   7.283  0.0310 -0.7260 -0.4445
  183SOPE   H5Y20973   5.772   2.750   7.244 -1.2732  1.1011  1.0723
  183SOPE   C3620974   5.794   2.634   7.422  0.4012  1.0440  0.0953
  183SOPE   H6X20975   5.891   2.582   7.412  0.1935  0.6452  0.1501
  183SOPE   H6Y20976   5.731   2.555   7.467  0.1336  0.4708 -1.2303
  183SOPE   C3720977   5.797   2.773   7.500 -0.3289 -0.4879  0.3456
  183SOPE   H7X20978   5.808   2.746   7.607  0.2229 -3.0883 -0.2939
  183SOPE   H7Y20979   5.700   2.820   7.473  0.0352 -0.8156 -1.6661
  183SOPE   C3820980   5.924   2.854   7.466 -1.0785  0.4315 -0.5198
  183SOPE   H8X20981   5.927   2.870   7.356  1.9440  0.6265 -0.5072
  183SOPE   H8Y20982   6.011   2.787   7.484 -1.5125 -0.0432 -0.1703
  183SOPE   C3920983   5.946   2.985   7.555  0.2221 -0.2893  0.4186
  183SOPE   H9X20984   5.847   3.036   7.552 -0.7782 -2.1959 -0.9870
  183SOPE   H9Y20985   6.022   3.050   7.507  0.7990  0.0934  1.7946
  183SOPE  C31020986   6.005   2.962   7.697  0.6441  0.2169 -0.3024
  183SOPE  H10X20987   6.111   2.930   7.689  0.4465 -0.0284 -2.5957
  183SOPE  H10Y20988   5.940   2.883   7.743  1.2263 -0.2054 -0.1896
  183SOPE  C31120989   6.018   3.079   7.786 -0.5058  0.6506  0.3171
  183SOPE  H11X20990   5.934   3.149   7.767 -1.6988 -0.8271 -0.0489
  183SOPE  H11Y20991   6.102   3.132   7.737 -0.9711 -0.0232 -1.2523
  183SOPE  C31220992   6.046   3.030   7.928  0.1070  0.2850 -0.2388
  183SOPE  H12X20993   6.150   2.994   7.939  0.3324  0.9083 -0.2997
  183SOPE  H12Y20994   5.979   2.951   7.967 -0.2198 -1.7880 -4.4572
  183SOPE  C31320995   6.021   3.156   8.021  0.5344  0.0193  0.0630
  183SOPE  H13X20996   5.916   3.192   8.029  0.3293 -0.4770 -0.3003
  183SOPE  H13Y20997   6.079   3.237   7.973 -0.5283  0.2805 -0.8249
  183SOPE  C31420998   6.055   3.119   8.164 -0.3840  0.1735  0.4442
  183SOPE  H14X20999   6.155   3.070   8.170 -2.1116 -3.4703  3.8776
  183SOPE  H14Y21000   5.973   3.054   8.200 -1.2441  1.2060  0.3979
  183SOPE  C31521001   6.064   3.226   8.268 -0.2513  0.4498  0.1756
  183SOPE  H15X21002   5.960   3.258   8.292 -0.5695  0.3926 -1.0951
  183SOPE  H15Y21003   6.113   3.320   8.235  1.4939 -0.5927 -0.3066
  183SOPE  C31621004   6.144   3.185   8.398  1.1774 -0.4853  0.0932
  183SOPE  H16X21005   6.254   3.183   8.378  1.0085 -1.2595 -0.8619
  183SOPE  H16Y21006   6.119   3.078   8.420  1.5739 -0.1179  2.6032
  183SOPE  C31721007   6.126   3.287   8.515 -0.3889 -0.0774 -0.1901
  183SOPE  H17X21008   6.024   3.314   8.550 -0.9044  0.4838 -2.0065
  183SOPE  H17Y21009   6.175   3.378   8.473  2.8434 -2.2859 -1.6194
  183SOPE  C31821010   6.198   3.246   8.641 -0.2830  0.1359  0.2211
  183SOPE  H18X21011   6.152   3.160   8.694  0.1413 -0.7908 -0.8743
  183SOPE  H18Y21012   6.215   3.330   8.712  2.6678 -2.1270  2.4850
  183SOPE  H18Z21013   6.300   3.214   8.608 -0.2847  1.0863 -0.7740
  184SOPE     N21014   4.461   2.077   6.425  0.8613 -0.2792  0.3325
  184SOPE   HN121015   4.455   1.991   6.484  0.4541 -0.0625  0.6125
  184SOPE   HN221016   4.448   2.073   6.322  1.5807  1.3141  0.1564
  184SOPE   HN321017   4.554   2.120   6.439  1.5819 -1.5800 -0.3201
  184SOPE   C1221018   4.363   2.168   6.483  0.5421  0.3982 -0.2494
  184SOPE  H12A21019   4.370   2.167   6.593 -3.0849  2.8499  0.1590
  184SOPE  H12B21020   4.262   2.139   6.447 -0.2540  1.1135  1.3471
  184SOPE   C1121021   4.390   2.311   6.441  0.6762  0.0007 -0.6152
  184SOPE  H11A21022   4.498   2.337   6.446  1.0179 -0.7043 -3.0722
  184SOPE  H11B21023   4.342   2.376   6.516 -1.2857 -1.6313 -0.3675
  184SOPE     P21024   4.239   2.421   6.268 -0.0314  0.6226  0.0743
  184SOPE   O1321025   4.119   2.342   6.287 -0.4889  0.4929  0.1064
  184SOPE   O1421026   4.254   2.466   6.131 -0.3542 -0.5564  0.6140
  184SOPE   O1221027   4.361   2.330   6.307 -0.5588  0.0053 -0.2292
  184SOPE   O1121028   4.250   2.547   6.371  0.3279  0.1352  0.0523
  184SOPE    C121029   4.132   2.603   6.434  0.3724  0.0396 -0.0781
  184SOPE    HA21030   4.046   2.558   6.380  1.1356  1.0064 -2.2131
  184SOPE    HB21031   4.129   2.714   6.425  1.8830 -0.0194 -1.8293
  184SOPE    C221032   4.127   2.555   6.580  0.4291  0.2838 -0.3095
  184SOPE    HS21033   4.222   2.591   6.625 -0.1154  0.9540  0.3101
  184SOPE   O2121034   4.114   2.407   6.581 -0.3592  0.1610 -0.3051
  184SOPE   C2121035   4.142   2.352   6.700  0.7465  0.4022  0.0794
  184SOPE   O2221036   4.199   2.397   6.799 -0.4673  0.3681  0.1674
  184SOPE   C2221037   4.084   2.199   6.699 -0.1815 -0.4306  0.1238
  184SOPE   H2R21038   4.119   2.154   6.603  0.0496  0.1501 -0.0723
  184SOPE   H2S21039   3.975   2.217   6.691  0.0270  0.5808 -0.8601
  184SOPE    C321040   4.009   2.623   6.649 -0.5758  0.4258 -0.0385
  184SOPE    HX21041   3.916   2.587   6.601  0.2111 -0.8889 -0.6318
  184SOPE    HY21042   4.022   2.733   6.634 -2.0247  1.1189  2.8471
  184SOPE   O3121043   3.997   2.592   6.794 -0.1368  0.3581 -0.3212
  184SOPE   C3121044   4.083   2.661   6.870  0.2533  0.2430 -0.0413
  184SOPE   O3221045   4.158   2.745   6.826  0.3451 -0.0167 -0.0516
  184SOPE   C3221046   4.053   2.626   7.019 -0.3349 -0.2821 -0.2801
  184SOPE   H2X21047   4.125   2.546   7.045  0.1439  0.0168 -0.6475
  184SOPE   H2Y21048   3.954   2.583   7.044 -0.9695  2.8039  3.5468
  184SOPE   C2321049   4.118   2.116   6.825  0.0020  0.2098 -0.5954
  184SOPE   H3R21050   4.227   2.133   6.838 -0.1206  0.5948 -0.0424
  184SOPE   H3S21051   4.086   2.010   6.819 -0.0154  0.2529 -1.3189
  184SOPE   C2421052   4.050   2.173   6.947 -0.6591  0.3903 -0.7656
  184SOPE   H4R21053   4.061   2.281   6.968  2.1639 -0.4937  3.5255
  184SOPE   H4S21054   3.940   2.158   6.937 -0.5759  0.3720 -1.7684
  184SOPE   C2521055   4.111   2.095   7.066 -0.0756 -0.5977 -1.0958
  184SOPE   H5R21056   4.104   1.984   7.063  1.3116 -0.7188 -0.6079
  184SOPE   H5S21057   4.218   2.120   7.047 -0.1033 -0.3997 -0.9954
  184SOPE   C2621058   4.082   2.150   7.202  0.0911 -0.4230  0.1824
  184SOPE   H6R21059   4.107   2.258   7.210 -2.8834  0.2382  2.6206
  184SOPE   H6S21060   3.972   2.140   7.220  0.3523  0.0947  2.3178
  184SOPE   C2721061   4.149   2.070   7.320  0.0396 -0.4986  0.4162
  184SOPE   H7R21062   4.166   1.966   7.287  1.1691  0.0102 -0.6970
  184SOPE   H7S21063   4.245   2.118   7.349  0.1509 -1.3577  1.5316
  184SOPE   C2821064   4.062   2.059   7.447 -0.3447 -0.1380  0.4045
  184SOPE   H8R21065   3.963   2.013   7.423  0.5187 -2.5468  1.2095
  184SOPE   H8S21066   4.105   1.987   7.518 -1.8058  0.0483  1.5288
  184SOPE   C2921067   4.051   2.195   7.507 -0.3865 -0.0120 -0.0316
  184SOPE   H9121068   4.067   2.274   7.432  0.2678 -0.2333 -0.1274
  184SOPE  C21021069   4.029   2.224   7.638 -0.5006 -0.0306 -0.2765
  184SOPE  H10121070   4.022   2.327   7.676  1.1220  1.2247 -3.0876
  184SOPE  C21121071   3.986   2.118   7.731 -0.3181  0.6162  0.2524
  184SOPE  H11R21072   4.039   2.021   7.724 -1.2929  0.0556  0.4665
  184SOPE  H11S21073   3.877   2.106   7.709 -0.6557  1.0827  1.5684
  184SOPE  C21221074   4.006   2.164   7.875 -0.1456 -0.5649  0.0699
  184SOPE  H12R21075   3.968   2.094   7.952 -1.7253  0.8673  0.6500
  184SOPE  H12S21076   3.940   2.251   7.894 -1.4251 -1.7038  1.0191
  184SOPE  C21321077   4.143   2.224   7.909  0.3179  0.3454 -0.6758
  184SOPE  H13R21078   4.137   2.275   8.008  1.3167 -1.9986  0.6802
  184SOPE  H13S21079   4.182   2.299   7.837 -2.0939  1.9537 -0.4386
  184SOPE  C21421080   4.235   2.107   7.923 -0.1299 -0.1968  1.3443
  184SOPE  H14R21081   4.250   2.067   7.821 -1.9426  0.9514  0.5774
  184SOPE  H14S21082   4.182   2.031   7.985 -0.5084 -1.3196 -0.3083
  184SOPE  C21521083   4.369   2.151   7.981 -0.1255  0.2203 -0.2434
  184SOPE  H15R21084   4.414   2.229   7.916  1.0596 -0.4159 -0.2135
  184SOPE  H15S21085   4.428   2.057   7.984 -2.6799 -1.5403 -1.1600
  184SOPE  C21621086   4.367   2.204   8.120 -0.3949 -0.2138 -0.0021
  184SOPE  H16R21087   4.326   2.122   8.182 -2.6519 -0.3645 -1.5334
  184SOPE  H16S21088   4.311   2.300   8.127  1.8203  1.1646 -0.3669
  184SOPE  C21721089   4.495   2.235   8.175 -0.6199  0.0781 -1.0878
  184SOPE  H17R21090   4.549   2.317   8.123 -0.7563 -0.0852 -1.4900
  184SOPE  H17S21091   4.559   2.145   8.165  2.8751  2.3181 -0.7525
  184SOPE  C21821092   4.488   2.270   8.327 -0.2037  0.0667 -0.3580
  184SOPE  H18R21093   4.471   2.175   8.382  0.5683 -0.7937 -1.5582
  184SOPE  H18S21094   4.407   2.345   8.340  0.2619  0.7664 -1.3729
  184SOPE  H18T21095   4.581   2.317   8.365  1.0498 -1.9317 -0.8484
  184SOPE   C3321096   4.075   2.746   7.109 -0.0897 -0.2326  0.2852
  184SOPE   H3X21097   3.995   2.822   7.097 -0.7985 -1.0125 -0.1017
  184SOPE   H3Y21098   4.170   2.800   7.090  0.5454 -1.2940  0.3696
  184SOPE   C3421099   4.089   2.698   7.262 -0.5545 -0.1626 -0.0862
  184SOPE   H4X21100   4.118   2.786   7.323  0.0267 -0.2311 -0.2597
  184SOPE   H4Y21101   4.167   2.621   7.283 -1.3824 -0.7161  1.0913
  184SOPE   C3521102   3.972   2.620   7.319 -0.4253  0.2372  0.2965
  184SOPE   H5X21103   3.943   2.537   7.251  0.3875  0.1936 -0.0172
  184SOPE   H5Y21104   3.884   2.687   7.310 -0.3452  0.6247  2.0332
  184SOPE   C3621105   4.009   2.560   7.456  0.0740 -0.2231 -0.9022
  184SOPE   H6X21106   4.106   2.505   7.451 -1.1945 -2.7978  0.6139
  184SOPE   H6Y21107   3.931   2.482   7.473 -0.0966  0.1567  0.1591
  184SOPE   C3721108   4.002   2.674   7.558  0.7641  0.2446  0.4813
  184SOPE   H7X21109   3.902   2.723   7.566  0.5132  0.0182 -0.9805
  184SOPE   H7Y21110   4.075   2.754   7.535  0.2364  0.7752  0.6229
  184SOPE   C3821111   4.023   2.609   7.697 -0.1382  0.0395 -0.0836
  184SOPE   H8X21112   4.115   2.548   7.685 -1.4601 -2.4014  1.3730
  184SOPE   H8Y21113   3.939   2.539   7.717  0.3264 -0.0045  1.8786
  184SOPE   C3921114   4.044   2.710   7.807  0.0734  0.7915 -0.2476
  184SOPE   H9X21115   3.962   2.785   7.803 -1.9664 -1.2534  0.7710
  184SOPE   H9Y21116   4.142   2.757   7.783 -0.4037  0.9577 -2.0143
  184SOPE  C31021117   4.035   2.652   7.945  0.4091 -0.2417 -0.7219
  184SOPE  H10X21118   4.074   2.729   8.016  0.8695 -0.9842 -0.1629
  184SOPE  H10Y21119   4.099   2.562   7.958  1.4140  0.7328  1.5757
  184SOPE  C31121120   3.896   2.624   7.995  0.4872  0.6184  0.1026
  184SOPE  H11X21121   3.847   2.551   7.926  2.9982 -0.1387 -0.9817
  184SOPE  H11Y21122   3.850   2.725   7.997 -1.2707 -0.0218 -2.4938
  184SOPE  C31221123   3.900   2.571   8.135 -1.9036  1.0374  0.0579
  184SOPE  H12X21124   3.976   2.632   8.189  0.6984 -0.6587 -1.4751
  184SOPE  H12Y21125   3.940   2.468   8.132  1.1746  2.1137 -0.0127
  184SOPE  C31321126   3.763   2.589   8.200 -0.7010 -0.2019 -0.2404
  184SOPE  H13X21127   3.685   2.535   8.142 -0.1957 -0.3406 -0.8050
  184SOPE  H13Y21128   3.730   2.694   8.188  1.1541  0.4336 -0.1744
  184SOPE  C31421129   3.766   2.556   8.350  0.2414 -0.2960 -0.5424
  184SOPE  H14X21130   3.861   2.583   8.400 -0.2470 -1.3537  1.0423
  184SOPE  H14Y21131   3.753   2.447   8.367 -0.4641 -0.0324  0.7272
  184SOPE  C31521132   3.651   2.636   8.421  0.2657 -0.7650  0.2929
  184SOPE  H15X21133   3.641   2.591   8.522  2.5983 -0.7563  0.5975
  184SOPE  H15Y21134   3.559   2.631   8.360 -0.3326  2.3874  0.7984
  184SOPE  C31621135   3.690   2.783   8.447 -0.5663  0.5552 -0.7375
  184SOPE  H16X21136   3.729   2.827   8.353  1.3146  0.1483 -0.1934
  184SOPE  H16Y21137   3.778   2.786   8.516  1.2524  1.6289 -2.9834
  184SOPE  C31721138   3.579   2.863   8.515  0.2404 -0.4504  0.4868
  184SOPE  H17X21139   3.575   2.814   8.614  0.8598 -1.6031 -0.0457
  184SOPE  H17Y21140   3.486   2.852   8.455  1.3079 -1.5369 -1.0709
  184SOPE  C31821141   3.610   3.016   8.535  0.6611  0.2475  0.5815
  184SOPE  H18X21142   3.521   3.061   8.585  1.3804  0.0135  2.1538
  184SOPE  H18Y21143   3.637   3.062   8.438 -0.3400  1.3021  0.7700
  184SOPE  H18Z21144   3.699   3.040   8.597  2.7083 -0.3011 -1.9981
  185SAPI   C1221145   6.585   1.459  10.987 -0.4388  0.5305  0.3043
  185SAPI    H221146   6.510   1.449  10.906 -0.3345 -1.8250  0.4225
  185SAPI    O221147   6.715   1.436  10.939 -0.2727 -0.9047 -0.3047
  185SAPI   HO221148   6.741   1.515  10.891 -3.0994  0.7324  0.5696
  185SAPI   C1321149   6.563   1.600  11.045 -0.5265 -0.0630 -0.7108
  185SAPI    H321150   6.456   1.602  11.075 -0.9068 -3.2654 -1.5363
  185SAPI    O321151   6.582   1.704  10.953  0.6462 -0.1677 -0.3961
  185SAPI   HO321152   6.499   1.710  10.905 -0.8911 -2.3435  1.7370
  185SAPI   C1421153   6.653   1.629  11.165 -0.2413 -0.2029 -0.8968
  185SAPI    H421154   6.754   1.630  11.120  0.1984  0.0156  0.0737
  185SAPI    O421155   6.639   1.756  11.227 -0.2826  0.2814 -1.1731
  185SAPI   HO421156   6.545   1.766  11.242 -0.3318 -0.1110 -1.2040
  185SAPI   C1521157   6.645   1.511  11.270 -0.1042 -0.0120 -0.6128
  185SAPI    H521158   6.542   1.515  11.311  0.8829 -1.0559  2.2376
  185SAPI    O521159   6.747   1.529  11.369  0.1190 -0.2308 -0.4401
  185SAPI   HO521160   6.724   1.479  11.448 -0.2297 -2.5817 -1.9393
  185SAPI   C1621161   6.655   1.374  11.211 -1.0332  0.1196 -0.4740
  185SAPI    H621162   6.761   1.366  11.177 -0.2558 -2.3543  2.1816
  185SAPI    O621163   6.636   1.273  11.304 -0.3524 -0.0344 -0.1367
  185SAPI   HO621164   6.706   1.207  11.297 -0.3769 -0.3423  1.9238
  185SAPI   C1121165   6.552   1.359  11.096  0.2894  0.3250 -0.2921
  185SAPI    H121166   6.452   1.378  11.141  0.4083 -1.8076  1.0242
  185SAPI     P21167   6.428   1.108  11.044 -0.2297 -0.2704  0.2136
  185SAPI   O1321168   6.304   1.177  11.073  0.2101  0.5616  0.1904
  185SAPI   O1421169   6.453   0.988  11.121  0.2619 -0.1905 -0.0394
  185SAPI   O1221170   6.551   1.220  11.045  0.0189 -0.2738  0.1455
  185SAPI   O1121171   6.427   1.061  10.894  0.1634  0.6949 -0.2590
  185SAPI    C121172   6.427   1.158  10.790  0.3394 -0.0598 -0.1647
  185SAPI    HA21173   6.386   1.257  10.818 -0.1058 -0.2195 -0.2437
  185SAPI    HB21174   6.533   1.169  10.756  1.1422 -3.7505  0.6506
  185SAPI    C221175   6.340   1.114  10.670  0.3131  0.0182  0.6055
  185SAPI    HS21176   6.235   1.111  10.705  0.5330  0.1998  1.2834
  185SAPI   O2121177   6.382   0.984  10.622  0.0070  0.2060 -0.4640
  185SAPI   C2121178   6.313   0.886  10.681  0.1000  0.5692 -0.6465
  185SAPI   O2221179   6.224   0.894  10.764 -0.0657  0.0205 -0.0777
  185SAPI   C2221180   6.380   0.755  10.639 -0.6435 -0.1457 -0.6582
  185SAPI   H2R21181   6.434   0.771  10.544  1.3525  0.3650  0.5103
  185SAPI   H2S21182   6.457   0.733  10.716 -0.5480 -0.0633 -0.7311
  185SAPI    C321183   6.347   1.217  10.547 -0.4850 -0.6229 -0.4888
  185SAPI    HX21184   6.294   1.311  10.575  1.5643 -0.2581  2.5662
  185SAPI    HY21185   6.291   1.177  10.460  1.6660 -1.9073 -1.3516
  185SAPI   O3121186   6.476   1.236  10.500 -0.6492  0.9157 -0.7394
  185SAPI   C3121187   6.542   1.350  10.506  0.5253 -0.6285 -0.0256
  185SAPI   O3221188   6.503   1.450  10.567  0.1658  0.1838  0.3624
  185SAPI   C3221189   6.671   1.342  10.424  0.0914 -0.5362 -0.0970
  185SAPI   H2X21190   6.744   1.317  10.504 -2.5185 -0.7956  2.3517
  185SAPI   H2Y21191   6.694   1.446  10.393 -0.1874  0.2410  2.1031
  185SAPI   C2321192   6.295   0.621  10.619  0.3681  0.1679 -0.0107
  185SAPI   H3R21193   6.235   0.612  10.712 -1.5869  1.6295 -1.0434
  185SAPI   H3S21194   6.360   0.532  10.625 -0.1763 -0.2167  0.2238
  185SAPI   C2421195   6.207   0.622  10.489  0.4627 -0.6078  0.4921
  185SAPI   H4R21196   6.160   0.523  10.471 -2.3404  0.7882 -0.4451
  185SAPI   H4S21197   6.274   0.643  10.402  2.4719 -1.8962  1.6406
  185SAPI   C2521198   6.095   0.720  10.504 -0.4393 -0.5217  0.3658
  185SAPI   H5R21199   6.050   0.715  10.604 -0.0666  0.6957  0.6079
  185SAPI   C2621200   6.043   0.809  10.412 -0.3098  0.3176  0.4238
  185SAPI   H6R21201   5.954   0.864  10.447 -0.1749 -0.7121  2.5291
  185SAPI   C2721202   6.075   0.820  10.270 -0.2366 -0.0252  0.0761
  185SAPI   H7R21203   5.984   0.851  10.215 -0.3155 -2.0026 -0.9831
  185SAPI   H7S21204   6.112   0.729  10.219  0.5536  0.1789  0.2712
  185SAPI   C2821205   6.181   0.916  10.237 -0.3388 -0.2906  0.6707
  185SAPI   H8R21206   6.266   0.902  10.305 -0.6791  1.7795  1.6125
  185SAPI   C2921207   6.169   1.032  10.166 -0.6397 -0.2671  0.4877
  185SAPI   H9R21208   6.259   1.094  10.152 -0.2006 -1.3877 -2.2901
  185SAPI  C21021209   6.046   1.074  10.090 -0.7233 -0.0758 -0.5713
  185SAPI  H10R21210   5.961   1.076  10.162 -0.4088 -2.0146 -0.0918
  185SAPI  H10S21211   6.030   0.992  10.017 -2.0488  0.8330 -1.3418
  185SAPI  C21121212   6.065   1.214  10.030 -0.1757  0.1149 -0.5815
  185SAPI  H11R21213   6.113   1.288  10.097  0.5153 -1.7675  1.1001
  185SAPI  C21221214   6.027   1.256   9.909  0.3271  0.3765  0.4931
  185SAPI  H12R21215   6.031   1.361   9.876  0.1322  0.3502  0.3871
  185SAPI  C21321216   5.957   1.176   9.804 -0.4139  0.0295 -0.1360
  185SAPI  H13R21217   6.014   1.082   9.789  0.7880  0.3366  2.0927
  185SAPI  H13S21218   5.972   1.235   9.711  2.2270  0.0609  0.2438
  185SAPI  C21421219   5.810   1.158   9.834 -0.1633 -0.1829  0.5385
  185SAPI  H14R21220   5.766   1.227   9.907  1.4419  0.9122  0.5006
  185SAPI  C21521221   5.724   1.077   9.769 -0.9761 -0.6201  0.5625
  185SAPI  H15R21222   5.619   1.093   9.796 -0.2381  1.9318  2.2540
  185SAPI  C21621223   5.742   0.975   9.658 -0.3021 -0.4152  0.8201
  185SAPI  H16R21224   5.694   0.879   9.687  0.2909 -0.3158  2.2179
  185SAPI  H16S21225   5.849   0.950   9.644  0.0137  0.7287  1.0357
  185SAPI  C21721226   5.681   1.005   9.528  0.6337 -0.4273 -0.3988
  185SAPI  H17R21227   5.575   1.034   9.546  0.1671 -1.0540 -1.9736
  185SAPI  H17S21228   5.679   0.913   9.467 -1.7933 -1.0092  0.4454
  185SAPI  C21821229   5.760   1.110   9.450  0.0590  0.5333 -0.5945
  185SAPI  H18R21230   5.870   1.091   9.448  0.0473  0.5288 -1.5630
  185SAPI  H18S21231   5.753   1.212   9.492  2.2462  0.5643 -0.1457
  185SAPI  C21921232   5.729   1.113   9.300 -0.6000  0.1893  0.8137
  185SAPI  H19R21233   5.689   1.012   9.276 -0.0448  0.2663 -0.5089
  185SAPI  H19S21234   5.825   1.115   9.245 -1.2420  0.6466 -0.3169
  185SAPI  C22021235   5.643   1.228   9.255  0.0515  0.6575 -0.3252
  185SAPI  H20R21236   5.621   1.211   9.148  0.1512 -0.8899 -0.1250
  185SAPI  H20S21237   5.699   1.322   9.274  1.6195 -0.5268  1.2140
  185SAPI  H20T21238   5.548   1.223   9.312  1.3715 -0.9955  1.9247
  185SAPI   C3321239   6.675   1.250  10.302 -0.0037  1.0936 -0.1575
  185SAPI   H3X21240   6.672   1.142  10.328 -0.6766  0.5772 -2.1521
  185SAPI   H3Y21241   6.768   1.266  10.244  0.7055  0.8610  0.8834
  185SAPI   C3421242   6.560   1.282  10.213 -0.0625 -0.3285  0.6679
  185SAPI   H4X21243   6.569   1.392  10.200  0.0592 -0.4021  0.0901
  185SAPI   H4Y21244   6.461   1.268  10.263  0.1027 -0.4701  0.9603
  185SAPI   C3521245   6.556   1.216  10.073 -0.1352  0.2243  0.3647
  185SAPI   H5X21246   6.539   1.107  10.075  0.0202  0.1991  0.2948
  185SAPI   H5Y21247   6.651   1.227  10.015 -1.1800  0.7166 -1.3519
  185SAPI   C3621248   6.432   1.271   9.988 -0.2051 -1.1668  0.1988
  185SAPI   H6X21249   6.343   1.289  10.052 -1.3536 -1.9535 -1.1229
  185SAPI   H6Y21250   6.399   1.187   9.924 -3.0456 -1.5981  2.0451
  185SAPI   C3721251   6.461   1.399   9.911  0.8914 -0.4453  0.2437
  185SAPI   H7X21252   6.554   1.387   9.852  1.3098  0.6429  0.6427
  185SAPI   H7Y21253   6.474   1.490   9.974 -0.7784 -0.1854  0.2535
  185SAPI   C3821254   6.344   1.436   9.810  0.2075 -0.3922  0.2912
  185SAPI   H8X21255   6.352   1.539   9.770 -3.5985  0.0434  0.3059
  185SAPI   H8Y21256   6.242   1.420   9.852 -0.7750  0.4354 -1.6645
  185SAPI   C3921257   6.337   1.344   9.678  0.4858  0.1093 -0.4323
  185SAPI   H9X21258   6.258   1.402   9.626  3.2503  4.1816 -0.5136
  185SAPI   H9Y21259   6.310   1.242   9.712  0.7930  0.4567  0.9110
  185SAPI  C31021260   6.470   1.331   9.603 -0.5142 -0.6151  0.3104
  185SAPI  H10X21261   6.549   1.291   9.670 -2.1346  0.5593  3.0784
  185SAPI  H10Y21262   6.500   1.433   9.570 -1.3499 -0.4669  0.0015
  185SAPI  C31121263   6.471   1.240   9.477 -0.2875  0.3200  0.7562
  185SAPI  H11X21264   6.426   1.141   9.504  0.1296 -0.3896 -1.0093
  185SAPI  H11Y21265   6.579   1.228   9.453 -1.0194 -0.4703 -2.5556
  185SAPI  C31221266   6.384   1.301   9.361 -1.0387 -0.1758  0.4929
  185SAPI  H12X21267   6.306   1.360   9.415 -0.3348  0.4634  0.8282
  185SAPI  H12Y21268   6.339   1.216   9.306  0.3120 -0.8566  0.4023
  185SAPI  C31321269   6.464   1.392   9.275  0.1350 -0.1210  0.4970
  185SAPI  H13X21270   6.538   1.341   9.209  1.3964  2.1941  0.0367
  185SAPI  H13Y21271   6.525   1.467   9.329 -2.2130  2.7399 -0.5852
  185SAPI  C31421272   6.376   1.464   9.174  0.5924 -0.0318  0.7315
  185SAPI  H14X21273   6.427   1.559   9.147 -0.4823  0.1807 -0.6579
  185SAPI  H14Y21274   6.281   1.493   9.224  0.6728  0.8125  0.4196
  185SAPI  C31521275   6.336   1.374   9.045 -0.7110  0.8177 -0.2111
  185SAPI  H15X21276   6.285   1.284   9.085 -1.0419  1.1897  0.2192
  185SAPI  H15Y21277   6.433   1.347   8.999 -0.2604  2.0462 -0.0223
  185SAPI  C31621278   6.258   1.450   8.942  0.5768  0.5106 -0.4308
  185SAPI  H16X21279   6.291   1.555   8.928  0.8127  0.4855 -0.0830
  185SAPI  H16Y21280   6.155   1.459   8.983  0.5451 -0.6639 -0.2224
  185SAPI  C31721281   6.240   1.369   8.812  0.3993  1.8229 -0.8191
  185SAPI  H17X21282   6.175   1.282   8.832  2.1365  0.4473 -0.9615
  185SAPI  H17Y21283   6.340   1.342   8.773 -0.7778 -1.0906 -2.1371
  185SAPI  C31821284   6.180   1.465   8.707  0.2630 -0.5711 -0.4907
  185SAPI  H18X21285   6.186   1.410   8.611 -0.7770 -1.6313  0.0256
  185SAPI  H18Y21286   6.236   1.560   8.704 -0.9903  0.4104  2.8305
  185SAPI  H18Z21287   6.077   1.501   8.727  0.5143  0.1685 -0.5198
  186SAPI   C1221288   1.840   3.048  11.051  0.1409 -0.4966  0.2837
  186SAPI    H221289   1.823   3.008  10.948  2.4680 -0.8854 -0.0066
  186SAPI    O221290   1.746   2.988  11.143 -0.4025 -0.2761  0.7697
  186SAPI   HO221291   1.706   2.908  11.110 -0.6268  0.3857 -0.6477
  186SAPI   C1321292   1.991   3.021  11.089  0.0309  0.0893  0.0333
  186SAPI    H321293   2.064   3.070  11.021  4.0427 -3.1017  1.6546
  186SAPI    O321294   2.029   2.883  11.079 -0.0095 -0.3857  0.1351
  186SAPI   HO321295   2.124   2.891  11.063 -0.0419  0.8830  0.4381
  186SAPI   C1421296   2.008   3.080  11.232  0.1098 -0.0339 -1.0046
  186SAPI    H421297   1.932   3.028  11.295 -0.3297  0.7375 -0.8791
  186SAPI    O421298   2.131   3.045  11.294  0.2534 -0.3436  0.6548
  186SAPI   HO421299   2.201   3.101  11.259  0.5424 -1.5803 -0.9133
  186SAPI   C1521300   1.985   3.232  11.235 -0.4019  0.3971  0.2537
  186SAPI    H521301   2.048   3.286  11.161 -2.1481  2.6067  0.2683
  186SAPI    O521302   2.008   3.291  11.362 -0.1599  0.0830 -0.0599
  186SAPI   HO521303   2.085   3.249  11.402  0.8991  0.7786 -1.2922
  186SAPI   C1621304   1.843   3.261  11.189 -0.6080 -0.5220 -0.3529
  186SAPI    H621305   1.772   3.232  11.270  1.0157  2.8927  2.5483
  186SAPI    O621306   1.814   3.402  11.177 -0.7128 -0.6121 -0.1649
  186SAPI   HO621307   1.730   3.410  11.132 -1.1309  0.6427  0.7928
  186SAPI   C1121308   1.816   3.203  11.044  0.2575  0.1780 -0.0168
  186SAPI    H121309   1.892   3.247  10.977  0.9379  0.3778  0.8735
  186SAPI     P21310   1.673   3.293  10.839 -0.3769  0.1229 -0.0147
  186SAPI   O1321311   1.533   3.325  10.803  0.0263 -0.7344  0.0354
  186SAPI   O1421312   1.754   3.216  10.744 -0.4421  0.1908  0.1202
  186SAPI   O1221313   1.680   3.223  10.993  0.2380 -0.5759 -0.2392
  186SAPI   O1121314   1.738   3.439  10.867  0.2763 -0.5341 -0.1205
  186SAPI    C121315   1.872   3.477  10.826 -0.1395  0.7580  0.3860
  186SAPI    HA21316   1.924   3.522  10.914 -0.2734 -2.8068  2.4929
  186SAPI    HB21317   1.925   3.395  10.773  2.1192  1.8046  0.9129
  186SAPI    C221318   1.874   3.592  10.725  0.1263 -0.7812 -0.0190
  186SAPI    HS21319   1.813   3.673  10.769 -1.8810 -3.2836  2.0604
  186SAPI   O2121320   1.823   3.545  10.593 -0.0077  0.5084 -0.1031
  186SAPI   C2121321   1.696   3.562  10.571 -0.1622 -0.5844  0.7056
  186SAPI   O2221322   1.620   3.629  10.642 -0.4434 -0.5039  0.3889
  186SAPI   C2221323   1.653   3.480  10.455  0.3077 -0.4694  0.2848
  186SAPI   H2R21324   1.747   3.431  10.422  0.4123  0.0361 -0.1755
  186SAPI   H2S21325   1.573   3.408  10.486  0.4903 -1.8752 -2.2465
  186SAPI    C321326   2.014   3.652  10.706  0.7420  0.4041  0.3848
  186SAPI    HX21327   2.076   3.564  10.680 -1.0958 -0.8672  0.0651
  186SAPI    HY21328   2.046   3.700  10.801  0.0000 -0.1877  0.9527
  186SAPI   O3121329   2.006   3.756  10.602 -0.4317  0.0133  0.5737
  186SAPI   C3121330   2.116   3.834  10.596 -0.0473 -0.0488  0.3619
  186SAPI   O3221331   2.208   3.834  10.681 -0.1655 -0.2182  0.2572
  186SAPI   C3221332   2.107   3.932  10.480  0.0240 -0.2895 -0.5531
  186SAPI   H2X21333   2.161   4.025  10.508 -2.6612  1.1117  0.3577
  186SAPI   H2Y21334   2.003   3.959  10.449  0.7843  2.6482 -0.9029
  186SAPI   C2321335   1.592   3.569  10.344  0.6463 -0.3024  1.1239
  186SAPI   H3R21336   1.519   3.642  10.386 -1.0823 -0.0062 -2.1057
  186SAPI   H3S21337   1.541   3.503  10.272  1.1912  1.6879 -1.2203
  186SAPI   C2421338   1.682   3.650  10.251  0.4467 -0.0051 -0.6114
  186SAPI   H4R21339   1.756   3.584  10.201 -0.1383  0.1077 -1.6639
  186SAPI   H4S21340   1.741   3.724  10.310 -1.8480  0.6751  0.9961
  186SAPI   C2521341   1.610   3.730  10.147  0.0776  0.2933  0.4760
  186SAPI   H5R21342   1.521   3.777  10.192 -0.4363 -0.4226  0.2455
  186SAPI   C2621343   1.645   3.744  10.014 -0.4638 -0.6106 -0.3576
  186SAPI   H6R21344   1.578   3.797   9.944 -0.1016  0.4201  0.0635
  186SAPI   C2721345   1.770   3.689   9.953 -0.2942 -0.8843  0.2521
  186SAPI   H7R21346   1.755   3.667   9.845  0.8127 -0.9873  0.1037
  186SAPI   H7S21347   1.794   3.595  10.007 -2.5042 -1.9944 -0.5864
  186SAPI   C2821348   1.882   3.786   9.979  0.4347 -0.1394  0.5218
  186SAPI   H8R21349   1.925   3.770  10.080 -1.7264 -2.6906  1.1575
  186SAPI   C2921350   1.933   3.868   9.882 -0.1029 -0.2079 -0.9551
  186SAPI   H9R21351   2.018   3.933   9.905 -0.4300  0.7788 -2.4166
  186SAPI  C21021352   1.877   3.886   9.738 -0.1309  0.3062 -0.0213
  186SAPI  H10R21353   1.847   3.992   9.718 -0.1258  0.3089 -0.0151
  186SAPI  H10S21354   1.784   3.830   9.714 -1.4412  1.5892  1.7200
  186SAPI  C21121355   1.979   3.860   9.638 -0.2917  0.2605  0.0123
  186SAPI  H11R21356   2.081   3.869   9.679 -0.9016  0.1347  1.6093
  186SAPI  C21221357   1.965   3.795   9.519  0.4865  0.0329  0.5807
  186SAPI  H12R21358   2.046   3.787   9.446 -1.4864 -0.3167 -1.6606
  186SAPI  C21321359   1.838   3.739   9.458 -0.9961 -0.0221 -0.7320
  186SAPI  H13R21360   1.772   3.715   9.544 -1.8613  3.2576 -0.3574
  186SAPI  H13S21361   1.857   3.637   9.418  1.2227 -1.2664  2.9629
  186SAPI  C21421362   1.770   3.833   9.358 -0.3495  0.4012  0.1326
  186SAPI  H14R21363   1.695   3.898   9.405  0.0200  0.3635  0.7983
  186SAPI  C21521364   1.794   3.844   9.228 -0.4037  0.2221 -0.6638
  186SAPI  H15R21365   1.737   3.914   9.165  0.7133  2.5812  0.8084
  186SAPI  C21621366   1.902   3.764   9.152  0.5013  0.3218 -0.3472
  186SAPI  H16R21367   1.978   3.723   9.222  0.0638  0.9124  0.4912
  186SAPI  H16S21368   1.941   3.841   9.081 -0.2851 -1.5417 -2.9392
  186SAPI  C21721369   1.853   3.651   9.069 -0.3007  0.5686 -0.1436
  186SAPI  H17R21370   1.743   3.657   9.054 -0.2146  1.2602 -0.5077
  186SAPI  H17S21371   1.869   3.553   9.119 -1.7844  0.0973 -0.5653
  186SAPI  C21821372   1.924   3.643   8.937  0.7683  0.2675 -0.2910
  186SAPI  H18R21373   1.918   3.541   8.892 -3.1999 -0.5093  1.5445
  186SAPI  H18S21374   2.031   3.649   8.964  0.2474 -0.3989  2.1959
  186SAPI  C21921375   1.876   3.742   8.832 -0.0238  0.4587 -0.0450
  186SAPI  H19R21376   1.902   3.843   8.870 -0.6499  0.3879  0.5793
  186SAPI  H19S21377   1.767   3.728   8.822 -0.0328  0.0597  0.5812
  186SAPI  C22021378   1.944   3.730   8.695  0.1968  0.8670  0.1546
  186SAPI  H20R21379   1.933   3.628   8.653 -0.5528  1.1537 -0.3610
  186SAPI  H20S21380   2.052   3.757   8.701  0.0796  1.2280  0.6700
  186SAPI  H20T21381   1.897   3.810   8.634 -1.5268 -1.7605 -2.1735
  186SAPI   C3321382   2.169   3.867  10.353  0.8763  0.0133  0.2874
  186SAPI   H3X21383   2.126   3.766  10.337 -1.1283  1.0756 -1.5550
  186SAPI   H3Y21384   2.276   3.843  10.370  1.1278  0.3773 -0.7254
  186SAPI   C3421385   2.152   3.957  10.227 -0.2589 -0.1177  0.5102
  186SAPI   H4X21386   2.174   4.059  10.265 -0.0134 -1.0330  3.0303
  186SAPI   H4Y21387   2.052   3.950  10.178 -0.1365 -0.0041  0.2450
  186SAPI   C3521388   2.258   3.925  10.121 -0.2202 -0.2956 -0.5241
  186SAPI   H5X21389   2.227   3.832  10.067  1.3398 -1.6229  0.7731
  186SAPI   H5Y21390   2.359   3.904  10.160  0.6739 -1.4637 -3.2080
  186SAPI   C3621391   2.259   4.022  10.013  0.8442 -0.6852  0.1622
  186SAPI   H6X21392   2.344   4.093  10.030  1.5333  0.1019 -5.0061
  186SAPI   H6Y21393   2.160   4.073  10.009  0.6895 -0.9274  0.7251
  186SAPI   C3721394   2.288   3.947   9.883  0.2184  0.1371 -0.7812
  186SAPI   H7X21395   2.225   3.860   9.856 -0.1757  0.1064  0.2117
  186SAPI   H7Y21396   2.391   3.908   9.900  0.2129  1.1082  1.9944
  186SAPI   C3821397   2.289   4.044   9.768 -0.2638 -0.2023 -0.2002
  186SAPI   H8X21398   2.355   4.132   9.788 -1.7552  1.0547 -0.5916
  186SAPI   H8Y21399   2.190   4.082   9.736  0.0713  1.9980  1.1610
  186SAPI   C3921400   2.351   3.977   9.642 -0.1131 -0.6138 -0.1336
  186SAPI   H9X21401   2.284   3.893   9.613 -0.7870 -0.1139 -0.0473
  186SAPI   H9Y21402   2.451   3.939   9.671  0.3017  0.1598 -0.5307
  186SAPI  C31021403   2.369   4.074   9.521  0.4051  0.0933 -0.0916
  186SAPI  H10X21404   2.452   4.142   9.549  0.1256  1.9131 -3.2409
  186SAPI  H10Y21405   2.286   4.144   9.502 -1.0488 -1.6539 -0.4270
  186SAPI  C31121406   2.398   3.998   9.387 -0.0950 -0.3001 -0.0301
  186SAPI  H11X21407   2.478   3.924   9.409  1.3542  0.4254 -2.5133
  186SAPI  H11Y21408   2.432   4.077   9.317 -1.6387  0.6939  0.2953
  186SAPI  C31221409   2.273   3.928   9.325 -0.0917 -0.6870 -0.5723
  186SAPI  H12X21410   2.195   4.007   9.330 -2.0788 -2.5705 -0.3856
  186SAPI  H12Y21411   2.247   3.845   9.394  2.9671 -1.1629  0.1515
  186SAPI  C31321412   2.292   3.866   9.186  0.2797 -0.4291 -0.2746
  186SAPI  H13X21413   2.210   3.791   9.176 -1.0246  1.0768 -1.3158
  186SAPI  H13Y21414   2.390   3.812   9.181  1.6016  1.2421  3.5760
  186SAPI  C31421415   2.261   3.963   9.065 -0.0771  0.5349  0.0751
  186SAPI  H14X21416   2.338   4.044   9.066  0.5408 -0.0506  0.2824
  186SAPI  H14Y21417   2.160   4.009   9.077 -0.3856 -0.6131  2.3870
  186SAPI  C31521418   2.271   3.901   8.927 -0.1426  0.1056 -0.3038
  186SAPI  H15X21419   2.192   3.824   8.922  0.9924 -1.0279 -1.9425
  186SAPI  H15Y21420   2.367   3.846   8.913  0.9167  1.1354  2.1814
  186SAPI  C31621421   2.237   4.000   8.816  0.3196  0.2288  0.0760
  186SAPI  H16X21422   2.159   4.076   8.839 -1.5796 -0.3677 -3.6569
  186SAPI  H16Y21423   2.187   3.937   8.740  0.2940  0.1532  0.1556
  186SAPI  C31721424   2.364   4.065   8.756 -0.3709 -0.8072 -0.1471
  186SAPI  H17X21425   2.436   4.108   8.828 -0.0165 -0.9064 -0.4400
  186SAPI  H17Y21426   2.326   4.154   8.702  0.2878  1.1564  2.4043
  186SAPI  C31821427   2.440   3.967   8.669  0.7217  0.0496  0.5983
  186SAPI  H18X21428   2.527   4.005   8.612  0.4209 -2.1653 -1.5060
  186SAPI  H18Y21429   2.369   3.919   8.599  2.7600 -0.5320 -1.1810
  186SAPI  H18Z21430   2.471   3.876   8.725 -1.7813 -1.4594 -0.2885
  187SAPI   C1221431   5.815   5.350   6.294  0.2960 -0.7201  0.0698
  187SAPI    H221432   5.838   5.320   6.399 -0.0736  1.3365  0.7685
  187SAPI    O221433   5.841   5.249   6.204 -0.0468  0.5543  0.2226
  187SAPI   HO221434   5.886   5.177   6.250 -0.1626 -0.6846 -1.5245
  187SAPI   C1321435   5.669   5.381   6.297  0.9869 -0.1360  0.5896
  187SAPI    H321436   5.650   5.462   6.370 -3.7239 -0.2727 -0.2100
  187SAPI    O321437   5.596   5.266   6.334  0.5056  0.5173 -0.0467
  187SAPI   HO321438   5.596   5.206   6.259  0.7697 -1.0909  1.1821
  187SAPI   C1421439   5.632   5.438   6.152  0.4299  0.4781 -0.3383
  187SAPI    H421440   5.642   5.353   6.080  0.2355 -0.2883  0.5238
  187SAPI    O421441   5.498   5.492   6.155  0.2656  0.2333  0.6501
  187SAPI   HO421442   5.493   5.584   6.126 -2.7979  0.5361  1.7161
  187SAPI   C1521443   5.723   5.552   6.111 -0.6552  0.0659  0.0293
  187SAPI    H521444   5.702   5.640   6.175 -1.8334 -0.6990  0.7347
  187SAPI    O521445   5.692   5.593   5.979 -0.3646 -0.1569 -0.0048
  187SAPI   HO521446   5.715   5.683   5.956  1.2419 -0.6906 -0.6002
  187SAPI   C1621447   5.869   5.525   6.125  0.0851  0.1505 -0.1926
  187SAPI    H621448   5.916   5.453   6.055  1.0144  1.5987 -1.1339
  187SAPI    O621449   5.948   5.641   6.096  0.1527  0.6008  0.1214
  187SAPI   HO621450   5.976   5.670   6.183 -0.3811  0.0370  0.4833
  187SAPI   C1121451   5.896   5.481   6.270  0.5059 -0.5105 -0.1222
  187SAPI    H121452   5.853   5.558   6.337 -1.0239 -0.1853 -1.4112
  187SAPI     P21453   6.123   5.557   6.377  0.1940 -0.2933  0.1114
  187SAPI   O1321454   6.059   5.688   6.349 -0.7661 -0.4483  0.2157
  187SAPI   O1421455   6.266   5.542   6.357  0.0986 -0.4626 -0.0344
  187SAPI   O1221456   6.031   5.444   6.291  0.1969 -0.1673  0.2992
  187SAPI   O1121457   6.105   5.526   6.532 -0.2393 -0.3159 -0.3132
  187SAPI    C121458   6.102   5.390   6.587  0.9950  0.1635 -0.1390
  187SAPI    HA21459   6.007   5.374   6.643 -0.8856 -0.7949 -3.3568
  187SAPI    HB21460   6.089   5.319   6.503 -0.6717  2.1887 -1.7211
  187SAPI    C221461   6.223   5.347   6.674  0.2577  0.0994  0.2578
  187SAPI    HS21462   6.222   5.237   6.691  1.1362 -0.2266 -1.5373
  187SAPI   O2121463   6.229   5.427   6.793  0.2286 -0.0089 -0.1341
  187SAPI   C2121464   6.125   5.388   6.871 -0.3367  0.3382  0.1305
  187SAPI   O2221465   6.053   5.290   6.856 -0.3863  0.1663 -0.5100
  187SAPI   C2221466   6.113   5.482   6.986  0.6006  0.8837 -0.7633
  187SAPI   H2R21467   6.202   5.547   6.996  0.7955  0.6043 -0.6598
  187SAPI   H2S21468   6.030   5.551   6.961 -0.9604 -0.8636 -0.6413
  187SAPI    C321469   6.358   5.363   6.602  0.5006  0.2345 -0.2232
  187SAPI    HX21470   6.377   5.473   6.595  3.3290 -0.1411  0.5054
  187SAPI    HY21471   6.345   5.321   6.500  2.5071 -1.3821  0.1329
  187SAPI   O3121472   6.470   5.316   6.669 -0.2821  0.1519 -0.0992
  187SAPI   C3121473   6.511   5.200   6.661  0.2510 -0.3305  0.8787
  187SAPI   O3221474   6.452   5.098   6.629 -0.0975  0.4159  0.7982
  187SAPI   C3221475   6.658   5.202   6.709 -0.1125  0.1498 -0.8227
  187SAPI   H2X21476   6.714   5.276   6.648 -0.3915 -0.0813 -1.3708
  187SAPI   H2Y21477   6.693   5.097   6.712 -1.4713 -0.3069  1.0832
  187SAPI   C2321478   6.090   5.402   7.121 -0.1727 -0.0768 -0.1093
  187SAPI   H3R21479   5.995   5.345   7.122 -0.0775 -0.4367  3.7848
  187SAPI   H3S21480   6.066   5.478   7.198  1.6336 -0.9969  1.4555
  187SAPI   C2421481   6.216   5.332   7.167 -0.5222 -0.0855 -0.5942
  187SAPI   H4R21482   6.244   5.255   7.091 -0.0772  1.2511 -1.8472
  187SAPI   H4S21483   6.172   5.279   7.254  0.1521 -1.3805 -1.0097
  187SAPI   C2521484   6.339   5.416   7.210  0.9183  0.4775 -0.0659
  187SAPI   H5R21485   6.403   5.433   7.122  0.0224 -0.8172 -1.0027
  187SAPI   C2621486   6.384   5.440   7.335 -0.4292 -0.4318  0.2810
  187SAPI   H6R21487   6.475   5.501   7.347 -1.0435  0.4037  0.8753
  187SAPI   C2721488   6.314   5.405   7.462 -0.3077  1.0772 -0.2174
  187SAPI   H7R21489   6.391   5.352   7.520  1.5391  1.3625 -2.2627
  187SAPI   H7S21490   6.230   5.333   7.453  0.8078 -0.4162  0.8854
  187SAPI   C2821491   6.252   5.531   7.516 -0.4304  0.4585 -0.7271
  187SAPI   H8R21492   6.193   5.592   7.447  0.9368  0.8731 -1.5568
  187SAPI   C2921493   6.256   5.572   7.643  0.6085 -0.1301  0.3228
  187SAPI   H9R21494   6.202   5.665   7.662  1.3254  1.2725 -3.5577
  187SAPI  C21021495   6.323   5.507   7.764  0.9480 -0.3413  0.5136
  187SAPI  H10R21496   6.365   5.407   7.738 -2.3124 -1.4062 -1.2872
  187SAPI  H10S21497   6.238   5.485   7.832  1.7573 -1.4082  1.2141
  187SAPI  C21121498   6.429   5.597   7.828  0.0346  0.6037 -0.0709
  187SAPI  H11R21499   6.505   5.643   7.763  1.2529 -0.7142  0.3462
  187SAPI  C21221500   6.442   5.611   7.959 -1.0417  0.1036  0.0150
  187SAPI  H12R21501   6.531   5.667   7.992 -2.0628  2.4828 -1.0806
  187SAPI  C21321502   6.376   5.553   8.082 -0.5796  0.1711 -0.1279
  187SAPI  H13R21503   6.450   5.508   8.150  0.3730  0.1607 -1.1378
  187SAPI  H13S21504   6.302   5.472   8.065 -0.5089 -0.1124  0.8942
  187SAPI  C21421505   6.304   5.679   8.133  0.0872 -0.6415 -0.5282
  187SAPI  H14R21506   6.233   5.731   8.066 -0.4363 -0.5559  0.0777
  187SAPI  C21521507   6.310   5.738   8.255  0.3997  0.1380  0.1530
  187SAPI  H15R21508   6.254   5.827   8.287  1.2722  0.9694 -0.5707
  187SAPI  C21621509   6.406   5.690   8.355 -0.1909 -0.2447  0.3034
  187SAPI  H16R21510   6.435   5.770   8.427  0.9410 -1.2469  0.9769
  187SAPI  H16S21511   6.499   5.654   8.307 -1.5719 -0.8305 -2.1245
  187SAPI  C21721512   6.347   5.571   8.423  0.0001  0.1204  0.3787
  187SAPI  H17R21513   6.356   5.485   8.354  0.7445  0.0922  0.5095
  187SAPI  H17S21514   6.241   5.587   8.453 -0.2044  0.5022 -0.5086
  187SAPI  C21821515   6.424   5.516   8.552 -0.8810  0.1376  0.2113
  187SAPI  H18R21516   6.407   5.589   8.634  1.8198  1.7102 -0.5034
  187SAPI  H18S21517   6.534   5.511   8.538 -0.8235  0.3117  0.6054
  187SAPI  C21921518   6.360   5.386   8.585  0.4900  0.6789 -0.2623
  187SAPI  H19R21519   6.389   5.318   8.502 -0.2011  0.5796 -0.4310
  187SAPI  H19S21520   6.250   5.401   8.582  0.5548  1.1612 -3.2162
  187SAPI  C22021521   6.399   5.336   8.723 -0.8820  0.1660  0.4313
  187SAPI  H20R21522   6.507   5.312   8.719 -1.3273 -1.8218 -1.6674
  187SAPI  H20S21523   6.337   5.246   8.742 -0.0050 -0.7404 -0.8382
  187SAPI  H20T21524   6.381   5.412   8.802 -3.5865  0.3540 -0.2522
  187SAPI   C3321525   6.675   5.230   6.857 -1.3561 -0.3457  0.4758
  187SAPI   H3X21526   6.636   5.333   6.869  0.5523  0.3035  1.6419
  187SAPI   H3Y21527   6.780   5.232   6.893 -0.3981  2.8328 -1.9985
  187SAPI   C3421528   6.618   5.123   6.952 -0.2836 -0.7046  0.0368
  187SAPI   H4X21529   6.683   5.033   6.947  1.6855  0.7254 -1.9360
  187SAPI   H4Y21530   6.522   5.084   6.912 -0.2620 -0.5361 -0.1812
  187SAPI   C3521531   6.607   5.154   7.105  0.1090 -0.1982  0.5233
  187SAPI   H5X21532   6.572   5.259   7.117  2.9024  0.9157 -0.2812
  187SAPI   H5Y21533   6.710   5.158   7.146  0.9931  0.6835 -1.6209
  187SAPI   C3621534   6.512   5.059   7.175  0.1119 -0.2372 -0.2440
  187SAPI   H6X21535   6.519   4.960   7.126 -1.4649 -1.0159  1.0190
  187SAPI   H6Y21536   6.405   5.083   7.154  0.1967 -0.0876 -0.5073
  187SAPI   C3721537   6.542   5.042   7.322  0.7030  0.6546 -0.8904
  187SAPI   H7X21538   6.532   5.139   7.376 -1.3236 -0.4014  0.7632
  187SAPI   H7Y21539   6.652   5.023   7.320  0.9300  1.8309 -0.6190
  187SAPI   C3821540   6.457   4.936   7.398 -0.9777 -0.5173 -0.1118
  187SAPI   H8X21541   6.453   4.838   7.346  2.5444 -0.4307 -0.8089
  187SAPI   H8Y21542   6.352   4.974   7.398 -1.2474 -1.1992 -1.3137
  187SAPI   C3921543   6.511   4.911   7.535  0.9006  1.1183 -0.5845
  187SAPI   H9X21544   6.617   4.878   7.532  0.8430  0.6245  1.6217
  187SAPI   H9Y21545   6.446   4.835   7.584  0.4552  2.0698  0.3521
  187SAPI  C31021546   6.511   5.033   7.616 -0.5016 -0.8290 -0.1646
  187SAPI  H10X21547   6.417   5.093   7.619 -0.4159 -0.7326  0.9237
  187SAPI  H10Y21548   6.583   5.096   7.559 -1.5103 -1.2016 -1.9479
  187SAPI  C31121549   6.555   5.017   7.757  0.2329 -0.7791  0.2046
  187SAPI  H11X21550   6.660   4.982   7.767  2.2134  3.7861 -1.8325
  187SAPI  H11Y21551   6.493   4.934   7.799 -0.0134  0.0660  1.5618
  187SAPI  C31221552   6.529   5.128   7.858 -0.0763  0.0581  0.4487
  187SAPI  H12X21553   6.430   5.167   7.825  0.6223 -0.0204 -1.9347
  187SAPI  H12Y21554   6.612   5.201   7.846 -0.3389  0.5827  1.7215
  187SAPI  C31321555   6.512   5.077   8.000 -0.4424  0.3715 -0.0426
  187SAPI  H13X21556   6.436   4.996   7.995 -0.9761  0.9276 -1.7256
  187SAPI  H13Y21557   6.476   5.156   8.070 -1.7481 -3.5656  4.1690
  187SAPI  C31421558   6.637   5.002   8.049  0.5231 -0.3352  0.0967
  187SAPI  H14X21559   6.709   5.081   8.078 -0.0196  0.3687 -0.4328
  187SAPI  H14Y21560   6.687   4.955   7.961 -0.0212  1.3433 -1.1844
  187SAPI  C31521561   6.611   4.917   8.174  0.0835 -0.1446 -0.5807
  187SAPI  H15X21562   6.537   4.840   8.144 -0.1055 -0.7434  1.3040
  187SAPI  H15Y21563   6.568   4.985   8.251 -1.4454 -1.9995  0.2736
  187SAPI  C31621564   6.731   4.855   8.244  0.1684  0.4919  0.4823
  187SAPI  H16X21565   6.766   4.772   8.179 -1.5244 -1.0339  1.3989
  187SAPI  H16Y21566   6.701   4.793   8.332  3.8242  0.2261  1.7121
  187SAPI  C31721567   6.843   4.936   8.290  0.5567  0.3868 -0.3186
  187SAPI  H17X21568   6.796   5.009   8.359  1.5880  1.6569 -0.9045
  187SAPI  H17Y21569   6.894   4.994   8.210 -0.5798 -0.4791 -1.7431
  187SAPI  C31821570   6.943   4.855   8.368 -0.0339 -0.7315  0.4906
  187SAPI  H18X21571   6.907   4.802   8.458  1.4938 -0.0184  1.5764
  187SAPI  H18Y21572   7.028   4.923   8.390  0.9034 -1.5919 -0.3497
  187SAPI  H18Z21573   6.989   4.775   8.307  0.1216 -0.6653  0.5208
  188SAPI   C1221574   4.993   1.706   6.196  0.5610 -0.2271  0.7543
  188SAPI    H221575   5.004   1.805   6.247  3.1059 -0.4930  0.8273
  188SAPI    O221576   4.938   1.739   6.070  0.6049 -0.3451  0.3486
  188SAPI   HO221577   4.844   1.755   6.086  0.6083  1.5729 -1.1700
  188SAPI   C1321578   5.133   1.653   6.186  0.0877  0.0613  0.2438
  188SAPI    H321579   5.177   1.640   6.286  2.0738  1.6720 -0.3589
  188SAPI    O321580   5.221   1.741   6.122  0.1610  0.4639 -0.3675
  188SAPI   HO321581   5.271   1.681   6.065 -0.6652 -0.6458  0.0255
  188SAPI   C1421582   5.127   1.520   6.119 -0.9705 -1.1462  0.2377
  188SAPI    H421583   5.084   1.537   6.018  0.6883 -0.7028 -0.4306
  188SAPI    O421584   5.255   1.466   6.096  0.4962 -0.1547 -0.0539
  188SAPI   HO421585   5.316   1.493   6.166  0.7015  1.4559 -0.7957
  188SAPI   C1521586   5.029   1.430   6.186  0.0073 -0.4416  0.6945
  188SAPI    H521587   5.070   1.412   6.287  2.4866 -1.6150 -0.4283
  188SAPI    O521588   5.034   1.297   6.123 -0.1251 -0.4973 -0.2483
  188SAPI   HO521589   5.045   1.241   6.201 -2.1534 -0.4589  0.1246
  188SAPI   C1621590   4.886   1.492   6.195 -0.1831  0.5885 -0.0445
  188SAPI    H621591   4.846   1.517   6.094  1.0904  0.3102 -0.6471
  188SAPI    O621592   4.796   1.403   6.262 -0.0907 -0.4518  0.3369
  188SAPI   HO621593   4.831   1.409   6.350  0.4091  0.5816  0.0848
  188SAPI   C1121594   4.904   1.615   6.282 -0.0712 -0.1628  0.8905
  188SAPI    H121595   4.957   1.585   6.375  1.5144 -1.6738 -0.4204
  188SAPI     P21596   4.771   1.811   6.402  0.4705 -0.4071 -0.4718
  188SAPI   O1321597   4.692   1.923   6.348  0.1580  0.0420  0.2918
  188SAPI   O1421598   4.905   1.839   6.461  0.1339  0.1003 -0.1596
  188SAPI   O1221599   4.782   1.686   6.297  0.5544  0.2678 -0.5014
  188SAPI   O1121600   4.678   1.741   6.512  0.0710  0.0322  0.0993
  188SAPI    C121601   4.717   1.627   6.594 -0.5425 -0.3040 -0.0390
  188SAPI    HA21602   4.643   1.545   6.584 -2.7385  1.7348 -1.5872
  188SAPI    HB21603   4.819   1.594   6.564 -0.4352  0.0652 -0.0897
  188SAPI    C221604   4.735   1.674   6.743  0.3546 -0.0980 -0.9222
  188SAPI    HS21605   4.760   1.584   6.803  0.9463 -0.1881 -1.2982
  188SAPI   O2121606   4.613   1.739   6.781  0.0320 -0.1855 -0.1801
  188SAPI   C2121607   4.570   1.699   6.897  0.1661  0.2482 -0.5344
  188SAPI   O2221608   4.617   1.610   6.966  0.1416 -0.1008 -0.0718
  188SAPI   C2221609   4.452   1.791   6.927  1.0440 -0.4193  0.9190
  188SAPI   H2R21610   4.399   1.800   6.830  0.9526 -0.7644  0.9357
  188SAPI   H2S21611   4.384   1.743   7.000  0.6537  1.6944  2.0216
  188SAPI    C321612   4.850   1.782   6.753 -0.3575  0.2143  0.1058
  188SAPI    HX21613   4.825   1.862   6.680 -0.5747 -0.2066 -0.2901
  188SAPI    HY21614   4.934   1.738   6.696 -0.3035  1.6415 -0.9673
  188SAPI   O3121615   4.878   1.817   6.889  0.2553 -0.2389  0.5248
  188SAPI   C3121616   4.983   1.898   6.918 -0.8590 -0.3740 -0.6269
  188SAPI   O3221617   5.069   1.926   6.835 -0.5119 -0.3575  0.3457
  188SAPI   C3221618   4.986   1.946   7.063 -1.0811 -1.0634  1.1588
  188SAPI   H2X21619   4.885   1.976   7.098 -0.9733  0.6940  0.0934
  188SAPI   H2Y21620   5.055   2.033   7.070 -0.0060 -1.5308 -1.9153
  188SAPI   C2321621   4.495   1.933   6.985 -0.5833  0.6620  0.1520
  188SAPI   H3R21622   4.407   2.000   6.988 -0.3104  1.0468 -0.4326
  188SAPI   H3S21623   4.561   1.988   6.915  0.3516  0.0678  0.5385
  188SAPI   C2421624   4.573   1.924   7.117  0.0209  0.6058  0.5026
  188SAPI   H4R21625   4.619   2.022   7.142 -0.3724  1.0393 -0.4426
  188SAPI   H4S21626   4.657   1.851   7.107  0.7741  1.5826 -0.5233
  188SAPI   C2521627   4.483   1.867   7.224 -0.8269 -0.2585 -0.3889
  188SAPI   H5R21628   4.394   1.809   7.196 -0.2720 -1.1371 -0.3629
  188SAPI   C2621629   4.487   1.898   7.358 -0.5803 -1.1418  0.2023
  188SAPI   H6R21630   4.414   1.845   7.421  0.0411 -0.4211  1.5536
  188SAPI   C2721631   4.567   2.002   7.436  0.2456 -0.3997  0.0416
  188SAPI   H7R21632   4.593   2.082   7.363 -0.5567  0.0522  0.2364
  188SAPI   H7S21633   4.668   1.963   7.459  0.2200 -0.0357  0.8177
  188SAPI   C2821634   4.503   2.048   7.568  0.3208  0.1810 -0.0310
  188SAPI   H8R21635   4.394   2.067   7.567 -0.2394 -2.6253  0.4819
  188SAPI   C2921636   4.558   2.081   7.684  0.0494  0.4253 -0.1251
  188SAPI   H9R21637   4.489   2.093   7.769  0.0510  1.8415 -0.3162
  188SAPI  C21021638   4.701   2.092   7.714 -0.1986  0.3982 -0.3217
  188SAPI  H10R21639   4.770   2.094   7.627  0.8354  0.2207  0.4853
  188SAPI  H10S21640   4.727   1.999   7.767 -2.2078 -0.2334 -0.3641
  188SAPI  C21121641   4.729   2.218   7.801 -0.6224 -0.2985  0.3710
  188SAPI  H11R21642   4.719   2.314   7.748 -0.0850 -0.4499 -0.0099
  188SAPI  C21221643   4.760   2.224   7.929 -0.3863 -0.1260 -0.1426
  188SAPI  H12R21644   4.771   2.326   7.969  1.0669  0.5962 -2.2157
  188SAPI  C21321645   4.770   2.109   8.032 -0.2508  0.0310 -0.4618
  188SAPI  H13R21646   4.674   2.056   8.019  0.5346 -1.0119 -2.3672
  188SAPI  H13S21647   4.776   2.145   8.137 -1.8134 -3.2495  0.8908
  188SAPI  C21421648   4.879   2.015   8.001  0.2585  0.1991  0.6941
  188SAPI  H14R21649   4.885   1.979   7.898  0.4423  1.2070  0.3432
  188SAPI  C21521650   4.965   1.963   8.087 -0.0395  0.3974 -0.3520
  188SAPI  H15R21651   5.033   1.885   8.049 -0.3767 -0.3594  0.5460
  188SAPI  C21621652   4.974   1.988   8.238  0.4952 -0.1217  0.6716
  188SAPI  H16R21653   4.873   2.006   8.280  0.5472  0.2518  0.6396
  188SAPI  H16S21654   5.024   2.083   8.268  0.4052 -0.4590  1.9384
  188SAPI  C21721655   5.039   1.874   8.321 -0.1935 -0.6715 -0.6600
  188SAPI  H17R21656   5.142   1.863   8.283 -0.2163 -0.5657 -0.7535
  188SAPI  H17S21657   4.979   1.782   8.312 -2.8039  1.0829 -2.9282
  188SAPI  C21821658   5.037   1.907   8.476 -0.4445 -0.7228  0.2513
  188SAPI  H18R21659   4.940   1.958   8.492 -1.2106 -1.3603 -1.9372
  188SAPI  H18S21660   5.118   1.979   8.500 -1.5209  1.1912 -1.5607
  188SAPI  C21921661   5.029   1.783   8.562  0.1754  0.3771 -0.0408
  188SAPI  H19R21662   5.119   1.721   8.541 -1.0478 -1.1929 -0.8813
  188SAPI  H19S21663   4.949   1.715   8.526 -0.9020  1.8390 -0.4996
  188SAPI  C22021664   5.009   1.806   8.714 -0.4353  0.3649 -0.1566
  188SAPI  H20R21665   5.098   1.855   8.758  0.1448  0.9329 -1.8881
  188SAPI  H20S21666   5.007   1.707   8.766 -0.1878  1.7795  2.7613
  188SAPI  H20T21667   4.915   1.860   8.738 -1.3978 -1.5461  0.6214
  188SAPI   C3321668   5.028   1.838   7.166  0.6485  0.4273  0.0927
  188SAPI   H3X21669   5.070   1.895   7.251  2.2532  0.0752 -0.4209
  188SAPI   H3Y21670   5.109   1.771   7.130  0.0627 -1.5851  2.2797
  188SAPI   C3421671   4.917   1.752   7.233  0.0249 -0.5157  0.2543
  188SAPI   H4X21672   4.900   1.675   7.154 -2.2476 -0.4655  0.6121
  188SAPI   H4Y21673   4.823   1.810   7.247 -0.2380 -0.4922 -1.3998
  188SAPI   C3521674   4.948   1.680   7.363 -0.5344  0.1577  0.2941
  188SAPI   H5X21675   5.041   1.622   7.344 -1.4367 -1.6068  1.0570
  188SAPI   H5Y21676   4.863   1.610   7.378  0.6279 -2.2882 -3.1827
  188SAPI   C3621677   4.974   1.775   7.475 -0.6177 -0.5060  0.5276
  188SAPI   H6X21678   4.893   1.850   7.484  0.5949  0.6577  2.6193
  188SAPI   H6Y21679   5.071   1.823   7.450 -0.9108  0.9956  2.0712
  188SAPI   C3721680   4.990   1.720   7.610 -0.0136  0.5407  0.2338
  188SAPI   H7X21681   5.030   1.805   7.669 -0.1844  2.0806 -1.7646
  188SAPI   H7Y21682   5.053   1.630   7.624 -0.3991  0.3323  0.6445
  188SAPI   C3821683   4.851   1.666   7.656  0.1955 -0.7021 -1.1104
  188SAPI   H8X21684   4.801   1.618   7.569 -0.7334 -0.7261 -0.5731
  188SAPI   H8Y21685   4.777   1.745   7.682  2.8723  2.1025 -1.4393
  188SAPI   C3921686   4.855   1.570   7.776  0.1308 -0.3196 -0.1599
  188SAPI   H9X21687   4.923   1.484   7.761  0.8614 -0.4652  3.1121
  188SAPI   H9Y21688   4.752   1.532   7.791 -0.1027  0.6632  0.9049
  188SAPI  C31021689   4.907   1.644   7.897 -0.1893 -0.0132  0.0640
  188SAPI  H10X21690   4.841   1.731   7.921 -2.1417 -1.4163  0.0630
  188SAPI  H10Y21691   5.007   1.684   7.872  0.3869 -1.0003  0.7322
  188SAPI  C31121692   4.925   1.550   8.015  0.1577 -0.3941 -0.2598
  188SAPI  H11X21693   4.998   1.596   8.084  0.2367  1.3157 -1.4302
  188SAPI  H11Y21694   4.957   1.449   7.982  1.8977 -0.1040  0.4591
  188SAPI  C31221695   4.790   1.523   8.076  0.7282  0.1892 -0.1538
  188SAPI  H12X21696   4.715   1.482   8.004  1.0494 -1.5581  0.4536
  188SAPI  H12Y21697   4.744   1.611   8.125 -1.7130 -0.8455 -0.4085
  188SAPI  C31321698   4.795   1.413   8.181  0.3427  0.4438 -0.0687
  188SAPI  H13X21699   4.837   1.318   8.142 -1.1765  0.1682 -1.1098
  188SAPI  H13Y21700   4.690   1.396   8.214 -0.2077  0.9839 -1.4785
  188SAPI  C31421701   4.885   1.459   8.296 -0.1043  0.1282  0.2280
  188SAPI  H14X21702   4.866   1.563   8.331  1.0759  0.2329  0.6149
  188SAPI  H14Y21703   4.991   1.464   8.262  0.2671  0.7660  1.4135
  188SAPI  C31521704   4.884   1.370   8.422 -0.3254 -0.2592 -0.4656
  188SAPI  H15X21705   4.913   1.268   8.390  0.0797 -0.5520  0.7751
  188SAPI  H15Y21706   4.784   1.368   8.469  0.6818 -0.7811  1.8070
  188SAPI  C31621707   4.984   1.423   8.529  0.1763  1.3600  0.4180
  188SAPI  H16X21708   4.959   1.520   8.578 -3.0806  1.1950 -0.6817
  188SAPI  H16Y21709   5.074   1.446   8.467 -0.1458 -0.7232 -0.9244
  188SAPI  C31721710   5.034   1.315   8.628  0.7718 -0.5058 -0.2655
  188SAPI  H17X21711   4.954   1.273   8.693  0.2501  0.1216 -0.4874
  188SAPI  H17Y21712   5.100   1.373   8.697 -1.1646  2.0160 -0.3731
  188SAPI  C31821713   5.104   1.196   8.565 -0.1757 -0.0232 -0.3077
  188SAPI  H18X21714   5.187   1.230   8.500  1.0659  0.2360  1.3521
  188SAPI  H18Y21715   5.035   1.125   8.515 -0.2398  0.8369 -1.4511
  188SAPI  H18Z21716   5.155   1.144   8.649  0.8497  3.1928  1.2070
  189POPC     N21717   4.054   3.222  11.345 -0.0045  0.0001 -0.0913
  189POPC   C1221718   4.126   3.304  11.244  0.0891  0.7581  0.1344
  189POPC  H12A21719   4.209   3.353  11.293  2.6589 -0.9506 -2.2307
  189POPC  H12B21720   4.059   3.385  11.217  1.8512  2.4937  0.7503
  189POPC   C1321721   4.147   3.102  11.378  0.7077 -0.3826  0.0129
  189POPC  H13A21722   4.239   3.129  11.429  2.9522  0.2913 -3.9540
  189POPC  H13B21723   4.081   3.032  11.426 -0.3577  0.6852  0.1515
  189POPC  H13C21724   4.163   3.067  11.278 -0.9893 -0.6037 -0.1953
  189POPC   C1421725   4.029   3.303  11.464  0.3438  0.3800  0.4489
  189POPC  H14A21726   3.978   3.395  11.437  1.4183  0.5486 -1.1471
  189POPC  H14B21727   3.972   3.244  11.534 -0.4231 -0.7358 -1.0511
  189POPC  H14C21728   4.124   3.346  11.494  0.2149  2.3555 -1.6339
  189POPC   C1521729   3.922   3.172  11.285 -0.1989 -0.1319 -0.7445
  189POPC  H15A21730   3.863   3.260  11.263  0.3357  1.1172  2.2921
  189POPC  H15B21731   3.865   3.113  11.356 -0.8342 -2.1805 -2.8505
  189POPC  H15C21732   3.948   3.112  11.199  0.7200  0.5671 -0.9702
  189POPC   C1121733   4.189   3.247  11.114  0.5471  0.5422 -0.1253
  189POPC  H11A21734   4.222   3.338  11.061 -1.5703  0.5289 -1.6007
  189POPC  H11B21735   4.113   3.206  11.045  1.5350 -0.0538 -0.8776
  189POPC     P21736   4.440   3.170  11.106 -0.2788 -0.0970 -0.0981
  189POPC   O1321737   4.502   3.038  11.126 -0.1386  0.0841 -0.1264
  189POPC   O1421738   4.505   3.285  11.169 -0.4281  0.6842  0.0793
  189POPC   O1221739   4.292   3.158  11.152 -0.3939 -0.1444  0.0739
  189POPC   O1121740   4.424   3.201  10.955 -0.5857 -0.4117  0.2128
  189POPC    C121741   4.383   3.102  10.855 -0.6131  0.0702 -0.2949
  189POPC    HA21742   4.276   3.121  10.832 -0.5033 -2.0094 -3.1882
  189POPC    HB21743   4.406   3.003  10.901  2.7905  1.8752  2.3062
  189POPC    C221744   4.474   3.124  10.726  0.2625 -0.1694 -0.4874
  189POPC    HS21745   4.577   3.124  10.767 -0.0016  1.9341  0.3138
  189POPC   O2121746   4.434   3.242  10.660  0.3253  0.5767 -0.6111
  189POPC   C2121747   4.525   3.336  10.668 -0.0691  0.1786 -0.1725
  189POPC   O2221748   4.622   3.336  10.743 -0.8519 -0.2756 -0.1070
  189POPC   C2221749   4.490   3.456  10.577 -0.3773  0.0227 -0.9767
  189POPC   H2R21750   4.433   3.516  10.651 -0.3601 -0.9487 -0.1502
  189POPC   H2S21751   4.412   3.433  10.503 -1.1049  0.2661 -0.2994
  189POPC    C321752   4.471   3.009  10.620 -0.2112 -0.0807  0.2536
  189POPC    HX21753   4.370   3.016  10.574 -1.1764 -2.6384  1.7618
  189POPC    HY21754   4.465   2.914  10.679 -0.1226 -1.1465 -1.3964
  189POPC   O3121755   4.583   3.025  10.531  0.4564  0.0031  0.1108
  189POPC   C3121756   4.550   2.997  10.402 -0.3149  0.2948  0.5763
  189POPC   O3221757   4.438   2.972  10.363  0.1886  0.2108  0.2634
  189POPC   C3221758   4.657   3.064  10.310 -0.7546 -1.1814 -0.4897
  189POPC   H2X21759   4.745   3.091  10.372 -0.3773  1.5172 -2.0209
  189POPC   H2Y21760   4.619   3.165  10.284  0.5858 -0.8890 -1.3975
  189POPC   C2321761   4.614   3.529  10.518 -0.0395  0.7200  0.6053
  189POPC   H3R21762   4.681   3.561  10.601 -1.6011  2.5906  1.1922
  189POPC   H3S21763   4.572   3.622  10.474 -0.6723 -0.2908 -1.0117
  189POPC   C2421764   4.691   3.451  10.409 -0.0102 -0.0786  0.0116
  189POPC   H4R21765   4.693   3.342  10.429  1.1481  0.0889  0.9340
  189POPC   H4S21766   4.800   3.472  10.409  0.2888 -1.3143 -2.4114
  189POPC   C2521767   4.622   3.477  10.274 -0.4121  0.3471  0.4582
  189POPC   H5R21768   4.593   3.583  10.268  1.1587  0.8103  0.4795
  189POPC   H5S21769   4.527   3.420  10.270 -1.0472  1.4280  0.1203
  189POPC   C2621770   4.702   3.440  10.148  0.1095  0.2959  0.2646
  189POPC   H6R21771   4.749   3.340  10.142 -0.9262 -0.1240 -1.8507
  189POPC   H6S21772   4.789   3.510  10.151  0.6869 -0.3265 -1.2346
  189POPC   C2721773   4.616   3.460  10.027  0.1406 -0.2825  0.1633
  189POPC   H7R21774   4.562   3.556  10.040  0.7153  0.4841 -2.4227
  189POPC   H7S21775   4.539   3.380  10.029 -1.1245  0.7641 -2.4696
  189POPC   C2821776   4.702   3.466   9.896 -0.0999 -0.3957  0.0277
  189POPC   H8R21777   4.773   3.381   9.905  1.0920  0.6080  0.3800
  189POPC   H8S21778   4.768   3.554   9.881 -0.9763 -0.0325 -2.1069
  189POPC   C2921779   4.616   3.477   9.775 -0.9197 -0.0421 -0.4452
  189POPC   H9121780   4.512   3.496   9.807 -0.1287  4.6690  0.0372
  189POPC  C21021781   4.653   3.464   9.648 -0.1217 -0.2416 -0.1364
  189POPC  H10121782   4.560   3.469   9.590 -0.3067  2.0283  0.2585
  189POPC  C21121783   4.787   3.449   9.586  0.4493  0.1920 -0.0989
  189POPC  H11R21784   4.850   3.433   9.676 -0.7325  0.6515  0.8360
  189POPC  H11S21785   4.818   3.546   9.541 -0.5928  1.7804  2.3926
  189POPC  C21221786   4.808   3.332   9.486  0.0811  0.4447 -0.1241
  189POPC  H12R21787   4.752   3.244   9.525 -1.5903  2.2888  1.8569
  189POPC  H12S21788   4.916   3.316   9.467 -0.2533 -4.0540  0.6840
  189POPC  C21321789   4.744   3.373   9.351 -0.5253  1.0590 -0.1276
  189POPC  H13R21790   4.794   3.458   9.300  2.5697 -1.5235 -1.8370
  189POPC  H13S21791   4.642   3.403   9.381 -1.1282  0.4029 -1.4441
  189POPC  C21421792   4.737   3.251   9.259  0.2731 -0.2939 -0.0253
  189POPC  H14R21793   4.675   3.165   9.292 -0.5948 -0.5647 -2.1545
  189POPC  H14S21794   4.837   3.203   9.248  0.0054 -1.2488  1.4771
  189POPC  C21521795   4.690   3.279   9.119 -0.3647 -0.1751 -0.1253
  189POPC  H15R21796   4.764   3.353   9.083  0.2426 -0.4465  0.5316
  189POPC  H15S21797   4.596   3.335   9.134  0.5457  1.0295  1.2899
  189POPC  C21621798   4.684   3.156   9.028 -0.2012 -0.7259  0.0532
  189POPC  H16R21799   4.640   3.076   9.091  0.6048 -0.0154  1.5913
  189POPC  H16S21800   4.784   3.125   8.991  1.1903  2.8576  0.3442
  189POPC  C21721801   4.593   3.178   8.907  0.0265 -0.3828 -0.3627
  189POPC  H17R21802   4.485   3.185   8.932  0.0011 -0.5434 -0.4298
  189POPC  H17S21803   4.619   3.094   8.840  1.5027 -1.5704  1.5776
  189POPC  C21821804   4.616   3.306   8.837 -0.4921 -0.5843 -0.3759
  189POPC  H18R21805   4.724   3.318   8.815 -1.1098  0.2110 -3.4358
  189POPC  H18S21806   4.582   3.395   8.895 -2.3211 -2.0677  0.9683
  189POPC  H18T21807   4.562   3.325   8.742 -1.0794  1.1916  0.2760
  189POPC   C3321808   4.691   2.976  10.195 -0.2758 -0.6123 -0.3900
  189POPC   H3X21809   4.601   2.932  10.147  0.6232 -1.0361 -1.7516
  189POPC   H3Y21810   4.739   2.885  10.238 -2.1014 -0.4912  2.1566
  189POPC   C3421811   4.773   3.056  10.089 -0.4698  0.3940  0.0252
  189POPC   H4X21812   4.856   3.117  10.131 -1.8122  0.0375  3.5754
  189POPC   H4Y21813   4.699   3.123  10.041  0.9909  2.1738  0.1345
  189POPC   C3521814   4.816   2.972   9.968  0.0349 -0.4941 -0.1842
  189POPC   H5X21815   4.731   2.913   9.928 -0.1936 -0.3033  0.0173
  189POPC   H5Y21816   4.897   2.900   9.988 -1.0408 -2.1762 -1.5794
  189POPC   C3621817   4.868   3.060   9.855 -0.1724  0.2399 -0.4230
  189POPC   H6X21818   4.936   3.140   9.892 -0.5856 -0.2508  1.4696
  189POPC   H6Y21819   4.779   3.104   9.804 -1.7612 -2.3889 -0.0663
  189POPC   C3721820   4.955   2.981   9.757  0.1108 -0.3243  0.1379
  189POPC   H7X21821   4.895   2.907   9.701  0.0934  1.2083 -2.0037
  189POPC   H7Y21822   5.036   2.920   9.802 -0.3644 -0.3104  1.0145
  189POPC   C3821823   5.027   3.073   9.661  0.2347 -0.1075  0.0909
  189POPC   H8X21824   5.129   3.097   9.697 -0.5470  0.9603  1.6911
  189POPC   H8Y21825   4.971   3.167   9.642  0.1735 -0.0285  0.6483
  189POPC   C3921826   5.037   3.006   9.517  0.5074  0.4036  0.0832
  189POPC   H9X21827   4.938   3.003   9.467 -0.7929  1.2761  2.4184
  189POPC   H9Y21828   5.055   2.898   9.534 -3.1658 -0.1713  1.1570
  189POPC  C31021829   5.141   3.074   9.429 -0.4516  0.2832 -0.2539
  189POPC  H10X21830   5.247   3.048   9.446 -0.0284  1.4938 -0.9202
  189POPC  H10Y21831   5.139   3.184   9.444  2.1264  0.4264 -0.5337
  189POPC  C31121832   5.103   3.039   9.283 -0.2156  0.1596 -1.0550
  189POPC  H11X21833   4.994   3.058   9.268 -0.3486  0.8539  0.6209
  189POPC  H11Y21834   5.120   2.932   9.259 -1.7788 -0.3829  0.0753
  189POPC  C31221835   5.177   3.130   9.182 -0.4624  0.2356 -0.3575
  189POPC  H12X21836   5.287   3.124   9.192 -0.6586 -2.8258  0.9570
  189POPC  H12Y21837   5.152   3.236   9.203 -0.6614  0.0754  0.2355
  189POPC  C31321838   5.145   3.094   9.032 -0.1174  0.2180  0.2979
  189POPC  H13X21839   5.049   3.140   8.998  1.2611  2.2708 -1.0742
  189POPC  H13Y21840   5.134   2.984   9.027 -1.4804  0.3815 -2.1287
  189POPC  C31421841   5.261   3.132   8.936 -0.2039  0.9357  0.2534
  189POPC  H14X21842   5.359   3.099   8.978  0.3047  0.0186 -1.5611
  189POPC  H14Y21843   5.271   3.242   8.943  1.9956  0.9123 -1.4846
  189POPC  C31521844   5.255   3.078   8.791 -0.2601  0.1736  0.0146
  189POPC  H15X21845   5.154   3.091   8.746  0.2173  0.9726 -0.8598
  189POPC  H15Y21846   5.264   2.968   8.793  0.4669  0.2025 -0.8976
  189POPC  C31621847   5.351   3.149   8.692  0.0412  0.3377  0.7069
  189POPC  H16X21848   5.451   3.112   8.722 -0.5072 -0.3067  1.8082
  189POPC  H16Y21849   5.350   3.260   8.686  0.4888  0.3066 -0.0914
  189POPC  H16Z21850   5.326   3.108   8.592 -1.2614 -0.5808  1.3740
  190POPC     N21851   0.851   0.852  11.245 -0.2779 -0.0684  0.9045
  190POPC   C1221852   0.740   0.906  11.157  0.4970 -0.3743 -0.1448
  190POPC  H12A21853   0.686   0.987  11.205  2.0242  0.9386 -0.5527
  190POPC  H12B21854   0.661   0.833  11.159  0.1820 -0.0520 -0.5853
  190POPC   C1321855   0.896   0.714  11.216  0.4351  0.7834  0.5848
  190POPC  H13A21856   0.818   0.639  11.209  2.6372 -1.5634 -0.8349
  190POPC  H13B21857   0.962   0.701  11.131  0.5799  1.7491  0.5425
  190POPC  H13C21858   0.954   0.676  11.298  1.6466  0.4203 -0.4084
  190POPC   C1421859   0.964   0.938  11.249 -0.4580 -0.3429 -0.3023
  190POPC  H14A21860   0.941   1.035  11.291 -1.9917 -1.5221  1.7970
  190POPC  H14B21861   1.051   0.897  11.298  0.3393  1.7926  0.1435
  190POPC  H14C21862   0.997   0.962  11.149  2.4678  0.6084  0.7798
  190POPC   C1521863   0.784   0.842  11.388 -0.3169 -0.1261 -0.1208
  190POPC  H15A21864   0.728   0.750  11.390 -1.8749  0.8054  0.6669
  190POPC  H15B21865   0.726   0.926  11.421  1.3724  0.9665  0.1703
  190POPC  H15C21866   0.866   0.830  11.458  0.9149  1.8343 -1.1300
  190POPC   C1121867   0.766   0.956  11.008  0.1339 -0.2625  0.2894
  190POPC  H11A21868   0.666   0.983  10.967  0.7826  0.2514 -0.9851
  190POPC  H11B21869   0.802   0.872  10.944  0.5678  1.6022 -2.0180
  190POPC     P21870   0.827   1.210  11.053  0.2484  0.3858  0.3721
  190POPC   O1321871   0.952   1.262  11.116  0.0595  0.1513 -0.2232
  190POPC   O1421872   0.697   1.201  11.127 -0.0295 -0.2495 -0.0644
  190POPC   O1221873   0.861   1.064  11.009  0.1584 -0.0724 -0.0456
  190POPC   O1121874   0.808   1.288  10.921  0.0448 -0.5205 -0.2370
  190POPC    C121875   0.881   1.274  10.802 -0.9569  0.6497  0.2189
  190POPC    HA21876   0.991   1.256  10.814 -0.7433 -0.8263 -3.0186
  190POPC    HB21877   0.879   1.374  10.754  1.6860  1.4000  1.4238
  190POPC    C221878   0.809   1.167  10.707  0.2875 -0.3163  1.0278
  190POPC    HS21879   0.838   1.066  10.741  2.2384  0.0404  0.5183
  190POPC   O2121880   0.850   1.192  10.567  0.3734  0.5806  0.2384
  190POPC   C2121881   0.967   1.144  10.537 -0.0176  0.5719  0.3999
  190POPC   O2221882   1.038   1.082  10.615 -0.6292 -0.3582 -0.4326
  190POPC   C2221883   0.996   1.155  10.377 -0.1873 -0.1037 -0.8829
  190POPC   H2R21884   1.105   1.141  10.361  0.3744  1.0585  1.5166
  190POPC   H2S21885   0.975   1.262  10.358  1.1363  0.3908  0.2731
  190POPC    C321886   0.656   1.171  10.721 -0.4262  0.0202 -0.1910
  190POPC    HX21887   0.618   1.264  10.675 -2.0394 -0.6610 -0.2891
  190POPC    HY21888   0.633   1.183  10.829  3.2850 -0.7901  0.8534
  190POPC   O3121889   0.587   1.052  10.672  0.3698  0.1078  0.4583
  190POPC   C3121890   0.463   1.073  10.644 -0.0863  0.5433  0.4243
  190POPC   O3221891   0.390   1.161  10.685  0.2555  0.0706  0.0573
  190POPC   C3221892   0.422   0.943  10.572  0.1972  0.1524  0.4159
  190POPC   H2X21893   0.342   0.897  10.634 -0.3100  0.6554  0.1487
  190POPC   H2Y21894   0.508   0.875  10.558 -0.3400 -0.4001 -0.3237
  190POPC   C2321895   0.893   1.090  10.281  0.1283 -0.2744  0.2952
  190POPC   H3R21896   0.797   1.078  10.335 -0.7198 -1.5290 -1.3940
  190POPC   H3S21897   0.921   0.984  10.259 -2.7012 -0.7391 -1.6381
  190POPC   C2421898   0.861   1.164  10.151 -0.2680  0.5657  0.1041
  190POPC   H4R21899   0.797   1.098  10.089 -0.9906  1.3267  0.0250
  190POPC   H4S21900   0.955   1.184  10.094 -0.7175  0.1962 -0.7879
  190POPC   C2521901   0.784   1.289  10.166  0.1067 -0.0489 -0.0153
  190POPC   H5R21902   0.845   1.374  10.204  1.9276  0.0432 -2.8452
  190POPC   H5S21903   0.701   1.271  10.238  0.9048 -1.8341  0.5173
  190POPC   C2621904   0.717   1.352  10.036 -0.6975  0.5675 -0.9301
  190POPC   H6R21905   0.648   1.435  10.062 -0.3797  1.2440 -2.1574
  190POPC   H6S21906   0.658   1.280   9.975  1.3158 -1.3988 -0.6770
  190POPC   C2721907   0.819   1.411   9.943  0.3743  1.3717 -0.4599
  190POPC   H7R21908   0.909   1.348   9.954 -0.0991  1.0576  2.0625
  190POPC   H7S21909   0.856   1.513   9.968 -1.1490  1.9726 -0.4976
  190POPC   C2821910   0.775   1.428   9.800 -0.1359 -0.3762  0.2115
  190POPC   H8R21911   0.754   1.328   9.756 -0.2097 -0.0803 -0.4352
  190POPC   H8S21912   0.854   1.478   9.740 -0.5728  1.5398  1.1474
  190POPC   C2921913   0.645   1.511   9.785 -0.4812  0.2238  0.2836
  190POPC   H9121914   0.628   1.572   9.875 -1.6776 -0.6726  0.7012
  190POPC  C21021915   0.555   1.507   9.687 -0.1461 -0.1558  0.4760
  190POPC  H10121916   0.462   1.567   9.686  1.8221  3.1271 -0.0065
  190POPC  C21121917   0.564   1.428   9.560 -0.0533 -0.0096 -0.6766
  190POPC  H11R21918   0.467   1.437   9.507 -0.2002  1.6288 -0.1743
  190POPC  H11S21919   0.573   1.320   9.583 -1.0510  0.2885  1.3324
  190POPC  C21221920   0.669   1.474   9.463 -0.9887  0.1752  0.0771
  190POPC  H12R21921   0.772   1.475   9.505 -0.7120  0.3703 -0.6023
  190POPC  H12S21922   0.642   1.581   9.457 -2.6094 -0.1469  1.0845
  190POPC  C21321923   0.652   1.404   9.327  0.1417  0.6103 -0.8072
  190POPC  H13R21924   0.544   1.379   9.317 -0.1056  0.7076  1.2779
  190POPC  H13S21925   0.708   1.308   9.318 -0.1912  0.4561 -1.3130
  190POPC  C21421926   0.680   1.484   9.200 -0.9985 -0.2378  0.2045
  190POPC  H14R21927   0.755   1.565   9.215 -3.3843  2.0249  0.7379
  190POPC  H14S21928   0.587   1.540   9.177 -0.1510  1.9135  1.6807
  190POPC  C21521929   0.731   1.396   9.082  0.3127 -0.2938 -0.2812
  190POPC  H15R21930   0.661   1.309   9.080 -0.6382  0.4338  0.4941
  190POPC  H15S21931   0.833   1.357   9.098  0.2739 -0.5347 -0.5987
  190POPC  C21621932   0.723   1.444   8.938 -0.2003  0.2345  0.2428
  190POPC  H16R21933   0.785   1.536   8.931  1.1367 -0.6215  0.3077
  190POPC  H16S21934   0.619   1.471   8.910 -0.2532 -0.1821  0.0145
  190POPC  C21721935   0.755   1.322   8.837 -0.2598  0.8485 -0.0600
  190POPC  H17R21936   0.674   1.246   8.845 -1.8689  2.5359  0.3454
  190POPC  H17S21937   0.857   1.285   8.861 -0.5054  0.5760  0.5919
  190POPC  C21821938   0.742   1.369   8.696 -0.3830 -0.0282  0.4789
  190POPC  H18R21939   0.647   1.421   8.671 -0.8550 -1.6054 -1.2820
  190POPC  H18S21940   0.742   1.277   8.634 -0.9149 -1.0659  1.9608
  190POPC  H18T21941   0.834   1.421   8.662  1.1705 -1.5265  2.1941
  190POPC   C3321942   0.362   0.973  10.435  0.0157 -0.0139  0.2356
  190POPC   H3X21943   0.281   1.047  10.452 -2.6475 -2.8801  1.0294
  190POPC   H3Y21944   0.297   0.886  10.409  1.6220 -1.2289  0.1536
  190POPC   C3421945   0.466   1.003  10.330 -0.2525  0.2057  0.0542
  190POPC   H4X21946   0.551   0.935  10.351 -1.4026 -1.6324 -0.9821
  190POPC   H4Y21947   0.497   1.110  10.334  1.9521 -0.3130 -1.5607
  190POPC   C3521948   0.426   0.965  10.185  0.3061 -0.1925 -0.5029
  190POPC   H5X21949   0.322   1.003  10.175  0.8243  1.0564 -1.5331
  190POPC   H5Y21950   0.420   0.854  10.180  1.0161 -0.2237 -0.7207
  190POPC   C3621951   0.511   1.018  10.069  0.1919 -0.6762 -1.1135
  190POPC   H6X21952   0.615   0.980  10.082  0.8093  1.1111 -0.6193
  190POPC   H6Y21953   0.510   1.128  10.080 -1.6054 -0.9211  2.6380
  190POPC   C3721954   0.444   0.971   9.937 -0.8909  0.2236 -0.1353
  190POPC   H7X21955   0.343   1.019   9.937 -1.6516 -1.3029 -0.7339
  190POPC   H7Y21956   0.431   0.861   9.936  1.1141 -0.1383  2.3901
  190POPC   C3821957   0.539   0.992   9.819 -0.2937  0.0747  0.5502
  190POPC   H8X21958   0.624   0.921   9.820  0.1208  0.4046 -2.0023
  190POPC   H8Y21959   0.575   1.097   9.821 -0.7677  0.2300  2.5766
  190POPC   C3921960   0.476   0.966   9.681 -0.4656  0.5841  0.9390
  190POPC   H9X21961   0.430   0.865   9.688  0.0538  0.3324  0.7981
  190POPC   H9Y21962   0.557   0.943   9.609 -0.6058  0.1562  0.9154
  190POPC  C31021963   0.366   1.063   9.629 -0.5909 -0.3077 -0.6198
  190POPC  H10X21964   0.413   1.162   9.611 -1.0197 -0.0715 -0.4389
  190POPC  H10Y21965   0.287   1.070   9.706 -0.3689 -0.6123 -0.3634
  190POPC  C31121966   0.298   1.018   9.505  0.3868  0.1094  0.5963
  190POPC  H11X21967   0.214   1.086   9.481  2.3396  2.3916 -0.1745
  190POPC  H11Y21968   0.248   0.920   9.525  0.7085  0.3930  3.1442
  190POPC  C31221969   0.393   1.016   9.380  0.2587  0.1459 -0.0370
  190POPC  H12X21970   0.472   0.938   9.382 -0.0482 -0.2355 -1.5748
  190POPC  H12Y21971   0.436   1.118   9.385  0.8931 -0.1906  2.9640
  190POPC  C31321972   0.321   1.009   9.245  0.1346 -0.5588 -0.3884
  190POPC  H13X21973   0.247   1.092   9.238 -0.9702 -1.3433  1.3172
  190POPC  H13Y21974   0.277   0.907   9.243  0.9963 -0.9324 -1.6047
  190POPC  C31421975   0.420   1.033   9.138 -0.0244  0.3622  0.0974
  190POPC  H14X21976   0.500   0.956   9.145 -1.1864 -0.7425  2.0505
  190POPC  H14Y21977   0.460   1.135   9.160  1.2416 -0.1142  0.1217
  190POPC  C31521978   0.366   1.032   8.991  0.3292 -0.0882  0.6975
  190POPC  H15X21979   0.458   1.018   8.931  0.5152 -0.8434  1.1438
  190POPC  H15Y21980   0.310   1.125   8.964  1.1260  0.5761  1.2788
  190POPC  C31621981   0.270   0.920   8.970 -0.0002  0.6819  0.4917
  190POPC  H16X21982   0.322   0.823   8.967  0.0352  0.6811  1.1900
  190POPC  H16Y21983   0.221   0.929   8.870  1.2440 -1.5340 -0.3838
  190POPC  H16Z21984   0.186   0.911   9.042  0.5855  2.8088  1.5311
  191POPC     N21985   0.161   6.484   6.356  0.0648 -0.4940  0.0768
  191POPC   C1221986   0.171   6.550   6.495 -0.1801 -0.5041  0.2487
  191POPC  H12A21987   0.173   6.462   6.558  1.2753  0.6791  1.9671
  191POPC  H12B21988   0.080   6.605   6.509  0.4860  0.7595 -0.2021
  191POPC   C1321989   0.130   6.581   6.248 -0.6368  0.7393  0.8097
  191POPC  H13A21990   0.119   6.517   6.162  1.5906 -2.7039  2.7900
  191POPC  H13B21991   0.044   6.640   6.274 -2.3914 -1.0185 -0.7241
  191POPC  H13C21992   0.214   6.648   6.236 -0.6768  0.7188  0.4202
  191POPC   C1421993   0.280   6.400   6.325  0.0403  0.0738  0.1555
  191POPC  H14A21994   0.302   6.338   6.411  1.3581  1.3170  0.7684
  191POPC  H14B21995   0.262   6.336   6.240 -0.3059  1.2816 -0.7077
  191POPC  H14C21996   0.365   6.467   6.314 -1.0473  1.4165 -0.3766
  191POPC   C1521997   0.053   6.386   6.365 -0.1871 -0.3894 -0.4224
  191POPC  H15A21998  -0.028   6.444   6.407  1.6632  2.3234 -0.3187
  191POPC  H15B21999   0.087   6.309   6.433  1.4779  0.7464  0.0968
  191POPC  H15C22000   0.022   6.349   6.268 -1.6979 -0.1486 -0.0554
  191POPC   C1122001   0.285   6.641   6.540 -0.4574 -0.4559 -0.1974
  191POPC  H11A22002   0.379   6.581   6.540  0.5409  1.0268 -1.9389
  191POPC  H11B22003   0.269   6.660   6.649 -1.2118  1.7531 -0.6624
  191POPC     P22004   0.230   6.882   6.456 -0.6641 -0.0297  0.2628
  191POPC   O1322005   0.097   6.849   6.405 -0.2680  0.3035 -0.0291
  191POPC   O1422006   0.295   6.999   6.383 -0.4235  0.2876  0.0470
  191POPC   O1222007   0.324   6.756   6.454  0.1659 -0.5500  0.4198
  191POPC   O1122008   0.231   6.919   6.607  0.6289  0.0271 -0.2068
  191POPC    C122009   0.353   6.945   6.671 -0.4617  0.2919  0.1069
  191POPC    HA22010   0.396   7.041   6.635 -0.1936 -0.2702 -1.1438
  191POPC    HB22011   0.429   6.864   6.659  1.2742  1.6882  1.2394
  191POPC    C222012   0.355   6.969   6.829 -0.4201 -0.1740 -0.0627
  191POPC    HS22013   0.459   6.989   6.861 -0.9831  2.8695  0.1282
  191POPC   O2122014   0.287   6.855   6.893  0.0376 -0.6806 -0.3895
  191POPC   C2122015   0.365   6.753   6.910  0.1077  0.1389 -0.1693
  191POPC   O2222016   0.482   6.749   6.870 -0.6474 -0.3113 -0.5559
  191POPC   C2222017   0.291   6.630   6.966 -0.4486 -0.2518  0.7582
  191POPC   H2R22018   0.265   6.572   6.875 -1.4013  1.2171  0.0367
  191POPC   H2S22019   0.202   6.668   7.021 -0.1039 -1.5539  2.2817
  191POPC    C322020   0.271   7.102   6.866  0.4828 -0.0623  0.1209
  191POPC    HX22021   0.166   7.069   6.851  0.0420  1.9216 -1.5178
  191POPC    HY22022   0.312   7.178   6.796 -0.4941  1.5266  1.2121
  191POPC   O3122023   0.304   7.140   7.002  0.0294  0.3387  0.6177
  191POPC   C3122024   0.232   7.233   7.061 -0.5515  0.2079 -0.0301
  191POPC   O3222025   0.144   7.296   7.014 -0.0935 -0.6469 -0.8119
  191POPC   C3222026   0.289   7.269   7.200  0.4593 -0.0525  0.4449
  191POPC   H2X22027   0.396   7.291   7.181 -0.2717  1.1173 -2.9688
  191POPC   H2Y22028   0.287   7.173   7.255  3.5373 -0.1717  0.5399
  191POPC   C2322029   0.377   6.537   7.062 -0.1131  0.4102 -0.2315
  191POPC   H3R22030   0.479   6.524   7.020 -0.1387 -1.8082  0.2926
  191POPC   H3S22031   0.337   6.434   7.068  0.2618  0.3390  1.2620
  191POPC   C2422032   0.392   6.592   7.209 -0.2008 -0.1571  0.3921
  191POPC   H4R22033   0.287   6.588   7.245 -0.3805 -0.5153 -0.1612
  191POPC   H4S22034   0.435   6.694   7.212  1.2491 -0.5756 -2.5706
  191POPC   C2522035   0.465   6.498   7.301  0.3286  0.9518 -0.1308
  191POPC   H5R22036   0.573   6.498   7.275  0.7079  1.7015  1.3163
  191POPC   H5S22037   0.429   6.398   7.271 -1.1814  2.0948 -2.4410
  191POPC   C2622038   0.456   6.524   7.460 -0.1227  0.0826  0.4150
  191POPC   H6R22039   0.353   6.489   7.483 -1.4117  0.8081 -3.4797
  191POPC   H6S22040   0.469   6.631   7.485 -0.8046  0.3388 -0.2646
  191POPC   C2722041   0.550   6.433   7.537  0.0481 -0.1267 -0.5199
  191POPC   H7R22042   0.653   6.446   7.498  0.1858  0.3729  0.0008
  191POPC   H7S22043   0.526   6.326   7.518 -0.1705  0.2001 -2.2687
  191POPC   C2822044   0.550   6.469   7.687  0.0103  0.3083  0.2115
  191POPC   H8R22045   0.574   6.578   7.692  0.1836  0.3046 -0.4094
  191POPC   H8S22046   0.637   6.424   7.739 -1.6704 -1.8971  1.2878
  191POPC   C2922047   0.420   6.435   7.754 -0.4419  0.5752 -0.1001
  191POPC   H9122048   0.405   6.329   7.776 -1.6151  0.2541 -2.1910
  191POPC  C21022049   0.333   6.520   7.799  0.4804  0.1100 -0.5813
  191POPC  H10122050   0.251   6.471   7.854  1.4807 -1.8234 -0.7127
  191POPC  C21122051   0.325   6.666   7.796  0.2547 -0.2783  0.1294
  191POPC  H11R22052   0.409   6.719   7.747 -1.4349  0.7151 -1.8105
  191POPC  H11S22053   0.342   6.706   7.899 -1.0374 -3.3622  1.6716
  191POPC  C21222054   0.207   6.702   7.709 -0.0589 -0.0313  0.5195
  191POPC  H12R22055   0.117   6.661   7.760 -1.5384  0.5826 -1.4599
  191POPC  H12S22056   0.222   6.647   7.614 -1.5903  0.2185  0.1074
  191POPC  C21322057   0.189   6.852   7.695  0.2344 -0.5458 -0.0674
  191POPC  H13R22058   0.279   6.901   7.653  0.9121 -1.1345  0.6765
  191POPC  H13S22059   0.162   6.901   7.791 -2.3744  1.6912 -1.7895
  191POPC  C21422060   0.076   6.889   7.604  0.0414 -0.1810 -0.7470
  191POPC  H14R22061   0.067   6.999   7.609  2.4075  0.0896 -1.0604
  191POPC  H14S22062  -0.024   6.848   7.628  0.0629 -0.4732 -1.1500
  191POPC  C21522063   0.116   6.864   7.456 -0.3261  0.4755  0.3532
  191POPC  H15R22064   0.102   6.755   7.440  1.1124  0.4478 -0.9114
  191POPC  H15S22065   0.225   6.881   7.441  0.2964 -2.4123  0.9482
  191POPC  C21622066   0.014   6.930   7.358 -0.2046  0.0097 -0.8055
  191POPC  H16R22067   0.008   7.038   7.382  1.3062 -0.2038  0.7388
  191POPC  H16S22068  -0.091   6.897   7.371 -0.6537  1.6365 -0.1029
  191POPC  C21722069   0.048   6.910   7.213  0.4614  0.3037 -0.5580
  191POPC  H17R22070   0.049   6.803   7.182  0.7219 -0.3830  1.6938
  191POPC  H17S22071   0.151   6.946   7.189  0.2004  0.9167 -0.7896
  191POPC  C21822072  -0.056   6.984   7.113 -0.6027  0.0227 -1.0477
  191POPC  H18R22073  -0.032   7.092   7.110 -0.2325 -0.0624 -1.1919
  191POPC  H18S22074  -0.162   6.952   7.125 -0.4057 -0.4066 -0.3657
  191POPC  H18T22075  -0.031   6.955   7.009  0.2782 -1.8486 -0.3533
  191POPC   C3322076   0.214   7.376   7.265 -0.9726 -0.8566  0.1536
  191POPC   H3X22077   0.107   7.353   7.280 -1.8798  3.1552  0.8495
  191POPC   H3Y22078   0.222   7.470   7.206 -1.7750 -1.1192 -0.3945
  191POPC   C3422079   0.272   7.406   7.408  0.6240 -0.0988  0.5059
  191POPC   H4X22080   0.223   7.498   7.449 -0.3475  0.0631 -0.9685
  191POPC   H4Y22081   0.381   7.428   7.400  0.5768 -0.1175 -0.1979
  191POPC   C3522082   0.275   7.284   7.496 -0.1529 -0.1105 -0.3160
  191POPC   H5X22083   0.351   7.209   7.466 -0.6899 -0.9407  0.3558
  191POPC   H5Y22084   0.171   7.245   7.499  0.0410 -0.8087 -1.7326
  191POPC   C3622085   0.316   7.336   7.633 -0.3350  0.1398  0.1020
  191POPC   H6X22086   0.235   7.408   7.660  0.2545  1.4462 -1.4346
  191POPC   H6Y22087   0.411   7.394   7.637  0.2605 -0.8493  0.5980
  191POPC   C3722088   0.324   7.236   7.756  0.4401 -0.1633  0.3744
  191POPC   H7X22089   0.419   7.180   7.742  1.0994  0.3127  2.5069
  191POPC   H7Y22090   0.241   7.163   7.756  1.3109 -1.1791  0.1494
  191POPC   C3822091   0.324   7.304   7.890 -0.3220  0.9626  0.0368
  191POPC   H8X22092   0.223   7.346   7.911  0.4487  2.0818  1.8480
  191POPC   H8Y22093   0.395   7.390   7.885 -0.3911  0.9515 -1.6994
  191POPC   C3922094   0.356   7.208   8.005 -0.0542  0.3513  0.0708
  191POPC   H9X22095   0.360   7.263   8.101 -1.1049 -0.0814  0.3730
  191POPC   H9Y22096   0.452   7.156   7.984 -1.5336 -2.3511 -0.4483
  191POPC  C31022097   0.243   7.107   8.023 -0.2029  1.1481 -0.2558
  191POPC  H10X22098   0.227   7.032   7.943  0.2340  1.7661 -0.9373
  191POPC  H10Y22099   0.150   7.168   8.022 -0.1088  1.2803 -1.0395
  191POPC  C31122100   0.262   7.034   8.155 -0.4573 -0.0354  0.7931
  191POPC  H11X22101   0.277   7.112   8.232 -4.1200  0.3800  1.2792
  191POPC  H11Y22102   0.349   6.965   8.153 -1.7449 -1.7224  0.6351
  191POPC  C31222103   0.138   6.950   8.184 -0.2470 -0.1651 -0.7117
  191POPC  H12X22104   0.049   7.016   8.193 -2.4233 -2.8528 -1.3523
  191POPC  H12Y22105   0.143   6.907   8.287  0.6327 -0.4374 -0.8619
  191POPC  C31322106   0.109   6.841   8.091  0.1353 -0.3290 -0.3492
  191POPC  H13X22107   0.199   6.780   8.068 -0.8067 -2.4603  1.2859
  191POPC  H13Y22108   0.056   6.869   7.997 -0.8076 -2.6706 -0.5794
  191POPC  C31422109   0.010   6.743   8.158 -0.4471 -0.6249  0.2957
  191POPC  H14X22110  -0.080   6.800   8.189 -0.0202  0.5256 -0.5120
  191POPC  H14Y22111   0.065   6.694   8.242 -0.1652  0.4445  0.7480
  191POPC  C31522112  -0.019   6.622   8.075 -0.0596  0.6741 -0.2325
  191POPC  H15X22113   0.078   6.573   8.051 -0.4355  0.4353 -1.3190
  191POPC  H15Y22114  -0.060   6.659   7.979 -2.0294  0.5325  0.5085
  191POPC  C31622115  -0.094   6.508   8.142  0.3402  0.4857 -0.6833
  191POPC  H16X22116  -0.132   6.439   8.064  1.4953 -0.7297 -0.2175
  191POPC  H16Y22117  -0.188   6.549   8.185 -0.9100 -0.7556 -2.1194
  191POPC  H16Z22118  -0.025   6.452   8.209 -2.4688  0.1239  2.1095
  192POPC     N22119   0.663   0.678   6.227 -0.1980  1.0562  0.4881
  192POPC   C1222120   0.762   0.722   6.343  0.2917 -0.2477 -0.5126
  192POPC  H12A22121   0.823   0.801   6.302  0.1337  0.5476  0.7306
  192POPC  H12B22122   0.828   0.639   6.360 -0.0552  0.1694  3.9868
  192POPC   C1322123   0.549   0.591   6.279 -0.3496 -0.4859 -0.4961
  192POPC  H13A22124   0.486   0.648   6.345 -0.6455 -1.0785 -0.2614
  192POPC  H13B22125   0.481   0.555   6.203 -0.3322 -0.5620 -0.4766
  192POPC  H13C22126   0.604   0.509   6.324  1.3083  0.5330 -0.5642
  192POPC   C1422127   0.595   0.797   6.169  0.0941  0.3042 -0.2957
  192POPC  H14A22128   0.551   0.854   6.249  0.6727  1.4472 -0.7708
  192POPC  H14B22129   0.665   0.867   6.125  1.7152 -1.0366  0.0287
  192POPC  H14C22130   0.518   0.761   6.102 -1.4799 -0.1930  1.6811
  192POPC   C1522131   0.740   0.604   6.119  1.0305 -0.1934  0.1528
  192POPC  H15A22132   0.668   0.584   6.041 -0.3739  2.3066  0.6923
  192POPC  H15B22133   0.766   0.507   6.158  0.9788 -0.8827 -1.4653
  192POPC  H15C22134   0.828   0.659   6.089  1.3660  1.1028  3.1367
  192POPC   C1122135   0.696   0.785   6.468 -0.5831 -0.1726  0.0353
  192POPC  H11A22136   0.764   0.787   6.555  1.3448 -2.2838 -1.2950
  192POPC  H11B22137   0.616   0.716   6.502  0.5983 -0.7569  1.7471
  192POPC     P22138   0.722   1.041   6.427  0.1026 -0.0685  0.4761
  192POPC   O1322139   0.615   1.149   6.412 -0.8944  0.8658 -0.2500
  192POPC   O1422140   0.831   1.035   6.325 -0.3580 -0.0445 -0.2209
  192POPC   O1222141   0.637   0.910   6.431  0.5733 -0.0152 -0.2623
  192POPC   O1122142   0.789   1.056   6.577  0.0828 -0.0172  0.2016
  192POPC    C122143   0.708   1.038   6.694  0.3250  0.3293 -0.3005
  192POPC    HA22144   0.747   0.967   6.770 -0.1741 -0.1329 -0.4667
  192POPC    HB22145   0.605   1.001   6.675 -0.0310  1.9091 -1.7118
  192POPC    C222146   0.687   1.168   6.778  0.2115  0.2086  0.2214
  192POPC    HS22147   0.643   1.141   6.876 -0.0711 -0.1630 -0.0060
  192POPC   O2122148   0.603   1.264   6.707  0.0030 -0.6865  0.6235
  192POPC   C2122149   0.476   1.231   6.683 -0.1818  0.2062 -0.5340
  192POPC   O2222150   0.415   1.139   6.728  0.5537  0.0881 -0.5652
  192POPC   C2222151   0.404   1.335   6.599  0.2276 -0.1994  0.9316
  192POPC   H2R22152   0.295   1.315   6.611  0.0612 -1.8413 -2.1800
  192POPC   H2S22153   0.422   1.306   6.493 -2.7181  1.5937 -0.1967
  192POPC    C322154   0.826   1.231   6.806 -0.1928 -0.1730  0.0831
  192POPC    HX22155   0.803   1.321   6.867  0.5365  1.7095 -2.2484
  192POPC    HY22156   0.859   1.276   6.709  0.3398 -0.8009 -0.0352
  192POPC   O3122157   0.913   1.136   6.864 -0.6508  0.3090  0.0237
  192POPC   C3122158   1.041   1.193   6.861  0.4586 -0.7183  0.0146
  192POPC   O3222159   1.065   1.304   6.814  0.3248  0.1670 -0.1429
  192POPC   C3222160   1.154   1.099   6.907  0.4971  0.3660 -0.2085
  192POPC   H2X22161   1.208   1.068   6.815  1.2218  0.5801  0.1410
  192POPC   H2Y22162   1.113   1.006   6.950  0.7559  1.0254  1.5310
  192POPC   C2322163   0.452   1.476   6.648 -0.3470  0.4170  0.8140
  192POPC   H3R22164   0.418   1.554   6.576  2.2483  0.8607 -0.0389
  192POPC   H3S22165   0.563   1.481   6.643 -0.3741  0.2009 -3.0774
  192POPC   C2422166   0.403   1.511   6.788 -0.4616 -1.0766 -0.2809
  192POPC   H4R22167   0.457   1.603   6.818  0.4180 -2.2537  2.0537
  192POPC   H4S22168   0.435   1.429   6.856 -0.6940 -0.2618  0.8579
  192POPC   C2522169   0.250   1.526   6.818  1.0386 -0.3670 -0.5063
  192POPC   H5R22170   0.204   1.427   6.796  1.3265 -0.4272 -0.8288
  192POPC   H5S22171   0.202   1.598   6.749  0.1739 -0.1320  0.3047
  192POPC   C2622172   0.218   1.555   6.966  0.0190  0.2415  0.0468
  192POPC   H6R22173   0.295   1.625   7.004  2.4130 -1.5274 -1.3032
  192POPC   H6S22174   0.225   1.467   7.033 -0.1234  0.7132  0.6895
  192POPC   C2722175   0.077   1.599   6.981  0.0842  0.3533 -0.0873
  192POPC   H7R22176   0.012   1.535   6.918  0.3212  0.8742 -0.8900
  192POPC   H7S22177   0.072   1.697   6.929 -2.7455  0.2448 -0.1799
  192POPC   C2822178   0.022   1.618   7.123 -0.1738 -0.1955  0.7018
  192POPC   H8R22179  -0.066   1.687   7.124  0.1497  0.2899 -1.1990
  192POPC   H8S22180   0.097   1.666   7.190  0.5858 -0.9943  0.4420
  192POPC   C2922181  -0.025   1.481   7.170  0.7866 -0.1222 -0.1688
  192POPC   H9122182  -0.065   1.420   7.087 -1.0279  0.8779 -0.0754
  192POPC  C21022183  -0.010   1.425   7.285 -0.4714  0.3907  0.2080
  192POPC  H10122184  -0.041   1.321   7.302 -0.8326  0.9051  3.2545
  192POPC  C21122185   0.060   1.495   7.401 -0.6191  0.0829 -0.0525
  192POPC  H11R22186   0.053   1.606   7.398 -2.6335  0.0298  1.0962
  192POPC  H11S22187   0.168   1.468   7.400 -0.6472 -0.0361 -1.9202
  192POPC  C21222188   0.030   1.459   7.554 -0.1844 -0.3182 -0.0231
  192POPC  H12R22189   0.112   1.512   7.608  0.2587 -0.3736 -0.6278
  192POPC  H12S22190   0.026   1.349   7.574 -0.3761 -0.3702 -0.3383
  192POPC  C21322191  -0.101   1.506   7.611 -0.1585 -0.4313  0.2749
  192POPC  H13R22192  -0.186   1.456   7.559  0.3217 -2.0215  0.9529
  192POPC  H13S22193  -0.104   1.616   7.601 -1.4793 -0.4199  0.5993
  192POPC  C21422194  -0.115   1.472   7.764  0.4067  0.2543 -0.5915
  192POPC  H14R22195  -0.203   1.526   7.805  1.8814  1.6941  0.8084
  192POPC  H14S22196  -0.022   1.511   7.810 -0.9196  1.2868  1.3467
  192POPC  C21522197  -0.113   1.324   7.814  0.1080 -0.4103  1.1407
  192POPC  H15R22198  -0.026   1.268   7.773 -0.4606 -1.0451  0.7821
  192POPC  H15S22199  -0.200   1.273   7.767  0.9936 -0.4430 -0.5145
  192POPC  C21622200  -0.135   1.306   7.969  0.4763 -0.5999  0.8905
  192POPC  H16R22201  -0.153   1.199   7.994 -0.7513 -0.3870  0.9565
  192POPC  H16S22202  -0.226   1.365   7.995 -0.8816 -3.2277  2.5315
  192POPC  C21722203  -0.008   1.355   8.031  0.2447 -0.4484  0.4061
  192POPC  H17R22204   0.003   1.460   7.999  0.7743 -0.2248  1.2798
  192POPC  H17S22205   0.073   1.300   7.977 -0.1965  1.2949 -2.1882
  192POPC  C21822206  -0.005   1.335   8.182 -0.3013 -0.1627  0.9272
  192POPC  H18R22207  -0.097   1.373   8.231 -0.7479  0.1328 -0.1084
  192POPC  H18S22208   0.089   1.378   8.223  2.0721 -1.0360 -3.0179
  192POPC  H18T22209  -0.008   1.227   8.203 -0.0731 -0.1995  0.7754
  192POPC   C3322210   1.236   1.181   7.010 -0.8331  0.5402  0.0868
  192POPC   H3X22211   1.284   1.266   6.957  0.0617 -0.7807 -1.2808
  192POPC   H3Y22212   1.317   1.111   7.039 -1.2874  0.2733  0.7207
  192POPC   C3422213   1.163   1.208   7.145 -0.5741  0.5659  0.6099
  192POPC   H4X22214   1.237   1.217   7.227 -2.0115  0.0834  2.0059
  192POPC   H4Y22215   1.094   1.126   7.175  1.1574 -0.1849  2.7993
  192POPC   C3522216   1.075   1.337   7.148 -0.0146  0.1607  0.4131
  192POPC   H5X22217   0.980   1.313   7.096  0.1555  0.8304 -0.2251
  192POPC   H5Y22218   1.134   1.412   7.092 -0.1286 -0.5479 -0.6767
  192POPC   C3622219   1.061   1.378   7.296  0.1688  0.3139 -0.6662
  192POPC   H6X22220   1.010   1.475   7.312 -0.0153  0.0514  0.4730
  192POPC   H6Y22221   1.166   1.380   7.334  0.6367  3.2621 -1.8422
  192POPC   C3722222   0.977   1.285   7.375  0.1347 -0.4151 -0.8301
  192POPC   H7X22223   1.003   1.178   7.359  0.2935 -0.7022  1.1047
  192POPC   H7Y22224   0.870   1.297   7.344 -0.7937 -1.1542  1.8094
  192POPC   C3822225   0.968   1.329   7.528 -0.2907  0.4201  0.5774
  192POPC   H8X22226   0.943   1.437   7.533  0.1331  0.4593  2.3289
  192POPC   H8Y22227   1.068   1.325   7.576  0.4834  0.6521 -0.9310
  192POPC   C3922228   0.864   1.241   7.600 -0.4105 -0.2771  0.7651
  192POPC   H9X22229   0.889   1.133   7.594  0.9391 -0.1155  2.5246
  192POPC   H9Y22230   0.775   1.269   7.540  1.2248 -2.1414 -2.8262
  192POPC  C31022231   0.857   1.284   7.743 -0.3905 -0.5717 -0.0832
  192POPC  H10X22232   0.755   1.258   7.778 -1.2466  2.1286 -0.3467
  192POPC  H10Y22233   0.868   1.394   7.744  1.8158 -0.7433 -0.6617
  192POPC  C31122234   0.952   1.215   7.840  0.0392 -0.1252 -0.8520
  192POPC  H11X22235   1.059   1.216   7.810  0.3409  0.5427  0.1583
  192POPC  H11Y22236   0.925   1.109   7.857 -0.7999  0.3998  1.4577
  192POPC  C31222237   0.948   1.287   7.972 -0.0164 -0.3300 -0.3429
  192POPC  H12X22238   0.970   1.396   7.963  1.2248 -0.5498 -0.1633
  192POPC  H12Y22239   1.028   1.249   8.039 -0.5004 -0.9789 -0.1260
  192POPC  C31322240   0.819   1.266   8.046 -0.8909  0.2538 -0.6425
  192POPC  H13X22241   0.808   1.166   8.091  0.4412  0.2022 -0.3889
  192POPC  H13Y22242   0.729   1.298   7.988 -1.3147 -0.4682 -0.3964
  192POPC  C31422243   0.820   1.367   8.164  0.1158  0.7388  0.6948
  192POPC  H14X22244   0.810   1.469   8.121 -3.2060 -0.3771 -1.5536
  192POPC  H14Y22245   0.916   1.356   8.219  0.4151 -0.6068 -0.0544
  192POPC  C31522246   0.708   1.342   8.258  0.8990 -0.0800 -0.1754
  192POPC  H15X22247   0.729   1.248   8.314  0.0964 -0.1696 -0.0195
  192POPC  H15Y22248   0.623   1.311   8.195  2.3030  1.8748 -3.2449
  192POPC  C31622249   0.670   1.447   8.366 -0.5663 -0.3459 -0.0380
  192POPC  H16X22250   0.610   1.401   8.447 -1.1564  1.2379  0.4631
  192POPC  H16Y22251   0.598   1.522   8.327 -1.6825 -0.9390  0.8609
  192POPC  H16Z22252   0.754   1.498   8.418 -1.1608  1.5534 -0.8268
  193SOD    SOD22253   5.639   6.030  12.217  0.1170  0.4537  0.0538
  194SOD    SOD22254   1.316   2.451  15.564  0.2349 -0.0368  0.3415
  195SOD    SOD22255   2.700   0.758   3.628 -0.1474 -0.1132  0.3702
  196SOD    SOD22256   3.248   1.238  10.857  0.3327  0.1210  0.1670
  197SOD    SOD22257   3.025   6.753   6.616  0.1676  0.1341 -0.5387
  198SOD    SOD22258   2.558   0.154   4.632  0.1600 -0.3406  0.4439
  199SOD    SOD22259   0.492   1.444  11.361 -0.1703 -0.3465 -0.0739
  200SOD    SOD22260   6.121   0.573   1.207  0.6581  0.1912 -0.0525
  201SOD    SOD22261   1.550   2.167  10.627 -0.6495  0.1119  0.2930
  202SOD    SOD22262   3.565   2.407  17.246  0.3092  0.1837  0.1756
  203SOD    SOD22263   4.705   5.132   4.285 -0.0877 -0.1394 -0.3996
  204SOD    SOD22264   2.575   3.156   0.024  0.0528  0.0135  0.3676
  205SOD    SOD22265   3.433   0.275  12.723  0.7138 -0.5847 -0.1419
  206SOD    SOD22266   3.068   0.525  15.587 -0.2188 -0.2932  0.3490
  207SOD    SOD22267   0.262   0.612  15.133 -0.2826 -0.0458 -0.3480
  208SOD    SOD22268   2.266   6.144  17.103  0.0615 -0.0966  0.3945
  209SOD    SOD22269   3.378   5.918   5.422  0.5205  0.3871  0.1536
  210SOD    SOD22270   4.204   5.174  15.107 -0.2892 -0.4527 -0.1945
  211SOD    SOD22271   4.579   6.694  16.183  0.5015 -0.2405 -0.2180
  212SOD    SOD22272   3.398   4.549  11.322 -0.0634 -0.1374 -0.2053
  213SOD    SOD22273   4.799   1.556   2.995  0.5897 -0.5366  0.0804
  214SOD    SOD22274   5.933   0.069   6.058  0.2498 -0.0751 -0.2478
  215SOD    SOD22275   4.376   0.244   6.859 -0.0315 -0.0628 -0.1041
  216SOD    SOD22276   4.011   0.707   6.358 -0.5279  0.6162  0.1511
  217SOD    SOD22277   6.195   5.272  11.907 -0.3333 -0.5132  0.8740
  218SOD    SOD22278   1.218   4.703  17.073 -0.4216  0.1448 -0.4371
  219SOD    SOD22279   0.923   2.495  11.747  0.1964  0.0337  0.1214
  220SOD    SOD22280   6.280   3.718  11.137  0.2230  0.2039  0.1795
  221SOD    SOD22281   0.944   3.527  11.871 -0.3182 -0.0237  0.3106
  222SOD    SOD22282   6.551   4.604   0.792 -0.1569 -0.3160 -0.3317
  223SOD    SOD22283   4.431   3.953  13.061  0.3663  0.0399  0.2001
  224SOD    SOD22284   5.279   4.016  14.150 -0.1676 -0.3020 -0.5433
  225SOD    SOD22285   5.982   3.029   6.021 -0.0104  0.1477  0.3318
  226SOD    SOD22286   0.435   0.182  16.923  0.0118 -0.0359  0.3952
  227SOD    SOD22287   1.241   1.302  15.012  0.4427  0.3855  0.6251
  228SOD    SOD22288   3.722   4.401   6.274 -0.3746  0.1857 -0.0640
  229SOD    SOD22289   0.895   1.460   5.351 -0.2195 -0.0516 -0.1839
  230SOD    SOD22290   6.718   1.449  15.831  0.2825 -0.1750  0.3516
  231SOD    SOD22291   4.364   6.732  16.927  0.2324 -0.3085 -0.5214
  232SOD    SOD22292   1.633   3.725   3.264  0.1126  0.0966  0.4358
  233SOD    SOD22293   2.033   2.233   4.462 -0.4201  0.5058 -0.1316
  234SOD    SOD22294   3.160   6.353   1.206  0.0254  0.5898 -0.5540
  235SOD    SOD22295   5.884   6.179  14.849  0.2437  0.3880 -0.1175
  236SOD    SOD22296   2.833   1.829   2.009 -0.1228  0.0390 -0.2039
  237SOD    SOD22297   4.552   1.395  16.885  0.3513  0.2655 -0.4707
  238SOD    SOD22298   3.051   1.428   2.453  0.4262  0.3996 -0.4224
  239SOD    SOD22299   4.777   2.275  16.004 -0.2393  0.0106  0.2537
  240SOD    SOD22300   0.838   4.732  11.051  0.5204  0.5284  0.6531
  241SOD    SOD22301   5.406   2.013   4.162  0.3450 -0.2587  0.1172
  242SOD    SOD22302   0.806   5.345  13.337  0.3324 -0.0003  0.4086
  243SOD    SOD22303   0.950   4.990   6.220 -0.3652  0.0704  0.0386
  244SOD    SOD22304   3.486   1.094   5.569 -0.1423  0.0487 -0.2692
  245SOD    SOD22305   2.182   5.802  11.999  0.1097  0.9954  0.1568
  246SOD    SOD22306   5.726   1.466   5.086  0.0459 -0.4780 -0.2565
  247SOD    SOD22307   5.322   0.779   6.199  0.1307 -0.0266  0.0528
  248SOD    SOD22308   6.471   2.893  15.779  0.6227  0.6022  0.0474
  249SOD    SOD22309   1.330   5.364  12.798 -0.1161 -0.2358  0.1421
  250SOD    SOD22310   2.009   1.951   0.810  0.4715  0.5005 -0.2944
  251SOD    SOD22311   2.278   0.180  16.634 -0.2629 -0.1064  0.4164
  252SOD    SOD22312   5.228   4.311   0.476 -0.0472  0.3876  0.1237
  253SOD    SOD22313   4.468   3.775   4.461 -0.4517 -0.2098 -0.1099
  254SOD    SOD22314   2.833   6.336   5.326 -0.3065 -0.2492 -0.0267
  255SOD    SOD22315   0.800   0.476   3.480  0.0298  0.0550  0.0213
  256SOD    SOD22316   2.940   2.602   5.752  0.0174  0.3856 -0.7006
  257SOD    SOD22317   4.193   1.056   3.682 -0.2490  0.5116 -0.2115
  258SOD    SOD22318   5.792   3.969  13.306 -0.3215 -0.3206 -0.3153
  259SOD    SOD22319   1.737   6.425  15.500  0.2988  0.1575 -0.4253
  260SOD    SOD22320   5.415   5.635   3.554  0.1076 -0.0008  0.4614
  261SOD    SOD22321   0.052   5.208  10.666 -0.4460  0.2260  0.1653
  262SOD    SOD22322   5.543   3.675  15.477 -0.2223  0.6341  0.3524
  263SOD    SOD22323   4.248   2.201  16.406 -0.0330  0.3305  0.0799
  264SOD    SOD22324   1.216   5.423  10.803  0.4769 -0.0879 -0.3094
  265SOD    SOD22325   1.473   6.322   4.495 -0.0966  0.1323 -0.4128
  266SOD    SOD22326   2.463   3.173   4.179  0.3040 -0.2227  0.0678
  267SOD    SOD22327   5.780   1.948  13.645 -0.0436  0.4814 -0.2567
  268SOD    SOD22328   2.300   1.601   4.100  0.1101 -0.1107  0.0457
  269SOD    SOD22329   0.313   3.192  15.027 -0.5609  0.2742 -0.1687
  270CLA    CLA22330   6.094   0.728  14.436  0.3517 -0.1370 -0.3660
  271CLA    CLA22331   0.359   3.549   0.580  0.1455  0.2467 -0.0098
  272CLA    CLA22332   6.020   4.192  15.933  0.0638 -0.1777  0.0492
  273CLA    CLA22333   4.502   1.976   2.981  0.1121 -0.2196 -0.0390
  274CLA    CLA22334   1.856   1.270  16.550  0.0940 -0.0982 -0.3472
  275CLA    CLA22335   1.662   5.677  12.497 -0.1084 -0.1441  0.2720
  276CLA    CLA22336   1.583   3.228   3.046  0.2627 -0.0953 -0.4771
  277CLA    CLA22337   6.365   1.431   1.424 -0.1315 -0.0669  0.1080
  278CLA    CLA22338   0.321   2.011   0.790  0.0738 -0.1901 -0.2245
  279CLA    CLA22339   4.846   1.161  13.973  0.2069 -0.4501 -0.2770
  280CLA    CLA22340   1.625   1.381  14.591  0.4214 -0.1931  0.1035
  281CLA    CLA22341   3.694   0.826   1.851  0.3718 -0.1526  0.2115
  282CLA    CLA22342   6.221   5.009   0.813 -0.2107  0.2608 -0.4341
  283CLA    CLA22343   3.742   0.831  16.146 -0.2147 -0.2695  0.0964
  284CLA    CLA22344   6.213   5.774  15.893  0.0211 -0.0409 -0.1031
  285CLA    CLA22345   3.886   1.336   4.298  0.1803  0.0541  0.3249
  286CLA    CLA22346   3.420   6.659   0.588  0.1861 -0.1818 -0.5407
  287CLA    CLA22347   2.794   0.176  15.950  0.4066 -0.0782  0.3983
  288CLA    CLA22348   4.041   1.909  15.320 -0.1304 -0.2778 -0.0921
  289CLA    CLA22349   0.822   4.179   2.423 -0.4825 -0.3356  0.4530
  290CLA    CLA22350   6.532   1.605  12.820 -0.0464 -0.3357 -0.0084
  291CLA    CLA22351   3.749   3.979  11.845  0.1105  0.0997 -0.1807
  292CLA    CLA22352   3.909   5.693  14.107  0.3439  0.1657  0.1879
  293CLA    CLA22353   4.704   6.687   2.439  0.0530 -0.0166 -0.1384
  294CLA    CLA22354   3.212   5.406   4.133  0.2643 -0.1218  0.0696
  295CLA    CLA22355   4.333   0.927   0.224  0.1047 -0.1849  0.0444
  296CLA    CLA22356   6.661   1.081   3.914  0.2964  0.1087 -0.0614
  297CLA    CLA22357   2.848   4.931   0.328  0.1851  0.1280  0.5422
  298CLA    CLA22358   0.866   2.559  13.740  0.2458  0.2920  0.4432
  299CLA    CLA22359   0.655   1.722  17.354 -0.2646 -0.0323  0.5636
  300CLA    CLA22360   0.509   3.589  13.367  0.2632  0.0072 -0.0996
  301CLA    CLA22361   2.374   6.109   5.391 -0.1620 -0.0328 -0.2712
  302CLA    CLA22362   5.357   0.590   5.540  0.3239  0.1456 -0.1220
  303CLA    CLA22363   0.749   3.033   4.448  0.0372  0.5530  0.5044
  304CLA    CLA22364   4.908   5.065   2.216  0.0631 -0.2425 -0.1686
  305CLA    CLA22365   5.313   4.015   4.376 -0.0632  0.0330  0.2439
  306CLA    CLA22366   0.488   0.761   4.689  0.8939 -0.1028  0.2215
  307CLA    CLA22367   5.961   2.193  15.810  0.3953 -0.3038 -0.1542
  308CLA    CLA22368   3.707   4.680   0.028 -0.2035  0.0678  0.0709
  309CLA    CLA22369   1.930   6.320  16.490 -0.1431  0.2478 -0.0888
  310CLA    CLA22370   2.697   2.957   1.230  0.2764 -0.1771 -0.0090
  311CLA    CLA22371   1.250   5.844  13.047  0.1293 -0.1896  0.2139
  312CLA    CLA22372   2.670   2.251   0.048 -0.0924 -0.1302 -0.1187
  313CLA    CLA22373   2.359   2.014   2.167 -0.3210 -0.2984  0.2474
  314CLA    CLA22374   5.996   0.997   5.387 -0.3853 -0.3493  0.7348
  315CLA    CLA22375   5.507   4.003  12.979 -0.1500 -0.1901 -0.2232
  316CLA    CLA22376   0.872   1.294  15.749 -0.3511  0.2019  0.2932
  317CLA    CLA22377   0.500   2.227  17.342 -0.2753 -0.4454  0.0375
  318CLA    CLA22378   1.445   6.476  14.416 -0.0301 -0.2516 -0.1640
  319CLA    CLA22379   4.408   5.426  16.943 -0.0537  0.1074 -0.6879
  320CLA    CLA22380   0.381   5.154  14.250 -0.2910  0.1549  0.0262
  321CLA    CLA22381   0.259   2.832   4.775 -0.2814  0.2689 -0.4978
  322CLA    CLA22382   2.370   6.583   3.228 -0.4229  0.3816 -0.0781
  323TIP3   OH222383   5.383   4.481  13.527  0.3542  0.5552  0.0849
  323TIP3    H122384   5.420   4.393  13.518  2.1419  1.1556  1.0413
  323TIP3    H222385   5.429   4.533  13.461 -1.0897  0.7042 -0.8608
  324TIP3   OH222386   2.869   5.762  16.902  0.5735 -0.1682 -0.1219
  324TIP3    H122387   2.785   5.741  16.861  0.9533 -3.0095  0.3401
  324TIP3    H222388   2.846   5.811  16.981 -0.5116  0.4633 -0.8008
  325TIP3   OH222389   5.051   6.264   3.352 -1.4243 -0.6132  0.1971
  325TIP3    H122390   5.110   6.271   3.427 -1.5034 -0.5506  0.2531
  325TIP3    H222391   4.992   6.192   3.374 -2.2735  0.2264  0.7686
  326TIP3   OH222392   2.479   6.724  14.391  0.6435  0.0907  0.0770
  326TIP3    H122393   2.425   6.653  14.357  1.7126 -0.9233  0.4491
  326TIP3    H222394   2.523   6.687  14.468  1.3326  1.1041  0.1972
  327TIP3   OH222395   5.531   3.297  14.301  0.5777 -0.3191 -0.2339
  327TIP3    H122396   5.541   3.308  14.206  0.8044 -1.2124 -0.3298
  327TIP3    H222397   5.619   3.312  14.336  0.4465  0.2333 -0.1397
  328TIP3   OH222398   3.286   3.168   1.803  0.1141 -0.2648  0.4297
  328TIP3    H122399   3.365   3.124   1.773  0.1508  0.3494 -0.4063
  328TIP3    H222400   3.279   3.144   1.896  0.3137 -1.7340  0.0829
  329TIP3   OH222401   4.535   4.802  10.852 -0.5262 -0.5089 -0.2146
  329TIP3    H122402   4.592   4.868  10.892  1.6425 -0.6135 -2.8023
  329TIP3    H222403   4.538   4.728  10.913  1.3581 -0.1291  0.2184
  330TIP3   OH222404   4.464   4.330   2.768 -0.0911  0.6844  0.7166
  330TIP3    H122405   4.526   4.367   2.704  0.5412 -2.3879 -0.6143
  330TIP3    H222406   4.407   4.274   2.717 -2.7836  1.8500  2.2429
  331TIP3   OH222407   3.243   6.109   5.322 -0.1912 -0.6412 -0.9707
  331TIP3    H122408   3.278   6.190   5.359  0.3740 -1.7945  1.2014
  331TIP3    H222409   3.149   6.125   5.313 -0.0240  0.3928 -1.0211
  332TIP3   OH222410   4.202   0.286  11.521 -0.8734 -0.2367 -0.1894
  332TIP3    H122411   4.285   0.240  11.533 -0.6455 -0.2709 -1.7020
  332TIP3    H222412   4.220   0.376  11.549 -0.3548 -0.2625 -0.4260
  333TIP3   OH222413   3.631   2.313  12.327 -0.8262 -0.6154 -0.0200
  333TIP3    H122414   3.646   2.234  12.276  1.8149 -0.2446  0.0562
  333TIP3    H222415   3.643   2.385  12.265 -0.0504 -0.2153  0.5831
  334TIP3   OH222416   5.413   1.011   6.925 -0.7746  0.1197 -0.1081
  334TIP3    H122417   5.491   0.958   6.941 -0.5211  0.2350 -0.9276
  334TIP3    H222418   5.346   0.972   6.981 -0.4588 -0.7573 -0.3198
  335TIP3   OH222419   4.573   2.662   3.866  0.0732 -0.0641  0.0859
  335TIP3    H122420   4.506   2.721   3.830  0.7013  1.1399  0.8393
  335TIP3    H222421   4.656   2.698   3.835  0.4753 -0.5407  0.5812
  336TIP3   OH222422   1.568   6.017  16.865  0.0230  0.2895 -0.0625
  336TIP3    H122423   1.589   5.961  16.791 -0.3088 -0.0564  0.1006
  336TIP3    H222424   1.569   6.106  16.830 -0.1176  0.1296 -0.4762
  337TIP3   OH222425   3.918   0.112  10.820  0.2543 -0.3821 -0.1809
  337TIP3    H122426   3.895   0.163  10.742 -1.8879  0.2713  0.7830
  337TIP3    H222427   4.013   0.112  10.822  0.3460  0.5674 -2.1527
  338TIP3   OH222428   3.106   0.246   2.771 -0.3104 -0.2570  0.2175
  338TIP3    H122429   3.146   0.255   2.685 -0.8420  0.2969  0.0231
  338TIP3    H222430   3.111   0.334   2.809  0.6679 -0.6689  1.0896
  339TIP3   OH222431   0.888   0.949   2.046  0.4936  0.0399  0.2881
  339TIP3    H122432   0.819   0.934   1.981  1.2766 -2.1232 -0.1145
  339TIP3    H222433   0.904   1.043   2.043  0.0421  0.0931 -2.2063
  340TIP3   OH222434   6.033   5.265  14.818  0.2765  0.1211  0.0843
  340TIP3    H122435   6.025   5.350  14.774 -1.6347 -0.5437 -0.9841
  340TIP3    H222436   6.114   5.271  14.868  0.8852  2.0805 -1.0345
  341TIP3   OH222437   3.957   4.042   2.605  0.6557 -0.6031 -0.1844
  341TIP3    H122438   3.958   3.991   2.524  1.4926 -0.3708 -0.3248
  341TIP3    H222439   3.870   4.082   2.606  1.0133  0.2613 -1.5092
  342TIP3   OH222440   5.341   2.481   0.758  0.2910 -0.4786 -0.7501
  342TIP3    H122441   5.288   2.405   0.736  2.1315 -1.4682 -2.0077
  342TIP3    H222442   5.362   2.521   0.673  1.4453 -0.0463 -0.2725
  343TIP3   OH222443   2.784   5.033   4.233 -0.7049  0.3655  0.2673
  343TIP3    H122444   2.731   4.958   4.260  1.3965 -1.1993  0.2981
  343TIP3    H222445   2.849   4.996   4.173  0.6515  2.0917  0.5974
  344TIP3   OH222446   6.028   0.553   0.059  0.5726  0.2022  0.4622
  344TIP3    H122447   6.048   0.615  -0.012 -0.8032 -0.0782 -0.2086
  344TIP3    H222448   5.998   0.474   0.014  0.2315 -0.1892  1.3510
  345TIP3   OH222449   2.789   2.150  13.796  0.0394 -0.2225 -0.1949
  345TIP3    H122450   2.723   2.202  13.751  0.2530  0.8319  0.6626
  345TIP3    H222451   2.829   2.211  13.858 -1.3602 -1.9366  2.6226
  346TIP3   OH222452   6.103   2.080   3.617 -0.4333  0.8374 -0.6524
  346TIP3    H122453   6.047   2.005   3.639 -0.3190  0.8571 -0.2787
  346TIP3    H222454   6.122   2.070   3.524 -1.1244  0.8722 -0.8025
  347TIP3   OH222455   3.302   1.598  12.162 -0.3807  0.9233 -0.2115
  347TIP3    H122456   3.396   1.607  12.179  0.2208 -2.4009 -1.0973
  347TIP3    H222457   3.266   1.685  12.181  3.0868  2.8238 -1.4845
  348TIP3   OH222458   2.414   1.510   5.445  0.3915 -0.9192 -0.5307
  348TIP3    H122459   2.389   1.539   5.357 -0.1776  0.1033 -0.0438
  348TIP3    H222460   2.332   1.509   5.494  0.9988  0.8244  0.6266
  349TIP3   OH222461   6.439   5.852  12.924  0.0555  0.5789 -0.4804
  349TIP3    H122462   6.423   5.943  12.898 -0.1276  1.4502  2.3672
  349TIP3    H222463   6.361   5.804  12.896 -0.7380  1.7140 -0.2773
  350TIP3   OH222464   3.315   3.613  14.099  0.0846 -0.3741  0.0540
  350TIP3    H122465   3.265   3.571  14.169 -0.3925  1.8290  1.1156
  350TIP3    H222466   3.395   3.644  14.142  0.1223  0.3662 -0.5340
  351TIP3   OH222467   3.662   4.723   3.870 -0.2820 -0.0574 -0.2045
  351TIP3    H122468   3.704   4.775   3.938 -0.3240  1.8580 -1.5709
  351TIP3    H222469   3.569   4.722   3.893 -0.1845 -0.1039  0.1895
  352TIP3   OH222470   0.973   4.000   5.427  0.0398  0.1897 -0.3903
  352TIP3    H122471   0.910   4.022   5.358  0.7754  0.2286 -1.0650
  352TIP3    H222472   0.952   4.060   5.498 -0.8740  0.0095 -0.4839
  353TIP3   OH222473   5.560   0.374  15.181 -0.2307  0.4556  0.9560
  353TIP3    H122474   5.569   0.375  15.085 -1.4615  1.5025  0.8285
  353TIP3    H222475   5.519   0.289  15.200  0.2886  0.1126  0.5985
  354TIP3   OH222476   4.313   2.136  12.974  0.3862  0.2002 -0.0059
  354TIP3    H122477   4.301   2.094  13.059  1.2244 -0.5130 -0.2200
  354TIP3    H222478   4.297   2.229  12.990  1.1089  0.1534  1.0663
  355TIP3   OH222479   1.873   5.772  12.694  0.6593 -0.7639 -0.2333
  355TIP3    H122480   1.926   5.817  12.627  0.1298 -3.1115 -2.3631
  355TIP3    H222481   1.812   5.718  12.644 -0.3641 -1.9826  2.1808
  356TIP3   OH222482   0.761   3.452  13.932  0.0594 -0.1380 -0.3405
  356TIP3    H122483   0.801   3.399  13.864  0.5609 -2.0917  1.3574
  356TIP3    H222484   0.792   3.413  14.014 -0.3509  2.2141  1.0315
  357TIP3   OH222485   3.299   5.301  15.907  0.3008 -0.3213 -0.3486
  357TIP3    H122486   3.246   5.268  15.835 -0.6557  0.6046 -0.1046
  357TIP3    H222487   3.246   5.284  15.985  0.1385  0.9975 -0.1408
  358TIP3   OH222488   4.915   4.286  13.014 -0.5142  0.5909 -0.2001
  358TIP3    H122489   4.994   4.340  13.006  0.6640 -1.0089  0.1112
  358TIP3    H222490   4.919   4.228  12.939 -0.6519 -0.4258  0.5645
  359TIP3   OH222491   5.325   2.429   4.165 -0.1793 -0.6792 -1.0076
  359TIP3    H122492   5.230   2.424   4.177 -0.2724  0.6870 -1.0420
  359TIP3    H222493   5.336   2.473   4.082  0.4699  0.9185 -0.1022
  360TIP3   OH222494   3.800   3.963  12.922 -0.2999  0.1638 -0.3757
  360TIP3    H122495   3.730   3.983  12.983 -0.4445 -2.3696  0.3994
  360TIP3    H222496   3.759   3.910  12.854  0.1265  1.8695 -2.0917
  361TIP3   OH222497   3.909   6.585  11.688 -0.3727  0.4802  0.5708
  361TIP3    H122498   3.908   6.545  11.775 -1.7120 -1.2056 -0.1854
  361TIP3    H222499   3.955   6.522  11.633 -1.2201  0.6533 -0.3510
  362TIP3   OH222500   5.109   4.453  13.869  0.5490 -0.0799  0.3542
  362TIP3    H122501   5.181   4.507  13.900  1.1015 -1.1404  0.9377
  362TIP3    H222502   5.069   4.506  13.799  1.9924  0.4498 -0.1193
  363TIP3   OH222503   6.448   3.362  13.503  0.4966 -0.3902  0.5890
  363TIP3    H122504   6.543   3.366  13.491  0.4282  1.7059  0.2936
  363TIP3    H222505   6.413   3.406  13.426 -0.7550 -1.4591  0.5226
  364TIP3   OH222506   0.765   2.637   1.175 -0.0080 -0.3923  0.2846
  364TIP3    H122507   0.746   2.552   1.135 -0.6142 -0.7716  1.3337
  364TIP3    H222508   0.784   2.695   1.101 -1.9011 -0.8464 -0.6267
  365TIP3   OH222509   2.753   6.331   4.253 -0.1609 -0.2005 -0.1463
  365TIP3    H122510   2.826   6.273   4.231  0.4638  1.0690 -1.6193
  365TIP3    H222511   2.778   6.416   4.217 -1.7010  0.6458  0.6617
  366TIP3   OH222512   4.023   1.492  14.763 -0.2889 -0.0394  0.3236
  366TIP3    H122513   3.962   1.441  14.709  0.1057 -0.2448  0.0655
  366TIP3    H222514   4.022   1.579  14.725 -0.6298  0.0331  0.4912
  367TIP3   OH222515   2.119   1.429   0.319 -0.4041 -0.0702  0.0436
  367TIP3    H122516   2.093   1.496   0.255 -1.9199  1.1291  1.8042
  367TIP3    H222517   2.114   1.347   0.270 -0.1603  0.9159 -1.7287
  368TIP3   OH222518   0.110   5.839   0.845 -0.7724  0.3360 -0.9121
  368TIP3    H122519   0.070   5.846   0.758 -2.8241 -3.4534 -0.4925
  368TIP3    H222520   0.038   5.859   0.905  0.6265  2.9332  0.0641
  369TIP3   OH222521   4.611   5.596   2.838  0.1621  0.0218  0.2291
  369TIP3    H122522   4.515   5.601   2.835  0.0975 -0.3198  1.1508
  369TIP3    H222523   4.635   5.650   2.914  0.7655  0.7671 -0.4823
  370TIP3   OH222524   5.632   4.294   3.156 -0.1139 -0.1449  0.4461
  370TIP3    H122525   5.662   4.206   3.136  0.5836  0.1074  0.3476
  370TIP3    H222526   5.558   4.309   3.096 -1.7782 -1.4958  2.0313
  371TIP3   OH222527   0.519   5.685  13.857  0.1418 -0.0124  0.3446
  371TIP3    H122528   0.529   5.709  13.949 -0.0766  2.2129 -0.1579
  371TIP3    H222529   0.607   5.659  13.829  0.1696 -0.9061  1.1942
  372TIP3   OH222530   0.385   0.809  11.331  0.5581 -0.1220 -0.1053
  372TIP3    H122531   0.465   0.776  11.289 -0.6863 -0.3832 -2.4065
  372TIP3    H222532   0.351   0.734  11.381  0.0481 -1.0598 -1.7947
  373TIP3   OH222533   2.871   4.613   0.052 -0.8302 -0.4893 -0.1842
  373TIP3    H122534   2.912   4.529   0.033 -1.1965 -1.3673  2.4306
  373TIP3    H222535   2.783   4.606   0.014 -0.6756 -1.0623 -0.4472
  374TIP3   OH222536   4.091   4.302   5.155  0.4352  0.0455  0.2985
  374TIP3    H122537   4.033   4.321   5.081  2.5390  0.3475 -1.4053
  374TIP3    H222538   4.165   4.255   5.116 -0.1255 -3.3848  2.8966
  375TIP3   OH222539   0.587   2.339   0.666 -0.5906  0.0553  0.5854
  375TIP3    H122540   0.676   2.302   0.669 -0.6519 -0.1937 -0.2836
  375TIP3    H222541   0.596   2.425   0.706 -0.5541 -1.0482  3.1246
  376TIP3   OH222542   3.277   4.899   3.235  0.1991  0.0248  0.0415
  376TIP3    H122543   3.338   4.858   3.173  1.2073  1.1546  0.2264
  376TIP3    H222544   3.192   4.896   3.191  0.4415 -1.3132 -0.3601
  377TIP3   OH222545   1.531   5.971  12.610 -0.0735 -0.3947 -0.0374
  377TIP3    H122546   1.453   5.923  12.636  0.2824 -2.0520 -1.7831
  377TIP3    H222547   1.583   5.908  12.560  0.2450  1.8576 -2.8652
  378TIP3   OH222548   0.771   0.172   4.831 -0.3850 -0.2228  0.0771
  378TIP3    H122549   0.854   0.217   4.814 -0.6145  0.6468  1.0939
  378TIP3    H222550   0.720   0.183   4.751  0.5331 -0.8918 -0.6086
  379TIP3   OH222551   3.229   1.408   2.290  0.0827 -0.7422  0.4552
  379TIP3    H122552   3.324   1.407   2.301  0.0273 -1.0597  0.8858
  379TIP3    H222553   3.213   1.354   2.212  0.2383 -0.8229  0.4800
  380TIP3   OH222554   2.061   3.635  14.462  0.3691 -0.3965 -0.5707
  380TIP3    H122555   2.054   3.713  14.407 -0.3845 -0.2719 -0.3065
  380TIP3    H222556   1.974   3.624  14.500  0.5780 -1.1349 -0.2866
  381TIP3   OH222557   4.539   3.514   0.461 -0.6258  0.4059 -0.0026
  381TIP3    H122558   4.516   3.473   0.377 -0.6704 -1.0604  0.7073
  381TIP3    H222559   4.530   3.608   0.444 -2.1046  0.0841 -1.2139
  382TIP3   OH222560   4.387   4.718  16.141  0.1687 -0.0703 -0.2943
  382TIP3    H122561   4.307   4.769  16.143  0.1204 -0.1558  0.3034
  382TIP3    H222562   4.412   4.710  16.233 -0.0791 -1.5180 -0.3373
  383TIP3   OH222563   3.383   1.886  11.554 -0.4565  0.4547 -0.0139
  383TIP3    H122564   3.475   1.905  11.538 -0.2268 -1.2302 -0.9201
  383TIP3    H222565   3.348   1.861  11.468 -1.4608 -0.0415  0.5157
  384TIP3   OH222566   1.910   4.748  11.781 -0.2162  0.2363  0.2525
  384TIP3    H122567   1.929   4.783  11.868 -0.4164 -0.2936  0.5154
  384TIP3    H222568   1.965   4.670  11.774  1.0902  1.2100 -0.7818
  385TIP3   OH222569   5.040   2.493   6.206  0.1032 -0.0821 -0.3057
  385TIP3    H122570   4.964   2.523   6.256 -1.4084 -0.1213 -2.4532
  385TIP3    H222571   5.073   2.418   6.255 -1.4514 -0.2944  0.4795
  386TIP3   OH222572   5.851   0.900  11.744 -0.0940 -0.3050 -0.9392
  386TIP3    H122573   5.784   0.855  11.796 -0.8518  2.9260  1.1938
  386TIP3    H222574   5.801   0.939  11.672 -1.0431  3.2124  1.3607
  387TIP3   OH222575   6.592   0.790  11.023  0.0344  0.1658  0.7934
  387TIP3    H122576   6.534   0.722  10.990 -0.0010  0.2347  0.7135
  387TIP3    H222577   6.534   0.864  11.043 -0.4748 -0.9273  4.1067
  388TIP3   OH222578   1.760   6.546   0.808 -0.0143 -0.0752 -0.2247
  388TIP3    H122579   1.715   6.576   0.729 -2.2686  0.9348  1.3486
  388TIP3    H222580   1.831   6.610   0.821  1.2440 -1.0130 -2.0898
  389TIP3   OH222581   3.809   2.672  12.807 -0.0990  0.4971  0.3217
  389TIP3    H122582   3.778   2.672  12.897  0.4794  3.7153  0.6564
  389TIP3    H222583   3.904   2.658  12.814  0.0477  1.4196  0.3138
  390TIP3   OH222584   5.023   6.540  15.437 -0.2250  0.0544 -0.4220
  390TIP3    H122585   4.933   6.568  15.421 -0.9279  0.1169  2.8929
  390TIP3    H222586   5.055   6.600  15.504  1.6678 -1.0828 -0.2316
  391TIP3   OH222587   2.179   5.614  11.031 -0.0573  0.3716 -0.4120
  391TIP3    H122588   2.157   5.668  10.956 -0.9044  0.3911 -0.1512
  391TIP3    H222589   2.108   5.551  11.038 -0.8255  1.3604  1.3124
  392TIP3   OH222590   0.751   0.209  11.718  0.3981  0.0730 -0.3520
  392TIP3    H122591   0.712   0.130  11.754 -0.1862  0.6791  0.3842
  392TIP3    H222592   0.681   0.275  11.724  0.5987  0.4308 -1.7303
  393TIP3   OH222593   4.968   5.516   4.196  0.0194 -0.0717 -0.4922
  393TIP3    H122594   4.914   5.438   4.189 -1.4695  0.9027 -0.2201
  393TIP3    H222595   4.907   5.586   4.220  1.4040  1.0637 -0.1289
  394TIP3   OH222596   0.236   5.219  16.586 -0.1367 -0.5104  0.0202
  394TIP3    H122597   0.290   5.191  16.660  1.5894 -0.3335 -1.1105
  394TIP3    H222598   0.259   5.159  16.515  0.3663  1.0349 -1.1691
  395TIP3   OH222599   5.867   3.830  16.227  0.0971  0.0818  0.6422
  395TIP3    H122600   5.889   3.798  16.314  0.1133 -0.7045  0.3567
  395TIP3    H222601   5.936   3.892  16.206  0.2921  0.0003  1.0433
  396TIP3   OH222602   2.911   6.108   5.352  0.0436 -0.6744  0.5812
  396TIP3    H122603   2.953   6.082   5.434 -1.7855  0.0408  1.8146
  396TIP3    H222604   2.859   6.031   5.327  0.2628 -0.7379  0.3118
  397TIP3   OH222605   3.889   6.392   0.552  0.3920  0.0801 -0.1153
  397TIP3    H122606   3.960   6.360   0.497  1.3626  2.1963 -0.1598
  397TIP3    H222607   3.913   6.482   0.573 -1.7274  0.4854  0.8117
  398TIP3   OH222608   2.346   3.852   6.192  0.0259 -0.4540  0.1725
  398TIP3    H122609   2.405   3.909   6.241  0.8909 -1.2080  0.0334
  398TIP3    H222610   2.345   3.770   6.242  2.6582 -2.0417 -2.1151
  399TIP3   OH222611   6.525   5.999   0.701  0.5984 -1.2245  0.4366
  399TIP3    H122612   6.558   5.912   0.682  3.2792 -0.4332  1.0220
  399TIP3    H222613   6.603   6.054   0.709 -0.9834  1.3275 -0.2232
  400TIP3   OH222614   5.201   3.810   2.161 -0.2789  0.2332  0.1518
  400TIP3    H122615   5.146   3.734   2.176  0.3357 -0.4464 -0.9357
  400TIP3    H222616   5.166   3.877   2.219 -0.4813 -1.0381  1.5337
  401TIP3   OH222617   1.764   0.587   2.695 -0.5947  0.0671  0.5976
  401TIP3    H122618   1.756   0.532   2.774  2.1640 -2.9115 -0.9847
  401TIP3    H222619   1.806   0.667   2.727 -0.2476 -0.7222  2.2720
  402TIP3   OH222620   4.244   4.332   5.468 -0.6890  0.1318 -0.0638
  402TIP3    H122621   4.285   4.263   5.416 -1.5288  0.3590 -1.0502
  402TIP3    H222622   4.153   4.303   5.479 -0.7761  0.5740  0.4091
  403TIP3   OH222623   5.786   2.022   6.389  0.1990 -0.5679  0.0951
  403TIP3    H122624   5.748   1.948   6.343  1.2681 -1.1241  0.0762
  403TIP3    H222625   5.876   2.026   6.359  0.1567  0.7729  0.0746
  404TIP3   OH222626   2.656   5.941   5.395 -0.6137  0.3808  0.1152
  404TIP3    H122627   2.649   5.898   5.310 -2.5679 -1.0429  0.9270
  404TIP3    H222628   2.589   6.010   5.393  0.6648  1.6532 -0.1791
  405TIP3   OH222629   1.957   4.425  16.334 -0.1884 -0.9461  0.6590
  405TIP3    H122630   1.970   4.399  16.243  0.7527 -0.0030  0.5021
  405TIP3    H222631   1.872   4.469  16.335 -0.4074 -1.3593  0.3262
  406TIP3   OH222632   6.182   6.359  14.408 -0.0193  0.5437 -0.2758
  406TIP3    H122633   6.232   6.328  14.333  0.8935 -0.1084  0.5960
  406TIP3    H222634   6.241   6.352  14.483  0.0998  3.8758  0.1060
  407TIP3   OH222635   0.232   2.819  14.321 -0.2594 -0.0392  0.0034
  407TIP3    H122636   0.159   2.785  14.268  0.1200  0.3684 -0.7999
  407TIP3    H222637   0.190   2.869  14.390 -0.8193 -1.7788  0.9751
  408TIP3   OH222638   0.067   0.600   0.237 -0.1201 -0.1239  0.2731
  408TIP3    H122639   0.064   0.667   0.170 -0.4440  0.3058  0.7161
  408TIP3    H222640  -0.015   0.610   0.286 -0.2758 -0.9773  0.2106
  409TIP3   OH222641   2.437   6.053  11.591  0.0453 -0.0329 -0.1685
  409TIP3    H122642   2.457   6.014  11.506  1.5741 -0.0537  0.1734
  409TIP3    H222643   2.513   6.107  11.611  0.3694 -1.1247  1.7977
  410TIP3   OH222644   2.107   1.244  13.688 -0.0262  0.0812 -0.6264
  410TIP3    H122645   2.183   1.298  13.707 -0.1023  0.0475 -0.2076
  410TIP3    H222646   2.118   1.167  13.745 -0.1983 -0.0826 -0.8131
  411TIP3   OH222647   4.262   2.176   2.998 -0.0376 -0.2283 -0.6134
  411TIP3    H122648   4.343   2.127   3.010 -0.2935 -0.3526  0.6950
  411TIP3    H222649   4.271   2.215   2.911  1.2887 -0.4888 -0.6163
  412TIP3   OH222650   6.046   1.983  12.300 -0.3552  0.0421  0.0378
  412TIP3    H122651   5.967   1.998  12.248 -1.2595  1.2573  1.6757
  412TIP3    H222652   6.094   1.915  12.252 -1.7613  0.1882 -1.6607
  413TIP3   OH222653   5.149   4.030   3.902  0.6723  0.4815  0.4893
  413TIP3    H122654   5.173   4.022   3.995 -0.7334  2.5975  1.0955
  413TIP3    H222655   5.092   4.106   3.898  0.2382  0.1149 -2.0652
  414TIP3   OH222656   5.579   4.701  15.369 -0.1777 -0.4386  0.7283
  414TIP3    H122657   5.586   4.612  15.335  0.3087  0.4650 -1.6885
  414TIP3    H222658   5.637   4.753  15.314 -1.5805  1.6503  1.1160
  415TIP3   OH222659   2.629   5.796   3.580  0.1009  0.1463  0.1279
  415TIP3    H122660   2.540   5.781   3.549  0.2885 -1.5567  0.3090
  415TIP3    H222661   2.622   5.871   3.640 -1.1063  0.3370 -0.2278
  416TIP3   OH222662   4.036   4.640  11.649 -0.4200  0.0437 -0.0602
  416TIP3    H122663   4.000   4.551  11.648 -2.9663  0.9433  1.0759
  416TIP3    H222664   4.115   4.634  11.702 -0.7545 -1.4786  0.3208
  417TIP3   OH222665   2.514   0.708   0.786 -0.0800 -0.3943  0.3430
  417TIP3    H122666   2.600   0.670   0.806  0.4684 -1.2786 -3.0386
  417TIP3    H222667   2.452   0.638   0.807 -0.1404  0.4010  3.2214
  418TIP3   OH222668   5.147   0.894  14.598  0.0604  0.0401  0.0040
  418TIP3    H122669   5.074   0.935  14.645  0.4311  0.2503  0.3975
  418TIP3    H222670   5.107   0.820  14.552 -0.4817  0.4048 -0.1297
  419TIP3   OH222671   3.548   6.068   5.379  0.0856 -0.0176 -0.6351
  419TIP3    H122672   3.639   6.057   5.409 -0.2909 -1.6609  0.0331
  419TIP3    H222673   3.524   6.156   5.407  2.2350  1.4845 -3.0249
  420TIP3   OH222674   2.947   0.755  14.623 -0.2460  0.0113 -0.3734
  420TIP3    H122675   3.021   0.697  14.604 -0.3982 -0.1319 -0.5378
  420TIP3    H222676   2.870   0.705  14.595 -0.4006  0.1832 -0.2598
  421TIP3   OH222677   4.447   1.034  14.007  0.2298 -0.8028 -0.3200
  421TIP3    H122678   4.449   0.946  13.969 -1.1312 -0.3900 -1.4231
  421TIP3    H222679   4.491   1.089  13.943 -0.9741 -0.3080 -0.7461
  422TIP3   OH222680   1.586   5.125  14.392  0.7233 -1.0301 -0.4987
  422TIP3    H122681   1.621   5.083  14.471 -0.6376  0.2475  0.8414
  422TIP3    H222682   1.525   5.060  14.356  1.6697 -1.7935 -0.7632
  423TIP3   OH222683   0.340   0.168  13.324  0.2796  0.0488 -0.0470
  423TIP3    H122684   0.369   0.129  13.242 -0.3365 -0.2172 -0.1453
  423TIP3    H222685   0.300   0.251  13.298  0.4264  0.1425  0.0247
  424TIP3   OH222686   3.680   3.727   4.837 -0.2042  0.0543 -0.4676
  424TIP3    H122687   3.707   3.687   4.919  0.1560  1.5157  0.1480
  424TIP3    H222688   3.731   3.681   4.770 -0.1448 -0.8128  0.1536
  425TIP3   OH222689   2.835   0.065   0.933 -0.0201 -0.0007  0.3646
  425TIP3    H122690   2.858  -0.028   0.933  1.1344  0.2578  1.2890
  425TIP3    H222691   2.908   0.108   0.888 -0.1250  0.5473  0.7059
  426TIP3   OH222692   4.995   3.161  14.529 -0.1151  0.7807 -0.1627
  426TIP3    H122693   4.955   3.097  14.589  0.3680 -0.2087 -0.8680
  426TIP3    H222694   4.921   3.205  14.488 -0.4632  1.8204  1.4906
  427TIP3   OH222695   5.201   3.677   2.763  0.3800  0.3867 -0.4296
  427TIP3    H122696   5.237   3.736   2.830 -0.4719 -0.9844  1.3430
  427TIP3    H222697   5.164   3.734   2.697  0.1032  1.8357  0.9199
  428TIP3   OH222698   4.237   3.849   4.441  0.0767 -0.4694  0.0796
  428TIP3    H122699   4.167   3.784   4.439 -0.8050  0.4413  0.2628
  428TIP3    H222700   4.203   3.922   4.388  0.7051  0.1628  0.5286
  429TIP3   OH222701   3.948   5.584  14.426  0.7797 -0.3403  0.7325
  429TIP3    H122702   3.927   5.621  14.341 -0.6279  1.0137  1.6210
  429TIP3    H222703   3.902   5.500  14.427 -0.2725  0.2088  0.6117
  430TIP3   OH222704   4.506   5.246  15.952  0.2988  0.0718 -0.0988
  430TIP3    H122705   4.500   5.327  16.003  1.6677  0.1711 -0.0481
  430TIP3    H222706   4.487   5.176  16.015  0.0762  0.2928  0.0820
  431TIP3   OH222707   3.941   3.802   0.886 -0.3740 -0.3191  0.0628
  431TIP3    H122708   3.982   3.877   0.843 -0.8018 -1.1177 -1.8664
  431TIP3    H222709   3.859   3.789   0.838 -0.5646 -1.6818  0.7058
  432TIP3   OH222710   6.263   1.117   3.067  0.0256  0.5346 -0.2698
  432TIP3    H122711   6.336   1.055   3.076  0.7440  1.0818 -1.9774
  432TIP3    H222712   6.240   1.115   2.975 -1.1482  1.4898 -0.0259
  433TIP3   OH222713   0.043   3.067   4.304  0.0697  0.3100 -0.1025
  433TIP3    H122714   0.030   3.128   4.377  1.4658 -0.0353  0.4592
  433TIP3    H222715   0.127   3.025   4.323 -0.6612 -1.4911 -0.6968
  434TIP3   OH222716   0.043   2.290   0.246  0.5274  0.6048  0.5960
  434TIP3    H122717  -0.016   2.216   0.261  0.3434  0.8242  0.9554
  434TIP3    H222718   0.124   2.249   0.215  0.2066  0.2993  0.1454
  435TIP3   OH222719   3.258   0.714   5.223 -0.1659  0.2540  0.1551
  435TIP3    H122720   3.178   0.754   5.258 -1.0295 -1.7553  0.6267
  435TIP3    H222721   3.227   0.650   5.159  1.1243  0.0404 -0.2838
  436TIP3   OH222722   4.477   1.156  13.444 -0.0732  0.0514 -0.1962
  436TIP3    H122723   4.465   1.127  13.535 -2.3912  0.8924 -0.1628
  436TIP3    H222724   4.441   1.085  13.391 -1.0087  0.6039 -0.3236
  437TIP3   OH222725   3.550   0.783   3.066 -0.0831  0.0488 -0.2506
  437TIP3    H122726   3.523   0.759   3.154  1.7813  0.5123  0.4914
  437TIP3    H222727   3.606   0.711   3.037  0.0528  0.3277 -0.6953
  438TIP3   OH222728   3.636   0.293  16.056 -0.2206  0.0911  0.1655
  438TIP3    H122729   3.681   0.358  16.110 -2.5206  0.6105  1.5819
  438TIP3    H222730   3.624   0.217  16.113 -1.2663  0.0429 -0.0906
  439TIP3   OH222731   4.509   6.682  14.482 -0.0255 -0.4902 -0.0287
  439TIP3    H122732   4.512   6.778  14.476 -0.6893 -0.4943 -0.6167
  439TIP3    H222733   4.565   6.652  14.411  1.1736 -0.5456  0.9259
  440TIP3   OH222734   1.066   4.242   2.275  0.3391 -0.0020 -0.3044
  440TIP3    H122735   0.987   4.214   2.321  0.1387 -0.8076 -1.1085
  440TIP3    H222736   1.036   4.307   2.212  0.5201  0.6304  0.2459
  441TIP3   OH222737   3.551   0.179  13.956 -0.6374  0.0317  0.4479
  441TIP3    H122738   3.566   0.122  13.880 -0.7621  0.1469  0.3375
  441TIP3    H222739   3.477   0.139  14.002 -0.6813  0.0682  0.4076
  442TIP3   OH222740   3.738   0.818   4.388  0.1608 -0.1511  0.1963
  442TIP3    H122741   3.728   0.785   4.299 -0.3083 -1.5221  0.7327
  442TIP3    H222742   3.731   0.914   4.379  1.8198 -0.1359 -1.4400
  443TIP3   OH222743   4.439   5.949  12.523  0.2878  0.1207 -0.7206
  443TIP3    H122744   4.453   5.874  12.466  0.7644  0.9213 -1.6786
  443TIP3    H222745   4.458   5.917  12.611 -0.4214 -1.1233 -1.0053
  444TIP3   OH222746   2.063   5.695   1.100  0.1077  0.4290 -0.0772
  444TIP3    H122747   2.130   5.627   1.104 -1.1089 -0.9041 -0.9667
  444TIP3    H222748   2.024   5.695   1.187 -1.6129 -1.9663 -0.7240
  445TIP3   OH222749   4.448   3.473   6.328 -0.6163  0.0307  0.3078
  445TIP3    H122750   4.510   3.403   6.349 -0.9194 -0.5478 -0.6474
  445TIP3    H222751   4.500   3.553   6.334  0.1248 -0.4062 -0.0690
  446TIP3   OH222752   0.247   4.647   5.499 -0.0044  0.0878 -0.1044
  446TIP3    H122753   0.313   4.709   5.529  0.4808 -0.3848 -0.1607
  446TIP3    H222754   0.240   4.663   5.405 -1.3553  1.4112  0.1909
  447TIP3   OH222755   5.428   5.812  15.220 -0.1792 -0.2530  0.4216
  447TIP3    H122756   5.450   5.719  15.208  0.7630 -0.2348  1.6768
  447TIP3    H222757   5.464   5.856  15.143  2.3886 -0.5412  1.3508
  448TIP3   OH222758   6.380   2.783  14.843  0.5782  0.4863  0.2246
  448TIP3    H122759   6.425   2.866  14.850  0.7286  0.6134 -1.6530
  448TIP3    H222760   6.344   2.767  14.930  1.4933  1.9534  0.8998
  449TIP3   OH222761   1.371   4.711   1.508  0.0215  0.3055  0.0800
  449TIP3    H122762   1.287   4.666   1.516 -0.4916  1.2866  0.2368
  449TIP3    H222763   1.373   4.771   1.582  1.7732 -1.1488  1.3206
  450TIP3   OH222764   1.704   2.166  14.200 -0.3697  0.2806  0.3964
  450TIP3    H122765   1.776   2.152  14.139 -0.6268  2.3374 -0.4518
  450TIP3    H222766   1.731   2.241  14.253 -2.5094  2.2023 -1.0511
  451TIP3   OH222767   6.094   4.772  14.585  0.0575  0.0378 -0.0709
  451TIP3    H122768   6.128   4.788  14.497  0.3914  0.3141  0.1023
  451TIP3    H222769   6.055   4.856  14.611 -0.7385 -0.2720 -0.2557
  452TIP3   OH222770   0.251   2.780   0.803  0.9585  0.3405  0.5741
  452TIP3    H122771   0.230   2.865   0.841 -0.9977 -0.1160  0.6018
  452TIP3    H222772   0.166   2.736   0.793  1.8568 -1.3443 -0.0625
  453TIP3   OH222773   3.439   5.812  12.612 -0.1897  0.1158  0.4011
  453TIP3    H122774   3.479   5.898  12.622 -0.7576  0.4855 -0.3589
  453TIP3    H222775   3.395   5.816  12.527  0.9405 -1.4106 -0.3034
  454TIP3   OH222776   5.276   2.179  16.332 -0.0103  0.6707  0.2211
  454TIP3    H122777   5.195   2.211  16.373  0.2299  0.7985  0.6110
  454TIP3    H222778   5.330   2.151  16.406  1.6176  3.6044  0.2850
  455TIP3   OH222779   2.490   1.628   0.618 -0.1127  0.3914  0.3347
  455TIP3    H122780   2.554   1.564   0.647  0.4317  1.0199  0.5569
  455TIP3    H222781   2.487   1.618   0.522  1.1494  1.0952  0.2024
  456TIP3   OH222782   2.385   1.098  16.549 -0.4790 -0.4391 -0.1820
  456TIP3    H122783   2.307   1.062  16.507 -1.7005  2.4331 -0.5484
  456TIP3    H222784   2.440   1.127  16.477  0.9151 -2.2266  0.0816
  457TIP3   OH222785   1.902   4.406   3.520 -0.3834  0.1708  0.1839
  457TIP3    H122786   1.807   4.412   3.523 -0.2913  1.8268  0.5045
  457TIP3    H222787   1.925   4.431   3.431 -0.3695 -3.4883 -1.0227
  458TIP3   OH222788   5.736   5.498  13.651  0.0387  0.3073 -0.2962
  458TIP3    H122789   5.759   5.474  13.740  0.2791 -2.9984 -1.1309
  458TIP3    H222790   5.821   5.504  13.605  0.0178  3.2285 -0.1348
  459TIP3   OH222791   5.742   2.643  14.807  0.0474  0.1671 -0.8643
  459TIP3    H122792   5.794   2.565  14.823 -0.4340  0.0015 -0.0152
  459TIP3    H222793   5.654   2.610  14.790  0.0370  0.4825 -1.4335
  460TIP3   OH222794   2.177   6.357  15.966  0.0667  0.0240 -0.5661
  460TIP3    H122795   2.227   6.382  16.043  0.1113  0.9733 -0.8900
  460TIP3    H222796   2.112   6.294  15.998  1.2466 -0.9830 -0.0843
  461TIP3   OH222797   1.396   3.592   1.141  0.0366  0.8462  0.1171
  461TIP3    H122798   1.397   3.497   1.132 -0.6595  1.0399 -2.6468
  461TIP3    H222799   1.475   3.612   1.192  0.7350 -1.1323 -0.1129
  462TIP3   OH222800   0.454   3.922  13.722  0.1886  0.6636  0.6904
  462TIP3    H122801   0.546   3.895  13.724  0.1188  0.4964  1.9208
  462TIP3    H222802   0.419   3.894  13.806 -0.8942  1.0900  0.3877
  463TIP3   OH222803   0.433   1.584   5.969  0.7556 -0.7447 -0.5889
  463TIP3    H122804   0.357   1.621   6.014 -0.4757 -0.5621 -2.6742
  463TIP3    H222805   0.508   1.621   6.015 -0.4063  0.0433  0.7748
  464TIP3   OH222806   2.736   1.633  15.740 -0.2406  0.0595 -0.2433
  464TIP3    H122807   2.798   1.584  15.794  0.2883  1.1695  0.1899
  464TIP3    H222808   2.710   1.572  15.671  2.2468 -0.0699 -1.1469
  465TIP3   OH222809   6.624   6.647  13.152 -0.0644 -0.0374 -0.3032
  465TIP3    H122810   6.564   6.664  13.224  1.4427 -1.1825  1.2946
  465TIP3    H222811   6.686   6.719  13.155  1.4668 -1.3515  1.2030
  466TIP3   OH222812   2.249   0.291   5.700 -0.3036 -0.4752  0.1985
  466TIP3    H122813   2.276   0.225   5.635 -0.2524  0.0184 -0.2896
  466TIP3    H222814   2.217   0.364   5.647 -0.6371 -0.2272  0.7445
  467TIP3   OH222815   1.993   3.236  13.731 -0.1707 -0.2521  0.4134
  467TIP3    H122816   2.056   3.275  13.670 -1.3377 -0.6099 -1.0948
  467TIP3    H222817   2.020   3.144  13.739 -1.0498 -0.6819 -1.0800
  468TIP3   OH222818   4.306   4.048  15.116  0.6938 -0.3858 -0.3767
  468TIP3    H122819   4.320   4.143  15.113  1.8762 -0.5581 -0.8414
  468TIP3    H222820   4.366   4.018  15.184 -1.1355 -0.5846  1.2020
  469TIP3   OH222821   0.317   3.890  14.270 -0.0658 -0.0965  0.1449
  469TIP3    H122822   0.366   3.828  14.215  0.0279  0.5187 -0.4723
  469TIP3    H222823   0.371   3.899  14.349  0.8615  0.6165 -0.5487
  470TIP3   OH222824   1.653   4.464  10.719  0.2291 -0.3868 -0.1106
  470TIP3    H122825   1.699   4.384  10.694  0.6559  0.3374 -1.8152
  470TIP3    H222826   1.572   4.433  10.760  0.7230 -1.6853 -0.0688
  471TIP3   OH222827   4.273   4.987   0.622 -0.5404  0.0463 -0.2142
  471TIP3    H122828   4.206   4.978   0.689  0.0799  2.4970  0.8546
  471TIP3    H222829   4.348   4.938   0.655 -0.5631  0.4505  0.4662
  472TIP3   OH222830   0.727   5.357   6.196 -0.2442  0.1864  0.4433
  472TIP3    H122831   0.707   5.277   6.245 -1.5401 -0.8594 -1.6641
  472TIP3    H222832   0.644   5.385   6.159  0.8573  0.0176 -2.4038
  473TIP3   OH222833   6.704   3.299  11.873 -0.1898  0.1617 -0.0848
  473TIP3    H122834   6.612   3.300  11.849 -0.0325 -0.9915 -0.8010
  473TIP3    H222835   6.714   3.223  11.929  0.5226 -0.3793 -0.9142
  474TIP3   OH222836   6.539   3.629  15.518 -0.3663  0.7134 -0.5777
  474TIP3    H122837   6.539   3.542  15.478  2.1339  0.2442  0.3013
  474TIP3    H222838   6.614   3.674  15.479  1.1629  0.8234  2.1803
  475TIP3   OH222839   2.237   0.985   0.591 -0.1369  0.0246 -0.3342
  475TIP3    H122840   2.293   1.028   0.657 -0.2439  0.8098 -0.7461
  475TIP3    H222841   2.172   0.937   0.643 -0.2016  0.6133  0.1386
  476TIP3   OH222842   3.219   6.000  15.491 -0.4158  0.4620 -0.1358
  476TIP3    H122843   3.220   5.963  15.579 -0.9375  0.3889 -0.1565
  476TIP3    H222844   3.163   6.077  15.498 -0.8968  0.1519 -0.5196
  477TIP3   OH222845   0.087   5.463  11.363 -0.0276  0.3544 -0.0278
  477TIP3    H122846   0.105   5.471  11.457  0.9278 -1.9539  0.0515
  477TIP3    H222847   0.156   5.516  11.321  1.5190 -1.1357  0.5351
  478TIP3   OH222848   1.333   6.517  15.979 -0.2440 -0.1909  0.2187
  478TIP3    H122849   1.331   6.497  16.072 -0.2058  2.4203  0.8633
  478TIP3    H222850   1.244   6.547  15.959  0.4057  1.7617  0.0916
  479TIP3   OH222851   5.453   0.858   1.795  0.1250 -0.3955 -0.4992
  479TIP3    H122852   5.449   0.763   1.787  1.9268 -0.7835  2.0863
  479TIP3    H222853   5.534   0.882   1.750  1.8561 -0.6863  2.2354
  480TIP3   OH222854   4.908   1.786  12.838 -0.0640 -0.4679 -0.0011
  480TIP3    H122855   4.979   1.829  12.791  0.8925 -1.1449  0.7711
  480TIP3    H222856   4.938   1.695  12.849 -0.4644 -0.4539  1.4681
  481TIP3   OH222857   2.290   0.717   2.401 -0.2617 -0.2825 -0.1439
  481TIP3    H122858   2.293   0.640   2.457 -0.8721 -0.6582 -0.6105
  481TIP3    H222859   2.334   0.690   2.321  0.3175  0.1471  0.0237
  482TIP3   OH222860   2.171   4.029  16.099  0.1197 -0.1721  0.8571
  482TIP3    H122861   2.099   3.969  16.116  0.9697 -1.2748  0.6476
  482TIP3    H222862   2.250   3.980  16.122  0.7561  1.4867  2.4424
  483TIP3   OH222863   3.240   4.683  14.467 -0.3079  0.5361 -0.0765
  483TIP3    H122864   3.174   4.634  14.418  0.5974  1.4544 -2.3832
  483TIP3    H222865   3.203   4.771  14.475  0.2629  0.8398 -0.6553
  484TIP3   OH222866   0.752   2.186  13.362 -0.5236  0.1218 -0.5642
  484TIP3    H122867   0.796   2.198  13.447 -0.0808  1.3655 -0.9440
  484TIP3    H222868   0.703   2.104  13.372  1.3070 -0.9555  0.1283
  485TIP3   OH222869   1.541   1.884  15.489  0.7315 -0.4733  0.1931
  485TIP3    H122870   1.552   1.910  15.397  0.4911  0.3298  0.3774
  485TIP3    H222871   1.601   1.942  15.537 -1.0134  0.9392  0.7884
  486TIP3   OH222872   5.027   1.472   4.823  0.1827  0.6264 -0.4315
  486TIP3    H122873   4.983   1.504   4.902  1.4819  1.6382 -0.0796
  486TIP3    H222874   5.019   1.377   4.828  0.6040  0.6471  1.1546
  487TIP3   OH222875   2.106   1.283  11.846  0.4871 -0.0208 -0.2878
  487TIP3    H122876   2.031   1.252  11.796  0.7491 -1.6264  0.2577
  487TIP3    H222877   2.179   1.280  11.784  0.2853  0.7094 -0.5740
  488TIP3   OH222878   3.957   1.759   5.902 -0.3502  0.4812  0.2816
  488TIP3    H122879   3.912   1.753   5.818 -0.6215  0.2486  0.4400
  488TIP3    H222880   3.985   1.669   5.921 -0.0098  0.5853  0.2907
  489TIP3   OH222881   1.075   2.292   2.646  0.1602 -0.7406 -0.2036
  489TIP3    H122882   1.158   2.249   2.666  0.6631  0.7638  1.1373
  489TIP3    H222883   1.096   2.355   2.576  0.2111 -0.1861  0.3063
  490TIP3   OH222884   1.922   2.481  12.994 -0.1150  0.3529  0.6588
  490TIP3    H122885   1.970   2.558  13.025  0.1903  0.5939 -0.3660
  490TIP3    H222886   1.876   2.512  12.916  2.1275 -1.1323 -1.3811
  491TIP3   OH222887   4.435   4.537   4.611 -0.2383  0.5193 -0.0069
  491TIP3    H122888   4.485   4.549   4.530  1.7517  0.5250  1.1737
  491TIP3    H222889   4.419   4.625   4.644 -0.7770  0.5033 -0.2033
  492TIP3   OH222890   1.207   1.947   2.314  0.2721 -0.2865 -0.2664
  492TIP3    H122891   1.292   1.984   2.339 -0.5144  1.2509  0.2467
  492TIP3    H222892   1.144   1.987   2.374 -0.9322 -0.7848 -1.1421
  493TIP3   OH222893   0.898   3.834  14.962  0.0392 -0.2341 -0.4818
  493TIP3    H122894   0.974   3.850  14.905  0.3613 -1.1560 -0.3177
  493TIP3    H222895   0.934   3.789  15.038 -0.8180 -1.7067 -0.9146
  494TIP3   OH222896   3.377   4.607   5.542  0.1060 -0.1596  0.3252
  494TIP3    H122897   3.423   4.683   5.576 -3.3428  0.5953  4.0765
  494TIP3    H222898   3.433   4.533   5.566  1.2826  0.8983  0.9731
  495TIP3   OH222899   4.365   1.296   2.804  0.4438  0.3129  0.3709
  495TIP3    H122900   4.351   1.390   2.800 -0.2545  0.2000 -0.2762
  495TIP3    H222901   4.376   1.270   2.713 -0.8148 -0.4086  0.3913
  496TIP3   OH222902   0.431   3.791   2.190  0.4533  0.0408  0.3269
  496TIP3    H122903   0.437   3.748   2.104 -0.3545  2.4576 -1.0536
  496TIP3    H222904   0.521   3.798   2.220  0.6056 -2.7790  0.7919
  497TIP3   OH222905   0.428   1.325  11.549 -0.2389 -0.7549 -0.3826
  497TIP3    H122906   0.356   1.264  11.564 -1.1837  0.1744 -0.9596
  497TIP3    H222907   0.502   1.287  11.595 -1.9087 -0.1200  3.1438
  498TIP3   OH222908   1.560   1.739  13.989 -0.1471 -0.1653  0.0724
  498TIP3    H122909   1.614   1.790  14.049  0.2607  0.1524 -0.5673
  498TIP3    H222910   1.597   1.755  13.903 -0.1905 -1.3044 -0.1809
  499TIP3   OH222911   2.656   3.495   5.347  1.0558  0.3562 -0.0559
  499TIP3    H122912   2.693   3.441   5.416 -2.2001 -1.2183  0.6579
  499TIP3    H222913   2.572   3.524   5.382 -0.5910 -0.2056 -3.1541
  500TIP3   OH222914   3.293   2.419   5.141  0.4082 -0.5490  0.1305
  500TIP3    H122915   3.384   2.431   5.166  0.6011 -3.1786  1.0465
  500TIP3    H222916   3.244   2.480   5.197  1.3722 -1.6897  2.3300
  501TIP3   OH222917   2.118   6.040   3.492  0.0636  0.0845 -0.4834
  501TIP3    H122918   2.099   5.966   3.434 -0.3585  0.3399 -0.6857
  501TIP3    H222919   2.094   6.117   3.439 -0.0720  0.3325 -0.0640
  502TIP3   OH222920   2.190   0.869  15.335 -0.1512  0.1324  0.3839
  502TIP3    H122921   2.281   0.893  15.318  0.0840 -1.0479 -0.1255
  502TIP3    H222922   2.188   0.849  15.429  0.1806 -0.1134  0.3406
  503TIP3   OH222923   4.790   4.212  12.578  0.0305  0.1245 -0.4012
  503TIP3    H122924   4.839   4.167  12.647 -0.1038  0.3432 -0.1598
  503TIP3    H222925   4.855   4.266  12.533  0.3099 -0.7764 -1.0848
  504TIP3   OH222926   3.782   5.412  13.571 -0.6478  0.3683 -0.1435
  504TIP3    H122927   3.730   5.338  13.540 -1.2993  1.1227 -0.8963
  504TIP3    H222928   3.735   5.489  13.540 -0.3714  1.1279  1.2431
  505TIP3   OH222929   6.511   1.050   6.461 -0.4226 -0.0529  1.0048
  505TIP3    H122930   6.479   1.114   6.397 -0.4690  1.1401  2.1628
  505TIP3    H222931   6.604   1.038   6.440 -0.9465 -1.4723 -0.7006
  506TIP3   OH222932   4.788   2.457  13.784 -0.1156  0.6498 -0.3065
  506TIP3    H122933   4.740   2.374  13.793  1.0521 -0.1627 -1.1694
  506TIP3    H222934   4.753   2.512  13.854 -0.1990 -0.9383  0.9773
  507TIP3   OH222935   6.549   3.859  15.699 -0.1093  0.2873  0.1774
  507TIP3    H122936   6.635   3.836  15.736 -0.4751 -1.0878  0.2523
  507TIP3    H222937   6.526   3.783  15.646 -1.0110  0.9113 -0.3386
  508TIP3   OH222938   5.738   5.779  16.208 -0.0697 -0.0855  0.2691
  508TIP3    H122939   5.805   5.720  16.174  0.5328  0.7751 -0.0587
  508TIP3    H222940   5.667   5.773  16.144  0.1677 -0.1250  0.0090
  509TIP3   OH222941   5.399   2.926   2.966 -0.1669  0.3352 -0.1752
  509TIP3    H122942   5.460   2.852   2.975 -0.6506  0.0746  1.1520
  509TIP3    H222943   5.340   2.900   2.896 -0.9293 -0.9829  0.9245
  510TIP3   OH222944   2.393   1.178   4.648 -0.0724  0.1923  0.2022
  510TIP3    H122945   2.479   1.138   4.662 -0.5783 -0.1736  2.8153
  510TIP3    H222946   2.398   1.261   4.695 -0.7005  0.8545 -0.8660
  511TIP3   OH222947   0.361   1.591   3.847  0.0960  0.1581  0.5749
  511TIP3    H122948   0.276   1.625   3.873  1.1614  2.4842  1.3547
  511TIP3    H222949   0.398   1.556   3.928 -0.4748 -1.8277  0.0294
  512TIP3   OH222950   3.123   5.037   3.643 -0.4100  0.4369 -0.2931
  512TIP3    H122951   3.035   5.062   3.616 -0.1416  1.2142 -0.4897
  512TIP3    H222952   3.125   5.049   3.738 -0.3267  1.0315 -0.3700
  513TIP3   OH222953   1.129   1.510   4.020  0.0110  1.1267 -0.1037
  513TIP3    H122954   1.064   1.567   3.978 -1.1757 -0.4410 -0.5188
  513TIP3    H222955   1.085   1.425   4.025  1.9748  0.0639 -0.1785
  514TIP3   OH222956   5.723   6.302   3.787  0.5215 -0.5178  0.6762
  514TIP3    H122957   5.786   6.231   3.772  0.1725 -0.3106 -2.4155
  514TIP3    H222958   5.640   6.257   3.803  0.5949 -0.8302  0.2154
  515TIP3   OH222959   1.616   4.539  11.849 -0.1168  0.1909  0.0927
  515TIP3    H122960   1.572   4.551  11.933  0.8795  0.1023  0.6463
  515TIP3    H222961   1.690   4.482  11.869 -0.3068 -0.4446 -1.0036
  516TIP3   OH222962   4.832   6.151  11.881 -0.1678  0.1530 -0.0126
  516TIP3    H122963   4.784   6.229  11.854 -0.7416 -1.0488 -2.7232
  516TIP3    H222964   4.766   6.082  11.882  0.8180 -0.8051 -0.2210
  517TIP3   OH222965   4.613   6.348  16.791 -0.1258  0.3589 -0.1085
  517TIP3    H122966   4.596   6.282  16.724 -3.2802  1.1459 -0.2511
  517TIP3    H222967   4.620   6.430  16.742 -0.8208  0.7142  0.3645
  518TIP3   OH222968   1.130   1.936   6.234 -0.3905  0.2837  0.4446
  518TIP3    H122969   1.185   1.882   6.177 -1.4253  0.3253 -0.6269
  518TIP3    H222970   1.093   1.874   6.297 -0.0105  0.0748  0.4634
  519TIP3   OH222971   5.272   2.047   0.205  0.4442 -0.1067  0.0115
  519TIP3    H122972   5.308   2.031   0.118  0.3936 -1.1023  0.1574
  519TIP3    H222973   5.179   2.028   0.197 -0.1470  2.5340 -0.3790
  520TIP3   OH222974   3.508   5.736   2.870  0.7960 -0.5764 -0.1973
  520TIP3    H122975   3.537   5.646   2.851 -1.2975 -1.7362  1.6399
  520TIP3    H222976   3.503   5.740   2.965 -2.0765  0.4560 -0.3042
  521TIP3   OH222977   1.062   1.883   5.456 -0.0287 -0.3088 -0.0618
  521TIP3    H122978   1.105   1.811   5.410 -0.0582 -0.0671 -0.4667
  521TIP3    H222979   1.133   1.939   5.487 -0.0628  0.6715 -1.6625
  522TIP3   OH222980   5.532   1.235   3.972  0.4207  0.3834  0.2206
  522TIP3    H122981   5.559   1.248   3.881 -1.0508 -1.2848 -0.5159
  522TIP3    H222982   5.444   1.273   3.977 -0.1612 -0.9530  0.4950
  523TIP3   OH222983   3.644   6.082   0.127 -0.2458  0.3345 -0.9062
  523TIP3    H122984   3.696   6.160   0.108 -1.5660  0.8125 -2.8909
  523TIP3    H222985   3.696   6.033   0.191  2.0570  1.3275 -1.9151
  524TIP3   OH222986   3.756   5.455  13.246  0.4513 -0.7867 -0.2538
  524TIP3    H122987   3.835   5.484  13.291  0.2232 -0.2834 -0.1754
  524TIP3    H222988   3.752   5.508  13.167 -0.9440  0.7393  0.7750
  525TIP3   OH222989   0.729   0.931   1.576  0.4014 -0.5082  0.0009
  525TIP3    H122990   0.696   0.956   1.662  1.7263  0.8561  0.1534
  525TIP3    H222991   0.655   0.887   1.534 -0.2386 -1.2807  1.8387
  526TIP3   OH222992   2.051   6.633   3.357  0.6715 -0.4236  0.0392
  526TIP3    H122993   2.141   6.622   3.329  0.1868  0.2785 -2.0091
  526TIP3    H222994   2.010   6.684   3.286 -0.7219  1.4217  2.0300
  527TIP3   OH222995   1.922   1.240   4.837  0.2371 -0.1160  0.2592
  527TIP3    H122996   1.842   1.210   4.880  0.4423 -1.3461 -0.1586
  527TIP3    H222997   1.934   1.179   4.764  1.5244  0.0810  0.2827
  528TIP3   OH222998   5.688   3.645   1.651 -0.2499  0.2792 -0.2994
  528TIP3    H122999   5.663   3.729   1.689  1.1382  0.5771  0.0169
  528TIP3    H223000   5.674   3.656   1.557 -1.1294  0.4670 -0.1579
  529TIP3   OH223001   5.047   6.726  11.116  0.6832  0.5368 -0.4425
  529TIP3    H123002   5.007   6.660  11.059 -0.7810  1.7007 -0.8250
  529TIP3    H223003   5.091   6.785  11.055  1.7721  0.0897 -0.1164
  530TIP3   OH223004   3.052   2.136  14.303  0.1044 -0.2802 -0.0850
  530TIP3    H123005   3.057   2.189  14.382  0.3853  0.7370 -0.7602
  530TIP3    H223006   3.073   2.047  14.332 -0.8174 -0.1269  1.1501
  531TIP3   OH223007   6.300   6.287   0.503 -0.0294 -0.5679 -0.0746
  531TIP3    H123008   6.271   6.350   0.437  2.2321 -0.5470 -1.1435
  531TIP3    H223009   6.342   6.217   0.453  0.2296 -1.4225  1.2679
  532TIP3   OH223010   4.527   5.028   1.985  0.4051  0.7150  0.3686
  532TIP3    H123011   4.604   5.026   1.927 -0.1393  0.8707 -0.3832
  532TIP3    H223012   4.453   5.039   1.925  0.0642  5.2202  1.2720
  533TIP3   OH223013   0.289   0.245   0.946  0.1265  0.2350  0.6466
  533TIP3    H123014   0.319   0.271   1.033 -0.0271 -1.2640  1.1867
  533TIP3    H223015   0.335   0.163   0.928 -1.1233 -0.3691  0.0599
  534TIP3   OH223016   4.231   5.486   5.215  0.0579  0.0931  0.4255
  534TIP3    H123017   4.144   5.525   5.224 -0.1021 -0.3397  0.8585
  534TIP3    H223018   4.236   5.422   5.287 -0.5709 -2.2950 -1.5253
  535TIP3   OH223019   3.913   0.657  15.478 -0.3285 -0.1590  0.2080
  535TIP3    H123020   3.984   0.607  15.437  1.0390 -0.6560  2.9873
  535TIP3    H223021   3.939   0.749  15.467  1.2462 -0.3469  1.8692
  536TIP3   OH223022   1.350   4.591   0.682 -0.1366 -0.1413  0.4036
  536TIP3    H123023   1.326   4.501   0.704 -0.6097 -0.3316 -0.8291
  536TIP3    H223024   1.432   4.582   0.634 -0.6403 -0.0006 -0.4945
  537TIP3   OH223025   4.777   6.172   4.215  0.5081  0.0877 -0.2564
  537TIP3    H123026   4.765   6.112   4.142  1.8486 -1.3045  0.6221
  537TIP3    H223027   4.861   6.147   4.254 -0.8515 -0.3040  2.7119
  538TIP3   OH223028   4.230   6.532  17.258  0.3832  0.2159 -0.5025
  538TIP3    H123029   4.255   6.443  17.280  2.4803  0.9585  0.3672
  538TIP3    H223030   4.312   6.575  17.232  0.1354  2.8225  2.4661
  539TIP3   OH223031   2.536   4.867   3.976 -0.3930 -1.2722 -0.4047
  539TIP3    H123032   2.627   4.855   3.950  0.0135 -1.2234  0.8935
  539TIP3    H223033   2.492   4.786   3.951 -0.0472 -1.2102 -1.2321
  540TIP3   OH223034   4.818   4.000   3.501  0.2321 -0.1547  0.2154
  540TIP3    H123035   4.858   4.023   3.418 -1.0880 -0.1910 -0.4543
  540TIP3    H223036   4.802   3.906   3.496  1.1284 -0.3711  0.9719
  541TIP3   OH223037   2.248   5.521   5.727 -0.2334  0.4474 -0.2683
  541TIP3    H123038   2.180   5.456   5.747 -1.6421  1.2079 -2.2662
  541TIP3    H223039   2.235   5.591   5.791 -0.3693 -0.0770  0.2793
  542TIP3   OH223040   3.031   5.781  14.199  0.7708 -0.5799  0.4009
  542TIP3    H123041   2.998   5.857  14.247  1.9993  0.2483 -0.0279
  542TIP3    H223042   3.074   5.727  14.266  2.6010  0.6383  0.2799
  543TIP3   OH223043   3.724   6.738   0.667 -0.2370 -0.6158  0.0998
  543TIP3    H123044   3.634   6.710   0.651 -0.0512 -1.9104  1.1246
  543TIP3    H223045   3.715   6.827   0.703 -0.8919  0.4142 -2.4158
  544TIP3   OH223046   1.053   1.664  11.782 -0.2186 -0.0383 -0.3433
  544TIP3    H123047   1.071   1.606  11.856 -0.7275 -0.9928 -0.9463
  544TIP3    H223048   1.138   1.682  11.743 -0.2070 -2.0539 -1.3651
  545TIP3   OH223049   5.621   3.604   0.907  0.7060 -0.3056  0.0531
  545TIP3    H123050   5.654   3.536   0.847 -2.0178  0.2125 -2.2361
  545TIP3    H223051   5.560   3.558   0.965  0.0196 -0.1052 -0.4963
  546TIP3   OH223052   6.136   3.837   0.403  0.4965 -0.0816 -0.1206
  546TIP3    H123053   6.101   3.895   0.336 -1.6190 -1.0899  0.0583
  546TIP3    H223054   6.204   3.786   0.358  0.3735  0.5155 -1.0089
  547TIP3   OH223055   4.500   0.655   2.456 -0.0414 -0.0336  0.0448
  547TIP3    H123056   4.498   0.640   2.361 -1.2597 -1.8781  0.2976
  547TIP3    H223057   4.493   0.749   2.466  1.0812  0.2817 -1.7132
  548TIP3   OH223058   3.967   1.311  11.765 -0.2714  0.3929 -0.1452
  548TIP3    H123059   4.060   1.288  11.768 -0.8380 -2.2437 -0.0840
  548TIP3    H223060   3.945   1.307  11.672 -0.4600  0.4396 -0.1021
  549TIP3   OH223061   3.030   0.517   2.237  0.3691  0.4429 -0.1299
  549TIP3    H123062   3.010   0.510   2.143  0.3256 -0.2180 -0.0768
  549TIP3    H223063   2.965   0.461   2.279 -0.1330  1.3741  0.3740
  550TIP3   OH223064   5.049   5.418   1.732 -0.1447  0.4208  0.5172
  550TIP3    H123065   5.114   5.405   1.801 -0.3190  1.0216  0.7979
  550TIP3    H223066   5.017   5.507   1.745 -1.4120 -0.0320  0.7190
  551TIP3   OH223067   1.602   4.696  13.856  0.5940 -0.1581 -0.1317
  551TIP3    H123068   1.685   4.702  13.808  0.6492  2.1596  0.1450
  551TIP3    H223069   1.621   4.639  13.930  1.9703  0.3967 -0.0306
  552TIP3   OH223070   6.108   5.635  14.930  0.5122 -0.0704 -0.2139
  552TIP3    H123071   6.131   5.604  15.017  0.6571  0.2359 -0.1421
  552TIP3    H223072   6.178   5.697  14.907  0.5102 -0.1953 -0.5703
  553TIP3   OH223073   4.364   4.264   4.221  0.2655  0.0595 -0.0509
  553TIP3    H123074   4.344   4.358   4.213 -0.2833 -0.1665 -1.7634
  553TIP3    H223075   4.457   4.262   4.244  0.2157  1.0291  0.3058
  554TIP3   OH223076   2.793   0.888   4.013 -0.8858  0.4603  0.5234
  554TIP3    H123077   2.818   0.963   3.959  0.3674 -1.0877 -1.1783
  554TIP3    H223078   2.793   0.921   4.102 -1.1486  2.6630 -0.2370
  555TIP3   OH223079   6.229   5.837   5.601 -0.1436  0.7220  0.4224
  555TIP3    H123080   6.197   5.914   5.647 -2.2613  0.8893 -1.1831
  555TIP3    H223081   6.165   5.823   5.530  1.9247 -0.6136 -1.2975
  556TIP3   OH223082   2.999   5.828  14.503  0.5075 -0.1990 -0.0841
  556TIP3    H123083   2.977   5.895  14.439  0.2229 -0.0307  0.1903
  556TIP3    H223084   3.048   5.874  14.571 -0.3817 -0.1062  0.5070
  557TIP3   OH223085   2.222   5.462  17.332 -0.4530  0.2587  0.0497
  557TIP3    H123086   2.230   5.555  17.311 -0.5426  0.1181 -0.6232
  557TIP3    H223087   2.227   5.459  17.428 -2.2470  1.1435  0.2163
  558TIP3   OH223088   1.458   3.826   4.526  0.1005 -0.0821  0.2627
  558TIP3    H123089   1.510   3.856   4.600 -0.7148  0.1452  0.7583
  558TIP3    H223090   1.521   3.813   4.455  0.6601  1.4674  0.4378
  559TIP3   OH223091   3.759   3.025   2.450 -0.2562 -0.3682 -0.5103
  559TIP3    H123092   3.738   2.967   2.523  2.1302  1.2802  1.6336
  559TIP3    H223093   3.777   2.965   2.377  0.7441 -2.3193  1.2184
  560TIP3   OH223094   6.731   5.699  12.454  0.7147 -0.0245 -0.0292
  560TIP3    H123095   6.718   5.792  12.437  1.2084  0.0170 -0.1826
  560TIP3    H223096   6.706   5.688  12.546  0.5764  0.2418 -0.0330
  561TIP3   OH223097   3.200   0.157  13.384  0.1254 -0.2847  0.7448
  561TIP3    H123098   3.161   0.077  13.420 -0.0054 -0.4530  0.2492
  561TIP3    H223099   3.232   0.205  13.460 -0.8772 -0.2359  1.1540
  562TIP3   OH223100   2.281   6.452   5.498 -0.1452  0.5537 -0.6077
  562TIP3    H123101   2.191   6.481   5.483 -0.3668  0.3279  0.2390
  562TIP3    H223102   2.272   6.366   5.537  0.4198  0.7949  0.0709
  563TIP3   OH223103   5.601   0.659   2.713 -0.0347  0.1260  0.4956
  563TIP3    H123104   5.665   0.644   2.644 -0.1302 -0.1017  0.4568
  563TIP3    H223105   5.607   0.753   2.731 -0.0917  0.2066  0.0970
  564TIP3   OH223106   3.013   0.033  11.376 -0.7327 -0.0340 -0.4243
  564TIP3    H123107   2.982   0.107  11.428 -0.9767  1.5365 -2.6445
  564TIP3    H223108   3.071   0.072  11.311  3.3255 -2.4309  1.3794
  565TIP3   OH223109   1.708   1.571   3.808  0.0056 -0.6422  0.0838
  565TIP3    H123110   1.690   1.544   3.898 -0.8330 -1.0874 -0.1974
  565TIP3    H223111   1.801   1.554   3.796 -0.0676 -1.4898  0.5734
  566TIP3   OH223112   3.720   5.633   4.578  1.0019 -0.5492  0.2648
  566TIP3    H123113   3.680   5.676   4.653  2.2851  0.9907  0.1458
  566TIP3    H223114   3.769   5.560   4.615 -0.9482 -1.8024  0.5178
  567TIP3   OH223115   0.163   4.070  11.413 -0.1899  0.1076 -0.2351
  567TIP3    H123116   0.102   4.144  11.419 -0.7109 -0.3698  0.4841
  567TIP3    H223117   0.247   4.106  11.441 -0.5606  0.2970  0.6854
  568TIP3   OH223118   3.441   4.930  13.176  0.4647  0.0003 -0.0840
  568TIP3    H123119   3.472   4.839  13.173  1.1999  0.2095  0.7372
  568TIP3    H223120   3.353   4.927  13.138 -0.2247 -1.3606  1.5019
  569TIP3   OH223121   0.632   2.828   1.302  0.1193  0.0007 -0.1513
  569TIP3    H123122   0.693   2.765   1.264 -0.2877 -0.8840  0.6355
  569TIP3    H223123   0.599   2.785   1.381 -1.0801  0.6976 -0.2549
  570TIP3   OH223124   2.128   4.530   4.574 -0.1897  0.1041 -0.4780
  570TIP3    H123125   2.124   4.469   4.648  2.3503  0.4300  0.0011
  570TIP3    H223126   2.114   4.475   4.497  0.7688 -0.8940  0.0334
  571TIP3   OH223127   4.179   6.539  11.843  0.4083  0.1436  0.3330
  571TIP3    H123128   4.186   6.624  11.799  0.4805  0.5863  1.1766
  571TIP3    H223129   4.245   6.485  11.800 -1.5787 -0.4533 -2.2636
  572TIP3   OH223130   6.542   5.035   3.828  0.2473 -0.6187  0.2141
  572TIP3    H123131   6.625   5.017   3.872  1.3481  0.8886 -1.1024
  572TIP3    H223132   6.486   5.072   3.896  1.3167  0.0985  0.7338
  573TIP3   OH223133   4.635   5.750   5.957  0.0231  0.4052  0.2475
  573TIP3    H123134   4.693   5.706   6.019  0.5617  0.2278 -0.3710
  573TIP3    H223135   4.671   5.839   5.949 -0.3287  0.5768  0.5505
  574TIP3   OH223136   3.926   3.624  13.406 -0.2008 -0.0481  0.2014
  574TIP3    H123137   3.954   3.704  13.362 -1.2216  0.3231  0.2096
  574TIP3    H223138   3.846   3.598  13.361 -2.2623  1.2792  2.8256
  575TIP3   OH223139   2.949   0.002   5.068 -0.2263 -0.2841  0.0217
  575TIP3    H123140   2.958   0.051   4.987 -0.9053  1.6166  1.0165
  575TIP3    H223141   3.019  -0.063   5.066  0.1003  0.0921 -1.8138
  576TIP3   OH223142   1.317   5.633  11.622  0.1937 -0.2634 -0.0847
  576TIP3    H123143   1.347   5.716  11.659  1.5285 -1.1083  0.7990
  576TIP3    H223144   1.223   5.645  11.610 -0.0190  0.6450  2.0513
  577TIP3   OH223145   1.067   3.112  15.824  0.0851 -0.2887  0.0565
  577TIP3    H123146   1.000   3.179  15.839 -0.1374 -0.7074  1.0078
  577TIP3    H223147   1.150   3.160  15.830 -0.0179 -0.2497  1.8606
  578TIP3   OH223148   0.939   2.228  14.189 -0.4110 -0.2560 -0.7394
  578TIP3    H123149   1.015   2.176  14.216 -0.5934 -1.0190 -1.6441
  578TIP3    H223150   0.961   2.259  14.102  1.4517  4.6784  1.1695
  579TIP3   OH223151   4.376   1.539  13.182 -0.3902  0.1781  0.1345
  579TIP3    H123152   4.400   1.572  13.268  0.3910  0.5525 -0.2236
  579TIP3    H223153   4.286   1.571  13.169 -0.4308  0.3147  0.7050
  580TIP3   OH223154   3.728   0.316  14.802 -0.3544  0.1967  0.0940
  580TIP3    H123155   3.695   0.274  14.881 -2.4661  0.0091 -0.8100
  580TIP3    H223156   3.743   0.407  14.827  0.8066 -0.2478  1.1437
  581TIP3   OH223157   1.142   5.253  11.697 -0.1569  0.2650 -0.0135
  581TIP3    H123158   1.207   5.221  11.760 -0.2003 -2.2157 -1.0915
  581TIP3    H223159   1.193   5.301  11.632  0.3223  0.1035  0.2361
  582TIP3   OH223160   5.789   1.964   5.663  0.5262  0.4650 -0.0705
  582TIP3    H123161   5.850   1.957   5.590  1.2155  0.6230  0.4843
  582TIP3    H223162   5.723   1.898   5.645  0.6592  0.5376 -0.8635
  583TIP3   OH223163   5.665   6.644  12.256 -0.3192  0.2685 -0.4889
  583TIP3    H123164   5.759   6.659  12.248 -0.2678 -0.0834 -0.5463
  583TIP3    H223165   5.648   6.565  12.205 -0.6037  0.1827 -0.2687
  584TIP3   OH223166   3.008   1.786   6.239  0.1943  0.0372  0.3322
  584TIP3    H123167   2.956   1.760   6.315 -0.7008  1.5593  0.2596
  584TIP3    H223168   3.011   1.881   6.242  0.8179  0.0948 -1.1080
  585TIP3   OH223169   2.446   3.120   1.628 -0.2339 -0.1621  0.2771
  585TIP3    H123170   2.510   3.185   1.656 -0.5992  0.2507  0.1697
  585TIP3    H223171   2.386   3.112   1.702 -0.8677  0.5018 -0.1504
  586TIP3   OH223172   3.173   5.521  14.768 -0.3169 -0.8549 -0.3465
  586TIP3    H123173   3.267   5.533  14.781 -0.5116  0.4882 -0.0924
  586TIP3    H223174   3.134   5.542  14.852 -1.0206  0.9830 -1.0780
  587TIP3   OH223175   1.823   5.196   5.032 -0.0166  0.2498 -0.4020
  587TIP3    H123176   1.766   5.273   5.025 -0.7056 -0.2755 -0.7650
  587TIP3    H223177   1.910   5.229   5.011 -0.3993  0.8109 -1.1816
  588TIP3   OH223178   4.082   5.930  10.415  0.4334  0.6161 -0.2902
  588TIP3    H123179   4.141   5.865  10.377  0.5196  0.5896 -0.1147
  588TIP3    H223180   4.093   5.919  10.510 -0.1424  0.3483 -0.2518
  589TIP3   OH223181   6.399   0.978  15.510 -0.1071  0.5123 -0.4289
  589TIP3    H123182   6.406   0.922  15.432  0.1853 -0.6099  0.3764
  589TIP3    H223183   6.444   0.928  15.579 -1.5700  0.8387  0.8102
  590TIP3   OH223184   5.775   2.466  13.734 -0.3565 -0.1768 -0.4618
  590TIP3    H123185   5.735   2.406  13.797  1.9765 -1.4377 -0.0772
  590TIP3    H223186   5.762   2.423  13.649 -0.1287 -0.4056 -0.3815
  591TIP3   OH223187   0.602   4.153  13.588  0.4633  0.5409 -0.9718
  591TIP3    H123188   0.518   4.181  13.551 -0.3433 -1.7638 -1.0025
  591TIP3    H223189   0.619   4.068  13.547  2.2175  0.4043 -0.0288
  592TIP3   OH223190   6.759   3.227   5.632  0.6913 -0.0027 -0.2583
  592TIP3    H123191   6.671   3.251   5.661  0.7019  1.1768 -1.1601
  592TIP3    H223192   6.796   3.178   5.705 -0.2395  0.6198  0.6439
  593TIP3   OH223193   5.118   6.440   3.921  0.1988 -0.0888  0.2598
  593TIP3    H123194   5.030   6.475   3.932 -1.0009 -1.9551 -2.3507
  593TIP3    H223195   5.124   6.370   3.986 -0.3539 -0.1288  0.2708
  594TIP3   OH223196   2.461   5.555  17.112  0.1901  0.6627 -0.3802
  594TIP3    H123197   2.489   5.646  17.119  3.0330 -0.0114 -1.7445
  594TIP3    H223198   2.409   5.553  17.031 -2.0584  1.4639  0.9445
  595TIP3   OH223199   6.374   2.648   5.380  0.1655  0.5719  1.1565
  595TIP3    H123200   6.290   2.658   5.333  0.1185  0.6737  1.2611
  595TIP3    H223201   6.419   2.731   5.365  1.5217 -0.5074 -1.3758
  596TIP3   OH223202   4.375   3.764   0.955 -0.1096  0.0323 -0.1213
  596TIP3    H123203   4.381   3.774   0.860 -0.5718 -1.1625 -0.2848
  596TIP3    H223204   4.463   3.741   0.982 -0.0961 -0.1599 -0.3278
  597TIP3   OH223205   5.869   6.125   2.807  0.7873 -0.1785 -0.2686
  597TIP3    H123206   5.945   6.142   2.863  1.5791 -1.5054 -0.8812
  597TIP3    H223207   5.904   6.131   2.718  0.4192 -1.6807 -0.5504
  598TIP3   OH223208   4.223   1.432   0.027 -0.3415 -0.0356 -0.3255
  598TIP3    H123209   4.168   1.383  -0.035  1.0403  1.9268 -3.2964
  598TIP3    H223210   4.284   1.367   0.062 -2.2852 -1.5462  0.4685
  599TIP3   OH223211   4.986   6.114   0.972 -0.0024  0.1061 -0.7411
  599TIP3    H123212   4.916   6.178   0.983 -0.1162 -0.2067  0.4899
  599TIP3    H223213   5.066   6.161   0.995  0.0467  0.1045 -0.9030
  600TIP3   OH223214   5.075   0.200  13.656 -0.2357  0.0388  0.5208
  600TIP3    H123215   5.156   0.152  13.673 -1.0250 -2.0141 -1.0514
  600TIP3    H223216   5.008   0.133  13.652 -1.7147  1.4899 -0.0703
  601TIP3   OH223217   4.536   5.926  13.827  0.2430 -0.0391  0.4128
  601TIP3    H123218   4.453   5.922  13.874 -0.2232 -0.9356 -0.4316
  601TIP3    H223219   4.600   5.951  13.893 -0.3363 -1.4842  1.5864
  602TIP3   OH223220   0.989   0.971  13.690  0.0264 -0.1778  0.8777
  602TIP3    H123221   0.904   0.929  13.682  1.0174 -2.4718  1.5481
  602TIP3    H223222   1.023   0.973  13.600 -0.3324 -0.1546  0.7416
  603TIP3   OH223223   4.736   0.442  14.382 -0.3011  0.3967  0.4424
  603TIP3    H123224   4.707   0.403  14.300 -0.0202 -0.4909  0.7452
  603TIP3    H223225   4.786   0.372  14.425  2.4874  1.8806 -0.1496
  604TIP3   OH223226   3.031   6.068   1.503 -0.2126  0.0372  0.7260
  604TIP3    H123227   3.042   5.997   1.567  0.9723  0.6724  1.2693
  604TIP3    H223228   3.063   6.146   1.549 -0.0635  0.6441 -0.3800
  605TIP3   OH223229   2.655   5.542   3.156  0.2756 -0.4698 -0.0902
  605TIP3    H123230   2.681   5.554   3.065 -0.4452 -0.3130 -0.2799
  605TIP3    H223231   2.592   5.612   3.173  2.0031  0.8936  1.1855
  606TIP3   OH223232   3.116   5.564   4.667 -0.5546 -0.2616 -0.0713
  606TIP3    H123233   3.124   5.497   4.600  0.8631 -0.9359  0.7140
  606TIP3    H223234   3.026   5.597   4.659 -1.1944 -2.0619 -0.6348
  607TIP3   OH223235   2.539   1.533  13.664 -0.3510  0.1752  0.1118
  607TIP3    H123236   2.556   1.556  13.756  0.7334  0.8085 -0.2279
  607TIP3    H223237   2.546   1.616  13.617 -0.2005 -0.2563 -0.6371
  608TIP3   OH223238   0.217   1.592  11.743  0.6511 -0.4812 -0.1850
  608TIP3    H123239   0.135   1.543  11.752  1.6202 -1.9464  1.1444
  608TIP3    H223240   0.202   1.650  11.668 -1.0968 -1.6925 -0.8402
  609TIP3   OH223241   1.507   0.794   4.016  0.5805  0.1845 -0.3032
  609TIP3    H123242   1.505   0.875   4.068 -1.5747 -1.5578  2.6129
  609TIP3    H223243   1.583   0.746   4.049 -1.0043 -1.0917  1.7397
  610TIP3   OH223244   1.445   4.195   0.084 -0.3065 -0.8340 -0.1039
  610TIP3    H123245   1.406   4.181   0.170  1.3983 -0.6222  0.7476
  610TIP3    H223246   1.481   4.109   0.060  1.8726 -0.2419  0.8225
  611TIP3   OH223247   2.924   2.921   5.848  0.5305  0.1116 -0.2284
  611TIP3    H123248   2.833   2.914   5.876  0.6009 -0.2736 -0.0880
  611TIP3    H223249   2.974   2.920   5.929  0.6644  0.2748 -0.3079
  612TIP3   OH223250   4.960   6.440  12.773 -0.0997 -0.1165  0.2601
  612TIP3    H123251   4.961   6.527  12.733 -2.6598  0.1450  0.6100
  612TIP3    H223252   4.947   6.456  12.866 -0.8927 -0.8681  0.2898
  613TIP3   OH223253   2.690   6.422  14.977  0.1204  0.2572 -0.5271
  613TIP3    H123254   2.656   6.339  15.012  1.6215  0.5045  1.6853
  613TIP3    H223255   2.646   6.431  14.893 -1.1605 -2.0830 -0.2142
  614TIP3   OH223256   2.072   6.625  17.198  0.0140 -0.2482 -0.2398
  614TIP3    H123257   2.089   6.617  17.104  3.0038 -1.3052  0.2746
  614TIP3    H223258   2.158   6.618  17.239 -1.2037 -0.0513  2.6279
  615TIP3   OH223259   5.995   5.985   5.816 -0.0808  0.0524  0.1440
  615TIP3    H123260   5.986   6.042   5.740  0.3398  0.4553  0.3905
  615TIP3    H223261   6.084   6.001   5.848 -0.5349  0.5270  1.2196
  616TIP3   OH223262   3.400   0.075  12.847  0.2904  0.2701 -0.5149
  616TIP3    H123263   3.483   0.039  12.880  0.4181  1.7366  0.8576
  616TIP3    H223264   3.360   0.117  12.923 -1.4299  0.1305 -1.3134
  617TIP3   OH223265   5.009   5.916   6.477  0.2178  0.6432  0.5389
  617TIP3    H123266   5.101   5.894   6.490  0.0459  0.3276  1.2662
  617TIP3    H223267   4.961   5.840   6.511 -0.3093  0.8562  0.2739
  618TIP3   OH223268   2.562   1.948   1.656  0.1890  0.9284 -0.5258
  618TIP3    H123269   2.611   1.885   1.604 -1.4344  0.0690 -1.1006
  618TIP3    H223270   2.625   1.981   1.720  1.1804 -1.0697 -0.3864
  619TIP3   OH223271   0.136   3.554  16.547 -0.4132  0.0331 -0.4812
  619TIP3    H123272   0.143   3.650  16.546 -0.1278  0.0669  1.4359
  619TIP3    H223273   0.216   3.525  16.590 -1.8732 -0.8552  1.8182
  620TIP3   OH223274   1.424   4.970   3.238  0.1267  0.6400 -0.6203
  620TIP3    H123275   1.507   4.925   3.253 -0.2677  0.5798  1.9427
  620TIP3    H223276   1.417   4.978   3.143  2.3125 -0.7199 -0.9622
  621TIP3   OH223277   5.397   5.650   2.418 -0.0714  0.0834 -0.4128
  621TIP3    H123278   5.371   5.733   2.458  1.0427  0.3498 -0.2190
  621TIP3    H223279   5.484   5.633   2.453  0.0461 -0.7584 -1.0911
  622TIP3   OH223280   6.380   1.497  14.297  0.2425 -0.4952  0.5847
  622TIP3    H123281   6.397   1.557  14.370 -1.7782 -0.0257  0.7301
  622TIP3    H223282   6.364   1.412  14.339 -0.7774 -0.2558  0.7114
  623TIP3   OH223283   2.346   2.008  14.758 -0.4888  0.2318 -0.2616
  623TIP3    H123284   2.319   1.921  14.786 -0.8329  0.2105 -0.6485
  623TIP3    H223285   2.338   2.006  14.663 -3.1986  1.5358 -0.1508
  624TIP3   OH223286   4.985   0.852  15.398 -0.0155  0.1212  0.1451
  624TIP3    H123287   5.056   0.913  15.377 -1.4197  2.1433  0.9686
  624TIP3    H223288   5.000   0.777  15.340  1.2198  1.6684 -1.6566
  625TIP3   OH223289   1.583   2.144  16.818  0.2179  0.6575 -0.5011
  625TIP3    H123290   1.544   2.197  16.888  0.6725 -0.2129  0.4319
  625TIP3    H223291   1.656   2.197  16.786  0.9205  0.4632  0.6996
  626TIP3   OH223292   1.896   0.947   2.249 -0.0313  0.4649  0.2664
  626TIP3    H123293   1.913   1.041   2.242  1.2701  0.2104 -0.1728
  626TIP3    H223294   1.844   0.927   2.171  0.7519  0.6050 -0.3071
  627TIP3   OH223295   2.068   2.446  14.904 -0.7117 -0.2293  0.1122
  627TIP3    H123296   2.028   2.470  14.987 -1.7088 -0.5327 -0.2654
  627TIP3    H223297   2.092   2.354  14.914 -0.4119 -0.1424  0.2158
  628TIP3   OH223298   5.592   1.232  13.191  0.4473  0.0881  0.2498
  628TIP3    H123299   5.671   1.285  13.201  2.2558 -2.5870  1.0198
  628TIP3    H223300   5.623   1.148  13.157 -1.8646 -1.4976  1.7496
  629TIP3   OH223301   5.268   5.591  10.619 -0.1322 -0.9172 -0.2067
  629TIP3    H123302   5.194   5.652  10.617  1.0284  0.5539 -1.6354
  629TIP3    H223303   5.234   5.513  10.663 -1.9005  0.4721  1.0375
  630TIP3   OH223304   6.544   2.976   2.935 -0.2969 -0.2766 -0.9049
  630TIP3    H123305   6.605   3.016   2.996 -2.0874 -0.4596  1.1265
  630TIP3    H223306   6.532   2.887   2.967  0.4151 -1.1517 -2.9025
  631TIP3   OH223307   1.440   2.985   5.837 -0.2307 -0.0513  0.8110
  631TIP3    H123308   1.349   3.003   5.812  0.0936  0.6386  0.0668
  631TIP3    H223309   1.492   3.012   5.761  0.5395 -1.3595  0.8241
  632TIP3   OH223310   2.625   6.379  14.089  0.4822 -0.3497 -0.7116
  632TIP3    H123311   2.602   6.380  14.182 -0.2136  0.6390 -0.8762
  632TIP3    H223312   2.715   6.412  14.087 -0.0314  1.1413 -0.4924
  633TIP3   OH223313   4.571   1.205  13.834 -0.0581 -0.2550 -0.5413
  633TIP3    H123314   4.579   1.141  13.763 -1.0849 -1.7179  0.6084
  633TIP3    H223315   4.655   1.200  13.881 -0.0207 -0.5264 -0.6398
  634TIP3   OH223316   3.592   1.488  10.997  0.4207 -0.4326  0.2881
  634TIP3    H123317   3.633   1.515  10.915  1.7800  0.6561  1.2723
  634TIP3    H223318   3.536   1.562  11.022 -0.3726 -0.9578  0.1313
  635TIP3   OH223319   4.326   6.705   0.453 -0.5702 -0.5244 -0.2185
  635TIP3    H123320   4.261   6.774   0.458 -0.5622 -0.5307  0.0030
  635TIP3    H223321   4.394   6.740   0.396 -0.8023 -0.5479 -0.5091
  636TIP3   OH223322   1.973   5.221  16.384  0.5223 -0.6950 -0.6160
  636TIP3    H123323   1.972   5.280  16.309  0.1481  2.0713  1.4299
  636TIP3    H223324   1.892   5.170  16.375 -0.6045  1.0858 -0.9923
  637TIP3   OH223325   1.713   2.213  11.270 -0.8831 -0.3477 -0.4059
  637TIP3    H123326   1.644   2.151  11.245  0.3625 -1.2318 -1.8385
  637TIP3    H223327   1.673   2.299  11.260 -1.6536 -0.8271 -1.7035
  638TIP3   OH223328   1.143   2.297  13.691 -0.6066  0.3991  0.1940
  638TIP3    H123329   1.202   2.221  13.688  0.5908  1.2895  0.3487
  638TIP3    H223330   1.200   2.372  13.677 -2.0071  1.1913 -1.6826
  639TIP3   OH223331   6.209   5.506   2.693 -0.4213  0.0551 -0.2676
  639TIP3    H123332   6.123   5.545   2.708 -0.7649 -0.1916 -1.4942
  639TIP3    H223333   6.216   5.438   2.760 -0.5653  0.9982  0.7466
  640TIP3   OH223334   4.332   3.572  11.817 -0.1248  0.3329 -0.4634
  640TIP3    H123335   4.298   3.612  11.897 -1.0898  0.4727 -0.9237
  640TIP3    H223336   4.347   3.646  11.758 -0.5180  0.1398 -0.8086
  641TIP3   OH223337   4.020   2.431  14.064 -0.3896  0.2532 -0.4377
  641TIP3    H123338   4.041   2.399  14.151  1.3358 -0.3554 -1.0416
  641TIP3    H223339   4.033   2.356  14.006 -0.2177  0.9884 -1.3866
  642TIP3   OH223340   1.017   1.850  12.957 -0.2700 -0.2194 -0.0145
  642TIP3    H123341   1.085   1.917  12.959 -0.7984  0.4289 -2.0095
  642TIP3    H223342   0.967   1.867  12.877 -1.9396 -1.5191  0.6728
  643TIP3   OH223343   4.480   2.114  16.475  0.5609 -0.4323 -0.2020
  643TIP3    H123344   4.557   2.057  16.477  0.5402 -0.4594 -0.1812
  643TIP3    H223345   4.513   2.198  16.507  0.1360 -0.9893  1.8872
  644TIP3   OH223346   1.717   4.596  15.142  0.4171 -0.2419 -0.5078
  644TIP3    H123347   1.623   4.606  15.132  0.4270 -0.1495 -0.5104
  644TIP3    H223348   1.730   4.504  15.164  0.3531 -0.3362 -0.8654
  645TIP3   OH223349   2.223   5.062  16.918  0.2217  0.2978 -0.1435
  645TIP3    H123350   2.298   5.118  16.939  0.9538 -0.1115 -1.4806
  645TIP3    H223351   2.219   5.064  16.822  0.8627 -2.6220 -0.3350
  646TIP3   OH223352   3.953   2.069   2.779  0.1386  0.2680  0.3920
  646TIP3    H123353   3.917   2.133   2.717  0.0170  1.0276  1.2238
  646TIP3    H223354   4.042   2.054   2.748  0.4534  1.4740  0.6307
  647TIP3   OH223355   0.091   5.408   3.012  0.0039 -0.1420 -0.8282
  647TIP3    H123356   0.139   5.486   3.041 -1.2819  0.3157  0.1434
  647TIP3    H223357   0.002   5.420   3.046 -0.2187 -2.0559 -0.6223
  648TIP3   OH223358   5.796   6.555   3.719  0.2354  0.1006 -0.0133
  648TIP3    H123359   5.779   6.464   3.746  0.4666  0.1489  0.3082
  648TIP3    H223360   5.832   6.547   3.631  2.0271 -0.2733  0.6964
  649TIP3   OH223361   5.193   3.659  10.694  0.0328 -0.2194  0.4252
  649TIP3    H123362   5.099   3.669  10.681 -0.0566  0.8501  1.6911
  649TIP3    H223363   5.226   3.749  10.701  1.4489 -0.4834 -1.7196
  650TIP3   OH223364   0.227   3.355  15.892  0.0592  0.2783  0.4914
  650TIP3    H123365   0.148   3.333  15.942  0.2281 -1.4065  0.0886
  650TIP3    H223366   0.287   3.283  15.910  1.0906  0.9594 -0.1143
  651TIP3   OH223367   0.349   5.781  16.057 -0.0080 -0.3760 -0.5040
  651TIP3    H123368   0.328   5.695  16.022 -0.0755 -0.2569 -0.7575
  651TIP3    H223369   0.314   5.779  16.146  0.4252 -0.7813 -0.3365
  652TIP3   OH223370   2.369   0.588  15.504  0.1252  0.4385  0.2365
  652TIP3    H123371   2.362   0.523  15.434  0.0211 -0.5364  1.1327
  652TIP3    H223372   2.454   0.630  15.488  0.3390 -0.1295 -0.1759
  653TIP3   OH223373   1.412   5.138   3.466  0.4808 -0.1092  0.5993
  653TIP3    H123374   1.453   5.078   3.528  0.2599 -0.7683  0.1154
  653TIP3    H223375   1.408   5.089   3.384 -0.9563  0.0696  0.5472
  654TIP3   OH223376   2.328   6.256  11.940 -0.1616 -0.2128  0.0071
  654TIP3    H123377   2.399   6.193  11.951 -0.8377 -0.8634  0.8673
  654TIP3    H223378   2.337   6.316  12.014  0.4502  0.6927 -0.7825
  655TIP3   OH223379   0.600   4.229   5.020 -0.2752 -0.1149 -0.8737
  655TIP3    H123380   0.558   4.251   4.937  1.3855 -0.0409 -1.7345
  655TIP3    H223381   0.611   4.314   5.064 -1.2044 -0.1607 -0.5463
  656TIP3   OH223382   2.220   2.349  15.118  0.1419 -0.5452  0.5019
  656TIP3    H123383   2.220   2.280  15.185 -3.1738 -0.7191  0.5089
  656TIP3    H223384   2.229   2.302  15.035  1.6030 -0.5754  0.6518
  657TIP3   OH223385   5.399   4.243   0.333  0.1986  0.4269 -0.3412
  657TIP3    H123386   5.466   4.175   0.331  0.7947  0.9974 -0.1233
  657TIP3    H223387   5.430   4.309   0.271 -0.6241  0.2790 -0.9285
  658TIP3   OH223388   1.668   0.845  16.818 -0.1839  0.6271  0.5167
  658TIP3    H123389   1.644   0.768  16.869  1.1349  0.5200  1.0249
  658TIP3    H223390   1.586   0.891  16.803 -0.8524 -0.3535  1.0693
  659TIP3   OH223391   3.575   4.567   4.149 -0.1656  0.1587 -0.3873
  659TIP3    H123392   3.546   4.479   4.172 -0.6994  0.2029 -0.8868
  659TIP3    H223393   3.515   4.596   4.081 -0.0196  0.9322 -0.1979
  660TIP3   OH223394   5.841   5.106  15.912 -0.1723 -0.0120 -0.6215
  660TIP3    H123395   5.754   5.123  15.946 -0.9237 -2.0942 -1.3649
  660TIP3    H223396   5.849   5.163  15.835 -0.6617  0.5628 -0.2482
  661TIP3   OH223397   5.965   0.037   0.519  0.1200 -0.0944  0.1684
  661TIP3    H123398   5.964   0.057   0.613 -1.8329 -0.3981  0.2576
  661TIP3    H223399   5.906  -0.038   0.510  1.5053 -1.0865 -1.1238
  662TIP3   OH223400   5.614   5.262   3.457 -0.1757  0.4136  0.2754
  662TIP3    H123401   5.563   5.343   3.450 -0.3787  0.4126  1.4218
  662TIP3    H223402   5.653   5.250   3.371  0.3472  2.0569  0.2457
  663TIP3   OH223403   4.997   0.126   5.100  0.0743 -0.6628 -0.1744
  663TIP3    H123404   5.037   0.062   5.041  0.6379  0.1179 -0.6594
  663TIP3    H223405   5.072   0.169   5.142 -0.3048 -1.8784  1.8865
  664TIP3   OH223406   3.934   2.964  12.752 -0.2925  0.6869 -0.1142
  664TIP3    H123407   3.896   2.976  12.665 -1.3191  1.4116  0.4124
  664TIP3    H223408   3.862   2.930  12.805 -0.5182  2.9169  1.1238
  665TIP3   OH223409   3.198   5.727   4.177 -0.3506 -0.7439 -0.5013
  665TIP3    H123410   3.206   5.643   4.133 -2.6377 -0.7876 -0.9654
  665TIP3    H223411   3.255   5.786   4.128  0.2022 -1.6931 -1.0211
  666TIP3   OH223412   2.683   3.364   2.863  0.0423 -0.2951  0.1509
  666TIP3    H123413   2.775   3.343   2.844 -0.0878  0.5295 -1.6140
  666TIP3    H223414   2.660   3.306   2.934  1.2016 -2.3749 -1.0589
  667TIP3   OH223415   3.531   4.971   3.724  0.4526  0.4425  0.0289
  667TIP3    H123416   3.485   4.970   3.640  1.4052  0.3321 -0.5045
  667TIP3    H223417   3.596   4.902   3.717 -0.2426 -0.3960  1.3313
  668TIP3   OH223418   2.936   6.754  14.677  0.3671 -0.2210 -0.1934
  668TIP3    H123419   2.921   6.677  14.623 -2.2173  1.5643 -2.2436
  668TIP3    H223420   3.027   6.745  14.707  0.2221 -3.9100 -0.4540
  669TIP3   OH223421   0.879   2.513  14.330  0.1636  0.4919 -0.6958
  669TIP3    H123422   0.942   2.446  14.306  0.9581  0.7772  0.4985
  669TIP3    H223423   0.861   2.559  14.248  1.2211  0.1689 -1.1305
  670TIP3   OH223424   3.769   0.530   1.894 -0.0782 -0.2443  0.1688
  670TIP3    H123425   3.755   0.625   1.899  0.3805 -0.1657  0.0220
  670TIP3    H223426   3.686   0.495   1.861 -0.0454  0.1691 -0.3622
  671TIP3   OH223427   4.499   2.896  13.809  0.1568  0.0458  0.2649
  671TIP3    H123428   4.569   2.897  13.744 -1.0377 -1.6366 -1.1543
  671TIP3    H223429   4.490   2.987  13.836  2.1119  0.4670 -0.3393
  672TIP3   OH223430   4.948   4.368   2.783 -0.0278  0.2340 -0.6912
  672TIP3    H123431   4.932   4.370   2.878 -0.6871  1.4031 -0.7947
  672TIP3    H223432   4.861   4.372   2.745  0.2157 -0.7703 -1.3579
  673TIP3   OH223433   4.614   6.139  15.376 -0.6437  0.3419 -0.4129
  673TIP3    H123434   4.535   6.091  15.399 -0.9241  1.2724  0.6616
  673TIP3    H223435   4.603   6.225  15.416  1.3101  0.1861  0.5986
  674TIP3   OH223436   2.880   6.310  11.467  0.1043 -0.2088  0.3554
  674TIP3    H123437   2.806   6.319  11.527 -1.4183 -0.2116 -1.4382
  674TIP3    H223438   2.921   6.227  11.493  0.1989  0.3554  2.1107
  675TIP3   OH223439   1.167   6.634  11.150  0.2970  0.2194  0.0796
  675TIP3    H123440   1.127   6.703  11.204  2.0286  1.1224  0.2852
  675TIP3    H223441   1.131   6.648  11.063  0.0100  0.8719  0.2964
  676TIP3   OH223442   5.639   0.331  16.250  0.1704  0.1069 -0.6764
  676TIP3    H123443   5.557   0.335  16.200  0.7913 -0.0780 -1.7370
  676TIP3    H223444   5.618   0.375  16.332 -1.2001 -0.5943 -0.6211
  677TIP3   OH223445   4.258   4.845   1.561  0.1929 -0.2067  0.7159
  677TIP3    H123446   4.345   4.817   1.588  1.2637 -0.6539 -2.7234
  677TIP3    H223447   4.219   4.768   1.521 -0.5576  0.7491 -0.4756
  678TIP3   OH223448   1.569   5.200   4.124 -0.2919 -0.2912  0.0423
  678TIP3    H123449   1.649   5.157   4.093 -0.3444 -0.8874  0.7253
  678TIP3    H223450   1.523   5.132   4.173 -1.3114 -0.0073 -0.4985
  679TIP3   OH223451   0.772   2.117  16.944  0.1718 -0.2978  0.0803
  679TIP3    H123452   0.785   2.137  16.851  0.5901  0.8166  0.3613
  679TIP3    H223453   0.737   2.198  16.981 -3.1172 -1.6610  0.3089
  680TIP3   OH223454   3.160   1.465  12.977  0.3508 -0.0570  0.0283
  680TIP3    H123455   3.090   1.399  12.976  0.4829 -0.1992  0.0113
  680TIP3    H223456   3.126   1.535  13.033 -0.6750  0.8530 -1.6516
  681TIP3   OH223457   2.833   5.031  14.791 -0.4424  0.3090 -0.4324
  681TIP3    H123458   2.757   4.972  14.792 -0.2036 -0.2443 -3.5585
  681TIP3    H223459   2.806   5.104  14.736  0.5510  1.2716  0.3168
  682TIP3   OH223460   5.997   3.325  13.599  0.5346  0.0670  0.6962
  682TIP3    H123461   6.088   3.296  13.601 -0.2280 -3.7310 -3.4845
  682TIP3    H223462   5.993   3.387  13.527 -0.1333  0.8736  1.4003
  683TIP3   OH223463   2.735   2.346  12.503 -0.4487 -0.3708 -0.1183
  683TIP3    H123464   2.764   2.257  12.524 -1.4029 -0.9017 -0.9371
  683TIP3    H223465   2.687   2.336  12.420 -1.4407  0.7432  0.2980
  684TIP3   OH223466   3.472   0.321  15.679 -0.0904 -0.3524  0.4859
  684TIP3    H123467   3.467   0.269  15.759  0.1071  0.3219  0.9495
  684TIP3    H223468   3.499   0.259  15.611 -3.2796 -1.6830  0.2367
  685TIP3   OH223469   5.668   4.483  16.429 -0.2784 -0.3098 -0.6912
  685TIP3    H123470   5.574   4.475  16.413 -0.2182  0.1811 -1.3393
  685TIP3    H223471   5.682   4.576  16.448  0.2936 -0.0462 -2.2201
  686TIP3   OH223472   3.075   1.669  14.639  0.0937  0.2893 -0.2885
  686TIP3    H123473   2.985   1.662  14.673  0.1645  2.3629  0.4488
  686TIP3    H223474   3.103   1.579  14.629 -2.0554 -0.4277 -0.4653
  687TIP3   OH223475   5.447   0.383  15.793  0.1770  0.0299  0.3612
  687TIP3    H123476   5.358   0.378  15.757  0.6715  2.4084 -1.4899
  687TIP3    H223477   5.504   0.378  15.716  1.4973  1.2892  1.2044
  688TIP3   OH223478   5.095   2.706   0.706  0.4777 -0.4026 -0.4227
  688TIP3    H123479   5.055   2.655   0.777  1.6596  0.1788  0.7158
  688TIP3    H223480   5.171   2.747   0.747  1.1830 -0.0224 -2.0466
  689TIP3   OH223481   3.345   6.400   6.519 -1.1733 -0.3418  0.1895
  689TIP3    H123482   3.438   6.420   6.529 -1.0282 -0.2195 -1.2642
  689TIP3    H223483   3.336   6.311   6.553 -0.7072 -0.0462  1.1359
  690TIP3   OH223484   1.397   2.634   5.469  0.1587  0.0796  0.1495
  690TIP3    H123485   1.358   2.552   5.501 -2.3504  1.1618  0.0969
  690TIP3    H223486   1.466   2.653   5.533 -0.6861 -0.9488  1.4451
  691TIP3   OH223487   1.982   4.405   4.340 -0.2595  0.0499 -0.2105
  691TIP3    H123488   2.013   4.315   4.327 -2.0625 -0.7287  0.5209
  691TIP3    H223489   1.961   4.436   4.252  0.6996 -0.1002 -0.5050
  692TIP3   OH223490   3.884   2.240   3.811  0.1587  0.0678  0.4101
  692TIP3    H123491   3.846   2.245   3.723  2.0268 -2.0527 -0.6128
  692TIP3    H223492   3.808   2.235   3.869 -1.2353 -2.5740 -1.4148
  693TIP3   OH223493   2.024   3.822   4.052  0.0794  0.0628 -0.2682
  693TIP3    H123494   1.973   3.776   4.118 -2.3986  1.5524 -1.0363
  693TIP3    H223495   2.087   3.873   4.102 -1.0051  0.2956  0.8998
  694TIP3   OH223496   6.085   4.930   2.914 -0.1912 -0.1309  0.0573
  694TIP3    H123497   6.145   4.940   2.840 -0.1894  0.6925  0.1612
  694TIP3    H223498   6.135   4.959   2.990 -0.4229 -0.3117  0.2829
  695TIP3   OH223499   1.916   0.606  16.951 -0.4892  0.2076 -0.1267
  695TIP3    H123500   1.825   0.583  16.932 -0.3473 -0.5369  0.0861
  695TIP3    H223501   1.957   0.615  16.865 -0.3414 -1.1779 -0.2158
  696TIP3   OH223502   0.914   5.065  10.823 -0.3018  0.8735 -0.0378
  696TIP3    H123503   0.864   5.133  10.778 -1.1140  0.4631  0.2224
  696TIP3    H223504   0.995   5.059  10.773 -1.2298  0.3227 -1.5849
  697TIP3   OH223505   1.670   6.710   0.155  0.1361 -0.5592 -0.9507
  697TIP3    H123506   1.614   6.787   0.162  0.6337 -0.2097 -0.7498
  697TIP3    H223507   1.753   6.743   0.122  0.4904 -0.9443 -0.4627
  698TIP3   OH223508   4.376   3.131  12.419  0.2189 -0.2882  0.1046
  698TIP3    H123509   4.389   3.192  12.491  1.1292  0.1300 -0.3867
  698TIP3    H223510   4.379   3.044  12.460  0.6720 -0.0555  0.5808
  699TIP3   OH223511   0.018   6.239   4.522 -0.8303 -0.0528 -0.0402
  699TIP3    H123512   0.083   6.257   4.454 -0.5821 -1.6784 -0.2809
  699TIP3    H223513  -0.066   6.250   4.479 -0.7023  0.6381 -0.1221
  700TIP3   OH223514   0.798   4.709  17.121  0.2839 -0.1918  0.8025
  700TIP3    H123515   0.825   4.727  17.211 -2.5713  1.0670  1.5107
  700TIP3    H223516   0.772   4.617  17.122 -2.2517  0.4292  2.1062
  701TIP3   OH223517   6.000   2.767   6.407 -0.0128 -0.5495 -0.9138
  701TIP3    H123518   6.094   2.766   6.388 -0.0339 -0.8633 -1.0131
  701TIP3    H223519   5.995   2.799   6.497  0.3658 -2.6220 -0.0883
  702TIP3   OH223520   4.228   0.065   3.062  1.0564  0.8009 -0.1277
  702TIP3    H123521   4.245   0.137   3.123  1.0048 -0.5294  1.5169
  702TIP3    H223522   4.202   0.109   2.981 -0.6290  2.6271  1.2937
  703TIP3   OH223523   0.904   0.217   1.893 -0.3263 -0.3777 -0.0363
  703TIP3    H123524   0.909   0.278   1.966 -0.9087 -2.6785  2.0751
  703TIP3    H223525   0.986   0.166   1.899 -0.8122 -1.2257 -0.3642
  704TIP3   OH223526   4.890   6.736  15.281  0.4096 -0.2653  0.1206
  704TIP3    H123527   4.892   6.822  15.325 -1.6893 -0.0672 -0.0786
  704TIP3    H223528   4.876   6.757  15.189  0.9556 -0.8022 -0.0854
  705TIP3   OH223529   3.390   3.734  12.969 -0.1161  0.0250  0.3284
  705TIP3    H123530   3.295   3.725  12.976 -0.0770 -0.5146  0.1976
  705TIP3    H223531   3.415   3.672  12.900 -0.2678  3.8090 -3.5147
  706TIP3   OH223532   6.002   3.319   1.228 -0.0223  0.3531 -0.1168
  706TIP3    H123533   6.098   3.322   1.227 -0.0152  1.4385 -2.4653
  706TIP3    H223534   5.976   3.402   1.267 -0.0341 -0.0573  0.7736
  707TIP3   OH223535   5.944   6.754  12.124 -0.1392 -0.7687  0.1624
  707TIP3    H123536   6.030   6.721  12.098  0.1247 -0.3074  0.4318
  707TIP3    H223537   5.905   6.788  12.043  1.0817  1.5643  0.4650
  708TIP3   OH223538   0.269   0.328   3.532  0.0181 -0.1069 -0.5457
  708TIP3    H123539   0.174   0.337   3.521 -0.1699 -0.6651  0.4311
  708TIP3    H223540   0.280   0.243   3.575  0.6813  1.2713  2.2966
  709TIP3   OH223541   4.343   2.798   4.043 -0.0294  0.2809  0.3482
  709TIP3    H123542   4.312   2.718   4.002 -1.0769  0.8780 -0.0627
  709TIP3    H223543   4.292   2.868   4.001  1.8086  1.3072 -0.2844
  710TIP3   OH223544   0.674   2.283  16.596  0.4590  0.1682 -0.4026
  710TIP3    H123545   0.758   2.269  16.641  0.4948 -0.5188 -0.6806
  710TIP3    H223546   0.621   2.331  16.660  0.4739 -0.8880  0.4375
  711TIP3   OH223547   1.139   0.374  16.531  0.3493 -0.0990 -0.0926
  711TIP3    H123548   1.119   0.286  16.500  1.8909  0.3576 -2.7569
  711TIP3    H223549   1.079   0.431  16.482  0.4487  0.4329  0.3878
  712TIP3   OH223550   5.601   6.616   6.142 -0.1458 -0.9306  0.2990
  712TIP3    H123551   5.539   6.648   6.208 -0.6689  0.8050 -0.9657
  712TIP3    H223552   5.685   6.614   6.189 -0.4075  0.7740  0.9203
  713TIP3   OH223553   0.320   0.748   2.316  0.5295 -0.3064  0.1921
  713TIP3    H123554   0.307   0.789   2.401 -1.9324 -1.4140  0.4163
  713TIP3    H223555   0.321   0.821   2.254  0.8000  0.3892  1.0051
  714TIP3   OH223556   0.575   0.347   3.503  0.1961  0.0877 -0.1442
  714TIP3    H123557   0.537   0.279   3.560 -0.7965  1.2503  0.6235
  714TIP3    H223558   0.537   0.330   3.417 -0.2714 -0.1447  0.1057
  715TIP3   OH223559   3.321   0.127   4.771 -0.5509 -0.0115 -0.1309
  715TIP3    H123560   3.371   0.183   4.830  0.7752 -1.1533 -0.1212
  715TIP3    H223561   3.321   0.174   4.687 -0.0352  0.3071  0.0482
  716TIP3   OH223562   0.632   5.310  15.252 -0.1218  0.1559  0.3628
  716TIP3    H123563   0.589   5.227  15.274 -1.3575  1.3917  3.1511
  716TIP3    H223564   0.573   5.351  15.189 -0.1827 -0.5051 -0.0222
  717TIP3   OH223565   1.521   3.992  16.794  0.0397 -0.2899  0.0772
  717TIP3    H123566   1.607   4.025  16.822 -0.0391  0.7036 -0.7989
  717TIP3    H223567   1.496   4.050  16.722 -2.2750  0.7137  1.5917
  718TIP3   OH223568   2.491   2.381   3.858  0.1083 -0.0451 -0.5543
  718TIP3    H123569   2.569   2.433   3.839 -0.4093  0.7187 -0.6306
  718TIP3    H223570   2.523   2.291   3.862  1.1647  0.3481  0.3745
  719TIP3   OH223571   1.061   1.271  11.572 -0.3113 -0.8240 -0.1198
  719TIP3    H123572   1.049   1.177  11.584 -1.7844 -0.8507 -1.4692
  719TIP3    H223573   0.986   1.311  11.615 -0.6415 -0.3920 -1.0768
  720TIP3   OH223574   0.418   5.094   2.014  0.3775 -0.0243 -0.8583
  720TIP3    H123575   0.468   5.110   2.094 -1.3478 -0.9600  0.4951
  720TIP3    H223576   0.411   4.999   2.009  0.1410  0.0393 -1.9366
  721TIP3   OH223577   5.786   3.027   5.514 -0.0824  0.3612  0.1949
  721TIP3    H123578   5.861   3.085   5.507  0.6789 -0.7606 -1.9356
  721TIP3    H223579   5.823   2.939   5.508 -1.3887 -0.3074  1.2753
  722TIP3   OH223580   2.533   2.912  16.242  0.3101  0.4248 -0.8940
  722TIP3    H123581   2.583   2.963  16.306 -1.5201  0.1545  0.8438
  722TIP3    H223582   2.454   2.963  16.227 -0.0494 -0.3380 -1.6700
  723TIP3   OH223583   1.205   3.992  16.297 -0.3484  0.4474  0.0641
  723TIP3    H123584   1.203   3.927  16.227  0.5132  1.2457 -0.7374
  723TIP3    H223585   1.115   4.026  16.300  0.0477  1.9380 -2.2018
  724TIP3   OH223586   4.026   3.411  12.497  0.4890 -0.2691  0.3578
  724TIP3    H123587   4.042   3.327  12.540 -0.0692  0.3700  1.8718
  724TIP3    H223588   4.086   3.472  12.540 -0.3758  0.4738  0.5468
  725TIP3   OH223589   4.255   4.366  13.506 -0.3888 -0.8293  0.0509
  725TIP3    H123590   4.229   4.401  13.421 -0.2542  0.1285  0.3948
  725TIP3    H223591   4.182   4.386  13.564 -1.0061 -2.5434 -0.0876
  726TIP3   OH223592   6.227   6.296   6.676  0.3351  0.2494 -0.6307
  726TIP3    H123593   6.255   6.226   6.616  0.0785  1.2543 -1.9707
  726TIP3    H223594   6.133   6.304   6.660 -0.0646 -0.5209  1.0766
  727TIP3   OH223595   3.036   2.708   0.197 -0.2027  0.1513  0.2130
  727TIP3    H123596   3.011   2.742   0.283 -2.1695 -2.0477  0.6106
  727TIP3    H223597   3.035   2.613   0.207  3.0417 -0.1606 -1.3656
  728TIP3   OH223598   3.626   5.947  15.650  0.2065 -0.0536 -0.8637
  728TIP3    H123599   3.561   5.885  15.683 -0.1266  0.4660 -0.5405
  728TIP3    H223600   3.689   5.892  15.603  0.3879 -0.7413  0.1456
  729TIP3   OH223601   2.665   2.074  11.384  0.3095 -0.1245 -0.2153
  729TIP3    H123602   2.661   1.990  11.339  1.0688 -0.4918  0.3844
  729TIP3    H223603   2.720   2.129  11.329 -0.8643  0.2720 -1.0401
  730TIP3   OH223604   0.887   0.239  11.978  0.1505  0.7089 -0.0413
  730TIP3    H123605   0.877   0.243  11.883  0.2371 -0.8284 -0.1450
  730TIP3    H223606   0.927   0.323  12.002  1.0555  0.7176 -1.4864
  731TIP3   OH223607   0.779   5.412   2.465  0.0941 -0.6382  0.4677
  731TIP3    H123608   0.857   5.463   2.488  0.6089  0.1474 -2.6595
  731TIP3    H223609   0.771   5.420   2.370 -1.5939 -3.9383  0.1806
  732TIP3   OH223610   5.451   4.678  15.662  0.1523  0.2283 -0.3991
  732TIP3    H123611   5.527   4.670  15.604  0.0880 -0.9339 -0.3444
  732TIP3    H223612   5.412   4.590  15.663  0.7756 -0.1120  2.2649
  733TIP3   OH223613   3.745   3.997   6.310  0.0243  0.0046 -0.3467
  733TIP3    H123614   3.660   3.963   6.338  0.1090 -0.7306 -0.9247
  733TIP3    H223615   3.808   3.956   6.370  0.0464 -0.1715 -0.4880
  734TIP3   OH223616   6.771   5.972   1.340 -0.2515 -0.4493  0.4060
  734TIP3    H123617   6.812   5.913   1.278 -1.6410 -0.6874 -0.3099
  734TIP3    H223618   6.755   5.919   1.418 -0.5424 -0.7435  0.1455
  735TIP3   OH223619   2.372   2.127   0.047 -0.5489 -0.3098  0.1522
  735TIP3    H123620   2.460   2.167   0.043 -1.2001  1.2299  0.5179
  735TIP3    H223621   2.371   2.080   0.130  0.1273 -0.8653 -0.1369
  736TIP3   OH223622   1.759   5.482   3.864  0.9984 -0.0922  0.3168
  736TIP3    H123623   1.739   5.404   3.812 -0.9811  0.9374 -0.5916
  736TIP3    H223624   1.674   5.509   3.899  1.5869  1.8549  0.3114
  737TIP3   OH223625   5.289   5.951   0.180 -0.1131 -0.5330 -0.2774
  737TIP3    H123626   5.319   5.862   0.158  2.2567  0.3244 -0.8610
  737TIP3    H223627   5.354   5.982   0.243 -0.1918  1.2154 -1.0138
  738TIP3   OH223628   0.354   2.616   3.867  0.3935 -0.6346 -0.6200
  738TIP3    H123629   0.407   2.695   3.853 -1.6414  0.9054 -0.0057
  738TIP3    H223630   0.267   2.639   3.837 -1.3818 -1.0698  3.5882
  739TIP3   OH223631   2.591   3.821   2.675  0.1464 -0.1233  0.4658
  739TIP3    H123632   2.600   3.828   2.580  1.6741  0.2182  0.6095
  739TIP3    H223633   2.499   3.798   2.689 -0.0726 -0.2896 -1.0937
  740TIP3   OH223634   0.639   4.269   3.872  0.3880 -0.1044 -0.4839
  740TIP3    H123635   0.581   4.288   3.798 -0.3211  0.6595  0.2628
  740TIP3    H223636   0.627   4.342   3.932  2.2070  0.1263 -0.3495
  741TIP3   OH223637   0.841   2.255  13.641 -0.2516  0.1464  0.0004
  741TIP3    H123638   0.932   2.224  13.643 -0.8842 -1.8332 -0.2164
  741TIP3    H223639   0.843   2.339  13.688  1.4711 -0.4167  1.0140
  742TIP3   OH223640   2.774   3.473   4.157 -0.5102 -0.1740  0.1434
  742TIP3    H123641   2.830   3.547   4.133  0.0846 -1.0123 -1.1908
  742TIP3    H223642   2.836   3.402   4.175 -1.1088 -0.8086 -0.2591
  743TIP3   OH223643   2.823   2.427  14.275 -0.0608 -0.2489  0.0312
  743TIP3    H123644   2.802   2.520  14.270  1.2318  0.1224  0.9090
  743TIP3    H223645   2.878   2.419  14.353 -0.3105 -1.7854  0.0821
  744TIP3   OH223646   0.096   5.174  11.342  0.1162  0.1466  0.2581
  744TIP3    H123647   0.009   5.140  11.364 -0.7085  1.6990 -0.4362
  744TIP3    H223648   0.090   5.268  11.359  1.5494  0.3338 -0.1463
  745TIP3   OH223649   1.423   3.561   2.116 -0.2245 -0.4087  0.2295
  745TIP3    H123650   1.436   3.628   2.183 -1.3249 -1.4562  1.5253
  745TIP3    H223651   1.378   3.489   2.161 -1.2920 -1.0160 -1.6806
  746TIP3   OH223652   2.853   3.408  13.338 -0.1657  0.1403 -0.6592
  746TIP3    H123653   2.782   3.357  13.298 -0.6115  1.4919 -1.6603
  746TIP3    H223654   2.809   3.458  13.407  0.6597 -2.4628  1.9220
  747TIP3   OH223655   1.779   4.892   6.541  0.6722  0.4596 -0.4358
  747TIP3    H123656   1.855   4.932   6.501  1.0746  0.7736  0.6134
  747TIP3    H223657   1.813   4.813   6.584  0.0899 -0.3892 -1.4744
  748TIP3   OH223658   0.845   5.272  15.484  0.0539  0.1914 -0.4389
  748TIP3    H123659   0.770   5.216  15.461 -0.2687 -0.0064  1.0187
  748TIP3    H223660   0.808   5.339  15.540  0.7822  0.7884 -0.6595
  749TIP3   OH223661   3.140   3.934   3.729 -1.0321  0.7057 -0.5051
  749TIP3    H123662   3.218   3.924   3.785 -0.7289  2.4904 -0.5638
  749TIP3    H223663   3.067   3.911   3.786 -0.5605  0.1793 -0.0927
  750TIP3   OH223664   4.512   0.234  13.948 -0.1031  0.2052 -0.4411
  750TIP3    H123665   4.492   0.149  13.988  0.6288 -0.3175 -1.1517
  750TIP3    H223666   4.453   0.241  13.873  1.5575 -0.8692 -1.9195
  751TIP3   OH223667   4.715   3.909   5.143  0.1130  0.5823 -0.3980
  751TIP3    H123668   4.754   3.919   5.056  0.3895 -2.2782 -0.7063
  751TIP3    H223669   4.660   3.831   5.136 -0.6735  0.8736  1.7356
  752TIP3   OH223670   5.547   0.231   4.495 -0.1502 -0.0180 -0.0864
  752TIP3    H123671   5.499   0.283   4.430  0.3630  1.0197  0.3364
  752TIP3    H223672   5.573   0.152   4.448 -0.4687  0.3586 -0.9202
  753TIP3   OH223673   6.332   3.106  15.820  0.5118 -0.2080 -0.1540
  753TIP3    H123674   6.244   3.069  15.814  0.8109 -0.7314 -1.7746
  753TIP3    H223675   6.328   3.188  15.770  1.0639 -0.5276 -0.7492
  754TIP3   OH223676   3.774   1.869  16.934 -0.0866 -0.0095 -0.4018
  754TIP3    H123677   3.713   1.866  16.860 -1.0832 -0.5512  0.4127
  754TIP3    H223678   3.723   1.836  17.008  0.4469  1.8073  0.8344
  755TIP3   OH223679   6.700   0.997   0.325  0.2567 -0.5158 -0.2626
  755TIP3    H123680   6.714   1.058   0.253  2.8789 -0.0722  0.4938
  755TIP3    H223681   6.622   0.947   0.300  0.0285  0.8220 -2.5138
  756TIP3   OH223682   3.510   6.658   1.632 -0.5595 -0.1525 -0.0600
  756TIP3    H123683   3.559   6.725   1.679  1.0541 -1.0236 -0.4316
  756TIP3    H223684   3.483   6.700   1.550 -0.5684  0.3757  0.2087
  757TIP3   OH223685   0.043   3.930  11.954  0.4383  0.2546  0.0632
  757TIP3    H123686   0.060   4.005  12.011 -1.2850 -0.4095  1.5665
  757TIP3    H223687   0.097   3.859  11.991  2.5832  0.8349 -1.7528
  758TIP3   OH223688   1.244   0.287  15.533 -0.0254  0.3441  0.8939
  758TIP3    H123689   1.204   0.222  15.590 -0.4032  0.2499  0.5223
  758TIP3    H223690   1.205   0.370  15.560 -2.2320  0.0024 -0.9619
  759TIP3   OH223691   2.590   0.090  13.066  0.2144 -0.1911  0.6294
  759TIP3    H123692   2.571   0.016  13.124 -0.6944 -0.3995  0.0704
  759TIP3    H223693   2.581   0.167  13.123 -0.6494 -0.3938  0.7724
  760TIP3   OH223694   4.075   1.306  11.293  0.3175  0.0927 -0.0552
  760TIP3    H123695   4.069   1.244  11.221  0.6891 -0.7118  0.5850
  760TIP3    H223696   4.160   1.347  11.283  0.9767 -1.0291  0.6931
  761TIP3   OH223697   4.121   6.638  13.402 -0.3340 -0.6005 -0.2449
  761TIP3    H123698   4.143   6.560  13.452  0.5447 -0.6064 -0.6207
  761TIP3    H223699   4.038   6.668  13.439  0.3891 -0.4753  1.3537
  762TIP3   OH223700   1.786   6.198   2.764 -0.6875  0.1064  0.0727
  762TIP3    H123701   1.853   6.265   2.772 -0.3568 -0.2561  0.3690
  762TIP3    H223702   1.794   6.166   2.674 -0.2595 -0.1417  0.1937
  763TIP3   OH223703   0.972   6.306   4.865 -0.1914 -0.6734 -0.3196
  763TIP3    H123704   0.984   6.396   4.836 -1.8347 -0.2165  0.3449
  763TIP3    H223705   1.023   6.299   4.946 -0.8486 -0.0436  0.1534
  764TIP3   OH223706   3.569   3.185  16.116  0.3556 -0.1248 -0.1744
  764TIP3    H123707   3.598   3.125  16.184 -1.2265  0.1660  0.8074
  764TIP3    H223708   3.594   3.272  16.149  0.2334 -0.0330 -0.3238
  765TIP3   OH223709   0.869   4.665  11.266  0.0865 -0.3596 -0.3032
  765TIP3    H123710   0.953   4.633  11.297  1.2774  0.1775 -2.7426
  765TIP3    H223711   0.835   4.717  11.339  1.2440 -1.5824  1.1915
  766TIP3   OH223712   2.510   0.754  13.466 -0.4343  0.8753 -0.5801
  766TIP3    H123713   2.546   0.826  13.516 -0.6976 -0.8000  2.2244
  766TIP3    H223714   2.416   0.766  13.469 -0.4735  0.5039 -0.2367
  767TIP3   OH223715   0.247   2.253   1.742 -0.6769 -0.5318 -0.1053
  767TIP3    H123716   0.244   2.191   1.669 -1.8281  0.3230 -0.8178
  767TIP3    H223717   0.229   2.200   1.820 -2.6928 -0.9755 -0.8120
  768TIP3   OH223718   1.818   0.651  12.377  0.4870 -0.2914  0.1489
  768TIP3    H123719   1.897   0.682  12.334  2.9898 -1.5915  3.4145
  768TIP3    H223720   1.765   0.729  12.391  3.1401  1.3867  1.4905
  769TIP3   OH223721   3.963   0.032   2.003 -0.0616 -0.2498 -0.2486
  769TIP3    H123722   3.927   0.010   1.917 -0.9132  0.0887  0.0082
  769TIP3    H223723   4.026   0.102   1.985  1.1252 -1.4256 -0.8063
  770TIP3   OH223724   5.479   3.918  14.068 -0.0380  0.1015 -0.1641
  770TIP3    H123725   5.540   3.975  14.020  0.0690 -0.0231 -0.1773
  770TIP3    H223726   5.436   3.867  14.000 -1.5574  1.5222 -0.3351
  771TIP3   OH223727   4.033   6.046   6.657 -0.0871  0.0410 -0.3386
  771TIP3    H123728   4.036   5.951   6.641 -0.3646  0.1355 -0.9418
  771TIP3    H223729   3.996   6.054   6.745 -0.4111 -0.3959 -0.4347
  772TIP3   OH223730   3.292   5.231   1.285 -0.0164  0.0857 -0.5300
  772TIP3    H123731   3.334   5.279   1.213  1.4802  1.2016  1.0233
  772TIP3    H223732   3.331   5.266   1.364  0.7180 -3.2761  0.7777
  773TIP3   OH223733   0.249   6.420  12.177 -0.9025 -0.1286  0.4580
  773TIP3    H123734   0.276   6.384  12.261 -2.4471  0.2036  1.1232
  773TIP3    H223735   0.164   6.380  12.159 -2.1864  2.2400  0.7052
  774TIP3   OH223736   1.308   4.210   5.354 -0.1478 -0.1271  0.5739
  774TIP3    H123737   1.378   4.162   5.398 -1.0986 -1.2546  0.9004
  774TIP3    H223738   1.293   4.287   5.409 -0.0158 -0.5246  1.1739
  775TIP3   OH223739   1.250   2.457  11.066  0.1099 -0.1051 -0.0071
  775TIP3    H123740   1.219   2.395  10.999  0.1347  0.1648 -0.2732
  775TIP3    H223741   1.298   2.524  11.016  1.7165 -0.8688  0.4611
  776TIP3   OH223742   5.117   1.428  15.990 -0.0392 -0.1284 -0.0307
  776TIP3    H123743   5.078   1.400  15.907  1.6161 -0.0629 -0.8709
  776TIP3    H223744   5.124   1.347  16.041  1.0936 -0.6078 -0.8993
  777TIP3   OH223745   0.719   1.542  13.233 -0.1719 -0.6026 -0.2439
  777TIP3    H123746   0.731   1.585  13.317 -0.5128  1.6553 -1.2972
  777TIP3    H223747   0.796   1.565  13.182 -0.9247 -0.2040 -1.2472
  778TIP3   OH223748   2.783   5.402   2.221  0.0537 -0.4551 -0.1814
  778TIP3    H123749   2.747   5.353   2.295 -1.6393 -0.0630 -0.7023
  778TIP3    H223750   2.874   5.373   2.215  0.9923  1.1762  3.4906
  779TIP3   OH223751   3.053   1.840   3.891 -0.3577  0.0528  0.0480
  779TIP3    H123752   3.013   1.872   3.810 -1.9932 -1.9108 -0.0062
  779TIP3    H223753   3.125   1.784   3.861 -0.4329  0.0019 -0.0418
  780TIP3   OH223754   0.795   3.317  17.144 -0.1635 -0.3578 -0.2163
  780TIP3    H123755   0.886   3.333  17.171 -0.6646  0.7068  0.9389
  780TIP3    H223756   0.769   3.240  17.195 -0.0888 -0.3114 -0.1064
  781TIP3   OH223757   3.581   3.016  13.922 -0.2173 -0.0061  0.0608
  781TIP3    H123758   3.575   3.076  13.847 -1.5711 -0.7861 -0.4809
  781TIP3    H223759   3.510   3.044  13.980 -0.1544 -0.3908  0.3238
  782TIP3   OH223760   0.894   3.579   4.726 -0.6508  0.0309 -0.1635
  782TIP3    H123761   0.890   3.552   4.634 -2.5466  1.1757 -0.4630
  782TIP3    H223762   0.809   3.553   4.762 -0.4170  0.7434  0.9210
  783TIP3   OH223763   6.504   3.683  16.900  0.0927  0.0054  0.3948
  783TIP3    H123764   6.419   3.696  16.858  0.2667 -0.9681 -0.3019
  783TIP3    H223765   6.489   3.704  16.992 -0.5382  1.2416  0.0295
  784TIP3   OH223766   0.522   5.040  11.553 -0.4998  0.4005  0.0070
  784TIP3    H123767   0.612   5.043  11.584  0.5491 -1.1111 -2.5289
  784TIP3    H223768   0.493   5.131  11.552  0.5301  0.7897  2.0131
  785TIP3   OH223769   1.290   2.731   5.744 -0.1022  0.5814  0.2222
  785TIP3    H123770   1.350   2.806   5.747  0.4297  0.1536  0.5256
  785TIP3    H223771   1.216   2.762   5.692  0.2134  1.2432  0.1507
  786TIP3   OH223772   3.047   4.049  16.905 -0.7094  0.1799 -0.0563
  786TIP3    H123773   3.111   4.100  16.853 -1.8419  1.3008 -0.4161
  786TIP3    H223774   3.075   4.062  16.996 -0.1935  0.3216 -0.2265
  787TIP3   OH223775   2.220   3.272  16.378 -0.0760  0.3753 -0.0095
  787TIP3    H123776   2.137   3.239  16.345  0.4641  0.2964 -1.3356
  787TIP3    H223777   2.238   3.220  16.457 -1.0638  0.1141  0.0465
  788TIP3   OH223778   6.559   0.553  17.205 -0.3004  0.3118  0.3845
  788TIP3    H123779   6.653   0.565  17.213  0.1237 -2.2247  0.0135
  788TIP3    H223780   6.525   0.640  17.186  2.0837  1.0791 -0.6885
  789TIP3   OH223781   4.382   6.373  15.596 -0.5686  0.0782  0.0546
  789TIP3    H123782   4.293   6.400  15.617 -0.7743 -0.3091 -0.3183
  789TIP3    H223783   4.430   6.455  15.586 -0.7749  0.2878  0.6886
  790TIP3   OH223784   0.239   4.724   5.215 -0.5185  0.6218 -0.1084
  790TIP3    H123785   0.193   4.808   5.210  1.2312  1.6279 -0.1850
  790TIP3    H223786   0.322   4.739   5.170 -0.3032 -1.2765 -0.4337
  791TIP3   OH223787   4.775   1.361   5.125  0.0288 -0.6183  0.3686
  791TIP3    H123788   4.831   1.293   5.088  1.2734  1.0282 -0.9334
  791TIP3    H223789   4.799   1.440   5.077 -0.1549  1.1159  2.9267
  792TIP3   OH223790   1.436   6.565  11.686  0.8881  0.0920  0.6583
  792TIP3    H123791   1.400   6.529  11.605  1.5100 -1.5605  1.0740
  792TIP3    H223792   1.465   6.653  11.663 -1.8741  0.8788 -0.0898
  793TIP3   OH223793   6.652   0.381  13.964  1.0469  0.0066 -0.2957
  793TIP3    H123794   6.605   0.312  13.917  0.1214  0.0774  0.4799
  793TIP3    H223795   6.645   0.355  14.056 -0.8847  2.0008  0.2164
  794TIP3   OH223796   6.599   5.795  16.508 -0.2820 -0.1515 -0.4420
  794TIP3    H123797   6.689   5.763  16.499 -0.4486 -1.1926  1.1439
  794TIP3    H223798   6.583   5.795  16.602 -2.0698 -0.3501 -0.7094
  795TIP3   OH223799   2.997   3.712   4.505 -0.2142 -0.1546 -0.0788
  795TIP3    H123800   3.033   3.632   4.543 -0.4366 -0.6712 -0.9150
  795TIP3    H223801   3.066   3.777   4.516 -0.3532 -0.2253  1.3582
  796TIP3   OH223802   3.364   0.245  11.019  1.0794  0.0154  0.1250
  796TIP3    H123803   3.426   0.289  11.078  1.5778  0.2086 -0.5294
  796TIP3    H223804   3.419   0.197  10.957  0.6316  0.9839 -1.0807
  797TIP3   OH223805   0.426   0.908  12.543  0.3248  0.4051  0.0372
  797TIP3    H123806   0.447   0.990  12.588  0.1563  0.3401  0.2339
  797TIP3    H223807   0.363   0.932  12.476  1.5584  0.7318 -1.0460
  798TIP3   OH223808   4.658   1.877  11.918 -0.6335 -0.1668  0.0775
  798TIP3    H123809   4.683   1.803  11.863  0.6352 -1.3174  2.0872
  798TIP3    H223810   4.563   1.867  11.929 -0.3413 -2.2296  1.2266
  799TIP3   OH223811   0.696   6.062  15.349  0.5964 -0.2623 -0.1820
  799TIP3    H123812   0.678   5.983  15.399  0.5143 -0.0381  0.1398
  799TIP3    H223813   0.760   6.034  15.283  1.5680 -0.3160  0.7437
  800TIP3   OH223814   1.485   3.000   5.219 -0.0323  0.5592  0.4472
  800TIP3    H123815   1.399   2.960   5.232 -0.2200  0.4846 -0.8338
  800TIP3    H223816   1.468   3.094   5.222 -0.3631  0.5622 -0.7735
  801TIP3   OH223817   1.907   1.673   1.359  0.5039  0.2933 -0.1036
  801TIP3    H123818   1.937   1.755   1.398 -0.0242  0.4963 -0.1132
  801TIP3    H223819   1.968   1.607   1.392  1.5576  0.8316 -0.9114
  802TIP3   OH223820   0.639   6.707   3.097  0.2568 -0.1918  0.3268
  802TIP3    H123821   0.670   6.796   3.117  0.2669  0.2249 -1.3732
  802TIP3    H223822   0.677   6.688   3.011  0.0566 -1.7657  0.5662
  803TIP3   OH223823   2.727   5.107   2.656 -0.4143 -0.7744  0.1031
  803TIP3    H123824   2.775   5.025   2.667 -0.2979 -0.8794 -1.0090
  803TIP3    H223825   2.635   5.083   2.663 -0.4003 -1.0958 -0.6481
  804TIP3   OH223826   4.757   4.735   5.187  0.3135 -0.4862  0.0680
  804TIP3    H123827   4.809   4.751   5.109 -0.7431 -0.7895 -0.7241
  804TIP3    H223828   4.798   4.660   5.229  0.9276 -0.2792 -0.1606
  805TIP3   OH223829   4.951   4.734  12.798 -0.8598 -0.8810 -0.2867
  805TIP3    H123830   4.929   4.791  12.724 -1.2799 -0.3001  0.2766
  805TIP3    H223831   4.867   4.699  12.827 -0.8392 -0.1706  0.6594
  806TIP3   OH223832   6.595   2.292  16.356 -0.2974 -0.2822  0.5547
  806TIP3    H123833   6.552   2.371  16.389 -1.4532  0.0731 -1.6377
  806TIP3    H223834   6.573   2.224  16.420 -0.6946  0.7949  1.5922
  807TIP3   OH223835   6.602   3.169  16.414  0.2721  0.4087  0.0864
  807TIP3    H123836   6.512   3.186  16.388  0.2525 -0.0282 -0.1331
  807TIP3    H223837   6.617   3.077  16.391  0.9728  0.6500 -0.4666
  808TIP3   OH223838   4.352   6.558   6.287 -0.0151 -0.2695 -0.9677
  808TIP3    H123839   4.385   6.617   6.356  2.2243 -2.6259  0.1372
  808TIP3    H223840   4.427   6.545   6.229 -0.2208 -2.5134 -0.8051
  809TIP3   OH223841   1.793   2.870  15.903 -0.0285 -0.2344  0.1074
  809TIP3    H123842   1.725   2.834  15.959  1.8979  0.2914  3.0234
  809TIP3    H223843   1.750   2.939  15.853 -2.6179 -3.0173 -1.8313
  810TIP3   OH223844   2.331   2.479   4.054 -0.1713 -0.3222  0.4671
  810TIP3    H123845   2.359   2.437   3.972 -2.7124 -2.4041  0.5227
  810TIP3    H223846   2.355   2.571   4.043 -0.8087 -0.4061 -2.8444
  811TIP3   OH223847   6.455   2.994  13.356 -0.1863 -0.1415  0.1508
  811TIP3    H123848   6.546   2.966  13.347  0.0324  0.5411  0.2294
  811TIP3    H223849   6.405   2.912  13.351  0.3305 -0.3924 -1.2299
  812TIP3   OH223850   2.289   1.070   5.610  0.1531 -0.0969 -0.4295
  812TIP3    H123851   2.287   1.140   5.545  0.0159 -0.2807 -0.6225
  812TIP3    H223852   2.240   0.998   5.570 -0.5115  0.0281  0.1535
  813TIP3   OH223853   2.510   3.389  13.586  0.9074 -0.0600  0.2993
  813TIP3    H123854   2.468   3.318  13.537  0.9035  1.4961 -2.1397
  813TIP3    H223855   2.451   3.405  13.660 -0.2223 -1.1299 -0.3289
  814TIP3   OH223856   4.102   0.131   3.812  0.4306  0.1820 -0.2366
  814TIP3    H123857   4.158   0.207   3.799 -0.3953  0.7879 -0.2979
  814TIP3    H223858   4.163   0.058   3.827  1.2299  0.7855 -0.5202
  815TIP3   OH223859   3.018   0.178   4.862 -0.3071  0.0170  0.3557
  815TIP3    H123860   3.109   0.163   4.837 -0.1787  0.0030  0.8345
  815TIP3    H223861   3.022   0.253   4.921 -0.7448  0.8422 -0.6226
  816TIP3   OH223862   1.599   6.730   6.093 -0.2656  0.1332  0.0007
  816TIP3    H123863   1.694   6.733   6.077 -0.1384 -1.6957  0.1705
  816TIP3    H223864   1.590   6.744   6.187 -0.0845 -0.3528  0.0982
  817TIP3   OH223865   2.608   1.843   5.223  1.1608  0.9105 -0.5259
  817TIP3    H123866   2.559   1.761   5.229  0.2373  1.4817 -0.0116
  817TIP3    H223867   2.592   1.875   5.134 -0.0288  1.4595 -0.1304
  818TIP3   OH223868   5.399   2.304  11.678 -0.1782  0.8474 -0.1504
  818TIP3    H123869   5.333   2.372  11.664  0.6751  1.6129 -0.4424
  818TIP3    H223870   5.395   2.250  11.599 -3.2206 -1.5446  1.3785
  819TIP3   OH223871   1.043   4.469   2.907 -0.4546  0.9218 -0.2333
  819TIP3    H123872   1.090   4.550   2.887  2.4362 -0.6663 -0.4541
  819TIP3    H223873   1.071   4.408   2.839 -0.4633 -0.9942  1.4154
  820TIP3   OH223874   5.192   4.538  14.290  0.3893  0.0180 -0.1730
  820TIP3    H123875   5.148   4.475  14.347  1.1884 -0.0466  0.4035
  820TIP3    H223876   5.222   4.607  14.349  1.5200 -0.2116 -0.4474
  821TIP3   OH223877   2.406   2.002   4.417  0.3594 -0.2471  0.1110
  821TIP3    H123878   2.490   2.043   4.396  0.0564  0.0113 -0.6153
  821TIP3    H223879   2.342   2.072   4.407 -0.0816 -0.7260 -0.5007
  822TIP3   OH223880   0.307   4.046  16.281  0.1843 -0.5648 -0.2534
  822TIP3    H123881   0.304   3.966  16.334  0.4468 -0.5401 -0.1971
  822TIP3    H223882   0.384   4.033  16.225  0.0300 -0.4991 -0.4797
  823TIP3   OH223883   2.842   5.223  12.258 -0.2463  0.1406  0.2050
  823TIP3    H123884   2.773   5.256  12.200  0.0741 -1.5978 -1.2730
  823TIP3    H223885   2.919   5.276  12.237 -0.4418  0.3072 -0.1013
  824TIP3   OH223886   2.722   6.285  15.988 -0.1845  0.0848  0.4669
  824TIP3    H123887   2.807   6.298  15.944 -0.0009 -1.0811  0.4515
  824TIP3    H223888   2.725   6.344  16.063 -0.1182  1.4106 -0.5498
  825TIP3   OH223889   4.537   0.935   2.797 -0.2754 -0.2181 -0.3443
  825TIP3    H123890   4.481   0.913   2.723  0.7555 -1.7621 -0.7150
  825TIP3    H223891   4.554   0.851   2.841 -0.6791  0.6182  1.5307
  826TIP3   OH223892   2.390   2.183   5.664  0.3197  0.1011 -0.5381
  826TIP3    H123893   2.397   2.091   5.690 -0.7419 -0.0496 -0.7492
  826TIP3    H223894   2.472   2.200   5.617  0.7529 -0.5895 -0.0584
  827TIP3   OH223895   1.678   3.595  11.401  1.0246 -0.4176  0.1033
  827TIP3    H123896   1.731   3.605  11.321  1.1045  0.6852  0.2757
  827TIP3    H223897   1.726   3.531  11.453  1.3807 -0.5806 -0.4135
  828TIP3   OH223898   5.247   1.484   4.969 -0.0189 -0.3974  0.2408
  828TIP3    H123899   5.196   1.540   5.027 -0.0451  0.1480 -0.3068
  828TIP3    H223900   5.200   1.487   4.886  1.4165  0.8680 -0.5550
  829TIP3   OH223901   1.319   1.542   0.407  0.0556  0.1065 -0.0212
  829TIP3    H123902   1.302   1.485   0.482  0.4035 -1.9246 -1.4061
  829TIP3    H223903   1.236   1.587   0.392  0.4023  1.7508  2.4688
  830TIP3   OH223904   0.463   2.257   3.527  0.5163 -0.3744 -0.7594
  830TIP3    H123905   0.385   2.294   3.485  0.6151  0.0388 -0.5883
  830TIP3    H223906   0.535   2.283   3.470  0.7526  0.8956  0.0613
  831TIP3   OH223907   0.168   3.307   5.080  0.1440  0.1948  0.4773
  831TIP3    H123908   0.113   3.289   5.157 -0.2283 -1.6768 -0.1594
  831TIP3    H223909   0.217   3.385   5.103 -0.4447  0.0585  2.3604
  832TIP3   OH223910   1.153   3.393   1.805  0.1017 -0.2993 -0.1584
  832TIP3    H123911   1.164   3.487   1.796 -1.8234 -0.0103  0.0858
  832TIP3    H223912   1.113   3.382   1.892 -1.1171 -1.1850 -0.7996
  833TIP3   OH223913   2.966   2.828  16.505 -0.4819 -0.0752  0.3183
  833TIP3    H123914   3.054   2.796  16.485 -1.2101 -2.1010  0.0593
  833TIP3    H223915   2.980   2.909  16.553  1.5154 -0.2223  0.0761
  834TIP3   OH223916   3.895   4.023   3.467  0.1444 -0.4621 -0.2232
  834TIP3    H123917   3.970   4.081   3.453 -0.9163  0.4484 -2.8301
  834TIP3    H223918   3.896   3.963   3.392 -0.0081 -2.5143  1.3240
  835TIP3   OH223919   2.987   1.486   5.630  0.0274  1.1318  0.0354
  835TIP3    H123920   3.022   1.489   5.719 -0.1209  2.5248  0.0681
  835TIP3    H223921   3.063   1.486   5.573  0.1209  0.3918  0.1588
  836TIP3   OH223922   5.966   2.841   4.030  0.1017 -0.2089 -0.1209
  836TIP3    H123923   6.039   2.835   4.091  1.3331  1.6586 -1.3062
  836TIP3    H223924   5.997   2.795   3.952  0.2796  1.0764 -0.8323
  837TIP3   OH223925   2.567   1.019   5.698 -0.3320 -0.3608  0.3457
  837TIP3    H123926   2.547   0.954   5.765  0.8505 -3.4170 -2.0218
  837TIP3    H223927   2.482   1.038   5.657 -0.6778 -0.4138  1.0147
  838TIP3   OH223928   4.393   1.948  14.882  0.1834  0.3570  0.5724
  838TIP3    H123929   4.381   1.981  14.971 -0.4090  0.6109  0.4084
  838TIP3    H223930   4.473   1.895  14.886  0.5408  0.9215  1.0933
  839TIP3   OH223931   4.621   2.484  15.969 -0.1593  0.4303  0.1420
  839TIP3    H123932   4.553   2.490  15.902 -0.6078 -1.5567  0.3540
  839TIP3    H223933   4.584   2.530  16.045 -1.0957 -0.2479  0.1125
  840TIP3   OH223934   0.288   4.311  14.498  0.2735 -0.7680 -0.4798
  840TIP3    H123935   0.274   4.258  14.420  1.6324 -0.7751 -0.7509
  840TIP3    H223936   0.302   4.400  14.465 -1.3849 -0.3289 -0.0711
  841TIP3   OH223937   6.233   0.189   1.884 -0.0736 -0.3914 -0.1194
  841TIP3    H123938   6.211   0.096   1.894  1.2594 -0.9647 -1.9672
  841TIP3    H223939   6.246   0.201   1.790  1.8848  1.1679  0.2861
  842TIP3   OH223940   2.334   4.436  12.590  0.1137 -0.5257 -1.0628
  842TIP3    H123941   2.341   4.523  12.551  2.5042 -0.9718 -1.7675
  842TIP3    H223942   2.270   4.390  12.535 -0.1306  0.3387 -1.5235
  843TIP3   OH223943   3.264   4.814   0.146 -0.0914  0.6504  0.3295
  843TIP3    H123944   3.275   4.889   0.206 -0.5928  0.8284  0.2010
  843TIP3    H223945   3.173   4.820   0.117  0.0231  0.3006 -0.1018
  844TIP3   OH223946   0.662   2.885  15.865 -0.0612  0.5362  0.3176
  844TIP3    H123947   0.719   2.808  15.874 -0.8716 -0.2598 -0.9252
  844TIP3    H223948   0.649   2.916  15.955  0.1709 -0.8676  0.8651
  845TIP3   OH223949   3.998   5.915  14.952 -0.0797  0.1192  0.1656
  845TIP3    H123950   3.922   5.856  14.947  0.0942 -0.0191 -2.8626
  845TIP3    H223951   3.960   6.003  14.940  0.0471  0.2701  0.8322
  846TIP3   OH223952   1.333   3.206   3.220 -0.2276  0.0526  0.1013
  846TIP3    H123953   1.353   3.279   3.279  0.8956  1.9051 -2.3718
  846TIP3    H223954   1.405   3.206   3.157 -2.1067 -0.7871 -2.1817
  847TIP3   OH223955   0.123   1.113   6.618 -0.1906 -0.1734 -0.2470
  847TIP3    H123956   0.114   1.062   6.698 -1.2078  1.8807  1.0430
  847TIP3    H223957   0.216   1.110   6.597 -0.0849 -1.6835  0.3472
  848TIP3   OH223958   3.184   6.767  15.047 -0.2167  0.2228  0.0019
  848TIP3    H123959   3.157   6.858  15.060 -1.1030 -0.1697  1.1723
  848TIP3    H223960   3.142   6.741  14.965  0.2836  0.9414 -0.4950
  849TIP3   OH223961   2.151   0.776   4.670 -0.8433  0.0137  0.6315
  849TIP3    H123962   2.138   0.848   4.731 -1.2816  1.4229 -1.0161
  849TIP3    H223963   2.196   0.708   4.720 -0.5120  1.3954  2.2708
  850TIP3   OH223964   5.364   6.043   4.523  0.5568 -0.0023 -0.1847
  850TIP3    H123965   5.460   6.043   4.522  0.5703  0.0251 -1.6417
  850TIP3    H223966   5.340   5.951   4.510  0.3655 -0.0797  0.6479
  851TIP3   OH223967   1.172   2.270  10.357 -0.0825 -0.0170  0.3843
  851TIP3    H123968   1.097   2.308  10.311 -0.5403 -0.0434  1.1016
  851TIP3    H223969   1.134   2.208  10.419  0.5502 -0.2411  0.5563
  852TIP3   OH223970   3.927   0.185   2.624 -0.8245  0.5422 -0.5171
  852TIP3    H123971   3.904   0.247   2.555 -2.4550  0.3081 -0.2365
  852TIP3    H223972   3.895   0.101   2.592  0.4111  0.0181 -0.4298
  853TIP3   OH223973   3.499   6.091  10.839  0.1281 -0.2739 -0.5255
  853TIP3    H123974   3.567   6.101  10.772  3.1087 -1.9951  1.9264
  853TIP3    H223975   3.450   6.014  10.812  1.4370 -1.0830 -0.6955
  854TIP3   OH223976   5.525   2.206   1.536 -0.0337  0.8870  0.3136
  854TIP3    H123977   5.486   2.253   1.610 -2.4388 -1.7644  0.9082
  854TIP3    H223978   5.565   2.128   1.574  2.6561  1.6062 -0.7848
  855TIP3   OH223979   5.993   4.477  16.058 -0.3618  0.2902  0.7214
  855TIP3    H123980   6.001   4.396  16.007  0.2049  0.4042  0.6186
  855TIP3    H223981   5.929   4.457  16.126 -1.1053  0.1162 -0.0073
  856TIP3   OH223982   4.982   5.334  15.368 -0.1026 -0.2055 -0.6036
  856TIP3    H123983   4.980   5.239  15.362  1.1555 -0.5921  2.9076
  856TIP3    H223984   4.923   5.355  15.441 -2.0345  1.9983 -2.5986
  857TIP3   OH223985   6.089   2.342   5.274 -0.0374 -1.1740 -0.9622
  857TIP3    H123986   6.013   2.293   5.243  0.8949 -2.4892 -1.2871
  857TIP3    H223987   6.163   2.283   5.259  0.9038 -0.4177  0.4701
  858TIP3   OH223988   5.910   3.777  13.379  0.4519  0.5282 -0.1345
  858TIP3    H123989   5.878   3.730  13.457  0.9494  2.4736  1.3118
  858TIP3    H223990   6.003   3.789  13.394  0.7215  0.2339 -1.4432
  859TIP3   OH223991   2.915   4.224  16.059 -0.1386 -0.0081  0.2725
  859TIP3    H123992   2.836   4.210  16.007  0.4869 -0.3492 -0.6179
  859TIP3    H223993   2.968   4.284  16.007  0.3784 -0.1309  0.6468
  860TIP3   OH223994   6.665   1.104  16.134 -0.0093  0.6722  0.0303
  860TIP3    H123995   6.730   1.147  16.079  0.7517  0.2588  0.5847
  860TIP3    H223996   6.684   1.010  16.126  0.3233  0.6231  1.2384
  861TIP3   OH223997   1.818   6.641  15.555  0.1607 -0.4065  0.7385
  861TIP3    H123998   1.886   6.683  15.502  0.3151 -2.0686 -0.4822
  861TIP3    H223999   1.821   6.687  15.639 -0.1757  2.4272 -0.6921
  862TIP3   OH224000   2.425   6.623   0.326 -0.3382 -0.1338  0.2222
  862TIP3    H124001   2.397   6.536   0.297  0.3090  0.0700 -1.0557
  862TIP3    H224002   2.344   6.674   0.327 -0.2858  0.0699 -2.0585
  863TIP3   OH224003   2.148   3.060   3.527 -0.0088 -0.2817  1.2594
  863TIP3    H124004   2.095   3.085   3.452  0.4675  1.9134  1.5655
  863TIP3    H224005   2.094   2.999   3.576 -0.1846 -2.0736 -1.0036
  864TIP3   OH224006   5.137   2.277   3.706 -0.3344  0.2415  0.4909
  864TIP3    H124007   5.043   2.284   3.720 -0.3202 -0.1900  0.8043
  864TIP3    H224008   5.151   2.187   3.676 -0.2418  0.8325 -1.3602
  865TIP3   OH224009   2.017   5.977   4.090  0.9043  0.3628 -0.0978
  865TIP3    H124010   1.963   6.008   4.017  1.6280 -1.0353 -1.3082
  865TIP3    H224011   1.959   5.921   4.141  0.2918  1.6364  0.6416
  866TIP3   OH224012   3.005   4.688   4.141  0.3758 -0.2301  0.0616
  866TIP3    H124013   3.088   4.656   4.178  0.1280 -0.4765  0.4164
  866TIP3    H224014   2.984   4.764   4.195  0.4758 -0.0425 -0.1635
  867TIP3   OH224015   1.340   4.915   0.235  0.5458 -0.3054  0.1587
  867TIP3    H124016   1.248   4.931   0.217  0.2047 -2.8598 -0.7996
  867TIP3    H224017   1.384   4.930   0.151  1.0355  0.9135  0.6134
  868TIP3   OH224018   1.880   5.341   0.261  0.0715 -0.1847 -0.3563
  868TIP3    H124019   1.975   5.346   0.255  0.2889  0.0559  2.2065
  868TIP3    H224020   1.859   5.252   0.232  1.1589 -0.5332 -0.1267
  869TIP3   OH224021   5.347   5.232   1.454 -0.4166 -0.4626  0.0217
  869TIP3    H124022   5.367   5.179   1.530  0.5779  1.3055  1.0502
  869TIP3    H224023   5.261   5.270   1.473  0.0204  0.3109  0.4562
  870TIP3   OH224024   1.834   0.608   0.452 -0.0495 -0.3393  0.1150
  870TIP3    H124025   1.791   0.639   0.373  1.0376  1.8909  0.3354
  870TIP3    H224026   1.917   0.655   0.455  0.6244 -1.5297  1.7861
  871TIP3   OH224027   6.266   3.356   5.751  0.0946  0.3273  0.1981
  871TIP3    H124028   6.223   3.338   5.834 -0.1959  1.3308  0.2858
  871TIP3    H224029   6.248   3.449   5.735  1.2195  0.4699 -0.3515
  872TIP3   OH224030   1.397   0.072  13.765  0.2098 -0.0639  0.3374
  872TIP3    H124031   1.412   0.009  13.694  1.3014  0.1307  0.3912
  872TIP3    H224032   1.326   0.128  13.733 -0.1852 -0.7834 -0.0604
  873TIP3   OH224033   6.143   3.886  16.577 -0.2589  0.5120 -0.2483
  873TIP3    H124034   6.181   3.844  16.654 -0.5419  1.2361  0.2887
  873TIP3    H224035   6.105   3.967  16.609  1.4264  1.8645 -1.4717
  874TIP3   OH224036   2.444   4.606   3.078 -0.1348 -0.2942 -0.0465
  874TIP3    H124037   2.397   4.573   3.002 -0.7041  0.3545  0.0116
  874TIP3    H224038   2.394   4.682   3.107 -0.1835 -0.7868  1.2599
  875TIP3   OH224039   5.673   4.308   3.850 -0.3955  0.0510  0.6724
  875TIP3    H124040   5.594   4.307   3.904  0.5068 -0.6735  2.0766
  875TIP3    H224041   5.651   4.361   3.774 -2.7618 -1.4675  0.1802
  876TIP3   OH224042   3.717   0.625  12.058 -0.0407  0.9264  0.6958
  876TIP3    H124043   3.682   0.649  11.972 -0.8900 -1.0725  0.4287
  876TIP3    H224044   3.663   0.674  12.120 -0.9938  0.5869  0.1554
  877TIP3   OH224045   1.196   2.130   5.763 -0.1332  0.6828  0.2420
  877TIP3    H124046   1.134   2.083   5.818  0.8888  0.0771  0.9085
  877TIP3    H224047   1.268   2.153   5.822  1.3029 -0.5754 -0.9451
  878TIP3   OH224048   2.294   3.792  12.134  0.5889  0.1378  0.3656
  878TIP3    H124049   2.310   3.770  12.226 -0.4627 -0.4025  0.4320
  878TIP3    H224050   2.335   3.721  12.085  0.8651  0.2569  0.4180
  879TIP3   OH224051   6.087   5.219   2.772 -0.1831  0.4222 -0.9050
  879TIP3    H124052   6.014   5.237   2.713 -0.7349  0.0166 -0.3663
  879TIP3    H224053   6.046   5.207   2.858  0.4467 -0.3636 -0.6941
  880TIP3   OH224054   5.233   5.439   5.196 -0.7027  0.0771  0.5238
  880TIP3    H124055   5.233   5.400   5.108 -2.0745 -0.3776  0.7052
  880TIP3    H224056   5.263   5.529   5.182 -1.9493  0.3556 -0.6014
  881TIP3   OH224057   2.298   1.048  12.783  0.3376 -0.2252  0.0605
  881TIP3    H124058   2.234   1.119  12.780  0.7481  0.1840  0.6970
  881TIP3    H224059   2.274   0.990  12.711 -1.2607 -0.5116  0.7857
  882TIP3   OH224060   0.779   2.012  15.322  0.0349 -0.1843  0.4671
  882TIP3    H124061   0.775   1.934  15.266  1.6611 -0.9295  1.3109
  882TIP3    H224062   0.820   1.981  15.402  0.8406  1.5833  0.7797
  883TIP3   OH224063   5.964   0.720   2.768 -0.3370 -0.5699 -0.0487
  883TIP3    H124064   5.923   0.762   2.844  1.3002  2.1063 -0.5323
  883TIP3    H224065   6.055   0.709   2.794 -0.1694 -1.4000 -0.9668
  884TIP3   OH224066   3.049   6.472   3.558  0.0557 -0.1987 -0.0228
  884TIP3    H124067   3.053   6.392   3.611 -0.4945 -0.1986  0.0198
  884TIP3    H224068   3.101   6.451   3.480  0.3670 -0.4072  0.2376
  885TIP3   OH224069   6.179   6.261   1.189  0.7567  0.3766 -0.7661
  885TIP3    H124070   6.218   6.309   1.262  0.1979 -0.2546 -0.0431
  885TIP3    H224071   6.092   6.237   1.219  1.8154 -3.2314 -0.0781
  886TIP3   OH224072   0.272   3.219   4.070  0.3196 -0.2956 -0.3555
  886TIP3    H124073   0.256   3.309   4.097 -0.6611 -1.1352  2.1290
  886TIP3    H224074   0.185   3.185   4.048  0.4920 -1.0030  0.0277
  887TIP3   OH224075   5.931   3.404  14.098  0.9734 -0.2786 -0.3739
  887TIP3    H124076   5.877   3.377  14.023  1.5336 -0.2775 -0.7884
  887TIP3    H224077   5.946   3.323  14.147 -1.8125  0.1479  1.3998
  888TIP3   OH224078   3.647   2.885   0.512 -0.4632 -0.6066 -0.5703
  888TIP3    H124079   3.591   2.813   0.485 -1.8832  0.4316 -0.4947
  888TIP3    H224080   3.711   2.845   0.571 -0.8920 -1.8789 -0.9354
  889TIP3   OH224081   5.611   6.535  17.125  0.4346 -0.1581  0.5557
  889TIP3    H124082   5.538   6.596  17.128  0.4705 -0.1279  3.0786
  889TIP3    H224083   5.687   6.586  17.154  0.9559 -0.7958  0.3479
  890TIP3   OH224084   0.049   5.592  15.571 -0.1188 -0.2903  0.1410
  890TIP3    H124085   0.072   5.518  15.627 -1.9743 -0.4421  0.8045
  890TIP3    H224086  -0.026   5.632  15.616  0.2871  1.4589 -0.6702
  891TIP3   OH224087   5.912   2.129  11.359  0.0577 -0.2535 -0.0145
  891TIP3    H124088   5.895   2.074  11.282 -0.0576 -0.6917  0.3187
  891TIP3    H224089   5.827   2.133  11.404  0.3318 -0.7254  0.5535
  892TIP3   OH224090   1.743   6.324   5.070  0.5423  0.2448  0.3930
  892TIP3    H124091   1.727   6.334   5.164  1.1779  1.4857  0.3779
  892TIP3    H224092   1.656   6.317   5.032  0.2609  0.4081  0.9954
  893TIP3   OH224093   3.650   4.404  15.549 -0.4441  0.0462  0.2473
  893TIP3    H124094   3.600   4.467  15.497  0.0117  0.3625  0.1822
  893TIP3    H224095   3.644   4.322  15.500 -1.3329 -0.0547  0.5112
  894TIP3   OH224096   0.976   4.053   3.870  0.1731 -0.5266  0.1117
  894TIP3    H124097   0.962   4.147   3.866  0.0193 -0.5217  0.6749
  894TIP3    H224098   1.068   4.041   3.843  0.3712 -0.1609  0.6170
  895TIP3   OH224099   4.444   4.861   5.092 -0.1959  0.2720  0.2896
  895TIP3    H124100   4.467   4.837   5.181  1.6769  0.9172  0.0348
  895TIP3    H224101   4.467   4.954   5.085  1.7002 -0.2487 -1.4237
  896TIP3   OH224102   1.394   6.312  14.146  0.1041 -0.1007  0.5260
  896TIP3    H124103   1.447   6.235  14.122 -1.8185 -1.7605  1.3045
  896TIP3    H224104   1.447   6.357  14.212  1.5989 -0.3254 -0.4803
  897TIP3   OH224105   1.183   4.495   3.585  0.1730  0.4095  0.5477
  897TIP3    H124106   1.242   4.428   3.621 -1.3120 -1.4048 -0.2341
  897TIP3    H224107   1.123   4.515   3.656 -0.7560 -0.7966  0.1497
  898TIP3   OH224108   3.169   1.673   3.370  0.4196  0.4143  0.2516
  898TIP3    H124109   3.238   1.701   3.311  0.9565  0.4831  0.9002
  898TIP3    H224110   3.193   1.711   3.455 -0.5464  0.6503  0.4273
  899TIP3   OH224111   1.599   3.924   0.689  0.7143  0.1966 -0.7941
  899TIP3    H124112   1.637   3.914   0.776  0.9982  1.7351 -0.7259
  899TIP3    H224113   1.516   3.970   0.704  0.6482  0.2520 -1.3126
  900TIP3   OH224114   4.283   0.734  14.977  0.1046 -0.2972  0.0398
  900TIP3    H124115   4.198   0.696  14.956 -0.0549  0.3492 -0.5259
  900TIP3    H224116   4.315   0.770  14.894 -0.5473  2.3377  0.8236
  901TIP3   OH224117   3.950   0.273  15.409 -0.0617  0.0077  0.1033
  901TIP3    H124118   3.877   0.299  15.352  0.0501 -1.1863 -0.6255
  901TIP3    H224119   3.908   0.248  15.491 -0.8497 -2.9421 -1.0272
  902TIP3   OH224120   2.580   3.714  12.078 -0.1452  0.2310 -0.1355
  902TIP3    H124121   2.631   3.779  12.029 -0.9520  0.1721 -1.1039
  902TIP3    H224122   2.645   3.660  12.122  0.7062 -0.3626 -1.9984
  903TIP3   OH224123   0.070   0.547   2.339 -0.4000 -0.5071 -0.1275
  903TIP3    H124124   0.111   0.631   2.316  2.1294 -1.4331  0.6509
  903TIP3    H224125   0.043   0.559   2.431  2.3704 -1.2931  0.8811
  904TIP3   OH224126   1.194   0.413  11.874  0.3660 -0.1071 -0.6678
  904TIP3    H124127   1.248   0.348  11.917 -0.4712 -0.7929 -0.6248
  904TIP3    H224128   1.139   0.449  11.944  0.2190  0.0227 -0.8470
  905TIP3   OH224129   5.429   2.901  15.883  0.3455 -0.2027  0.3722
  905TIP3    H124130   5.501   2.873  15.940  0.9502  0.1168 -0.2199
  905TIP3    H224131   5.437   2.996  15.880 -0.8801 -0.0424  1.3009
  906TIP3   OH224132   3.997   2.360  12.220  0.4442  0.3642 -0.4825
  906TIP3    H124133   4.030   2.271  12.205 -0.2878  0.1058 -0.5979
  906TIP3    H224134   4.076   2.415  12.217  1.1922 -0.4994  1.6754
  907TIP3   OH224135   3.739   5.618   2.443  0.7480  0.5420  0.4625
  907TIP3    H124136   3.728   5.663   2.526 -1.6312  1.1278 -0.0988
  907TIP3    H224137   3.654   5.628   2.399  1.4172 -1.1310 -1.3421
  908TIP3   OH224138   5.860   3.003   5.179  0.2069  0.3325 -0.1906
  908TIP3    H124139   5.842   2.981   5.087 -1.0808 -1.0343  0.3488
  908TIP3    H224140   5.778   3.043   5.210 -0.4038 -1.8059  1.0976
  909TIP3   OH224141   4.690   1.872  13.630 -0.1360  0.1250  0.0607
  909TIP3    H124142   4.743   1.820  13.691 -0.9713 -0.5321  0.2449
  909TIP3    H224143   4.601   1.841  13.644 -0.3725  0.1357 -1.3359
  910TIP3   OH224144   0.536   2.472   4.623 -0.1264  0.6466  0.2695
  910TIP3    H124145   0.567   2.391   4.582  1.2426  2.0052 -1.5769
  910TIP3    H224146   0.448   2.485   4.588 -0.0252  0.3948 -0.0786
  911TIP3   OH224147   2.165   6.647   3.629 -0.1207 -0.1648 -0.4988
  911TIP3    H124148   2.223   6.723   3.623  0.5855 -0.7299 -1.1434
  911TIP3    H224149   2.102   6.660   3.559  0.5464 -0.5993 -1.1985
  912TIP3   OH224150   4.558   1.217  12.575 -0.3733  0.1118  0.8511
  912TIP3    H124151   4.604   1.232  12.492  1.0142  0.1186  1.5918
  912TIP3    H224152   4.519   1.302  12.597 -0.4068  0.2111  0.4181
  913TIP3   OH224153   1.369   6.534   1.825  0.1791 -0.1062  0.3809
  913TIP3    H124154   1.365   6.517   1.919 -1.7166 -1.2135  0.1436
  913TIP3    H224155   1.454   6.498   1.798  0.3777 -0.5442  1.5236
  914TIP3   OH224156   2.061   1.090  14.730  0.6507 -0.3128 -0.0035
  914TIP3    H124157   2.078   1.100  14.824  1.5070 -1.6208  0.0230
  914TIP3    H224158   2.147   1.095  14.690  0.6391 -2.3207 -0.4132
  915TIP3   OH224159   6.602   1.961   0.852 -0.1965  0.2016 -0.0271
  915TIP3    H124160   6.630   1.918   0.933  0.3442  1.9851  0.7839
  915TIP3    H224161   6.586   1.889   0.791 -0.3421 -1.1842  1.5677
  916TIP3   OH224162   1.520   3.110   0.834 -0.1867  1.0535  0.2118
  916TIP3    H124163   1.439   3.062   0.848 -0.7965  1.3747 -1.8445
  916TIP3    H224164   1.586   3.043   0.814 -0.5790  0.9336 -0.7166
  917TIP3   OH224165   5.366   0.249  14.856  0.0347 -0.4653  0.0682
  917TIP3    H124166   5.299   0.239  14.788  0.4019  0.0717 -0.3793
  917TIP3    H224167   5.368   0.164  14.901 -1.5604 -0.2213  0.6662
  918TIP3   OH224168   5.813   5.077   5.181  0.4130 -0.5679 -0.0819
  918TIP3    H124169   5.878   5.147   5.187 -1.1928  0.8804  1.3733
  918TIP3    H224170   5.864   5.000   5.157  2.6671  0.4775  1.0268
  919TIP3   OH224171   6.299   2.916  12.428  0.9882  0.4163  0.7649
  919TIP3    H124172   6.208   2.898  12.403  1.5414 -1.3325 -0.1726
  919TIP3    H224173   6.292   2.962  12.512 -0.7261 -0.9956  1.4705
  920TIP3   OH224174   4.212   0.679  14.512  0.6293 -0.0634  0.3942
  920TIP3    H124175   4.194   0.759  14.562 -1.0266  0.0417 -0.3048
  920TIP3    H224176   4.175   0.696  14.425 -1.0805 -2.0800  0.6335
  921TIP3   OH224177   0.195   3.431   2.057 -0.1172 -0.2844 -0.0802
  921TIP3    H124178   0.127   3.479   2.008 -1.6285 -2.8318 -0.6662
  921TIP3    H224179   0.216   3.488   2.131 -0.4347  2.0641 -1.6901
  922TIP3   OH224180   1.737   5.982   4.705 -0.4793 -0.1062 -0.4133
  922TIP3    H124181   1.714   6.014   4.792 -1.2799 -0.9025 -0.3242
  922TIP3    H224182   1.721   5.888   4.709  1.9055 -0.5896 -0.6415
  923TIP3   OH224183   2.513   2.080  13.017  0.3095  0.1626 -0.7783
  923TIP3    H124184   2.460   2.003  12.999 -0.0557  0.4532 -0.9540
  923TIP3    H224185   2.566   2.091  12.938 -0.0539  0.4262 -0.9899
  924TIP3   OH224186   2.670   6.707   2.824 -0.3669  0.3083 -0.8645
  924TIP3    H124187   2.706   6.788   2.860 -1.2775  0.2286  0.2664
  924TIP3    H224188   2.590   6.692   2.873 -1.1894 -0.3023 -2.3242
  925TIP3   OH224189   4.156   0.340  12.436  0.2990  0.0882 -0.2932
  925TIP3    H124190   4.079   0.338  12.379 -1.6083 -1.6690  2.1169
  925TIP3    H224191   4.146   0.420  12.487  0.4634  0.2389 -0.4995
  926TIP3   OH224192   6.279   5.798   1.975 -0.1722  0.3590  0.4428
  926TIP3    H124193   6.193   5.836   1.959 -0.0745  1.0480  1.4345
  926TIP3    H224194   6.280   5.780   2.069  0.5148 -0.2690  0.3193
  927TIP3   OH224195   4.504   5.975  17.204 -0.3931  0.3788 -0.2170
  927TIP3    H124196   4.490   6.005  17.114 -0.8366 -1.2609 -0.7268
  927TIP3    H224197   4.597   5.991  17.220  0.4637 -2.0585 -2.1119
  928TIP3   OH224198   3.647   5.656  13.552  0.0799  0.1764  0.1449
  928TIP3    H124199   3.740   5.680  13.546 -0.0293  0.7176  0.5562
  928TIP3    H224200   3.622   5.679  13.641 -0.4986  0.2079 -0.0211
  929TIP3   OH224201   3.881   4.042  17.130 -0.1581 -0.6370  0.3005
  929TIP3    H124202   3.898   4.134  17.111 -1.4460 -0.5012 -0.3439
  929TIP3    H224203   3.919   4.028  17.216  0.7230  0.2915  0.0924
  930TIP3   OH224204   5.003   6.506   0.941 -0.2433 -0.0809  0.4171
  930TIP3    H124205   5.009   6.437   0.875 -0.1857 -0.6972  1.0528
  930TIP3    H224206   4.996   6.588   0.891  0.2115 -0.5041 -0.3451
  931TIP3   OH224207   3.305   0.816   1.951 -0.2334  0.3861  0.1986
  931TIP3    H124208   3.335   0.777   1.869 -0.8620 -1.3151  0.7338
  931TIP3    H224209   3.210   0.822   1.941 -0.3905 -0.4571  1.0304
  932TIP3   OH224210   3.804   4.477  13.703  0.2263 -0.4482 -0.4453
  932TIP3    H124211   3.896   4.482  13.677  0.7299  2.4439  1.4832
  932TIP3    H224212   3.805   4.432  13.787 -0.4779 -2.4990 -1.4617
  933TIP3   OH224213   1.512   5.289   1.280  0.2396 -0.3704 -0.0378
  933TIP3    H124214   1.441   5.244   1.326 -0.5144 -0.6770 -1.4539
  933TIP3    H224215   1.482   5.294   1.190  0.1610  3.1832  0.0462
  934TIP3   OH224216   0.316   3.832   0.434 -1.1572  0.2055  0.7009
  934TIP3    H124217   0.349   3.768   0.496  2.3434 -0.8286 -1.8851
  934TIP3    H224218   0.301   3.782   0.354 -0.3406  2.2083 -0.8036
  935TIP3   OH224219   2.563   6.569   4.992 -0.5481  0.8753  0.4442
  935TIP3    H124220   2.651   6.533   4.985 -1.5236 -1.3636 -3.4822
  935TIP3    H224221   2.513   6.502   5.037 -0.8288  0.7044 -0.1057
  936TIP3   OH224222   5.134   0.602  11.568  0.1883  0.3683  0.7458
  936TIP3    H124223   5.163   0.693  11.563 -2.2443  1.2010  0.4648
  936TIP3    H224224   5.134   0.582  11.662 -1.0620  1.3265  0.9690
  937TIP3   OH224225   5.999   2.488  12.026  0.6772 -0.1700  0.5472
  937TIP3    H124226   5.969   2.477  11.936 -0.6172  0.3890  0.8873
  937TIP3    H224227   6.028   2.401  12.053  0.8252 -0.3986 -0.3137
  938TIP3   OH224228   4.823   4.599  15.206  0.0581 -0.4419  0.0786
  938TIP3    H124229   4.882   4.601  15.131  1.0854 -1.5333  0.8163
  938TIP3    H224230   4.770   4.521  15.192  1.3661 -1.6006  1.2483
  939TIP3   OH224231   3.653   2.201  17.282 -0.1975  0.1807  0.5741
  939TIP3    H124232   3.654   2.170  17.372 -1.0945 -0.3876  0.3931
  939TIP3    H224233   3.731   2.162  17.242  1.4153  2.1185  1.6266
  940TIP3   OH224234   6.205   6.741   0.366  0.0404  0.1036  0.4811
  940TIP3    H124235   6.151   6.774   0.438 -0.5068 -1.7587  0.9769
  940TIP3    H224236   6.292   6.728   0.406 -0.1219 -0.4148  0.6702
  941TIP3   OH224237   1.189   5.901   5.378  0.3097  0.1451  0.1017
  941TIP3    H124238   1.162   5.984   5.340  0.3346  0.4931  0.8236
  941TIP3    H224239   1.280   5.916   5.404  0.8963 -0.6819 -1.3720
  942TIP3   OH224240   3.978   6.335   2.947  0.4402 -0.0249  0.2123
  942TIP3    H124241   3.976   6.352   3.041  2.9464  0.3347  0.2703
  942TIP3    H224242   4.036   6.403   2.912 -0.4964 -0.1200 -1.6164
  943TIP3   OH224243   1.656   3.778   4.299 -0.1480 -0.1363  0.3313
  943TIP3    H124244   1.633   3.797   4.208 -0.1246  0.9954  0.5544
  943TIP3    H224245   1.652   3.682   4.305  0.4325 -0.2578 -1.0030
  944TIP3   OH224246   2.711   5.221   2.404 -0.3170 -0.4074  0.0734
  944TIP3    H124247   2.717   5.189   2.495  0.1259 -0.1394  0.1399
  944TIP3    H224248   2.619   5.240   2.392 -0.2896  0.1647  0.6841
  945TIP3   OH224249   4.965   3.562  13.195  1.2697  0.0035  0.4876
  945TIP3    H124250   5.031   3.564  13.125 -0.8368  0.0045 -1.5990
  945TIP3    H224251   5.016   3.572  13.276  4.1093 -2.5687 -0.7895
  946TIP3   OH224252   1.597   6.572   3.366 -0.0044 -0.2848  0.0277
  946TIP3    H124253   1.582   6.572   3.272  1.3397  0.5256 -0.2157
  946TIP3    H224254   1.642   6.489   3.383 -0.2112 -0.4131 -0.0577
  947TIP3   OH224255   5.227   6.186   6.127  0.2873  0.4292 -0.2203
  947TIP3    H124256   5.193   6.273   6.148  0.2449  0.7119 -1.3962
  947TIP3    H224257   5.271   6.197   6.043  2.9379 -0.0225  0.9924
  948TIP3   OH224258   5.931   5.553   2.676  0.1087  0.1823  0.7914
  948TIP3    H124259   5.857   5.610   2.699 -0.6759 -0.5519  0.1398
  948TIP3    H224260   5.904   5.466   2.704  0.6514 -0.1248  0.3806
  949TIP3   OH224261   4.846   0.601  16.112  0.3035  0.1124 -0.0381
  949TIP3    H124262   4.915   0.665  16.127  1.1056 -0.8667  0.5384
  949TIP3    H224263   4.774   0.652  16.073  0.3856  1.6440  1.6713
  950TIP3   OH224264   6.552   0.061   5.393 -0.2577  0.6555  0.5655
  950TIP3    H124265   6.575  -0.027   5.424 -3.0549 -0.2106  0.4916
  950TIP3    H224266   6.607   0.120   5.445 -0.3605 -1.0207  2.7627
  951TIP3   OH224267   3.207   1.376  13.989  0.0753  0.3519 -0.1014
  951TIP3    H124268   3.265   1.300  13.995 -1.3663 -0.7253  1.2407
  951TIP3    H224269   3.203   1.397  13.896  1.0437 -0.8013 -0.4230
  952TIP3   OH224270   5.899   3.715   4.443 -0.2447 -0.1539 -0.2747
  952TIP3    H124271   5.971   3.715   4.507 -1.2187  1.4279  0.8975
  952TIP3    H224272   5.833   3.657   4.481  0.3262 -1.5297 -1.3045
  953TIP3   OH224273   1.221   4.253  11.513 -0.0488 -0.1238 -0.4653
  953TIP3    H124274   1.225   4.163  11.482  2.5499 -0.1459 -0.2699
  953TIP3    H224275   1.312   4.280  11.522 -0.7161  2.6706 -0.9062
  954TIP3   OH224276   2.732   0.129  14.563 -0.4139  0.2786  0.1215
  954TIP3    H124277   2.684   0.073  14.624 -0.0699  1.1734  1.2595
  954TIP3    H224278   2.821   0.130  14.597 -0.5702  2.0914  0.5994
  955TIP3   OH224279   6.737   1.657   1.261 -0.4104 -0.7935  0.0829
  955TIP3    H124280   6.833   1.663   1.256 -0.2830 -2.1629  0.5667
  955TIP3    H224281   6.717   1.676   1.352 -0.6058 -0.4892 -0.0227
  956TIP3   OH224282   1.272   6.399   2.195  0.7113 -0.2231  0.3070
  956TIP3    H124283   1.363   6.425   2.204 -0.6425  4.9573  3.1541
  956TIP3    H224284   1.257   6.338   2.268  1.8655 -1.3555 -0.3685
  957TIP3   OH224285   2.420   0.247  13.501 -0.3198  0.1697 -0.5199
  957TIP3    H124286   2.459   0.255  13.414 -1.1951 -0.1654 -0.9608
  957TIP3    H224287   2.345   0.189  13.488 -1.6078  1.6231  0.0593
  958TIP3   OH224288   0.894   5.914  16.664 -0.3493  0.6452 -0.4095
  958TIP3    H124289   0.987   5.910  16.686  0.1625  2.1737 -2.0669
  958TIP3    H224290   0.849   5.916  16.749  1.2137  1.3776  0.4385
  959TIP3   OH224291   0.405   6.686   5.949  0.7746  0.5206 -0.0514
  959TIP3    H124292   0.327   6.733   5.979  1.1723  0.7783  0.6177
  959TIP3    H224293   0.445   6.653   6.030 -0.6813 -2.9347 -0.5774
  960TIP3   OH224294   5.249   1.026   0.399  0.1853 -0.7909  0.9777
  960TIP3    H124295   5.339   1.059   0.394  0.8522 -2.6598 -0.7107
  960TIP3    H224296   5.257   0.943   0.446 -0.3535 -1.7181 -0.4783
  961TIP3   OH224297   1.591   1.888  11.903  0.2404 -0.0697 -0.2525
  961TIP3    H124298   1.648   1.965  11.898 -0.0970  0.2917  1.1174
  961TIP3    H224299   1.648   1.815  11.878  0.6351  0.5800 -1.3059
  962TIP3   OH224300   6.571   3.709  17.173 -0.2393  0.5497 -0.4844
  962TIP3    H124301   6.598   3.623  17.206  0.4270 -0.5009 -3.4479
  962TIP3    H224302   6.653   3.757  17.161 -0.3374  0.4843 -1.5410
  963TIP3   OH224303   6.033   4.402  15.085 -0.0661  0.3054  0.2590
  963TIP3    H124304   5.968   4.366  15.146 -0.3206  1.5491  0.7513
  963TIP3    H224305   6.100   4.333  15.079  0.2994  0.3838  2.4748
  964TIP3   OH224306   4.995   0.312   2.242 -0.2974  0.3204 -0.5953
  964TIP3    H124307   5.088   0.312   2.218 -0.1134 -0.1856  0.0963
  964TIP3    H224308   4.973   0.220   2.254 -1.2040  0.3421 -1.8787
  965TIP3   OH224309   5.561   5.926  16.645 -0.1235  0.4963  0.0045
  965TIP3    H124310   5.510   5.986  16.698 -1.9975  0.9985 -2.1834
  965TIP3    H224311   5.620   5.982  16.595  1.4258  0.0592  1.2955
  966TIP3   OH224312   3.909   2.404  15.232  0.5583 -0.4196  0.3280
  966TIP3    H124313   3.892   2.317  15.193  1.4017 -0.9302  1.0815
  966TIP3    H224314   3.961   2.450  15.166  0.8437 -0.7972  0.2883
  967TIP3   OH224315   4.170   6.116   0.234 -0.0779  0.0388  0.4081
  967TIP3    H124316   4.136   6.032   0.265 -2.1494  0.2847 -1.0547
  967TIP3    H224317   4.265   6.106   0.237 -0.2798 -2.4057  0.1728
  968TIP3   OH224318   5.465   0.393   3.442 -0.6115 -0.1603  0.5549
  968TIP3    H124319   5.510   0.409   3.359 -1.5373 -0.1489  0.0465
  968TIP3    H224320   5.401   0.326   3.422 -2.6958  1.7056  0.5712
  969TIP3   OH224321   6.516   2.942  11.356  0.2130  0.0671 -0.4631
  969TIP3    H124322   6.609   2.957  11.372  0.0878  0.7253 -0.3348
  969TIP3    H224323   6.510   2.930  11.261  0.7458 -2.3566 -0.2557
  970TIP3   OH224324   3.006   3.216   3.430  0.3157  0.4200  0.5879
  970TIP3    H124325   2.918   3.236   3.462 -0.2847 -0.9585 -0.0874
  970TIP3    H224326   3.001   3.232   3.335  0.6523 -0.0737  0.4791
  971TIP3   OH224327   6.704   3.355   2.319  0.7638 -0.3747 -0.0791
  971TIP3    H124328   6.652   3.428   2.286  0.7326 -1.3295 -2.3057
  971TIP3    H224329   6.731   3.383   2.407  0.1379  1.9782 -0.5615
  972TIP3   OH224330   6.717   4.644   0.133  0.2364 -0.3252 -0.3485
  972TIP3    H124331   6.647   4.580   0.148  0.7192 -0.1805  3.2034
  972TIP3    H224332   6.681   4.727   0.164  1.2663  0.1711 -0.4554
  973TIP3   OH224333   0.138   4.527   4.077  1.1217  0.1637  0.2926
  973TIP3    H124334   0.112   4.619   4.079  3.2268  0.7849  1.8512
  973TIP3    H224335   0.101   4.489   4.156 -2.5947 -1.3061 -1.9007
  974TIP3   OH224336   3.394   1.833  14.101  0.0792  0.1781  0.6954
  974TIP3    H124337   3.323   1.769  14.112  1.5652 -1.3329  2.1042
  974TIP3    H224338   3.352   1.909  14.061 -1.8366 -1.5517 -0.7661
  975TIP3   OH224339   1.980   3.636  14.120  0.1263  0.0241 -0.1483
  975TIP3    H124340   2.032   3.714  14.137 -0.4940  0.2406  0.8164
  975TIP3    H224341   1.990   3.582  14.199 -0.2766 -0.4009 -0.3774
  976TIP3   OH224342   0.087   3.203   1.478  0.2348 -0.3503 -0.4792
  976TIP3    H124343   0.156   3.227   1.540 -1.6275 -1.7050  2.3138
  976TIP3    H224344   0.076   3.280   1.423  3.2353  0.2521 -0.3791
  977TIP3   OH224345   3.795   4.094   1.152  0.5153  0.3352 -0.5103
  977TIP3    H124346   3.873   4.040   1.143  0.6803  0.7711 -1.8784
  977TIP3    H224347   3.727   4.047   1.103 -0.3742 -0.5303  1.4540
  978TIP3   OH224348   0.782   0.437   2.978  0.1115 -0.3815  0.7851
  978TIP3    H124349   0.806   0.422   2.887 -0.6497 -0.1303  0.5307
  978TIP3    H224350   0.719   0.509   2.974 -1.1246 -1.3780  1.3363
  979TIP3   OH224351   0.897   5.765  13.285  0.0081  0.1823  0.6834
  979TIP3    H124352   0.881   5.856  13.311 -0.7619  0.0304  0.7786
  979TIP3    H224353   0.866   5.760  13.195  1.0554  0.2713  0.3035
  980TIP3   OH224354   1.851   3.414  14.297 -0.1411  0.0204 -0.6825
  980TIP3    H124355   1.768   3.392  14.254 -0.2704 -1.7613  0.4005
  980TIP3    H224356   1.827   3.482  14.361 -0.4629  0.5866 -1.3830
  981TIP3   OH224357   4.402   6.503  14.815  0.6875 -0.1412 -0.0387
  981TIP3    H124358   4.453   6.423  14.809 -1.0632 -1.2275 -1.4833
  981TIP3    H224359   4.354   6.495  14.898 -1.1118 -1.6917 -1.1543
  982TIP3   OH224360   5.177   0.013  14.414 -0.2049  0.6289 -0.2432
  982TIP3    H124361   5.225   0.019  14.331  0.6168  0.7706  0.2366
  982TIP3    H224362   5.200  -0.073  14.449 -0.4279  0.6353 -0.0815
  983TIP3   OH224363   4.790   2.198   0.789 -0.4483  0.1033 -0.7093
  983TIP3    H124364   4.784   2.190   0.694  0.4946 -1.3862 -0.6727
  983TIP3    H224365   4.718   2.144   0.822  0.0247 -0.4626 -0.5790
  984TIP3   OH224366   4.258   0.496  11.213  0.4983 -0.1173  0.2129
  984TIP3    H124367   4.248   0.537  11.127  0.9900 -0.0166  0.2013
  984TIP3    H224368   4.169   0.478  11.241  0.3119  0.3041 -0.0989
  985TIP3   OH224369   3.456   0.791  17.004  0.4255  0.7963 -0.3878
  985TIP3    H124370   3.516   0.772  17.076 -0.5068  0.4589  0.3170
  985TIP3    H224371   3.459   0.886  16.995 -0.3433  0.9675  0.9129
  986TIP3   OH224372   3.924   4.247   0.207 -0.4104 -0.1171  0.6238
  986TIP3    H124373   4.009   4.241   0.251 -0.7762 -0.6540  1.2595
  986TIP3    H224374   3.934   4.192   0.129 -0.0110  0.2439  0.4104
  987TIP3   OH224375   3.091   1.245  11.358  0.7460  0.2991 -0.5423
  987TIP3    H124376   3.140   1.275  11.434  1.8186  0.9734 -1.4701
  987TIP3    H224377   3.149   1.182  11.315  0.1822 -0.0181 -0.8615
  988TIP3   OH224378   3.608   2.671   1.999 -0.5951  0.2009 -0.2257
  988TIP3    H124379   3.668   2.726   1.948 -0.6394 -1.2578 -1.9626
  988TIP3    H224380   3.547   2.733   2.039  1.1049  1.5971  0.2904
  989TIP3   OH224381   4.315   1.552   2.666  0.0712  0.7989  0.4211
  989TIP3    H124382   4.363   1.623   2.709  1.5537  1.0073 -1.4554
  989TIP3    H224383   4.382   1.498   2.625 -1.1772 -0.2834 -0.2933
  990TIP3   OH224384   6.604   1.013  11.834 -0.4703  0.0334  0.6897
  990TIP3    H124385   6.533   1.016  11.899 -0.2531  0.3614  0.9142
  990TIP3    H224386   6.584   1.084  11.773  0.4212  1.0553  1.5524
  991TIP3   OH224387   4.592   0.715  17.232  0.1200 -0.3219  0.3642
  991TIP3    H124388   4.574   0.676  17.146  0.4489  3.5359 -1.7244
  991TIP3    H224389   4.594   0.809  17.214 -0.2398  0.7199  4.7720
  992TIP3   OH224390   0.370   3.538  13.659  0.1691  0.2735  0.4186
  992TIP3    H124391   0.335   3.452  13.637  0.0094  0.4969 -0.1919
  992TIP3    H224392   0.407   3.572  13.577  0.1554  0.8251  0.6327
  993TIP3   OH224393   3.851   5.261  15.410  0.7054 -0.0180  0.4082
  993TIP3    H124394   3.823   5.331  15.469 -1.4106  0.0905 -0.5968
  993TIP3    H224395   3.782   5.196  15.417  0.1899  0.1484 -2.1237
  994TIP3   OH224396   2.190   2.350  11.104  0.2132  0.2318 -0.0476
  994TIP3    H124397   2.109   2.300  11.114  0.5835 -0.3438  0.1444
  994TIP3    H224398   2.178   2.428  11.158  0.5147 -0.7545  1.4747
  995TIP3   OH224399   2.260   0.831   0.318  0.4265  0.0325  0.0351
  995TIP3    H124400   2.351   0.803   0.306  0.4157 -0.0088  0.0488
  995TIP3    H224401   2.265   0.926   0.324  0.3673  0.0976 -0.8821
  996TIP3   OH224402   6.347   2.934  17.348 -0.0064  0.0013  0.1565
  996TIP3    H124403   6.372   2.900  17.262  2.1884  0.0762  0.6903
  996TIP3    H224404   6.305   2.861  17.392  1.5159 -0.9748  0.0516
  997TIP3   OH224405   5.584   4.877  13.846 -0.3221  0.2601  0.2232
  997TIP3    H124406   5.630   4.804  13.887 -1.2244 -0.6230 -0.2823
  997TIP3    H224407   5.577   4.852  13.753 -0.9181  0.8373  0.0990
  998TIP3   OH224408   3.660   2.399  13.276 -0.1078  0.4279 -0.0282
  998TIP3    H124409   3.636   2.458  13.347 -2.3882 -0.9520  0.4228
  998TIP3    H224410   3.581   2.389  13.223 -0.0617 -2.6602  0.2623
  999TIP3   OH224411   3.091   3.280  16.817 -0.4527  0.0858 -0.2709
  999TIP3    H124412   3.135   3.195  16.817  0.0711  0.3236  1.4407
  999TIP3    H224413   3.134   3.329  16.747  2.8337  0.6603  1.9227
 1000TIP3   OH224414   3.663   2.794  15.183  0.2282  0.0801  0.4402
 1000TIP3    H124415   3.740   2.741  15.161  1.1289  1.0476  1.1684
 1000TIP3    H224416   3.613   2.739  15.243  0.4851 -0.4638  0.1623
 1001TIP3   OH224417   4.228   6.401   1.012  0.7876  0.6828 -0.0770
 1001TIP3    H124418   4.139   6.436   1.005  0.1539 -0.7783  0.3382
 1001TIP3    H224419   4.265   6.411   0.924  1.2521  3.8650  0.3808
 1002TIP3   OH224420   1.211   0.514   5.977 -0.1196 -0.5559  0.6521
 1002TIP3    H124421   1.166   0.535   6.058  1.1019 -0.8286  1.4211
 1002TIP3    H224422   1.155   0.550   5.908 -0.8606  0.2175  1.6405
 1003TIP3   OH224423   1.174   5.093   0.008  0.3396 -0.2510 -0.1861
 1003TIP3    H124424   1.191   5.185   0.028  2.2579 -0.7951  0.8816
 1003TIP3    H224425   1.123   5.061   0.083  1.2818 -0.4935  0.3672
 1004TIP3   OH224426   5.613   5.154  14.386 -0.2885  0.8956  0.0515
 1004TIP3    H124427   5.635   5.241  14.351 -0.0440  0.8752  0.1519
 1004TIP3    H224428   5.532   5.130  14.341  0.3311  0.6182 -0.9483
 1005TIP3   OH224429   0.964   6.253  15.262  0.4600 -0.1764 -0.3576
 1005TIP3    H124430   0.987   6.173  15.311  1.6254 -0.7794 -1.7852
 1005TIP3    H224431   1.019   6.249  15.184 -0.9851  0.9856 -1.4908
 1006TIP3   OH224432   1.319   6.086  11.392  0.0713  0.0800 -0.0140
 1006TIP3    H124433   1.395   6.047  11.349 -0.1761  1.4230 -1.7820
 1006TIP3    H224434   1.337   6.180  11.392 -1.0061  0.3030  0.7303
 1007TIP3   OH224435   2.987   2.299  16.784 -0.2248 -0.5661 -0.7369
 1007TIP3    H124436   2.898   2.269  16.804 -0.3130  0.2571  0.1986
 1007TIP3    H224437   2.976   2.356  16.708 -0.3567 -1.1661 -1.1798
 1008TIP3   OH224438   6.023   0.527   3.106  0.3508  0.2995 -0.3964
 1008TIP3    H124439   6.098   0.486   3.062 -0.0135 -0.1062 -0.6617
 1008TIP3    H224440   5.962   0.547   3.035 -0.9360 -1.8018  0.0093
 1009TIP3   OH224441   6.553   4.072  15.002  0.0843  0.2160 -0.0225
 1009TIP3    H124442   6.517   4.161  14.999 -0.8002 -0.1020  0.7934
 1009TIP3    H224443   6.629   4.079  15.060  0.2111  0.5002 -0.2187
 1010TIP3   OH224444   2.016   6.323   1.557  0.0853  0.3286  0.5830
 1010TIP3    H124445   2.092   6.272   1.582  1.2030  1.6227 -0.0318
 1010TIP3    H224446   2.005   6.306   1.463 -1.7328 -1.5009  1.0477
 1011TIP3   OH224447   5.311   5.871   5.552  0.5612  0.1093  0.2088
 1011TIP3    H124448   5.292   5.946   5.609 -2.1857 -1.0892  1.0001
 1011TIP3    H224449   5.237   5.812   5.563  1.5201 -1.7156 -2.1443
 1012TIP3   OH224450   6.679   4.137  16.553 -0.0354  0.1327 -0.4782
 1012TIP3    H124451   6.751   4.145  16.615 -1.7002 -0.0573  1.5953
 1012TIP3    H224452   6.648   4.047  16.562 -0.0520 -0.0456 -1.9589
 1013TIP3   OH224453   4.703   5.784  16.824 -0.7964 -0.1643  0.0467
 1013TIP3    H124454   4.659   5.706  16.791  2.0392 -1.3962 -1.2200
 1013TIP3    H224455   4.758   5.752  16.896 -0.4358  0.8933  0.2674
 1014TIP3   OH224456   1.698   5.866  17.341  0.5197 -0.0582 -0.1158
 1014TIP3    H124457   1.653   5.947  17.366 -0.8567 -0.5655 -0.8038
 1014TIP3    H224458   1.692   5.811  17.419  1.1931  0.3791  0.2561
 1015TIP3   OH224459   4.518   3.916   3.401  0.4777 -0.1362 -0.2956
 1015TIP3    H124460   4.496   3.929   3.309 -1.4506  0.7029  0.2243
 1015TIP3    H224461   4.521   4.005   3.437  2.2067 -0.3839  0.2777
 1016TIP3   OH224462   2.987   6.066  16.059 -0.0928  0.1277 -0.1367
 1016TIP3    H124463   3.030   6.140  16.100  1.6900 -0.7754 -0.2731
 1016TIP3    H224464   3.015   6.069  15.968  1.1572 -1.4596  0.1510
 1017TIP3   OH224465   0.392   5.593  11.610 -0.1199  0.5758 -0.1069
 1017TIP3    H124466   0.415   5.652  11.538  0.7463  1.1143  0.5990
 1017TIP3    H224467   0.475   5.573  11.653 -0.1267 -2.4710 -1.2491
 1018TIP3   OH224468   4.830   3.037  13.608  0.2369  0.2678  0.2954
 1018TIP3    H124469   4.796   2.996  13.528 -0.7540 -0.2771  0.9799
 1018TIP3    H224470   4.924   3.023  13.603  0.1535 -0.0435 -0.6236
 1019TIP3   OH224471   3.757   6.299   2.010  0.1923  0.0156  0.2206
 1019TIP3    H124472   3.790   6.221   1.965  1.2783 -0.9485  2.5014
 1019TIP3    H224473   3.835   6.339   2.049 -0.2424  2.7091 -1.4543
 1020TIP3   OH224474   0.709   4.194  11.428 -0.1662  0.5847 -0.6393
 1020TIP3    H124475   0.616   4.191  11.406 -0.4752  1.0158  0.5266
 1020TIP3    H224476   0.718   4.273  11.482  0.6095 -0.2222  0.4464
 1021TIP3   OH224477   3.519   3.746  13.349 -0.3801 -0.0155  0.1155
 1021TIP3    H124478   3.451   3.784  13.404 -0.6144  0.6899 -0.6528
 1021TIP3    H224479   3.591   3.810  13.352 -0.3724  0.0014 -0.3560
 1022TIP3   OH224480   3.152   6.070   3.147  0.6735 -0.2263  0.2909
 1022TIP3    H124481   3.080   6.055   3.209 -0.5851 -0.2549 -1.1043
 1022TIP3    H224482   3.224   6.100   3.201  0.1090 -1.6458  1.9607
 1023TIP3   OH224483   6.200   3.186   4.970 -0.1418  0.1384  0.4557
 1023TIP3    H124484   6.188   3.189   4.875  2.4080  0.3731  0.0696
 1023TIP3    H224485   6.280   3.236   4.986 -0.9622  0.8280  2.8559
 1024TIP3   OH224486   6.067   3.986   3.266  0.0109 -0.2262  0.5214
 1024TIP3    H124487   6.000   3.989   3.334  0.0035  0.2941  0.4970
 1024TIP3    H224488   6.030   4.038   3.195 -0.8293 -2.3064 -0.6795
 1025TIP3   OH224489   1.796   0.974   0.483 -0.5535  0.5413  0.2460
 1025TIP3    H124490   1.781   0.896   0.429 -0.1871 -0.1385  1.0998
 1025TIP3    H224491   1.891   0.989   0.477 -0.1729 -0.7164  2.2216
 1026TIP3   OH224492   4.992   5.283  14.683 -0.0854 -0.4628 -0.3529
 1026TIP3    H124493   5.042   5.364  14.688  1.7217 -1.4988 -0.7662
 1026TIP3    H224494   4.907   5.304  14.722  0.6699  1.3570  0.3935
 1027TIP3   OH224495   5.542   4.632   4.054 -0.1668  0.0534 -0.3844
 1027TIP3    H124496   5.628   4.632   4.095  0.2203 -0.5828 -1.1815
 1027TIP3    H224497   5.503   4.548   4.078 -0.2623  0.0211 -0.6448
 1028TIP3   OH224498   6.770   6.513   6.798 -0.4837  0.0310  0.0175
 1028TIP3    H124499   6.847   6.459   6.780  1.7551  3.3423 -1.1948
 1028TIP3    H224500   6.796   6.602   6.775 -4.5168  1.4752  0.1603
 1029TIP3   OH224501   1.958   3.813  16.013  0.4466 -0.7514 -0.6205
 1029TIP3    H124502   2.017   3.764  16.070  0.2402 -0.9488 -0.5777
 1029TIP3    H224503   1.988   3.792  15.924  0.5603 -0.7015 -0.5945
 1030TIP3   OH224504   4.450   2.349   0.596 -0.0920 -0.0942 -0.3772
 1030TIP3    H124505   4.384   2.410   0.562 -0.0706 -0.7156 -1.6152
 1030TIP3    H224506   4.491   2.313   0.517  1.0358 -0.4659  0.3617
 1031TIP3   OH224507   3.052   6.291  14.838  0.2132 -0.3998 -0.4586
 1031TIP3    H124508   3.039   6.215  14.894 -0.3038  0.4094  0.5713
 1031TIP3    H224509   3.018   6.265  14.753  1.1147 -1.6980 -0.4457
 1032TIP3   OH224510   1.646   3.146  13.438 -0.3136  0.1652  0.1623
 1032TIP3    H124511   1.740   3.132  13.430  0.7135  4.6140  1.4755
 1032TIP3    H224512   1.621   3.189  13.356 -0.4153  1.7873  0.9906
 1033TIP3   OH224513   5.973   0.954   3.249  0.3234  0.2743  0.0407
 1033TIP3    H124514   6.061   0.969   3.282  0.2448  1.7199 -0.3536
 1033TIP3    H224515   5.917   1.008   3.304  0.1420  2.3601 -2.0300
 1034TIP3   OH224516   1.208   6.348   6.736 -0.2156  0.1175  0.4802
 1034TIP3    H124517   1.115   6.349   6.756 -0.1378 -3.5159  1.6746
 1034TIP3    H224518   1.220   6.271   6.680  2.1013  0.4052  0.4882
 1035TIP3   OH224519   6.587   5.370  14.804 -0.5329 -0.2178 -0.3366
 1035TIP3    H124520   6.602   5.300  14.740  0.4311  0.8885 -1.3392
 1035TIP3    H224521   6.667   5.372  14.856 -0.7491 -0.1528 -0.0033
 1036TIP3   OH224522   6.034   6.193  12.667 -0.3084  0.1420 -0.0590
 1036TIP3    H124523   6.049   6.193  12.573  2.5738  1.9933  0.2460
 1036TIP3    H224524   5.961   6.254  12.680 -0.1761  0.5378 -1.0564
 1037TIP3   OH224525   1.065   6.358   3.101  0.3254  0.2771  0.7948
 1037TIP3    H124526   0.986   6.353   3.155 -0.0435 -1.1309  0.1526
 1037TIP3    H224527   1.137   6.357   3.165 -0.1426  1.5740  1.3811
 1038TIP3   OH224528   1.929   0.080   3.843 -0.7528 -0.0658 -0.0159
 1038TIP3    H124529   1.863   0.011   3.850 -0.0928 -0.6701  0.5511
 1038TIP3    H224530   1.951   0.100   3.934 -0.7525  0.7194 -0.1855
 1039TIP3   OH224531   5.014   2.518  15.226  0.0451  0.3087 -0.8217
 1039TIP3    H124532   4.958   2.585  15.186  0.3413  1.1781  0.1781
 1039TIP3    H224533   4.960   2.477  15.293 -0.0695 -0.3262 -1.2967
 1040TIP3   OH224534   3.244   3.037   4.239 -0.0191  0.1268 -0.5653
 1040TIP3    H124535   3.311   2.969   4.232 -0.0521 -0.4357  2.9616
 1040TIP3    H224536   3.278   3.109   4.185  1.8656 -1.2979 -1.3945
 1041TIP3   OH224537   3.461   6.744   6.217  0.7945  0.4932 -0.2015
 1041TIP3    H124538   3.472   6.685   6.142 -1.7685 -0.7825  0.3437
 1041TIP3    H224539   3.520   6.709   6.284  2.4404  1.1275 -1.2282
 1042TIP3   OH224540   6.401   5.241  17.137  0.2824  0.4343 -0.3353
 1042TIP3    H124541   6.351   5.319  17.113 -0.7769 -0.5163 -1.3807
 1042TIP3    H224542   6.408   5.191  17.055 -1.3844 -1.8001  0.7609
 1043TIP3   OH224543   5.222   6.599   4.670  0.0179 -0.3581  0.3389
 1043TIP3    H124544   5.285   6.546   4.622 -0.9223 -2.5201  1.3354
 1043TIP3    H224545   5.252   6.597   4.760 -0.5521  0.0024  0.5423
 1044TIP3   OH224546   0.043   0.275   2.289  0.0572 -0.1131  0.3367
 1044TIP3    H124547   0.134   0.246   2.295  0.1507 -0.1190 -0.9057
 1044TIP3    H224548   0.047   0.370   2.295  0.3113 -0.0064 -1.2604
 1045TIP3   OH224549   0.241   0.248  13.600  0.0494  0.2914  0.2984
 1045TIP3    H124550   0.297   0.310  13.554  2.0128  0.0576  2.2330
 1045TIP3    H224551   0.257   0.265  13.693 -2.8211 -0.0755  0.9561
 1046TIP3   OH224552   5.021   4.102   2.601  0.2410 -0.3277  0.6593
 1046TIP3    H124553   5.093   4.039   2.596  0.9704  0.2922  2.3881
 1046TIP3    H224554   5.061   4.186   2.581 -0.3149 -0.1447  0.2788
 1047TIP3   OH224555   3.782   2.391   0.649 -0.5337  0.0960 -0.9440
 1047TIP3    H124556   3.715   2.407   0.716  1.7855  2.1553  1.0955
 1047TIP3    H224557   3.834   2.319   0.684  0.1677  0.5882 -0.9690
 1048TIP3   OH224558   4.253   1.989   0.416 -0.4101 -0.3076  0.9334
 1048TIP3    H124559   4.231   2.048   0.489 -2.5105 -1.2869  1.1776
 1048TIP3    H224560   4.285   2.047   0.347 -1.5524  1.0381  1.4760
 1049TIP3   OH224561   0.630   3.528   0.162  0.3102 -0.2112  0.0731
 1049TIP3    H124562   0.641   3.623   0.168 -2.9796  0.4195 -1.5706
 1049TIP3    H224563   0.556   3.508   0.219  0.5124 -1.7033 -0.1432
 1050TIP3   OH224564   5.961   4.983  13.858 -0.1234  0.2420  0.1983
 1050TIP3    H124565   6.031   4.967  13.921 -1.2428 -0.0682  1.4157
 1050TIP3    H224566   5.894   4.917  13.879 -1.2229  1.1768 -0.2322
 1051TIP3   OH224567   6.714   5.049  12.578  0.3536  0.0388  0.1583
 1051TIP3    H124568   6.653   5.119  12.553  1.7529  1.2778  0.0780
 1051TIP3    H224569   6.675   4.970  12.542 -0.4307  1.0115 -1.2231
 1052TIP3   OH224570   0.041   5.678   3.348 -0.1881  0.7563 -0.1273
 1052TIP3    H124571  -0.034   5.737   3.358 -1.7479 -1.0731 -0.3656
 1052TIP3    H224572   0.062   5.681   3.254 -1.0553  0.0660 -0.3582
 1053TIP3   OH224573   0.887   4.816   2.177  0.0243 -0.1518 -0.6940
 1053TIP3    H124574   0.799   4.801   2.145 -0.4607 -1.5029  1.1110
 1053TIP3    H224575   0.881   4.804   2.272  1.3644  3.5288  0.0179
 1054TIP3   OH224576   1.945   0.507  13.513 -0.5604 -0.4049 -0.5241
 1054TIP3    H124577   2.034   0.500  13.479 -0.7392  0.2929 -1.1473
 1054TIP3    H224578   1.904   0.575  13.460 -1.1248  0.0720  0.4993
 1055TIP3   OH224579   2.852   5.577  11.379  0.0368 -0.2120  0.5134
 1055TIP3    H124580   2.871   5.600  11.289 -1.0218 -1.1688  0.0226
 1055TIP3    H224581   2.887   5.488  11.389 -0.5288 -0.4099  0.7961
 1056TIP3   OH224582   5.866   1.328  15.454 -0.0480  0.2870  0.7220
 1056TIP3    H124583   5.780   1.363  15.430 -0.6213 -0.7312  1.2209
 1056TIP3    H224584   5.917   1.330  15.373 -0.8214  0.1032  0.2232
 1057TIP3   OH224585   6.622   5.096  10.772 -0.1891 -0.0884  0.4862
 1057TIP3    H124586   6.547   5.041  10.748  0.5573 -0.9992  0.2087
 1057TIP3    H224587   6.595   5.138  10.854  0.0612 -2.5856  1.9515
 1058TIP3   OH224588   4.175   6.686   3.497  0.0732 -0.8820  0.2125
 1058TIP3    H124589   4.215   6.599   3.502  1.1577 -0.4248 -0.1541
 1058TIP3    H224590   4.096   6.679   3.550  0.6783 -1.8062  1.0269
 1059TIP3   OH224591   6.410   4.936  13.611 -0.0495 -0.8204 -0.3189
 1059TIP3    H124592   6.422   5.029  13.594  1.3851 -0.5755  1.6643
 1059TIP3    H224593   6.316   4.921  13.601 -0.1374  0.5297 -1.9325
 1060TIP3   OH224594   3.659   2.173   0.171  0.4201 -0.0766 -0.0156
 1060TIP3    H124595   3.579   2.172   0.224 -0.3237  1.8714 -0.9947
 1060TIP3    H224596   3.703   2.254   0.194  1.3569 -0.4118 -0.5699
 1061TIP3   OH224597   5.383   4.356  10.606  0.4226  0.0269 -0.4692
 1061TIP3    H124598   5.417   4.402  10.682  2.6878 -0.1541 -1.3018
 1061TIP3    H224599   5.298   4.398  10.588 -0.0081  0.2809  1.9034
 1062TIP3   OH224600   6.764   0.822   2.234 -0.8506  0.0991  0.1543
 1062TIP3    H124601   6.681   0.810   2.188 -0.3034  0.3224 -0.9242
 1062TIP3    H224602   6.831   0.795   2.171 -0.0758  0.3946  0.8263
 1063TIP3   OH224603   5.803   1.207  12.866 -0.1526  0.5091  0.9287
 1063TIP3    H124604   5.827   1.299  12.874  1.1322  0.1236  1.8433
 1063TIP3    H224605   5.838   1.166  12.945 -1.4744 -0.6209  0.9692
 1064TIP3   OH224606   1.049   0.738  13.319  0.4222  0.4276 -0.0310
 1064TIP3    H124607   1.023   0.669  13.380 -0.8568  1.8285  1.1027
 1064TIP3    H224608   1.001   0.719  13.239  0.7881 -0.4855 -0.0412
 1065TIP3   OH224609   2.882   0.480  15.081  0.2756  0.5919 -0.0805
 1065TIP3    H124610   2.838   0.415  15.026  1.8729  0.5042 -1.3346
 1065TIP3    H224611   2.870   0.563  15.034  2.8522  0.3023 -1.4304
 1066TIP3   OH224612   5.001   5.371   5.312 -0.2826 -0.6955  0.4645
 1066TIP3    H124613   4.927   5.416   5.272 -0.7139 -2.4903 -0.8667
 1066TIP3    H224614   5.078   5.412   5.273 -0.6415 -0.6129 -0.1725
 1067TIP3   OH224615   3.381   5.709   3.850 -0.3074  0.2279 -0.3808
 1067TIP3    H124616   3.297   5.677   3.883 -0.1946  0.0597 -0.2577
 1067TIP3    H224617   3.429   5.630   3.826 -0.7763  0.3802 -1.9173
 1068TIP3   OH224618   3.916   6.596   5.690  0.4022  0.6030 -0.0114
 1068TIP3    H124619   3.999   6.631   5.723  0.9265 -0.1248 -0.5531
 1068TIP3    H224620   3.881   6.667   5.635  1.9884 -0.0670 -1.9952
 1069TIP3   OH224621   0.730   1.941  13.041 -0.1146  0.6390 -0.2891
 1069TIP3    H124622   0.691   1.919  12.956 -0.2131  0.3359 -0.1658
 1069TIP3    H224623   0.792   1.871  13.058  0.1615  0.8874 -0.2739
 1070TIP3   OH224624   5.855   4.144   3.716  0.5632  0.0210 -0.1810
 1070TIP3    H124625   5.821   4.223   3.758  1.7011 -0.0036  0.8456
 1070TIP3    H224626   5.782   4.082   3.719  0.1335  0.5419  0.3727
 1071TIP3   OH224627   5.499   0.293   0.945  0.4399 -0.0923 -0.1159
 1071TIP3    H124628   5.432   0.351   0.981 -1.1554 -1.8777 -0.0422
 1071TIP3    H224629   5.574   0.350   0.927 -1.7139  2.3816 -1.9669
 1072TIP3   OH224630   0.197   2.762  13.173  0.1486  0.2678  0.2342
 1072TIP3    H124631   0.216   2.668  13.173 -0.0627  0.2251  0.8355
 1072TIP3    H224632   0.138   2.773  13.099 -1.8279 -0.4951  1.6222
 1073TIP3   OH224633   0.774   6.528   2.874 -0.7066  0.0526  0.4094
 1073TIP3    H124634   0.784   6.479   2.956  0.1518  0.8440  0.8020
 1073TIP3    H224635   0.682   6.556   2.874 -0.3519  1.4068  1.9303
 1074TIP3   OH224636   5.480   4.448  14.464 -0.1077  0.1144  0.3635
 1074TIP3    H124637   5.449   4.535  14.438 -0.5700  0.1440  0.9921
 1074TIP3    H224638   5.558   4.434  14.411 -2.3059 -0.8885 -2.9056
 1075TIP3   OH224639   4.618   2.286  14.399 -0.2143 -0.3603 -0.6465
 1075TIP3    H124640   4.530   2.246  14.399 -0.8242  0.9252  0.5564
 1075TIP3    H224641   4.611   2.357  14.335  0.1095 -0.5624 -0.9088
 1076TIP3   OH224642   2.213   3.673  14.884 -0.1307 -0.5973  0.1041
 1076TIP3    H124643   2.253   3.628  14.959  0.7384 -0.1275 -0.0620
 1076TIP3    H224644   2.137   3.718  14.920 -2.4537 -3.9822 -0.1045
 1077TIP3   OH224645   3.874   2.053  13.761  0.2266 -0.0257  0.0443
 1077TIP3    H124646   3.873   1.988  13.691 -0.7440  0.2998 -0.2542
 1077TIP3    H224647   3.858   2.003  13.841 -0.1929 -0.1976 -0.1464
 1078TIP3   OH224648   2.263   4.190  13.056 -0.2239  0.1720  0.3763
 1078TIP3    H124649   2.215   4.125  13.006  0.6894 -0.4334  0.2668
 1078TIP3    H224650   2.310   4.241  12.990  1.9147 -1.3639  0.6032
 1079TIP3   OH224651   1.216   3.133   1.403  0.1038  0.6875  0.8238
 1079TIP3    H124652   1.160   3.143   1.326  1.3136 -3.5987 -0.8682
 1079TIP3    H224653   1.159   3.097   1.470  0.3961 -2.7771 -0.6019
 1080TIP3   OH224654   2.071   2.754   0.211  0.3884  0.6141 -0.1301
 1080TIP3    H124655   2.077   2.666   0.175  3.1586  0.4765  0.4847
 1080TIP3    H224656   2.020   2.744   0.292  1.2291 -0.5699  0.2766
 1081TIP3   OH224657   3.351   0.269   0.887 -0.4446 -0.0026 -0.7769
 1081TIP3    H124658   3.425   0.329   0.890 -1.3681  1.1082  1.2495
 1081TIP3    H224659   3.281   0.314   0.933 -1.9032 -1.6920 -1.2328
 1082TIP3   OH224660   4.745   3.918  15.857  0.4938 -0.1210  0.0300
 1082TIP3    H124661   4.825   3.905  15.805  0.6384 -1.5388  0.5459
 1082TIP3    H224662   4.676   3.881  15.802  0.3830 -0.0155  0.1013
 1083TIP3   OH224663   6.241   2.289   1.151 -0.4377  0.2037  0.1021
 1083TIP3    H124664   6.311   2.352   1.168 -2.5103  2.0040  2.9669
 1083TIP3    H224665   6.177   2.337   1.099 -0.2687 -0.9208 -1.1938
 1084TIP3   OH224666   6.687   4.308   1.265  0.2263 -0.3504  0.2012
 1084TIP3    H124667   6.762   4.364   1.249  0.6937  0.0025  3.0101
 1084TIP3    H224668   6.683   4.301   1.361 -2.4989 -1.4718  0.0965
 1085TIP3   OH224669   6.660   1.546   0.084  0.0971 -0.1382 -0.0285
 1085TIP3    H124670   6.611   1.497   0.019  1.4620 -1.3666 -0.1747
 1085TIP3    H224671   6.745   1.502   0.089  0.6838  1.0499  1.2433
 1086TIP3   OH224672   1.455   4.993   2.970 -0.0657  0.0348  0.4613
 1086TIP3    H124673   1.368   5.026   2.947  1.1639  2.6206 -0.7629
 1086TIP3    H224674   1.459   4.907   2.927 -2.6298 -1.0773  2.1166
 1087TIP3   OH224675   3.181   5.883  11.427 -0.3165  0.5205 -0.1675
 1087TIP3    H124676   3.166   5.826  11.351 -0.9029  0.1884  0.1947
 1087TIP3    H224677   3.214   5.824  11.494  2.8802  1.2106 -0.9461
 1088TIP3   OH224678   2.657   1.706   1.876 -0.2077  0.1845 -0.0053
 1088TIP3    H124679   2.662   1.619   1.915 -1.1432  0.0474 -0.1816
 1088TIP3    H224680   2.563   1.723   1.865 -0.0107  0.7387 -1.0219
 1089TIP3   OH224681   4.776   4.681   4.598  0.4426  0.7641  0.1821
 1089TIP3    H124682   4.740   4.600   4.636  0.7427 -0.0778 -1.2290
 1089TIP3    H224683   4.836   4.650   4.530  1.6565  2.1869  0.5745
 1090TIP3   OH224684   1.158   2.060  16.805 -0.1815 -0.3884 -0.6754
 1090TIP3    H124685   1.085   2.066  16.866  1.2298 -0.2408  1.0880
 1090TIP3    H224686   1.191   1.970  16.816  0.4588 -0.1705 -0.7330
 1091TIP3   OH224687   1.241   3.764  12.213  0.2289 -0.6401 -0.3949
 1091TIP3    H124688   1.221   3.696  12.149  0.9280 -0.8988 -0.3447
 1091TIP3    H224689   1.181   3.835  12.192  1.5421 -0.0390 -2.4346
 1092TIP3   OH224690   3.822   5.899  15.880 -0.1449  0.3849  0.1584
 1092TIP3    H124691   3.741   5.895  15.931  0.0959  1.3571  0.6481
 1092TIP3    H224692   3.793   5.894  15.789 -0.6748 -0.2258  0.3513
 1093TIP3   OH224693   4.042   4.777  11.385  0.1533  0.1360  0.1283
 1093TIP3    H124694   4.089   4.717  11.327 -1.0743  0.3567 -1.1448
 1093TIP3    H224695   4.042   4.732  11.470  1.0405 -0.6970 -0.2872
 1094TIP3   OH224696   3.518   2.988   5.712  0.6755  0.1959  0.2355
 1094TIP3    H124697   3.581   3.008   5.643 -1.0288 -0.5195 -1.6435
 1094TIP3    H224698   3.510   3.069   5.762  0.6164  1.3808 -1.5875
 1095TIP3   OH224699   2.949   6.444   2.265 -0.0735  0.4282 -0.1726
 1095TIP3    H124700   3.023   6.405   2.218 -1.6975 -0.5385 -2.0666
 1095TIP3    H224701   2.899   6.369   2.297 -1.0283  1.0279 -0.2155
 1096TIP3   OH224702   1.271   5.922  16.452 -0.3607  0.3723 -0.3357
 1096TIP3    H124703   1.332   5.853  16.426 -0.7599 -0.6046  1.1885
 1096TIP3    H224704   1.218   5.938  16.374 -2.0198 -2.9450 -0.0484
 1097TIP3   OH224705   3.314   3.304  12.090 -0.2049  0.2890  0.4269
 1097TIP3    H124706   3.389   3.350  12.129 -0.5398  0.5779  0.7338
 1097TIP3    H224707   3.334   3.211  12.099  1.1023  0.3315 -1.3479
 1098TIP3   OH224708   0.878   0.689  15.733  0.4533  0.2108 -0.5151
 1098TIP3    H124709   0.868   0.703  15.827  0.1780 -0.0441 -0.5043
 1098TIP3    H224710   0.793   0.712  15.696 -0.3115 -2.1151 -0.4099
 1099TIP3   OH224711   1.321   5.856  16.989 -0.1437  0.2955  0.4746
 1099TIP3    H124712   1.261   5.812  17.050  1.5697 -1.8877  0.7107
 1099TIP3    H224713   1.408   5.836  17.023  0.7997  2.9903 -0.1051
 1100TIP3   OH224714   1.273   5.638   0.839  0.1058 -0.0916 -0.4349
 1100TIP3    H124715   1.218   5.560   0.849  0.6971 -0.6284 -1.2904
 1100TIP3    H224716   1.319   5.645   0.923 -0.0928 -0.5498 -0.2843
 1101TIP3   OH224717   4.926   0.297  16.516  0.6058 -0.3841  0.5619
 1101TIP3    H124718   4.916   0.210  16.476  0.3138  0.1167 -0.4807
 1101TIP3    H224719   4.964   0.351  16.446 -0.8627  0.7687  0.6113
 1102TIP3   OH224720   3.472   5.060  14.706  0.2466 -0.5072  0.3678
 1102TIP3    H124721   3.449   5.074  14.798 -1.7814 -0.9313 -0.0283
 1102TIP3    H224722   3.389   5.037  14.664  0.5604  2.2706 -2.1025
 1103TIP3   OH224723   2.548   5.669   5.780 -0.0266 -0.3477  0.6872
 1103TIP3    H124724   2.522   5.672   5.688  0.6675 -0.9974  0.4584
 1103TIP3    H224725   2.481   5.615   5.822 -1.2213  1.2194  0.8947
 1104TIP3   OH224726   5.010   2.931   4.142 -0.3153 -0.7383  0.4732
 1104TIP3    H124727   5.093   2.883   4.140 -0.4182 -0.9023  0.0400
 1104TIP3    H224728   5.034   3.021   4.122  0.0589 -0.3148  2.5632
 1105TIP3   OH224729   2.284   3.794  12.859 -0.1182 -0.3749 -0.1527
 1105TIP3    H124730   2.345   3.858  12.896 -0.9315  0.1722  0.2750
 1105TIP3    H224731   2.338   3.717  12.840  1.5144  1.3777 -3.4132
 1106TIP3   OH224732   6.391   2.237   1.380 -0.3282 -0.0057  0.4931
 1106TIP3    H124733   6.467   2.180   1.370 -0.5896 -0.3721  0.5635
 1106TIP3    H224734   6.358   2.251   1.291  0.5262  1.1456  0.3262
 1107TIP3   OH224735   6.582   1.856   3.913  0.2235  0.3244  0.0033
 1107TIP3    H124736   6.589   1.828   3.822 -1.8880  0.0949 -0.1375
 1107TIP3    H224737   6.518   1.796   3.952 -0.9383  2.0480  0.9113
 1108TIP3   OH224738   3.414   0.923   4.308  0.5184  0.7222  0.1434
 1108TIP3    H124739   3.421   1.018   4.307  1.6116  0.7359  2.4795
 1108TIP3    H224740   3.497   0.892   4.271  0.2815  0.6599 -0.3473
 1109TIP3   OH224741   4.012   6.032  12.548 -0.1758 -0.5205 -0.0180
 1109TIP3    H124742   4.047   6.043  12.637  1.2019  0.8664 -0.6896
 1109TIP3    H224743   3.979   6.118  12.524 -0.5336 -0.8820 -0.8566
 1110TIP3   OH224744   1.459   6.430   3.790 -0.3229  0.8581 -0.1113
 1110TIP3    H124745   1.487   6.417   3.699  0.6063 -1.1032  0.4082
 1110TIP3    H224746   1.367   6.401   3.791 -0.4073  1.1027 -0.4643
 1111TIP3   OH224747   2.732   4.655   4.627 -0.3512  0.0824  0.2961
 1111TIP3    H124748   2.716   4.647   4.533  0.1585  0.1448  0.2005
 1111TIP3    H224749   2.673   4.725   4.656 -1.8580 -1.1678  0.3729
 1112TIP3   OH224750   6.362   0.642   4.986  0.8789  0.1479  0.2356
 1112TIP3    H124751   6.289   0.664   5.044  0.7174  0.5636 -0.1219
 1112TIP3    H224752   6.356   0.547   4.975  0.6215  0.1294  0.5103
 1113TIP3   OH224753   1.773   6.717   1.201  0.2973 -0.0577 -0.2202
 1113TIP3    H124754   1.772   6.806   1.164 -1.0834  0.8512  1.8035
 1113TIP3    H224755   1.682   6.690   1.200  0.5654 -1.0086  0.2046
 1114TIP3   OH224756   4.084   0.063   0.423  0.6370  0.1862 -0.1711
 1114TIP3    H124757   4.003   0.104   0.394  0.8149  0.9801  0.3989
 1114TIP3    H224758   4.057  -0.005   0.484  0.3705  0.0678 -0.4234
 1115TIP3   OH224759   3.640   5.419  15.547 -0.3233 -0.3191 -0.2482
 1115TIP3    H124760   3.635   5.346  15.608  1.6135  0.1184  0.5009
 1115TIP3    H224761   3.575   5.399  15.480  0.4743 -2.9739 -0.3130
 1116TIP3   OH224762   3.663   1.035  16.601  0.2553 -0.7069  0.4045
 1116TIP3    H124763   3.685   1.056  16.510 -0.3038 -1.6817  0.0268
 1116TIP3    H224764   3.688   1.113  16.651  0.2466 -0.0274 -0.6315
 1117TIP3   OH224765   3.843   0.018   5.525  0.0008 -0.1706 -0.1995
 1117TIP3    H124766   3.816   0.110   5.528  0.6271  0.0644 -1.0931
 1117TIP3    H224767   3.820  -0.010   5.436 -2.3396 -1.5919  0.7849
 1118TIP3   OH224768   0.206   6.363  14.470 -0.5405 -0.3417  0.7837
 1118TIP3    H124769   0.157   6.407  14.400 -1.2313  0.4642  1.7433
 1118TIP3    H224770   0.183   6.271  14.461  0.0354 -0.3809 -0.5596
 1119TIP3   OH224771   0.454   0.300   0.310  0.7433  0.2041  0.1114
 1119TIP3    H124772   0.418   0.386   0.288 -0.3141 -0.1536  0.3777
 1119TIP3    H224773   0.408   0.274   0.390 -0.5730 -1.5272 -1.1035
 1120TIP3   OH224774   3.400   1.208  14.707  0.4562 -0.2034  0.3734
 1120TIP3    H124775   3.453   1.286  14.691  0.4622 -0.1174  0.8025
 1120TIP3    H224776   3.352   1.195  14.625  0.8349 -0.0483  0.1207
 1121TIP3   OH224777   1.714   0.257   2.203 -0.5058 -0.0557 -0.3210
 1121TIP3    H124778   1.740   0.340   2.243 -1.7595  0.5408 -0.6851
 1121TIP3    H224779   1.749   0.190   2.261  0.8666  0.7059 -0.2214
 1122TIP3   OH224780   6.022   4.182   4.245 -0.7262 -0.0232 -0.5656
 1122TIP3    H124781   6.078   4.260   4.252 -1.9555  0.9585 -1.2210
 1122TIP3    H224782   6.055   4.123   4.312 -0.1576  1.3271  0.3952
 1123TIP3   OH224783   1.715   6.352   5.607  0.3334  0.2456  0.0582
 1123TIP3    H124784   1.632   6.305   5.612 -0.6070  1.9419  1.5328
 1123TIP3    H224785   1.781   6.283   5.595 -1.0489 -1.3807  1.3138
 1124TIP3   OH224786   6.510   2.443   4.543  0.2622 -0.6414  0.1618
 1124TIP3    H124787   6.551   2.502   4.480  3.8234 -3.5949 -0.6520
 1124TIP3    H224788   6.496   2.497   4.621  0.2757  1.9625 -1.5071
 1125TIP3   OH224789   2.537   6.418  16.436 -0.2982 -0.5683 -0.0779
 1125TIP3    H124790   2.545   6.493  16.376  1.1092 -0.0778  0.6680
 1125TIP3    H224791   2.446   6.422  16.467 -0.0246  1.4536  0.6740
 1126TIP3   OH224792   5.296   0.535  15.268  0.2606  0.4403  0.3119
 1126TIP3    H124793   5.387   0.561  15.285  0.5985 -0.5296  0.0362
 1126TIP3    H224794   5.295   0.513  15.174 -0.4280  1.1029  0.1576
 1127TIP3   OH224795   6.340   6.484   0.141 -0.0308 -0.1206  0.2375
 1127TIP3    H124796   6.388   6.423   0.085 -0.7263 -1.0221  0.6057
 1127TIP3    H224797   6.272   6.521   0.085 -0.4575 -0.7034  0.3646
 1128TIP3   OH224798   0.542   2.364  14.231  0.0806 -0.3876  0.2182
 1128TIP3    H124799   0.469   2.425  14.220  0.3379 -0.0389  0.4099
 1128TIP3    H224800   0.562   2.333  14.142  0.1783  0.0833  0.0718
 1129TIP3   OH224801   4.821   5.521  15.861 -0.2757  0.0979  0.0113
 1129TIP3    H124802   4.893   5.558  15.912 -0.1021  0.1052 -0.2390
 1129TIP3    H224803   4.813   5.431  15.891  1.9809 -0.9476 -2.2345
 1130TIP3   OH224804   4.716   2.974  10.974  0.0248 -0.3094  0.2580
 1130TIP3    H124805   4.695   2.886  10.942  1.1061 -0.7791  0.7670
 1130TIP3    H224806   4.641   2.999  11.027 -0.3722 -0.8489 -0.0417
 1131TIP3   OH224807   6.417   1.453  13.941  0.2330  0.0517  0.1752
 1131TIP3    H124808   6.344   1.464  14.003 -0.4954  1.4095 -0.8702
 1131TIP3    H224809   6.464   1.537  13.944  0.9869 -0.3492 -0.1298
 1132TIP3   OH224810   5.636   6.043   2.679 -0.6859  0.3658 -0.1229
 1132TIP3    H124811   5.614   6.120   2.627 -1.0214  0.0754 -0.4218
 1132TIP3    H224812   5.720   6.064   2.720 -1.1079  1.1540  0.3485
 1133TIP3   OH224813   2.811   6.136   1.825 -0.8943 -0.5173  0.0945
 1133TIP3    H124814   2.872   6.145   1.898 -0.0939  1.6075 -0.7591
 1133TIP3    H224815   2.845   6.061   1.775  0.6930  0.2309 -0.0211
 1134TIP3   OH224816   2.128   5.969   0.407  0.4165  0.2145 -0.4333
 1134TIP3    H124817   2.193   5.986   0.474 -0.3470  0.3067  0.2983
 1134TIP3    H224818   2.045   5.998   0.445 -0.4255 -1.9841 -0.4457
 1135TIP3   OH224819   1.988   4.069   6.183 -0.5221 -0.6323 -0.1292
 1135TIP3    H124820   2.029   3.984   6.171  0.8984 -0.0863  0.6441
 1135TIP3    H224821   1.901   4.049   6.219 -0.9330 -1.7930 -1.6502
 1136TIP3   OH224822   3.751   6.716  13.806  0.1062  0.5094  0.2565
 1136TIP3    H124823   3.801   6.652  13.754 -1.2410  0.4309 -1.0095
 1136TIP3    H224824   3.816   6.755  13.864  1.0789 -1.5846  0.6589
 1137TIP3   OH224825   0.905   6.268   1.409 -0.1948  0.1522  0.1816
 1137TIP3    H124826   0.962   6.195   1.434  0.1264  0.6889  1.0503
 1137TIP3    H224827   0.841   6.274   1.480  0.3366  1.2907  0.5953
 1138TIP3   OH224828   3.811   0.778  14.388 -0.1511  0.2560 -0.3700
 1138TIP3    H124829   3.723   0.795  14.421  0.6752  1.2345  1.4657
 1138TIP3    H224830   3.806   0.689  14.352 -1.4629 -0.3847  1.2731
 1139TIP3   OH224831   5.400   5.521   0.764 -0.5154 -0.1497 -0.2660
 1139TIP3    H124832   5.400   5.502   0.857  0.6700 -0.5541 -0.3303
 1139TIP3    H224833   5.469   5.587   0.753 -0.9679  0.2536 -0.7943
 1140TIP3   OH224834   1.356   5.255  13.711 -0.4564 -0.5116 -0.6047
 1140TIP3    H124835   1.288   5.290  13.769  0.4407  0.7818 -0.3009
 1140TIP3    H224836   1.438   5.280  13.752  0.2007 -0.5228 -1.8743
 1141TIP3   OH224837   3.615   4.976  14.077 -0.1170 -0.2011  0.4931
 1141TIP3    H124838   3.557   4.986  14.001 -2.0784  0.7055  2.0272
 1141TIP3    H224839   3.632   4.882  14.082 -0.7589 -0.3829 -0.5019
 1142TIP3   OH224840   3.956   5.663   5.627 -0.2158 -0.1835 -0.5814
 1142TIP3    H124841   4.040   5.623   5.651 -1.2723 -1.2349  1.6868
 1142TIP3    H224842   3.966   5.756   5.649  0.6233 -0.1392 -1.1302
 1143TIP3   OH224843   2.779   3.909   1.478 -0.2819 -0.0284  0.1995
 1143TIP3    H124844   2.800   3.961   1.400 -0.1629  1.7848  1.3872
 1143TIP3    H224845   2.769   3.973   1.548 -0.4155 -1.6051  1.6989
 1144TIP3   OH224846   1.185   2.599  14.982 -0.0869  0.7967 -0.0322
 1144TIP3    H124847   1.160   2.577  14.892  1.0231  0.2784 -0.2387
 1144TIP3    H224848   1.105   2.588  15.033 -0.7040  0.9785 -0.9348
 1145TIP3   OH224849   2.419   3.945  14.637  0.3201  0.1115 -0.3404
 1145TIP3    H124850   2.453   3.857  14.656  1.9711  1.2911  2.9940
 1145TIP3    H224851   2.336   3.948  14.684  0.7261  0.5760  0.3752
 1146TIP3   OH224852   3.287   1.680  15.564 -0.4324  0.1123 -0.4357
 1146TIP3    H124853   3.256   1.607  15.618 -0.0196 -1.1694 -1.8780
 1146TIP3    H224854   3.207   1.727  15.540 -1.0335 -1.5081 -1.7764
 1147TIP3   OH224855   5.273   0.150   0.154  0.2484 -0.2603  0.1326
 1147TIP3    H124856   5.368   0.154   0.156  0.2543  1.4237 -1.0192
 1147TIP3    H224857   5.251   0.069   0.200  2.1094  0.4412  2.4589
 1148TIP3   OH224858   2.765   0.246   1.606 -0.2614 -0.0391  0.7044
 1148TIP3    H124859   2.682   0.208   1.578 -0.2192 -0.9464  1.7558
 1148TIP3    H224860   2.741   0.333   1.639 -0.4087  0.7365 -1.3481
 1149TIP3   OH224861   0.318   2.471   0.809  0.0660  0.2056  0.5600
 1149TIP3    H124862   0.367   2.419   0.745  1.4115 -0.2923  1.9191
 1149TIP3    H224863   0.325   2.561   0.778 -1.8976 -0.2925 -1.5822
 1150TIP3   OH224864   3.013   5.579   1.752 -0.7596 -0.0324  0.0607
 1150TIP3    H124865   2.925   5.543   1.741 -1.2828  1.5527 -1.2894
 1150TIP3    H224866   3.052   5.525   1.821 -1.4652 -3.1641 -1.7947
 1151TIP3   OH224867   5.750   4.382   2.847  0.3243 -0.5023 -0.1267
 1151TIP3    H124868   5.698   4.439   2.790  1.8867  1.4613  0.3038
 1151TIP3    H224869   5.687   4.320   2.883 -0.8252 -1.5721 -3.5972
 1152TIP3   OH224870   3.396   0.971  16.516  0.4217 -0.0228 -0.3337
 1152TIP3    H124871   3.409   1.065  16.502  1.4512 -0.0477  0.4186
 1152TIP3    H224872   3.471   0.943  16.568 -0.4230 -1.0558  0.3755
 1153TIP3   OH224873   1.420   6.296   5.261 -0.0339 -0.4372 -0.2973
 1153TIP3    H124874   1.494   6.356   5.268 -0.3709  0.2847 -2.3268
 1153TIP3    H224875   1.460   6.209   5.252  0.4896 -0.3102  0.6278
 1154TIP3   OH224876   0.235   1.001  16.349  0.0584 -0.2600  0.2764
 1154TIP3    H124877   0.259   0.967  16.263  0.4980  2.6163 -0.8272
 1154TIP3    H224878   0.315   1.041  16.383 -1.1642  2.7605 -0.1087
 1155TIP3   OH224879   0.757   4.775  16.515 -0.9973 -0.1497  0.2518
 1155TIP3    H124880   0.667   4.766  16.547 -1.1032 -0.7410 -0.1832
 1155TIP3    H224881   0.746   4.798  16.422 -0.7008 -0.9820  0.0077
 1156TIP3   OH224882   6.080   2.233  16.095 -0.4120  1.0557 -0.1639
 1156TIP3    H124883   6.060   2.207  16.005  0.0289 -0.1077  0.0590
 1156TIP3    H224884   5.996   2.229  16.140 -0.3436 -0.1583 -0.1088
 1157TIP3   OH224885   3.882   1.828  13.291 -0.2769  0.0148 -0.4997
 1157TIP3    H124886   3.839   1.841  13.376 -0.1852 -4.7311  0.5476
 1157TIP3    H224887   3.811   1.801  13.233  0.2402 -0.6655 -0.8158
 1158TIP3   OH224888   5.203   5.853  11.659 -0.1485 -0.6819  0.1105
 1158TIP3    H124889   5.244   5.822  11.740 -0.0475 -0.3590  0.1870
 1158TIP3    H224890   5.254   5.812  11.589  0.8100  0.3028  0.1893
 1159TIP3   OH224891   2.348   0.715  16.154 -0.5963  0.3042  0.2596
 1159TIP3    H124892   2.425   0.771  16.158 -0.3086 -0.1352  1.4470
 1159TIP3    H224893   2.279   0.770  16.117  0.1329  0.8781 -0.2680
 1160TIP3   OH224894   6.188   6.342  13.961 -0.8669  0.1243 -0.0052
 1160TIP3    H124895   6.228   6.267  13.919  0.5752 -0.3679  2.1131
 1160TIP3    H224896   6.094   6.325  13.955 -0.7646 -0.0106 -2.7019
 1161TIP3   OH224897   6.163   5.903  12.153 -0.2499 -0.1399 -0.2014
 1161TIP3    H124898   6.172   5.908  12.057 -2.2737  0.5277 -0.4178
 1161TIP3    H224899   6.102   5.974  12.174 -1.5213 -1.6005  1.3066
 1162TIP3   OH224900   6.633   4.024   0.295 -0.1221 -0.2948 -0.5356
 1162TIP3    H124901   6.540   4.006   0.309  0.4204 -1.1966  2.7951
 1162TIP3    H224902   6.677   3.948   0.332  1.9672  1.5647  1.0542
 1163TIP3   OH224903   2.232   6.494  12.529  0.2869  0.3401 -0.2468
 1163TIP3    H124904   2.298   6.480  12.461 -0.1802 -0.6644 -0.5261
 1163TIP3    H224905   2.229   6.410  12.577 -2.2291 -0.4309 -1.5590
 1164TIP3   OH224906   5.854   6.109  12.301 -0.1373  0.2858 -0.2504
 1164TIP3    H124907   5.940   6.135  12.267 -0.2161 -1.3828 -1.8985
 1164TIP3    H224908   5.874   6.062  12.382  0.5054 -0.0670 -0.6042
 1165TIP3   OH224909   4.444   1.655  11.479 -0.4124 -0.0007 -0.5160
 1165TIP3    H124910   4.395   1.658  11.397 -0.2996 -0.8059 -0.6296
 1165TIP3    H224911   4.501   1.578  11.469 -0.2662  0.0025  0.2424
 1166TIP3   OH224912   4.522   0.035   5.825  0.3905  0.1816  0.4270
 1166TIP3    H124913   4.469  -0.042   5.805  1.1851 -0.4720  0.7848
 1166TIP3    H224914   4.586   0.005   5.889  1.0480  1.0061  0.1857
 1167TIP3   OH224915   3.096   5.492  16.393 -0.1317 -0.4598 -0.6834
 1167TIP3    H124916   3.002   5.506  16.404 -0.0956 -0.7784  0.1437
 1167TIP3    H224917   3.127   5.568  16.344 -1.1042 -1.1699 -2.4873
 1168TIP3   OH224918   1.185   3.350   0.044  0.1030 -0.1163 -0.0349
 1168TIP3    H124919   1.178   3.260   0.011 -0.9480 -0.5838  1.3573
 1168TIP3    H224920   1.222   3.339   0.132  0.2912  0.8592  0.0149
 1169TIP3   OH224921   1.797   3.221  12.363 -0.3254  0.2644 -0.1694
 1169TIP3    H124922   1.776   3.130  12.344  0.6560  0.1302 -0.6991
 1169TIP3    H224923   1.884   3.234  12.325  1.4465  0.2607  3.4583
 1170TIP3   OH224924   0.148   5.426   2.697 -0.1434  0.4690  0.2802
 1170TIP3    H124925   0.152   5.412   2.792 -0.4539 -1.6934  0.0215
 1170TIP3    H224926   0.218   5.489   2.680  0.0659  0.7301  1.9173
 1171TIP3   OH224927   3.618   5.648  11.133  0.0638  0.4529 -0.4867
 1171TIP3    H124928   3.584   5.617  11.049  0.7199  0.7503 -0.8660
 1171TIP3    H224929   3.634   5.741  11.119  2.6227  0.0173 -0.8557
 1172TIP3   OH224930   5.538   4.233  14.617  0.0897 -0.0913  0.0209
 1172TIP3    H124931   5.615   4.198  14.572 -0.6192 -0.5099 -0.9070
 1172TIP3    H224932   5.507   4.303  14.559 -1.0759 -0.9108 -0.3814
 1173TIP3   OH224933   1.665   3.216   4.904  0.4253  1.0995 -0.0104
 1173TIP3    H124934   1.635   3.269   4.977 -2.1652  1.7481 -1.4406
 1173TIP3    H224935   1.673   3.277   4.831  0.1513  0.0042 -0.9850
 1174TIP3   OH224936   5.234   3.263   3.811 -0.1668  0.0839  0.7399
 1174TIP3    H124937   5.306   3.201   3.826 -0.8339 -0.4531  1.8517
 1174TIP3    H224938   5.265   3.319   3.740  0.5150 -1.4342 -0.2114
 1175TIP3   OH224939   2.900   6.312  13.752  0.2892 -0.3235 -0.8020
 1175TIP3    H124940   2.944   6.233  13.785 -1.8717 -0.4766  2.0579
 1175TIP3    H224941   2.840   6.280  13.684  1.1477 -0.7578 -1.3725
 1176TIP3   OH224942   4.091   6.616   3.987  0.3583  0.1649 -0.4111
 1176TIP3    H124943   4.031   6.691   3.996  0.2627  0.0820 -0.3566
 1176TIP3    H224944   4.084   6.570   4.070 -0.1935 -0.3592 -0.7444
 1177TIP3   OH224945   4.059   2.810   3.489 -0.0288 -0.3033  0.4845
 1177TIP3    H124946   4.006   2.743   3.446  2.2258 -1.1258 -1.2627
 1177TIP3    H224947   4.035   2.805   3.582 -1.3727 -2.1132  0.0833
 1178TIP3   OH224948   0.029   0.403  12.021  0.5851  0.2595  0.5070
 1178TIP3    H124949  -0.027   0.410  11.943  3.3914 -0.4963 -1.7264
 1178TIP3    H224950  -0.017   0.342  12.078 -0.3338 -1.3282 -1.7752
 1179TIP3   OH224951   4.976   2.394   2.817  0.3939 -0.5666  0.0156
 1179TIP3    H124952   4.922   2.397   2.896 -0.1883 -1.7499 -0.3005
 1179TIP3    H224953   4.955   2.309   2.778  1.5804 -0.5165 -0.7727
 1180TIP3   OH224954   4.744   3.774   5.420 -0.1076 -0.5366  0.3747
 1180TIP3    H124955   4.808   3.704   5.406 -1.0225 -1.1710 -0.8476
 1180TIP3    H224956   4.730   3.812   5.333  0.3701  1.1940  1.0124
 1181TIP3   OH224957   2.340   4.474  16.250  0.3796  0.5909 -0.3826
 1181TIP3    H124958   2.279   4.542  16.220 -2.9186 -0.9851  2.2159
 1181TIP3    H224959   2.407   4.523  16.298 -1.5928  2.1286  0.9649
 1182TIP3   OH224960   6.365   1.785  12.089  0.3164 -0.2239 -0.6574
 1182TIP3    H124961   6.441   1.728  12.077 -0.7858 -2.0178  0.2936
 1182TIP3    H224962   6.348   1.783  12.184 -1.4791 -0.7113 -0.9506
 1183TIP3   OH224963   3.368   3.729  15.199  0.0134  0.3433  0.1387
 1183TIP3    H124964   3.314   3.728  15.120  0.6881  1.4300 -0.3674
 1183TIP3    H224965   3.412   3.645  15.198  1.4425  1.0247 -1.7175
 1184TIP3   OH224966   3.550   5.917   3.115  0.5114  0.4947 -0.1269
 1184TIP3    H124967   3.587   5.864   3.186  1.9664  0.2272 -1.0642
 1184TIP3    H224968   3.457   5.894   3.115  0.7104 -0.4091  0.8992
 1185TIP3   OH224969   0.157   5.372  15.694  0.0567 -0.1646  0.3002
 1185TIP3    H124970   0.249   5.345  15.702  0.1388  0.4356  1.7022
 1185TIP3    H224971   0.119   5.309  15.633  1.8238  0.7082 -1.8368
 1186TIP3   OH224972   5.889   2.269   0.889 -0.0019  0.3326  0.0161
 1186TIP3    H124973   5.869   2.246   0.979 -0.0360  0.5972  0.0765
 1186TIP3    H224974   5.983   2.251   0.880  0.3164  1.6540  0.5248
 1187TIP3   OH224975   0.506   0.334  12.742  0.1640 -0.8993 -1.0543
 1187TIP3    H124976   0.472   0.319  12.830  0.6481  1.7402 -0.3147
 1187TIP3    H224977   0.496   0.428  12.728  3.3013 -0.6211 -2.4068
 1188TIP3   OH224978   4.765   5.945   5.769 -0.4859 -0.0238  0.0705
 1188TIP3    H124979   4.684   5.987   5.743 -0.3813 -0.2786 -0.6803
 1188TIP3    H224980   4.830   5.972   5.704  0.2270  0.7705  1.0670
 1189TIP3   OH224981   0.791   1.811  11.130  0.1820 -0.0212 -0.2535
 1189TIP3    H124982   0.788   1.773  11.042  1.7420  0.2071 -0.4324
 1189TIP3    H224983   0.700   1.807  11.160 -0.3494 -0.3281 -1.7699
 1190TIP3   OH224984   3.366   5.236  12.718  0.3392  0.2970 -0.3634
 1190TIP3    H124985   3.436   5.171  12.713  0.4356  0.3510  0.1467
 1190TIP3    H224986   3.311   5.205  12.790  0.3402  0.7343 -0.1709
 1191TIP3   OH224987   2.207   5.118  12.355 -0.3310 -0.3755 -0.2298
 1191TIP3    H124988   2.150   5.165  12.415 -0.6694 -0.8379 -0.1793
 1191TIP3    H224989   2.207   5.028  12.388  0.4248 -0.3850 -0.2322
 1192TIP3   OH224990   1.753   6.299   3.388  0.0747  0.0138 -0.2891
 1192TIP3    H124991   1.790   6.349   3.315  0.7470 -0.7346 -0.4755
 1192TIP3    H224992   1.731   6.214   3.350  2.5754 -1.2356  0.8183
 1193TIP3   OH224993   0.961   1.613  13.110 -0.2780  0.1054  0.3217
 1193TIP3    H124994   0.973   1.698  13.067  0.2594 -0.5605 -0.8838
 1193TIP3    H224995   1.034   1.560  13.079 -2.8960 -2.2076 -2.5271
 1194TIP3   OH224996   2.061   2.211   4.926 -0.0299 -0.4633  0.0789
 1194TIP3    H124997   2.084   2.152   4.997  1.8909 -0.0545 -0.1568
 1194TIP3    H224998   2.099   2.295   4.951  0.3703 -0.2228 -1.2541
 1195TIP3   OH224999   5.502   3.787   6.559 -0.4371 -0.0962  0.8434
 1195TIP3    H125000   5.593   3.792   6.591 -0.3575 -1.1580  0.8394
 1195TIP3    H225001   5.449   3.817   6.633 -0.0623  0.9515  0.6946
 1196TIP3   OH225002   0.641   0.208  17.322 -0.5601  1.0480  0.1400
 1196TIP3    H125003   0.594   0.175  17.399 -0.5197  1.4468  0.3403
 1196TIP3    H225004   0.732   0.218  17.351 -0.6582  1.7720  0.2288
 1197TIP3   OH225005   4.574   2.850  15.269 -0.0301 -0.1804  0.5520
 1197TIP3    H125006   4.622   2.856  15.186  0.4578 -2.6286  0.5800
 1197TIP3    H225007   4.641   2.825  15.333 -0.2008  2.6415  1.9546
 1198TIP3   OH225008   1.083   5.242   1.332  0.3074  0.0531  0.1523
 1198TIP3    H125009   1.040   5.259   1.416  0.4175 -1.0267  0.4326
 1198TIP3    H225010   1.014   5.258   1.267  0.2993  1.1660  0.4145
 1199TIP3   OH225011   2.901   0.434  11.727  0.3466 -0.3082  0.1606
 1199TIP3    H125012   2.944   0.475  11.802 -0.7636  1.2828 -0.0283
 1199TIP3    H225013   2.808   0.453  11.739  0.1542  0.0640 -1.6348
 1200TIP3   OH225014   4.768   4.774   2.996  0.0535 -0.2283  0.3145
 1200TIP3    H125015   4.701   4.707   2.979 -0.6067  0.2447  0.9790
 1200TIP3    H225016   4.740   4.814   3.079 -0.0302  1.4383 -0.4923
 1201TIP3   OH225017   4.444   5.625  13.785  0.6091 -0.0026  0.6677
 1201TIP3    H125018   4.465   5.718  13.783  0.9142 -0.0791 -0.9421
 1201TIP3    H225019   4.515   5.585  13.835 -0.4933  0.8034  3.0429
 1202TIP3   OH225020   4.514   3.670  13.916 -0.2031  0.3001 -0.1894
 1202TIP3    H125021   4.605   3.660  13.888 -0.0414  1.9701 -0.3307
 1202TIP3    H225022   4.464   3.622  13.849  0.5917 -1.6137  0.5042
 1203TIP3   OH225023   6.730   3.171  11.314  0.1549 -0.4822  0.4685
 1203TIP3    H125024   6.773   3.138  11.235 -0.1867 -0.2098  0.1697
 1203TIP3    H225025   6.764   3.115  11.384  0.4404 -0.7406  0.1291
 1204TIP3   OH225026   2.377   2.742  12.950 -0.3819  0.7367  0.4655
 1204TIP3    H125027   2.390   2.664  12.897  0.7045  1.5436 -0.5091
 1204TIP3    H225028   2.348   2.809  12.888  0.8534  1.6888  0.8714
 1205TIP3   OH225029   5.807   6.351  12.718  0.4444  0.1666 -0.3953
 1205TIP3    H125030   5.770   6.331  12.632  0.0132 -0.7651 -0.0065
 1205TIP3    H225031   5.733   6.346  12.778  1.0134 -0.7824  0.2554
 1206TIP3   OH225032   2.769   4.210  16.529 -0.1822  0.1777  0.0226
 1206TIP3    H125033   2.802   4.144  16.590  2.6605 -0.0531 -1.5853
 1206TIP3    H225034   2.769   4.291  16.579  1.7045 -0.0747  0.5253
 1207TIP3   OH225035   0.783   4.830  10.840 -0.4016 -0.6758 -0.4461
 1207TIP3    H125036   0.793   4.924  10.829 -0.4770 -0.6439 -0.2486
 1207TIP3    H225037   0.704   4.808  10.791 -1.1891 -0.4047  0.6678
 1208TIP3   OH225038   2.421   2.056   0.350 -0.4078  0.8585  0.3277
 1208TIP3    H125039   2.402   2.022   0.438  2.3039  1.1930  1.1307
 1208TIP3    H225040   2.474   1.988   0.309  1.1347  2.0580  0.2305
 1209TIP3   OH225041   3.081   3.742  13.350  0.0146 -0.2651 -0.0175
 1209TIP3    H125042   3.158   3.791  13.379  0.3564 -0.6967 -0.1732
 1209TIP3    H225043   3.013   3.763  13.414 -0.4029  1.8252 -1.0385
 1210TIP3   OH225044   1.406   4.500  16.035  0.2952 -0.0795  0.2149
 1210TIP3    H125045   1.354   4.466  16.108  1.1698  1.1440  1.4354
 1210TIP3    H225046   1.370   4.455  15.958 -1.0406 -0.9555  1.3016
 1211TIP3   OH225047   3.170   4.424   3.610  0.8751  0.2758  0.5243
 1211TIP3    H125048   3.095   4.378   3.572  0.7216  2.3895 -1.9952
 1211TIP3    H225049   3.132   4.489   3.668  0.8523  0.3374  0.4397
 1212TIP3   OH225050   1.252   0.737   2.355 -0.0431 -0.2840  0.3545
 1212TIP3    H125051   1.275   0.796   2.284  0.0974 -0.6021  0.1335
 1212TIP3    H225052   1.336   0.707   2.390 -0.0816  0.8572  1.4971
 1213TIP3   OH225053   3.040   0.893  15.769 -0.0666  0.2605 -0.3491
 1213TIP3    H125054   2.954   0.878  15.809 -0.0362 -0.4480 -0.5323
 1213TIP3    H225055   3.101   0.851  15.830  0.2816  1.7726  0.3946
 1214TIP3   OH225056   1.918   5.492   4.705 -0.3241  0.0275  0.4948
 1214TIP3    H125057   1.887   5.478   4.795  0.6229  0.9269  0.9802
 1214TIP3    H225058   2.009   5.522   4.716  0.2412 -1.0958 -0.8145
 1215TIP3   OH225059   5.741   2.264  16.481 -0.1316  0.0002 -0.6815
 1215TIP3    H125060   5.668   2.324  16.499 -0.2521  0.1104 -1.4975
 1215TIP3    H225061   5.721   2.186  16.533  0.0672  0.6806  0.4510
 1216TIP3   OH225062   3.927   0.733   1.495  0.5100 -0.1857  0.1565
 1216TIP3    H125063   3.842   0.691   1.507  0.4736 -0.2607 -0.3211
 1216TIP3    H225064   3.909   0.805   1.434  1.0592 -1.1657 -1.2288
 1217TIP3   OH225065   5.204   3.019  12.034  0.2293 -0.1711 -0.0553
 1217TIP3    H125066   5.216   3.111  12.014 -0.0656  0.2319  1.4874
 1217TIP3    H225067   5.117   2.998  12.002 -0.4083  0.5692  1.1204
 1218TIP3   OH225068   4.724   4.420   2.236  0.3708 -0.4433 -0.0651
 1218TIP3    H125069   4.728   4.468   2.319 -3.4397  0.3040 -0.1227
 1218TIP3    H225070   4.742   4.329   2.260  0.8588 -0.0052  1.3115
 1219TIP3   OH225071   3.491   5.849   0.064 -0.4271  0.4039  0.0065
 1219TIP3    H125072   3.528   5.798   0.136 -0.9753  0.5258  0.3816
 1219TIP3    H225073   3.524   5.938   0.078 -1.9968  0.8594  1.2105
 1220TIP3   OH225074   6.180   3.013   1.785 -0.7036 -0.7336 -0.0845
 1220TIP3    H125075   6.098   2.968   1.808 -0.0449 -1.8978  0.0869
 1220TIP3    H225076   6.154   3.081   1.723 -2.0809  0.2673  1.5060
 1221TIP3   OH225077   2.498   5.738  15.317  0.0300  0.1011  0.5429
 1221TIP3    H125078   2.511   5.717  15.410 -3.3074 -0.0794  1.0832
 1221TIP3    H225079   2.489   5.833  15.314 -0.9465  0.0145  0.5864
 1222TIP3   OH225080   2.274   1.110   0.289  0.1020  0.3573  0.2495
 1222TIP3    H125081   2.212   1.133   0.358  0.1641 -0.5490  0.6238
 1222TIP3    H225082   2.236   1.148   0.210  0.1578  1.6268  0.7978
 1223TIP3   OH225083   6.312   2.786  14.221  0.6158  0.2279  0.5352
 1223TIP3    H125084   6.286   2.694  14.228 -0.7977  0.6916  1.9266
 1223TIP3    H225085   6.249   2.824  14.159 -0.2683  0.7306  1.7103
 1224TIP3   OH225086   4.152   2.417  15.705  0.0764 -0.5209 -0.4474
 1224TIP3    H125087   4.155   2.513  15.711 -0.5136 -0.5956  1.5587
 1224TIP3    H225088   4.083   2.400  15.641  0.6406  0.3740 -1.3405
 1225TIP3   OH225089   6.311   1.315  16.658 -0.0662 -0.0761  0.4161
 1225TIP3    H125090   6.406   1.309  16.644 -0.1664 -0.2659 -0.2319
 1225TIP3    H225091   6.301   1.379  16.728  0.5211  0.2605  0.2032
 1226TIP3   OH225092   1.164   1.139   2.560 -0.5786  0.5058 -0.1510
 1226TIP3    H125093   1.196   1.208   2.503  0.5853 -0.8299 -1.1984
 1226TIP3    H225094   1.106   1.086   2.504  1.5444 -1.5403 -0.5700
 1227TIP3   OH225095   1.935   2.361   1.939  0.6819 -0.4626 -0.0204
 1227TIP3    H125096   1.882   2.441   1.937  0.3969 -0.6306  0.5404
 1227TIP3    H225097   2.022   2.391   1.964  0.9968 -0.1167 -1.4647
 1228TIP3   OH225098   4.294   2.401   1.373  0.0213 -0.6609  0.2688
 1228TIP3    H125099   4.329   2.437   1.291 -1.0053 -1.0469 -0.3580
 1228TIP3    H225100   4.371   2.373   1.421  0.7081  0.3958 -0.1652
 1229TIP3   OH225101   6.664   4.330   1.864 -0.1596  0.4345  0.6398
 1229TIP3    H125102   6.570   4.318   1.876 -0.6378 -0.3814 -2.7969
 1229TIP3    H225103   6.673   4.416   1.822  0.8127  1.1009  2.1220
 1230TIP3   OH225104   0.041   2.835  13.829  0.0014 -0.0894 -0.1212
 1230TIP3    H125105  -0.035   2.797  13.873 -0.3773 -0.5253 -1.1244
 1230TIP3    H225106   0.010   2.857  13.742  1.2713 -1.2159 -0.9009
 1231TIP3   OH225107   6.146   4.730  12.032 -0.5367 -0.9047 -0.3277
 1231TIP3    H125108   6.237   4.710  12.009  0.3878 -0.1047  2.1860
 1231TIP3    H225109   6.095   4.659  11.995  1.1037 -1.3606 -1.8474
 1232TIP3   OH225110   1.182   0.959  13.898 -0.3675  0.9800  0.2252
 1232TIP3    H125111   1.118   0.970  13.828  0.9389 -0.2184 -1.2416
 1232TIP3    H225112   1.251   0.906  13.859  0.4968  0.3912  2.4047
 1233TIP3   OH225113   4.276   0.764   2.867  0.0009 -0.5631 -0.1250
 1233TIP3    H125114   4.318   0.847   2.892 -0.4865 -0.0022 -1.0767
 1233TIP3    H225115   4.182   0.783   2.868 -0.1061 -1.0449 -0.5284
 1234TIP3   OH225116   3.097   4.256  14.634  0.0072 -0.0469  0.2545
 1234TIP3    H125117   3.039   4.324  14.601  0.7961  0.7557  0.4887
 1234TIP3    H225118   3.089   4.184  14.571 -0.0228  0.6751 -0.5742
 1235TIP3   OH225119   1.641   6.240   2.074  0.1838  0.1736 -0.1556
 1235TIP3    H125120   1.583   6.165   2.071 -0.4902  0.7034 -1.1586
 1235TIP3    H225121   1.672   6.244   2.164 -0.0245 -1.1046 -0.0183
 1236TIP3   OH225122   6.668   3.898  16.114  0.1417  0.3778  0.6177
 1236TIP3    H125123   6.749   3.941  16.087  0.2504 -0.2357 -0.0941
 1236TIP3    H225124   6.601   3.934  16.055  0.5383 -1.6310 -1.2294
 1237TIP3   OH225125   2.095   1.047  16.506 -0.2821  0.8475 -0.1301
 1237TIP3    H125126   2.088   1.012  16.417 -0.1760 -1.4046  0.6870
 1237TIP3    H225127   2.016   1.100  16.517 -1.4904 -0.7145 -0.8112
 1238TIP3   OH225128   2.058   2.229  14.294 -0.1535 -0.0734  0.2103
 1238TIP3    H125129   2.115   2.269  14.227 -0.7182  0.7548  0.2055
 1238TIP3    H225130   2.053   2.294  14.363  0.2773 -0.8553  0.9894
 1239TIP3   OH225131   3.989   0.368   4.056 -0.3618  0.2639 -0.1970
 1239TIP3    H125132   3.971   0.442   3.998 -0.4412  1.1484  0.9297
 1239TIP3    H225133   3.944   0.389   4.137 -0.8648 -1.3041 -0.0336
 1240TIP3   OH225134   0.990   3.418  16.123 -0.3228 -0.1888  0.6777
 1240TIP3    H125135   0.959   3.498  16.166 -0.1129  1.0935 -1.4108
 1240TIP3    H225136   0.911   3.368  16.104 -0.5499  0.0297  1.0298
 1241TIP3   OH225137   6.424   2.689   0.429 -0.2275 -0.0772 -0.0199
 1241TIP3    H125138   6.449   2.730   0.512 -1.1124  1.3634 -0.4192
 1241TIP3    H225139   6.450   2.598   0.438  0.5206  0.2540  1.4848
 1242TIP3   OH225140   3.149   0.835  16.926  0.3988  0.6618  0.1107
 1242TIP3    H125141   3.086   0.865  16.993  0.0358 -0.3780  0.2494
 1242TIP3    H225142   3.224   0.803  16.976  0.9675  1.6913 -0.0507
 1243TIP3   OH225143   1.010   3.940  14.716  0.5558 -0.2521  0.1985
 1243TIP3    H125144   1.010   4.035  14.728  0.4924 -0.2409  0.1185
 1243TIP3    H225145   0.978   3.928  14.626  1.9639 -0.2900 -0.3218
 1244TIP3   OH225146   5.356   2.962   1.647 -0.3503 -0.3209 -0.4194
 1244TIP3    H125147   5.299   3.022   1.695 -1.6482 -0.3818 -1.8160
 1244TIP3    H225148   5.337   2.978   1.555 -0.4155 -2.5529 -0.8645
 1245TIP3   OH225149   3.871   1.888   1.268  0.3931 -0.2887  0.0086
 1245TIP3    H125150   3.905   1.834   1.197  0.5607 -0.8504  0.5082
 1245TIP3    H225151   3.901   1.977   1.248 -0.9477 -0.1401 -1.4966
 1246TIP3   OH225152   6.574   6.757   1.412 -0.7854  0.1553 -0.4320
 1246TIP3    H125153   6.581   6.800   1.327 -1.1169  0.8121 -0.1347
 1246TIP3    H225154   6.597   6.665   1.394  0.4400  0.5484 -0.9768
 1247TIP3   OH225155   1.995   4.628  13.898 -0.6153  0.1828  0.0028
 1247TIP3    H125156   1.979   4.592  13.811 -0.4185  0.2228 -0.0494
 1247TIP3    H225157   1.968   4.719  13.891 -0.9511  0.0945  0.0873
 1248TIP3   OH225158   5.441   4.731  11.517  0.3756  0.2787 -0.6278
 1248TIP3    H125159   5.370   4.779  11.474  0.4882  0.3294 -0.7575
 1248TIP3    H225160   5.400   4.650  11.546 -0.5301  1.5954  2.0773
 1249TIP3   OH225161   2.542   2.185  15.163  0.4254 -0.1112  0.1846
 1249TIP3    H125162   2.478   2.139  15.109  2.2511 -0.3984 -1.8739
 1249TIP3    H225163   2.589   2.116  15.209 -0.8547  0.1128  1.9132
 1250TIP3   OH225164   2.266   1.844   3.034  0.4129 -0.2037  0.2832
 1250TIP3    H125165   2.196   1.787   3.002 -0.3164  0.8852 -0.1374
 1250TIP3    H225166   2.345   1.813   2.991  0.1229 -1.2235  0.4776
 1251TIP3   OH225167   0.906   0.396  12.419 -0.5365  0.4249  0.7371
 1251TIP3    H125168   0.971   0.380  12.488  0.2778 -1.0524 -0.3165
 1251TIP3    H225169   0.931   0.337  12.349 -2.7972  0.1244  0.1158
 1252TIP3   OH225170   0.550   2.365  13.375 -0.5888 -0.2761  0.2063
 1252TIP3    H125171   0.584   2.416  13.301  1.4608 -1.0427  0.5477
 1252TIP3    H225172   0.614   2.295  13.387 -0.3859  0.2849  3.2136
 1253TIP3   OH225173   4.195   2.478  17.174 -0.3893 -0.0528 -0.1355
 1253TIP3    H125174   4.218   2.435  17.092  0.8815  2.2751 -1.1017
 1253TIP3    H225175   4.121   2.535  17.151 -0.0640  0.5664  0.3149
 1254TIP3   OH225176   4.098   0.692  14.196  0.2627 -0.1995  0.1422
 1254TIP3    H125177   4.126   0.775  14.156  2.3836  0.3200  2.4230
 1254TIP3    H225178   4.082   0.634  14.122 -1.1221  2.1503 -1.5405
 1255TIP3   OH225179   3.059   0.910   3.950  0.1114 -0.2278 -0.0084
 1255TIP3    H125180   3.112   0.831   3.933  0.9404 -0.1914  2.0463
 1255TIP3    H225181   2.969   0.878   3.955  0.5482 -1.3783  2.0840
 1256TIP3   OH225182   1.557   3.514   6.277  0.9170  0.1416  0.4659
 1256TIP3    H125183   1.580   3.471   6.195  0.6294  0.2212  0.3440
 1256TIP3    H225184   1.540   3.443   6.338 -2.3931 -0.0221 -0.4777
 1257TIP3   OH225185   1.924   2.016  16.868 -0.0362  0.0450  0.3561
 1257TIP3    H125186   1.969   1.932  16.862  0.6624  0.4605 -0.7628
 1257TIP3    H225187   1.899   2.035  16.777 -2.8936 -0.3625  0.9918
 1258TIP3   OH225188   4.522   1.609  13.907  0.1501 -0.5781  0.0037
 1258TIP3    H125189   4.611   1.641  13.898 -0.6253  1.8513  0.1877
 1258TIP3    H225190   4.518   1.573  13.996  0.7975 -0.1687  0.2064
 1259TIP3   OH225191   0.728   3.605  11.091  0.2298  0.2072 -0.1317
 1259TIP3    H125192   0.740   3.510  11.090 -0.2633  0.1305  0.5177
 1259TIP3    H225193   0.813   3.640  11.065  0.4865 -0.4087 -0.1366
 1260TIP3   OH225194   4.040   4.774   4.842  0.1631  0.2854 -0.6666
 1260TIP3    H125195   3.961   4.743   4.888  0.4757 -0.5509 -0.6731
 1260TIP3    H225196   4.008   4.804   4.757 -0.0611 -0.7054 -0.9405
 1261TIP3   OH225197   4.841   0.377  10.959 -0.1701  0.2023  0.5184
 1261TIP3    H125198   4.802   0.341  10.880  0.0027 -0.4169  0.7038
 1261TIP3    H225199   4.932   0.392  10.936  0.0606 -0.6801  0.8073
 1262TIP3   OH225200   1.334   0.019   6.012  0.4375 -0.2612 -0.1758
 1262TIP3    H125201   1.427  -0.000   6.026  0.3612 -1.8232 -1.5515
 1262TIP3    H225202   1.304  -0.048   5.950 -1.3420  0.8904 -0.6435
 1263TIP3   OH225203   0.309   1.885   2.246  0.2930  0.2992 -0.3461
 1263TIP3    H125204   0.239   1.940   2.280 -0.1960  0.6208 -1.8057
 1263TIP3    H225205   0.269   1.838   2.173  1.4466  0.0621 -0.8451
 1264TIP3   OH225206   3.332   1.326   6.384 -0.6311 -0.1061 -0.3996
 1264TIP3    H125207   3.310   1.250   6.438 -1.1913  0.8143  0.7108
 1264TIP3    H225208   3.380   1.384   6.442 -2.2833  1.4439 -0.4731
 1265TIP3   OH225209   6.438   3.308  12.135 -0.2658  0.0783  0.3532
 1265TIP3    H125210   6.403   3.221  12.120  0.3118 -0.0126 -0.5221
 1265TIP3    H225211   6.405   3.360  12.061  0.3777  0.2994  0.2134
 1266TIP3   OH225212   3.122   6.661  16.507 -0.1299  0.0095 -0.3400
 1266TIP3    H125213   3.111   6.589  16.569  0.4123 -0.0183 -0.2645
 1266TIP3    H225214   3.113   6.740  16.560  0.9309 -0.0129 -0.0881
 1267TIP3   OH225215   5.701   0.148   3.954  0.1509  0.1035  0.1054
 1267TIP3    H125216   5.726   0.229   3.998 -2.6415  0.8916  0.4413
 1267TIP3    H225217   5.606   0.144   3.964 -0.1763 -1.5878 -2.7233
 1268TIP3   OH225218   2.746   4.954  16.275  0.0696  0.1990  0.5654
 1268TIP3    H125219   2.725   4.913  16.359  1.9784 -0.2976  0.8402
 1268TIP3    H225220   2.664   4.994  16.247 -0.7256 -0.0362  2.4242
 1269TIP3   OH225221   4.762   0.752   2.939 -0.2816 -0.4161  0.2982
 1269TIP3    H125222   4.753   0.728   3.032  0.0687 -0.9823  0.1922
 1269TIP3    H225223   4.793   0.842   2.940 -0.4074 -0.3772  0.7361
 1270TIP3   OH225224   3.254   5.162  13.791 -0.0482  0.0252  0.4318
 1270TIP3    H125225   3.300   5.163  13.707 -1.2046 -1.3473 -0.2688
 1270TIP3    H225226   3.316   5.200  13.853  2.4129 -2.4997 -0.2631
 1271TIP3   OH225227   5.554   3.619  11.819  0.5936 -0.8124 -0.6964
 1271TIP3    H125228   5.599   3.689  11.770  0.0946 -0.9950 -1.4311
 1271TIP3    H225229   5.621   3.552  11.831  0.9166 -0.4575 -0.5018
 1272TIP3   OH225230   3.862   6.027  12.960 -0.7490 -0.5692 -0.7817
 1272TIP3    H125231   3.916   6.067  12.892 -1.2137  1.0901 -0.2221
 1272TIP3    H225232   3.772   6.040  12.931 -0.9194 -0.9691 -0.4513
 1273TIP3   OH225233   0.989   3.059  15.566 -0.7172  0.0959  0.7525
 1273TIP3    H125234   1.012   2.966  15.563 -2.7822 -0.4805  1.6310
 1273TIP3    H225235   1.019   3.088  15.652  0.7819  0.5290  0.1215
 1274TIP3   OH225236   5.706   1.089   5.349 -0.0867 -0.2831  0.5013
 1274TIP3    H125237   5.703   1.034   5.271  0.3477 -0.7267  0.7927
 1274TIP3    H225238   5.787   1.063   5.394 -0.2817  0.0318  1.0475
 1275TIP3   OH225239   4.733   0.100   1.214  0.2458 -0.5762 -0.3866
 1275TIP3    H125240   4.799   0.033   1.199 -3.6815 -4.8887 -0.5170
 1275TIP3    H225241   4.706   0.088   1.305 -0.5054  1.0185 -0.3570
 1276TIP3   OH225242   1.128   0.433   3.324 -0.4234  0.6619 -0.1630
 1276TIP3    H125243   1.111   0.502   3.388  0.8990 -0.0844  1.0712
 1276TIP3    H225244   1.217   0.403   3.345 -0.9175 -1.3368 -0.7301
 1277TIP3   OH225245   0.421   1.399   4.711  0.0556  0.3837 -0.0320
 1277TIP3    H125246   0.476   1.401   4.633 -0.2388  0.2778 -0.2446
 1277TIP3    H225247   0.473   1.443   4.778  1.3323 -1.6622  0.3884
 1278TIP3   OH225248   5.256   4.231  15.431  0.0414 -0.0445  0.1145
 1278TIP3    H125249   5.345   4.233  15.466 -0.1799 -0.2391  0.7071
 1278TIP3    H225250   5.248   4.145  15.391  0.4272  0.3267 -0.7809
 1279TIP3   OH225251   3.002   3.198   3.122 -0.5112  0.3319  0.6790
 1279TIP3    H125252   3.070   3.223   3.060 -2.1279  0.8205 -0.9932
 1279TIP3    H225253   3.036   3.120   3.165  0.3246 -0.5676 -1.4702
 1280TIP3   OH225254   2.192   3.228  11.940 -0.0294 -0.2648  0.2517
 1280TIP3    H125255   2.208   3.321  11.953  1.5620 -0.5848  0.7875
 1280TIP3    H225256   2.272   3.185  11.970 -0.5278 -1.7797 -0.4710
 1281TIP3   OH225257   5.225   6.145   3.885 -0.6469  0.0290 -0.4464
 1281TIP3    H125258   5.149   6.102   3.924 -1.9293  1.7111 -0.9384
 1281TIP3    H225259   5.190   6.192   3.809  0.9803  0.4658 -0.9830
 1282TIP3   OH225260   4.180   5.589  14.554  0.1380  0.3989  0.7899
 1282TIP3    H125261   4.221   5.669  14.519 -0.3650  0.1297 -0.4826
 1282TIP3    H225262   4.099   5.580  14.504  0.2628 -0.9854  0.7983
 1283TIP3   OH225263   6.180   6.362  16.980  0.2545 -0.1968 -0.4566
 1283TIP3    H125264   6.256   6.356  17.037 -1.1833 -1.2084  1.4290
 1283TIP3    H225265   6.208   6.322  16.898  2.0452  0.3817 -0.1653
 1284TIP3   OH225266   5.687   1.354   2.863 -0.1850  0.1782  0.3765
 1284TIP3    H125267   5.781   1.344   2.880 -0.2552 -0.2557  0.5025
 1284TIP3    H225268   5.661   1.429   2.916  0.6147  1.9406 -1.5937
 1285TIP3   OH225269   3.849   1.201  13.066  0.5471  0.6712  0.7248
 1285TIP3    H125270   3.822   1.279  13.017  0.1388 -0.2343 -0.5405
 1285TIP3    H225271   3.940   1.187  13.040  0.0241 -0.4123 -0.6567
 1286TIP3   OH225272   3.688   2.574  16.642  0.3073 -0.3238 -0.7332
 1286TIP3    H125273   3.660   2.663  16.661  1.0543 -0.3124  0.4525
 1286TIP3    H225274   3.608   2.527  16.621 -0.6877 -0.2960  2.5322
 1287TIP3   OH225275   4.000   3.742  14.926 -0.1344  0.6308  0.1665
 1287TIP3    H125276   4.091   3.768  14.943  0.2178 -1.1225  1.2156
 1287TIP3    H225277   3.950   3.777  15.000  0.0394 -0.0782  0.6308
 1288TIP3   OH225278   4.984   3.073   0.118  0.5858  0.1784  0.2556
 1288TIP3    H125279   4.978   3.100   0.026 -0.0630  0.7459  0.4559
 1288TIP3    H225280   4.906   3.111   0.159  0.4666 -0.7232  0.8778
 1289TIP3   OH225281   3.701   2.064  12.235 -0.4166  0.4368 -0.7352
 1289TIP3    H125282   3.634   2.007  12.197 -0.5529  0.0286  0.0963
 1289TIP3    H225283   3.779   2.049  12.182 -0.0967 -1.4506  0.2049
 1290TIP3   OH225284   5.208   3.892  16.583 -0.3267  0.0214  0.3505
 1290TIP3    H125285   5.285   3.886  16.640  0.2638 -0.0050 -0.4320
 1290TIP3    H225286   5.171   3.978  16.600 -2.5240 -1.4019  3.7118
 1291TIP3   OH225287   5.020   4.292   3.896  0.4176 -0.3431  0.4020
 1291TIP3    H125288   4.988   4.263   3.810  0.0557 -0.0446  0.4340
 1291TIP3    H225289   5.112   4.313   3.881  1.0786 -2.7239  0.6665
 1292TIP3   OH225290   5.890   0.207  16.230  0.1504  0.2155 -0.3447
 1292TIP3    H125291   5.896   0.120  16.192 -1.4597  1.2020 -3.1923
 1292TIP3    H225292   5.798   0.217  16.254 -0.8674  2.4555 -4.1672
 1293TIP3   OH225293   4.531   0.681  16.546 -0.1347  0.0863 -0.1620
 1293TIP3    H125294   4.610   0.641  16.583 -1.2038 -2.3601 -0.3110
 1293TIP3    H225295   4.470   0.685  16.620 -1.2110 -1.8833 -0.8862
 1294TIP3   OH225296   3.274   2.607  16.579 -0.4557 -0.2096 -0.4251
 1294TIP3    H125297   3.333   2.533  16.564  0.1650  0.4419 -1.3151
 1294TIP3    H225298   3.227   2.617  16.496 -1.1892 -0.1610 -0.0140
 1295TIP3   OH225299   3.566   1.291   2.627  0.1407  0.1959 -0.6726
 1295TIP3    H125300   3.626   1.223   2.598  1.3518  0.9054  0.1183
 1295TIP3    H225301   3.571   1.289   2.723 -1.9100 -0.4403 -0.5319
 1296TIP3   OH225302   1.637   1.399   3.210  0.1677  0.1841  0.7222
 1296TIP3    H125303   1.645   1.322   3.153 -0.6314 -0.2643  1.1898
 1296TIP3    H225304   1.563   1.378   3.266 -0.4213  1.5532  0.4767
 1297TIP3   OH225305   2.124   0.573   1.987  0.4708  0.6919 -0.5013
 1297TIP3    H125306   2.095   0.612   2.069 -0.7004  0.3242 -0.7216
 1297TIP3    H225307   2.218   0.592   1.983  0.5536  0.6769  0.9311
 1298TIP3   OH225308   5.141   1.806   2.446  0.2043  0.3517 -0.4635
 1298TIP3    H125309   5.094   1.840   2.371  0.1546 -2.3499 -1.7732
 1298TIP3    H225310   5.163   1.716   2.422  1.3447 -0.1933  2.2438
 1299TIP3   OH225311   4.555   6.062   1.895 -0.4215 -0.2569 -0.4492
 1299TIP3    H125312   4.516   6.135   1.944  0.2048 -1.0309  1.2873
 1299TIP3    H225313   4.482   6.025   1.846 -1.0866  0.5668 -0.1163
 1300TIP3   OH225314   2.034   4.247  16.525 -0.1620  0.2730 -0.2205
 1300TIP3    H125315   2.111   4.214  16.479 -0.9349 -1.3614 -0.4586
 1300TIP3    H225316   2.005   4.322  16.474  1.6497  1.3568  0.2839
 1301TIP3   OH225317   2.671   3.916  12.444  0.3291 -0.2645 -0.8608
 1301TIP3    H125318   2.720   3.853  12.497 -0.5182 -0.3454 -0.1582
 1301TIP3    H225319   2.736   3.950  12.382  0.9473 -1.3605 -0.8434
 1302TIP3   OH225320   4.945   5.140   3.557  0.0226 -0.0146 -0.5757
 1302TIP3    H125321   4.882   5.162   3.489  0.0992  3.4064  0.2971
 1302TIP3    H225322   4.974   5.051   3.535 -1.6109  0.0907 -3.6563
 1303TIP3   OH225323   4.162   4.333   2.409 -0.2309  0.2601  0.3215
 1303TIP3    H125324   4.167   4.254   2.355  0.8109  2.1142 -2.5183
 1303TIP3    H225325   4.154   4.300   2.499  0.6546 -3.0462 -0.6663
 1304TIP3   OH225326   2.436   5.928  15.947 -0.6422  0.1444 -0.6725
 1304TIP3    H125327   2.442   6.022  15.928 -0.9016  0.6974  1.6767
 1304TIP3    H225328   2.387   5.923  16.029  0.8450 -1.9211  0.1837
 1305TIP3   OH225329   2.865   1.953  16.891 -0.4087 -0.6894 -0.4234
 1305TIP3    H125330   2.866   1.950  16.987 -4.4035 -0.0228 -0.1607
 1305TIP3    H225331   2.842   2.044  16.871  1.2946 -0.5805 -2.1153
 1306TIP3   OH225332   2.306   2.509   4.697 -0.3751  0.1639  0.1744
 1306TIP3    H125333   2.325   2.560   4.619 -1.4762  0.8673  0.3512
 1306TIP3    H225334   2.369   2.540   4.762  0.0617  0.0940 -0.2090
 1307TIP3   OH225335   4.327   5.605  15.756 -0.1657  0.2831  0.1576
 1307TIP3    H125336   4.311   5.619  15.849  1.0204  2.8196  0.0573
 1307TIP3    H225337   4.254   5.549  15.727 -1.8326  1.3160  2.1318
 1308TIP3   OH225338   3.457   2.273  10.943  0.3420  0.1455 -0.3259
 1308TIP3    H125339   3.443   2.364  10.965  0.5732  0.1857 -0.3364
 1308TIP3    H225340   3.379   2.247  10.893  0.9893  0.8073 -1.7423
 1309TIP3   OH225341   6.421   6.034  14.185 -0.3532  0.4087  0.0958
 1309TIP3    H125342   6.477   5.977  14.237 -0.3811 -0.1976 -0.5197
 1309TIP3    H225343   6.409   5.987  14.102 -1.2210  0.8284 -0.0360
 1310TIP3   OH225344   1.666   3.086   2.381 -0.0866  0.3783  0.2284
 1310TIP3    H125345   1.752   3.088   2.340 -0.5038  1.0980 -0.6479
 1310TIP3    H225346   1.620   3.162   2.344 -0.1379  1.7187  2.7858
 1311TIP3   OH225347   1.991   0.100   5.748 -0.4431  0.3779  0.4460
 1311TIP3    H125348   1.987   0.194   5.730 -0.5337  0.2196 -0.4151
 1311TIP3    H225349   2.080   0.074   5.722 -0.6681  0.0880 -0.0497
 1312TIP3   OH225350   6.337   0.401  12.923 -0.0223 -0.2587  0.2267
 1312TIP3    H125351   6.361   0.310  12.940  1.9255  0.2601  0.5691
 1312TIP3    H225352   6.415   0.451  12.948 -0.7149  1.4321 -0.8187
 1313TIP3   OH225353   1.492   0.411  11.647  0.4379  0.1655 -0.0252
 1313TIP3    H125354   1.424   0.345  11.641 -0.5282  0.8152  2.5101
 1313TIP3    H225355   1.563   0.377  11.593 -0.6588 -2.1203 -0.1490
 1314TIP3   OH225356   2.503   5.602  11.293 -0.3172  0.4531  0.1219
 1314TIP3    H125357   2.412   5.584  11.318  0.2008 -1.9920  0.5547
 1314TIP3    H225358   2.554   5.535  11.339  1.5661  0.9815 -1.0793
 1315TIP3   OH225359   6.250   1.222   2.627  0.0892  0.3533 -0.1344
 1315TIP3    H125360   6.312   1.293   2.640 -0.4602  0.9287 -0.6022
 1315TIP3    H225361   6.178   1.261   2.577 -0.1640 -0.5597 -0.5071
 1316TIP3   OH225362   3.048   0.872   5.321 -0.3529 -0.2687 -0.2573
 1316TIP3    H125363   3.042   0.812   5.395 -1.6269 -0.0751 -0.1778
 1316TIP3    H225364   3.030   0.958   5.358 -0.3486 -0.0827 -0.6807
 1317TIP3   OH225365   3.030   5.415  11.837  0.8292 -0.5568 -0.4211
 1317TIP3    H125366   2.968   5.346  11.813  0.2281 -0.3315  0.4243
 1317TIP3    H225367   3.104   5.368  11.875  0.3199 -0.7462  0.3719
 1318TIP3   OH225368   3.750   1.677  16.225 -0.1730  0.1617  0.8263
 1318TIP3    H125369   3.802   1.678  16.305  2.0968  1.6128 -0.5655
 1318TIP3    H225370   3.691   1.751  16.233  0.9012  1.0530  0.6668
 1319TIP3   OH225371   1.888   6.248   0.098  0.6866 -0.2953 -0.2559
 1319TIP3    H125372   1.957   6.311   0.116 -1.0298  1.7229 -0.3480
 1319TIP3    H225373   1.807   6.295   0.117 -0.7368 -2.1249 -1.4143
 1320TIP3   OH225374   5.429   6.601   0.104  0.1550 -0.5367  0.5737
 1320TIP3    H125375   5.478   6.683   0.094 -2.1430  1.1412  2.3379
 1320TIP3    H225376   5.423   6.587   0.198 -0.0864 -2.4243  0.3257
 1321TIP3   OH225377   2.127   3.348  13.978 -0.7394  0.2855  0.3075
 1321TIP3    H125378   2.126   3.297  14.059  0.7853  0.0308  0.2017
 1321TIP3    H225379   2.068   3.300  13.920 -0.3788 -0.6087  0.6540
 1322TIP3   OH225380   2.619   6.132  13.018 -0.8658  0.1538  0.3292
 1322TIP3    H125381   2.565   6.064  12.977 -0.8109  0.5158 -0.3632
 1322TIP3    H225382   2.610   6.208  12.960 -0.2556  0.4668  0.6338
 1323TIP3   OH225383   5.815   4.727   3.766 -0.1553 -0.4688  0.2055
 1323TIP3    H125384   5.811   4.708   3.860  2.3372 -1.7588  0.1367
 1323TIP3    H225385   5.868   4.656   3.730  2.3763  2.0905 -1.5244
 1324TIP3   OH225386   2.958   6.514  12.351  0.3183 -0.0172  0.3472
 1324TIP3    H125387   2.964   6.574  12.426 -2.1822 -0.2331  0.8311
 1324TIP3    H225388   3.041   6.468  12.351  1.2653  1.5614  1.6205
 1325TIP3   OH225389   0.377   3.822  13.181 -0.4870  0.2685 -0.3630
 1325TIP3    H125390   0.440   3.781  13.239 -0.2871  1.1650  0.0649
 1325TIP3    H225391   0.422   3.899  13.146 -1.2388  0.7725 -0.2557
 1326TIP3   OH225392   0.773   0.224  12.222  0.1273  0.4161  0.2031
 1326TIP3    H125393   0.695   0.273  12.199 -0.2547  0.0897  0.7847
 1326TIP3    H225394   0.820   0.214  12.139 -0.0080  1.3616 -0.0043
 1327TIP3   OH225395   5.170   6.162  17.228  0.1426  0.4961  0.0519
 1327TIP3    H125396   5.165   6.253  17.201  1.5781  0.6934  0.3961
 1327TIP3    H225397   5.206   6.164  17.316  0.6826 -0.4250 -0.1286
 1328TIP3   OH225398   4.187   2.397   0.464  0.3330 -0.2142 -0.2250
 1328TIP3    H125399   4.143   2.334   0.406  0.7937 -1.3085  0.5695
 1328TIP3    H225400   4.176   2.481   0.421 -0.4980 -0.8071 -1.2206
 1329TIP3   OH225401   2.249   0.042  16.452  0.0967  0.1774  0.0373
 1329TIP3    H125402   2.292   0.020  16.370  3.0374 -0.4138  1.5920
 1329TIP3    H225403   2.186  -0.028  16.466  0.2459 -0.2391 -1.2312
 1330TIP3   OH225404   6.477   5.870  13.979  0.4889 -0.0835  0.3610
 1330TIP3    H125405   6.463   5.803  13.912  0.6084  0.4892 -0.2418
 1330TIP3    H225406   6.536   5.828  14.042 -0.6446 -1.0854  0.8121
 1331TIP3   OH225407   5.154   2.017  16.867 -0.2363  0.0331  0.2076
 1331TIP3    H125408   5.202   2.093  16.900 -2.0529  1.3597 -0.0407
 1331TIP3    H225409   5.188   2.003  16.779  2.4750 -1.6065  1.4089
 1332TIP3   OH225410   1.076   2.535   3.401 -0.5144 -0.3566  0.8232
 1332TIP3    H125411   1.151   2.575   3.357 -0.4202 -1.2544  0.1392
 1332TIP3    H225412   1.115   2.475   3.465 -0.6353 -0.8837  0.4130
 1333TIP3   OH225413   1.471   2.099  14.812 -0.6314 -0.6060 -0.7378
 1333TIP3    H125414   1.487   2.110  14.905  3.0506 -1.2651 -1.1221
 1333TIP3    H225415   1.392   2.045  14.807  0.4577 -2.6942  2.1204
 1334TIP3   OH225416   0.037   1.387  14.879  0.0830 -0.0323  0.5397
 1334TIP3    H125417   0.128   1.393  14.906 -0.1723 -0.3453  1.5200
 1334TIP3    H225418   0.012   1.477  14.857  0.1850  0.3403  1.8359
 1335TIP3   OH225419   2.789   0.322   3.180  0.7950 -0.3740  0.0627
 1335TIP3    H125420   2.869   0.295   3.225  0.4056  1.2908  1.8676
 1335TIP3    H225421   2.814   0.403   3.135  0.2470 -0.1454  0.1747
 1336TIP3   OH225422   2.968   1.364   3.684  0.1287  0.5376 -0.1442
 1336TIP3    H125423   3.001   1.318   3.607 -0.3930  0.1927 -0.1596
 1336TIP3    H225424   3.042   1.419   3.712  0.8067 -0.3920 -0.0448
 1337TIP3   OH225425   5.618   5.675  10.809 -0.4896 -0.5815  0.4545
 1337TIP3    H125426   5.672   5.634  10.741  0.2757  0.0367  0.6648
 1337TIP3    H225427   5.588   5.757  10.769  0.4926  0.0969  1.0607
 1338TIP3   OH225428   1.847   4.030  15.555  0.3658 -0.1828 -0.4525
 1338TIP3    H125429   1.886   4.021  15.642 -0.7102  0.8126  0.1719
 1338TIP3    H225430   1.767   3.979  15.559  0.1785  0.0815 -0.7688
 1339TIP3   OH225431   5.155   2.594   2.851  0.3799 -0.6629  0.5023
 1339TIP3    H125432   5.106   2.671   2.821 -0.1352 -1.0015  0.4631
 1339TIP3    H225433   5.090   2.524   2.855  0.9264 -1.2047  0.1326
 1340TIP3   OH225434   5.527   1.098   3.474  0.0294 -0.4527  0.3989
 1340TIP3    H125435   5.504   1.030   3.538 -2.0255  0.8927  1.1984
 1340TIP3    H225436   5.496   1.180   3.513  1.7798  0.9016 -0.8436
 1341TIP3   OH225437   2.509   5.112  16.210  0.4459  0.3786  0.0428
 1341TIP3    H125438   2.442   5.045  16.196  1.0780 -0.0159 -1.2731
 1341TIP3    H225439   2.460   5.192  16.228 -0.3635  0.0144 -0.4996
 1342TIP3   OH225440   0.791   6.220   5.904 -0.0849  0.1942  0.6009
 1342TIP3    H125441   0.814   6.282   5.836  0.5509  0.3184  0.9152
 1342TIP3    H225442   0.724   6.164   5.865 -0.3386  0.7893  0.1664
 1343TIP3   OH225443   5.617   0.393   5.708 -0.1630  0.1746  0.1445
 1343TIP3    H125444   5.591   0.438   5.789  0.1127  2.4205 -0.9304
 1343TIP3    H225445   5.558   0.429   5.641  0.1107 -1.0774 -0.8025
 1344TIP3   OH225446   1.944   6.626   6.335 -0.1597 -1.1004 -0.5918
 1344TIP3    H125447   1.973   6.617   6.426  1.0368 -1.8796 -1.0272
 1344TIP3    H225448   1.909   6.715   6.330 -1.7016 -1.5543  1.0006
 1345TIP3   OH225449   3.317   1.786  14.712  0.5075  0.2886 -0.3933
 1345TIP3    H125450   3.319   1.873  14.673  1.9134  0.3792 -0.1881
 1345TIP3    H225451   3.243   1.742  14.671 -0.1261  1.5262 -0.6076
 1346TIP3   OH225452   1.561   0.683   1.741  0.1055  0.0577  0.0593
 1346TIP3    H125453   1.485   0.736   1.718 -1.8522 -0.5533  4.1918
 1346TIP3    H225454   1.525   0.604   1.781  2.9876 -2.2978 -1.4879
 1347TIP3   OH225455   6.092   6.413   5.825 -0.2626  0.6649  0.4589
 1347TIP3    H125456   6.177   6.409   5.782  0.5977 -0.0321  2.1070
 1347TIP3    H225457   6.038   6.348   5.780  1.0538 -1.0791  1.2745
 1348TIP3   OH225458   3.272   2.751   3.781 -0.2049  0.5483  0.5762
 1348TIP3    H125459   3.313   2.825   3.826 -1.7868  0.3548  2.4568
 1348TIP3    H225460   3.276   2.680   3.844 -0.6019 -0.3613 -0.4046
 1349TIP3   OH225461   2.844   3.227   6.623 -0.0611  0.1027 -0.5230
 1349TIP3    H125462   2.892   3.157   6.579  0.1444  1.0401 -1.8641
 1349TIP3    H225463   2.854   3.302   6.565 -2.2165  0.6310 -0.2892
 1350TIP3   OH225464   2.662   5.399  17.017 -0.0330 -0.3218 -0.1988
 1350TIP3    H125465   2.747   5.428  16.983 -0.0450 -0.1508 -0.0870
 1350TIP3    H225466   2.618   5.480  17.043 -0.6211 -0.3280 -1.1353
 1351TIP3   OH225467   3.108   5.993  14.736 -0.9062 -0.2007 -0.1828
 1351TIP3    H125468   3.030   5.965  14.785 -1.7970  1.1920 -0.7539
 1351TIP3    H225469   3.178   5.935  14.767 -1.6741 -0.0810  1.9327
 1352TIP3   OH225470   5.263   6.428   2.408 -0.3676 -0.0261 -0.4648
 1352TIP3    H125471   5.181   6.388   2.378 -0.4137 -0.5322  0.2988
 1352TIP3    H225472   5.283   6.381   2.489  1.7762 -1.3701 -1.6772
 1353TIP3   OH225473   0.726   6.124   3.558 -0.3607 -0.1730 -0.0243
 1353TIP3    H125474   0.689   6.205   3.594  1.4610  0.1853  1.2030
 1353TIP3    H225475   0.699   6.056   3.619  0.2789 -0.0397  0.4217
 1354TIP3   OH225476   3.556   2.618   5.053  0.0746  0.0415 -0.3967
 1354TIP3    H125477   3.614   2.569   4.995  0.0546  0.2583 -0.6039
 1354TIP3    H225478   3.474   2.626   5.003  0.0800  0.2869 -0.3654
 1355TIP3   OH225479   5.534   5.413   4.061 -0.1353 -0.5977 -0.0508
 1355TIP3    H125480   5.605   5.352   4.082  0.6015 -0.2964 -1.4915
 1355TIP3    H225481   5.527   5.409   3.965 -2.9402 -1.5497  0.0956
 1356TIP3   OH225482   4.045   3.372  16.830  0.5248  0.4305 -0.3292
 1356TIP3    H125483   3.963   3.408  16.864 -0.2277 -0.1419 -1.4841
 1356TIP3    H225484   4.094   3.449  16.799 -0.2658  0.6559 -1.0576
 1357TIP3   OH225485   2.033   5.375  13.456 -0.1630 -0.1717  0.0456
 1357TIP3    H125486   2.090   5.400  13.528 -1.6257 -0.5916  1.3978
 1357TIP3    H225487   2.051   5.439  13.387  3.6710 -1.6307 -0.5902
 1358TIP3   OH225488   0.377   2.824  16.324  0.2570 -0.4056  0.1226
 1358TIP3    H125489   0.295   2.782  16.297 -0.5378  0.2697  1.3371
 1358TIP3    H225490   0.389   2.895  16.262 -0.3287 -0.2466  0.1797
 1359TIP3   OH225491   2.260   6.504  14.688 -0.3950 -0.3449  0.1312
 1359TIP3    H125492   2.287   6.428  14.636 -1.5714  0.9243 -2.4940
 1359TIP3    H225493   2.196   6.549  14.634 -1.0716  1.5924  2.3702
 1360TIP3   OH225494   5.101   3.444  15.388 -0.6643 -0.7977 -0.0565
 1360TIP3    H125495   5.100   3.353  15.419 -1.0413 -0.8903 -0.3286
 1360TIP3    H225496   5.028   3.448  15.326 -1.5454  0.0666  1.0030
 1361TIP3   OH225497   2.725   2.802  13.068 -0.2729 -0.0122 -0.2433
 1361TIP3    H125498   2.810   2.838  13.043 -0.8005  1.7491  0.2941
 1361TIP3    H225499   2.663   2.845  13.010 -1.0234  0.5802  0.9551
 1362TIP3   OH225500   4.791   3.771  16.578  0.4848 -0.7006  0.0544
 1362TIP3    H125501   4.815   3.816  16.497  0.6290 -0.7291  0.0823
 1362TIP3    H225502   4.874   3.747  16.618  0.4246 -0.1736  0.5005
 1363TIP3   OH225503   6.146   3.689   6.409 -0.1280 -0.1855 -0.2817
 1363TIP3    H125504   6.112   3.620   6.466 -0.4183  2.1283  2.5625
 1363TIP3    H225505   6.068   3.726   6.368 -0.1240 -0.4229 -0.5133
 1364TIP3   OH225506   2.165   0.597   5.660  0.0263  0.1000 -0.5349
 1364TIP3    H125507   2.157   0.539   5.736 -1.7355  1.6609  0.5449
 1364TIP3    H225508   2.087   0.652   5.663  0.9634  1.6407 -2.2823
 1365TIP3   OH225509   6.753   3.169  16.651  0.3145 -0.5618 -0.2262
 1365TIP3    H125510   6.769   3.080  16.620  1.0408 -0.4211 -0.2740
 1365TIP3    H225511   6.697   3.208  16.584  0.3706 -0.8383 -0.4379
 1366TIP3   OH225512   5.663   2.355  12.976  0.3044  0.2266 -1.0219
 1366TIP3    H125513   5.739   2.386  13.025  0.5679 -1.9698  0.0789
 1366TIP3    H225514   5.699   2.326  12.892  0.9632 -1.9050 -0.0705
 1367TIP3   OH225515   2.029   2.031   5.161 -0.3125 -0.2967 -0.1233
 1367TIP3    H125516   1.988   1.961   5.212 -0.0450 -0.9894 -0.8333
 1367TIP3    H225517   1.974   2.039   5.083  0.5283 -0.8060 -0.7861
 1368TIP3   OH225518   2.643   3.598  17.239 -0.0756 -0.1560 -0.5883
 1368TIP3    H125519   2.630   3.687  17.270 -0.4972 -0.6029  0.5845
 1368TIP3    H225520   2.736   3.581  17.251  0.1959  0.4434 -1.7409
 1369TIP3   OH225521   2.953   0.191  11.594  1.0109 -0.4543  0.2908
 1369TIP3    H125522   2.952   0.280  11.630  0.5393 -0.2852 -0.1322
 1369TIP3    H225523   2.940   0.134  11.671 -1.7817 -0.0221  0.2210
 1370TIP3   OH225524   5.429   3.264   1.628 -0.1746 -0.0866  0.2818
 1370TIP3    H125525   5.409   3.288   1.718  1.6916  2.0237  0.2129
 1370TIP3    H225526   5.519   3.232   1.631 -0.7492 -1.9666 -0.5693
 1371TIP3   OH225527   2.234   6.125   4.157  0.8731 -0.0897  0.2543
 1371TIP3    H125528   2.225   6.211   4.116 -0.7126 -0.1841  0.3492
 1371TIP3    H225529   2.173   6.069   4.110 -0.2339 -0.4521  2.0483
 1372TIP3   OH225530   6.342   0.643   0.461 -0.6304  0.4959  0.2718
 1372TIP3    H125531   6.302   0.561   0.433  0.2283 -0.4956  1.8235
 1372TIP3    H225532   6.347   0.637   0.557  0.5262  1.8433  0.3407
 1373TIP3   OH225533   5.828   5.974  15.354  0.0122 -0.3845 -0.7746
 1373TIP3    H125534   5.854   5.927  15.434 -0.5674 -0.9393 -0.9059
 1373TIP3    H225535   5.824   5.906  15.287 -0.2734 -0.0454 -1.1003
 1374TIP3   OH225536   0.597   5.095  13.741  0.3330 -0.1313  0.1812
 1374TIP3    H125537   0.517   5.059  13.778 -1.7292  2.8645 -0.9133
 1374TIP3    H225538   0.628   5.158  13.806 -0.7528  1.8378 -1.0812
 1375TIP3   OH225539   1.149   0.627   4.665 -0.1274  0.1013 -0.3856
 1375TIP3    H125540   1.220   0.689   4.683 -2.0056  1.4768  3.1883
 1375TIP3    H225541   1.106   0.662   4.586  0.1214  2.1969  0.3499
 1376TIP3   OH225542   4.720   3.355   3.941 -0.3306 -0.0413  0.3594
 1376TIP3    H125543   4.687   3.269   3.916  0.1748 -0.1366  0.0097
 1376TIP3    H225544   4.704   3.410   3.864 -0.5493  0.1478  0.5400
 1377TIP3   OH225545   0.867   2.581  12.237 -0.1747 -0.3099  0.5769
 1377TIP3    H125546   0.819   2.657  12.205 -0.0314 -0.7059 -0.6329
 1377TIP3    H225547   0.819   2.553  12.315 -2.3983 -1.1684 -1.0059
 1378TIP3   OH225548   5.850   0.933   6.240 -0.2947  0.1400  0.3184
 1378TIP3    H125549   5.839   1.015   6.289 -0.2828 -0.7045  1.8165
 1378TIP3    H225550   5.783   0.875   6.276 -0.3000 -0.5233 -0.7220
 1379TIP3   OH225551   5.159   3.854   4.856 -0.1930  0.1378  0.4470
 1379TIP3    H125552   5.186   3.796   4.927 -1.4677 -0.1034  0.7721
 1379TIP3    H225553   5.174   3.803   4.776  0.5541  0.1312  0.5854
 1380TIP3   OH225554   5.558   6.711   3.713  0.1856 -0.8269  0.6064
 1380TIP3    H125555   5.635   6.655   3.724  1.3231  0.5411 -0.0826
 1380TIP3    H225556   5.510   6.701   3.795  1.7686 -0.7441  1.5984
 1381TIP3   OH225557   4.621   6.275   1.559 -0.2824  0.3563 -0.4364
 1381TIP3    H125558   4.550   6.217   1.532  0.5833 -1.0651  0.2314
 1381TIP3    H225559   4.611   6.283   1.654  0.6331 -0.1522 -0.2795
 1382TIP3   OH225560   2.418   1.749   4.528 -0.0966 -0.0444  0.0195
 1382TIP3    H125561   2.338   1.731   4.576  0.7458 -0.2541  1.4150
 1382TIP3    H225562   2.400   1.829   4.478 -1.3714 -0.4731 -0.2344
 1383TIP3   OH225563   2.576   3.467  14.950 -0.1159 -0.0824 -0.0303
 1383TIP3    H125564   2.603   3.548  14.906  0.6101  0.6596  1.6408
 1383TIP3    H225565   2.658   3.432  14.987 -0.8222  0.0985  1.8349
 1384TIP3   OH225566   4.266   2.676   2.173  0.1882  0.2085 -0.8088
 1384TIP3    H125567   4.187   2.633   2.206  0.8227  0.0031  0.5431
 1384TIP3    H225568   4.338   2.620   2.204  0.8780  0.4741 -1.8825
 1385TIP3   OH225569   6.252   3.205   0.004 -0.2053  0.3926 -0.4206
 1385TIP3    H125570   6.252   3.110  -0.003 -2.5368  0.2084  0.9720
 1385TIP3    H225571   6.262   3.222   0.098 -1.8975  1.3980 -0.3831
 1386TIP3   OH225572   1.941   2.912   4.067 -0.5823  0.5693  0.2316
 1386TIP3    H125573   1.899   2.896   3.983  1.0928  0.3929 -0.6102
 1386TIP3    H225574   1.928   3.006   4.083 -0.5880  0.6770 -0.4006
 1387TIP3   OH225575   0.925   4.134   3.027  0.3192  0.2473  0.0272
 1387TIP3    H125576   1.006   4.095   3.059  0.2284 -0.2363 -0.3153
 1387TIP3    H225577   0.921   4.220   3.069  1.1148  0.3601 -0.1228
 1388TIP3   OH225578   1.247   1.153  15.818 -0.0172  0.0055 -0.2444
 1388TIP3    H125579   1.264   1.122  15.728  0.7588 -0.5771  0.0938
 1388TIP3    H225580   1.202   1.079  15.860 -2.2950  1.0264 -0.7259
 1389TIP3   OH225581   6.231   4.258  16.518  0.2190 -0.4337 -0.3216
 1389TIP3    H125582   6.268   4.243  16.605  2.7548  0.1016 -1.2197
 1389TIP3    H225583   6.307   4.263  16.460 -1.4113 -1.6278 -2.7357
 1390TIP3   OH225584   3.456   3.761   1.007 -0.4821 -0.1011 -0.0818
 1390TIP3    H125585   3.380   3.799   0.962 -0.8881 -0.1633  0.5251
 1390TIP3    H225586   3.418   3.715   1.082  0.3212  2.0055  1.7196
 1391TIP3   OH225587   4.598   2.354   4.897 -0.0374 -0.2990 -0.1491
 1391TIP3    H125588   4.624   2.374   4.988  0.3840 -0.7543 -0.1662
 1391TIP3    H225589   4.540   2.426   4.873  2.3284  1.5870 -0.5977
 1392TIP3   OH225590   3.030   6.532  14.564  0.1777 -0.6711  0.0591
 1392TIP3    H125591   3.111   6.534  14.616  1.3072 -0.2729 -1.6496
 1392TIP3    H225592   3.060   6.522  14.474 -1.7331 -1.1550 -0.5549
 1393TIP3   OH225593   2.900   0.719  15.302 -0.2738 -0.1050 -0.0372
 1393TIP3    H125594   2.944   0.728  15.387  1.0822  0.5417 -0.7644
 1393TIP3    H225595   2.876   0.627  15.297 -0.8086 -0.0567  1.2375
 1394TIP3   OH225596   2.371   1.190  12.151 -0.0952  0.0556  0.2618
 1394TIP3    H125597   2.323   1.273  12.151  1.0372  0.7817  2.6716
 1394TIP3    H225598   2.433   1.198  12.078 -1.8889  0.1015 -1.3330
 1395TIP3   OH225599   6.011   1.688  12.237  0.3533  0.5058  0.3614
 1395TIP3    H125600   5.982   1.683  12.328  0.1924  1.9286  0.4060
 1395TIP3    H225601   5.940   1.646  12.187  1.1663 -1.7518  0.9802
 1396TIP3   OH225602   6.171   4.898  15.677  0.2857  0.0258 -0.0649
 1396TIP3    H125603   6.214   4.842  15.611 -1.0497 -1.4693  0.2656
 1396TIP3    H225604   6.104   4.841  15.715 -1.6892  2.1099 -0.2438
 1397TIP3   OH225605   2.161   2.347  12.159 -0.3146  0.4323 -0.4565
 1397TIP3    H125606   2.225   2.399  12.207  1.0945 -1.9879  0.4993
 1397TIP3    H225607   2.083   2.346  12.215  0.1033  0.4731  0.1336
 1398TIP3   OH225608   0.668   0.383  14.995  0.8590 -0.2184  0.3813
 1398TIP3    H125609   0.734   0.451  14.983 -1.2217  1.7207 -0.9132
 1398TIP3    H225610   0.611   0.392  14.918 -0.6762 -2.0775  1.2274
 1399TIP3   OH225611   4.514   2.827   1.735  0.7605 -0.3419  0.2046
 1399TIP3    H125612   4.543   2.841   1.825 -1.3511  1.6650  0.6751
 1399TIP3    H225613   4.576   2.876   1.682 -0.1801  1.8649  0.9872
 1400TIP3   OH225614   2.372   3.128   3.020  0.2875 -0.3429  0.1122
 1400TIP3    H125615   2.413   3.078   2.948 -0.9665 -0.2325 -0.7060
 1400TIP3    H225616   2.391   3.219   2.998 -0.5551 -0.2799 -0.3848
 1401TIP3   OH225617   5.504   4.158   4.156 -0.0462 -0.2218  0.0445
 1401TIP3    H125618   5.594   4.156   4.189  0.3900 -2.2427 -1.0817
 1401TIP3    H225619   5.454   4.111   4.222  0.1601 -1.0717 -0.3904
 1402TIP3   OH225620   2.587   1.841   0.302  0.5594 -0.5122  0.0948
 1402TIP3    H125621   2.636   1.837   0.384 -0.1173  1.4376  0.6298
 1402TIP3    H225622   2.582   1.749   0.273  4.2696 -0.8897  0.1206
 1403TIP3   OH225623   3.511   0.932  14.737  0.1438 -0.7335  0.0928
 1403TIP3    H125624   3.471   1.019  14.733  1.6749 -0.0368 -0.7779
 1403TIP3    H225625   3.438   0.873  14.753 -1.2414  0.4714 -1.4870
 1404TIP3   OH225626   4.382   2.628  12.573 -0.1852  0.4431  0.1920
 1404TIP3    H125627   4.456   2.583  12.614 -0.3386  1.8562  2.1668
 1404TIP3    H225628   4.310   2.565  12.577 -0.3004  0.6397  2.5612
 1405TIP3   OH225629   1.141   1.842  13.288 -0.2933  0.0160  0.3935
 1405TIP3    H125630   1.104   1.847  13.200  0.4306 -0.5151  0.0433
 1405TIP3    H225631   1.189   1.924  13.299 -1.1152  0.4656  0.6380
 1406TIP3   OH225632   0.229   5.589   5.944  0.3639  0.2243  0.0287
 1406TIP3    H125633   0.294   5.572   5.875 -0.3869 -1.2215 -0.3775
 1406TIP3    H225634   0.145   5.588   5.898 -0.0711  0.3327  0.8086
 1407TIP3   OH225635   3.727   6.708  11.260 -0.3282  0.3202  0.3557
 1407TIP3    H125636   3.692   6.789  11.298 -1.7563 -0.2549  0.3389
 1407TIP3    H225637   3.739   6.728  11.167  1.4202  1.1570  0.7127
 1408TIP3   OH225638   4.340   1.862  10.791  0.3148  0.0289 -0.4180
 1408TIP3    H125639   4.245   1.855  10.783  0.3505 -0.6170 -0.3662
 1408TIP3    H225640   4.368   1.902  10.708  0.0263 -0.0910 -0.5749
 1409TIP3   OH225641   6.333   5.294  11.527  0.1303 -0.1864 -0.1806
 1409TIP3    H125642   6.251   5.325  11.567  1.0867  2.4700 -0.0828
 1409TIP3    H225643   6.314   5.294  11.433 -0.3528 -0.7952 -0.0895
 1410TIP3   OH225644   6.578   3.271   0.732  0.4734  0.5388 -0.0593
 1410TIP3    H125645   6.580   3.215   0.654  3.5166  1.3749 -0.7042
 1410TIP3    H225646   6.645   3.337   0.716  2.7890 -0.4768  4.1031
 1411TIP3   OH225647   2.384   4.151   5.556  0.6410  0.1279 -0.6997
 1411TIP3    H125648   2.313   4.181   5.614  0.3214 -0.0410 -1.0028
 1411TIP3    H225649   2.443   4.103   5.614  1.3984  1.6978 -0.1077
 1412TIP3   OH225650   2.086   3.844  11.818  0.3209 -0.3522 -0.0248
 1412TIP3    H125651   2.071   3.840  11.724  0.5640 -1.7594 -0.0320
 1412TIP3    H225652   2.001   3.822  11.857  0.3724 -0.3882  0.0684
 1413TIP3   OH225653   3.975   6.656   0.607 -0.6815 -0.0440  0.0836
 1413TIP3    H125654   3.885   6.682   0.624 -0.6133  0.8099 -0.8165
 1413TIP3    H225655   4.018   6.663   0.693 -0.8408  2.1798  0.0403
 1414TIP3   OH225656   2.123   5.317  11.233 -0.2065  0.5008 -0.6547
 1414TIP3    H125657   2.068   5.357  11.165  0.5247  0.5539 -1.2274
 1414TIP3    H225658   2.149   5.233  11.196 -0.3689  0.2182 -0.1394
 1415TIP3   OH225659   1.116   4.751   2.854 -0.0090  0.4942  0.2060
 1415TIP3    H125660   1.037   4.739   2.802 -0.0138 -1.6912  0.6046
 1415TIP3    H225661   1.129   4.845   2.857 -2.3063  0.8914 -0.3121
 1416TIP3   OH225662   3.270   4.436   5.778  0.2367  0.5463  0.0254
 1416TIP3    H125663   3.283   4.367   5.843 -0.9952  1.3808  1.2196
 1416TIP3    H225664   3.345   4.494   5.790  0.3168  0.3874  0.2978
 1417TIP3   OH225665   1.569   4.255   0.728  0.1572 -0.4181 -0.4942
 1417TIP3    H125666   1.523   4.335   0.753 -1.1192 -1.0151 -0.8352
 1417TIP3    H225667   1.575   4.204   0.809  1.1582  0.0757 -0.2298
 1418TIP3   OH225668   2.770   0.532  14.611  0.1323  0.6666  0.1521
 1418TIP3    H125669   2.740   0.540  14.520  0.3772  2.5019  0.1822
 1418TIP3    H225670   2.690   0.511  14.660 -0.3171  1.2355 -0.3100
 1419TIP3   OH225671   4.230   1.880   4.342 -0.4682  0.0498  0.8204
 1419TIP3    H125672   4.243   1.786   4.330 -2.3633 -0.0728 -0.9322
 1419TIP3    H225673   4.165   1.887   4.412  0.2288  0.1079  1.4706
 1420TIP3   OH225674   0.697   3.157  15.853 -0.0924  0.7946  0.1008
 1420TIP3    H125675   0.688   3.063  15.837  0.3526  0.9649 -1.2854
 1420TIP3    H225676   0.718   3.163  15.946 -0.0351 -0.4825  0.1942
 1421TIP3   OH225677   3.492   2.084   3.102 -0.3345  0.0182 -0.5989
 1421TIP3    H125678   3.429   2.067   3.033  0.3705 -2.0677 -0.7856
 1421TIP3    H225679   3.571   2.114   3.057 -0.4565  0.4502 -0.5339
 1422TIP3   OH225680   6.077   5.096  12.472  0.2423 -0.1223  0.0793
 1422TIP3    H125681   6.025   5.102  12.552 -0.1256 -1.2670 -0.0661
 1422TIP3    H225682   6.148   5.035  12.494 -0.6163 -1.5145 -0.8474
 1423TIP3   OH225683   2.964   0.006   0.138  0.3280  0.3565 -0.0334
 1423TIP3    H125684   2.922   0.077   0.187  0.8418  0.5775  0.0954
 1423TIP3    H225685   3.007  -0.048   0.206 -1.2544 -0.9061  0.0153
 1424TIP3   OH225686   5.072   5.520  13.556  0.3825 -0.2465  0.7310
 1424TIP3    H125687   5.095   5.456  13.489  2.7119  0.3216  0.9070
 1424TIP3    H225688   5.000   5.480  13.604 -1.8188 -0.4348 -2.4165
 1425TIP3   OH225689   0.868   2.941  16.274  0.0473 -0.3281 -0.0758
 1425TIP3    H125690   0.944   2.989  16.306  0.3795 -0.7713 -0.1941
 1425TIP3    H225691   0.891   2.849  16.284  1.0614 -0.5689 -3.5590
 1426TIP3   OH225692   1.727   2.951   1.447  0.2185 -0.2931  0.2387
 1426TIP3    H125693   1.674   3.028   1.466 -0.1564 -0.5565  0.2636
 1426TIP3    H225694   1.719   2.896   1.526 -0.6304 -0.9871 -0.3219
 1427TIP3   OH225695   2.194   5.820   3.891  0.2404  0.0109  0.0873
 1427TIP3    H125696   2.130   5.849   3.957  1.2308  2.9209 -0.1218
 1427TIP3    H225697   2.254   5.764   3.940 -0.4262  0.1265  1.0841
 1428TIP3   OH225698   1.156   3.922   4.870  0.1223  0.2082  0.1187
 1428TIP3    H125699   1.194   4.010   4.870 -0.3358  0.4047  0.0251
 1428TIP3    H225700   1.075   3.930   4.920 -0.2127 -0.0390 -0.3808
 1429TIP3   OH225701   1.186   5.535   0.570  1.0329  0.4201  0.1246
 1429TIP3    H125702   1.230   5.558   0.651  0.8171  0.1968  0.3050
 1429TIP3    H225703   1.130   5.461   0.592  0.2544  0.9569 -0.0084
 1430TIP3   OH225704   6.608   3.516   0.412  0.4289 -0.1675 -0.5316
 1430TIP3    H125705   6.573   3.427   0.420 -1.4100  0.6181  0.6213
 1430TIP3    H225706   6.703   3.504   0.420  0.1808 -1.9496  0.3875
 1431TIP3   OH225707   2.655   4.156   0.843  0.4328  0.8376  0.1289
 1431TIP3    H125708   2.665   4.165   0.748 -1.8925 -0.5590 -0.3112
 1431TIP3    H225709   2.581   4.212   0.865  0.7012  0.8350  1.0858
 1432TIP3   OH225710   1.128   4.209  14.135  0.3367  0.2804 -0.5072
 1432TIP3    H125711   1.214   4.178  14.162  0.4460  2.3728  1.8989
 1432TIP3    H225712   1.069   4.179  14.205 -0.3554  1.3365 -0.6206
 1433TIP3   OH225713   3.740   5.612  16.500  0.4242  0.3078  0.4062
 1433TIP3    H125714   3.716   5.697  16.536  0.7903  1.8915 -2.7764
 1433TIP3    H225715   3.656   5.570  16.481  0.2245  0.6337  0.5662
 1434TIP3   OH225716   3.996   1.053   6.648  0.0708 -0.0755 -0.3839
 1434TIP3    H125717   3.958   1.104   6.720  0.8594  0.1101 -0.0882
 1434TIP3    H225718   3.921   1.024   6.597 -0.5526 -0.8457  0.9349
 1435TIP3   OH225719   2.033   4.627  14.380 -0.0830 -0.0865  0.3696
 1435TIP3    H125720   2.008   4.632  14.472 -0.1497 -1.2388  0.4351
 1435TIP3    H225721   2.124   4.655  14.378 -0.2017  0.3261  0.7256
 1436TIP3   OH225722   3.975   4.750  14.272  0.5431  0.0813  0.0159
 1436TIP3    H125723   3.983   4.842  14.297 -0.0470  0.1651 -0.1062
 1436TIP3    H225724   3.995   4.701  14.352  4.5754  0.1905 -0.6879
 1437TIP3   OH225725   2.826   4.690  17.012 -0.1956 -0.2059 -0.3119
 1437TIP3    H125726   2.826   4.608  17.062  1.0931  0.0999  0.2313
 1437TIP3    H225727   2.891   4.676  16.942 -0.9168 -0.1060 -1.0157
 1438TIP3   OH225728   5.293   1.822  14.114  0.3718 -0.1453  0.1320
 1438TIP3    H125729   5.255   1.783  14.036 -1.7064 -0.0890  1.0702
 1438TIP3    H225730   5.350   1.753  14.149  0.3450 -0.6267 -0.7391
 1439TIP3   OH225731   5.022   0.899  12.770 -0.2611 -0.2184 -0.4863
 1439TIP3    H125732   5.048   0.988  12.745  0.0600 -0.4475 -0.9726
 1439TIP3    H225733   4.944   0.881  12.717 -1.1271  0.2712  0.5909
 1440TIP3   OH225734   3.083   3.068   3.886  0.4050 -0.4996 -0.2297
 1440TIP3    H125735   3.152   3.067   3.821  0.2536 -0.7032 -0.3895
 1440TIP3    H225736   3.093   3.152   3.931  0.2205 -0.1520 -0.8254
 1441TIP3   OH225737   5.286   4.864  15.747  0.2634  0.2393  0.4610
 1441TIP3    H125738   5.338   4.797  15.703  0.6794  1.5596 -1.1864
 1441TIP3    H225739   5.195   4.840  15.730  0.3831 -0.4359  0.7502
 1442TIP3   OH225740   3.627   5.635  16.906 -0.1911 -0.1025 -0.1220
 1442TIP3    H125741   3.696   5.605  16.845 -1.1233 -2.4615 -0.1375
 1442TIP3    H225742   3.654   5.723  16.931  3.1123 -1.0865  0.2527
 1443TIP3   OH225743   1.173   6.683  16.209  0.2711  0.0177 -0.6240
 1443TIP3    H125744   1.128   6.668  16.126  1.3118  0.2847 -1.2382
 1443TIP3    H225745   1.187   6.595  16.244 -1.8858 -0.0661  0.2479
 1444TIP3   OH225746   5.981   1.196  12.036 -0.4187 -0.0217 -0.0101
 1444TIP3    H125747   6.020   1.210  12.123  0.5293 -0.0241 -0.4230
 1444TIP3    H225748   5.957   1.103  12.035  1.5540 -0.5791 -0.5007
 1445TIP3   OH225749   4.392   3.478   3.543 -0.4992  0.4494  0.1460
 1445TIP3    H125750   4.402   3.573   3.537 -2.8642  0.9314  2.1374
 1445TIP3    H225751   4.309   3.465   3.590 -0.3857 -2.6145 -0.2595
 1446TIP3   OH225752   5.557   6.263  15.844  0.2251  0.2076  0.0912
 1446TIP3    H125753   5.505   6.295  15.770 -0.4858 -0.4685  0.2751
 1446TIP3    H225754   5.536   6.169  15.849  1.0560  0.0333  0.5140
 1447TIP3   OH225755   6.744   0.028   3.591  0.3728  0.0160  0.3014
 1447TIP3    H125756   6.666  -0.006   3.547 -0.2393 -0.3068  1.5978
 1447TIP3    H225757   6.733   0.123   3.591 -0.5914 -0.0724  1.4531
 1448TIP3   OH225758   0.004   4.177   5.214  0.2174  0.2970  0.1106
 1448TIP3    H125759   0.002   4.272   5.208 -0.0002  0.2676 -0.2858
 1448TIP3    H225760   0.094   4.152   5.191 -0.3555  0.2408 -2.2804
 1449TIP3   OH225761   4.237   2.340  11.294  0.1919 -0.2614 -0.6581
 1449TIP3    H125762   4.216   2.428  11.263 -2.8112 -0.7858 -0.3953
 1449TIP3    H225763   4.304   2.354  11.362  0.1138  1.7562 -0.9276
 1450TIP3   OH225764   0.041   2.218  16.672 -0.3926  0.0197 -0.3005
 1450TIP3    H125765  -0.042   2.184  16.640 -1.5666  0.3170  2.2328
 1450TIP3    H225766   0.056   2.172  16.755  1.8311  0.2049 -0.5220
 1451TIP3   OH225767   5.555   3.819  14.315 -0.2788 -0.4392  0.0476
 1451TIP3    H125768   5.559   3.839  14.222 -1.0864 -1.2217 -0.1623
 1451TIP3    H225769   5.462   3.824  14.337 -0.3367 -2.2392  0.3566
 1452TIP3   OH225770   5.936   6.126   0.298 -0.5940  0.2284  0.3028
 1452TIP3    H125771   5.928   6.213   0.258  0.0611  0.4659  0.6881
 1452TIP3    H225772   5.923   6.141   0.392  3.8870  0.6711  1.0769
 1453TIP3   OH225773   4.026   3.719   6.082  0.3218  0.2674  0.3649
 1453TIP3    H125774   3.973   3.668   6.144  0.0970 -2.0126 -1.5785
 1453TIP3    H225775   4.116   3.698   6.106  0.3436  1.5362  1.5558
 1454TIP3   OH225776   3.960   6.638   4.511 -0.4114  0.3473 -0.0647
 1454TIP3    H125777   3.975   6.709   4.449 -0.4326  1.3519  1.0538
 1454TIP3    H225778   3.865   6.627   4.511 -0.3287 -0.6866 -1.2928
 1455TIP3   OH225779   6.564   5.467  13.262 -0.3761  0.4549  0.0577
 1455TIP3    H125780   6.602   5.545  13.303 -1.0259  0.1368  1.3240
 1455TIP3    H225781   6.506   5.501  13.194  0.3954  1.0140 -0.3416
 1456TIP3   OH225782   6.039   5.910   0.174 -0.3320 -0.1349  0.4229
 1456TIP3    H125783   5.986   5.962   0.113 -0.8018  0.7518  1.5649
 1456TIP3    H225784   6.053   5.968   0.249  2.7133 -0.1071 -0.0404
 1457TIP3   OH225785   5.460   0.277  12.657 -0.2359  0.5681  0.3528
 1457TIP3    H125786   5.384   0.296  12.713 -0.7567  1.4733 -0.6335
 1457TIP3    H225787   5.422   0.239  12.578  0.3991  0.4681  0.0918
 1458TIP3   OH225788   2.626   3.073  16.412  0.5336 -0.5097  0.1817
 1458TIP3    H125789   2.707   3.121  16.392  0.1086 -0.0916 -0.5824
 1458TIP3    H225790   2.585   3.124  16.481  1.2410 -1.0941  1.0589
 1459TIP3   OH225791   6.297   6.188   3.724  0.1912  0.1046  0.1146
 1459TIP3    H125792   6.391   6.200   3.710  0.4965 -1.6119  0.5105
 1459TIP3    H225793   6.289   6.102   3.765 -1.4893  0.5988  0.9300
 1460TIP3   OH225794   0.959   2.589   1.402 -0.0737  0.5004 -0.1923
 1460TIP3    H125795   1.011   2.657   1.446  0.8894 -0.4509  0.2041
 1460TIP3    H225796   0.930   2.629   1.321  1.5646  0.9998 -0.5747
 1461TIP3   OH225797   2.809   6.022   2.883  0.1376  0.3772  0.1256
 1461TIP3    H125798   2.768   5.981   2.960  0.6532  2.5667  1.6730
 1461TIP3    H225799   2.856   5.951   2.840 -1.4211 -1.2366  0.9479
 1462TIP3   OH225800   1.050   4.432  15.607 -0.4663 -0.0294 -0.0899
 1462TIP3    H125801   1.112   4.362  15.584  0.1685  0.7106 -0.6899
 1462TIP3    H225802   1.001   4.397  15.681  0.9745 -0.4809  0.6937
 1463TIP3   OH225803   6.288   2.222  13.308 -0.1716  0.0722 -0.4996
 1463TIP3    H125804   6.218   2.253  13.250 -2.4936 -2.0299  0.9497
 1463TIP3    H225805   6.268   2.262  13.393  1.4985  0.8592 -0.4367
 1464TIP3   OH225806   6.558   2.356   5.325 -0.5970  0.4450  0.4166
 1464TIP3    H125807   6.577   2.323   5.413 -1.1005 -1.0836 -0.0266
 1464TIP3    H225808   6.480   2.410   5.337  1.9077  4.2283  1.6893
 1465TIP3   OH225809   4.659   4.375   6.081 -0.5988 -0.2646  0.2725
 1465TIP3    H125810   4.611   4.414   6.008 -1.5922  0.4389  1.2665
 1465TIP3    H225811   4.629   4.284   6.085 -0.6946 -0.2454 -0.0630
 1466TIP3   OH225812   3.310   3.057  14.678 -0.0792 -0.3105  0.0931
 1466TIP3    H125813   3.363   3.127  14.640 -0.3479  0.5873  1.3186
 1466TIP3    H225814   3.373   2.991  14.705  0.4961  0.9226  1.8969
 1467TIP3   OH225815   1.930   0.438  14.529 -0.8323  0.1356 -0.3091
 1467TIP3    H125816   2.010   0.392  14.501 -0.7020 -0.4603  0.9767
 1467TIP3    H225817   1.861   0.372  14.522 -1.0481  0.3832 -0.5380
 1468TIP3   OH225818   5.832   3.651  13.601 -0.2280  0.3241  0.4400
 1468TIP3    H125819   5.916   3.654  13.646 -0.2481 -0.9069  0.5738
 1468TIP3    H225820   5.767   3.662  13.671 -0.2849 -2.2687  0.8651
 1469TIP3   OH225821   2.347   4.147   3.812 -0.2757  0.2095 -0.3472
 1469TIP3    H125822   2.429   4.129   3.858 -1.0421 -0.0194  0.9543
 1469TIP3    H225823   2.320   4.233   3.845  0.4974  1.3102 -2.3735
 1470TIP3   OH225824   1.411   0.072  14.754  0.0720  0.3569  0.2726
 1470TIP3    H125825   1.396   0.082  14.660 -1.3899  0.9093  0.5331
 1470TIP3    H225826   1.337   0.118  14.795 -0.5745 -1.8023  1.6808
 1471TIP3   OH225827   1.384   5.874  11.160  0.3601 -0.4910  0.0291
 1471TIP3    H125828   1.400   5.823  11.240 -0.3940 -0.1753  0.3960
 1471TIP3    H225829   1.470   5.910  11.137  0.7310 -1.2081  0.2627
 1472TIP3   OH225830   5.404   3.387   3.038  0.0113 -0.2072 -0.3828
 1472TIP3    H125831   5.424   3.389   2.945 -1.5438 -0.6887 -0.7513
 1472TIP3    H225832   5.346   3.312   3.049  1.3775 -1.1086  1.2432
 1473TIP3   OH225833   1.600   0.935   3.248  0.5459 -0.4261  0.3107
 1473TIP3    H125834   1.674   0.967   3.195  1.2748 -0.1849  1.4379
 1473TIP3    H225835   1.582   0.848   3.213  0.4536  0.0529 -0.8810
 1474TIP3   OH225836   3.214   0.533   4.287 -0.1397  0.2730 -0.6155
 1474TIP3    H125837   3.230   0.534   4.382 -1.1076  0.0686 -0.4444
 1474TIP3    H225838   3.127   0.571   4.277 -0.0903  0.1819 -1.4195
 1475TIP3   OH225839   4.599   0.739   0.240 -0.2040 -0.0573  0.4925
 1475TIP3    H125840   4.587   0.687   0.161  5.1268  2.3489 -2.4053
 1475TIP3    H225841   4.539   0.814   0.227 -0.9174 -0.7132 -0.1571
 1476TIP3   OH225842   2.030   3.229   4.134  0.3356  0.5876  0.2275
 1476TIP3    H125843   1.998   3.286   4.065  0.6805 -0.8506 -1.1804
 1476TIP3    H225844   1.950   3.197   4.177  0.1010  1.1594  0.2204
 1477TIP3   OH225845   3.351   5.457  13.758  0.5567  0.1726 -0.7085
 1477TIP3    H125846   3.421   5.498  13.807  0.4948 -1.0980  0.4937
 1477TIP3    H225847   3.396   5.401  13.694  0.6499 -0.0964 -0.4112
 1478TIP3   OH225848   5.340   4.600   5.725 -0.7417  0.2039 -0.2335
 1478TIP3    H125849   5.428   4.635   5.709 -0.0142 -1.4425 -0.0095
 1478TIP3    H225850   5.307   4.653   5.798  0.6346 -0.0301  0.6158
 1479TIP3   OH225851   4.452   1.926  15.873  0.5172 -0.1301 -0.1953
 1479TIP3    H125852   4.509   1.849  15.882  2.2864  1.0081 -1.1025
 1479TIP3    H225853   4.380   1.908  15.933  2.2283 -1.2855  1.6904
 1480TIP3   OH225854   4.923   5.806  12.917 -0.2711 -0.2204 -0.2007
 1480TIP3    H125855   4.943   5.785  12.826  0.2330  0.6542 -0.3029
 1480TIP3    H225856   4.942   5.899  12.925  0.2085 -0.3965  0.9331
 1481TIP3   OH225857   3.444   5.055   0.174 -0.1077 -0.6578 -0.4207
 1481TIP3    H125858   3.468   5.136   0.220  0.3328 -0.6199 -0.7079
 1481TIP3    H225859   3.444   5.080   0.082 -2.0648 -0.4473 -0.4115
 1482TIP3   OH225860   1.869   0.998  15.960 -0.1965 -0.4427 -0.4151
 1482TIP3    H125861   1.927   0.923  15.942 -1.0573 -0.9159 -1.3061
 1482TIP3    H225862   1.887   1.059  15.888  0.0492 -0.0617 -0.0324
 1483TIP3   OH225863   1.764   1.530  15.357  0.8089 -0.1205  1.2130
 1483TIP3    H125864   1.686   1.540  15.302  1.1033 -0.8587  0.6587
 1483TIP3    H225865   1.799   1.445  15.334  2.3328  0.6042  0.7573
 1484TIP3   OH225866   5.437   2.103  16.110 -0.2529  0.3420 -0.1398
 1484TIP3    H125867   5.458   2.193  16.086  1.4033  0.3563  1.1843
 1484TIP3    H225868   5.342   2.104  16.124 -0.5128  1.4586 -1.7173
 1485TIP3   OH225869   2.500   0.935   4.286 -0.0875  0.1130  0.2763
 1485TIP3    H125870   2.448   1.001   4.332  1.9747  0.9637  1.5072
 1485TIP3    H225871   2.468   0.852   4.321 -1.5393  0.5011 -0.0287
 1486TIP3   OH225872   1.421   5.522  10.790 -0.1386 -0.1869 -0.2084
 1486TIP3    H125873   1.509   5.505  10.756  0.3124  1.1350  0.2426
 1486TIP3    H225874   1.414   5.617  10.794 -1.5562 -0.2671 -0.1175
 1487TIP3   OH225875   5.132   0.047   4.528  0.2335  0.0875  0.4085
 1487TIP3    H125876   5.146   0.132   4.572  1.6457  0.1733 -0.1585
 1487TIP3    H225877   5.177  -0.016   4.584 -0.7961 -0.3090  0.8146
 1488TIP3   OH225878   4.114   1.842   2.428 -0.6434 -0.2181  0.0479
 1488TIP3    H125879   4.093   1.766   2.483  0.7025 -0.3820  0.3711
 1488TIP3    H225880   4.205   1.862   2.449 -0.3038  0.1471 -1.6256
 1489TIP3   OH225881   5.502   4.294  12.512  0.1719  0.5985 -0.0677
 1489TIP3    H125882   5.423   4.253  12.548  0.7945 -2.4837 -1.8600
 1489TIP3    H225883   5.519   4.369  12.569 -2.3628 -0.3743  2.1326
 1490TIP3   OH225884   5.648   2.505  12.645 -0.5772 -0.4669  0.3977
 1490TIP3    H125885   5.592   2.440  12.687 -0.0745 -1.9824 -1.1500
 1490TIP3    H225886   5.736   2.468  12.651 -0.1874  0.3748  0.0356
 1491TIP3   OH225887   3.283   3.027  11.996 -0.4204 -0.2790  0.4865
 1491TIP3    H125888   3.193   3.044  11.967 -0.0673  1.1461  0.1801
 1491TIP3    H225889   3.324   2.985  11.920 -0.0355  1.7192 -0.4574
 1492TIP3   OH225890   3.524   1.444  13.292 -0.1488  0.7480 -0.3974
 1492TIP3    H125891   3.571   1.516  13.251  1.0563  0.7165  0.8641
 1492TIP3    H225892   3.487   1.394  13.219  2.0459  0.5987 -1.4661
 1493TIP3   OH225893   6.326   3.946   5.807  0.0615  0.4799 -0.1958
 1493TIP3    H125894   6.271   3.962   5.884  1.3322 -0.8388  1.0582
 1493TIP3    H225895   6.409   3.987   5.829 -0.7607  3.8838 -2.7465
 1494TIP3   OH225896   6.556   5.462  15.927  0.3505 -0.2625 -0.3508
 1494TIP3    H125897   6.596   5.377  15.908 -0.7038 -0.7043 -0.7072
 1494TIP3    H225898   6.618   5.506  15.985  1.0651 -1.1434 -0.4238
 1495TIP3   OH225899   4.861   4.609  16.462 -0.2396 -0.8837 -0.2245
 1495TIP3    H125900   4.793   4.573  16.518  0.0485 -1.7925 -0.4376
 1495TIP3    H225901   4.909   4.670  16.519 -1.5516  0.1829 -0.2321
 1496TIP3   OH225902   3.490   2.429   0.104  0.3169  0.1703  0.0436
 1496TIP3    H125903   3.437   2.501   0.140 -0.1637  0.0245 -0.3653
 1496TIP3    H225904   3.547   2.403   0.177 -1.6914 -1.1418  1.2372
 1497TIP3   OH225905   1.387   3.964  10.479 -0.3443 -0.6597 -0.2519
 1497TIP3    H125906   1.354   4.048  10.447  1.0860 -0.2661 -0.7387
 1497TIP3    H225907   1.308   3.912  10.495 -1.2538  0.7585  0.0397
 1498TIP3   OH225908   0.171   5.142  16.003 -0.7104  0.6022 -0.0677
 1498TIP3    H125909   0.190   5.114  15.914 -2.0576  0.1959 -0.2412
 1498TIP3    H225910   0.248   5.193  16.029  1.4007 -2.3390 -0.0872
 1499TIP3   OH225911   2.612   6.552  17.201 -0.0827  0.2573  0.7095
 1499TIP3    H125912   2.668   6.507  17.138  0.6742  0.0710  1.4995
 1499TIP3    H225913   2.625   6.645  17.182  0.4429  0.2114  0.8440
 1500TIP3   OH225914   2.950   2.828   1.115  0.1165 -0.5383 -0.2715
 1500TIP3    H125915   2.958   2.771   1.191  0.1568  0.4376  0.4866
 1500TIP3    H225916   2.871   2.879   1.132 -0.0903 -0.5792 -1.0780
 1501TIP3   OH225917   1.300   6.308  11.847  1.1158  0.2375  0.0330
 1501TIP3    H125918   1.383   6.354  11.834 -0.7197  3.8641 -0.3012
 1501TIP3    H225919   1.263   6.349  11.925  0.1723 -2.2731  0.9930
 1502TIP3   OH225920   0.389   5.859   5.254 -0.5744  0.3706  0.2772
 1502TIP3    H125921   0.317   5.811   5.214  0.7279 -0.7797 -0.7700
 1502TIP3    H225922   0.366   5.951   5.243 -1.8757  0.0302 -0.0030
 1503TIP3   OH225923   3.500   1.137  15.733 -0.0303  0.0377 -0.1634
 1503TIP3    H125924   3.500   1.102  15.822  1.1032  0.0807 -0.1265
 1503TIP3    H225925   3.524   1.063  15.678  1.5650  0.5205 -0.1706
 1504TIP3   OH225926   4.292   4.165   3.972  0.0151  0.1347 -1.0869
 1504TIP3    H125927   4.319   4.217   4.048 -0.3914  0.0101 -0.8548
 1504TIP3    H225928   4.198   4.181   3.964 -0.8312 -3.0552  0.9596
 1505TIP3   OH225929   4.421   5.454  12.633 -0.3370 -0.2045 -0.3176
 1505TIP3    H125930   4.329   5.469  12.611  0.1098 -0.4683 -2.6866
 1505TIP3    H225931   4.459   5.541  12.641 -0.6922 -0.0972  0.1901
 1506TIP3   OH225932   6.173   0.661  13.182 -0.5364  0.3295 -0.1955
 1506TIP3    H125933   6.185   0.587  13.240 -0.0306 -0.8849 -1.7730
 1506TIP3    H225934   6.257   0.706  13.182 -0.0966 -0.4567 -0.9898
 1507TIP3   OH225935   5.783   3.319   0.252  0.0832 -0.0108 -0.2200
 1507TIP3    H125936   5.716   3.251   0.247 -0.5294  0.6150 -0.6863
 1507TIP3    H225937   5.753   3.378   0.321  0.4493 -0.0320 -0.0382
 1508TIP3   OH225938   3.561   2.461  12.894  0.3813 -0.9663 -0.3516
 1508TIP3    H125939   3.532   2.552  12.886 -0.6010 -1.3381 -1.3517
 1508TIP3    H225940   3.633   2.464  12.956 -0.0025  0.4174  0.0651
 1509TIP3   OH225941   5.632   5.676   4.106  1.2068 -0.5273  0.5290
 1509TIP3    H125942   5.590   5.590   4.102  1.6253 -0.6930 -0.7638
 1509TIP3    H225943   5.705   5.663   4.166  0.2973 -0.6167  1.6570
 1510TIP3   OH225944   0.316   2.102   1.506  0.9918 -0.2959  0.4816
 1510TIP3    H125945   0.309   2.172   1.442  1.2887 -0.1086  0.6524
 1510TIP3    H225946   0.257   2.034   1.473  0.7270  0.0175  0.2993
 1511TIP3   OH225947   3.589   6.221  15.786 -0.0277 -0.5268  0.2841
 1511TIP3    H125948   3.554   6.268  15.710 -0.4199 -0.8362  0.2720
 1511TIP3    H225949   3.628   6.141  15.749  2.9559  0.9434 -0.0306
 1512TIP3   OH225950   3.739   1.524   1.401 -0.0413  0.4574  0.7681
 1512TIP3    H125951   3.665   1.464   1.399  1.1236 -1.0026 -0.1774
 1512TIP3    H225952   3.716   1.592   1.337 -0.5345 -0.0204  0.4286
 1513TIP3   OH225953   5.907   4.839   5.901 -0.5277 -0.4069 -0.3248
 1513TIP3    H125954   5.872   4.928   5.906  0.4940 -0.0425  1.3947
 1513TIP3    H225955   5.952   4.835   5.816 -0.4024  0.8037 -0.3285
 1514TIP3   OH225956   1.694   0.652  13.227  0.3391  0.5532 -0.2408
 1514TIP3    H125957   1.665   0.575  13.276 -0.1848  0.5077 -0.6157
 1514TIP3    H225958   1.748   0.701  13.289  1.9483 -0.8730 -0.4415
 1515TIP3   OH225959   2.068   2.828   4.794  0.2369 -0.5321  0.4263
 1515TIP3    H125960   2.158   2.826   4.826  0.0674  1.7086  1.2178
 1515TIP3    H225961   2.021   2.880   4.859 -1.0865  0.4625 -1.2471
 1516TIP3   OH225962   2.877   4.287  11.467 -0.1789  0.1105  0.3629
 1516TIP3    H125963   2.880   4.201  11.426  2.0999 -0.2257  1.1131
 1516TIP3    H225964   2.785   4.299  11.490 -0.9648 -1.1087 -1.7704
 1517TIP3   OH225965   3.055   3.001  13.275  0.2826 -0.1132 -0.4808
 1517TIP3    H125966   2.992   3.023  13.206  0.1683 -1.9467 -1.0173
 1517TIP3    H225967   3.024   3.047  13.352 -0.8238  0.2668 -1.1357
 1518TIP3   OH225968   0.085   3.982  14.144  0.4621  0.7580 -0.0876
 1518TIP3    H125969   0.089   3.958  14.051 -1.0137  0.8072 -0.1876
 1518TIP3    H225970   0.163   3.942  14.182 -0.1779 -1.3769 -0.8720
 1519TIP3   OH225971   2.690   2.741   4.073 -0.3210  0.0094 -0.4127
 1519TIP3    H125972   2.703   2.746   4.168 -0.6291  1.8312 -0.4259
 1519TIP3    H225973   2.761   2.795   4.037  2.0575 -3.5237 -1.5057
 1520TIP3   OH225974   0.871   5.104  11.256  0.1615  0.3698 -0.1732
 1520TIP3    H125975   0.912   5.037  11.310 -3.2115  0.4673  2.9345
 1520TIP3    H225976   0.804   5.057  11.206 -1.0031  1.0757  0.6557
 1521TIP3   OH225977   4.197   1.263   3.559  0.4570  0.0844  0.5598
 1521TIP3    H125978   4.184   1.350   3.597  0.8331 -0.5021  2.0925
 1521TIP3    H225979   4.137   1.260   3.485 -0.5013  1.1813  1.2671
 1522TIP3   OH225980   1.384   6.491  16.271  0.1444 -0.2302 -0.2737
 1522TIP3    H125981   1.465   6.441  16.270  0.7156  0.6233 -2.0554
 1522TIP3    H225982   1.405   6.571  16.319 -0.1277 -0.7267  0.6798
 1523TIP3   OH225983   3.834   3.539  15.734 -0.2347 -0.2956 -0.2990
 1523TIP3    H125984   3.817   3.596  15.658 -1.3024  1.3518  1.1105
 1523TIP3    H225985   3.902   3.584  15.784  0.2691 -1.2359 -0.1037
 1524TIP3   OH225986   0.623   5.242  12.412 -0.0460  0.1219  0.0993
 1524TIP3    H125987   0.670   5.235  12.496 -0.1949 -3.3386  0.0307
 1524TIP3    H225988   0.546   5.186  12.423 -0.0691 -0.4189 -2.3126
 1525TIP3   OH225989   3.368   4.422   1.521  0.1719 -0.6588  0.0036
 1525TIP3    H125990   3.281   4.427   1.481  0.2238 -2.7696 -0.4940
 1525TIP3    H225991   3.359   4.356   1.589  1.4473 -1.1631 -0.2871
 1526TIP3   OH225992   5.010   5.026   1.464 -0.4203  0.1203  0.4561
 1526TIP3    H125993   5.029   5.109   1.421  0.7451 -0.2641  0.2066
 1526TIP3    H225994   5.092   4.977   1.461 -0.6730 -0.4502  1.9491
 1527TIP3   OH225995   3.726   4.878   3.276  0.4393 -0.1220 -0.8188
 1527TIP3    H125996   3.819   4.873   3.252  0.3327  0.1182 -1.2765
 1527TIP3    H225997   3.713   4.970   3.300  0.6692 -0.4455  0.6846
 1528TIP3   OH225998   2.336   0.456   0.825  0.2733 -0.1333 -0.0254
 1528TIP3    H125999   2.324   0.436   0.732  1.5879  1.1654 -0.5237
 1528TIP3    H226000   2.270   0.404   0.870 -0.0659 -1.1713 -1.6485
 1529TIP3   OH226001   3.514   6.166  16.636  0.2667  0.1797  0.4194
 1529TIP3    H126002   3.449   6.233  16.613  1.0111  1.0075  0.6654
 1529TIP3    H226003   3.515   6.164  16.731  0.9876  0.5762  0.4301
 1530TIP3   OH226004   6.615   1.559  14.167 -0.1084 -0.1974  0.7600
 1530TIP3    H126005   6.536   1.609  14.187 -0.7166 -0.6403 -0.4711
 1530TIP3    H226006   6.610   1.481  14.223  0.5392  0.7595  2.2362
 1531TIP3   OH226007   1.438   0.329   0.017 -0.0321 -0.3188 -0.8717
 1531TIP3    H126008   1.392   0.408   0.045 -1.2913 -1.4604  0.4525
 1531TIP3    H226009   1.443   0.335  -0.078 -2.1398  0.2825 -0.9814
 1532TIP3   OH226010   0.676   0.565  15.450 -0.4353  0.1979 -0.6275
 1532TIP3    H126011   0.633   0.482  15.434 -0.5822  0.5895 -2.5022
 1532TIP3    H226012   0.605   0.629  15.456 -0.2472  0.4697 -1.2062
 1533TIP3   OH226013   6.181   6.207  13.145 -0.0633 -0.3123 -0.1575
 1533TIP3    H126014   6.163   6.227  13.053 -0.1270 -2.0569 -0.5565
 1533TIP3    H226015   6.097   6.176  13.180  0.2189 -0.7219  0.1754
 1534TIP3   OH226016   2.992   6.239  12.692  0.7098 -0.2436  0.0148
 1534TIP3    H126017   3.015   6.318  12.643 -0.9658  1.4578  1.7867
 1534TIP3    H226018   2.900   6.222  12.669 -0.2680  0.8600  2.7095
 1535TIP3   OH226019   2.307   5.454  13.509  0.1731  0.5434 -0.0644
 1535TIP3    H126020   2.333   5.445  13.600 -0.2505 -0.0094  0.0091
 1535TIP3    H226021   2.365   5.395  13.461 -0.3023  0.0312 -0.0172
 1536TIP3   OH226022   0.869   1.300   5.535  0.5283 -0.3916 -0.8057
 1536TIP3    H126023   0.800   1.234   5.526  2.1564 -2.0912 -1.4580
 1536TIP3    H226024   0.939   1.255   5.581  2.1213  0.5299 -2.2215
 1537TIP3   OH226025   1.014   5.401   3.424  0.0071  0.0095  0.2204
 1537TIP3    H126026   1.069   5.324   3.411  1.4984  0.7093  2.0310
 1537TIP3    H226027   0.977   5.390   3.511 -1.3187  0.4464 -0.2609
 1538TIP3   OH226028   6.671   4.091  15.609  0.2094 -0.0427 -0.3462
 1538TIP3    H126029   6.625   4.015  15.645 -2.0272  0.9498 -0.9495
 1538TIP3    H226030   6.675   4.074  15.515  1.4191 -0.2566 -0.2716
 1539TIP3   OH226031   0.632   0.541  12.411  0.2886 -0.0739 -0.0400
 1539TIP3    H126032   0.691   0.466  12.406  0.5130  0.0958  0.0523
 1539TIP3    H226033   0.545   0.502  12.419  0.4911 -0.3356  1.0878
 1540TIP3   OH226034   2.230   3.509   2.070  0.0347  0.1859 -0.1674
 1540TIP3    H126035   2.135   3.510   2.069  0.0084  2.6773  0.0369
 1540TIP3    H226036   2.253   3.419   2.097 -2.2248 -0.2896  0.3360
 1541TIP3   OH226037   1.572   2.840  15.192  0.0960 -0.1252 -0.2451
 1541TIP3    H126038   1.524   2.761  15.167  0.0150  0.4369 -2.0232
 1541TIP3    H226039   1.536   2.909  15.137 -0.1291  1.2890  1.5563
 1542TIP3   OH226040   3.920   3.236   2.371  0.2086 -0.5011 -0.1019
 1542TIP3    H126041   3.902   3.154   2.417  0.1534 -0.3828  0.0869
 1542TIP3    H226042   3.865   3.233   2.294 -0.7984 -0.0423  0.5795
 1543TIP3   OH226043   3.788   0.809  16.696 -0.5959 -0.9098 -0.4029
 1543TIP3    H126044   3.808   0.760  16.616  1.4684 -0.3887 -0.2668
 1543TIP3    H226045   3.745   0.888  16.666 -0.2711 -0.9415 -0.9598
 1544TIP3   OH226046   2.470   0.056   4.055  0.8552  0.0157 -0.6912
 1544TIP3    H126047   2.496   0.022   3.969  0.1675 -1.8449 -0.1951
 1544TIP3    H226048   2.412   0.129   4.034  1.5121  0.2574 -1.7979
 1545TIP3   OH226049   2.686   5.722  11.561 -0.1172 -1.1027  0.5680
 1545TIP3    H126050   2.760   5.669  11.532  2.3090  2.5877 -0.6574
 1545TIP3    H226051   2.638   5.743  11.481  0.3450  0.3882  0.6530
 1546TIP3   OH226052   5.587   0.174  10.685 -0.0746 -0.0835 -0.3240
 1546TIP3    H126053   5.491   0.174  10.679  0.0108  0.3910 -1.9020
 1546TIP3    H226054   5.611   0.082  10.671 -0.2852 -0.1946  0.0141
 1547TIP3   OH226055   0.130   4.173  17.016  0.1995  0.3174 -0.2369
 1547TIP3    H126056   0.178   4.141  17.092  1.9537  0.9591 -1.0332
 1547TIP3    H226057   0.195   4.218  16.963 -1.4663  2.0822 -0.9172
 1548TIP3   OH226058   1.112   3.819  15.583 -0.1976 -0.3439  0.9486
 1548TIP3    H126059   1.054   3.854  15.515  0.8289  1.5612  0.9657
 1548TIP3    H226060   1.065   3.837  15.665 -1.1253 -2.0250  0.8371
 1549TIP3   OH226061   4.976   0.573   2.287  0.3386 -0.1355  0.0340
 1549TIP3    H126062   4.988   0.478   2.296  0.8861  0.0208  1.2345
 1549TIP3    H226063   5.045   0.601   2.228  2.6418 -0.0064  2.5992
 1550TIP3   OH226064   5.222   6.611  16.351  0.1592  0.3841  0.2136
 1550TIP3    H126065   5.208   6.630  16.443 -0.5432  1.2594 -0.0621
 1550TIP3    H226066   5.234   6.697  16.310 -1.3218  0.1518 -0.7847
 1551TIP3   OH226067   5.015   5.068  13.139  0.3417  0.5090 -0.3014
 1551TIP3    H126068   5.110   5.077  13.142  0.5831 -1.0656 -1.7703
 1551TIP3    H226069   4.988   5.123  13.065 -0.0179  1.6220  0.6286
 1552TIP3   OH226070   5.316   5.245   6.054  0.2070  0.4534 -0.1837
 1552TIP3    H126071   5.364   5.321   6.088 -0.9598  0.7702  0.8323
 1552TIP3    H226072   5.317   5.182   6.126 -1.0227  0.5328 -0.0843
 1553TIP3   OH226073   0.467   3.443   4.675  0.6697  0.0674 -0.0407
 1553TIP3    H126074   0.472   3.386   4.598  0.2390 -0.2903  0.1936
 1553TIP3    H226075   0.395   3.408   4.727  1.8576 -0.5724  1.2502
 1554TIP3   OH226076   4.193   5.817  14.130 -0.5146  0.6716 -0.1020
 1554TIP3    H126077   4.101   5.792  14.133  0.1651 -2.1749 -0.6669
 1554TIP3    H226078   4.208   5.864  14.212 -2.1020 -0.2510  0.7581
 1555TIP3   OH226079   1.770   1.512  10.786 -0.3906  0.6767 -0.0659
 1555TIP3    H126080   1.864   1.505  10.799 -0.2683 -0.2744 -1.3067
 1555TIP3    H226081   1.756   1.602  10.758  0.0873  0.9293  0.4736
 1556TIP3   OH226082   4.710   0.603  12.847 -0.1729  0.6528  0.3189
 1556TIP3    H126083   4.806   0.604  12.844 -0.0624 -1.2719  1.4670
 1556TIP3    H226084   4.688   0.658  12.922  0.0496  1.0602  0.0847
 1557TIP3   OH226085   5.405   2.624  13.002  0.3920  0.1009  0.2883
 1557TIP3    H126086   5.499   2.644  13.007  0.6942 -0.1788 -2.7399
 1557TIP3    H226087   5.400   2.529  13.017  0.3209  0.3705  2.2697
 1558TIP3   OH226088   4.008   1.931   1.738  0.2020  0.2254 -0.8125
 1558TIP3    H126089   4.021   1.841   1.706 -0.7425  0.0300 -0.6615
 1558TIP3    H226090   4.075   1.982   1.692  1.4475 -0.7202 -0.1393
 1559TIP3   OH226091   0.422   3.964  11.774  1.0835  0.2517 -0.7667
 1559TIP3    H126092   0.349   3.903  11.761  1.2866 -0.0887 -0.3352
 1559TIP3    H226093   0.496   3.923  11.729  1.2341  0.1498 -0.4289
 1560TIP3   OH226094   4.976   6.531   3.338 -0.2068 -0.0293  0.3128
 1560TIP3    H126095   5.002   6.439   3.338  1.5934  0.3460 -2.9731
 1560TIP3    H226096   5.058   6.580   3.334 -1.1694  1.6524 -0.1209
 1561TIP3   OH226097   4.312   0.012   1.262  0.0592 -0.3137  0.3398
 1561TIP3    H126098   4.303  -0.036   1.344 -0.6809 -0.4913  0.1577
 1561TIP3    H226099   4.234   0.068   1.258 -1.2293 -2.1133 -1.4144
 1562TIP3   OH226100   3.134   5.564   3.868  0.4959 -0.2357 -0.0774
 1562TIP3    H126101   3.131   5.495   3.933 -1.1415 -1.3150 -1.2330
 1562TIP3    H226102   3.076   5.632   3.902 -1.4089 -1.3520 -0.9345
 1563TIP3   OH226103   0.566   3.533  17.263 -0.0195 -0.4722 -0.2302
 1563TIP3    H126104   0.578   3.504  17.353  0.0020 -0.5322 -0.2521
 1563TIP3    H226105   0.649   3.574  17.240 -0.5025  0.7862  0.2269
 1564TIP3   OH226106   3.900   0.056  12.389  0.5671 -0.0992 -0.8040
 1564TIP3    H126107   3.887   0.096  12.476 -0.2378 -1.1794 -0.4079
 1564TIP3    H226108   3.992   0.031  12.388  0.6041 -0.0024 -0.2947
 1565TIP3   OH226109   2.223   4.419  13.877 -0.3750 -0.0770 -0.3695
 1565TIP3    H126110   2.145   4.466  13.904  0.4563  0.5583  1.0526
 1565TIP3    H226111   2.280   4.486  13.840 -0.5956 -0.5820 -1.6771
 1566TIP3   OH226112   6.433   1.350  16.286  0.2707 -0.2997 -0.0422
 1566TIP3    H126113   6.476   1.369  16.369 -2.1126 -0.9873  1.4727
 1566TIP3    H226114   6.433   1.254  16.280 -1.0296 -0.3217  0.0413
 1567TIP3   OH226115   5.766   1.120  13.733  0.3799  0.0825  0.0926
 1567TIP3    H126116   5.775   1.213  13.715  4.1417 -0.5053 -2.0541
 1567TIP3    H226117   5.742   1.081  13.649 -0.4540 -0.9930  0.7923
 1568TIP3   OH226118   0.768   0.318  16.606 -0.3564 -0.5980  0.0697
 1568TIP3    H126119   0.777   0.315  16.510  0.9360 -0.2544  0.1523
 1568TIP3    H226120   0.824   0.391  16.632 -0.4700 -0.8770  1.1189
 1569TIP3   OH226121   3.993   5.373  13.716  0.4007 -0.7220 -0.2474
 1569TIP3    H126122   4.017   5.284  13.692  1.9487 -0.6490  0.8943
 1569TIP3    H226123   3.926   5.398  13.652  1.7215 -1.7949 -2.1595
 1570TIP3   OH226124   1.291   3.116   2.169 -0.7701 -0.1569 -0.6633
 1570TIP3    H126125   1.321   3.134   2.080 -0.1755 -0.5315 -0.5482
 1570TIP3    H226126   1.332   3.032   2.191  2.2159  1.6167  1.3147
 1571TIP3   OH226127   6.222   1.658   0.880 -0.3391 -0.1739  0.3257
 1571TIP3    H126128   6.182   1.572   0.865  0.4771 -0.8568  1.7834
 1571TIP3    H226129   6.234   1.695   0.793 -3.0030 -0.4331 -0.2217
 1572TIP3   OH226130   2.787   1.212   3.954  0.6454  0.5820 -0.6128
 1572TIP3    H126131   2.845   1.171   3.890  1.4719  2.4648 -1.1279
 1572TIP3    H226132   2.750   1.288   3.909 -0.5225  0.6645  0.4253
 1573TIP3   OH226133   3.992   6.130  15.532  0.1632 -0.2892 -0.2496
 1573TIP3    H126134   4.000   6.152  15.625  0.2539 -2.3044  0.2659
 1573TIP3    H226135   3.898   6.117  15.519 -0.1506  2.1543 -1.0473
 1574TIP3   OH226136   1.767   1.252   0.481  0.1955 -0.2901 -0.1240
 1574TIP3    H126137   1.735   1.274   0.393  1.0063 -0.5025 -0.4863
 1574TIP3    H226138   1.755   1.157   0.488 -2.4003  0.0456  1.0669
 1575TIP3   OH226139   0.389   1.418   3.655 -0.0391  0.4295 -0.1292
 1575TIP3    H126140   0.400   1.497   3.707  1.5154  0.6848 -0.7843
 1575TIP3    H226141   0.294   1.406   3.649 -0.2823  0.5912  2.4033
 1576TIP3   OH226142   1.236   2.562  12.521 -0.2487 -0.0507 -0.2287
 1576TIP3    H126143   1.211   2.523  12.437 -0.3277 -1.5878  0.4695
 1576TIP3    H226144   1.167   2.534  12.581  1.6255 -2.0210  1.1226
 1577TIP3   OH226145   2.271   1.141  16.196  0.0152  0.5872  0.3002
 1577TIP3    H126146   2.221   1.205  16.145 -0.9452 -0.6380 -0.3439
 1577TIP3    H226147   2.321   1.092  16.131 -0.6891 -0.5311  0.5582
 1578TIP3   OH226148   0.001   2.388  12.756  0.3579  0.0194  0.2222
 1578TIP3    H126149   0.076   2.335  12.729  0.5142  0.4702 -0.2367
 1578TIP3    H226150   0.037   2.476  12.769  0.1860 -0.0724  1.4046
 1579TIP3   OH226151   2.730   0.631   1.171  0.6330 -0.0842  0.0068
 1579TIP3    H126152   2.675   0.591   1.103 -1.7500  0.3766  1.5654
 1579TIP3    H226153   2.752   0.558   1.229  1.1154 -0.1366 -0.2346
 1580TIP3   OH226154   2.192   0.689  16.409 -0.5408  0.5152  0.2860
 1580TIP3    H126155   2.115   0.726  16.451 -2.0633 -0.4232 -1.5189
 1580TIP3    H226156   2.189   0.724  16.320 -1.6121 -3.1280 -1.2950
 1581TIP3   OH226157   1.641   1.674   2.242  0.0147 -0.2159  0.1259
 1581TIP3    H126158   1.727   1.659   2.203  0.1416 -0.4919  0.4953
 1581TIP3    H226159   1.596   1.732   2.181  0.3227 -0.3802 -0.2629
 1582TIP3   OH226160   5.646   0.096  12.386  0.7157 -0.2580  0.3275
 1582TIP3    H126161   5.627   0.023  12.328 -0.8979  0.4684 -0.1059
 1582TIP3    H226162   5.639   0.174  12.331 -1.0040  0.4621  1.4724
 1583TIP3   OH226163   2.489   6.380  12.981  0.0672  0.0946 -0.4312
 1583TIP3    H126164   2.501   6.428  13.063 -2.4465 -0.9651  0.6749
 1583TIP3    H226165   2.463   6.447  12.918  0.4105  0.6955  0.0531
 1584TIP3   OH226166   4.587   1.959  15.552 -0.1258  0.0263  0.0965
 1584TIP3    H126167   4.601   2.026  15.619 -1.1310  0.1137  0.2231
 1584TIP3    H226168   4.516   1.993  15.498 -0.4804 -0.8259  0.0093
 1585TIP3   OH226169   1.084   3.555  15.657 -0.2553  0.3144  0.0854
 1585TIP3    H126170   1.149   3.552  15.727 -0.2609  3.4841  0.3968
 1585TIP3    H226171   1.085   3.647  15.629 -2.9337 -0.0622 -1.5078
 1586TIP3   OH226172   1.708   2.672   4.264  0.2996 -0.1795 -0.4711
 1586TIP3    H126173   1.685   2.644   4.353  0.8162 -0.5151 -0.4400
 1586TIP3    H226174   1.625   2.700   4.226  0.1007  0.1154  0.1719
 1587TIP3   OH226175   3.060   5.350  16.688 -0.3931  0.4536  0.0216
 1587TIP3    H126176   2.981   5.372  16.738  0.4625  3.1845  0.3076
 1587TIP3    H226177   3.040   5.376  16.598  0.2329  1.3712  0.1371
 1588TIP3   OH226178   6.575   2.316   5.934  0.2975  0.0322  0.2124
 1588TIP3    H126179   6.555   2.394   5.986 -1.1616 -1.2407  1.6352
 1588TIP3    H226180   6.511   2.318   5.863  0.2097  0.0955  0.2919
 1589TIP3   OH226181   4.475   2.612  16.175  0.1951  0.2776 -0.1143
 1589TIP3    H126182   4.449   2.686  16.230 -2.3843  0.0420 -0.8518
 1589TIP3    H226183   4.412   2.614  16.102  1.7689 -1.0454 -1.5844
 1590TIP3   OH226184   0.798   4.203  15.234 -0.3689  0.5512 -0.3818
 1590TIP3    H126185   0.766   4.270  15.173 -0.5480  1.5615  0.7919
 1590TIP3    H226186   0.889   4.228  15.251 -1.0530  1.8667  1.7737
 1591TIP3   OH226187   5.435   5.185   1.122 -0.3851 -0.0545 -0.2253
 1591TIP3    H126188   5.472   5.140   1.198 -0.5327 -1.3079 -0.8675
 1591TIP3    H226189   5.434   5.277   1.147 -1.7696 -0.5647  1.8659
 1592TIP3   OH226190   0.123   6.571  16.885 -0.4410  0.3823 -0.5547
 1592TIP3    H126191   0.083   6.630  16.948 -2.2764 -1.6368  0.2978
 1592TIP3    H226192   0.071   6.582  16.805 -0.1131  0.6626 -0.7333
 1593TIP3   OH226193   0.971   5.640  13.821  0.0740  0.3237 -0.0265
 1593TIP3    H126194   0.895   5.582  13.816 -0.1933  0.5828  0.7660
 1593TIP3    H226195   0.977   5.680  13.735 -0.2639 -0.2252 -0.3122
 1594TIP3   OH226196   3.590   2.168  15.868  0.0634  0.1610 -0.2946
 1594TIP3    H126197   3.607   2.073  15.867  1.2210  0.3387  0.3139
 1594TIP3    H226198   3.513   2.179  15.813 -0.5783 -1.2253  0.2624
 1595TIP3   OH226199   6.191   2.762   2.412  0.1929 -0.0409 -0.2268
 1595TIP3    H126200   6.173   2.853   2.389  0.7584  0.1789  0.1819
 1595TIP3    H226201   6.254   2.768   2.484  0.2486 -0.7558 -0.2157
 1596TIP3   OH226202   3.078   3.040  11.370 -0.0124  0.2167  0.0670
 1596TIP3    H126203   3.113   3.011  11.454 -1.2496  0.8986  0.8644
 1596TIP3    H226204   3.017   2.971  11.345  1.2812 -0.6015 -0.9358
 1597TIP3   OH226205   0.441   2.824  15.012 -0.5879  0.1570  0.3596
 1597TIP3    H126206   0.361   2.862  14.975  0.4840  1.1273 -1.0863
 1597TIP3    H226207   0.497   2.808  14.936  1.0166  0.5141  1.4161
 1598TIP3   OH226208   5.210   4.470  15.291  0.3037  0.1578 -0.2719
 1598TIP3    H126209   5.213   4.392  15.347 -0.0016 -0.2721 -0.8450
 1598TIP3    H226210   5.198   4.543  15.352 -0.0236 -0.3074  0.2286
 1599TIP3   OH226211   6.008   0.105   5.858 -1.1357 -0.3489  0.4334
 1599TIP3    H126212   5.920   0.090   5.824 -1.1959 -1.1268  0.9263
 1599TIP3    H226213   6.066   0.084   5.784 -1.3788  1.1084 -0.2115
 1600TIP3   OH226214   6.628   6.554  17.150 -0.2129 -0.1400  0.5005
 1600TIP3    H126215   6.658   6.625  17.093 -1.1569 -0.3650 -0.3204
 1600TIP3    H226216   6.597   6.598  17.229  0.8544  0.2044  0.7369
 1601TIP3   OH226217   6.226   3.369  15.327  0.4995  0.1466  0.4424
 1601TIP3    H126218   6.252   3.344  15.239 -0.4993  1.2211 -0.1888
 1601TIP3    H226219   6.198   3.460  15.319  0.0962  0.1718  1.8102
 1602TIP3   OH226220   1.307   0.054   1.246  0.3120 -0.1193  0.1947
 1602TIP3    H126221   1.349  -0.019   1.292  3.2434  0.3641 -1.4269
 1602TIP3    H226222   1.304   0.124   1.311 -1.2616 -1.1822  1.3535
 1603TIP3   OH226223   0.701   0.234  13.660  0.8143  0.4867 -0.3249
 1603TIP3    H126224   0.773   0.235  13.723 -0.7583 -0.5309  1.6006
 1603TIP3    H226225   0.627   0.198  13.709 -0.4583 -0.5430 -2.8259
 1604TIP3   OH226226   4.299   2.372   2.130 -0.2289 -0.1611  0.4979
 1604TIP3    H126227   4.270   2.288   2.094  1.2960 -0.9456  1.0298
 1604TIP3    H226228   4.218   2.422   2.139 -1.0837 -1.2442 -0.6151
 1605TIP3   OH226229   4.227   5.515   6.188  0.3048  0.5292  0.5126
 1605TIP3    H126230   4.298   5.571   6.154 -0.0969  0.5889 -0.2649
 1605TIP3    H226231   4.180   5.487   6.109  1.7473 -2.6864  0.6464
 1606TIP3   OH226232   6.718   6.266  10.624 -0.2045 -0.4331  0.3282
 1606TIP3    H126233   6.643   6.305  10.578 -0.5794 -0.7649  0.6424
 1606TIP3    H226234   6.778   6.240  10.555 -0.3399 -0.0877  0.0740
 1607TIP3   OH226235   1.347   6.725   0.532 -0.0981 -0.0472 -0.9437
 1607TIP3    H126236   1.352   6.769   0.447 -1.4632  1.5377 -0.2762
 1607TIP3    H226237   1.297   6.786   0.587  1.8170 -0.4455  1.3720
 1608TIP3   OH226238   2.056   1.492   1.058  0.2729 -0.5610  0.0102
 1608TIP3    H126239   2.043   1.398   1.071 -0.3940 -0.2472  2.0347
 1608TIP3    H226240   1.972   1.523   1.021 -0.1421 -0.5150  0.9678
 1609TIP3   OH226241   0.096   0.942  11.910  0.3862 -0.2967 -0.8086
 1609TIP3    H126242   0.013   0.961  11.867 -0.8768 -2.3652  0.5372
 1609TIP3    H226243   0.139   0.878  11.854 -0.4645 -1.6731  0.0505
 1610TIP3   OH226244   3.333   2.869   5.519 -0.1220 -0.2261 -0.5512
 1610TIP3    H126245   3.375   2.906   5.597 -1.0637 -0.0167 -0.1325
 1610TIP3    H226246   3.402   2.817   5.477  0.1694 -1.0704  0.8962
 1611TIP3   OH226247   1.920   2.100   2.910 -0.0311  0.2939 -0.4690
 1611TIP3    H126248   1.972   2.107   2.990 -1.3606  1.4763  0.3509
 1611TIP3    H226249   1.864   2.024   2.923  1.1525 -0.7392 -1.1828
 1612TIP3   OH226250   6.433   4.320   4.169 -0.9254  0.0150 -0.0037
 1612TIP3    H126251   6.360   4.358   4.217 -1.1264 -2.0268  1.4587
 1612TIP3    H226252   6.403   4.316   4.078 -2.7934 -1.0133  0.6035
 1613TIP3   OH226253   5.484   1.686   1.073 -0.3475  0.2478  0.0328
 1613TIP3    H126254   5.394   1.652   1.073 -0.3475  0.2282 -1.1118
 1613TIP3    H226255   5.534   1.621   1.023  0.0371  0.9345 -0.4912
 1614TIP3   OH226256   4.881   4.950  11.386 -1.0185  0.0378 -0.0461
 1614TIP3    H126257   4.961   4.989  11.419 -0.4365 -0.0240 -1.2977
 1614TIP3    H226258   4.860   5.001  11.307 -2.2475  0.0892  0.2912
 1615TIP3   OH226259   5.317   1.679   0.097  0.0882  0.3623  0.0132
 1615TIP3    H126260   5.249   1.740   0.124  1.6310  2.6108 -0.9338
 1615TIP3    H226261   5.347   1.639   0.179 -1.2042  0.5541  0.6147
 1616TIP3   OH226262   2.099   5.483   2.500 -0.4379 -0.1340  0.4618
 1616TIP3    H126263   2.165   5.498   2.432 -0.7461 -1.3785 -0.1412
 1616TIP3    H226264   2.124   5.400   2.540 -0.9585 -0.0214  1.0332
 1617TIP3   OH226265   6.235   5.164  13.803 -0.1471  0.3819  0.4164
 1617TIP3    H126266   6.275   5.079  13.819  0.7522  0.7278  0.0423
 1617TIP3    H226267   6.200   5.158  13.714 -2.6961 -0.5808  1.3835
 1618TIP3   OH226268   6.381   3.753   5.568  0.4524 -0.2164 -0.2257
 1618TIP3    H126269   6.377   3.818   5.638  0.3657 -2.1641  1.6785
 1618TIP3    H226270   6.386   3.805   5.487 -2.4129  2.1969  0.9349
 1619TIP3   OH226271   2.684   0.549   0.170  0.1651  0.2624  0.3012
 1619TIP3    H126272   2.693   0.511   0.083  0.2706 -2.9714  1.5837
 1619TIP3    H226273   2.773   0.577   0.193  0.3206  0.2102 -0.2252
 1620TIP3   OH226274   3.333   3.073  13.215  0.8144 -0.5422 -0.4940
 1620TIP3    H126275   3.245   3.072  13.252  1.5027 -2.4716  1.2818
 1620TIP3    H226276   3.320   3.056  13.122 -0.6274 -2.2288 -0.0287
 1621TIP3   OH226277   6.146   0.428   2.047  0.0093  0.7088 -0.4370
 1621TIP3    H126278   6.211   0.360   2.029 -1.3467 -1.2347  1.4746
 1621TIP3    H226279   6.089   0.427   1.971 -0.6335 -1.1806 -0.0013
 1622TIP3   OH226280   1.626   3.333   0.100  0.5196  0.0185  0.5814
 1622TIP3    H126281   1.707   3.284   0.084  0.6531 -0.5111  2.6389
 1622TIP3    H226282   1.654   3.425   0.099  1.0777 -0.1423  0.8384
 1623TIP3   OH226283   0.592   0.874  13.046  1.0135 -0.1911 -0.0647
 1623TIP3    H126284   0.585   0.822  13.126  2.1261  0.3800  0.4331
 1623TIP3    H226285   0.673   0.924  13.058  0.3256  1.1299 -0.8345
 1624TIP3   OH226286   6.569   6.095   3.275 -0.2365 -0.0431  0.1131
 1624TIP3    H126287   6.518   6.084   3.195 -0.2135  0.8907 -0.0325
 1624TIP3    H226288   6.559   6.187   3.299  1.5928  0.2637 -0.0951
 1625TIP3   OH226289   0.385   6.750  14.428 -0.7259 -0.3544  0.4013
 1625TIP3    H126290   0.302   6.705  14.447  0.1839 -2.5551 -0.5206
 1625TIP3    H226291   0.405   6.725  14.338  0.7296  0.5124  0.4667
 1626TIP3   OH226292   3.809   3.948   6.026 -0.1657  0.3409 -0.0629
 1626TIP3    H126293   3.842   3.873   6.076  0.6795 -0.0885 -1.2295
 1626TIP3    H226294   3.786   4.012   6.093 -1.4836 -1.1587  1.0096
 1627TIP3   OH226295   6.698   4.594  16.921 -0.7474 -0.7733 -0.3482
 1627TIP3    H126296   6.622   4.626  16.969 -0.6824 -0.2797 -0.5659
 1627TIP3    H226297   6.696   4.642  16.838 -1.4364 -2.3315 -1.2816
 1628TIP3   OH226298   1.376   5.332  13.255 -0.0827  0.3583  0.7960
 1628TIP3    H126299   1.325   5.403  13.215  0.8333 -0.4273 -1.9531
 1628TIP3    H226300   1.314   5.290  13.315 -1.6038  1.5077  0.1142
 1629TIP3   OH226301   2.550   4.024  10.725 -0.2148 -0.1269  0.5758
 1629TIP3    H126302   2.522   3.938  10.755 -0.2016  0.0703  1.1572
 1629TIP3    H226303   2.508   4.086  10.785 -0.5950  0.3002 -0.1165
 1630TIP3   OH226304   6.564   5.931  15.415  0.3758  0.4170  0.0519
 1630TIP3    H126305   6.536   5.900  15.501 -1.7708  2.5434  0.2206
 1630TIP3    H226306   6.658   5.944  15.424  0.6187 -1.7543  1.2586
 1631TIP3   OH226307   0.063   6.554  13.332  0.2755 -0.3431  1.0647
 1631TIP3    H126308   0.139   6.567  13.276  1.2532  0.8431  2.5887
 1631TIP3    H226309  -0.010   6.541  13.271  0.6483  4.1153 -0.7070
 1632TIP3   OH226310   0.091   2.605  15.459  0.1631  0.4456  0.2311
 1632TIP3    H126311   0.013   2.626  15.408  0.8221  1.5136 -0.3788
 1632TIP3    H226312   0.092   2.509  15.462 -1.1378  0.4067  0.2216
 1633TIP3   OH226313   6.031   3.414   4.182  1.1177  0.2290 -0.1651
 1633TIP3    H126314   5.992   3.332   4.212  1.5277 -0.9932 -2.7535
 1633TIP3    H226315   5.956   3.470   4.161  0.8271  0.8651  2.2095
 1634TIP3   OH226316   1.442   6.717  13.058  0.0333 -0.7656  0.2442
 1634TIP3    H126317   1.469   6.809  13.064 -0.1025 -0.7333  0.3676
 1634TIP3    H226318   1.449   6.697  12.964 -0.6856 -0.3951  0.0977
 1635TIP3   OH226319   3.075   3.915   5.057 -0.4068  0.2203 -0.1685
 1635TIP3    H126320   3.081   3.873   5.143 -1.3435 -0.2948 -0.3412
 1635TIP3    H226321   3.095   3.846   4.994 -1.1598  0.2227 -0.4206
 1636TIP3   OH226322   4.939   1.478  16.667 -0.5521 -0.3278 -0.4807
 1636TIP3    H126323   4.904   1.563  16.692 -0.1707 -0.1625 -0.5165
 1636TIP3    H226324   4.876   1.444  16.603 -1.3713 -0.6192  0.4606
 1637TIP3   OH226325   0.968   1.837  14.729 -0.2873  0.4339 -0.9992
 1637TIP3    H126326   1.045   1.790  14.695  1.0241  2.1532 -0.5549
 1637TIP3    H226327   0.949   1.904  14.663 -1.2179  0.2290 -0.9504
 1638TIP3   OH226328   4.839   5.722  15.080  0.1140 -0.3867 -0.1405
 1638TIP3    H126329   4.818   5.811  15.110  0.3318 -0.9233  1.7264
 1638TIP3    H226330   4.800   5.665  15.146  1.5702 -1.6116 -0.3000
 1639TIP3   OH226331   2.201   3.400  12.709  0.4524 -0.1889 -0.1531
 1639TIP3    H126332   2.173   3.313  12.682 -1.4753  0.5453 -0.6790
 1639TIP3    H226333   2.231   3.441  12.628 -0.5185  0.2764 -0.2970
 1640TIP3   OH226334   2.640   4.917  10.877  0.2443  0.2417  0.8031
 1640TIP3    H126335   2.553   4.922  10.839 -0.4763 -0.5944  2.2525
 1640TIP3    H226336   2.687   4.992  10.841 -1.4130  1.3186  0.8236
 1641TIP3   OH226337   3.746   6.747  16.330  0.3293  0.0608 -0.0425
 1641TIP3    H126338   3.765   6.678  16.267 -2.1547 -2.3328  1.6012
 1641TIP3    H226339   3.680   6.709  16.388 -0.5051  3.5431  1.5527
 1642TIP3   OH226340   4.710   1.730  17.138 -0.5040  0.5541  0.0742
 1642TIP3    H126341   4.637   1.778  17.099 -0.7351  2.1064  2.2346
 1642TIP3    H226342   4.690   1.728  17.231  2.2791  1.1801  0.7733
 1643TIP3   OH226343   3.322   4.674  16.068 -0.2850 -0.2524  0.3488
 1643TIP3    H126344   3.320   4.657  16.163 -0.7179  0.5147  0.4909
 1643TIP3    H226345   3.286   4.763  16.060 -0.8794 -0.5706 -0.5919
 1644TIP3   OH226346   6.293   5.968  13.249  0.0245 -0.4613  0.7982
 1644TIP3    H126347   6.331   6.009  13.325  0.4233 -0.0374  0.3717
 1644TIP3    H226348   6.258   6.040  13.197  0.5482 -0.6622  0.1467
 1645TIP3   OH226349   2.855   5.331  14.154 -0.1010 -0.0257 -0.6665
 1645TIP3    H126350   2.922   5.356  14.089  0.3311  1.5246  0.3317
 1645TIP3    H226351   2.905   5.312  14.233 -0.7685  0.0556 -0.2204
 1646TIP3   OH226352   6.431   5.708  13.466 -0.2614  0.0617  0.2196
 1646TIP3    H126353   6.366   5.711  13.396  0.3561  0.9081 -0.3364
 1646TIP3    H226354   6.515   5.704  13.421  0.1859  1.4258  0.8930
 1647TIP3   OH226355   4.058   1.929   4.850  0.0438 -0.5709  0.2923
 1647TIP3    H126356   4.111   1.876   4.908  0.7933  0.5354  0.6520
 1647TIP3    H226357   3.968   1.911   4.876  0.3406 -0.6280  1.3227
 1648TIP3   OH226358   4.071   3.123   1.777 -0.3024 -0.0636  0.3940
 1648TIP3    H126359   4.130   3.198   1.773 -1.0863  0.4995 -1.4630
 1648TIP3    H226360   4.129   3.047   1.773  0.4855  0.4094  2.0839
 1649TIP3   OH226361   2.402   0.111  15.308 -0.5668 -0.4800  0.0359
 1649TIP3    H126362   2.496   0.117  15.290 -0.3358 -1.0918  0.9537
 1649TIP3    H226363   2.365   0.076  15.227  0.0652 -0.7059 -0.1676
 1650TIP3   OH226364   2.543   3.249  16.051 -0.0422  0.6519  0.2334
 1650TIP3    H126365   2.491   3.169  16.062  1.0079 -0.0857 -0.0475
 1650TIP3    H226366   2.624   3.220  16.010 -0.7867  2.2567 -2.6387
 1651TIP3   OH226367   4.534   3.909  11.258 -0.4804 -0.1851 -0.0728
 1651TIP3    H126368   4.529   3.949  11.171 -0.2607  0.9195  0.3974
 1651TIP3    H226369   4.446   3.920  11.294  0.0009  1.4461  0.6982
 1652TIP3   OH226370   5.291   6.041  10.618 -0.0700  0.1014  0.0526
 1652TIP3    H126371   5.298   6.084  10.532  0.6283 -0.5835 -0.2430
 1652TIP3    H226372   5.221   5.977  10.607  0.8799 -0.8913 -0.4201
 1653TIP3   OH226373   6.561   1.901  14.786 -0.2642 -0.0904 -0.4495
 1653TIP3    H126374   6.513   1.951  14.852 -0.6869 -0.5819 -0.3716
 1653TIP3    H226375   6.626   1.962  14.752  1.6392 -0.5044  2.1374
 1654TIP3   OH226376   0.634   2.957  16.118  0.1350 -0.2743 -0.2417
 1654TIP3    H126377   0.716   2.933  16.160 -0.2800 -0.8662  0.2436
 1654TIP3    H226378   0.570   2.960  16.189 -0.4465 -0.6942 -0.7350
 1655TIP3   OH226379   1.186   1.951  11.919 -0.0074  0.6456 -0.5854
 1655TIP3    H126380   1.091   1.958  11.913 -0.2904 -1.3099  0.7934
 1655TIP3    H226381   1.202   1.865  11.959  2.3731  0.5251 -1.6268
 1656TIP3   OH226382   0.002   0.007   2.212  0.1444  0.2176  0.1095
 1656TIP3    H126383   0.049   0.075   2.261 -0.4674  0.7793 -0.0807
 1656TIP3    H226384  -0.089   0.015   2.241  0.3031 -1.6217  1.3641
 1657TIP3   OH226385   3.971   3.186   3.830 -0.2850 -0.0898 -0.6410
 1657TIP3    H126386   3.920   3.251   3.782  0.2892  1.0660  0.2817
 1657TIP3    H226387   4.044   3.234   3.868 -0.0089 -1.2069  0.3263
 1658TIP3   OH226388   6.486   5.852  11.972  0.5818 -0.1248 -0.2350
 1658TIP3    H126389   6.463   5.800  12.049  0.8896 -0.9732 -0.7029
 1658TIP3    H226390   6.581   5.859  11.975  0.7126 -1.1932 -1.1669
 1659TIP3   OH226391   1.261   2.924  10.504  0.2913  0.4278  0.8095
 1659TIP3    H126392   1.200   2.936  10.431  1.0062  0.6087  0.2376
 1659TIP3    H226393   1.301   2.838  10.488  1.3953  1.0188  0.2642
 1660TIP3   OH226394   0.573   4.877  15.961 -0.0305  0.0010  0.8334
 1660TIP3    H126395   0.541   4.916  15.879 -0.9547 -0.7693  0.8053
 1660TIP3    H226396   0.610   4.951  16.009  0.0860  0.5540 -0.0708
 1661TIP3   OH226397   4.311   5.456  12.053 -0.2145 -0.0970 -0.1612
 1661TIP3    H126398   4.272   5.496  12.130 -0.2327 -0.1167 -0.1599
 1661TIP3    H226399   4.340   5.529  11.999 -1.0997 -0.0700 -0.6033
 1662TIP3   OH226400   3.683   1.902   1.474 -0.3500 -0.1228  0.2343
 1662TIP3    H126401   3.620   1.849   1.425 -0.4622  0.2016  0.0261
 1662TIP3    H226402   3.756   1.916   1.414  0.1713 -0.9523  0.6586
 1663TIP3   OH226403   6.539   0.143   4.811 -0.0374 -0.0162  0.0991
 1663TIP3    H126404   6.509   0.173   4.725 -0.1272  0.7191  0.3756
 1663TIP3    H226405   6.493   0.200   4.874 -0.2646 -0.7927  0.6506
 1664TIP3   OH226406   6.291   3.169   2.635  0.5297  0.1683 -0.4375
 1664TIP3    H126407   6.218   3.223   2.666 -0.8250 -2.2314  0.8708
 1664TIP3    H226408   6.257   3.128   2.556  1.4019  0.8710 -1.1937
 1665TIP3   OH226409   6.039   1.817   3.637 -0.7735 -0.2458 -0.6476
 1665TIP3    H126410   6.131   1.845   3.644 -0.7788 -0.5567  1.8819
 1665TIP3    H226411   6.041   1.745   3.574  0.9180 -0.8327 -0.0055
 1666TIP3   OH226412   5.010   2.556   1.657 -0.1582 -0.0127 -0.0853
 1666TIP3    H126413   4.970   2.597   1.733  1.3268  0.3334  0.5504
 1666TIP3    H226414   4.971   2.602   1.582 -0.7829  0.4449  0.5053
 1667TIP3   OH226415   4.488   3.176   6.169 -0.1862 -0.8907  0.5028
 1667TIP3    H126416   4.481   3.097   6.224  0.1092 -1.3022 -0.0456
 1667TIP3    H226417   4.554   3.230   6.213  1.7185 -2.2106 -0.6290
 1668TIP3   OH226418   1.060   4.301  15.212  0.5944 -0.1204  0.4412
 1668TIP3    H126419   1.141   4.310  15.262  0.4523  1.5857  0.4351
 1668TIP3    H226420   1.084   4.320  15.122  0.3550 -0.5165  0.2911
 1669TIP3   OH226421   0.698   1.484  13.717 -0.0355  0.3915 -0.0109
 1669TIP3    H126422   0.744   1.414  13.670 -0.3241  1.1634 -1.5015
 1669TIP3    H226423   0.747   1.494  13.799  0.4122 -1.0747 -0.0721
 1670TIP3   OH226424   4.395   1.174  14.903 -0.0981  0.2302  0.5759
 1670TIP3    H126425   4.460   1.122  14.950  0.4337 -0.0670 -0.4422
 1670TIP3    H226426   4.317   1.172  14.959  0.1987 -0.9194  0.9767
 1671TIP3   OH226427   4.649   1.570   1.224 -0.2661 -0.1257 -0.4860
 1671TIP3    H126428   4.694   1.529   1.149  2.0941 -0.2040  0.8669
 1671TIP3    H226429   4.586   1.504   1.252  1.3888 -1.6754 -0.1858
 1672TIP3   OH226430   3.254   2.036   6.207  0.1987  0.7683  0.4550
 1672TIP3    H126431   3.286   2.114   6.252 -0.8529  0.5802  1.5816
 1672TIP3    H226432   3.159   2.038   6.219  0.1617 -0.7426  0.6284
 1673TIP3   OH226433   0.355   0.495  17.172 -0.1460  0.3781  0.6524
 1673TIP3    H126434   0.405   0.473  17.093 -0.5738  1.4591  0.0630
 1673TIP3    H226435   0.297   0.420  17.186  1.0589 -0.5481  0.8960
 1674TIP3   OH226436   3.150   0.994   4.237 -0.0414 -0.4194  0.4503
 1674TIP3    H126437   3.153   0.931   4.165 -0.5068 -1.3184  1.1986
 1674TIP3    H226438   3.233   0.983   4.282  0.2606  0.1618  0.0580
 1675TIP3   OH226439   4.469   5.255  14.608  0.0779 -0.1346 -0.4468
 1675TIP3    H126440   4.545   5.309  14.630  0.6560 -0.8043 -0.7611
 1675TIP3    H226441   4.431   5.296  14.530 -0.2634  0.5678  0.0861
 1676TIP3   OH226442   0.072   0.921  15.955  0.0354 -0.5585  0.2497
 1676TIP3    H126443   0.042   0.864  16.026 -1.2031  0.8109  0.9097
 1676TIP3    H226444   0.006   0.911  15.887  0.5136 -0.8833 -0.1672
 1677TIP3   OH226445   6.421   1.082   4.123  0.1925  0.1764  0.1726
 1677TIP3    H126446   6.483   1.061   4.053 -0.6839 -1.4809 -0.1511
 1677TIP3    H226447   6.395   1.173   4.106 -0.1187 -0.2403 -1.7720
 1678TIP3   OH226448   6.107   6.197  16.455 -0.2170 -0.5755  0.0031
 1678TIP3    H126449   6.018   6.188  16.420  0.2618  0.4878 -1.5848
 1678TIP3    H226450   6.163   6.153  16.392  0.5152 -0.1573  0.3403
 1679TIP3   OH226451   2.916   5.677  15.267 -0.0634  0.1099  0.1191
 1679TIP3    H126452   2.997   5.631  15.290 -0.1160 -1.2889 -2.1170
 1679TIP3    H226453   2.847   5.612  15.280 -0.7295  0.9733  1.0341
 1680TIP3   OH226454   4.297   3.592   2.423 -0.0823 -0.1332  0.0520
 1680TIP3    H126455   4.238   3.528   2.383 -0.1609 -1.1173  1.6728
 1680TIP3    H226456   4.378   3.543   2.437  0.5209  0.6931 -0.4493
 1681TIP3   OH226457   6.689   5.393   3.687 -0.0657 -0.4199 -0.0185
 1681TIP3    H126458   6.753   5.460   3.663  0.0515  0.1253  1.6999
 1681TIP3    H226459   6.738   5.333   3.744 -0.6805 -0.8958  0.0176
 1682TIP3   OH226460   5.353   4.805  12.908  0.1290 -0.8844  0.2284
 1682TIP3    H126461   5.379   4.713  12.921  0.2873 -1.1123 -1.5127
 1682TIP3    H226462   5.265   4.810  12.947  0.3290 -1.6317  0.8129
 1683TIP3   OH226463   5.017   2.648   1.966  0.6422  0.6679  0.6415
 1683TIP3    H126464   4.932   2.686   1.943  0.7865 -0.0489 -1.1863
 1683TIP3    H226465   5.081   2.709   1.932  0.8608  0.3252  0.4297
 1684TIP3   OH226466   1.789   5.118  11.146  0.1012  0.0276  0.1755
 1684TIP3    H126467   1.725   5.123  11.075  1.4159  0.3329 -1.0375
 1684TIP3    H226468   1.853   5.054  11.115  2.5092  2.5594 -0.5220
 1685TIP3   OH226469   5.409   3.087  17.196  0.5317  0.0097  0.2860
 1685TIP3    H126470   5.315   3.085  17.215  0.6550 -1.1904  0.8836
 1685TIP3    H226471   5.441   3.003  17.227  1.8159  0.4062  0.0856
 1686TIP3   OH226472   2.666   5.830   3.086  0.3102 -0.4848  0.3130
 1686TIP3    H126473   2.719   5.866   3.157 -0.2231  0.3733  0.2916
 1686TIP3    H226474   2.577   5.825   3.121 -0.0794  0.5084 -0.4479
 1687TIP3   OH226475   1.598   2.251   4.330  0.4685  0.1819  0.3705
 1687TIP3    H126476   1.529   2.294   4.280  1.3397 -1.6302 -2.6494
 1687TIP3    H226477   1.553   2.191   4.388 -0.5840  2.4212  2.0386
 1688TIP3   OH226478   5.344   5.634  14.611  0.0366 -0.0240  0.0243
 1688TIP3    H126479   5.395   5.643  14.531  0.6862 -0.0702  0.4243
 1688TIP3    H226480   5.352   5.719  14.655  0.9264 -0.4545  0.7450
 1689TIP3   OH226481   0.712   5.739   3.497 -0.8164 -0.1544 -0.1791
 1689TIP3    H126482   0.805   5.744   3.521 -1.0897 -1.8263  1.4598
 1689TIP3    H226483   0.707   5.781   3.411  1.7055 -1.3537 -0.9952
 1690TIP3   OH226484   4.335   5.420  14.408  0.3703 -0.4308 -0.3077
 1690TIP3    H126485   4.264   5.465  14.453 -0.7891 -0.4793 -1.9644
 1690TIP3    H226486   4.339   5.462  14.322  1.8401 -0.9631 -0.5288
 1691TIP3   OH226487   2.000   1.625   5.501 -0.5899  0.7094  0.4924
 1691TIP3    H126488   1.971   1.706   5.459 -2.0444  0.5149  1.0603
 1691TIP3    H226489   1.974   1.555   5.440  2.1966  0.6830 -0.8383
 1692TIP3   OH226490   0.003   4.088  12.181  0.2663  0.0667 -0.9787
 1692TIP3    H126491  -0.069   4.072  12.242 -0.5767 -0.3645 -2.0663
 1692TIP3    H226492   0.054   4.157  12.223 -0.2908 -0.2232  0.2172
 1693TIP3   OH226493   0.582   0.269   1.577  0.4748 -0.9609 -0.3978
 1693TIP3    H126494   0.566   0.320   1.657  0.0204 -0.2460 -0.9286
 1693TIP3    H226495   0.547   0.183   1.596  0.0109 -0.6813  0.0377
 1694TIP3   OH226496   5.779   6.185   5.485  0.2072 -0.2738 -0.0968
 1694TIP3    H126497   5.779   6.097   5.447  0.8563  0.1975 -1.2456
 1694TIP3    H226498   5.709   6.232   5.439 -0.6888 -0.3992  1.0843
 1695TIP3   OH226499   5.287   4.184  16.257  0.2101  0.0321  0.1170
 1695TIP3    H126500   5.260   4.256  16.200 -0.7303 -1.0700 -0.8916
 1695TIP3    H226501   5.338   4.126  16.201 -0.6171 -1.0054  0.4001
 1696TIP3   OH226502   2.490   5.643   0.978 -0.4321  0.0834 -0.3356
 1696TIP3    H126503   2.551   5.716   0.975 -0.2245 -0.0886 -0.2810
 1696TIP3    H226504   2.507   5.592   0.899 -0.0587 -0.3212 -0.0006
 1697TIP3   OH226505   3.426   6.741   1.380 -0.0530  0.3545  0.6137
 1697TIP3    H126506   3.352   6.802   1.379 -1.2924 -1.0883 -0.8563
 1697TIP3    H226507   3.481   6.768   1.306  0.2886  0.7017  0.9889
 1698TIP3   OH226508   0.274   3.040   5.551 -0.0376  0.8084  0.2222
 1698TIP3    H126509   0.365   3.056   5.525  0.7741 -1.8760  1.0763
 1698TIP3    H226510   0.222   3.087   5.486  1.9321 -0.6089 -2.6316
 1699TIP3   OH226511   4.395   3.550   4.401 -0.1577  0.4491 -0.6826
 1699TIP3    H126512   4.422   3.472   4.449  0.9494 -0.2711 -2.3751
 1699TIP3    H226513   4.303   3.562   4.423 -0.0944 -0.7923  0.3261
 1700TIP3   OH226514   1.300   2.101  16.057 -0.6551 -0.1199  0.2306
 1700TIP3    H126515   1.362   2.033  16.082 -0.2735  0.5373  1.1262
 1700TIP3    H226516   1.214   2.063  16.075 -0.4001  0.3380  2.7344
 1701TIP3   OH226517   5.311   1.378  12.621 -0.7231  0.3678  0.0134
 1701TIP3    H126518   5.367   1.455  12.611 -0.5370  0.3639  1.0101
 1701TIP3    H226519   5.266   1.371  12.536  1.3474 -0.1041 -1.1067
 1702TIP3   OH226520   5.500   4.508  12.682 -0.1515  0.4202  0.2203
 1702TIP3    H126521   5.584   4.547  12.707  0.0938  0.7896 -1.1048
 1702TIP3    H226522   5.437   4.579  12.688  0.0681  0.7405 -0.9894
 1703TIP3   OH226523   4.369   2.597  10.878  0.1512 -0.1092 -0.0638
 1703TIP3    H126524   4.276   2.579  10.885  0.2357 -0.1242  1.1278
 1703TIP3    H226525   4.411   2.533  10.935  0.8190  0.4996  0.1482
 1704TIP3   OH226526   0.965   0.314  11.474  0.3880  0.0828 -0.3533
 1704TIP3    H126527   0.955   0.339  11.382  0.7519  1.5024 -0.0369
 1704TIP3    H226528   0.894   0.252  11.491 -0.5554  0.8956 -1.2164
 1705TIP3   OH226529   5.429   5.450   3.368 -0.3434 -0.0392  0.1918
 1705TIP3    H126530   5.441   5.488   3.281 -0.9274  0.2734  0.2433
 1705TIP3    H226531   5.344   5.406   3.363  0.3112 -1.3809  0.1253
 1706TIP3   OH226532   6.551   2.535   1.004 -0.3165 -0.4016  0.9973
 1706TIP3    H126533   6.640   2.515   0.974  0.1216 -1.1987  2.6753
 1706TIP3    H226534   6.505   2.563   0.926  1.2706 -0.4852 -0.0195
 1707TIP3   OH226535   2.503   3.347  11.413 -0.3813 -0.1398  0.0738
 1707TIP3    H126536   2.534   3.285  11.348  1.5145  1.2713 -0.4470
 1707TIP3    H226537   2.424   3.385  11.374 -2.2527 -2.8589  0.8668
 1708TIP3   OH226538   4.841   6.148  15.570  0.0508 -0.2906  0.0287
 1708TIP3    H126539   4.857   6.075  15.511  0.0629 -0.5688  0.3761
 1708TIP3    H226540   4.755   6.130  15.608  0.4343 -0.5632  0.7623
 1709TIP3   OH226541   6.417   2.348   5.723 -0.1969 -0.5158  0.1766
 1709TIP3    H126542   6.415   2.439   5.694  1.1476 -0.6546 -0.4429
 1709TIP3    H226543   6.338   2.309   5.686 -0.6813  0.3530  0.2791
 1710TIP3   OH226544   5.088   0.672  13.330 -0.1692  0.0277  0.3120
 1710TIP3    H126545   5.016   0.721  13.371 -2.0080 -1.3860 -1.0350
 1710TIP3    H226546   5.044   0.600  13.284  2.2154 -1.4370  0.1674
 1711TIP3   OH226547   3.077   3.115   1.988 -0.0969  0.2366 -0.0753
 1711TIP3    H126548   3.089   3.022   2.005 -1.6658  0.0413  0.1360
 1711TIP3    H226549   3.131   3.159   2.053 -1.5010 -0.5268  1.6776
 1712TIP3   OH226550   2.623   5.143  14.204  0.4148 -0.3549  0.2401
 1712TIP3    H126551   2.578   5.212  14.155  0.2804 -1.0115 -0.6031
 1712TIP3    H226552   2.708   5.180  14.227  1.1122 -0.5046 -1.8464
 1713TIP3   OH226553   2.054   5.875   6.549 -0.7185  0.6410 -0.3054
 1713TIP3    H126554   1.973   5.917   6.578 -0.4800 -0.1543  1.6375
 1713TIP3    H226555   2.039   5.782   6.565  0.4847  0.4633 -0.1824
 1714TIP3   OH226556   5.157   3.139   1.747  0.3632 -0.3786  0.4072
 1714TIP3    H126557   5.078   3.110   1.791  0.3330 -0.6277  0.1888
 1714TIP3    H226558   5.194   3.206   1.805  0.6152 -1.0822  1.0816
 1715TIP3   OH226559   3.217   6.372  11.996 -0.2765 -0.1318 -0.5634
 1715TIP3    H126560   3.188   6.368  11.905  1.7215 -1.0949 -1.2074
 1715TIP3    H226561   3.224   6.466  12.015 -0.4628  0.0691 -1.4651
 1716TIP3   OH226562   6.502   6.293   1.225 -0.8060 -0.2374 -0.2918
 1716TIP3    H126563   6.482   6.310   1.133  0.3522  0.0482 -0.5080
 1716TIP3    H226564   6.417   6.279   1.266 -1.2847 -1.8434 -1.6917
 1717TIP3   OH226565   3.097   1.141  16.897 -0.2264  0.0056 -0.2701
 1717TIP3    H126566   3.105   1.048  16.874  0.5294  0.4098 -1.7477
 1717TIP3    H226567   3.067   1.140  16.988 -1.2892 -1.6877 -0.5813
 1718TIP3   OH226568   3.397   2.710  14.391  0.4726 -0.2659 -0.7981
 1718TIP3    H126569   3.424   2.624  14.425  0.0891 -0.0943 -0.0560
 1718TIP3    H226570   3.418   2.772  14.460 -2.3402 -0.1880  0.1127
 1719TIP3   OH226571   0.272   6.126  15.501  0.3802 -0.2962  0.0624
 1719TIP3    H126572   0.203   6.154  15.560 -0.7521  0.2440 -1.4787
 1719TIP3    H226573   0.320   6.206  15.479  1.1302 -0.5730  0.6243
 1720TIP3   OH226574   3.758   4.678   2.201  0.2066 -0.4941  0.0017
 1720TIP3    H126575   3.847   4.692   2.233 -0.6407 -0.4614  2.5982
 1720TIP3    H226576   3.729   4.764   2.171 -0.4530  0.6898  3.5536
 1721TIP3   OH226577   2.320   3.991   1.863 -0.1268  0.2063 -0.0588
 1721TIP3    H126578   2.370   3.993   1.945  2.2706 -0.3487 -1.4007
 1721TIP3    H226579   2.287   3.901   1.857  1.5379 -0.4156 -0.6506
 1722TIP3   OH226580   3.584   5.548  14.324 -0.3529 -0.1543  0.1755
 1722TIP3    H126581   3.531   5.470  14.341 -1.3297  0.5356  0.3296
 1722TIP3    H226582   3.674   5.521  14.344  0.0491 -2.5826 -3.6836
 1723TIP3   OH226583   3.082   4.809   4.429 -0.0750 -0.0005  0.0625
 1723TIP3    H126584   3.088   4.744   4.500  0.6666  0.5745  0.5456
 1723TIP3    H226585   3.008   4.865   4.454 -1.3622 -1.2181 -0.8603
 1724TIP3   OH226586   3.039   1.052   2.339  0.7783 -0.0112 -0.1009
 1724TIP3    H126587   3.134   1.054   2.326  1.2747 -2.5827  2.3689
 1724TIP3    H226588   3.015   0.960   2.328 -1.7399  0.7576 -2.0272
 1725TIP3   OH226589   2.287   2.435   1.692 -0.5851  0.2793  0.2100
 1725TIP3    H126590   2.257   2.481   1.614 -2.3097 -0.9848  0.0662
 1725TIP3    H226591   2.225   2.362   1.703  0.4602 -0.4312  1.9313
 1726TIP3   OH226592   3.193   1.668  12.752  0.1514  0.0291 -0.1465
 1726TIP3    H126593   3.145   1.624  12.822 -1.3277  0.0284 -1.1186
 1726TIP3    H226594   3.175   1.761  12.765  1.0583  0.1587  0.2982
 1727TIP3   OH226595   5.079   6.675  13.286 -0.4024  0.2320  0.4134
 1727TIP3    H126596   5.003   6.728  13.310  0.0808  1.4045 -0.5219
 1727TIP3    H226597   5.150   6.739  13.276  0.4526 -0.7189  0.2732
 1728TIP3   OH226598   2.149   2.151  13.006 -0.1176 -0.2635  0.3451
 1728TIP3    H126599   2.197   2.229  12.977  0.1201  0.3607  2.2438
 1728TIP3    H226600   2.076   2.185  13.057  1.3692 -1.1832  3.3385
 1729TIP3   OH226601   1.997   6.098  14.510 -0.0907  0.5850  0.2245
 1729TIP3    H126602   1.921   6.063  14.463  0.5922  0.8044 -1.1033
 1729TIP3    H226603   1.963   6.125  14.595 -1.3781  0.1327 -0.1277
 1730TIP3   OH226604   4.454   4.707   5.676  0.3203  0.1342  0.3643
 1730TIP3    H126605   4.541   4.737   5.649 -0.1728  1.7929  0.5344
 1730TIP3    H226606   4.446   4.733   5.768 -0.8360  1.1609 -0.0040
 1731TIP3   OH226607   1.940   2.991   3.232  0.0536 -0.4039 -0.7436
 1731TIP3    H126608   1.990   2.978   3.151  0.8595  0.8365 -0.4695
 1731TIP3    H226609   1.952   2.909   3.281 -0.6390 -1.2611 -1.9532
 1732TIP3   OH226610   2.535   4.501   0.922 -0.0964 -0.3979  0.3451
 1732TIP3    H126611   2.596   4.515   0.995 -0.1982  0.1339  0.3322
 1732TIP3    H226612   2.590   4.469   0.851  0.2087  0.2885  0.2643
 1733TIP3   OH226613   3.226   1.195   2.895 -0.5928 -0.4182 -0.5197
 1733TIP3    H126614   3.145   1.191   2.843  0.6435 -0.4292 -2.5598
 1733TIP3    H226615   3.295   1.179   2.831  0.9544 -2.1247  1.4627
 1734TIP3   OH226616   0.112   5.195  10.878 -0.7633  0.0188  0.0764
 1734TIP3    H126617   0.193   5.169  10.923 -0.8142 -0.1919  0.0488
 1734TIP3    H226618   0.065   5.248  10.943 -1.3939 -1.2784  0.7225
 1735TIP3   OH226619   1.648   2.340   5.896  1.0155 -0.1748 -0.2319
 1735TIP3    H126620   1.701   2.420   5.894  2.6742 -1.1982  0.4248
 1735TIP3    H226621   1.582   2.357   5.962  2.0395  0.2719  0.7141
 1736TIP3   OH226622   3.734   4.535  12.927 -0.0676  0.4159 -0.0748
 1736TIP3    H126623   3.787   4.511  12.850 -3.4544 -0.9142 -2.2158
 1736TIP3    H226624   3.774   4.487  12.999  0.7326 -1.8915 -1.9070
 1737TIP3   OH226625   1.223   1.697  15.229  0.4288  0.0193 -0.0806
 1737TIP3    H126626   1.276   1.666  15.302 -2.0633  0.4291  2.0449
 1737TIP3    H226627   1.235   1.792  15.229 -2.1228  0.4552  2.1237
 1738TIP3   OH226628   2.260   3.463  16.739 -0.3247  0.1256 -0.3507
 1738TIP3    H126629   2.310   3.403  16.794  2.1771  2.4221  0.0569
 1738TIP3    H226630   2.300   3.455  16.652 -0.1413  0.9806 -0.3546
 1739TIP3   OH226631   3.875   3.458   3.711 -0.2059  0.1937  0.2233
 1739TIP3    H126632   3.948   3.473   3.651  0.2659  0.9444  0.9729
 1739TIP3    H226633   3.889   3.520   3.782  0.4143 -2.0339  2.1893
 1740TIP3   OH226634   1.190   5.227   5.417 -0.0357  0.2059 -0.2294
 1740TIP3    H126635   1.138   5.179   5.482  0.5679 -1.6182 -1.0214
 1740TIP3    H226636   1.279   5.225   5.452  0.1221  0.0957 -0.6333
 1741TIP3   OH226637   6.478   4.497   0.200  0.3488  0.0540 -0.1342
 1741TIP3    H126638   6.467   4.421   0.257 -2.0976  1.2645  1.1385
 1741TIP3    H226639   6.509   4.567   0.258  2.0892  0.2211 -1.1908
 1742TIP3   OH226640   0.805   2.405   4.713  0.2943 -0.0483  0.3234
 1742TIP3    H126641   0.822   2.464   4.787 -0.8579  0.4809  0.1740
 1742TIP3    H226642   0.754   2.457   4.652  2.0348 -0.1670 -1.3198
 1743TIP3   OH226643   5.540   3.225   2.534  0.1030 -0.1500 -0.2988
 1743TIP3    H126644   5.592   3.267   2.466 -0.6569 -0.2285 -0.9473
 1743TIP3    H226645   5.483   3.164   2.486 -0.9550  0.3226  0.3287
 1744TIP3   OH226646   0.003   3.395   1.712  0.1508 -0.0191  0.1049
 1744TIP3    H126647   0.098   3.391   1.725  0.1775  0.0370 -0.0713
 1744TIP3    H226648  -0.033   3.386   1.800  0.3256  0.2252  0.2022
 1745TIP3   OH226649   6.525   0.529  13.331  0.8779  0.1019 -0.1018
 1745TIP3    H126650   6.438   0.503  13.298  0.6273  2.5480 -1.5767
 1745TIP3    H226651   6.582   0.456  13.307 -0.6218 -1.2872  0.3486
 1746TIP3   OH226652   1.811   1.622   1.043  0.6779 -0.0108  0.3923
 1746TIP3    H126653   1.788   1.713   1.061  1.4708  0.0996  0.8900
 1746TIP3    H226654   1.818   1.581   1.129 -0.5003 -0.7696  0.1476
 1747TIP3   OH226655   2.331   5.367  14.646  0.3810 -0.0734 -0.2317
 1747TIP3    H126656   2.272   5.442  14.632  0.7307  0.2689  0.1194
 1747TIP3    H226657   2.335   5.324  14.560  0.6101  0.6322 -0.5839
 1748TIP3   OH226658   2.508   4.181  15.686 -0.0973 -0.4756  0.0652
 1748TIP3    H126659   2.426   4.150  15.725 -0.7287  0.9573 -0.0953
 1748TIP3    H226660   2.481   4.239  15.615  1.0332  0.9236  0.7275
 1749TIP3   OH226661   4.046   3.927  15.147  0.6658  0.2249 -0.5717
 1749TIP3    H126662   4.066   3.953  15.237  2.3248  1.3051 -1.1957
 1749TIP3    H226663   4.123   3.955  15.097 -1.4282  2.4606 -2.8230
 1750TIP3   OH226664   0.345   4.415  10.824 -0.3463 -0.2412  0.5741
 1750TIP3    H126665   0.274   4.459  10.778 -0.0757  1.8141  2.0129
 1750TIP3    H226666   0.424   4.460  10.795  0.0007 -0.1336  1.6588
 1751TIP3   OH226667   0.143   1.299  10.690 -0.4032 -0.1844  0.3745
 1751TIP3    H126668   0.093   1.256  10.759  0.1417 -1.8818 -0.2295
 1751TIP3    H226669   0.227   1.252  10.688 -0.7642 -0.8809 -2.0753
 1752TIP3   OH226670   5.456   1.964   0.912  0.6357  0.2407 -0.1122
 1752TIP3    H126671   5.434   2.038   0.969  1.4078  1.2426 -1.0582
 1752TIP3    H226672   5.502   1.903   0.969 -0.2666  0.3463  0.7514
 1753TIP3   OH226673   2.334   6.367  17.088 -0.5923  0.0664 -0.1931
 1753TIP3    H126674   2.400   6.351  17.021  2.5410 -1.3997  2.9052
 1753TIP3    H226675   2.353   6.455  17.121 -1.4783  0.3975 -0.5276
 1754TIP3   OH226676   0.503   2.484   1.548 -0.9477 -0.1529 -0.5078
 1754TIP3    H126677   0.575   2.525   1.597 -1.4324 -1.2187  1.1756
 1754TIP3    H226678   0.545   2.444   1.472  0.0253  0.4077 -0.2841
 1755TIP3   OH226679   2.714   2.401  16.292  0.2294 -0.0850 -0.0271
 1755TIP3    H126680   2.751   2.490  16.294  0.7138 -0.2722 -0.4236
 1755TIP3    H226681   2.759   2.358  16.220  0.9093 -1.0523  0.9397
 1756TIP3   OH226682   2.867   2.534   3.959  0.2844 -0.0345  0.3607
 1756TIP3    H126683   2.947   2.554   3.909  0.3680  0.1938  0.5876
 1756TIP3    H226684   2.825   2.619   3.973  1.9678  0.4211  3.6156
 1757TIP3   OH226685   3.459   3.631   0.561  0.2340  0.0014  0.0043
 1757TIP3    H126686   3.514   3.581   0.502 -0.1687 -0.3676 -0.0638
 1757TIP3    H226687   3.520   3.681   0.616  0.6924 -1.4281  0.8447
 1758TIP3   OH226688   1.528   2.819  12.702 -0.0689 -0.0347 -0.6843
 1758TIP3    H126689   1.532   2.753  12.632 -1.7001 -0.5837 -0.3185
 1758TIP3    H226690   1.452   2.872  12.679 -1.4728 -1.0415  1.3036
 1759TIP3   OH226691   1.662   1.677   1.553  0.5185  0.8321 -0.4421
 1759TIP3    H126692   1.712   1.600   1.523 -0.6706  0.5440 -1.7705
 1759TIP3    H226693   1.726   1.748   1.554  1.3154  0.1350 -0.5830
 1760TIP3   OH226694   6.559   2.773   1.364 -0.0874 -0.2170 -0.2831
 1760TIP3    H126695   6.486   2.795   1.422  0.5857  0.1227  0.4481
 1760TIP3    H226696   6.569   2.850   1.308 -2.9144 -1.7574 -3.2525
 1761TIP3   OH226697   3.568   5.580   3.440 -0.3664  0.2101  0.3884
 1761TIP3    H126698   3.604   5.650   3.385 -2.9963  2.5969  1.4525
 1761TIP3    H226699   3.608   5.595   3.526 -1.7317  1.1661  0.8878
 1762TIP3   OH226700   5.028   4.154  11.233 -0.1740 -0.3872  0.1072
 1762TIP3    H126701   4.974   4.220  11.191 -0.4161  0.7318  2.0564
 1762TIP3    H226702   5.115   4.193  11.237 -0.1814 -0.4177  0.7120
 1763TIP3   OH226703   2.827   5.857  15.460 -0.9785  0.5763 -0.1469
 1763TIP3    H126704   2.877   5.839  15.540 -1.4911  0.0660  0.0666
 1763TIP3    H226705   2.868   5.802  15.393 -1.1375  0.2759 -0.0056
 1764TIP3   OH226706   6.622   4.134  16.276  0.0452  0.7543  0.2834
 1764TIP3    H126707   6.633   4.109  16.368 -1.1663  0.5798  0.4036
 1764TIP3    H226708   6.689   4.084  16.229 -0.7637 -0.9092  0.8167
 1765TIP3   OH226709   1.664   2.054   1.313 -0.3236  0.3692  0.3014
 1765TIP3    H126710   1.594   2.119   1.303 -0.7262  0.0382  0.8751
 1765TIP3    H226711   1.623   1.970   1.293  0.1598  0.2690 -0.2978
 1766TIP3   OH226712   0.152   3.943   1.074 -0.2842 -0.2391  0.3111
 1766TIP3    H126713   0.230   3.962   1.022 -2.0189  0.2633 -2.3317
 1766TIP3    H226714   0.164   3.853   1.104  2.7505  0.8755  2.9462
 1767TIP3   OH226715   4.968   6.107  13.328 -0.2970 -0.2446 -0.0818
 1767TIP3    H126716   4.909   6.175  13.295 -2.8223 -1.7229  1.0128
 1767TIP3    H226717   5.016   6.077  13.251 -1.2532  0.8085 -1.1293
 1768TIP3   OH226718   1.408   2.210   4.705  0.3489 -0.4413  0.0133
 1768TIP3    H126719   1.454   2.140   4.660 -0.1227 -0.1301 -0.9851
 1768TIP3    H226720   1.352   2.250   4.638  1.8105  1.9641  0.1068
 1769TIP3   OH226721   4.153   1.382   1.143  0.1663  0.2115 -0.7099
 1769TIP3    H126722   4.230   1.413   1.096  0.1661 -0.7529 -1.3574
 1769TIP3    H226723   4.163   1.287   1.148  0.4752  0.2978  1.8232
 1770TIP3   OH226724   6.019   1.355   5.789 -0.9163 -0.1515 -0.4070
 1770TIP3    H126725   6.046   1.319   5.705  2.3857  1.9904 -0.4161
 1770TIP3    H226726   5.929   1.323   5.800 -0.4723 -2.9629 -3.2740
 1771TIP3   OH226727   5.899   1.108  13.094 -0.0092  0.2775 -0.4432
 1771TIP3    H126728   5.886   1.152  13.178 -1.0606 -0.1966 -0.3378
 1771TIP3    H226729   5.984   1.139  13.064 -0.0615  1.2284  0.3236
 1772TIP3   OH226730   1.583   3.174   1.544  0.0388  0.0777  0.1113
 1772TIP3    H126731   1.514   3.232   1.514  0.1098  1.5375  2.4839
 1772TIP3    H226732   1.542   3.119   1.611  0.5015 -1.1240 -0.5533
 1773TIP3   OH226733   2.085   2.553   6.827  0.3479  0.0411  0.2677
 1773TIP3    H126734   2.036   2.495   6.768  2.1634 -1.7704  0.4486
 1773TIP3    H226735   2.088   2.637   6.780 -0.6182 -0.5694 -0.9439
 1774TIP3   OH226736   2.018   5.046  16.047 -0.2050  0.0194  0.2776
 1774TIP3    H126737   2.109   5.025  16.070 -0.3229  1.4551  2.1907
 1774TIP3    H226738   2.019   5.139  16.027 -0.7199 -0.5295 -2.8336
 1775TIP3   OH226739   1.451   6.628   1.410 -0.8970 -0.2816  0.3743
 1775TIP3    H126740   1.438   6.538   1.438  1.2552 -0.8566 -0.2365
 1775TIP3    H226741   1.485   6.620   1.321 -2.4982  1.2515 -0.4272
 1776TIP3   OH226742   0.529   1.025  14.231  0.3474  0.3326  0.1244
 1776TIP3    H126743   0.453   1.007  14.287  1.0755 -0.3317  0.9344
 1776TIP3    H226744   0.516   0.969  14.155  0.4978 -0.5351  0.7148
 1777TIP3   OH226745   6.089   0.715   5.435  0.0084  0.3088 -0.2436
 1777TIP3    H126746   6.112   0.714   5.528 -3.3874  1.2559  0.7462
 1777TIP3    H226747   6.082   0.808   5.413 -2.1269  0.1357 -0.5350
 1778TIP3   OH226748   5.811   6.335  14.683 -0.6097 -0.8162 -0.5952
 1778TIP3    H126749   5.881   6.394  14.656 -0.7001 -1.4990 -2.4252
 1778TIP3    H226750   5.730   6.380  14.659 -0.7914 -0.4859  0.5693
 1779TIP3   OH226751   3.230   1.961  12.805  0.1999  0.0780 -0.2114
 1779TIP3    H126752   3.311   1.937  12.759  0.3684  0.6890 -0.2364
 1779TIP3    H226753   3.236   1.915  12.888  0.3956 -0.1835 -0.3670
 1780TIP3   OH226754   1.293   0.916   6.020  0.0356 -0.1451  0.5550
 1780TIP3    H126755   1.341   0.976   5.963  1.4030  0.2734  2.0460
 1780TIP3    H226756   1.261   0.971   6.092 -1.1854 -0.7351  0.4818
 1781TIP3   OH226757   2.563   6.152  13.685  1.1104 -0.2833 -0.9064
 1781TIP3    H126758   2.511   6.082  13.647  1.5166 -0.5242 -1.0285
 1781TIP3    H226759   2.645   6.150  13.636  2.1042 -1.3215  0.6912
 1782TIP3   OH226760   6.461   5.302  16.572  0.6053 -0.5514 -0.3238
 1782TIP3    H126761   6.415   5.263  16.498  1.6649 -0.6905 -0.9295
 1782TIP3    H226762   6.516   5.370  16.533  0.9654 -0.4333  0.3685
 1783TIP3   OH226763   4.978   0.334   1.116 -0.6518 -0.2360 -0.1064
 1783TIP3    H126764   4.895   0.333   1.165  0.6817  0.0845  2.3294
 1783TIP3    H226765   4.972   0.257   1.059 -1.9102 -1.3038  1.3512
 1784TIP3   OH226766   5.424   0.447  16.387  0.1940  0.2524  0.3070
 1784TIP3    H126767   5.359   0.401  16.440  1.8276 -2.7065 -0.0046
 1784TIP3    H226768   5.492   0.471  16.450  0.6739 -0.4354  0.0687
 1785TIP3   OH226769   2.906   0.759  11.720 -0.1190 -0.8359 -0.0767
 1785TIP3    H126770   2.954   0.821  11.665  1.1191 -0.0779  1.7711
 1785TIP3    H226771   2.974   0.709  11.766 -1.1029 -1.3364  0.8866
 1786TIP3   OH226772   4.926   3.248   4.183  0.3607  0.2298 -0.0788
 1786TIP3    H126773   4.842   3.292   4.191 -0.6446 -1.7931  1.5027
 1786TIP3    H226774   4.962   3.279   4.100 -3.2010 -0.8822 -2.2625
 1787TIP3   OH226775   2.428   0.251   5.430  0.0173  0.5787 -0.0336
 1787TIP3    H126776   2.520   0.234   5.409 -0.1378 -1.3639  0.5754
 1787TIP3    H226777   2.431   0.320   5.496  1.0546  0.4704  0.0588
 1788TIP3   OH226778   5.030   0.816   1.410  0.8387 -0.5102 -0.5666
 1788TIP3    H126779   4.988   0.731   1.418  1.4902 -0.6806  1.8292
 1788TIP3    H226780   5.123   0.798   1.422  1.1440  0.3917 -1.4303
 1789TIP3   OH226781   6.266   5.188   0.436 -0.1431 -0.2741 -0.2976
 1789TIP3    H126782   6.185   5.157   0.476  0.0835  0.2665  0.6130
 1789TIP3    H226783   6.276   5.134   0.358 -1.4944 -0.1952 -0.5485
 1790TIP3   OH226784   1.672   5.497  10.692  0.5838 -0.2123 -0.0187
 1790TIP3    H126785   1.644   5.450  10.613 -0.8939 -2.2730  1.6246
 1790TIP3    H226786   1.737   5.440  10.732  0.6396  0.3672  0.7318
 1791TIP3   OH226787   5.209   6.128   0.662 -0.0281 -0.5758  0.5206
 1791TIP3    H126788   5.240   6.042   0.690  0.5679  0.2381  2.5554
 1791TIP3    H226789   5.161   6.111   0.581  0.5155 -2.7350  0.5856
 1792TIP3   OH226790   1.290   6.137  14.879  0.1056 -0.0866  0.2977
 1792TIP3    H126791   1.311   6.176  14.795 -0.0831  2.8426  1.5019
 1792TIP3    H226792   1.293   6.209  14.941 -2.3876 -1.5785  2.3950
 1793TIP3   OH226793   2.289   5.077  11.720 -0.4993  0.1693  0.3079
 1793TIP3    H126794   2.368   5.047  11.675 -0.8459  2.4507 -2.0116
 1793TIP3    H226795   2.296   5.038  11.808  2.8000 -0.3481 -0.0465
 1794TIP3   OH226796   6.377   3.122  13.608  0.2447  0.0203  0.3452
 1794TIP3    H126797   6.361   3.211  13.577 -0.0622 -0.2492 -0.3049
 1794TIP3    H226798   6.412   3.076  13.531  3.5430  0.3686  1.4799
 1795TIP3   OH226799   6.093   2.553  14.780  0.0218  0.2627 -0.6157
 1795TIP3    H126800   6.094   2.459  14.763 -0.4599  0.6553 -3.1438
 1795TIP3    H226801   6.149   2.591  14.713  1.8264  1.6855  1.5646
 1796TIP3   OH226802   6.274   5.692  15.586  0.2066  0.0285 -0.0839
 1796TIP3    H126803   6.243   5.672  15.674 -1.3994  0.6961 -0.4676
 1796TIP3    H226804   6.360   5.732  15.600  0.1272 -0.1965  1.1498
 1797TIP3   OH226805   1.791   2.873  12.983 -0.4898 -0.2406  0.4038
 1797TIP3    H126806   1.726   2.803  12.974 -1.3062  0.7304 -2.2332
 1797TIP3    H226807   1.875   2.828  12.984 -1.0291 -1.3209 -0.6487
 1798TIP3   OH226808   4.166   0.530   7.024  0.2428  0.2454  0.0200
 1798TIP3    H126809   4.215   0.585   7.085  1.4930 -0.5747 -0.2150
 1798TIP3    H226810   4.219   0.451   7.015  0.3174  0.4992 -2.4277
 1799TIP3   OH226811   0.243   5.007  10.563 -0.3410 -0.3101 -0.3664
 1799TIP3    H126812   0.318   5.060  10.589 -0.9180 -1.1896  3.6410
 1799TIP3    H226813   0.282   4.930  10.521  0.8990 -0.0374  0.2389
 1800TIP3   OH226814   2.036   5.203  12.147 -0.1051  0.0552  0.1521
 1800TIP3    H126815   2.117   5.158  12.170  0.4125  0.6451 -0.4754
 1800TIP3    H226816   2.064   5.278  12.095 -1.0105  0.6244  0.4567
 1801TIP3   OH226817   6.427   4.421   0.853  0.9384 -0.4929  0.3390
 1801TIP3    H126818   6.345   4.389   0.891  0.6498 -1.4380 -0.9988
 1801TIP3    H226819   6.490   4.351   0.870  1.0987 -0.4098  0.0835
 1802TIP3   OH226820   1.968   1.913  15.925  0.3401  0.8455 -0.0555
 1802TIP3    H126821   2.020   1.839  15.957  0.8400  0.9148 -0.6917
 1802TIP3    H226822   1.893   1.916  15.984  1.0203  0.7077  0.8463
 1803TIP3   OH226823   0.373   3.474  14.400  0.4262 -0.5468  0.1932
 1803TIP3    H126824   0.313   3.418  14.449 -0.4893 -0.2804 -0.6047
 1803TIP3    H226825   0.391   3.426  14.320 -0.7832  0.4818 -0.7408
 1804TIP3   OH226826   6.428   1.384   4.089 -0.1292  0.0208 -0.3287
 1804TIP3    H126827   6.426   1.459   4.148 -0.4946 -0.2248 -0.0278
 1804TIP3    H226828   6.514   1.388   4.048  1.6567 -1.8478  2.8707
 1805TIP3   OH226829   4.680   1.098   2.338  0.2540 -0.0946 -0.0003
 1805TIP3    H126830   4.626   1.071   2.263 -0.4530  0.4611  0.2952
 1805TIP3    H226831   4.687   1.019   2.392  1.4923 -0.7432 -1.0581
 1806TIP3   OH226832   3.686   0.739   2.148  0.3030  0.4484  0.1815
 1806TIP3    H126833   3.745   0.666   2.166 -2.0864 -1.5631  0.3806
 1806TIP3    H226834   3.708   0.766   2.058  1.7802  0.0797  0.4070
 1807TIP3   OH226835   5.559   6.276   3.508  0.5484  0.3696 -0.1808
 1807TIP3    H126836   5.477   6.257   3.554 -0.0769 -0.1371 -1.4542
 1807TIP3    H226837   5.538   6.265   3.415  1.7228  1.5375 -0.6234
 1808TIP3   OH226838   6.326   2.235  15.119 -0.0322  0.3682 -0.5042
 1808TIP3    H126839   6.250   2.243  15.177 -0.4968  0.4693 -1.1155
 1808TIP3    H226840   6.347   2.325  15.094  0.6415  0.3903  0.0877
 1809TIP3   OH226841   3.609   6.181   6.476 -0.2234 -0.0938 -0.1841
 1809TIP3    H126842   3.545   6.125   6.433  0.5959 -1.8510  0.7642
 1809TIP3    H226843   3.618   6.144   6.564  2.0389  0.0881 -0.2585
 1810TIP3   OH226844   2.567   3.517   2.134 -0.4142 -0.0204  0.8170
 1810TIP3    H126845   2.550   3.468   2.054  0.1596  1.8638 -0.5353
 1810TIP3    H226846   2.631   3.464   2.182 -0.3627 -0.9292 -0.2309
 1811TIP3   OH226847   5.358   5.155  12.762  0.4509 -0.5826 -0.2058
 1811TIP3    H126848   5.274   5.112  12.748 -0.0330  0.2507 -0.0017
 1811TIP3    H226849   5.364   5.219  12.691 -0.7893  1.8267  1.6718
 1812TIP3   OH226850   0.294   1.220   0.729 -0.0116  0.1290 -0.3636
 1812TIP3    H126851   0.204   1.239   0.756 -0.2456  0.2769 -1.2109
 1812TIP3    H226852   0.285   1.172   0.647  0.6697 -0.5368 -0.0648
 1813TIP3   OH226853   1.038   0.383   5.143  0.2559 -0.1134 -0.4747
 1813TIP3    H126854   1.013   0.432   5.221 -1.3706  0.2341 -1.1842
 1813TIP3    H226855   0.965   0.323   5.127  1.0384 -0.9217 -1.1465
 1814TIP3   OH226856   0.440   0.560   2.443 -0.0150  0.1319 -0.1703
 1814TIP3    H126857   0.388   0.481   2.456  0.1724  0.1643  0.8846
 1814TIP3    H226858   0.389   0.613   2.382 -0.0024 -0.9256 -1.1295
 1815TIP3   OH226859   4.852   4.944  13.487  0.2789 -0.4290  0.3375
 1815TIP3    H126860   4.852   4.884  13.412 -0.4186 -0.1679  0.1166
 1815TIP3    H226861   4.819   4.891  13.560 -0.9509 -0.1674 -0.0007
 1816TIP3   OH226862   3.896   0.054  15.938 -0.1987 -0.3403  0.2137
 1816TIP3    H126863   3.826   0.057  16.003 -0.1377  0.4727  0.2612
 1816TIP3    H226864   3.946   0.134  15.953 -0.9970  0.5946 -1.6967
 1817TIP3   OH226865   4.983   5.045   5.819  0.7909  0.1656 -0.2517
 1817TIP3    H126866   4.976   5.068   5.912  1.9669  0.0238 -0.1154
 1817TIP3    H226867   5.038   5.113   5.782 -0.1662  0.5586 -0.9899
 1818TIP3   OH226868   3.727   0.365  15.288  0.5419 -0.3230  0.0462
 1818TIP3    H126869   3.697   0.443  15.241  1.5674  0.3853  0.5318
 1818TIP3    H226870   3.697   0.292  15.234 -1.3075  0.3473  0.0820
 1819TIP3   OH226871   3.945   2.944  16.836  0.1331  0.3845  1.8143
 1819TIP3    H126872   4.022   2.999  16.825  0.3676 -0.3756 -0.7288
 1819TIP3    H226873   3.898   2.951  16.753 -1.5959 -0.6315  2.6448
 1820TIP3   OH226874   5.848   1.987  14.947 -0.7175 -0.2218  0.3669
 1820TIP3    H126875   5.755   1.995  14.928 -0.2700  1.1255 -1.6070
 1820TIP3    H226876   5.878   1.918  14.887 -0.3940 -0.4995  0.8412
 1821TIP3   OH226877   0.665   3.849   6.483 -0.1825 -0.4217  0.1382
 1821TIP3    H126878   0.620   3.773   6.446 -0.3686 -0.1435 -0.2089
 1821TIP3    H226879   0.743   3.859   6.429 -0.7423  0.3282 -0.5507
 1822TIP3   OH226880   5.616   5.166  14.998 -0.3996  0.7507  0.1486
 1822TIP3    H126881   5.699   5.125  15.021 -0.4022  0.0030 -1.1138
 1822TIP3    H226882   5.550   5.118  15.048 -0.1718  0.7077  0.4061
 1823TIP3   OH226883   6.311   6.390   3.072  0.4185  0.9595  0.3907
 1823TIP3    H126884   6.284   6.426   2.988  1.9365  1.2226 -0.0084
 1823TIP3    H226885   6.322   6.297   3.057  1.0413  1.0622  0.1977
 1824TIP3   OH226886   6.068   3.052   3.684  0.0585  0.1619  0.4927
 1824TIP3    H126887   6.108   3.035   3.599  1.1594  0.4060  0.9403
 1824TIP3    H226888   5.975   3.034   3.672  0.3924 -1.0226 -0.4256
 1825TIP3   OH226889   1.737   6.343  12.152 -0.2918  0.0354 -0.0899
 1825TIP3    H126890   1.715   6.341  12.245 -0.1076 -0.5440 -0.0518
 1825TIP3    H226891   1.745   6.436  12.130 -1.0256  0.1954  0.3073
 1826TIP3   OH226892   5.936   6.759   5.061  0.2235  0.4698  0.1107
 1826TIP3    H126893   5.981   6.704   4.997  0.2443  0.9137 -0.2593
 1826TIP3    H226894   6.002   6.777   5.128  0.3623  0.4557 -0.0218
 1827TIP3   OH226895   0.753   2.153  11.872 -0.3712  0.2545  0.2315
 1827TIP3    H126896   0.724   2.204  11.796 -0.4129 -1.6718 -1.1171
 1827TIP3    H226897   0.692   2.080  11.877 -0.7744  0.6815  2.5903
 1828TIP3   OH226898   3.923   2.562   3.002 -0.6427 -0.2895  0.1769
 1828TIP3    H126899   3.993   2.548   2.939 -0.0067 -0.7631  0.9721
 1828TIP3    H226900   3.964   2.550   3.087 -0.6697  3.5529  0.9272
 1829TIP3   OH226901   0.006   4.991  13.241  0.0757  0.0848  0.6125
 1829TIP3    H126902  -0.034   5.071  13.275  0.4481  0.0281  1.1926
 1829TIP3    H226903   0.007   4.931  13.316 -1.0334 -0.7898 -0.0339
 1830TIP3   OH226904   6.089   2.147  12.543  0.3213 -0.3135 -0.1556
 1830TIP3    H126905   6.098   2.120  12.451  1.7513  0.2684 -0.2083
 1830TIP3    H226906   6.139   2.081  12.591  1.1623  0.4324  0.0118
 1831TIP3   OH226907   5.366   0.117   4.987  0.3618  0.0007  0.0337
 1831TIP3    H126908   5.435   0.147   4.928  0.8771  0.7998  1.0118
 1831TIP3    H226909   5.330   0.197   5.025 -0.2458 -0.4742  0.4930
 1832TIP3   OH226910   2.476   4.080   2.534 -0.1973 -0.3851  0.3872
 1832TIP3    H126911   2.518   4.067   2.619 -0.3806  2.7916  1.0547
 1832TIP3    H226912   2.546   4.111   2.477 -0.5660 -0.2281  0.0155
 1833TIP3   OH226913   4.271   5.929   6.332  0.0489  0.3424 -0.0422
 1833TIP3    H126914   4.317   5.861   6.381  0.5845 -0.4475 -1.6059
 1833TIP3    H226915   4.191   5.887   6.300 -0.5784  1.0175  0.5844
 1834TIP3   OH226916   3.608   0.066   5.891 -0.3968  0.3227  0.1827
 1834TIP3    H126917   3.628   0.005   5.962  1.0787  1.8036  1.1153
 1834TIP3    H226918   3.512   0.067   5.887 -0.4689 -1.1512  0.9180
 1835TIP3   OH226919   4.022   4.505   4.169  0.5260 -0.2472  0.1356
 1835TIP3    H126920   4.000   4.485   4.260 -0.7483  2.2483  0.4586
 1835TIP3    H226921   4.111   4.539   4.173  0.0642  0.9467  0.6604
 1836TIP3   OH226922   5.684   2.795   1.004  0.5181  1.0255 -0.5165
 1836TIP3    H126923   5.650   2.718   0.959  0.2841  1.3886 -0.9763
 1836TIP3    H226924   5.699   2.767   1.094  0.2902  0.4891 -0.6457
 1837TIP3   OH226925   0.697   4.041   3.442 -0.1445 -0.0382  0.2905
 1837TIP3    H126926   0.695   4.020   3.349  1.3079 -1.2720  0.4982
 1837TIP3    H226927   0.658   3.965   3.485  1.3414 -0.5418  0.8074
 1838TIP3   OH226928   0.717   5.803  12.888  0.4028 -0.2965 -0.6285
 1838TIP3    H126929   0.725   5.887  12.933 -2.2164 -1.2484  1.9256
 1838TIP3    H226930   0.806   5.783  12.857  1.6337  2.0939  1.0611
 1839TIP3   OH226931   0.537   1.546  16.050 -0.1364  0.3789  0.0322
 1839TIP3    H126932   0.618   1.551  16.101 -0.6118 -1.6314  1.0591
 1839TIP3    H226933   0.563   1.506  15.967  0.1547  1.1314 -0.2527
 1840TIP3   OH226934   3.669   1.808   5.760  0.2760  0.5985 -0.1667
 1840TIP3    H126935   3.650   1.789   5.852 -2.3878  2.8223 -0.1297
 1840TIP3    H226936   3.618   1.743   5.712  0.8993  0.0472 -0.0964
 1841TIP3   OH226937   5.409   4.141   4.622  0.5928  0.4694  0.4030
 1841TIP3    H126938   5.502   4.165   4.621  0.2947  1.7260 -1.0911
 1841TIP3    H226939   5.391   4.113   4.532 -0.5723  0.6527  0.5680
 1842TIP3   OH226940   4.059   5.247   1.687 -0.1430  0.6428  0.1897
 1842TIP3    H126941   4.143   5.293   1.674 -0.0994  0.5862  0.2736
 1842TIP3    H226942   4.084   5.161   1.722 -0.0866 -0.1532 -1.6593
 1843TIP3   OH226943   5.762   5.753   0.287 -0.5971  0.1227 -0.0310
 1843TIP3    H126944   5.791   5.765   0.378  0.8544 -0.1624 -0.4424
 1843TIP3    H226945   5.792   5.666   0.264  1.7728  1.2953 -1.7495
 1844TIP3   OH226946   3.199   6.676  11.992  0.0573 -0.8389 -0.5697
 1844TIP3    H126947   3.230   6.625  11.917  1.1557 -1.3367  0.1896
 1844TIP3    H226948   3.279   6.704  12.037 -0.5720 -0.1163  0.1369
 1845TIP3   OH226949   6.334   0.788   3.777 -0.6348  0.4595 -0.0658
 1845TIP3    H126950   6.361   0.697   3.776 -1.4999  0.1654  1.0856
 1845TIP3    H226951   6.341   0.817   3.686  3.6478  0.4987  0.0686
 1846TIP3   OH226952   3.722   4.376  14.188  0.1087 -0.2587 -0.2592
 1846TIP3    H126953   3.645   4.405  14.140 -0.0573 -0.5872 -0.1910
 1846TIP3    H226954   3.737   4.286  14.159  1.5106  0.3474 -1.5913
 1847TIP3   OH226955   1.215   1.201  13.637  0.5601  0.5896 -0.2847
 1847TIP3    H126956   1.160   1.132  13.601 -1.6995  1.5165  1.1328
 1847TIP3    H226957   1.273   1.226  13.564  0.6172 -1.8915 -1.1872
 1848TIP3   OH226958   0.225   4.759  14.631 -0.2181 -0.2213 -0.2091
 1848TIP3    H126959   0.166   4.687  14.612  1.9711 -2.5728  1.2704
 1848TIP3    H226960   0.277   4.770  14.551  1.5513 -2.5656  0.5007
 1849TIP3   OH226961   1.140   5.834   3.247 -0.8004  0.1622 -0.6497
 1849TIP3    H126962   1.166   5.762   3.190  0.7436  0.6397 -0.5982
 1849TIP3    H226963   1.166   5.913   3.200  0.2704  0.5717  0.5703
 1850TIP3   OH226964   1.797   6.773   3.188 -0.1600 -1.0114 -0.2771
 1850TIP3    H126965   1.714   6.735   3.161 -1.0285  1.8771 -2.1913
 1850TIP3    H226966   1.773   6.840   3.253  0.4089  0.7658 -1.8078
 1851TIP3   OH226967   1.108   3.926  14.005  0.2532 -0.5132 -0.0520
 1851TIP3    H126968   1.178   3.951  14.066  0.3410 -0.0479 -0.3368
 1851TIP3    H226969   1.027   3.937  14.055  0.3048  0.1535 -0.0998
 1852TIP3   OH226970   3.341   3.969   5.591 -0.4608  0.0003 -0.0307
 1852TIP3    H126971   3.267   3.955   5.650  1.3791 -0.4327  2.3275
 1852TIP3    H226972   3.306   4.026   5.523 -2.5773  1.1097  1.8211
 1853TIP3   OH226973   1.308   1.846   1.771  0.0051  0.1210  0.0688
 1853TIP3    H126974   1.255   1.887   1.840 -2.8323  2.2334 -3.0386
 1853TIP3    H226975   1.261   1.766   1.749 -0.0587  0.3308 -0.5559
 1854TIP3   OH226976   2.521   4.846  13.225 -0.1798  0.5965 -0.4691
 1854TIP3    H126977   2.608   4.860  13.188 -0.3810  0.4852 -1.0019
 1854TIP3    H226978   2.521   4.894  13.307  0.5288  0.2421 -0.2574
 1855TIP3   OH226979   4.556   3.418  14.249  0.4904  0.8055  0.1042
 1855TIP3    H126980   4.495   3.475  14.295 -0.8516  1.1617 -1.9477
 1855TIP3    H226981   4.531   3.329  14.274  0.5644  1.0119  0.9335
 1856TIP3   OH226982   3.716   3.805  13.927 -0.8690  0.0698 -0.0023
 1856TIP3    H126983   3.622   3.811  13.944 -0.5665  1.4166  1.4329
 1856TIP3    H226984   3.757   3.836  14.008  0.8044  0.4531 -0.9501
 1857TIP3   OH226985   4.371   4.677   2.710 -0.3401 -0.1430  0.0328
 1857TIP3    H126986   4.409   4.764   2.719 -0.9293  0.0115  1.1425
 1857TIP3    H226987   4.439   4.618   2.743  0.4091 -0.2088 -1.5299
 1858TIP3   OH226988   1.108   5.063  13.149  0.4178 -0.2890  0.1832
 1858TIP3    H126989   1.101   4.995  13.216  0.2394  0.7129  1.2179
 1858TIP3    H226990   1.173   5.029  13.087  0.0462 -1.5603  0.4521
 1859TIP3   OH226991   3.429   2.907  11.757  0.0826  0.4641 -0.1811
 1859TIP3    H126992   3.484   2.897  11.679 -1.4146 -0.7159 -1.1372
 1859TIP3    H226993   3.483   2.875  11.829  1.0961  0.5149 -0.9007
 1860TIP3   OH226994   4.145   5.839   5.997  0.3952 -0.0982 -0.1257
 1860TIP3    H126995   4.105   5.814   6.081  0.9645 -1.3270 -0.1934
 1860TIP3    H226996   4.239   5.823   6.010  0.8213  2.0462 -0.2051
 1861TIP3   OH226997   5.097   3.389  16.206  0.1328 -0.1768 -0.0273
 1861TIP3    H126998   5.154   3.428  16.273  1.1599 -0.0762 -0.9129
 1861TIP3    H226999   5.034   3.458  16.186  1.7178  0.9979 -1.3230
 1862TIP3   OH227000   1.175   4.918   4.808 -0.7497  0.2745 -0.0144
 1862TIP3    H127001   1.226   4.996   4.829 -0.9065 -0.0033  1.5277
 1862TIP3    H227002   1.237   4.846   4.813 -0.8338  0.1772 -0.3432
 1863TIP3   OH227003   0.392   1.698   0.395  0.2482  0.3168  0.1792
 1863TIP3    H127004   0.335   1.644   0.450  0.4147  0.8807  0.9143
 1863TIP3    H227005   0.351   1.784   0.396 -0.0111  0.2242 -0.9838
 1864TIP3   OH227006   4.373   1.406   4.618  0.3425  0.0925  0.7180
 1864TIP3    H127007   4.371   1.449   4.703 -1.6653  0.2173  0.6642
 1864TIP3    H227008   4.291   1.357   4.614  0.4100  0.0452 -1.1143
 1865TIP3   OH227009   0.185   1.341   4.593  0.2795  0.2767 -0.1509
 1865TIP3    H127010   0.145   1.420   4.556  1.2338  1.2470  0.8448
 1865TIP3    H227011   0.267   1.370   4.632  1.0735 -1.3591 -0.4908
 1866TIP3   OH227012   6.227   1.237   6.521  0.2619  0.5546 -0.1815
 1866TIP3    H127013   6.286   1.185   6.576  2.0785  0.2326 -2.3024
 1866TIP3    H227014   6.276   1.317   6.502 -1.1597  1.5835  0.2461
 1867TIP3   OH227015   6.567   4.307  15.313  0.2010 -0.1242  0.2426
 1867TIP3    H127016   6.575   4.339  15.403 -2.5015  0.8615  0.2326
 1867TIP3    H227017   6.611   4.222  15.314 -0.0542 -0.3122  2.6071
 1868TIP3   OH227018   1.506   4.709  12.559 -0.5473 -0.1477 -0.2676
 1868TIP3    H127019   1.448   4.637  12.582  1.0601 -0.7460  2.2861
 1868TIP3    H227020   1.594   4.675  12.573  0.3660  1.5218 -1.5584
 1869TIP3   OH227021   2.481   6.566   1.067 -0.0933  0.4379 -0.3874
 1869TIP3    H127022   2.557   6.510   1.053 -1.0762 -0.4310 -2.6403
 1869TIP3    H227023   2.504   6.649   1.027 -0.4257  0.0738 -1.3516
 1870TIP3   OH227024   0.501   2.842   3.743 -0.3127 -0.6298  0.1421
 1870TIP3    H127025   0.562   2.838   3.817  0.6903 -0.8342 -0.6645
 1870TIP3    H227026   0.472   2.933   3.740  2.0255  0.1481 -1.0488
 1871TIP3   OH227027   0.785   3.886   2.526 -0.5971  0.2755 -0.7175
 1871TIP3    H127028   0.755   3.876   2.436  1.5707  0.2533 -1.4809
 1871TIP3    H227029   0.802   3.980   2.535 -0.4524  0.2238 -0.4406
 1872TIP3   OH227030   2.221   6.464   2.371  0.1422 -0.1910  0.7283
 1872TIP3    H127031   2.315   6.481   2.376 -0.2337  2.8588 -0.3017
 1872TIP3    H227032   2.211   6.414   2.290  0.8843 -0.8769  1.0425
 1873TIP3   OH227033   5.351   0.967   4.960 -0.1013  0.0608 -0.2432
 1873TIP3    H127034   5.418   0.964   4.892 -0.6023 -0.3818 -0.7297
 1873TIP3    H227035   5.331   1.060   4.971  0.4532  0.1791 -0.2285
 1874TIP3   OH227036   2.575   1.735   3.197 -0.8074 -0.4823 -0.0383
 1874TIP3    H127037   2.545   1.652   3.158 -2.7828 -0.1385  0.6315
 1874TIP3    H227038   2.591   1.792   3.122  0.6498 -1.4575 -0.5141
 1875TIP3   OH227039   3.266   0.667   4.550  0.2522  0.0694  0.3563
 1875TIP3    H127040   3.215   0.748   4.553 -1.7797 -1.1276  0.2671
 1875TIP3    H227041   3.357   0.696   4.558 -0.4365  2.2844  1.1096
 1876TIP3   OH227042   2.076   5.824  15.211  0.2764 -0.5050 -0.0479
 1876TIP3    H127043   1.986   5.803  15.183 -0.9426  1.7652  1.8160
 1876TIP3    H227044   2.084   5.918  15.197  1.9642 -0.4611  0.9351
 1877TIP3   OH227045   6.677   6.725  14.151 -0.5489 -0.2309 -0.0579
 1877TIP3    H127046   6.623   6.653  14.183 -1.0472  0.2487  0.2068
 1877TIP3    H227047   6.741   6.684  14.093 -2.5452 -0.5849 -2.1474
 1878TIP3   OH227048   6.034   0.874   2.551  0.4585 -0.0226  0.0276
 1878TIP3    H127049   6.045   0.805   2.617 -1.9204  1.2120  1.8676
 1878TIP3    H227050   5.963   0.842   2.495 -0.0385  0.4928  0.3456
 1879TIP3   OH227051   2.748   3.655   0.162  0.2815 -0.3971  0.3337
 1879TIP3    H127052   2.812   3.720   0.190 -0.8971  1.2200 -0.5610
 1879TIP3    H227053   2.788   3.614   0.085  0.9556 -0.6158  0.7891
 1880TIP3   OH227054   2.772   4.764  12.051 -0.4538  0.2180 -0.1034
 1880TIP3    H127055   2.782   4.791  12.142 -2.4719 -0.1955  0.3026
 1880TIP3    H227056   2.794   4.671  12.050  0.0606  0.3349 -0.1632
 1881TIP3   OH227057   3.303   1.774   3.580 -0.5686  0.4388 -0.7131
 1881TIP3    H127058   3.395   1.765   3.556 -0.4086  0.3863 -0.1105
 1881TIP3    H227059   3.304   1.823   3.663 -1.0025 -0.6911 -0.0215
 1882TIP3   OH227060   4.766   4.161   2.261 -0.3142  0.5861  0.2628
 1882TIP3    H127061   4.800   4.129   2.345 -0.0391 -0.8165 -0.3619
 1882TIP3    H227062   4.824   4.123   2.195 -2.6858 -1.4458 -0.8271
 1883TIP3   OH227063   5.809   4.777   1.325 -0.2482  0.3037 -0.7977
 1883TIP3    H127064   5.826   4.719   1.251 -2.4070 -0.1903 -0.9425
 1883TIP3    H227065   5.772   4.721   1.393 -1.0300  1.2591 -0.4177
 1884TIP3   OH227066   1.291   2.302   0.038 -0.0137 -0.1825 -0.0164
 1884TIP3    H127067   1.289   2.235   0.106 -1.9145 -0.2318 -0.0443
 1884TIP3    H227068   1.277   2.253  -0.044  1.0022  0.0089 -0.3148
 1885TIP3   OH227069   1.775   3.394   1.871  0.0077  0.6553 -0.2206
 1885TIP3    H127070   1.797   3.377   1.779 -1.2425  0.6384 -0.5220
 1885TIP3    H227071   1.690   3.438   1.868  0.0289  0.7978  0.9254
 1886TIP3   OH227072   2.127   0.476   6.383  0.1576 -0.1318 -0.4085
 1886TIP3    H127073   2.115   0.557   6.434 -1.6482 -1.1912  1.0173
 1886TIP3    H227074   2.042   0.462   6.341  0.9330 -0.4995 -1.9061
 1887TIP3   OH227075   6.653   2.194  11.818 -0.3804  0.3461 -0.0901
 1887TIP3    H127076   6.708   2.258  11.773 -1.0225 -0.1181 -1.5860
 1887TIP3    H227077   6.689   2.190  11.907 -0.1599  2.5732 -0.0312
 1888TIP3   OH227078   5.642   3.850   6.222  0.2976 -0.2367 -0.9583
 1888TIP3    H127079   5.620   3.941   6.244  1.1277  0.0084 -1.0954
 1888TIP3    H227080   5.559   3.811   6.195 -0.4563 -0.0814  0.9516
 1889TIP3   OH227081   6.058   4.733  17.017  0.5088  0.3659 -0.1435
 1889TIP3    H127082   6.011   4.759  16.939  1.7380  0.8872 -0.7354
 1889TIP3    H227083   6.116   4.662  16.988  1.2079  0.7777  0.1974
 1890TIP3   OH227084   1.881   5.709   3.996 -0.2657 -0.7835  0.1199
 1890TIP3    H127085   1.813   5.776   3.991 -0.4869 -0.8187  2.0824
 1890TIP3    H227086   1.842   5.632   3.954 -0.6624 -0.2091 -0.5817
 1891TIP3   OH227087   2.972   3.257   0.448  0.5186  0.3778  0.0163
 1891TIP3    H127088   2.891   3.307   0.449 -1.2159 -2.1636 -1.8758
 1891TIP3    H227089   3.038   3.320   0.418 -1.1249  2.0301 -0.3188
 1892TIP3   OH227090   0.345   0.421   5.410 -0.6034 -0.2507  0.1746
 1892TIP3    H127091   0.411   0.383   5.468 -1.2708  1.9580  2.5757
 1892TIP3    H227092   0.265   0.371   5.429 -0.6889  0.1071  0.7901
 1893TIP3   OH227093   0.024   0.758  11.502 -0.3681  0.2057  0.1116
 1893TIP3    H127094  -0.021   0.809  11.434  2.2858  0.8408 -1.3130
 1893TIP3    H227095  -0.010   0.669  11.491 -1.5737  0.7118 -0.5666
 1894TIP3   OH227096   6.535   4.906  15.185 -0.2020  0.4185  0.0168
 1894TIP3    H127097   6.502   4.923  15.097  0.1156 -0.9353 -0.3804
 1894TIP3    H227098   6.516   4.814  15.201 -0.2125  0.6256  1.3605
 1895TIP3   OH227099   3.801   2.040   4.641  0.6013  0.0841 -0.7253
 1895TIP3    H127100   3.787   1.992   4.723 -1.1096  2.3821  0.4505
 1895TIP3    H227101   3.724   2.019   4.588 -0.0897  1.3498 -0.2567
 1896TIP3   OH227102   0.035   6.701  16.111  0.2016  0.2005  0.0490
 1896TIP3    H127103   0.001   6.784  16.143 -0.0881  0.3395 -0.6141
 1896TIP3    H227104   0.120   6.722  16.074 -0.1640  0.3178 -0.7259
 1897TIP3   OH227105   4.181   6.038  11.232 -0.1137  0.2404  0.1687
 1897TIP3    H127106   4.234   6.048  11.152  0.3164  1.4124  0.5768
 1897TIP3    H227107   4.097   6.006  11.201  0.8746 -1.8836 -0.4824
 1898TIP3   OH227108   1.147   0.962  16.745 -0.3100 -0.3715 -0.3108
 1898TIP3    H127109   1.109   0.948  16.659 -1.0879  2.2496 -0.4750
 1898TIP3    H227110   1.120   1.050  16.770  3.3358  0.6514  0.7708
 1899TIP3   OH227111   2.479   5.809   4.974 -0.5699  0.3305 -0.6191
 1899TIP3    H127112   2.407   5.762   5.015 -0.6219 -0.9266 -2.0837
 1899TIP3    H227113   2.449   5.900   4.969 -0.6987  0.4915  1.7195
 1900TIP3   OH227114   5.172   5.471  12.793 -0.3063  0.6141 -0.0085
 1900TIP3    H127115   5.178   5.464  12.888 -3.1144  0.3948  0.2277
 1900TIP3    H227116   5.090   5.428  12.770  0.3832  0.4824 -2.5805
 1901TIP3   OH227117   6.218   0.956   1.997 -0.0536  0.2670 -0.2199
 1901TIP3    H127118   6.241   0.959   1.904  2.7555  1.0656  0.3983
 1901TIP3    H227119   6.176   0.871   2.008  1.1252 -0.6039 -1.9107
 1902TIP3   OH227120   3.934   5.665   2.051  0.4049  0.4670  0.0982
 1902TIP3    H127121   3.860   5.630   2.102  0.2909  1.4911  0.6500
 1902TIP3    H227122   3.943   5.603   1.978 -1.4340  0.6706 -0.3670
 1903TIP3   OH227123   4.026   0.676   3.503  0.1415 -0.2995  0.3977
 1903TIP3    H127124   4.025   0.621   3.425 -0.7731 -0.1272  0.2688
 1903TIP3    H227125   4.060   0.760   3.473 -0.2787 -0.2096  0.1523
 1904TIP3   OH227126   0.134   0.732   6.148  0.3270 -0.5990  0.1097
 1904TIP3    H127127   0.086   0.746   6.230  0.9555 -1.0922  0.5699
 1904TIP3    H227128   0.067   0.702   6.086 -0.2544  0.3433  0.2771
 1905TIP3   OH227129   0.507   2.173   1.027  0.1062  0.8965 -0.4952
 1905TIP3    H127130   0.534   2.088   1.063 -3.1127  0.0999  0.3577
 1905TIP3    H227131   0.468   2.151   0.943 -1.9604  1.2646  0.3154
 1906TIP3   OH227132   1.514   5.731   3.776  0.2384 -0.3880  0.1665
 1906TIP3    H127133   1.584   5.747   3.713 -0.2003 -0.5697 -0.3760
 1906TIP3    H227134   1.438   5.707   3.722 -0.4754  0.6205  0.6762
 1907TIP3   OH227135   4.295   3.443   0.562  0.3913 -0.4166 -0.5224
 1907TIP3    H127136   4.256   3.520   0.521  0.3320 -0.7673 -1.1524
 1907TIP3    H227137   4.388   3.448   0.540  0.4757 -0.2534 -0.1240
 1908TIP3   OH227138   2.476   6.626   2.040 -0.2085 -0.0079  0.2141
 1908TIP3    H127139   2.407   6.692   2.031 -1.6087 -1.2902  0.9842
 1908TIP3    H227140   2.471   6.600   2.132 -0.1859 -1.6587 -0.2276
 1909TIP3   OH227141   2.207   1.440   5.605 -0.1400 -0.3412  0.7029
 1909TIP3    H127142   2.143   1.507   5.631  0.3743  0.6002 -0.3844
 1909TIP3    H227143   2.153   1.363   5.583 -1.0563  0.8000 -1.3334
 1910TIP3   OH227144   3.196   3.637  16.701 -0.7310 -0.3865  0.0115
 1910TIP3    H127145   3.203   3.547  16.669 -2.3787 -0.6025  0.1557
 1910TIP3    H227146   3.122   3.674  16.652 -1.9486 -0.0662  1.9734
 1911TIP3   OH227147   5.611   5.206  17.182 -0.3424  0.1525  0.2253
 1911TIP3    H127148   5.671   5.167  17.118  1.7563  1.2693  1.3760
 1911TIP3    H227149   5.589   5.135  17.241  0.2392 -0.2034  0.0264
 1912TIP3   OH227150   4.993   6.279  14.861  0.0304  0.1959 -0.1447
 1912TIP3    H127151   5.060   6.348  14.865  0.7170 -0.4008 -1.0232
 1912TIP3    H227152   5.016   6.227  14.784 -1.9458  0.4717 -0.9861
 1913TIP3   OH227153   3.304   4.107   0.258  0.3792  0.2252 -0.2856
 1913TIP3    H127154   3.359   4.040   0.297 -1.2023 -0.8119  0.2410
 1913TIP3    H227155   3.237   4.124   0.324 -0.2908  1.0136 -1.1505
 1914TIP3   OH227156   4.323   0.603   3.200 -0.5046 -0.4140 -0.5620
 1914TIP3    H127157   4.393   0.590   3.136 -0.9476 -0.6921 -1.0006
 1914TIP3    H227158   4.256   0.539   3.174  0.1925 -2.0971  1.4679
 1915TIP3   OH227159   5.097   4.834   3.074  0.3742 -0.0357 -0.1771
 1915TIP3    H127160   5.180   4.849   3.028  0.2195  0.8510 -0.1809
 1915TIP3    H227161   5.044   4.783   3.011  0.4660  0.4584 -0.6618
 1916TIP3   OH227162   3.906   0.366   1.728 -0.5575  1.1097 -0.1989
 1916TIP3    H127163   3.998   0.387   1.715 -0.0378 -0.5772  0.4667
 1916TIP3    H227164   3.875   0.432   1.790  0.3595  1.3843 -0.0166
 1917TIP3   OH227165   0.729   2.293  15.324  0.0315  0.0462  0.4455
 1917TIP3    H127166   0.667   2.262  15.389 -0.5220 -0.3334 -0.2550
 1917TIP3    H227167   0.775   2.215  15.295  2.0918  0.4969  2.1732
 1918TIP3   OH227168   5.321   0.164   5.309  0.1449  0.7046 -0.0571
 1918TIP3    H127169   5.270   0.218   5.249 -2.5756 -0.9117  0.6540
 1918TIP3    H227170   5.286   0.185   5.396  2.1968  1.0752  0.7390
 1919TIP3   OH227171   1.398   6.192   4.880 -0.3408 -0.0815 -0.0538
 1919TIP3    H127172   1.440   6.267   4.921 -1.0195 -0.0155  0.5437
 1919TIP3    H227173   1.334   6.162   4.944 -0.2615 -1.0152 -0.3877
 1920TIP3   OH227174   3.200   2.132  16.916 -0.1461  0.0858  0.2192
 1920TIP3    H127175   3.264   2.197  16.887  0.9251 -1.6824 -1.6896
 1920TIP3    H227176   3.116   2.178  16.916  0.8337  1.9885  1.0444
 1921TIP3   OH227177   2.174   2.169   0.421 -0.1429 -0.1354 -0.2361
 1921TIP3    H127178   2.213   2.168   0.509 -0.9290 -1.8141  0.1478
 1921TIP3    H227179   2.243   2.135   0.364 -0.1293 -0.4880 -0.0121
 1922TIP3   OH227180   2.297   1.881  16.715  0.3549  0.1837 -0.6860
 1922TIP3    H127181   2.329   1.817  16.651  2.7023  0.2544  0.3143
 1922TIP3    H227182   2.372   1.939  16.730 -0.7502  1.3158  0.7081
 1923TIP3   OH227183   0.307   6.259   2.943 -0.1700 -0.4267 -0.3455
 1923TIP3    H127184   0.223   6.300   2.925  0.0453 -0.6307 -1.9942
 1923TIP3    H227185   0.354   6.263   2.859  0.9506 -1.4875  0.1963
 1924TIP3   OH227186   3.038   3.110  14.683  0.6414 -0.0348 -0.1824
 1924TIP3    H127187   3.122   3.092  14.724  0.4152  1.1067  0.8597
 1924TIP3    H227188   2.979   3.044  14.720  0.3143  1.3063  1.8690
 1925TIP3   OH227189   6.353   1.183  17.215 -0.4251  0.2964 -0.1294
 1925TIP3    H127190   6.346   1.243  17.141 -0.1475 -0.6163 -0.9155
 1925TIP3    H227191   6.301   1.107  17.190 -0.8600  0.2404  0.8973
 1926TIP3   OH227192   3.166   6.625   2.316  0.1870 -0.0287  0.0479
 1926TIP3    H127193   3.093   6.586   2.270  1.6548 -0.9628 -1.6129
 1926TIP3    H227194   3.187   6.562   2.386 -0.4034  0.1108  0.3538
 1927TIP3   OH227195   0.447   5.547  13.163 -0.0875 -0.1670  0.0674
 1927TIP3    H127196   0.393   5.543  13.085  0.7027 -0.1202 -0.4870
 1927TIP3    H227197   0.490   5.632  13.159  1.8320 -1.1117 -0.7311
 1928TIP3   OH227198   5.960   4.016  13.092  0.8604 -0.0308  0.3375
 1928TIP3    H127199   5.929   3.975  13.011 -3.3651  3.2235 -0.0654
 1928TIP3    H227200   6.030   4.075  13.064  0.5056 -0.0805 -0.6966
 1929TIP3   OH227201   2.906   2.853   4.533 -0.6743  0.1401  0.5076
 1929TIP3    H127202   2.884   2.944   4.549 -1.4047 -0.3480  2.5989
 1929TIP3    H227203   2.982   2.836   4.589  0.6801 -0.0721 -1.3064
 1930TIP3   OH227204   2.048   1.665   3.029 -0.0490 -0.1219 -0.2069
 1930TIP3    H127205   1.986   1.597   3.004 -0.1633  0.0727 -0.4563
 1930TIP3    H227206   2.053   1.659   3.125 -0.2871 -0.2793 -0.2048
 1931TIP3   OH227207   1.455   2.049  13.880  0.2682 -0.1962  0.4634
 1931TIP3    H127208   1.490   2.135  13.900 -1.0240  0.6703 -0.8170
 1931TIP3    H227209   1.527   2.002  13.838 -0.1271  1.7056 -2.5961
 1932TIP3   OH227210   2.124   2.720  16.356  0.3254  0.2349  0.1231
 1932TIP3    H127211   2.169   2.797  16.389 -0.2640  0.7366 -0.2256
 1932TIP3    H227212   2.068   2.753  16.286 -0.6626 -0.3473  0.6135
 1933TIP3   OH227213   1.835   5.990   6.094  0.4937  0.3677  0.3531
 1933TIP3    H127214   1.753   6.002   6.141  0.6635  0.7704  0.5480
 1933TIP3    H227215   1.901   5.977   6.163  0.3188 -1.8799  0.1871
 1934TIP3   OH227216   4.385   6.024   3.771  1.1328  0.0365 -0.0135
 1934TIP3    H127217   4.337   6.085   3.827  1.3906 -0.7599  1.1086
 1934TIP3    H227218   4.426   6.080   3.704 -2.0642  0.7053 -1.6415
 1935TIP3   OH227219   6.041   1.122  14.610  0.0844  0.3698  0.0160
 1935TIP3    H127220   5.983   1.114  14.535 -0.7315  1.1111  0.5513
 1935TIP3    H227221   6.076   1.034  14.624 -1.2262 -0.1773 -0.0716
 1936TIP3   OH227222   4.799   0.528   5.097  0.2290  0.3140 -0.1474
 1936TIP3    H127223   4.738   0.456   5.110 -0.8843  1.2997  0.2480
 1936TIP3    H227224   4.877   0.487   5.060 -0.9066 -0.8819 -1.3053
 1937TIP3   OH227225   6.702   3.522  15.161  0.3620  0.1591  0.2715
 1937TIP3    H127226   6.785   3.556  15.194  1.2794  0.7118 -2.3090
 1937TIP3    H227227   6.727   3.472  15.083 -1.6882  0.1233 -0.4112
 1938TIP3   OH227228   3.038   2.417  12.278 -0.3330  0.2647 -0.2289
 1938TIP3    H127229   3.009   2.326  12.289 -1.3149  0.7467  1.5567
 1938TIP3    H227230   3.132   2.413  12.297 -0.3551 -0.3866 -0.2100
 1939TIP3   OH227231   6.144   2.548  13.568  0.7596 -0.0200 -0.1298
 1939TIP3    H127232   6.206   2.485  13.604 -0.6489 -0.6893  1.2354
 1939TIP3    H227233   6.199   2.610  13.520  2.6267 -0.0167  1.8159
 1940TIP3   OH227234   5.892   1.768  11.871  0.0052 -0.5107  0.1472
 1940TIP3    H127235   5.978   1.726  11.858 -0.1848 -0.3702 -2.0361
 1940TIP3    H227236   5.895   1.844  11.814 -1.8234 -0.9066 -0.5259
 1941TIP3   OH227237   1.651   6.195  13.008  0.1912 -0.4549 -0.1267
 1941TIP3    H127238   1.733   6.206  13.057  0.3006 -1.0516 -0.1687
 1941TIP3    H227239   1.673   6.134  12.938 -0.6899 -1.9805  0.8658
 1942TIP3   OH227240   4.105   1.345  15.022  0.4379  0.0650  0.0404
 1942TIP3    H127241   4.085   1.397  15.099 -0.5947  1.2950 -1.0119
 1942TIP3    H227242   4.082   1.401  14.948  1.3313 -1.0965 -1.1767
 1943TIP3   OH227243   0.930   3.963  16.232 -0.0510 -0.3447  0.0281
 1943TIP3    H127244   0.862   3.913  16.186 -1.6125  1.4710  0.2546
 1943TIP3    H227245   0.908   3.954  16.324  0.8460 -0.8377  0.2112
 1944TIP3   OH227246   5.706   3.015   5.868  0.7672 -0.5415 -0.0556
 1944TIP3    H127247   5.748   3.074   5.931 -1.9323  0.6172  0.8139
 1944TIP3    H227248   5.771   3.002   5.800  2.3010  1.6100  0.8831
 1945TIP3   OH227249   4.509   2.006  12.465 -0.8381 -0.5359 -0.1026
 1945TIP3    H127250   4.501   1.966  12.378  1.3222 -0.5348 -0.3423
 1945TIP3    H227251   4.508   2.100  12.449  3.0905 -0.4318 -0.6585
 1946TIP3   OH227252   5.439   6.434  14.819  0.0764 -0.3093  0.7736
 1946TIP3    H127253   5.466   6.471  14.734 -1.3123 -1.9391 -0.4585
 1946TIP3    H227254   5.496   6.477  14.883  0.3395  1.9066 -0.8239
 1947TIP3   OH227255   0.749   3.905   1.379  0.0054  0.0887 -0.0538
 1947TIP3    H127256   0.821   3.934   1.435  0.4103 -1.5593  0.3319
 1947TIP3    H227257   0.792   3.862   1.305 -0.5648  0.4869 -0.6231
 1948TIP3   OH227258   1.506   3.613  15.503 -0.8351  0.3670 -0.0293
 1948TIP3    H127259   1.592   3.585  15.534 -0.9570  0.0738  0.0431
 1948TIP3    H227260   1.453   3.619  15.582 -0.3328  2.5542  0.1999
 1949TIP3   OH227261   5.957   0.452  15.302  0.3542  0.2619  0.2783
 1949TIP3    H127262   5.920   0.414  15.222  0.7102  0.5286 -0.0157
 1949TIP3    H227263   6.007   0.380  15.341 -1.1974 -0.3818  1.1637
 1950TIP3   OH227264   6.520   0.596   5.781 -0.6433 -0.2891 -0.7978
 1950TIP3    H127265   6.462   0.637   5.717  0.2253  0.3296 -1.2166
 1950TIP3    H227266   6.538   0.509   5.746 -0.4877 -0.0962 -1.2051
 1951TIP3   OH227267   0.855   2.498   3.210 -0.5068  0.3023  0.2368
 1951TIP3    H127268   0.911   2.556   3.262 -0.3986  1.7187 -1.3836
 1951TIP3    H227269   0.916   2.432   3.176 -0.4244 -0.1009  1.1327
 1952TIP3   OH227270   5.764   3.220  15.320 -0.1834  0.4776 -0.0951
 1952TIP3    H127271   5.717   3.161  15.379  1.1934 -0.7118 -0.1197
 1952TIP3    H227272   5.801   3.286  15.378  0.1007  0.0413  0.2349
 1953TIP3   OH227273   3.001   1.817  14.282  0.1546 -1.1296  0.6690
 1953TIP3    H127274   3.054   1.859  14.350 -0.4632  0.0396  0.4681
 1953TIP3    H227275   2.952   1.749  14.328  0.8352 -1.3369  1.1033
 1954TIP3   OH227276   2.950   4.260   1.766  0.8312 -0.1474 -0.4661
 1954TIP3    H127277   3.026   4.235   1.818 -1.1641 -0.9988  2.3398
 1954TIP3    H227278   2.940   4.354   1.781  1.5091  0.0353 -1.1357
 1955TIP3   OH227279   3.587   3.449   1.032 -0.2417  0.5182 -0.3531
 1955TIP3    H127280   3.530   3.441   0.955 -0.5003 -2.4789  0.0319
 1955TIP3    H227281   3.544   3.514   1.088 -3.8829 -2.1959  0.3139
 1956TIP3   OH227282   1.506   6.607   1.150 -0.0372 -0.0718 -0.2325
 1956TIP3    H127283   1.543   6.528   1.109  1.4667  0.9447 -0.9564
 1956TIP3    H227284   1.471   6.657   1.076 -3.3347 -1.1294  0.4529
 1957TIP3   OH227285   4.652   1.717  11.661  0.2626 -0.1841  0.4805
 1957TIP3    H127286   4.714   1.645  11.652  1.3924  0.9356 -1.5725
 1957TIP3    H227287   4.592   1.706  11.587  1.9353  2.2257 -1.4116
 1958TIP3   OH227288   4.092   2.993  14.094 -0.8084 -0.2921 -0.0158
 1958TIP3    H127289   4.089   2.897  14.086 -0.3349 -0.4449  1.3044
 1958TIP3    H227290   4.000   3.019  14.103 -0.9889 -0.5441 -1.0757
 1959TIP3   OH227291   3.740   3.381   5.751  0.2115  0.0086  0.6398
 1959TIP3    H127292   3.829   3.378   5.786 -0.2386 -0.7627  1.7955
 1959TIP3    H227293   3.690   3.324   5.809 -0.6743 -1.0442 -1.0805
 1960TIP3   OH227294   4.270   3.924   0.591  0.0938 -0.1267  0.1952
 1960TIP3    H127295   4.344   3.944   0.649  0.9433 -1.6213 -0.3162
 1960TIP3    H227296   4.273   3.992   0.524  2.4892 -1.4165 -1.1418
 1961TIP3   OH227297   3.945   1.957   5.261  0.1368 -0.1783 -0.1717
 1961TIP3    H127298   3.994   2.011   5.200  1.0244  0.7255  1.2997
 1961TIP3    H227299   3.994   1.875   5.265  0.5293  0.0669 -0.0299
 1962TIP3   OH227300   2.014   1.220   5.709  0.6511  0.0516 -0.0662
 1962TIP3    H127301   2.021   1.304   5.754 -0.3724  0.5120 -0.7288
 1962TIP3    H227302   2.075   1.163   5.756  2.5598  1.5585 -0.5728
 1963TIP3   OH227303   1.195   0.348  16.822 -0.2616  0.3094 -0.5127
 1963TIP3    H127304   1.283   0.311  16.823 -0.0376  0.8402 -0.1894
 1963TIP3    H227305   1.161   0.326  16.735 -0.6611 -1.8616  0.1269
 1964TIP3   OH227306   4.220   4.470   2.104  0.3983  0.2795 -0.7275
 1964TIP3    H127307   4.298   4.466   2.159  0.2403 -0.4301 -0.5385
 1964TIP3    H227308   4.154   4.511   2.160  0.0033 -1.1858 -0.0649
 1965TIP3   OH227309   5.068   0.500  12.318 -0.3262 -0.0311 -0.4842
 1965TIP3    H127310   5.039   0.427  12.263  1.2911 -1.1774  0.1095
 1965TIP3    H227311   5.005   0.502  12.390  0.2084 -1.5425  0.0538
 1966TIP3   OH227312   2.096   3.568   3.178  0.3970 -0.2576  0.1409
 1966TIP3    H127313   2.076   3.474   3.181  0.0708 -0.1723  1.9687
 1966TIP3    H227314   2.191   3.573   3.174  0.3600 -0.6472 -2.2635
 1967TIP3   OH227315   3.115   0.977   0.028  0.0413 -0.2066 -0.2162
 1967TIP3    H127316   3.042   0.982   0.089  1.0874 -1.0224  1.1787
 1967TIP3    H227317   3.115   1.061  -0.017  0.0465  1.0011  1.9057
 1968TIP3   OH227318   5.363   1.493  15.086  0.2462 -0.0422 -0.3356
 1968TIP3    H127319   5.295   1.434  15.119  0.3603 -0.4652 -0.8448
 1968TIP3    H227320   5.445   1.446  15.098  0.3119 -0.1029 -0.9878
 1969TIP3   OH227321   6.402   4.144  14.417 -0.3459  0.2350 -0.0427
 1969TIP3    H127322   6.379   4.051  14.409  1.1168 -0.1170 -0.3343
 1969TIP3    H227323   6.481   4.154  14.364  0.3822  1.3121  1.1959
 1970TIP3   OH227324   3.084   5.039  16.781 -0.5520 -0.3133  0.4508
 1970TIP3    H127325   3.073   5.062  16.873  2.1300  0.7459  0.6075
 1970TIP3    H227326   3.067   5.120  16.733 -1.2743 -0.6926  0.0469
 1971TIP3   OH227327   6.015   2.669  13.040 -0.3946  0.0359  0.1732
 1971TIP3    H127328   5.926   2.704  13.048 -0.0246  0.8261  0.9839
 1971TIP3    H227329   6.040   2.647  13.129  0.9640  1.7133  0.2518
 1972TIP3   OH227330   4.731   3.644  13.289  0.5590  0.4311 -0.5280
 1972TIP3    H127331   4.814   3.607  13.258  0.9027 -0.5561  1.4228
 1972TIP3    H227332   4.700   3.581  13.354 -1.0409  1.4860 -0.2286
 1973TIP3   OH227333   5.060   2.962  16.438 -0.2134 -0.2113  0.3989
 1973TIP3    H127334   5.030   2.915  16.360 -1.8234 -0.0264  0.8600
 1973TIP3    H227335   5.025   3.050  16.428  2.3331  0.8027 -0.1902
 1974TIP3   OH227336   2.369   4.303  13.633 -0.1616  0.2561 -0.3871
 1974TIP3    H127337   2.347   4.391  13.666  0.4829 -0.0168  0.8305
 1974TIP3    H227338   2.295   4.249  13.658 -0.6528  0.4723 -1.3173
 1975TIP3   OH227339   3.540   4.009   1.790  0.1448 -0.5945  0.1360
 1975TIP3    H127340   3.565   4.101   1.789 -0.2961 -0.4716  0.0072
 1975TIP3    H227341   3.558   3.978   1.701 -3.1058  0.3329 -1.0007
 1976TIP3   OH227342   3.415   5.998   5.925 -0.0845 -0.7240 -0.4173
 1976TIP3    H127343   3.474   5.927   5.951  0.5954  0.0034  0.0835
 1976TIP3    H227344   3.451   6.076   5.968 -1.6909 -0.3404  0.3139
 1977TIP3   OH227345   5.370   6.762   6.602  0.4525 -0.0433 -0.0860
 1977TIP3    H127346   5.351   6.854   6.584  0.3580  0.0285  0.3636
 1977TIP3    H227347   5.423   6.763   6.682 -0.0912 -0.4115  0.2905
 1978TIP3   OH227348   4.902   3.275  13.156 -0.4816  0.0832  0.2818
 1978TIP3    H127349   4.926   3.365  13.136  2.1385 -0.6775 -0.3415
 1978TIP3    H227350   4.907   3.270  13.252 -4.4652  1.4726  0.7529
 1979TIP3   OH227351   5.041   3.445  14.471 -0.0183 -0.4305  0.1353
 1979TIP3    H127352   5.132   3.433  14.441 -0.2626 -0.1638 -0.7385
 1979TIP3    H227353   5.031   3.381  14.541  1.1587  0.2154  0.9335
 1980TIP3   OH227354   3.808   2.459  17.239  1.1749  0.0697  0.1993
 1980TIP3    H127355   3.877   2.525  17.242 -0.1268  1.5108 -0.1907
 1980TIP3    H227356   3.795   2.442  17.146  0.5062  0.3659  0.2338
 1981TIP3   OH227357   2.851   5.548  12.284  0.5513  0.6118 -0.4048
 1981TIP3    H127358   2.812   5.541  12.371  1.5345  0.4456  0.0325
 1981TIP3    H227359   2.815   5.628  12.247  0.4520  0.9040  0.3226
 1982TIP3   OH227360   2.763   3.879  13.350 -0.0266  0.0081 -0.1694
 1982TIP3    H127361   2.669   3.869  13.366 -0.0889  0.9750  0.1196
 1982TIP3    H227362   2.805   3.835  13.424 -0.2506 -0.2367 -0.1872
 1983TIP3   OH227363   1.762   3.038   2.847  0.3476  0.4687  0.4749
 1983TIP3    H127364   1.731   3.086   2.924 -0.3192  0.4895  0.2024
 1983TIP3    H227365   1.698   3.059   2.779  0.7883  0.2439 -0.0119
 1984TIP3   OH227366   6.705   5.006   4.849  0.0713  0.0068  0.2041
 1984TIP3    H127367   6.689   4.912   4.843  3.2096 -0.7110  1.0486
 1984TIP3    H227368   6.675   5.041   4.766  1.6196 -2.2782 -1.4304
 1985TIP3   OH227369   4.976   3.182  16.001  0.4222  0.2177  0.0418
 1985TIP3    H127370   5.022   3.157  15.922  1.5919  1.1050  0.4149
 1985TIP3    H227371   5.042   3.177  16.070 -0.1914  0.9313  0.7013
 1986TIP3   OH227372   4.702   5.401   3.319 -0.5861 -0.2524  0.4157
 1986TIP3    H127373   4.722   5.324   3.267  0.1470  0.1973  0.0185
 1986TIP3    H227374   4.787   5.439   3.340 -0.9454  0.6521  0.2990
 1987TIP3   OH227375   5.092   4.367  15.757 -0.5455  0.2738  0.5096
 1987TIP3    H127376   5.014   4.365  15.702 -0.2826  0.2186  0.1303
 1987TIP3    H227377   5.164   4.351  15.696 -0.3914 -1.6242  1.1291
 1988TIP3   OH227378   5.216   2.356   4.603  0.1922 -0.4679  0.2649
 1988TIP3    H127379   5.294   2.406   4.577  1.3607 -1.5099  1.5748
 1988TIP3    H227380   5.142   2.412   4.580  1.3886  1.2898  0.5104
 1989TIP3   OH227381   3.384   2.866   1.416  0.0087  0.4157  0.3677
 1989TIP3    H127382   3.348   2.910   1.340  0.9549 -0.4846 -0.6366
 1989TIP3    H227383   3.323   2.887   1.487 -0.3381  2.1308 -0.3702
 1990TIP3   OH227384   0.229   5.038  13.067  0.3149 -0.1079  0.4250
 1990TIP3    H127385   0.299   5.069  13.126  1.3908 -1.8551  0.1422
 1990TIP3    H227386   0.158   5.012  13.126  0.0547  1.2495  0.7431
 1991TIP3   OH227387   3.579   4.494   1.335  0.3863 -0.1231  0.2124
 1991TIP3    H127388   3.534   4.496   1.250 -3.0402  0.4104  1.8895
 1991TIP3    H227389   3.510   4.480   1.399  2.9371 -1.3130  2.9450
 1992TIP3   OH227390   5.964   0.762  15.149 -0.2513  0.0946 -0.1150
 1992TIP3    H127391   5.949   0.668  15.159  1.4987 -0.2598 -0.5231
 1992TIP3    H227392   5.967   0.776  15.055  0.3497  0.4148 -0.0466
 1993TIP3   OH227393   4.530   5.561  15.084  0.2601  0.0501  0.2665
 1993TIP3    H127394   4.477   5.505  15.141  1.9699 -0.0282  1.9095
 1993TIP3    H227395   4.540   5.643  15.133 -1.0321  1.3320 -1.4856
 1994TIP3   OH227396   4.084   5.342   3.396  0.3885 -0.3968 -0.5371
 1994TIP3    H127397   4.155   5.302   3.447  1.2017 -0.0320 -1.3626
 1994TIP3    H227398   4.128   5.401   3.336 -0.5933 -0.4423 -1.3276
 1995TIP3   OH227399   3.007   5.704  13.318  0.0685 -0.1893 -0.5905
 1995TIP3    H127400   3.085   5.650  13.304  0.0541 -0.0997 -1.0245
 1995TIP3    H227401   3.008   5.724  13.412  1.3694  1.0054 -0.8276
 1996TIP3   OH227402   6.407   3.027   2.406  0.7204  0.2121  0.2280
 1996TIP3    H127403   6.496   2.993   2.412 -0.1048 -2.3669 -1.1293
 1996TIP3    H227404   6.401   3.064   2.318 -0.0213 -1.1290 -0.3001
 1997TIP3   OH227405   1.073   0.056   0.737 -0.2487 -0.3597  0.8540
 1997TIP3    H127406   1.161   0.093   0.736 -0.0743 -0.7147  1.7444
 1997TIP3    H227407   1.033   0.091   0.816 -1.0074  0.0159  0.3072
 1998TIP3   OH227408   1.063   3.509  16.935 -0.1009 -0.0051 -0.0019
 1998TIP3    H127409   0.968   3.522  16.937 -0.1592 -0.4570  2.1677
 1998TIP3    H227410   1.097   3.591  16.899 -1.2374  0.7712  0.6206
 1999TIP3   OH227411   5.697   2.056   1.678 -0.3621 -0.2520 -0.0552
 1999TIP3    H127412   5.770   2.102   1.637 -0.4387  0.6743  0.7918
 1999TIP3    H227413   5.701   2.082   1.770 -0.1180 -2.3603  0.5896
 2000TIP3   OH227414   0.584   1.764   2.680 -0.2052  0.1978  0.4829
 2000TIP3    H127415   0.534   1.747   2.601  1.7221 -0.2718 -0.6981
 2000TIP3    H227416   0.589   1.859   2.686 -1.0486  0.2468  0.5121
 2001TIP3   OH227417   6.503   4.849  17.278  0.2182  0.1771 -0.4073
 2001TIP3    H127418   6.456   4.803  17.347  0.9400 -2.6750 -1.6857
 2001TIP3    H227419   6.434   4.890  17.225 -0.5979 -1.0682 -0.3339
 2002TIP3   OH227420   3.313   1.463  16.312  0.2495 -0.0511 -0.1031
 2002TIP3    H127421   3.316   1.406  16.388  1.1785 -1.4906 -1.1731
 2002TIP3    H227422   3.306   1.404  16.237  0.4771  1.2648 -1.2169
 2003TIP3   OH227423   0.036   6.055   4.196  0.1194  0.0114  0.1399
 2003TIP3    H127424   0.115   6.004   4.211 -0.1910 -1.0434 -1.5296
 2003TIP3    H227425  -0.012   6.052   4.279  0.3244 -2.0484  0.2336
 2004TIP3   OH227426   1.242   5.161   3.720 -0.5305 -0.0439  0.1865
 2004TIP3    H127427   1.241   5.224   3.648 -1.4214 -1.8837 -1.4845
 2004TIP3    H227428   1.258   5.215   3.798  2.0167  1.8705 -1.4741
 2005TIP3   OH227429   3.271   2.274   2.514  0.1770  0.5043 -0.6824
 2005TIP3    H127430   3.297   2.362   2.541  0.6903  0.4787 -1.0724
 2005TIP3    H227431   3.340   2.217   2.549 -0.9802  0.0388  0.9878
 2006TIP3   OH227432   3.721   3.586  13.200 -0.1370  0.2779 -0.5303
 2006TIP3    H127433   3.741   3.561  13.110 -0.8809  0.9041 -0.8848
 2006TIP3    H227434   3.634   3.624  13.195 -1.2053 -1.8014  0.8467
 2007TIP3   OH227435   3.656   6.393  12.971  0.6790  0.2432  0.4122
 2007TIP3    H127436   3.650   6.299  12.950 -0.7389  0.4192 -0.1019
 2007TIP3    H227437   3.592   6.405  13.042  0.0098  1.0124 -0.3015
 2008TIP3   OH227438   1.310   6.562  11.403 -0.1729 -0.4716 -0.0611
 2008TIP3    H127439   1.225   6.546  11.443 -0.9502  1.9240 -0.6078
 2008TIP3    H227440   1.290   6.609  11.322  1.7103  2.0598  0.8176
 2009TIP3   OH227441   4.888   5.106   4.143 -0.1400 -0.8320  0.1536
 2009TIP3    H127442   4.941   5.173   4.187  0.5208  0.1516 -1.9768
 2009TIP3    H227443   4.940   5.026   4.150  0.8115 -0.2788 -0.3676
 2010TIP3   OH227444   5.679   0.884   3.798  0.0593 -0.6810 -0.0414
 2010TIP3    H127445   5.753   0.941   3.780 -1.8744  1.8296 -0.6149
 2010TIP3    H227446   5.653   0.905   3.888 -0.9463 -0.2442 -0.4103
 2011TIP3   OH227447   0.992   1.677   3.246 -0.4650 -0.1229 -0.4423
 2011TIP3    H127448   0.915   1.718   3.208 -3.1499 -1.9614  2.5309
 2011TIP3    H227449   0.995   1.590   3.207 -0.1544 -0.2245 -0.2021
 2012TIP3   OH227450   6.033   5.942  13.111 -0.2095  0.0260  0.0846
 2012TIP3    H127451   5.982   6.004  13.164  0.6438  0.6612  0.1903
 2012TIP3    H227452   6.000   5.856  13.137 -1.1637  0.4075  0.2104
 2013TIP3   OH227453   3.844   1.103   0.855  0.4810 -0.4891  0.3265
 2013TIP3    H127454   3.846   1.026   0.797 -3.0092 -1.0812  0.7216
 2013TIP3    H227455   3.860   1.067   0.942 -0.1097 -0.6437  0.3808
 2014TIP3   OH227456   6.125   3.502  17.302 -0.2641 -0.8205 -0.0925
 2014TIP3    H127457   6.102   3.519  17.211  0.6185  1.4843  0.0450
 2014TIP3    H227458   6.091   3.414  17.320 -0.7752 -1.1767 -2.5119
 2015TIP3   OH227459   0.721   2.755   5.087  0.0310 -0.3326 -0.3788
 2015TIP3    H127460   0.706   2.671   5.043 -0.0699 -1.5315  1.7973
 2015TIP3    H227461   0.650   2.811   5.057 -1.8416 -2.0791  0.5491
 2016TIP3   OH227462   4.354   4.994  15.395 -0.0832 -0.0580  0.5387
 2016TIP3    H127463   4.275   5.042  15.420 -0.0004  0.9723 -1.0184
 2016TIP3    H227464   4.374   5.026  15.307  2.7926  0.6311  1.3619
 2017TIP3   OH227465   4.253   2.907   1.735  0.1354  0.4701  0.2205
 2017TIP3    H127466   4.348   2.903   1.725 -0.0422 -0.9603 -1.3087
 2017TIP3    H227467   4.236   2.863   1.818  0.6572 -1.9703 -0.8667
 2018TIP3   OH227468   5.527   1.818   5.017 -0.3321  0.2710  0.2067
 2018TIP3    H127469   5.524   1.912   5.038 -0.4711  0.1734  0.6421
 2018TIP3    H227470   5.584   1.812   4.941  0.0346  0.6666  0.4457
 2019TIP3   OH227471   2.214   4.614  17.172 -0.8568 -0.3699  0.4076
 2019TIP3    H127472   2.270   4.689  17.150  0.4804 -0.9711  1.5596
 2019TIP3    H227473   2.261   4.538  17.138 -0.9743 -0.8880  1.3693
 2020TIP3   OH227474   0.451   2.934  13.961 -0.1029 -0.1608 -0.1291
 2020TIP3    H127475   0.420   2.864  14.019 -0.5692 -0.9691 -1.2978
 2020TIP3    H227476   0.520   2.892  13.909  0.4377  0.6022 -0.0429
 2021TIP3   OH227477   3.577   0.444   0.953 -0.0939 -0.8651  0.7532
 2021TIP3    H127478   3.597   0.510   0.887 -2.8233 -1.0923 -0.4474
 2021TIP3    H227479   3.660   0.399   0.969  0.9575  0.1631 -1.4442
 2022TIP3   OH227480   5.501   0.583  14.142 -0.7016 -0.3143  0.1406
 2022TIP3    H127481   5.560   0.658  14.151  1.2711 -1.9801  2.0745
 2022TIP3    H227482   5.520   0.527  14.218 -1.9231 -2.9090 -1.3195
 2023TIP3   OH227483   4.312   6.068   0.776  0.7048 -0.3449  0.3893
 2023TIP3    H127484   4.226   6.086   0.813 -0.1359 -2.5272 -0.3805
 2023TIP3    H227485   4.340   5.986   0.817  1.8684 -0.3083 -0.2821
 2024TIP3   OH227486   0.532   3.863  12.186  0.3647 -0.0632  0.5616
 2024TIP3    H127487   0.473   3.816  12.245 -1.3272  0.7399 -0.4113
 2024TIP3    H227488   0.565   3.797  12.126 -0.2760 -0.3846  0.5554
 2025TIP3   OH227489   2.970   5.255   4.502  0.2223  0.1629  0.0623
 2025TIP3    H127490   3.020   5.226   4.426 -1.0356  3.2304 -2.1442
 2025TIP3    H227491   2.967   5.351   4.494 -2.7522  0.3989  2.1596
 2026TIP3   OH227492   3.636   4.881   6.120  0.9332 -0.1791 -0.3952
 2026TIP3    H127493   3.546   4.864   6.148  0.4080 -0.8834 -2.3128
 2026TIP3    H227494   3.682   4.906   6.200 -1.1514  1.0586  0.5098
 2027TIP3   OH227495   5.482   3.146   5.793 -0.4539  0.5343  0.1639
 2027TIP3    H127496   5.427   3.151   5.871 -0.4967 -0.0105  0.1778
 2027TIP3    H227497   5.559   3.097   5.821 -0.7878 -0.2812 -0.3031
 2028TIP3   OH227498   3.709   1.184   0.328  0.2771  0.2898 -0.2260
 2028TIP3    H127499   3.671   1.097   0.332 -0.9487  0.8268  0.4815
 2028TIP3    H227500   3.642   1.237   0.284  0.8091  0.9688 -0.2343
 2029TIP3   OH227501   4.959   3.012   2.491 -0.0051  0.2978  0.2819
 2029TIP3    H127502   4.954   2.916   2.490 -0.2345  0.2933  1.0924
 2029TIP3    H227503   4.886   3.039   2.546 -0.0389  0.9543 -0.0741
 2030TIP3   OH227504   2.139   3.724   1.033 -0.5279  0.3480  0.6637
 2030TIP3    H127505   2.099   3.639   1.051  2.3419 -1.3841 -0.4214
 2030TIP3    H227506   2.195   3.741   1.109  1.1097 -0.2393 -0.3502
 2031TIP3   OH227507   3.526   6.497  11.076 -0.0398  0.5711 -0.0102
 2031TIP3    H127508   3.467   6.555  11.125 -0.1046  0.1867  0.3838
 2031TIP3    H227509   3.512   6.520  10.984 -2.3895 -0.9063 -0.1233
 2032TIP3   OH227510   4.922   1.598   5.076 -0.4538 -0.3311  0.1415
 2032TIP3    H127511   4.843   1.652   5.071  0.1372  0.5751  0.4778
 2032TIP3    H227512   4.993   1.660   5.095  0.4832 -0.9965 -1.0034
 2033TIP3   OH227513   1.954   0.041  13.966 -0.7268 -0.7775 -0.1869
 2033TIP3    H127514   1.889   0.078  14.025  0.4058  1.2093 -0.1249
 2033TIP3    H227515   2.038   0.059  14.008  0.1572  1.1196 -2.5488
 2034TIP3   OH227516   2.176   4.709   2.349  0.4311 -0.0560  0.2890
 2034TIP3    H127517   2.163   4.688   2.442 -2.8047 -0.3296 -0.1055
 2034TIP3    H227518   2.139   4.634   2.302  0.1317  0.9920 -1.2171
 2035TIP3   OH227519   0.467   3.917   3.147  0.5800 -0.2433 -0.3289
 2035TIP3    H127520   0.449   3.837   3.197  2.1408 -1.0087 -0.9073
 2035TIP3    H227521   0.541   3.957   3.194  0.2591  0.5061 -0.4504
 2036TIP3   OH227522   0.478   0.602   3.218 -0.2745 -0.4092 -0.1781
 2036TIP3    H127523   0.565   0.566   3.235  0.0519  0.5292  0.1662
 2036TIP3    H227524   0.476   0.685   3.265 -1.2710 -0.3014 -0.3872
 2037TIP3   OH227525   0.500   6.298   3.395  0.2021 -0.0572 -0.0939
 2037TIP3    H127526   0.499   6.356   3.319  4.0768  2.2608  1.3667
 2037TIP3    H227527   0.447   6.343   3.461 -0.1426 -0.2384 -0.2452
 2038TIP3   OH227528   1.682   3.360   4.674 -0.2240 -0.0534 -0.5763
 2038TIP3    H127529   1.731   3.356   4.592 -1.8884  0.7829 -1.6701
 2038TIP3    H227530   1.612   3.423   4.657 -1.7656 -1.2961  0.8520
 2039TIP3   OH227531   1.581   2.289  16.259  0.6516 -0.2924  0.2819
 2039TIP3    H127532   1.604   2.285  16.352  1.3675  1.3375  0.2235
 2039TIP3    H227533   1.641   2.228  16.217  0.4263 -0.9287  0.8650
 2040TIP3   OH227534   3.153   4.821  11.869 -0.4222  0.2465 -0.0278
 2040TIP3    H127535   3.169   4.829  11.774  2.1888 -0.8127  0.2288
 2040TIP3    H227536   3.151   4.727  11.885 -3.5411  0.3272  0.6947
 2041TIP3   OH227537   5.833   3.701  16.698 -0.0081  0.6952  0.6532
 2041TIP3    H127538   5.748   3.725  16.735 -1.2190 -0.7429 -1.0007
 2041TIP3    H227539   5.895   3.714  16.770 -1.4207  2.8247  1.5882
 2042TIP3   OH227540   3.955   2.036  12.983 -0.4756 -0.1118  0.5599
 2042TIP3    H127541   4.037   2.085  12.989 -0.9883  1.1161 -1.4574
 2042TIP3    H227542   3.895   2.082  13.041 -0.0458 -0.3934  1.2432
 2043TIP3   OH227543   4.519   5.260   5.655 -0.1381  0.0393 -0.2049
 2043TIP3    H127544   4.561   5.299   5.731 -1.1513  3.3540 -1.1478
 2043TIP3    H227545   4.591   5.237   5.596  0.5428  0.2598  0.5332
 2044TIP3   OH227546   6.587   5.388   3.071 -0.2253  0.1067 -0.6832
 2044TIP3    H127547   6.571   5.301   3.035 -3.1348  0.0954  0.3678
 2044TIP3    H227548   6.517   5.442   3.034  2.2625  2.4581 -2.3874
 2045TIP3   OH227549   2.473   3.975   5.274 -0.1596 -0.4729 -0.7691
 2045TIP3    H127550   2.565   4.002   5.268 -0.0640 -0.6649 -0.2679
 2045TIP3    H227551   2.427   4.033   5.213 -0.0053  1.0477  0.4947
 2046TIP3   OH227552   2.379   4.669   4.159  0.1493  0.1413  0.3622
 2046TIP3    H127553   2.296   4.688   4.115  0.1001 -0.9331 -0.0399
 2046TIP3    H227554   2.359   4.678   4.252 -0.4963 -0.3717  0.2838
 2047TIP3   OH227555   4.392   5.205   1.725 -0.2456  0.4248  0.3676
 2047TIP3    H127556   4.465   5.267   1.736 -0.7808  0.9186  1.3207
 2047TIP3    H227557   4.427   5.136   1.670  1.1266  0.3748  1.2516
 2048TIP3   OH227558   4.767   5.060  15.612  0.1832  0.5019  0.0093
 2048TIP3    H127559   4.707   5.118  15.659 -0.0445 -0.1100  0.4942
 2048TIP3    H227560   4.851   5.106  15.614  0.3048  0.2717  1.4783
 2049TIP3   OH227561   4.123   3.474   1.770 -0.5627 -0.3502  0.3072
 2049TIP3    H127562   4.065   3.536   1.727 -0.3862  0.2254  0.8871
 2049TIP3    H227563   4.152   3.415   1.700 -0.4214  0.4635 -0.3236
 2050TIP3   OH227564   0.696   0.358  13.141  0.4616 -0.2229 -0.4992
 2050TIP3    H127565   0.613   0.336  13.097 -0.1758 -0.5057  0.8103
 2050TIP3    H227566   0.670   0.393  13.226  1.5934  2.2218 -1.0596
 2051TIP3   OH227567   6.514   1.792  13.156  0.0440 -0.8307  0.1780
 2051TIP3    H127568   6.439   1.830  13.203  0.6654  0.7459 -0.0700
 2051TIP3    H227569   6.559   1.740  13.222  1.9659  2.7954  2.0527
 2052TIP3   OH227570   1.236   5.375   0.035  0.3649 -0.1975 -0.1413
 2052TIP3    H127571   1.225   5.457   0.082  1.9642  0.1911 -0.3887
 2052TIP3    H227572   1.289   5.398  -0.042  1.9238 -1.6364  0.4315
 2053TIP3   OH227573   1.677   5.033   5.506  0.3705 -0.2188  0.2127
 2053TIP3    H127574   1.650   5.054   5.416 -0.8106  0.2112  0.6555
 2053TIP3    H227575   1.738   4.960   5.496  0.6648  0.1622 -0.9824
 2054TIP3   OH227576   4.490   0.804  12.865 -0.2644  0.5788 -0.0149
 2054TIP3    H127577   4.559   0.841  12.920 -0.7669  0.6369  0.5903
 2054TIP3    H227578   4.490   0.859  12.787 -0.0637  0.9947  0.2701
 2055TIP3   OH227579   3.275   3.315   5.037 -0.0801  0.1414 -0.0413
 2055TIP3    H127580   3.250   3.391   4.985 -2.1153  0.8970  1.8509
 2055TIP3    H227581   3.287   3.350   5.126 -0.8413 -1.6591  0.8376
 2056TIP3   OH227582   1.517   6.032   5.212 -0.1258 -0.6281  0.1204
 2056TIP3    H127583   1.534   5.963   5.148  3.1244 -1.4175  1.6223
 2056TIP3    H227584   1.501   5.985   5.294  0.6240  0.3638  0.8601
 2057TIP3   OH227585   6.668   0.308  17.106 -0.9891 -0.6620 -0.1292
 2057TIP3    H127586   6.751   0.323  17.151 -1.5938 -1.5944  1.3894
 2057TIP3    H227587   6.611   0.379  17.136 -1.4574 -1.4037  0.7859
 2058TIP3   OH227588   3.004   4.257   1.050 -0.9766  0.2559  0.0973
 2058TIP3    H127589   3.093   4.224   1.053 -0.8643  0.1814 -2.4837
 2058TIP3    H227590   2.949   4.179   1.047 -1.1300  0.3104  1.0176
 2059TIP3   OH227591   5.107   2.952  13.566 -0.0775 -0.4550 -0.1635
 2059TIP3    H127592   5.079   2.899  13.492  1.4390 -0.9644 -0.3977
 2059TIP3    H227593   5.195   2.982  13.543  1.1843 -2.0383  2.0758
 2060TIP3   OH227594   1.083   0.968   6.607 -0.0225 -0.2803 -0.5557
 2060TIP3    H127595   1.122   1.052   6.581  0.0605 -0.8563 -2.3917
 2060TIP3    H227596   0.988   0.985   6.607  0.0435  0.2826  0.9202
 2061TIP3   OH227597   5.939   5.588  16.566  0.0326  0.6789  0.2439
 2061TIP3    H127598   6.032   5.606  16.552  0.1826 -0.9798 -1.2929
 2061TIP3    H227599   5.914   5.647  16.636  2.6429  0.0583  1.8751
 2062TIP3   OH227600   2.519   5.101  15.004  0.2881 -0.3298  0.1937
 2062TIP3    H127601   2.479   5.044  15.069 -0.9880  0.9377  0.5757
 2062TIP3    H227602   2.552   5.042  14.936 -0.8300 -1.5065  0.6463
 2063TIP3   OH227603   1.998   3.342   5.125  0.1954  0.0252  0.1932
 2063TIP3    H127604   1.939   3.417   5.114 -0.4234 -0.5185 -0.1920
 2063TIP3    H227605   1.968   3.299   5.205  1.5629  1.0949  1.3303
 2064TIP3   OH227606   4.952   3.525  11.449  0.0112  0.6434 -0.0972
 2064TIP3    H127607   4.886   3.524  11.517  0.2748 -1.1161  0.1854
 2064TIP3    H227608   4.903   3.538  11.368 -0.8152 -1.3180  0.0333
 2065TIP3   OH227609   3.462   1.899  10.957 -0.2065 -0.4065  0.1322
 2065TIP3    H127610   3.525   1.871  10.891  0.2009  0.4473  0.1506
 2065TIP3    H227611   3.377   1.886  10.917  0.0516  0.7253 -0.8131
 2066TIP3   OH227612   2.092   2.362   0.857 -0.0054 -0.2271 -0.8732
 2066TIP3    H127613   2.125   2.441   0.899  1.0696 -0.7371 -0.7133
 2066TIP3    H227614   2.008   2.345   0.898  0.2531  0.2305 -0.1485
 2067TIP3   OH227615   4.632   0.064   1.459  0.1318  0.0986  0.1088
 2067TIP3    H127616   4.625   0.121   1.535 -0.2560 -1.8202  1.5847
 2067TIP3    H227617   4.683  -0.011   1.489 -1.4000 -1.4814 -1.0050
 2068TIP3   OH227618   3.089   2.997   4.799 -0.0402 -0.0462  0.2804
 2068TIP3    H127619   3.027   3.060   4.836  1.1708  0.7669  1.0217
 2068TIP3    H227620   3.065   2.913   4.837 -0.6343  0.2703  0.6139
 2069TIP3   OH227621   2.343   4.968  12.822  0.2639  0.3128  0.3863
 2069TIP3    H127622   2.271   4.908  12.801  1.0666 -0.3702 -0.4710
 2069TIP3    H227623   2.380   4.934  12.903  0.9604 -0.6059 -0.2993
 2070TIP3   OH227624   2.102   3.309   0.531 -0.0037  0.0272 -0.0694
 2070TIP3    H127625   2.053   3.377   0.577 -0.1438 -0.5762  0.6950
 2070TIP3    H227626   2.083   3.324   0.439 -1.8873 -0.3733  0.2164
 2071TIP3   OH227627   3.165   3.638   1.913  0.4514  0.2483  0.0686
 2071TIP3    H127628   3.187   3.637   2.006 -1.3154  1.2693  0.5484
 2071TIP3    H227629   3.234   3.691   1.873  1.2647 -0.2452  0.7659
 2072TIP3   OH227630   5.763   1.783   1.381 -0.4139  0.2852  0.0645
 2072TIP3    H127631   5.700   1.811   1.448 -0.8049 -0.7710  0.1468
 2072TIP3    H227632   5.845   1.827   1.405 -0.8605  0.8982  0.5114
 2073TIP3   OH227633   2.929   1.471   2.262  0.2621 -0.5136  0.1657
 2073TIP3    H127634   2.863   1.411   2.226  0.3202 -1.1975  1.1583
 2073TIP3    H227635   2.897   1.558   2.241 -1.7552 -0.7585  1.9050
 2074TIP3   OH227636   1.194   0.767   3.035  0.6667 -0.8369  0.6446
 2074TIP3    H127637   1.102   0.793   3.027  0.8425  0.1220  1.6313
 2074TIP3    H227638   1.238   0.812   2.963  0.1555 -2.5258 -0.8169
 2075TIP3   OH227639   2.766   5.078   4.850  0.5285 -0.3675 -0.2519
 2075TIP3    H127640   2.709   5.021   4.902  0.2078  0.3614  0.2042
 2075TIP3    H227641   2.839   5.100   4.908 -1.2918  2.8930  1.0580
 2076TIP3   OH227642   4.766   5.564   1.281  0.0356  0.0412 -0.1458
 2076TIP3    H127643   4.761   5.589   1.373  1.1663  0.9958 -0.3235
 2076TIP3    H227644   4.679   5.529   1.261 -0.5094  0.6572  1.0398
 2077TIP3   OH227645   3.859   5.404   4.608 -0.1767  0.5054 -0.1340
 2077TIP3    H127646   3.823   5.327   4.653  0.9467  0.9797  1.7186
 2077TIP3    H227647   3.859   5.381   4.515 -1.3053 -1.1087  0.2385
 2078TIP3   OH227648   1.529   3.735  15.992 -0.3275 -0.0002 -0.2630
 2078TIP3    H127649   1.556   3.749  16.083 -1.2810  0.8395 -0.0875
 2078TIP3    H227650   1.611   3.728  15.943  0.2248  1.4053  0.4024
 2079TIP3   OH227651   6.644   3.585   3.991  0.3254 -0.4079  0.1490
 2079TIP3    H127652   6.664   3.586   3.897  1.3551  1.3724  0.3564
 2079TIP3    H227653   6.691   3.659   4.027 -0.0613 -1.0506  2.1078
 2080TIP3   OH227654   0.795   2.596   5.697 -0.2568 -1.0302  0.2359
 2080TIP3    H127655   0.814   2.658   5.627  1.3668 -1.3487  0.3454
 2080TIP3    H227656   0.700   2.589   5.698 -0.3197 -1.5201 -2.3581
 2081TIP3   OH227657   5.714   5.771  13.896  0.3749 -0.1645  0.4047
 2081TIP3    H127658   5.692   5.806  13.810  0.1554  0.6191  0.7631
 2081TIP3    H227659   5.644   5.709  13.915  0.3590 -0.2509  0.0708
 2082TIP3   OH227660   0.013   2.045   5.444  0.1946  0.5231  0.2492
 2082TIP3    H127661   0.049   2.131   5.425  2.2264  0.0468  1.7057
 2082TIP3    H227662  -0.038   2.057   5.524  0.1728  0.4429  0.2479
 2083TIP3   OH227663   0.628   1.677   4.703  0.2853 -0.7265 -0.0409
 2083TIP3    H127664   0.618   1.769   4.728  0.6474 -0.7421  0.1577
 2083TIP3    H227665   0.712   1.673   4.658  0.9196 -1.2174  1.1622
 2084TIP3   OH227666   0.090   4.206   3.207 -0.0693 -0.2455  0.4615
 2084TIP3    H127667   0.176   4.199   3.167 -0.5124  0.9999 -0.8012
 2084TIP3    H227668   0.039   4.258   3.145 -1.1751  0.7020  2.0851
 2085TIP3   OH227669   3.905   3.260  14.268 -0.1965  1.0007 -0.3754
 2085TIP3    H127670   3.882   3.267  14.361  0.5875  0.4416 -0.1216
 2085TIP3    H227671   3.999   3.241  14.269 -0.4166 -0.2130 -1.2434
 2086TIP3   OH227672   5.045   4.947   0.081  0.0345  0.5043 -0.3512
 2086TIP3    H127673   5.003   5.027   0.114  0.3734  1.0056 -1.1187
 2086TIP3    H227674   5.060   4.964  -0.012 -0.0101 -0.5113 -0.5570
 2087TIP3   OH227675   3.145   0.972  15.530  0.1201  0.2239 -0.5020
 2087TIP3    H127676   3.240   0.964  15.533  0.2505  1.8149  1.3392
 2087TIP3    H227677   3.115   0.934  15.612 -0.8063  0.1446 -0.8617
 2088TIP3   OH227678   3.023   6.111  16.777  0.2488 -0.4484  0.4751
 2088TIP3    H127679   3.069   6.186  16.816 -1.3431  0.0351  1.5707
 2088TIP3    H227680   3.087   6.041  16.775  1.0827  0.2257  1.8226
 2089TIP3   OH227681   4.357   0.649   3.496  0.6465 -0.2898  0.7492
 2089TIP3    H127682   4.340   0.565   3.537 -1.0374 -0.5584 -0.4169
 2089TIP3    H227683   4.340   0.635   3.403 -0.4123  1.5150  0.6239
 2090TIP3   OH227684   6.461   0.643  13.872 -0.1540 -0.2848 -0.4282
 2090TIP3    H127685   6.480   0.730  13.907  0.2910 -0.9188  0.9800
 2090TIP3    H227686   6.544   0.611  13.837 -0.5819  0.3195 -2.1003
 2091TIP3   OH227687   3.613   0.430   3.502 -0.0505 -0.2372 -0.2842
 2091TIP3    H127688   3.655   0.480   3.572  0.3501 -1.8248  0.6819
 2091TIP3    H227689   3.541   0.384   3.545 -0.6697 -0.1873 -1.2265
 2092TIP3   OH227690   3.498   5.388   1.123  0.1124  0.5805 -0.1840
 2092TIP3    H127691   3.485   5.478   1.094 -1.9497  1.2744  2.5112
 2092TIP3    H227692   3.528   5.396   1.214 -1.0645 -1.4198  0.4412
 2093TIP3   OH227693   6.460   4.001   2.624  0.4736  0.4884  0.7027
 2093TIP3    H127694   6.382   3.969   2.670  0.7174  0.2239  0.9350
 2093TIP3    H227695   6.533   3.974   2.679  0.8667 -1.0305 -0.5073
 2094TIP3   OH227696   5.336   1.343   0.232  0.3129 -0.1066 -0.0308
 2094TIP3    H127697   5.291   1.399   0.295 -0.6395  2.9576 -3.1701
 2094TIP3    H227698   5.416   1.390   0.210 -0.4397  0.1061 -2.6634
 2095TIP3   OH227699   6.410   6.133  12.196 -0.2625  0.8192 -0.7948
 2095TIP3    H127700   6.458   6.204  12.153  2.2441 -0.9673 -1.1381
 2095TIP3    H227701   6.362   6.090  12.126  0.0002  0.8111 -0.9698
 2096TIP3   OH227702   5.809   5.212  12.416 -0.3977 -0.6567 -0.4019
 2096TIP3    H127703   5.791   5.126  12.453 -1.8505 -0.1498  0.1393
 2096TIP3    H227704   5.852   5.261  12.486  0.2444 -0.8623 -0.6434
 2097TIP3   OH227705   3.287   1.396  13.696 -0.1980 -0.3481  0.3401
 2097TIP3    H127706   3.317   1.487  13.691 -0.4204 -0.1792  1.7676
 2097TIP3    H227707   3.203   1.396  13.650 -0.2603  0.2008  0.4449
 2098TIP3   OH227708   0.871   5.893  15.048  0.0934 -0.2711 -0.2246
 2098TIP3    H127709   0.933   5.858  15.113 -0.7081  0.2481  0.8450
 2098TIP3    H227710   0.785   5.865  15.079 -0.5188  1.8749  0.2313
 2099TIP3   OH227711   6.595   1.812   1.517 -0.1839 -0.3615  0.0517
 2099TIP3    H127712   6.525   1.845   1.460  0.0134 -0.5932 -0.3258
 2099TIP3    H227713   6.596   1.873   1.592 -0.3224  0.0528 -0.2815
 2100TIP3   OH227714   5.261   4.700  14.525  0.3137 -0.2190 -0.3496
 2100TIP3    H127715   5.338   4.715  14.579 -0.4226 -0.5266  0.8193
 2100TIP3    H227716   5.223   4.787  14.512 -0.9143 -0.3556  1.8243
 2101TIP3   OH227717   4.145   0.237  12.838 -0.0512  0.2829 -0.5088
 2101TIP3    H127718   4.230   0.280  12.852 -1.4059  3.0776 -0.2195
 2101TIP3    H227719   4.112   0.221  12.926 -0.2915  0.1590 -0.6222
 2102TIP3   OH227720   1.641   0.591  16.939  0.9231  0.1923  0.2372
 2102TIP3    H127721   1.625   0.577  17.033  1.6265 -1.4664  0.1501
 2102TIP3    H227722   1.554   0.586  16.899  0.7850 -0.7176  0.6299
 2103TIP3   OH227723   2.749   4.158   3.216 -0.2849  1.5193  0.0531
 2103TIP3    H127724   2.738   4.250   3.195 -1.0690  1.6633  1.0548
 2103TIP3    H227725   2.681   4.139   3.280 -1.3134 -0.2185 -1.4791
 2104TIP3   OH227726   3.128   3.215   2.655  0.3068 -0.1293  0.0371
 2104TIP3    H127727   3.136   3.127   2.619  0.7842  0.2683 -0.8748
 2104TIP3    H227728   3.213   3.255   2.640  1.0693 -0.3915  2.9714
 2105TIP3   OH227729   1.167   4.928   1.928 -0.1655 -0.1483 -0.6953
 2105TIP3    H127730   1.172   4.969   1.842 -0.7364  0.9197 -0.2450
 2105TIP3    H227731   1.157   5.001   1.989 -0.5262 -0.9212  0.2057
 2106TIP3   OH227732   1.998   6.762  15.304 -0.2672 -0.5223  0.2573
 2106TIP3    H127733   2.043   6.679  15.285 -0.1995 -0.3030 -0.5815
 2106TIP3    H227734   1.977   6.797  15.218 -2.6807 -0.9550  0.6144
 2107TIP3   OH227735   6.514   3.749   1.275 -0.8975  0.1693  0.2926
 2107TIP3    H127736   6.539   3.807   1.347 -1.6793  1.1788 -0.2105
 2107TIP3    H227737   6.455   3.802   1.222  1.4064  0.3189 -2.3778
 2108TIP3   OH227738   3.611   3.942   2.095 -0.2026  0.1296 -0.4888
 2108TIP3    H127739   3.519   3.948   2.072 -0.0690  1.7679 -0.6933
 2108TIP3    H227740   3.653   4.014   2.047  1.3518 -1.1821 -1.1754
 2109TIP3   OH227741   1.270   5.738  12.220 -0.4984  0.3769 -0.4266
 2109TIP3    H127742   1.268   5.671  12.287  0.3179 -0.1344 -0.8896
 2109TIP3    H227743   1.362   5.764  12.215 -0.1068 -1.1115 -2.7692
 2110TIP3   OH227744   2.583   4.207  11.548 -0.2034  0.5303  1.0324
 2110TIP3    H127745   2.528   4.215  11.470  1.3819 -0.8690 -0.3036
 2110TIP3    H227746   2.555   4.124  11.588  0.5010  0.1228  0.6872
 2111TIP3   OH227747   0.636   4.695  13.022  0.1313 -0.1261 -0.4235
 2111TIP3    H127748   0.673   4.766  13.074  1.4633 -0.6814 -0.5708
 2111TIP3    H227749   0.549   4.726  12.997  0.8836  1.6600 -0.9160
 2112TIP3   OH227750   5.517   1.105   0.093 -0.7542  0.2098 -0.9085
 2112TIP3    H127751   5.502   1.048   0.168 -0.0163  0.1554 -0.7887
 2112TIP3    H227752   5.468   1.185   0.112 -0.0853  0.4343 -0.0694
 2113TIP3   OH227753   1.106   6.492  15.068 -0.2027 -0.3134  0.1091
 2113TIP3    H127754   1.059   6.465  14.989  0.4738  0.0150 -0.4164
 2113TIP3    H227755   1.161   6.564  15.040 -0.3630  0.1817  1.0138
 2114TIP3   OH227756   5.199   5.576   4.047  0.2207 -0.1658  0.3309
 2114TIP3    H127757   5.119   5.555   4.096  0.6007  2.4564  2.3142
 2114TIP3    H227758   5.270   5.543   4.101  0.5774 -0.5786 -0.3695
 2115TIP3   OH227759   6.023   4.743   4.271 -0.1213 -0.2556  0.2970
 2115TIP3    H127760   6.032   4.776   4.360 -1.6001 -0.7562  0.6505
 2115TIP3    H227761   6.105   4.767   4.228  0.6129 -0.0195  1.7879
 2116TIP3   OH227762   1.947   3.045  14.473 -0.1702 -0.2540 -0.5472
 2116TIP3    H127763   1.878   2.988  14.437  0.2193 -1.4470  0.5046
 2116TIP3    H227764   1.988   2.992  14.541  0.5537  1.1352  0.1315
 2117TIP3   OH227765   1.743   5.718   4.740 -0.4504  0.0507  0.2660
 2117TIP3    H127766   1.814   5.658   4.721 -0.5591  0.1407 -0.4587
 2117TIP3    H227767   1.724   5.705   4.833 -1.1597 -1.7810 -0.1044
 2118TIP3   OH227768   3.647   0.544  15.096 -0.1394 -0.2197 -0.4636
 2118TIP3    H127769   3.568   0.505  15.057  0.3531  0.8580 -2.7600
 2118TIP3    H227770   3.630   0.639  15.092  0.0803 -0.0315  1.8083
 2119TIP3   OH227771   1.484   5.544   5.380 -0.2322 -0.4063 -0.6556
 2119TIP3    H127772   1.552   5.609   5.365  0.4751 -0.9834  0.0081
 2119TIP3    H227773   1.522   5.462   5.349 -1.1915 -0.4952 -1.6684
 2120TIP3   OH227774   5.035   1.784  16.492  0.4024  0.1399 -0.0041
 2120TIP3    H127775   5.099   1.763  16.424  2.3753  0.8963  1.5181
 2120TIP3    H227776   5.058   1.726  16.565 -2.8796 -2.0636 -0.5039
 2121TIP3   OH227777   3.353   3.344   3.741  0.0810  0.0935 -0.8982
 2121TIP3    H127778   3.448   3.353   3.744  0.2540 -1.3262 -1.1478
 2121TIP3    H227779   3.327   3.387   3.660  0.3840  1.3544 -0.3406
 2122TIP3   OH227780   4.724   6.585  11.234  0.0271  0.1450 -0.1063
 2122TIP3    H127781   4.782   6.639  11.288 -1.8020  1.5666  0.5586
 2122TIP3    H227782   4.774   6.567  11.155  1.9622 -0.1148  1.1229
 2123TIP3   OH227783   6.505   6.541  14.249  0.3529 -0.6251 -0.0256
 2123TIP3    H127784   6.422   6.564  14.291  0.5700 -0.7903  0.5057
 2123TIP3    H227785   6.507   6.445  14.249 -0.2838 -0.6556 -1.7054
 2124TIP3   OH227786   0.993   0.505   0.606  0.2005  0.1396 -0.2587
 2124TIP3    H127787   0.943   0.426   0.585  1.2180 -0.7532  0.5530
 2124TIP3    H227788   1.010   0.546   0.521  1.7049 -1.8175 -0.9887
 2125TIP3   OH227789   2.137   5.459  12.322  0.7528 -0.0287  0.9410
 2125TIP3    H127790   2.081   5.384  12.304  1.5374 -0.2988 -0.5327
 2125TIP3    H227791   2.088   5.511  12.385 -0.3600 -1.1465  1.0342
 2126TIP3   OH227792   0.213   6.347   3.337  0.0002 -0.1873  0.1073
 2126TIP3    H127793   0.137   6.337   3.280  1.2608  1.1567 -1.9348
 2126TIP3    H227794   0.189   6.416   3.398 -0.9540 -0.8653  0.5228
 2127TIP3   OH227795   2.171   6.658  11.581  0.0887  0.5636 -0.1416
 2127TIP3    H127796   2.224   6.688  11.655 -0.5920  2.4394 -0.3592
 2127TIP3    H227797   2.177   6.728  11.517 -1.6328  0.2578 -0.6853
 2128TIP3   OH227798   4.166   2.263  15.140 -0.7765 -0.0559  0.5952
 2128TIP3    H127799   4.261   2.268  15.142 -0.7723  2.6937 -0.9441
 2128TIP3    H227800   4.139   2.268  15.232  0.5406  0.1207  0.9826
 2129TIP3   OH227801   0.595   3.443   5.426 -0.0033 -0.0291  0.4481
 2129TIP3    H127802   0.613   3.529   5.464 -1.4509  1.4968 -2.0579
 2129TIP3    H227803   0.673   3.423   5.374  0.3240 -0.2516  1.0137
 2130TIP3   OH227804   0.247   1.146  12.019 -0.1340  0.0128 -0.5012
 2130TIP3    H127805   0.207   1.060  12.002  0.7685 -0.2580 -1.3655
 2130TIP3    H227806   0.185   1.209  11.981  0.4293 -0.4299 -2.2680
 2131TIP3   OH227807   5.309   1.472  16.859 -0.5062 -0.0524 -0.2023
 2131TIP3    H127808   5.323   1.544  16.921 -1.4205 -1.3290  1.5819
 2131TIP3    H227809   5.271   1.514  16.782 -1.0141  1.3895  0.7905
 2132TIP3   OH227810   5.286   6.224  12.341 -0.0062 -0.0676  0.0098
 2132TIP3    H127811   5.224   6.269  12.284  1.3431  3.7767  1.2266
 2132TIP3    H227812   5.372   6.242  12.302  0.6015 -2.9913 -0.2048
 2133TIP3   OH227813   2.492   1.739   4.235 -0.8206 -0.5052 -0.3863
 2133TIP3    H127814   2.494   1.820   4.287 -2.0378 -0.4685 -0.3508
 2133TIP3    H227815   2.577   1.699   4.250 -0.3770  0.5261 -0.0096
 2134TIP3   OH227816   1.254   6.050   3.094  0.1489  0.2964 -0.4279
 2134TIP3    H127817   1.298   6.055   3.009 -1.0718  1.3174 -1.0189
 2134TIP3    H227818   1.266   6.137   3.132 -0.2224  0.1733 -0.0204
 2135TIP3   OH227819   6.743   5.146  13.718 -0.3351 -0.2096  0.1256
 2135TIP3    H127820   6.734   5.166  13.812 -1.7050  1.1042 -0.2331
 2135TIP3    H227821   6.827   5.185  13.693  0.8855 -2.0432  1.1055
 2136TIP3   OH227822   1.198   3.920   4.579  0.0695  0.0543  0.0075
 2136TIP3    H127823   1.286   3.892   4.553 -0.1323 -0.3113 -0.2883
 2136TIP3    H227824   1.195   3.904   4.673  0.3610  0.1837  0.0408
 2137TIP3   OH227825   4.033   2.283  16.365  0.1189 -0.0365  0.5234
 2137TIP3    H127826   3.988   2.287  16.281  0.1383 -1.7438  0.3911
 2137TIP3    H227827   3.964   2.292  16.430  0.3184  3.3805  0.4188
 2138TIP3   OH227828   2.021   0.249  13.000 -0.3464  0.4485 -0.3120
 2138TIP3    H127829   2.006   0.196  12.921  0.6738  2.5896 -2.0363
 2138TIP3    H227830   1.953   0.317  12.996 -0.1838  0.6803  0.6025
 2139TIP3   OH227831   3.688   5.206  15.732 -0.0320 -0.3273  0.0398
 2139TIP3    H127832   3.784   5.203  15.735 -0.0595 -0.4523  2.0265
 2139TIP3    H227833   3.662   5.231  15.821 -1.8884 -1.5034 -0.1277
 2140TIP3   OH227834   2.375   3.955  14.998  0.4274  0.2090 -0.2270
 2140TIP3    H127835   2.298   3.906  15.025  0.7117 -0.2516 -0.2430
 2140TIP3    H227836   2.439   3.939  15.068  1.5260 -1.8177 -1.5861
 2141TIP3   OH227837   3.264   2.374   6.266 -0.0905  0.2848  0.0027
 2141TIP3    H127838   3.211   2.421   6.330  0.2827  1.6485 -0.6744
 2141TIP3    H227839   3.270   2.433   6.190  1.8180 -0.1136 -0.2101
 2142TIP3   OH227840   5.382   1.238   5.021  0.4992  0.5122  0.2220
 2142TIP3    H127841   5.388   1.205   5.110 -0.6105 -0.0989  0.0917
 2142TIP3    H227842   5.350   1.328   5.031 -0.7028  0.0869  0.4209
 2143TIP3   OH227843   4.369   6.188   6.243 -0.3482  0.1065 -0.3554
 2143TIP3    H127844   4.362   6.096   6.269 -0.0074 -0.3610 -1.8656
 2143TIP3    H227845   4.294   6.202   6.186 -0.7282  0.9482  0.3288
 2144TIP3   OH227846   6.573   0.845   4.350 -0.0252 -0.2447  0.0505
 2144TIP3    H127847   6.536   0.819   4.266 -1.6257  1.2823  0.2243
 2144TIP3    H227848   6.499   0.846   4.410  0.7882  0.3272  1.0826
 2145TIP3   OH227849   4.865   6.065   1.819 -0.1969  0.2437 -0.1715
 2145TIP3    H127850   4.771   6.049   1.829 -0.5320  0.2485 -2.6812
 2145TIP3    H227851   4.906   5.982   1.844 -0.9054  0.0263  0.3057
 2146TIP3   OH227852   5.837   5.639   3.481 -0.1594 -0.3204  0.0077
 2146TIP3    H127853   5.834   5.585   3.402 -0.1744 -0.3382  0.0204
 2146TIP3    H227854   5.747   5.671   3.491 -0.1312 -0.2214 -0.0499
 2147TIP3   OH227855   3.752   2.310   5.475  0.5193 -0.3704  0.1692
 2147TIP3    H127856   3.819   2.342   5.536  1.6097  0.3767 -1.3335
 2147TIP3    H227857   3.709   2.389   5.443  1.1754 -0.5801 -1.3221
 2148TIP3   OH227858   6.674   0.449  12.820  0.1307 -0.3255 -0.2686
 2148TIP3    H127859   6.665   0.536  12.780  0.6331 -0.0882  0.1135
 2148TIP3    H227860   6.702   0.467  12.910 -1.7185 -0.8298  0.4439
 2149TIP3   OH227861   2.665   1.432   2.023  0.1744 -0.4892 -0.3339
 2149TIP3    H127862   2.583   1.383   2.036  0.4475 -0.9974 -0.4912
 2149TIP3    H227863   2.721   1.372   1.974  1.1550 -0.6609  0.9646
 2150TIP3   OH227864   6.369   2.787  15.963 -0.0023 -0.0099  0.3469
 2150TIP3    H127865   6.390   2.703  16.005  0.0622  0.2967  0.9401
 2150TIP3    H227866   6.281   2.775  15.928  1.0691 -1.3251 -2.1728
 2151TIP3   OH227867   2.478   3.320  14.506  0.2128  0.2679 -0.5978
 2151TIP3    H127868   2.552   3.262  14.521  0.1157 -0.1684 -1.6985
 2151TIP3    H227869   2.455   3.306  14.414 -1.8000 -0.2874 -0.0556
 2152TIP3   OH227870   3.622   2.024   3.986  0.3452  0.0072 -0.2953
 2152TIP3    H127871   3.582   2.054   4.068  1.4738 -0.5471  0.4816
 2152TIP3    H227872   3.664   2.102   3.951 -1.7965  0.7354 -1.4032
 2153TIP3   OH227873   5.822   1.931  13.878 -0.0647  0.3477 -0.2102
 2153TIP3    H127874   5.873   1.961  13.952 -0.1718  0.3752 -0.1465
 2153TIP3    H227875   5.763   1.864  13.914  0.3852 -0.1600 -0.4111
 2154TIP3   OH227876   3.815   5.368  14.352  0.1349  0.5320  0.0321
 2154TIP3    H127877   3.883   5.345  14.289  0.7902 -0.7130  1.1425
 2154TIP3    H227878   3.767   5.287  14.366 -1.3454  1.3030 -0.4196
 2155TIP3   OH227879   2.824   4.058   5.081 -0.3201 -0.4633 -0.3894
 2155TIP3    H127880   2.770   4.018   5.014  0.1972 -2.6979  0.4282
 2155TIP3    H227881   2.906   4.009   5.078  0.4179  0.6542  0.5921
 2156TIP3   OH227882   3.343   5.898   4.567 -0.2884  0.2038  0.5105
 2156TIP3    H127883   3.385   5.886   4.482  0.3645  0.3699  0.8016
 2156TIP3    H227884   3.261   5.943   4.547  0.0748  0.6677  0.0047
 2157TIP3   OH227885   3.703   0.206   2.127  0.2186  0.7166 -0.6067
 2157TIP3    H127886   3.772   0.257   2.084  2.8048 -2.1342 -0.2339
 2157TIP3    H227887   3.746   0.167   2.203 -1.5295 -1.8298 -0.7966
 2158TIP3   OH227888   0.963   1.859  14.277  0.0195 -0.1657  0.2925
 2158TIP3    H127889   1.047   1.903  14.261 -0.7913  1.2044 -0.3604
 2158TIP3    H227890   0.938   1.825  14.191 -0.2732 -0.2573  0.4139
 2159TIP3   OH227891   0.704   3.952   1.045  0.8375 -0.1133  0.4797
 2159TIP3    H127892   0.785   3.910   1.073  2.3337  1.1245 -1.6978
 2159TIP3    H227893   0.662   3.887   0.988  1.3493 -0.0168 -0.0184
 2160TIP3   OH227894   5.932   0.576  14.934  0.4859 -0.0787  0.7212
 2160TIP3    H127895   5.891   0.556  14.850 -0.1737  1.0774  0.7458
 2160TIP3    H227896   6.023   0.599  14.911 -0.0084  1.4210  0.1576
 2161TIP3   OH227897   5.380   2.686  15.165  0.4034  1.1209  0.1184
 2161TIP3    H127898   5.450   2.745  15.138  1.7084 -0.0242  0.8666
 2161TIP3    H227899   5.316   2.743  15.208  0.8934  2.1776 -0.5077
 2162TIP3   OH227900   4.018   2.690  11.571  0.2700 -0.5552 -0.1628
 2162TIP3    H127901   4.083   2.620  11.581  0.4986 -0.3319 -0.0987
 2162TIP3    H227902   4.007   2.698  11.476  1.9608  0.8928 -0.2965
 2163TIP3   OH227903   1.937   4.519  15.331 -0.1047  0.6164  0.4789
 2163TIP3    H127904   2.024   4.553  15.350 -0.1014  1.7629 -1.3443
 2163TIP3    H227905   1.906   4.571  15.256 -1.6059 -0.9801 -0.0872
 2164TIP3   OH227906   3.751   1.829  11.809 -0.1271  0.0866  0.9352
 2164TIP3    H127907   3.707   1.749  11.778  0.3635 -0.3842  1.4419
 2164TIP3    H227908   3.713   1.899  11.755 -0.1654 -0.5554  0.1053
 2165TIP3   OH227909   2.580   3.176  15.759  0.4554  0.1009 -0.1909
 2165TIP3    H127910   2.487   3.193  15.774 -0.1424 -2.7040 -0.0892
 2165TIP3    H227911   2.583   3.134  15.673  1.6819  0.4686 -0.3470
 2166TIP3   OH227912   2.147   2.201   5.518  0.7958  0.2190  0.1748
 2166TIP3    H127913   2.229   2.176   5.562  0.6632 -1.5601 -0.4998
 2166TIP3    H227914   2.149   2.154   5.435 -0.6354  0.6516 -0.1341
 2167TIP3   OH227915   1.302   1.379   6.413 -0.2718  0.2436 -0.4300
 2167TIP3    H127916   1.222   1.374   6.361 -1.0813 -0.1911  0.8076
 2167TIP3    H227917   1.348   1.456   6.380 -0.8089  0.0431 -1.6923
 2168TIP3   OH227918   4.167   2.927   2.432 -0.8300 -0.4904 -0.0700
 2168TIP3    H127919   4.237   2.985   2.459 -0.3340 -0.1092 -2.0893
 2168TIP3    H227920   4.200   2.839   2.450 -0.2817 -0.2787 -0.0481
 2169TIP3   OH227921   5.542   2.484  12.358 -0.0397  0.3027 -0.2646
 2169TIP3    H127922   5.617   2.542  12.375  2.4614 -2.6494 -0.4831
 2169TIP3    H227923   5.499   2.477  12.443  0.6219  1.1140  0.1674
 2170TIP3   OH227924   2.051   5.178  14.322 -0.0693 -0.4011 -0.0772
 2170TIP3    H127925   2.049   5.083  14.328  0.2552 -0.3995  0.1134
 2170TIP3    H227926   1.960   5.205  14.330 -0.4521 -0.8159 -2.4400
 2171TIP3   OH227927   3.447   1.762   5.281  0.2935 -0.0751 -0.1595
 2171TIP3    H127928   3.374   1.806   5.324 -0.7459  0.3116 -2.2188
 2171TIP3    H227929   3.499   1.832   5.242  0.1351 -0.4925 -1.1567
 2172TIP3   OH227930   0.467   0.586   3.584 -0.1741 -0.2817  0.7281
 2172TIP3    H127931   0.464   0.498   3.547  1.8753 -0.1173  0.0315
 2172TIP3    H227932   0.491   0.573   3.676  0.5441 -0.4534  0.5229
 2173TIP3   OH227933   4.026   3.305  15.421  0.2763  0.2356  0.3447
 2173TIP3    H127934   3.998   3.364  15.351  0.0149  0.6454  0.7867
 2173TIP3    H227935   4.103   3.261  15.386  2.0750  2.6992  0.9145
 2174TIP3   OH227936   0.408   4.359   6.208  0.0358 -0.6535 -0.4410
 2174TIP3    H127937   0.443   4.445   6.184  2.1551 -1.9516 -2.4166
 2174TIP3    H227938   0.452   4.337   6.290  0.4943 -0.3895 -0.6116
 2175TIP3   OH227939   6.582   2.451  12.211  0.0882 -0.2696 -0.7139
 2175TIP3    H127940   6.585   2.469  12.305  0.1965 -2.7678 -0.1787
 2175TIP3    H227941   6.586   2.538  12.170  0.3578  0.8636  1.5559
 2176TIP3   OH227942   1.658   5.781   1.043  0.5545  0.3215 -0.3923
 2176TIP3    H127943   1.707   5.702   1.070 -0.4786 -0.4935 -0.8311
 2176TIP3    H227944   1.696   5.804   0.958  0.2464 -0.2669 -0.6991
 2177TIP3   OH227945   6.331   2.877  15.593  0.4180 -0.7487  0.2303
 2177TIP3    H127946   6.378   2.803  15.557 -0.8958 -1.3052 -0.4160
 2177TIP3    H227947   6.348   2.949  15.533  0.5717 -0.9060  0.0876
 2178TIP3   OH227948   1.079   0.262   3.124 -0.0365 -0.7623 -0.1963
 2178TIP3    H127949   1.083   0.309   3.207 -2.1923  0.0278 -0.4756
 2178TIP3    H227950   1.094   0.329   3.058 -0.7041 -0.9180 -0.5122
 2179TIP3   OH227951   0.652   6.345  15.478  0.3709 -0.0502  0.2306
 2179TIP3    H127952   0.747   6.345  15.484  0.3879 -1.0938  0.0235
 2179TIP3    H227953   0.631   6.276  15.416 -0.3649  2.5007 -2.6186
 2180TIP3   OH227954   3.358   2.497  10.823  0.7088 -0.2815  0.1605
 2180TIP3    H127955   3.272   2.458  10.838  0.4279 -0.1135 -0.9470
 2180TIP3    H227956   3.340   2.581  10.781  1.3861  0.1860  0.7830
 2181TIP3   OH227957   5.499   0.640   6.977  0.3305  0.4888  0.3020
 2181TIP3    H127958   5.567   0.708   6.974  1.1201 -0.2984 -0.1680
 2181TIP3    H227959   5.458   0.643   6.891 -1.0048  1.6837  0.9232
 2182TIP3   OH227960   1.389   5.774   5.137 -0.6289 -0.3516 -0.1302
 2182TIP3    H127961   1.402   5.792   5.230 -1.4168 -0.0146 -0.0757
 2182TIP3    H227962   1.312   5.717   5.134 -0.9210  0.0585 -0.6021
 2183TIP3   OH227963   2.793   4.607   0.322 -0.3365  0.6628  0.1940
 2183TIP3    H127964   2.833   4.555   0.252 -1.2549 -1.2038  1.0034
 2183TIP3    H227965   2.841   4.690   0.320 -0.7402  0.9396 -3.0295
 2184TIP3   OH227966   1.561   5.476   4.062 -0.1106  0.4340  0.2966
 2184TIP3    H127967   1.468   5.499   4.068  0.2162  2.1854 -0.5745
 2184TIP3    H227968   1.565   5.385   4.092 -1.9786  0.5630  1.1078
 2185TIP3   OH227969   4.508   4.070  11.801  0.1699  0.6073  0.1429
 2185TIP3    H127970   4.444   4.134  11.768 -0.6462  0.5142  1.4740
 2185TIP3    H227971   4.506   3.999  11.738 -0.4706  0.9612 -0.2461
 2186TIP3   OH227972   1.704   0.902   2.951  0.4109 -0.2932  0.8045
 2186TIP3    H127973   1.637   0.875   2.888  1.5526  0.4766 -0.8219
 2186TIP3    H227974   1.786   0.870   2.914  1.2261  1.0418  1.3772
 2187TIP3   OH227975   5.520   1.184  12.459  0.1017  0.2984 -0.5587
 2187TIP3    H127976   5.545   1.214  12.546 -1.0592 -1.3923  0.4038
 2187TIP3    H227977   5.582   1.115  12.438 -1.5534 -1.5684  0.3953
 2188TIP3   OH227978   3.564   5.769   5.453  0.4253  0.4344 -0.5358
 2188TIP3    H127979   3.633   5.758   5.388 -0.4776 -1.6563 -1.2065
 2188TIP3    H227980   3.604   5.824   5.521  1.6380  2.0204 -2.4314
 2189TIP3   OH227981   3.857   3.286   6.065  0.0603 -0.2398  0.1796
 2189TIP3    H127982   3.836   3.310   6.155 -0.5539  0.5728 -0.1642
 2189TIP3    H227983   3.772   3.268   6.024  0.0104  2.3165 -1.0235
 2190TIP3   OH227984   1.564   0.532   4.637 -0.2820 -0.1685  0.5844
 2190TIP3    H127985   1.565   0.546   4.542  0.4819  0.3964  0.6674
 2190TIP3    H227986   1.542   0.439   4.646 -1.2537 -0.0290 -0.1069
 2191TIP3   OH227987   4.712   1.547  12.968 -0.9642  0.1985  0.2303
 2191TIP3    H127988   4.697   1.452  12.976 -0.2184 -0.2603 -2.7035
 2191TIP3    H227989   4.807   1.556  12.970 -1.0073  0.7800 -0.2449
 2192TIP3   OH227990   0.366   1.448   1.169  0.3336  0.3026  0.7709
 2192TIP3    H127991   0.331   1.450   1.081  0.3288 -1.7992  0.6748
 2192TIP3    H227992   0.448   1.398   1.162  0.1874 -0.1671  1.9677
 2193TIP3   OH227993   1.279   3.632   4.049 -0.3742 -0.2174  0.5171
 2193TIP3    H127994   1.258   3.726   4.048  3.4699  0.7929 -0.1073
 2193TIP3    H227995   1.290   3.611   4.142  0.1030  0.2973  0.5798
 2194TIP3   OH227996   0.483   5.414   1.816 -0.4139  0.6719  0.3050
 2194TIP3    H127997   0.438   5.336   1.785  0.0622 -0.0582  1.3983
 2194TIP3    H227998   0.556   5.425   1.755  0.1389 -0.3694  0.7626
 2195TIP3   OH227999   1.652   1.876  14.192 -0.6104 -0.0098  0.3574
 2195TIP3    H128000   1.661   1.847  14.283  0.5291  1.2151  0.6708
 2195TIP3    H228001   1.619   1.965  14.198 -1.5782 -0.2997 -0.4854
 2196TIP3   OH228002   6.133   2.683   4.248  0.9363 -0.2699  0.2383
 2196TIP3    H128003   6.074   2.625   4.200  1.3865  0.6185 -1.4876
 2196TIP3    H228004   6.221   2.654   4.223  1.1893 -0.0877  0.9064
 2197TIP3   OH228005   0.215   0.322  12.683 -0.2507  0.3519 -0.2640
 2197TIP3    H128006   0.195   0.230  12.700 -0.7232  0.6172  0.6743
 2197TIP3    H228007   0.311   0.325  12.680 -0.2012 -0.0333  0.5804
 2198TIP3   OH228008   5.196   4.223  13.242  0.1200  0.0143  0.3421
 2198TIP3    H128009   5.120   4.190  13.290  0.0781 -2.1105 -1.0386
 2198TIP3    H228010   5.175   4.314  13.223 -1.9531 -0.4234  0.2843
 2199TIP3   OH228011   6.207   6.286  11.471 -0.0425  0.2025  0.2408
 2199TIP3    H128012   6.247   6.367  11.441 -0.8413  0.3758 -0.3994
 2199TIP3    H228013   6.201   6.231  11.393 -0.2451 -0.1527  0.5031
 2200TIP3   OH228014   4.367   2.700  14.481  0.0841 -0.2168  0.7525
 2200TIP3    H128015   4.385   2.706  14.575 -0.9906 -2.6994  1.1888
 2200TIP3    H228016   4.273   2.717  14.473 -0.1700 -1.6349  0.3832
 2201TIP3   OH228017   0.251   0.657  16.071  0.0553 -0.2221 -0.7574
 2201TIP3    H128018   0.170   0.625  16.112  1.0412 -1.0807  0.5908
 2201TIP3    H228019   0.231   0.660  15.978 -1.3736 -0.9092 -0.5018
 2202TIP3   OH228020   2.130   4.927   4.235 -0.2581 -0.0204  0.3074
 2202TIP3    H128021   2.047   4.922   4.188  0.3231 -0.2739 -0.7345
 2202TIP3    H228022   2.188   4.977   4.176  0.2421  0.4297  1.1542
 2203TIP3   OH228023   5.798   4.360  13.557  0.7099  0.0072  0.4376
 2203TIP3    H128024   5.842   4.382  13.640 -0.2948 -1.0396  1.2897
 2203TIP3    H228025   5.712   4.329  13.584 -0.1156  0.8651 -1.1124
 2204TIP3   OH228026   5.465   3.180  15.940 -0.2599  0.2760  0.1179
 2204TIP3    H128027   5.386   3.225  15.969 -0.8691  0.4351 -1.6659
 2204TIP3    H228028   5.537   3.235  15.970 -0.9080  1.1464  0.1182
 2205TIP3   OH228029   4.923   1.078  13.675 -0.0856  0.2173 -0.6096
 2205TIP3    H128030   4.908   1.091  13.768  0.7068 -1.6667 -0.1713
 2205TIP3    H228031   4.860   1.136  13.632  0.1213  1.7539  1.0600
 2206TIP3   OH228032   3.097   5.150   4.304  0.0713  0.2897 -0.6454
 2206TIP3    H128033   3.138   5.208   4.239  1.3148  0.1211 -0.0426
 2206TIP3    H228034   3.090   5.065   4.261 -0.6285  0.5784 -1.1130
 2207TIP3   OH228035   3.441   1.101   0.600 -0.4682 -0.0457 -0.1110
 2207TIP3    H128036   3.479   1.031   0.548 -1.1310 -0.3142 -0.2511
 2207TIP3    H228037   3.505   1.172   0.597  0.1857 -0.6295 -0.0018
 2208TIP3   OH228038   2.632   5.303   1.484  0.6339  0.2260 -0.0916
 2208TIP3    H128039   2.651   5.310   1.391 -0.9939  0.0567 -0.4787
 2208TIP3    H228040   2.536   5.298   1.488  0.7472 -2.0620  1.4309
 2209TIP3   OH228041   6.382   6.323  16.296 -0.3160 -0.6882  0.2931
 2209TIP3    H128042   6.374   6.246  16.353 -3.0910 -0.0178  0.9832
 2209TIP3    H228043   6.318   6.307  16.226 -0.1459  0.5085 -0.1631
 2210TIP3   OH228044   6.616   1.494   3.729 -0.2873 -0.1543 -0.8442
 2210TIP3    H128045   6.525   1.518   3.744  0.0302  0.9306 -0.6250
 2210TIP3    H228046   6.638   1.435   3.801  0.2430  2.4332  1.2521
 2211TIP3   OH228047   0.620   6.594   5.794  0.2202 -0.2002  0.0737
 2211TIP3    H128048   0.676   6.563   5.865  0.0984  0.6307  0.5553
 2211TIP3    H228049   0.534   6.607   5.835 -0.5959 -2.3054 -0.8572
 2212TIP3   OH228050   4.251   3.192  13.374 -0.0173 -0.1469  0.0790
 2212TIP3    H128051   4.181   3.257  13.377  1.4889  1.5383  0.4406
 2212TIP3    H228052   4.322   3.235  13.326  0.4541 -2.1752 -1.1873
 2213TIP3   OH228053   4.251   6.255  15.356  0.4901  0.2265 -0.3176
 2213TIP3    H128054   4.276   6.299  15.437  1.0952 -1.7272  0.6319
 2213TIP3    H228055   4.162   6.224  15.372  1.3483 -2.0360  0.5428
 2214TIP3   OH228056   0.167   6.637   2.048  0.2204  0.0508  0.1292
 2214TIP3    H128057   0.101   6.676   2.105  0.1135  0.2593 -0.1344
 2214TIP3    H228058   0.123   6.627   1.963  0.5031  0.1170 -0.0277
 2215TIP3   OH228059   5.363   1.271  14.015 -1.0010  0.4885  0.1842
 2215TIP3    H128060   5.284   1.224  13.989 -0.9549  0.2972  0.3822
 2215TIP3    H228061   5.331   1.352  14.054 -1.1135  0.2512  0.5858
 2216TIP3   OH228062   4.652   5.700   4.890 -0.6410  0.2016  0.6600
 2216TIP3    H128063   4.636   5.741   4.975 -0.6803  1.4249  0.0928
 2216TIP3    H228064   4.572   5.719   4.840 -0.1813  0.4383  0.0073
 2217TIP3   OH228065   4.625   1.783   0.423 -0.5371  0.8180  0.3874
 2217TIP3    H128066   4.671   1.699   0.424 -1.0060  0.5255 -0.6679
 2217TIP3    H228067   4.539   1.762   0.385 -0.8388  1.6864  0.5797
 2218TIP3   OH228068   3.133   0.462  14.915 -0.0159  0.2736 -0.1278
 2218TIP3    H128069   3.074   0.441  14.842  0.5984 -0.4015 -0.4369
 2218TIP3    H228070   3.075   0.485  14.987 -0.9154 -4.1445  0.8371
 2219TIP3   OH228071   1.175   0.040   0.137 -0.6412 -0.0139  0.7122
 2219TIP3    H128072   1.263   0.051   0.175 -0.5585  0.8948  0.2855
 2219TIP3    H228073   1.190   0.042   0.042 -1.2896  1.9010  0.6058
 2220TIP3   OH228074   6.241   4.688  13.933  0.5831  0.3707 -0.2739
 2220TIP3    H128075   6.268   4.625  14.000  0.8356 -1.1673 -1.7406
 2220TIP3    H228076   6.311   4.684  13.867 -1.5824 -1.4469 -2.6854
 2221TIP3   OH228077   4.162   5.855  16.133 -0.0795  0.0290  0.0170
 2221TIP3    H128078   4.135   5.767  16.161 -0.3025 -0.6467 -2.1684
 2221TIP3    H228079   4.257   5.854  16.138 -0.1424  0.4836  2.2061
 2222TIP3   OH228080   0.687   2.977   2.545 -0.1366 -0.0691  0.5808
 2222TIP3    H128081   0.664   2.978   2.638 -1.7589 -0.4171  0.2125
 2222TIP3    H228082   0.605   2.995   2.499  0.3478 -1.2323 -0.8312
 2223TIP3   OH228083   2.238   6.771  12.003 -0.4490  0.0514  0.4597
 2223TIP3    H128084   2.205   6.859  11.983  0.3621  0.0813 -0.8748
 2223TIP3    H228085   2.309   6.785  12.065  0.9478  0.5663 -1.1724
 2224TIP3   OH228086   2.172   0.747  15.077  0.1139 -0.2633  0.2912
 2224TIP3    H128087   2.144   0.758  15.168 -2.0058  0.4308 -0.3736
 2224TIP3    H228088   2.090   0.747  15.027  1.2814  0.8449 -1.7582
 2225TIP3   OH228089   5.337   3.761   0.082 -0.1411  0.1747  0.2470
 2225TIP3    H128090   5.323   3.811   0.162  2.2168  0.8579  0.2993
 2225TIP3    H228091   5.253   3.765   0.036 -1.4871 -0.0348  2.5272
 2226TIP3   OH228092   5.227   2.323   6.108 -0.1157  0.5453  0.2294
 2226TIP3    H128093   5.257   2.395   6.051 -1.4358  1.7584  1.0003
 2226TIP3    H228094   5.293   2.318   6.177  0.9201 -0.2008 -0.7814
 2227TIP3   OH228095   1.343   1.579   2.503 -0.2636  0.3942 -0.1261
 2227TIP3    H128096   1.277   1.643   2.479 -1.4941 -0.4089  0.9897
 2227TIP3    H228097   1.341   1.577   2.599  1.5077  0.4579 -0.0433
 2228TIP3   OH228098   2.221   0.399  12.583 -0.1955  0.0278 -0.2856
 2228TIP3    H128099   2.136   0.433  12.611  0.3486  0.7245  0.5783
 2228TIP3    H228100   2.215   0.305  12.599 -0.8789  0.0394 -0.4409
 2229TIP3   OH228101   2.026   2.796   5.209 -0.1191 -0.5931  0.8512
 2229TIP3    H128102   1.954   2.844   5.249 -0.5712 -0.8453  0.3437
 2229TIP3    H228103   2.084   2.775   5.283  0.3713  1.1776  1.0187
 2230TIP3   OH228104   5.183   2.487  13.542  0.8998  0.5450 -0.1884
 2230TIP3    H128105   5.114   2.495  13.476  1.1162 -1.3334 -0.7110
 2230TIP3    H228106   5.160   2.551  13.609 -1.0868  0.2995 -0.5701
 2231TIP3   OH228107   2.704   3.174   4.666 -0.1264  0.5486  0.0660
 2231TIP3    H128108   2.790   3.153   4.631 -0.1262 -0.1268  0.4444
 2231TIP3    H228109   2.722   3.212   4.752 -0.2012  0.4828  0.1110
 2232TIP3   OH228110   0.077   5.171  15.444  0.2529 -0.8954  0.4594
 2232TIP3    H128111   0.095   5.131  15.359  0.8426  0.7096 -0.2056
 2232TIP3    H228112  -0.008   5.136  15.469 -0.2409 -0.8884 -1.1077
 2233TIP3   OH228113   1.795   3.391   0.561  0.1639  0.3597 -0.1573
 2233TIP3    H128114   1.807   3.483   0.536  0.8658  0.7627  1.4928
 2233TIP3    H228115   1.789   3.344   0.478 -0.0301  1.8744 -1.0381
 2234TIP3   OH228116   4.044   6.424  17.006 -0.3725  0.1483 -0.8923
 2234TIP3    H128117   4.119   6.398  17.059 -1.0409 -0.3769 -0.1893
 2234TIP3    H228118   4.008   6.502  17.050  1.2891  2.0460 -2.6786
 2235TIP3   OH228119   6.654   1.110  12.725  0.3943 -0.1172 -0.4846
 2235TIP3    H128120   6.723   1.140  12.665  0.8625 -1.4312 -0.6258
 2235TIP3    H228121   6.696   1.043  12.778 -0.5983 -0.4442 -0.0933
 2236TIP3   OH228122   1.776   0.939   4.088 -0.1959  0.4584  0.6590
 2236TIP3    H128123   1.776   0.898   4.175 -0.6390  0.3294  0.6000
 2236TIP3    H228124   1.694   0.989   4.085  0.1148  0.9624  0.5484
 2237TIP3   OH228125   3.486   4.803  15.781  0.1469 -0.4321  0.2722
 2237TIP3    H128126   3.462   4.819  15.872 -0.5413  0.7854 -0.0947
 2237TIP3    H228127   3.564   4.747  15.785  1.0745  0.9031  1.6312
 2238TIP3   OH228128   1.191   4.795  12.635  0.1701  0.1473 -0.0492
 2238TIP3    H128129   1.135   4.872  12.626 -0.9276 -0.7253 -0.9770
 2238TIP3    H228130   1.201   4.783  12.730 -0.3219  0.9372  0.1062
 2239TIP3   OH228131   6.339   1.505  15.741 -0.2979  0.1838 -0.0919
 2239TIP3    H128132   6.383   1.442  15.684 -0.2521 -0.1321  0.2885
 2239TIP3    H228133   6.314   1.454  15.818 -0.3925  0.5993  0.1547
 2240TIP3   OH228134   0.866   6.423  11.154 -0.0731  0.4009  0.5102
 2240TIP3    H128135   0.928   6.469  11.096 -0.6334  1.1323  0.4794
 2240TIP3    H228136   0.921   6.364  11.205  0.8639  2.0104  1.4519
 2241TIP3   OH228137   5.096   1.376   5.232 -0.7078  0.2674 -0.3124
 2241TIP3    H128138   5.078   1.310   5.165  0.1896  0.1550 -0.4545
 2241TIP3    H228139   5.032   1.445   5.215 -1.8012 -0.6435 -0.0286
 2242TIP3   OH228140   0.325   4.051  17.174 -0.1034 -0.1878  0.1208
 2242TIP3    H128141   0.353   4.030  17.264 -0.8826 -0.4482  0.3071
 2242TIP3    H228142   0.406   4.044  17.123  0.4252  0.3066  0.8519
 2243TIP3   OH228143   1.303   2.520  16.880 -0.2692 -0.0766 -0.5728
 2243TIP3    H128144   1.295   2.493  16.972  0.9764  0.5285 -0.2712
 2243TIP3    H228145   1.257   2.452  16.831  1.2842 -1.8155  0.2892
 2244TIP3   OH228146   5.111   1.844  11.965 -0.6548  0.0262  0.6303
 2244TIP3    H128147   5.106   1.776  11.897  0.2276  1.5523 -1.0277
 2244TIP3    H228148   5.030   1.832  12.016 -0.7073 -1.9968  0.1691
 2245TIP3   OH228149   1.580   5.740  13.225 -0.0560  0.0075  0.1350
 2245TIP3    H128150   1.543   5.772  13.143  0.0796  2.5767  0.9662
 2245TIP3    H228151   1.603   5.649  13.208 -1.5894 -0.0303 -2.1177
 2246TIP3   OH228152   1.483   5.774  13.916  0.0173  0.6446 -0.3188
 2246TIP3    H128153   1.497   5.683  13.942  1.1340  0.5115 -1.3014
 2246TIP3    H228154   1.561   5.797  13.865 -0.9091  1.6741 -1.3418
 2247TIP3   OH228155   0.589   3.950  12.824 -0.2995 -0.4531  0.3137
 2247TIP3    H128156   0.607   3.941  12.730 -2.5363 -0.9444 -0.1243
 2247TIP3    H228157   0.607   3.863  12.860  0.1724 -0.3774  0.2587
 2248TIP3   OH228158   3.190   4.670   1.142 -0.1364  0.1449 -0.0811
 2248TIP3    H128159   3.254   4.683   1.071  0.9229 -0.4728  0.7251
 2248TIP3    H228160   3.114   4.632   1.099  0.7950 -0.9930 -0.7942
 2249TIP3   OH228161   0.603   5.104   1.154  0.2567  0.1390  0.2140
 2249TIP3    H128162   0.625   5.012   1.171  0.1023  0.1529  0.4852
 2249TIP3    H228163   0.558   5.133   1.233 -0.3377  0.2432 -0.1530
 2250TIP3   OH228164   2.068   0.442   0.521  0.2697  0.2299 -0.3135
 2250TIP3    H128165   2.093   0.529   0.488  0.2458  1.0037  1.5565
 2250TIP3    H228166   2.150   0.400   0.545  0.3008 -0.3970 -1.4445
 2251TIP3   OH228167   2.913   3.148  13.451 -0.2940  0.4312  0.5440
 2251TIP3    H128168   2.846   3.102  13.400 -0.7750  1.6176  0.0728
 2251TIP3    H228169   2.915   3.236  13.414  0.5086  0.8426  1.5190
 2252TIP3   OH228170   3.612   2.772  11.916  0.2816  0.2741 -0.3167
 2252TIP3    H128171   3.623   2.794  12.009  1.0504  2.0893 -0.8043
 2252TIP3    H228172   3.701   2.763  11.882  0.0034 -1.2532 -0.7192
 2253TIP3   OH228173   6.413   3.437  15.736  0.7405  0.1069  0.5500
 2253TIP3    H128174   6.452   3.515  15.697 -1.1581  2.2607  2.6292
 2253TIP3    H228175   6.452   3.431  15.823 -0.2429 -0.3218  0.9874
 2254TIP3   OH228176   5.170   3.034   0.790 -0.1904 -0.4519  0.3708
 2254TIP3    H128177   5.264   3.013   0.796 -0.2576 -0.4024  2.3438
 2254TIP3    H228178   5.164   3.097   0.719  1.4940  0.5280  1.0319
 2255TIP3   OH228179   3.538   0.098  16.202  0.1717  0.7273  0.0270
 2255TIP3    H128180   3.585   0.051  16.271 -1.1592  0.0271  0.4874
 2255TIP3    H228181   3.467   0.142  16.247  0.2279  1.5833 -0.6915
 2256TIP3   OH228182   4.509   1.301  13.197 -0.0215 -0.6030 -0.1719
 2256TIP3    H128183   4.459   1.382  13.193  0.9169 -0.0332 -0.4106
 2256TIP3    H228184   4.479   1.259  13.279 -0.6134 -0.1031 -0.1256
 2257TIP3   OH228185   0.687   3.851   5.863  1.2316 -0.0303  0.8095
 2257TIP3    H128186   0.649   3.918   5.919  1.0713 -1.2773  2.2248
 2257TIP3    H228187   0.718   3.784   5.923  2.9378 -0.4613 -0.4731
 2258TIP3   OH228188   5.021   4.646   2.546  0.3120 -0.0809 -0.2047
 2258TIP3    H128189   4.964   4.684   2.479 -2.0047  1.3554  2.3720
 2258TIP3    H228190   5.109   4.666   2.516 -0.6944  3.0274 -1.5060
 2259TIP3   OH228191   6.078   5.823  16.292 -0.0585 -0.4871  0.6628
 2259TIP3    H128192   6.020   5.861  16.226 -0.9617 -1.5215  0.8182
 2259TIP3    H228193   6.089   5.732  16.264  0.3138 -0.6840  1.4230
 2260TIP3   OH228194   1.417   0.175   3.621  0.2548  0.6183 -0.1266
 2260TIP3    H128195   1.454   0.136   3.700 -0.8623  0.9065  0.5544
 2260TIP3    H228196   1.395   0.265   3.645  0.3349  0.8539 -0.8988
 2261TIP3   OH228197   3.413   4.747  11.471  0.2181 -0.1439 -0.2436
 2261TIP3    H128198   3.387   4.711  11.556  0.7520 -1.8659 -0.7624
 2261TIP3    H228199   3.501   4.782  11.485  0.8142 -1.5325 -0.3325
 2262TIP3   OH228200   4.999   1.049   0.166  0.5333  0.2725 -0.1047
 2262TIP3    H128201   4.956   1.107   0.104 -1.7048  1.0652  2.0319
 2262TIP3    H228202   5.085   1.089   0.181  0.1002  1.4909 -0.7541
 2263TIP3   OH228203   2.458   0.994  17.249  0.2994 -0.3143  0.0962
 2263TIP3    H128204   2.374   0.957  17.224  0.0063  0.9748 -0.9213
 2263TIP3    H228205   2.506   1.001  17.167 -0.1300  2.6688  0.0122
 2264TIP3   OH228206   6.356   1.187  11.415  0.5483 -0.3915 -0.0315
 2264TIP3    H128207   6.381   1.224  11.500  1.2354 -0.1594 -0.3254
 2264TIP3    H228208   6.423   1.219  11.355 -0.3239  0.0153 -0.8058
 2265TIP3   OH228209   0.004   6.249  12.170  0.1869  0.0603  0.1129
 2265TIP3    H128210   0.040   6.187  12.233 -0.2675  0.5956  0.9184
 2265TIP3    H228211  -0.060   6.300  12.220 -1.1898 -0.4069 -1.1025
 2266TIP3   OH228212   5.505   6.634  16.710  0.0144  0.5622 -0.3076
 2266TIP3    H128213   5.586   6.592  16.739  0.4743  0.8636 -1.1268
 2266TIP3    H228214   5.494   6.605  16.620 -2.4388 -1.9694  0.6438
 2267TIP3   OH228215   6.053   2.945  11.769 -0.4924 -0.1774  0.0457
 2267TIP3    H128216   6.138   2.924  11.808 -0.7785  0.5778  1.1042
 2267TIP3    H228217   6.013   2.859  11.752  0.1458 -0.5274  0.2786
 2268TIP3   OH228218   6.321   4.220   3.628 -0.5539  0.1546 -0.4367
 2268TIP3    H128219   6.347   4.132   3.658 -0.4322  0.2971 -0.1182
 2268TIP3    H228220   6.237   4.235   3.671  0.1006  0.7773  0.6699
 2269TIP3   OH228221   5.261   6.712  13.801 -0.2505  0.3489 -0.2462
 2269TIP3    H128222   5.345   6.733  13.760 -0.0776 -0.5647 -0.3884
 2269TIP3    H228223   5.205   6.683  13.728 -0.7120  1.0127 -0.1622
 2270TIP3   OH228224   0.434   5.187   0.776 -0.4871  0.2906 -0.0803
 2270TIP3    H128225   0.494   5.213   0.707  0.1026 -0.3374  0.1868
 2270TIP3    H228226   0.461   5.098   0.800 -0.6886  0.4956  0.9562
 2271TIP3   OH228227   3.991   1.151  14.450  0.2094  0.1535  0.5527
 2271TIP3    H128228   4.053   1.128  14.518  0.8635  1.5145  0.4621
 2271TIP3    H228229   3.959   1.238  14.475 -2.6217 -0.9940  1.2450
 2272TIP3   OH228230   5.134   0.616  15.936 -0.4566  0.7302 -0.0178
 2272TIP3    H128231   5.113   0.533  15.893  0.6681  0.7562 -0.6681
 2272TIP3    H228232   5.186   0.591  16.013 -2.3055  0.6959  1.2756
 2273TIP3   OH228233   0.141   3.401  15.526  0.9982  0.1147  0.5953
 2273TIP3    H128234   0.096   3.383  15.608  1.6975 -2.3638  0.4977
 2273TIP3    H228235   0.221   3.348  15.529 -0.8104 -3.4561 -3.2679
 2274TIP3   OH228236   4.008   4.344  14.269  0.2536  0.1158 -0.1102
 2274TIP3    H128237   4.005   4.404  14.195 -0.3972  0.1097 -0.0922
 2274TIP3    H228238   3.943   4.377  14.331  0.6497  0.0063  0.3737
 2275TIP3   OH228239   1.441   2.679   4.187  0.5461  0.0308  0.1305
 2275TIP3    H128240   1.408   2.683   4.097  1.1382 -0.9953 -0.1526
 2275TIP3    H228241   1.384   2.737   4.237 -0.2903 -0.0073 -0.7672
 2276TIP3   OH228242   2.136   1.234   5.423 -0.1407 -0.0432  0.1289
 2276TIP3    H128243   2.095   1.148   5.426  0.9586 -0.5591  0.9508
 2276TIP3    H228244   2.206   1.226   5.357 -0.8990  0.6405 -0.7956
 2277TIP3   OH228245   2.295   0.829   2.070  0.6511  0.3365 -0.3836
 2277TIP3    H128246   2.343   0.796   1.995 -0.0120 -3.8429  0.7635
 2277TIP3    H228247   2.362   0.863   2.130  2.0807 -3.0007  0.1039
 2278TIP3   OH228248   5.076   1.164  12.684  0.0842  0.0475  0.4481
 2278TIP3    H128249   4.992   1.201  12.656  0.9066  0.9717 -0.8962
 2278TIP3    H228250   5.112   1.230  12.744  0.6619  0.5331 -0.4147
 2279TIP3   OH228251   3.022   1.206  10.809 -0.6925  0.1342  0.8691
 2279TIP3    H128252   2.970   1.130  10.834 -0.8715 -0.6337 -1.5159
 2279TIP3    H228253   2.959   1.269  10.775 -0.3139  0.2042  0.2706
 2280TIP3   OH228254   3.841   3.126  12.084 -0.1774 -0.1446 -0.2681
 2280TIP3    H128255   3.866   3.201  12.140 -2.5133 -0.5409  1.4558
 2280TIP3    H228256   3.754   3.102  12.115  0.8658 -4.2743 -0.0039
 2281TIP3   OH228257   3.178   1.352  12.134 -0.1465  0.2707 -0.5313
 2281TIP3    H128258   3.186   1.340  12.229  2.0558 -0.2171 -0.7190
 2281TIP3    H228259   3.188   1.447  12.122 -0.8594  0.3868 -0.2628
 2282TIP3   OH228260   5.683   0.071   0.722  0.0734  0.0302 -0.2826
 2282TIP3    H128261   5.750   0.095   0.785  1.3316 -0.5906 -1.3363
 2282TIP3    H228262   5.651  -0.014   0.751  0.0471  0.1265 -0.0280
 2283TIP3   OH228263   2.387   4.704  12.313  0.0259 -0.3682  0.2674
 2283TIP3    H128264   2.309   4.651  12.300 -1.3355  1.4502  0.5837
 2283TIP3    H228265   2.402   4.704  12.407 -1.2174  1.4085  0.5027
 2284TIP3   OH228266   5.925   5.880   4.338 -0.7885  0.4873  0.1249
 2284TIP3    H128267   5.886   5.854   4.422  0.3235 -0.2944  0.4215
 2284TIP3    H228268   5.984   5.952   4.360  1.2245 -1.1531  0.4547
 2285TIP3   OH228269   1.935   4.347   2.035 -0.0851  0.2256 -0.3244
 2285TIP3    H128270   2.008   4.293   2.003 -0.2884  0.0137 -0.4349
 2285TIP3    H228271   1.888   4.290   2.095 -0.5540  0.1335 -0.7755
 2286TIP3   OH228272   0.966   1.227   0.053 -0.3263 -0.4200  0.0845
 2286TIP3    H128273   0.928   1.163  -0.009 -0.1750 -2.3563  1.8666
 2286TIP3    H228274   0.891   1.277   0.084 -1.0984 -2.2284  1.3485
 2287TIP3   OH228275   2.015   3.748  16.526  0.5450 -0.3497 -0.0751
 2287TIP3    H128276   2.035   3.656  16.513 -1.4877 -1.1361  1.6845
 2287TIP3    H228277   2.045   3.767  16.616 -0.3623  0.2642  0.1186
 2288TIP3   OH228278   2.333   0.340   4.089 -0.3099 -0.2981  0.1509
 2288TIP3    H128279   2.257   0.284   4.076 -0.4093 -1.3727  4.0046
 2288TIP3    H228280   2.301   0.428   4.071 -1.7203 -0.9420 -0.7026
 2289TIP3   OH228281   6.753   2.526   1.887 -0.2451 -0.1673 -0.4515
 2289TIP3    H128282   6.846   2.506   1.901 -0.1353 -0.4578 -1.5251
 2289TIP3    H228283   6.750   2.622   1.883 -0.0943 -0.1275  0.1943
 2290TIP3   OH228284   1.547   3.529   4.915  0.0115 -0.4117  0.1253
 2290TIP3    H128285   1.572   3.564   4.829 -0.3688  0.4702  0.3634
 2290TIP3    H228286   1.456   3.556   4.926  0.1706 -0.1932  0.9650
 2291TIP3   OH228287   3.938   6.561  13.658  0.3425  0.2623 -0.4476
 2291TIP3    H128288   4.002   6.490  13.664 -0.3456 -0.4285 -1.1344
 2291TIP3    H228289   3.872   6.529  13.597 -1.0661  0.6412  0.8243
 2292TIP3   OH228290   0.971   5.833  17.309 -0.1005 -0.3292  0.5535
 2292TIP3    H128291   0.909   5.881  17.364  0.3916 -0.6154  1.3853
 2292TIP3    H228292   0.949   5.858  17.219  0.5521  1.9781  0.9582
 2293TIP3   OH228293   0.736   4.911   6.266 -0.7399 -0.3152 -0.3056
 2293TIP3    H128294   0.648   4.876   6.250 -0.3321 -1.2140 -0.6127
 2293TIP3    H228295   0.739   4.924   6.361 -0.3928 -2.5521  0.0392
 2294TIP3   OH228296   6.028   0.271   6.108 -0.2716 -0.2449  0.2437
 2294TIP3    H128297   6.078   0.280   6.190 -1.4748 -2.0163  1.2434
 2294TIP3    H228298   6.028   0.359   6.070  1.4598  0.3304  1.4588
 2295TIP3   OH228299   2.465   1.368   0.867 -0.1559 -0.2413 -0.3795
 2295TIP3    H128300   2.453   1.358   0.773 -0.8411  3.1544 -0.7684
 2295TIP3    H228301   2.442   1.459   0.885 -0.4947 -0.8838  3.1681
 2296TIP3   OH228302   5.422   4.120  15.213  0.9184  0.2897  0.0982
 2296TIP3    H128303   5.431   4.062  15.137  0.6694  1.0022 -0.4832
 2296TIP3    H228304   5.361   4.188  15.184  0.5640  0.3890  1.0513
 2297TIP3   OH228305   1.245   1.049  17.348  0.2850  0.2899 -0.0106
 2297TIP3    H128306   1.255   1.082  17.438  0.3601 -1.2040  0.5471
 2297TIP3    H228307   1.334   1.048  17.313  0.1507  1.8410 -0.4918
 2298TIP3   OH228308   5.654   4.949  17.293 -0.3204  0.2165  0.0603
 2298TIP3    H128309   5.653   4.870  17.239  0.3086 -0.7848  1.4611
 2298TIP3    H228310   5.746   4.965  17.313 -0.3639  1.7306 -0.7545
 2299TIP3   OH228311   1.603   2.357  14.895  0.0283 -0.1283  0.6675
 2299TIP3    H128312   1.644   2.349  14.809 -2.9244 -1.5813 -0.7690
 2299TIP3    H228313   1.532   2.420  14.881 -1.6631 -1.7739  1.4702
 2300TIP3   OH228314   0.435   1.662   3.256 -0.1315  0.4986  0.1157
 2300TIP3    H128315   0.489   1.597   3.213  1.0367  0.4921  1.5517
 2300TIP3    H228316   0.456   1.744   3.211  0.4732  0.3612  0.1482
 2301TIP3   OH228317   3.158   2.744  13.369 -0.2542  0.4771  0.2778
 2301TIP3    H128318   3.108   2.813  13.325  1.0998  0.8135 -0.7877
 2301TIP3    H228319   3.091   2.686  13.405 -1.4829  0.1145 -2.3261
 2302TIP3   OH228320   1.936   4.175  12.606 -0.2590 -0.2786  0.0854
 2302TIP3    H128321   1.904   4.099  12.556 -1.6996  1.0617 -1.1607
 2302TIP3    H228322   1.908   4.158  12.696 -0.7317 -1.1425 -0.2118
 2303TIP3   OH228323   2.524   6.609  16.212 -0.3748 -0.5658  0.6217
 2303TIP3    H128324   2.532   6.614  16.117 -2.9907  1.6622  0.4169
 2303TIP3    H228325   2.430   6.604  16.229 -0.0339 -0.1704  3.1202
 2304TIP3   OH228326   3.609   0.946   0.444  0.0250 -0.2879  0.2558
 2304TIP3    H128327   3.581   0.879   0.382  0.8024 -0.6247  0.2651
 2304TIP3    H228328   3.704   0.943   0.442  0.1330  1.6000 -0.6222
 2305TIP3   OH228329   6.405   1.491   5.668  0.2246 -0.8266 -0.0639
 2305TIP3    H128330   6.408   1.404   5.629  1.6692 -0.0518 -1.7969
 2305TIP3    H228331   6.336   1.537   5.620  1.5489 -0.0876 -1.3486
 2306TIP3   OH228332   3.394   0.439  15.058  0.1478  0.0244  0.0590
 2306TIP3    H128333   3.368   0.433  15.150  2.3997 -0.6981  0.7366
 2306TIP3    H228334   3.314   0.459  15.010 -0.7618  2.7468  2.4163
 2307TIP3   OH228335   5.429   5.332  16.343  0.1114 -0.8884 -0.2243
 2307TIP3    H128336   5.443   5.348  16.436 -0.3960  0.9882 -0.4287
 2307TIP3    H228337   5.513   5.300  16.311  0.3144 -1.4790  0.8436
 2308TIP3   OH228338   3.928   3.957  14.071 -0.4154 -0.2545 -0.4120
 2308TIP3    H128339   3.903   4.003  13.990 -1.3526 -2.0885 -1.2095
 2308TIP3    H228340   4.019   3.983  14.086 -0.1566 -0.0189 -2.1650
 2309TIP3   OH228341   6.005   4.566  13.467 -0.6238  1.2127 -0.4908
 2309TIP3    H128342   5.989   4.587  13.559 -1.6782  1.7056 -0.7715
 2309TIP3    H228343   5.918   4.548  13.431 -0.1474  0.2875 -1.2187
 2310TIP3   OH228344   6.613   6.691   4.276 -0.0527 -0.3491  0.3214
 2310TIP3    H128345   6.553   6.724   4.210  0.7908  0.5055 -0.0321
 2310TIP3    H228346   6.556   6.651   4.342 -0.9111 -1.0665 -0.8194
 2311TIP3   OH228347   0.536   4.178  17.026 -0.4241 -0.0099 -0.7315
 2311TIP3    H128348   0.484   4.239  17.078 -0.1078 -2.0316  2.2140
 2311TIP3    H228349   0.627   4.198  17.049 -0.3653 -2.5559  1.6685
 2312TIP3   OH228350   3.348   4.451   1.150 -0.0047 -0.1371 -0.2756
 2312TIP3    H128351   3.319   4.542   1.154 -0.1094 -0.1833  0.0151
 2312TIP3    H228352   3.315   4.419   1.066 -0.8952 -0.2208  0.0951
 2313TIP3   OH228353   2.750   0.864  14.310  0.2425 -0.1532  0.3144
 2313TIP3    H128354   2.709   0.914  14.380  0.3585 -0.1551  0.3826
 2313TIP3    H228355   2.741   0.920  14.233  0.7165  0.1392  0.4702
 2314TIP3   OH228356   1.491   5.762   1.307  0.1376  0.0338 -0.0562
 2314TIP3    H128357   1.565   5.767   1.367  0.0698 -0.5442  0.0882
 2314TIP3    H228358   1.422   5.813   1.350  1.1020  2.4597 -1.2269
 2315TIP3   OH228359   0.697   2.201  14.024 -0.2245  0.1648 -0.3335
 2315TIP3    H128360   0.756   2.135  13.987  0.9606  0.6137  0.6577
 2315TIP3    H228361   0.751   2.247  14.088 -1.2148  1.6880 -0.5539
 2316TIP3   OH228362   2.388   1.687  16.538  0.3736  0.0161  0.3632
 2316TIP3    H128363   2.481   1.689  16.516  0.1303  2.2033 -0.7183
 2316TIP3    H228364   2.349   1.630  16.473  1.0249 -1.5445  1.2891
 2317TIP3   OH228365   3.472   1.747   4.949  0.7593  0.1438  0.1482
 2317TIP3    H128366   3.413   1.811   4.908  0.3043  0.2599  0.9553
 2317TIP3    H228367   3.504   1.791   5.027  0.3323 -0.6579  0.7884
 2318TIP3   OH228368   2.673   6.236   0.025 -0.1683  0.8914 -0.0371
 2318TIP3    H128369   2.712   6.324   0.026  1.2473  0.3119 -0.9087
 2318TIP3    H228370   2.748   6.177   0.014 -1.0855 -0.4412  0.7017
 2319TIP3   OH228371   3.419   3.120  15.357 -0.2600 -0.7336 -0.3744
 2319TIP3    H128372   3.418   3.173  15.436 -3.6529 -1.0400 -0.0724
 2319TIP3    H228373   3.354   3.161  15.300  0.7832 -1.5969 -2.2843
 2320TIP3   OH228374   4.121   1.244  16.688  0.7706  0.4490 -0.6410
 2320TIP3    H128375   4.052   1.267  16.626  0.5526  0.2188 -0.4849
 2320TIP3    H228376   4.196   1.219  16.633  0.1622 -1.0315 -0.8264
 2321TIP3   OH228377   6.760   4.642  14.657 -0.2881 -0.0346 -0.1764
 2321TIP3    H128378   6.721   4.577  14.716 -0.4952  2.4620  2.6997
 2321TIP3    H228379   6.695   4.712  14.653  0.9613  1.1257 -1.0613
 2322TIP3   OH228380   2.220   2.273  16.126  0.8782  0.2711 -0.4323
 2322TIP3    H128381   2.154   2.334  16.092  0.4280 -0.0123 -0.0862
 2322TIP3    H228382   2.172   2.191  16.137  0.8566  0.5042  1.4300
 2323TIP3   OH228383   0.683   6.746   5.013  0.3758  0.1029  0.1018
 2323TIP3    H128384   0.628   6.684   4.967 -1.9384  1.6484  0.6009
 2323TIP3    H228385   0.696   6.818   4.951  0.9175  0.2537  0.3814
 2324TIP3   OH228386   1.063   0.003   1.026  0.0676 -0.0153 -0.4162
 2324TIP3    H128387   1.067   0.059   1.104  3.1466 -1.4556  0.6178
 2324TIP3    H228388   1.060  -0.086   1.062  1.1401 -0.6955 -1.9427
 2325TIP3   OH228389   5.907   0.270   5.298 -0.3728 -0.2671  0.5806
 2325TIP3    H128390   5.988   0.248   5.343  0.1697  1.0560  0.2978
 2325TIP3    H228391   5.930   0.343   5.240 -1.8396  0.4080  0.7961
 2326TIP3   OH228392   1.053   6.069   4.710  0.4438  0.3103 -0.4760
 2326TIP3    H128393   1.062   6.139   4.775  2.2323 -0.8178  0.5764
 2326TIP3    H228394   1.059   6.114   4.626 -1.2925  1.7312  0.1078
 2327TIP3   OH228395   5.353   4.479  11.591  0.0137 -0.5022 -0.1582
 2327TIP3    H128396   5.424   4.466  11.654 -0.3035  2.2912  0.9349
 2327TIP3    H228397   5.280   4.428  11.626  0.1955  0.0885  1.1429
 2328TIP3   OH228398   4.423   2.903   2.239  0.6552  0.3750 -0.0325
 2328TIP3    H128399   4.463   2.858   2.313 -0.7199 -0.3841  0.2940
 2328TIP3    H228400   4.354   2.843   2.209  0.5365  1.1005 -1.3067
 2329TIP3   OH228401   3.009   4.847  17.149  0.0216  0.3054  0.3156
 2329TIP3    H128402   3.001   4.819  17.241  0.3740  0.3361  0.3581
 2329TIP3    H228403   2.945   4.794  17.102 -0.5199  0.6512  0.6538
 2330TIP3   OH228404   5.169   1.881  11.535  0.5777  0.1756 -0.8403
 2330TIP3    H128405   5.078   1.869  11.507  0.6006  1.1434 -1.3772
 2330TIP3    H228406   5.187   1.974  11.521  1.6481  0.0049 -0.7290
 2331TIP3   OH228407   6.200   0.760   3.511 -0.4796 -0.1410 -0.1120
 2331TIP3    H128408   6.129   0.824   3.518 -1.5279 -1.1865 -0.7206
 2331TIP3    H228409   6.182   0.697   3.581  0.0911 -0.1852 -0.0037
 2332TIP3   OH228410   1.018   1.966   4.387 -0.0063  0.1146  0.0999
 2332TIP3    H128411   1.103   1.921   4.382 -0.8917 -1.5784 -0.9741
 2332TIP3    H228412   1.031   2.047   4.337  0.7792 -0.4986 -0.7291
 2333TIP3   OH228413   5.624   1.621  14.754 -0.0071 -0.0736  0.3031
 2333TIP3    H128414   5.596   1.650  14.667  1.9123  0.6887 -0.1083
 2333TIP3    H228415   5.558   1.557  14.780 -0.2867 -0.8394 -2.0178
 2334TIP3   OH228416   0.839   0.758  14.627  0.1215 -0.3071  0.3037
 2334TIP3    H128417   0.821   0.826  14.562  1.0968  0.2814  0.6319
 2334TIP3    H228418   0.862   0.681  14.574 -0.2888 -0.1818 -0.0625
 2335TIP3   OH228419   5.127   3.651  15.570 -0.6469  0.5060 -0.4329
 2335TIP3    H128420   5.068   3.625  15.640 -0.6444  0.2174 -0.5367
 2335TIP3    H228421   5.103   3.595  15.496 -0.4240  0.5732 -0.5569
 2336TIP3   OH228422   5.447   6.529   4.333 -0.2819  0.5219  0.0790
 2336TIP3    H128423   5.432   6.459   4.397  4.3430  0.4346  1.4292
 2336TIP3    H228424   5.480   6.484   4.256 -1.0337  1.0329 -0.5677
 2337TIP3   OH228425   2.773   0.171  11.921 -0.4576 -0.2041  0.0052
 2337TIP3    H128426   2.818   0.105  11.868  0.5040  1.8632 -1.9493
 2337TIP3    H228427   2.682   0.167  11.892 -0.4372 -0.7515  0.0086
 2338TIP3   OH228428   6.219   4.625  16.561 -0.1365  0.1172 -0.4128
 2338TIP3    H128429   6.137   4.614  16.512 -0.3004 -0.4394 -0.0180
 2338TIP3    H228430   6.286   4.587  16.506 -0.6607 -2.9202  0.8612
 2339TIP3   OH228431   1.326   3.452   3.544 -0.1873  0.3777  0.5701
 2339TIP3    H128432   1.245   3.455   3.494 -1.0031 -0.8208  1.7567
 2339TIP3    H228433   1.308   3.501   3.623  0.5728  0.9036  0.4325
 2340TIP3   OH228434   6.747   5.618  16.738 -0.1232  0.2418  0.4552
 2340TIP3    H128435   6.793   5.691  16.779 -0.4843  0.8445 -0.1901
 2340TIP3    H228436   6.812   5.580  16.678  0.7316 -1.2589  2.2403
 2341TIP3   OH228437   5.396   1.889  12.411  0.2475  0.4089  0.0092
 2341TIP3    H128438   5.360   1.854  12.329 -0.1684  0.0726  0.3264
 2341TIP3    H228439   5.486   1.857  12.414  0.0416 -0.1761  0.0224
 2342TIP3   OH228440   4.501   5.264  16.699 -0.6057 -0.3729  0.3386
 2342TIP3    H128441   4.467   5.315  16.625 -0.7569 -0.4200  0.3767
 2342TIP3    H228442   4.468   5.309  16.777 -0.6411 -0.4606  0.3741
 2343TIP3   OH228443   2.591   3.359   1.637 -0.2686 -0.0971  0.5589
 2343TIP3    H128444   2.630   3.371   1.551 -2.1041 -0.2008 -0.3321
 2343TIP3    H228445   2.505   3.402   1.631 -0.6613 -0.5799  2.1486
 2344TIP3   OH228446   0.015   2.220   3.436  0.1873  0.0481 -0.0245
 2344TIP3    H128447   0.025   2.273   3.357  0.2252  0.5645  0.3157
 2344TIP3    H228448   0.036   2.281   3.508 -0.8134 -0.1394  0.4435
 2345TIP3   OH228449   1.086   0.864   4.943  0.0180  0.1196 -0.2120
 2345TIP3    H128450   1.004   0.909   4.921  0.0637  0.7298  0.8168
 2345TIP3    H228451   1.063   0.771   4.943 -0.4706  0.2329 -0.7536
 2346TIP3   OH228452   2.170   4.537  12.297  0.4352 -0.2258  0.2091
 2346TIP3    H128453   2.103   4.595  12.335  1.0672  0.3164  0.5132
 2346TIP3    H228454   2.169   4.460  12.354  1.7976  0.8354  1.7405
 2347TIP3   OH228455   6.593   5.101  11.315 -0.7963  0.3176 -0.0923
 2347TIP3    H128456   6.559   5.185  11.347 -0.2778  0.0246  1.3100
 2347TIP3    H228457   6.544   5.035  11.363 -0.4850 -0.1639 -0.4250
 2348TIP3   OH228458   5.260   4.262  15.963  0.3112 -0.6778  0.1926
 2348TIP3    H128459   5.344   4.304  15.980  0.2453 -0.7568  0.7378
 2348TIP3    H228460   5.213   4.324  15.907  0.3297 -0.1509  0.7436
 2349TIP3   OH228461   1.487   1.512   1.211  0.1366  0.1287 -0.2613
 2349TIP3    H128462   1.550   1.443   1.193  0.0658 -0.1235  0.3985
 2349TIP3    H228463   1.473   1.555   1.127 -0.7484 -1.4395 -0.9841
 2350TIP3   OH228464   3.257   2.813  13.761 -0.0725  0.0241  0.5198
 2350TIP3    H128465   3.247   2.718  13.763 -0.7934  0.0559 -0.7537
 2350TIP3    H228466   3.203   2.844  13.834 -0.3332 -0.5063  0.5587
 2351TIP3   OH228467   3.429   4.561   0.114  0.2480  0.2611 -0.4161
 2351TIP3    H128468   3.369   4.632   0.137 -0.6405 -0.5300 -0.2091
 2351TIP3    H228469   3.511   4.605   0.091  0.5727  1.2364  2.2780
 2352TIP3   OH228470   0.171   3.201   3.032  0.5159 -0.5875 -0.9061
 2352TIP3    H128471   0.198   3.130   2.974  3.6859  0.4048 -0.8437
 2352TIP3    H228472   0.137   3.269   2.973  2.0547 -0.2842 -1.4781
 2353TIP3   OH228473   2.961   4.998  11.985  0.0226 -0.0697  0.4129
 2353TIP3    H128474   3.033   4.942  11.955 -0.8840 -0.1646 -1.7586
 2353TIP3    H228475   2.902   4.939  12.032 -0.7572 -0.9581 -1.5720
 2354TIP3   OH228476   2.618   3.827   1.799  0.4222 -0.3510 -0.0411
 2354TIP3    H128477   2.655   3.911   1.771  0.1845  0.0396  0.7580
 2354TIP3    H228478   2.549   3.809   1.736 -0.8586  1.0646  0.8707
 2355TIP3   OH228479   0.512   4.301  13.801 -0.1678 -0.3403 -0.0372
 2355TIP3    H128480   0.489   4.379  13.751 -1.0139 -0.2078  0.5402
 2355TIP3    H228481   0.555   4.244  13.737 -1.1178 -0.1212 -0.8939
 2356TIP3   OH228482   3.020   3.553   2.688 -0.0477  0.3540 -0.3751
 2356TIP3    H128483   2.929   3.525   2.675  0.0358  0.0373 -0.2844
 2356TIP3    H228484   3.017   3.648   2.678 -0.7506  0.5971  1.6598
 2357TIP3   OH228485   3.734   5.837  16.258 -0.4437 -0.1437  0.0733
 2357TIP3    H128486   3.682   5.875  16.188  0.1827  4.0984  1.5928
 2357TIP3    H228487   3.684   5.856  16.338  1.2871 -0.0147  1.1788
 2358TIP3   OH228488   2.524   5.051  12.604 -0.2473  0.5280 -0.0641
 2358TIP3    H128489   2.552   5.026  12.516  1.6152  1.0282  0.3293
 2358TIP3    H228490   2.460   4.985  12.629 -0.1921 -0.0966 -1.4791
 2359TIP3   OH228491   1.193   4.082   3.061 -0.0581 -0.4626 -0.0444
 2359TIP3    H128492   1.262   4.043   3.007 -2.2095 -0.4605 -3.0700
 2359TIP3    H228493   1.210   4.176   3.058  0.6994 -0.5706  0.6149
 2360TIP3   OH228494   0.229   3.138   6.204 -0.1116 -0.3757 -0.5925
 2360TIP3    H128495   0.280   3.092   6.137  2.8910  0.9785  0.5494
 2360TIP3    H228496   0.226   3.229   6.173 -1.0653 -0.2504 -0.1690
 2361TIP3   OH228497   1.593   1.013  13.986 -0.8619  0.0243 -0.0576
 2361TIP3    H128498   1.596   1.091  14.041  1.8953  0.5283 -0.7407
 2361TIP3    H228499   1.549   1.043  13.906 -0.5442  0.6664 -0.0037
 2362TIP3   OH228500   3.704   6.196  15.505  0.1539 -0.3937  0.0010
 2362TIP3    H128501   3.625   6.237  15.470  0.4487  1.3093  1.1957
 2362TIP3    H228502   3.673   6.113  15.543 -0.9959  0.0729  0.1320
 2363TIP3   OH228503   3.022   1.786  15.526  0.5395  0.7686 -0.0837
 2363TIP3    H128504   3.015   1.813  15.617 -0.3778 -0.0320  0.1006
 2363TIP3    H228505   2.942   1.736  15.509  1.6058 -0.8289 -0.7196
 2364TIP3   OH228506   2.601   4.970   4.527 -0.4632 -0.3727  0.5002
 2364TIP3    H128507   2.592   5.066   4.523  0.3631 -0.3030 -2.4413
 2364TIP3    H228508   2.514   4.937   4.504 -0.0918 -0.2108 -1.2997
 2365TIP3   OH228509   0.882   0.489  14.554  0.4018 -0.2874  0.2532
 2365TIP3    H128510   0.790   0.481  14.581 -0.2711  2.1739 -0.9631
 2365TIP3    H228511   0.886   0.446  14.469  0.3334 -0.3158  0.2644
 2366TIP3   OH228512   3.129   4.320   1.312 -0.1121 -0.4950  0.2068
 2366TIP3    H128513   3.057   4.319   1.249 -0.4846 -1.3019  0.6360
 2366TIP3    H228514   3.205   4.349   1.261  0.0110 -2.8311 -1.0875
 2367TIP3   OH228515   3.332   5.198   2.623 -0.7312 -0.1931  0.2299
 2367TIP3    H128516   3.239   5.200   2.643 -0.6589 -1.5585  0.7839
 2367TIP3    H228517   3.340   5.244   2.539 -1.5962  1.8137  1.1951
 2368TIP3   OH228518   0.647   5.244  14.878 -0.9136 -0.0896  0.2906
 2368TIP3    H128519   0.647   5.154  14.847  0.4970 -0.6152  1.6463
 2368TIP3    H228520   0.645   5.297  14.799  0.0623 -1.3334 -0.6036
 2369TIP3   OH228521   6.758   3.080   5.994 -0.7792  0.0453 -0.6242
 2369TIP3    H128522   6.825   3.131   6.039 -2.9338  0.4843  2.3861
 2369TIP3    H228523   6.765   3.107   5.902  3.0903  0.0147 -0.4690
 2370TIP3   OH228524   0.761   2.124   0.549  0.0286  0.5612 -0.2240
 2370TIP3    H128525   0.773   2.078   0.466  2.5943 -1.9614  1.3865
 2370TIP3    H228526   0.701   2.068   0.598 -0.5397  1.4417  0.1192
 2371TIP3   OH228527   5.039   1.294  15.728  0.2467  0.6990  0.1702
 2371TIP3    H128528   5.000   1.379  15.706 -1.5704  0.1754  1.1169
 2371TIP3    H228529   5.080   1.265  15.647 -2.0712  0.9610 -1.1916
 2372TIP3   OH228530   2.331   3.183   5.552  0.2083  0.1441 -0.6960
 2372TIP3    H128531   2.260   3.221   5.501 -0.5444 -1.6656 -1.0666
 2372TIP3    H228532   2.287   3.131   5.619  1.1761  1.9583  1.4938
 2373TIP3   OH228533   1.256   3.323  13.501  0.1111 -0.0973  0.4618
 2373TIP3    H128534   1.175   3.353  13.542 -0.8289 -2.9911  0.9292
 2373TIP3    H228535   1.281   3.246  13.551  0.6037 -1.9814 -2.4751
 2374TIP3   OH228536   0.460   2.567  16.412  0.4352  0.0143  0.6280
 2374TIP3    H128537   0.433   2.650  16.374 -0.4745  0.1199  1.4622
 2374TIP3    H228538   0.423   2.568  16.501  0.5469 -1.2019  0.7059
 2375TIP3   OH228539   6.742   2.648  11.548 -0.1613  0.0543  0.0081
 2375TIP3    H128540   6.651   2.638  11.518  0.4837  0.9180 -2.5038
 2375TIP3    H228541   6.734   2.667  11.642 -2.6226  0.6896 -0.2447
 2376TIP3   OH228542   1.256   1.074  13.195 -0.4103 -0.0203 -0.8834
 2376TIP3    H128543   1.325   1.013  13.168 -1.0455 -0.6852 -1.0220
 2376TIP3    H228544   1.303   1.150  13.229  0.3891 -0.5901 -0.7016
 2377TIP3   OH228545   0.893   6.378   2.524 -0.7776  0.1017 -0.8049
 2377TIP3    H128546   0.933   6.304   2.569 -1.0876 -0.3389 -1.2401
 2377TIP3    H228547   0.940   6.384   2.441 -1.2089 -0.0428 -1.0635
 2378TIP3   OH228548   3.974   5.017  14.654 -0.1677 -0.2783 -0.8115
 2378TIP3    H128549   4.046   5.070  14.622 -1.5978  1.5420 -1.2144
 2378TIP3    H228550   3.996   4.997  14.745  0.8048  0.2645 -0.9225
 2379TIP3   OH228551   0.227   5.338   1.591 -0.3312  0.1603  0.3177
 2379TIP3    H128552   0.267   5.316   1.675  0.5166 -1.2836 -0.4281
 2379TIP3    H228553   0.290   5.308   1.526 -1.0422  1.1157 -0.8522
 2380TIP3   OH228554   4.737   6.399   4.627 -0.2211  0.2711  0.3513
 2380TIP3    H128555   4.800   6.468   4.605  2.0274 -1.9028 -0.4276
 2380TIP3    H228556   4.700   6.373   4.542 -1.4909  0.8610  0.7010
 2381TIP3   OH228557   1.781   3.413  16.473  0.4550 -0.2685  0.1829
 2381TIP3    H128558   1.764   3.497  16.431 -0.1822  0.0482  1.0431
 2381TIP3    H228559   1.703   3.360  16.454  1.1565 -0.9250 -0.9540
 2382TIP3   OH228560   6.302   6.586   3.936  0.3856 -0.4871  0.2616
 2382TIP3    H128561   6.247   6.508   3.942  1.1254 -1.1711 -1.2188
 2382TIP3    H228562   6.269   6.632   3.858  1.1428 -0.3053  0.0357
 2383TIP3   OH228563   5.152   1.371  11.999  0.0416  0.2675 -0.4053
 2383TIP3    H128564   5.100   1.367  12.079  0.0325  2.0005 -0.2798
 2383TIP3    H228565   5.095   1.335  11.931 -0.7450  0.7139  0.0064
 2384TIP3   OH228566   4.003   5.024   3.498  0.2859 -0.0280 -0.5186
 2384TIP3    H128567   4.052   5.091   3.546 -0.0641 -0.0781 -0.0836
 2384TIP3    H228568   3.977   5.067   3.417  1.7533 -0.2526 -1.1524
 2385TIP3   OH228569   0.082   1.751  14.010  0.1113 -0.0447  0.1032
 2385TIP3    H128570   0.097   1.708  13.925  1.1765  0.0777  0.2146
 2385TIP3    H228571   0.166   1.792  14.030  0.1685 -0.8751  1.6785
 2386TIP3   OH228572   4.378   4.373  15.792 -0.1855 -0.4132 -0.9352
 2386TIP3    H128573   4.387   4.278  15.787 -0.8766 -0.5442 -0.0669
 2386TIP3    H228574   4.329   4.397  15.713 -2.2485 -1.1162  0.0610
 2387TIP3   OH228575   1.388   5.830   3.375  0.1769  0.0332  0.1099
 2387TIP3    H128576   1.405   5.756   3.433  0.0240  0.0380  0.1606
 2387TIP3    H228577   1.296   5.821   3.351  0.4526 -0.4579 -0.8108
 2388TIP3   OH228578   6.657   0.698   5.223 -0.5892 -0.5404 -0.6776
 2388TIP3    H128579   6.564   0.703   5.245 -0.0837  0.3245  1.5501
 2388TIP3    H228580   6.660   0.711   5.128 -2.7569 -1.0356 -0.8673
 2389TIP3   OH228581   3.420   6.734  10.927 -0.6517 -0.0058 -0.1285
 2389TIP3    H128582   3.351   6.783  10.883 -1.4163  0.8265  1.8684
 2389TIP3    H228583   3.500   6.783  10.908 -0.9602  0.3400 -0.5586
 2390TIP3   OH228584   5.384   4.850  12.440  0.7634  0.5042 -0.0772
 2390TIP3    H128585   5.394   4.859  12.535  0.3223 -1.1948  0.1613
 2390TIP3    H228586   5.436   4.773  12.418 -1.3444 -0.8055 -0.7511
 2391TIP3   OH228587   0.313   1.018   1.835 -0.2873  0.0805  0.2607
 2391TIP3    H128588   0.289   1.101   1.793  0.3922 -1.0467 -2.5672
 2391TIP3    H228589   0.233   0.966   1.833 -0.2377 -0.0010  0.3845
 2392TIP3   OH228590   5.201   5.779  12.405 -0.6463  0.9107  0.0906
 2392TIP3    H128591   5.198   5.816  12.493 -1.1462  0.5435  0.2393
 2392TIP3    H228592   5.115   5.736  12.395 -0.2940  0.2750 -0.2735
 2393TIP3   OH228593   1.093   4.900  14.485  0.1679  0.1090  0.4619
 2393TIP3    H128594   1.177   4.926  14.521  0.7551  0.5478 -1.1298
 2393TIP3    H228595   1.115   4.857  14.402 -1.1411 -0.2670  0.2923
 2394TIP3   OH228596   3.250   0.158   1.335 -0.0101 -0.2924 -0.3780
 2394TIP3    H128597   3.308   0.234   1.323 -1.2104  0.8623  0.8147
 2394TIP3    H228598   3.217   0.139   1.247 -0.3189  1.1072 -0.5839
 2395TIP3   OH228599   0.994   6.050  17.137 -0.0536 -0.0202 -0.1362
 2395TIP3    H128600   0.954   6.100  17.066  2.3302 -0.4109 -1.8937
 2395TIP3    H228601   1.089   6.059  17.122  0.5761  0.2880  3.3200
 2396TIP3   OH228602   5.024   0.649   1.968  0.0724  0.1328 -0.2670
 2396TIP3    H128603   5.054   0.714   2.031 -1.1397 -0.8836  1.4440
 2396TIP3    H228604   4.986   0.700   1.897 -0.1952  1.3060  0.6874
 2397TIP3   OH228605   0.354   4.408  15.467  0.2027  0.1501  1.0623
 2397TIP3    H128606   0.351   4.449  15.554  0.3479  0.5826  0.8701
 2397TIP3    H228607   0.432   4.447  15.426 -0.4300  0.7223  0.3665
 2398TIP3   OH228608   3.940   0.514   2.615 -0.1429  0.6092 -0.1094
 2398TIP3    H128609   3.964   0.494   2.524 -0.9138 -1.5399  0.1036
 2398TIP3    H228610   3.855   0.474   2.627  0.0181  0.7147  1.6277
 2399TIP3   OH228611   1.470   6.578  12.244 -0.0287 -0.5588 -0.3633
 2399TIP3    H128612   1.527   6.607  12.173  0.0451 -0.8557 -0.4276
 2399TIP3    H228613   1.412   6.653  12.260  1.9420  0.6812  1.3827
 2400TIP3   OH228614   5.387   3.697  15.629  0.2281  0.8952 -0.7764
 2400TIP3    H128615   5.297   3.666  15.633 -0.2011  2.0485 -1.1491
 2400TIP3    H228616   5.425   3.672  15.713 -0.7068  1.1777 -0.2557
 2401TIP3   OH228617   4.585   1.080  15.096 -0.3893 -0.1288  0.3915
 2401TIP3    H128618   4.553   0.999  15.135  2.0410 -0.8474  1.0617
 2401TIP3    H228619   4.605   1.137  15.171  0.2188  0.1561  0.0191
 2402TIP3   OH228620   6.426   0.014   2.949  0.2023 -0.6084 -0.0587
 2402TIP3    H128621   6.339  -0.018   2.926  0.4243 -2.1319  1.0742
 2402TIP3    H228622   6.416   0.049   3.037  0.9952 -2.0095  0.6099
 2403TIP3   OH228623   3.793   2.003  15.546 -0.1796  0.3155 -0.7279
 2403TIP3    H128624   3.840   1.995  15.463 -1.4049  2.5772 -1.7171
 2403TIP3    H228625   3.704   1.974  15.526  0.3385 -2.8924  0.8661
 2404TIP3   OH228626   5.303   3.815  15.181 -0.5885  0.1225  0.0966
 2404TIP3    H128627   5.261   3.885  15.230 -0.1629  0.5546 -0.1524
 2404TIP3    H228628   5.298   3.739  15.238  1.3937  0.9991  1.5509
 2405TIP3   OH228629   1.453   4.007   2.937 -0.5623 -0.3027 -0.3495
 2405TIP3    H128630   1.527   4.040   2.886 -0.1959 -1.0085 -0.2773
 2405TIP3    H228631   1.432   3.923   2.897 -0.7569 -0.5142  0.1899
 2406TIP3   OH228632   5.855   4.395  12.741  1.2471 -0.8332  0.2482
 2406TIP3    H128633   5.823   4.420  12.828 -0.3766  1.5211 -0.9089
 2406TIP3    H228634   5.823   4.305  12.729 -1.3958 -0.0682  0.8655
 2407TIP3   OH228635   5.509   6.524  16.453 -0.1751  0.0877  0.1901
 2407TIP3    H128636   5.449   6.497  16.383  1.3541 -0.6962 -0.8878
 2407TIP3    H228637   5.565   6.448  16.466  1.6727  1.3511 -0.0612
 2408TIP3   OH228638   5.622   3.197  17.377 -0.1069  0.0190 -0.9551
 2408TIP3    H128639   5.568   3.188  17.455  0.6087 -1.1108 -0.5564
 2408TIP3    H228640   5.561   3.222  17.308 -1.1304 -1.1113 -0.4982
 2409TIP3   OH228641   0.252   1.965  16.382  0.7028 -0.2944 -0.2303
 2409TIP3    H128642   0.331   1.912  16.390  1.6326  1.0353 -0.2706
 2409TIP3    H228643   0.283   2.051  16.354 -0.6234  0.5969  0.8740
 2410TIP3   OH228644   5.664   3.734  12.599  0.1878  0.0992  0.5984
 2410TIP3    H128645   5.665   3.749  12.694 -0.9056  0.5473  0.5559
 2410TIP3    H228646   5.620   3.811  12.564  1.1487  0.2282 -0.3385
 2411TIP3   OH228647   3.705   2.318  12.726 -0.1153  0.1440  0.1820
 2411TIP3    H128648   3.646   2.280  12.661 -0.2351  1.5971 -0.5998
 2411TIP3    H228649   3.647   2.353  12.794 -0.0848  0.3473  0.1035
 2412TIP3   OH228650   2.809   0.319   5.634  0.5131 -0.1046  0.0236
 2412TIP3    H128651   2.865   0.357   5.566 -2.2421  2.1276 -1.1840
 2412TIP3    H228652   2.762   0.249   5.589  1.8623 -1.6527  0.9124
 2413TIP3   OH228653   3.064   5.969   4.476 -0.2630 -0.3420  0.5664
 2413TIP3    H128654   3.032   5.945   4.389 -0.9454  3.8611 -0.5742
 2413TIP3    H228655   2.999   6.030   4.510  2.1637  1.6286  2.0223
 2414TIP3   OH228656   6.649   1.196  17.140  0.3536 -0.2679  0.1821
 2414TIP3    H128657   6.736   1.181  17.103 -0.0561  1.8557 -1.8813
 2414TIP3    H228658   6.588   1.156  17.078 -0.2158  0.0621  0.5077
 2415TIP3   OH228659   1.416   1.687   5.454 -0.4893  0.5506  0.4702
 2415TIP3    H128660   1.422   1.720   5.544 -1.9459 -0.2026  0.8730
 2415TIP3    H228661   1.471   1.747   5.403 -1.5732  2.4689  1.4531
 2416TIP3   OH228662   5.106   5.729  16.478 -0.4775 -0.3997 -0.0151
 2416TIP3    H128663   5.189   5.743  16.523 -0.1218  1.1198 -1.0638
 2416TIP3    H228664   5.107   5.791  16.405 -2.5564 -0.2945 -0.0248
 2417TIP3   OH228665   6.763   4.336   5.778  0.1840  0.0211 -0.0753
 2417TIP3    H128666   6.673   4.309   5.761  0.5405 -0.4344 -1.4067
 2417TIP3    H228667   6.781   4.403   5.711  0.1575  1.7362  1.5342
 2418TIP3   OH228668   1.905   6.161   5.650  0.0489  0.1709  0.4856
 2418TIP3    H128669   1.940   6.101   5.716 -0.4365 -0.4411  0.1905
 2418TIP3    H228670   1.933   6.124   5.567  0.5144  0.8499  0.3336
 2419TIP3   OH228671   4.882   2.341  14.819  0.2096 -0.0148  0.0913
 2419TIP3    H128672   4.916   2.374  14.902  0.1204 -1.7695  0.8658
 2419TIP3    H228673   4.787   2.347  14.827  0.1664 -1.0651  0.5259
 2420TIP3   OH228674   0.052   2.897   3.348  0.1643  0.1721 -0.3752
 2420TIP3    H128675  -0.006   2.833   3.390 -0.3876  0.7017 -0.3182
 2420TIP3    H228676   0.094   2.943   3.420  1.6675 -1.0667 -0.3919
 2421TIP3   OH228677   6.638   0.776   3.906 -0.1107  0.0948 -0.3879
 2421TIP3    H128678   6.629   0.789   3.812  0.4360 -0.0039 -0.4516
 2421TIP3    H228679   6.663   0.862   3.940 -1.0237  0.3182 -0.2312
 2422TIP3   OH228680   5.975   1.829   1.554  0.4921 -0.3289  0.2336
 2422TIP3    H128681   6.041   1.763   1.576  0.6668 -0.6079 -1.0153
 2422TIP3    H228682   6.025   1.911   1.551  0.5271 -0.3370  0.5232
 2423TIP3   OH228683   2.025   4.056  10.924 -0.0875 -0.5810  0.3166
 2423TIP3    H128684   1.934   4.035  10.903 -1.3107  1.1716  3.1859
 2423TIP3    H228685   2.021   4.145  10.960  2.6461 -0.7183  1.1723
 2424TIP3   OH228686   0.882   0.799   5.933 -0.2697 -0.1870  0.5539
 2424TIP3    H128687   0.831   0.880   5.944  0.4250  0.6083 -1.5903
 2424TIP3    H228688   0.826   0.742   5.881  0.6860  0.4295 -1.2279
 2425TIP3   OH228689   4.291   4.103   0.370 -0.3029  0.1430  0.1030
 2425TIP3    H128690   4.385   4.093   0.387  0.2206 -1.5374 -3.0013
 2425TIP3    H228691   4.287   4.159   0.292 -1.6831 -1.6943 -1.2285
 2426TIP3   OH228692   2.595   6.389  11.433  0.1436  0.0622  0.2399
 2426TIP3    H128693   2.501   6.389  11.449 -0.0843  0.2124 -1.0430
 2426TIP3    H228694   2.607   6.448  11.359  1.1771 -0.4254 -0.0003
 2427TIP3   OH228695   6.749   0.210   2.827 -0.2911 -0.2242  0.4663
 2427TIP3    H128696   6.752   0.181   2.736 -1.1422  0.9332  0.0396
 2427TIP3    H228697   6.760   0.130   2.878 -0.4246 -0.9779 -0.6453
 2428TIP3   OH228698   4.283   4.510  12.486 -0.6136 -0.3168  0.0372
 2428TIP3    H128699   4.372   4.531  12.515 -0.7168  2.6551 -1.4359
 2428TIP3    H228700   4.226   4.565  12.540 -1.2220  0.6790 -1.5312
 2429TIP3   OH228701   2.952   2.825   0.443  0.2445 -0.1737  0.3409
 2429TIP3    H128702   2.944   2.898   0.382  0.5644 -0.7241 -0.3767
 2429TIP3    H228703   2.949   2.866   0.529 -1.9724  0.4525  0.0131
 2430TIP3   OH228704   5.105   5.089   3.202 -0.2527  0.0548 -0.0637
 2430TIP3    H128705   5.200   5.090   3.211  0.0117  0.5217 -2.3440
 2430TIP3    H228706   5.086   5.010   3.151 -0.9359  0.7064 -0.8479
 2431TIP3   OH228707   4.391   6.333   4.087 -0.1204  0.1765  0.2003
 2431TIP3    H128708   4.323   6.287   4.038 -0.2228  1.9194 -1.4207
 2431TIP3    H228709   4.469   6.325   4.032  0.2663  0.5340  0.6897
 2432TIP3   OH228710   5.789   0.729  16.671 -0.0406  0.8737 -0.6806
 2432TIP3    H128711   5.714   0.725  16.732 -1.9473 -0.3452 -2.9339
 2432TIP3    H228712   5.861   0.689  16.719 -1.2691  0.5927  1.0221
 2433TIP3   OH228713   6.669   6.497   1.369  0.0061  0.1697  0.7423
 2433TIP3    H128714   6.614   6.469   1.296  0.6205  0.7361  0.0501
 2433TIP3    H228715   6.717   6.418   1.395 -0.8957 -0.2592  1.1663
 2434TIP3   OH228716   2.908   6.477   1.619  0.1256  0.4517 -0.1358
 2434TIP3    H128717   2.888   6.565   1.587  1.8725  1.3689  1.1311
 2434TIP3    H228718   2.871   6.475   1.707  0.1952 -0.0389 -0.1147
 2435TIP3   OH228719   0.265   2.416   4.109  0.2669  0.5428 -0.2351
 2435TIP3    H128720   0.325   2.373   4.048 -1.3829 -0.2912 -1.3890
 2435TIP3    H228721   0.281   2.510   4.098 -0.9117  0.5185 -3.1304
 2436TIP3   OH228722   1.752   2.897   4.441 -0.0330  0.2890 -0.0297
 2436TIP3    H128723   1.774   2.864   4.353  1.4791 -0.6969  0.6695
 2436TIP3    H228724   1.813   2.970   4.455 -0.3694  0.5384  0.1530
 2437TIP3   OH228725   6.073   4.985  11.874 -0.2778  0.1850  0.2675
 2437TIP3    H128726   6.044   5.000  11.784  0.2910 -2.2007 -0.3879
 2437TIP3    H228727   6.075   4.890  11.883  0.5414  0.3566  2.5335
 2438TIP3   OH228728   0.213   5.350  13.553  0.3337  0.1986  0.0341
 2438TIP3    H128729   0.139   5.407  13.532 -0.5609 -1.1839 -0.7783
 2438TIP3    H228730   0.217   5.348  13.648 -1.7979 -0.9934  0.1705
 2439TIP3   OH228731   5.098   1.992   6.086 -0.1377 -0.7605 -0.1422
 2439TIP3    H128732   5.101   1.897   6.096 -1.6371 -0.8521 -0.3074
 2439TIP3    H228733   5.050   2.005   6.004  0.4806  0.1294 -0.3667
 2440TIP3   OH228734   2.259   3.689  17.366  0.6748  0.4119 -0.1498
 2440TIP3    H128735   2.223   3.604  17.343  0.8923  0.3673 -0.3290
 2440TIP3    H228736   2.342   3.669  17.409  0.8496  0.5419 -0.4224
 2441TIP3   OH228737   3.872   4.332  13.925  0.1957  0.2573  0.5330
 2441TIP3    H128738   3.803   4.277  13.963  0.0977  0.8436  1.2391
 2441TIP3    H228739   3.908   4.380  14.000  0.3898  1.0301 -0.0426
 2442TIP3   OH228740   1.279   6.622  14.888 -0.0439 -0.1133 -0.2120
 2442TIP3    H128741   1.341   6.568  14.839  1.0152  1.0338 -0.2077
 2442TIP3    H228742   1.303   6.712  14.864 -0.5903  0.4110  1.1221
 2443TIP3   OH228743   3.591   6.362   6.282 -0.2748  0.2633  0.3065
 2443TIP3    H128744   3.584   6.452   6.312  2.4811  0.8642 -0.6480
 2443TIP3    H228745   3.583   6.310   6.362  0.3944  1.4808  1.1987
 2444TIP3   OH228746   5.444   3.421   1.040 -0.1193  0.2368  0.1099
 2444TIP3    H128747   5.419   3.397   0.951  0.9844  1.6370 -0.6283
 2444TIP3    H228748   5.363   3.417   1.090 -0.8521 -0.1258 -1.0673
 2445TIP3   OH228749   4.595   2.538  14.123 -0.0701 -0.0038 -0.1448
 2445TIP3    H128750   4.552   2.576  14.047  1.0486  0.5917 -0.5114
 2445TIP3    H228751   4.683   2.576  14.122 -0.3491  0.8429  2.0428
 2446TIP3   OH228752   0.373   3.080  14.380 -0.0463 -0.6738 -0.1094
 2446TIP3    H128753   0.451   3.063  14.327  0.6060  1.0055  0.2616
 2446TIP3    H228754   0.305   3.102  14.316  0.4712  0.3378 -0.3368
 2447TIP3   OH228755   5.464   5.623  16.874  0.0569 -0.2595  0.1375
 2447TIP3    H128756   5.554   5.653  16.861  0.3128 -1.6977 -1.8736
 2447TIP3    H228757   5.412   5.703  16.880  1.0692  0.6399 -2.1418
 2448TIP3   OH228758   5.068   2.857  14.934  0.2976  0.2975 -0.3419
 2448TIP3    H128759   5.039   2.805  14.859 -3.8223  2.3048 -0.4667
 2448TIP3    H228760   5.113   2.932  14.896 -2.3234  1.6360 -1.0814
 2449TIP3   OH228761   2.443   1.990  15.778 -0.1623 -0.3299 -0.3236
 2449TIP3    H128762   2.523   1.938  15.789  0.2758  0.3959 -0.0277
 2449TIP3    H228763   2.434   2.038  15.860 -0.9900 -0.5159 -0.3000
 2450TIP3   OH228764   5.971   0.151  14.896 -0.6238 -0.3251  0.5491
 2450TIP3    H128765   5.964   0.192  14.810  0.6782 -0.2491  0.4579
 2450TIP3    H228766   6.039   0.084  14.885  1.6616  1.6005  2.1948
 2451TIP3   OH228767   4.891   6.730   4.804 -0.7994  0.0820 -0.1210
 2451TIP3    H128768   4.967   6.731   4.863  0.5368 -1.1905 -1.7093
 2451TIP3    H228769   4.925   6.693   4.722 -2.5678  1.7822 -1.7263
 2452TIP3   OH228770   0.156   4.208  16.663 -0.3056 -0.0174 -0.2805
 2452TIP3    H128771   0.100   4.283  16.685 -2.3653 -1.1543 -1.3705
 2452TIP3    H228772   0.222   4.245  16.604 -1.5983  0.8758 -1.2221
 2453TIP3   OH228773   6.660   2.292  16.082 -0.1089  0.0559 -0.4897
 2453TIP3    H128774   6.630   2.285  16.172  0.3495  2.3501 -0.1115
 2453TIP3    H228775   6.677   2.201  16.055 -1.6901 -0.7916  1.2009
 2454TIP3   OH228776   1.609   0.295  11.409  0.2405  0.4291 -0.0274
 2454TIP3    H128777   1.699   0.271  11.431 -0.0558 -0.8434 -0.1100
 2454TIP3    H228778   1.574   0.217  11.367 -0.7873  1.0543 -0.3561
 2455TIP3   OH228779   5.321   2.423  12.222 -0.7743 -0.0174  0.1335
 2455TIP3    H128780   5.320   2.327  12.221 -2.0590 -0.0529 -2.1934
 2455TIP3    H228781   5.409   2.446  12.249 -0.1856 -1.8607 -0.0647
 2456TIP3   OH228782   0.037   6.306   5.024 -0.0374 -0.1318 -0.8766
 2456TIP3    H128783   0.001   6.223   5.056 -0.1410  0.5218  0.7867
 2456TIP3    H228784  -0.034   6.369   5.039  0.5985  0.5416 -0.6809
 2457TIP3   OH228785   0.095   5.483  12.923 -0.4376  0.1290  0.0313
 2457TIP3    H128786   0.162   5.420  12.897 -2.2869 -2.0085  0.1588
 2457TIP3    H228787   0.028   5.431  12.968 -1.4280  2.4112  1.3960
 2458TIP3   OH228788   1.421   4.740  13.140 -0.0638  0.1886 -0.3258
 2458TIP3    H128789   1.388   4.800  13.073  0.0346  0.9493  0.2902
 2458TIP3    H228790   1.470   4.796  13.200 -1.9938 -0.0644  1.6299
 2459TIP3   OH228791   2.826   3.338  12.124 -0.3079 -0.2974  0.4431
 2459TIP3    H128792   2.902   3.311  12.176 -0.5119 -1.0429  0.3655
 2459TIP3    H228793   2.823   3.274  12.052 -0.2897  0.4513 -0.2430
 2460TIP3   OH228794   3.225   5.284  12.964 -0.7885 -0.1702  0.0231
 2460TIP3    H128795   3.256   5.288  13.054  0.7060 -1.2508 -0.4197
 2460TIP3    H228796   3.236   5.374  12.931  0.5357 -0.2013  0.3325
 2461TIP3   OH228797   3.139   4.801  11.601 -0.5679  0.0343 -0.1512
 2461TIP3    H128798   3.063   4.854  11.580 -1.2771 -0.4150  1.1773
 2461TIP3    H228799   3.203   4.822  11.533 -2.0194  0.1041 -1.5379
 2462TIP3   OH228800   1.601   1.708  11.279  0.6135 -0.5758  0.3047
 2462TIP3    H128801   1.678   1.761  11.299 -1.2401  1.8751  1.4517
 2462TIP3    H228802   1.528   1.758  11.315 -1.7449 -1.8162 -2.4188
 2463TIP3   OH228803   0.200   4.664  10.922 -0.1743 -0.1766 -0.5254
 2463TIP3    H128804   0.159   4.635  10.841 -2.5483 -3.1275  1.4919
 2463TIP3    H228805   0.135   4.724  10.961 -0.6245 -1.3498  0.6160
 2464TIP3   OH228806   6.382   4.295  14.678  0.1023 -0.7255 -0.4081
 2464TIP3    H128807   6.407   4.237  14.606 -1.2353 -0.6447 -0.9647
 2464TIP3    H228808   6.296   4.328  14.653 -0.4171 -0.7458  1.2637
 2465TIP3   OH228809   3.311   6.433   0.797 -0.1274 -0.5016  0.1021
 2465TIP3    H128810   3.369   6.503   0.766  0.0477  0.3519  2.1954
 2465TIP3    H228811   3.245   6.425   0.728  0.7263  0.6669 -0.9026
 2466TIP3   OH228812   1.093   3.937  12.813  0.1571  0.0322  0.4480
 2466TIP3    H128813   1.119   3.956  12.903 -1.8167 -0.2447  1.1382
 2466TIP3    H228814   1.171   3.955  12.761  2.4934 -3.0575  2.5208
 2467TIP3   OH228815   1.457   2.180  16.572  0.2127  0.1853 -0.1048
 2467TIP3    H128816   1.515   2.249  16.540 -0.8152  1.2925  0.3601
 2467TIP3    H228817   1.503   2.142  16.647  1.2932 -0.4423 -1.0326
 2468TIP3   OH228818   6.138   4.756   3.820  0.2680  0.0964 -0.3333
 2468TIP3    H128819   6.044   4.736   3.826  0.2865 -0.1564 -0.8197
 2468TIP3    H228820   6.167   4.711   3.740  1.2942 -1.6231  0.9626
 2469TIP3   OH228821   3.408   4.297   2.367  0.5151  0.5918  0.4627
 2469TIP3    H128822   3.503   4.298   2.356  0.3342  2.0071 -1.3503
 2469TIP3    H228823   3.394   4.258   2.454  2.6405 -1.5642 -0.0639
 2470TIP3   OH228824   1.762   1.968   6.421  0.4672 -0.1458 -0.0944
 2470TIP3    H128825   1.700   2.040   6.434  1.1586  0.4489 -0.0116
 2470TIP3    H228826   1.711   1.900   6.378  0.0985  0.8806 -1.3555
 2471TIP3   OH228827   3.195   6.491  10.692 -0.5244 -0.3590 -0.5032
 2471TIP3    H128828   3.180   6.406  10.735  1.4520 -0.0811  0.9170
 2471TIP3    H228829   3.268   6.475  10.633 -1.1980  0.0035 -1.4489
 2472TIP3   OH228830   2.196   4.481   2.119 -0.0074  0.0545  0.5304
 2472TIP3    H128831   2.136   4.447   2.185 -0.1706  1.3456  1.0760
 2472TIP3    H228832   2.159   4.452   2.036 -0.6671 -0.2456  0.9187
 2473TIP3   OH228833   0.760   0.105   0.924 -0.4115  0.0223  0.8927
 2473TIP3    H128834   0.745   0.079   1.015  1.2858 -1.0331  0.9184
 2473TIP3    H228835   0.834   0.051   0.895  0.3420  1.6771 -0.5183
 2474TIP3   OH228836   3.021   4.863   0.086  0.5387 -0.5705  0.7105
 2474TIP3    H128837   2.980   4.895   0.166 -0.4546 -2.3054  0.9381
 2474TIP3    H228838   3.001   4.769   0.084 -0.2485 -0.4454 -2.0134
 2475TIP3   OH228839   5.281   1.108   1.473  0.1612 -0.2777 -0.0528
 2475TIP3    H128840   5.273   1.013   1.484  1.1075 -0.3591 -0.0079
 2475TIP3    H228841   5.349   1.133   1.536 -0.8442  0.5990  0.7193
 2476TIP3   OH228842   2.030   6.459  16.211 -0.1974  0.0420 -0.2078
 2476TIP3    H128843   2.004   6.432  16.299 -1.0057  1.9577  0.2035
 2476TIP3    H228844   1.970   6.412  16.152 -0.4532 -0.3308  0.3449
 2477TIP3   OH228845   4.518   0.974  16.670 -0.2328  0.6169 -0.2424
 2477TIP3    H128846   4.519   1.001  16.578 -1.4935  2.6292  0.2791
 2477TIP3    H228847   4.603   0.931  16.683  0.0954  0.5638 -2.2431
 2478TIP3   OH228848   0.721   2.839  13.302 -0.1597 -0.3164  0.3503
 2478TIP3    H128849   0.630   2.809  13.300 -0.0292 -0.8567  1.8510
 2478TIP3    H228850   0.717   2.928  13.336 -0.0386 -0.8176  1.7428
 2479TIP3   OH228851   4.512   2.590  14.711  0.3181 -0.3413  0.3905
 2479TIP3    H128852   4.486   2.522  14.773 -1.9811 -0.5408 -0.7042
 2479TIP3    H228853   4.520   2.545  14.627  0.1695  0.4955 -0.0820
 2480TIP3   OH228854   0.635   3.749   0.557  0.0359  0.0606  0.7438
 2480TIP3    H128855   0.709   3.696   0.528  0.2709  0.2497  0.9939
 2480TIP3    H228856   0.560   3.690   0.551 -0.0057  0.2067 -0.6449
 2481TIP3   OH228857   2.041   0.743  17.166  0.2448 -0.2033 -0.0721
 2481TIP3    H128858   2.083   0.820  17.126  1.2401 -0.4892  0.3870
 2481TIP3    H228859   1.977   0.715  17.101  0.8324  0.1981 -0.8561
 2482TIP3   OH228860   4.629   6.177  13.513  0.7180 -0.3660 -0.2368
 2482TIP3    H128861   4.627   6.081  13.518  0.0176 -0.4338 -1.6363
 2482TIP3    H228862   4.674   6.196  13.431 -1.6845  0.4433 -1.4412
 2483TIP3   OH228863   0.274   6.570  16.023  0.3707  0.2661 -0.0134
 2483TIP3    H128864   0.355   6.560  15.973 -0.6567  2.2947 -2.3028
 2483TIP3    H228865   0.302   6.566  16.115  2.5623 -2.1843 -0.6511
 2484TIP3   OH228866   2.710   5.225   0.276 -0.0016 -0.4545  0.1792
 2484TIP3    H128867   2.662   5.223   0.193 -0.6088  1.1040  0.4659
 2484TIP3    H228868   2.751   5.139   0.282  0.9709 -0.2535 -2.2836
 2485TIP3   OH228869   6.481   5.090  12.362 -0.0663  0.9639 -0.5422
 2485TIP3    H128870   6.419   5.091  12.435 -0.0448  1.4775 -0.5243
 2485TIP3    H228871   6.426   5.077  12.284 -0.2356  1.6980 -0.5546
 2486TIP3   OH228872   5.911   0.038  11.822  0.2718 -0.0072 -0.1476
 2486TIP3    H128873   6.005   0.044  11.837  0.7991 -2.0957 -2.1663
 2486TIP3    H228874   5.902  -0.015  11.743 -2.5434  1.8771 -1.2632
 2487TIP3   OH228875   5.474   5.547  15.183  0.6016 -0.3584  0.3204
 2487TIP3    H128876   5.551   5.491  15.178 -0.4305 -2.7099  4.9367
 2487TIP3    H228877   5.401   5.489  15.162 -0.1718  0.7317 -0.0810
 2488TIP3   OH228878   4.547   5.800  12.275  0.3858  1.1224  0.3254
 2488TIP3    H128879   4.512   5.721  12.318  1.1224  1.4526  1.5954
 2488TIP3    H228880   4.615   5.767  12.216  1.7680  0.8757  1.9841
 2489TIP3   OH228881   4.118   1.370   1.779 -0.0834 -0.4239  0.6844
 2489TIP3    H128882   4.213   1.375   1.783 -0.0470  1.1720 -1.0566
 2489TIP3    H228883   4.100   1.276   1.769  1.4615 -0.5633 -1.4121
 2490TIP3   OH228884   2.099   2.945  11.566  0.3679  0.1464 -0.3962
 2490TIP3    H128885   2.039   3.005  11.609  0.2835  0.5773 -1.1077
 2490TIP3    H228886   2.140   2.996  11.496 -2.1305 -1.3830 -3.2368
 2491TIP3   OH228887   1.863   0.395   4.033  0.1286 -0.0422 -0.3959
 2491TIP3    H128888   1.780   0.378   3.988  0.8757 -2.6097 -0.9625
 2491TIP3    H228889   1.848   0.369   4.124  0.3107 -0.4887 -0.4937
 2492TIP3   OH228890   0.110   6.289  16.888 -0.1199 -0.0088 -0.6747
 2492TIP3    H128891   0.171   6.285  16.962 -0.7958  0.3800 -0.0877
 2492TIP3    H228892   0.140   6.364  16.837  0.4450 -0.3732 -0.8930
 2493TIP3   OH228893   3.712   0.356   2.793 -0.0710  0.7941 -0.7509
 2493TIP3    H128894   3.685   0.344   2.702 -0.5340  1.4166 -0.7029
 2493TIP3    H228895   3.691   0.273   2.836 -0.6399  0.7967 -1.0196
 2494TIP3   OH228896   1.900   2.999  16.505  0.3051 -0.0783  0.0783
 2494TIP3    H128897   1.935   2.938  16.569  0.4925  0.3991  0.4317
 2494TIP3    H228898   1.816   3.028  16.542  0.7492  0.7426  0.4498
 2495TIP3   OH228899   1.898   0.213  15.527 -0.1332 -0.0264 -0.4280
 2495TIP3    H128900   1.949   0.251  15.456 -0.9142  0.3238 -0.8112
 2495TIP3    H228901   1.814   0.189  15.487 -0.3404 -0.4297  0.2268
 2496TIP3   OH228902   2.882   1.365   1.029 -0.8663  0.2953  0.4838
 2496TIP3    H128903   2.810   1.302   1.018 -1.8835  1.4858  0.0822
 2496TIP3    H228904   2.959   1.319   0.995 -1.8463 -0.2621 -1.1170
 2497TIP3   OH228905   3.956   4.156  12.279  0.0653 -0.0929  0.3772
 2497TIP3    H128906   3.962   4.099  12.203 -0.1530 -0.0779  0.3476
 2497TIP3    H228907   3.906   4.106  12.343 -0.0991  0.0525  0.3628
 2498TIP3   OH228908   2.120   6.463  11.887  0.3096 -0.7217 -0.4248
 2498TIP3    H128909   2.148   6.545  11.928 -0.4220 -0.0658 -1.1918
 2498TIP3    H228910   2.198   6.408  11.887  1.2742  0.6020 -1.4227
 2499TIP3   OH228911   5.826   2.090   1.115 -0.3293  0.4911 -0.1406
 2499TIP3    H128912   5.743   2.066   1.074 -1.8118 -0.9903  3.3443
 2499TIP3    H228913   5.805   2.100   1.208  3.3206  0.5583  0.8230
 2500TIP3   OH228914   2.036   3.978   0.725  0.0342 -0.2760 -0.2082
 2500TIP3    H128915   2.002   3.970   0.814 -1.0358  1.7514 -0.3594
 2500TIP3    H228916   1.978   4.042   0.684  2.6350  1.6178 -1.2160
 2501TIP3   OH228917   2.953   5.234  10.813 -0.6477  0.4009  0.4478
 2501TIP3    H128918   3.039   5.228  10.772 -1.6034  2.3225 -2.1453
 2501TIP3    H228919   2.965   5.295  10.886  0.2299  0.4722  0.2509
 2502TIP3   OH228920   6.669   5.724  13.337  0.2389  0.2672  0.2305
 2502TIP3    H128921   6.672   5.784  13.262  2.1839 -0.3302 -0.2095
 2502TIP3    H228922   6.730   5.761  13.400 -0.7916  0.3289  1.2349
 2503TIP3   OH228923   3.198   3.814  15.935 -0.4940  0.3343 -0.0558
 2503TIP3    H128924   3.176   3.819  16.028 -1.7834  0.0295 -0.3211
 2503TIP3    H228925   3.274   3.871  15.925 -0.7552  0.9086  1.0642
 2504TIP3   OH228926   4.522   6.578  11.612 -0.0928 -0.0678  0.4363
 2504TIP3    H128927   4.530   6.531  11.529  0.1518 -0.3823  0.6352
 2504TIP3    H228928   4.606   6.622  11.623 -0.2113  0.1736  0.4031
 2505TIP3   OH228929   2.212   0.528   2.924 -0.2594  0.4993  0.3846
 2505TIP3    H128930   2.185   0.438   2.901  0.7236  0.0165  1.0437
 2505TIP3    H228931   2.188   0.537   3.016  0.4945  0.5754  0.5782
 2506TIP3   OH228932   3.577   3.254   1.595  0.0993 -0.5413 -0.8916
 2506TIP3    H128933   3.669   3.255   1.567  0.9981  0.6499  1.7143
 2506TIP3    H228934   3.580   3.288   1.685 -3.0604  0.7518 -1.1608
 2507TIP3   OH228935   5.860   0.648  13.393 -0.3392  0.2826  0.7443
 2507TIP3    H128936   5.836   0.619  13.305  0.3978  0.5249  0.4526
 2507TIP3    H228937   5.940   0.700  13.380  1.1650 -1.6257  1.8072
 2508TIP3   OH228938   3.774   5.314   4.094  0.4630  0.4937  0.3319
 2508TIP3    H128939   3.806   5.394   4.051  0.1419 -0.2089 -1.2857
 2508TIP3    H228940   3.680   5.331   4.107 -0.1873 -0.5407 -2.3762
 2509TIP3   OH228941   3.217   6.149   1.303  0.3661 -0.5017 -0.0355
 2509TIP3    H128942   3.302   6.164   1.345  1.0809 -0.7577 -1.3570
 2509TIP3    H228943   3.165   6.103   1.369  2.3606 -3.3662 -0.3278
 2510TIP3   OH228944   6.376   6.257   5.303  0.0273 -0.2097 -0.8702
 2510TIP3    H128945   6.462   6.269   5.263  0.0365 -2.7588 -1.7772
 2510TIP3    H228946   6.394   6.241   5.395  0.3534  0.9982 -0.7057
 2511TIP3   OH228947   2.266   0.542   2.634 -0.0602  0.2526  0.1121
 2511TIP3    H128948   2.242   0.491   2.712  0.9370  0.4576  0.5734
 2511TIP3    H228949   2.284   0.476   2.567  1.1559 -0.0264  0.6861
 2512TIP3   OH228950   4.804   4.277   1.781  0.5935 -0.3005 -0.6474
 2512TIP3    H128951   4.855   4.276   1.699  3.0858 -0.4774  0.8173
 2512TIP3    H228952   4.783   4.185   1.796  0.4644 -0.3121 -0.8847
 2513TIP3   OH228953   6.500   3.791   5.325 -0.8786 -0.1360  0.1993
 2513TIP3    H128954   6.477   3.795   5.232 -0.4105  2.6236  0.1151
 2513TIP3    H228955   6.567   3.723   5.331 -1.1266 -0.5510 -1.4244
 2514TIP3   OH228956   2.688   1.044  14.656  0.1879  0.0604 -0.6468
 2514TIP3    H128957   2.687   1.109  14.727  0.2090 -0.4223 -0.1975
 2514TIP3    H228958   2.657   1.092  14.580 -2.3131 -0.0146  0.2298
 2515TIP3   OH228959   2.191   6.763  12.441  0.4074  0.5380  0.3940
 2515TIP3    H128960   2.175   6.669  12.440  0.1899  0.5740  0.5229
 2515TIP3    H228961   2.276   6.773  12.399  0.6876  0.2378  0.8810
 2516TIP3   OH228962   0.395   5.794  11.436  0.1794 -0.0141 -0.3417
 2516TIP3    H128963   0.368   5.856  11.368 -1.7896  1.1705  1.3901
 2516TIP3    H228964   0.465   5.839  11.483 -0.2725  0.3100  0.0302
 2517TIP3   OH228965   5.852   1.184  12.427 -0.0574  0.2533 -0.6966
 2517TIP3    H128966   5.828   1.123  12.496  1.0288  1.2919  0.6429
 2517TIP3    H228967   5.943   1.161  12.405 -0.1344  0.4410 -1.2314
 2518TIP3   OH228968   0.049   2.882   1.057 -0.5788  0.3762 -0.0759
 2518TIP3    H128969   0.110   2.951   1.031 -0.5902  0.3582 -0.1512
 2518TIP3    H228970  -0.031   2.929   1.080 -0.8760  0.3301 -0.9803
 2519TIP3   OH228971   6.287   4.054  10.814  0.3855  0.0187  0.1677
 2519TIP3    H128972   6.350   4.119  10.847 -0.4322 -0.0526  2.0140
 2519TIP3    H228973   6.204   4.078  10.856 -0.0090 -2.0325  0.6535
 2520TIP3   OH228974   1.469   4.722  11.521 -0.0154  0.1659  0.0430
 2520TIP3    H128975   1.557   4.719  11.558 -0.0959  1.4820  0.4068
 2520TIP3    H228976   1.428   4.799  11.561 -1.3301 -0.4010 -0.1343
 2521TIP3   OH228977   5.566   3.119  16.967  0.4295 -0.0099  0.1682
 2521TIP3    H128978   5.501   3.109  17.036 -1.2795  0.0009 -1.3603
 2521TIP3    H228979   5.650   3.108  17.011 -0.5967 -0.2146  2.1832
 2522TIP3   OH228980   0.180   1.803   0.146  0.1340  0.4981  0.0132
 2522TIP3    H128981   0.202   1.709   0.149  2.1865  0.9297  0.0474
 2522TIP3    H228982   0.264   1.846   0.133 -0.3932  2.5164  2.5855
 2523TIP3   OH228983   3.715   6.731   4.816  0.4173  0.0844 -0.3573
 2523TIP3    H128984   3.715   6.711   4.722 -0.4235  0.1226 -0.3766
 2523TIP3    H228985   3.624   6.755   4.835  0.4293 -0.5471  0.5908
 2524TIP3   OH228986   1.912   0.793   2.812  0.3446 -0.7266 -0.1847
 2524TIP3    H128987   1.916   0.845   2.732 -0.7548 -1.3077 -0.6436
 2524TIP3    H228988   2.002   0.762   2.825  0.9052  0.8497 -0.1719
 2525TIP3   OH228989   6.624   5.966   0.147  0.3871 -0.0991 -0.5834
 2525TIP3    H128990   6.698   5.905   0.151  0.4906  0.0709  0.2328
 2525TIP3    H228991   6.547   5.909   0.154  0.4714 -0.1748 -0.2534
 2526TIP3   OH228992   1.788   0.021  15.773  0.0667 -0.4672  0.2966
 2526TIP3    H128993   1.788   0.022  15.868  1.4603  0.9067  0.3061
 2526TIP3    H228994   1.814   0.110  15.747  0.4934 -1.0291 -1.3475
 2527TIP3   OH228995   1.913   1.376  12.277 -0.1404  0.2200 -0.5003
 2527TIP3    H128996   1.989   1.329  12.242 -0.7592 -0.2905 -1.1936
 2527TIP3    H228997   1.883   1.430  12.204 -1.1731 -0.5092 -0.6312
 2528TIP3   OH228998   4.614   3.740  10.893  0.3911  0.6405 -0.0754
 2528TIP3    H128999   4.580   3.670  10.949  1.5005 -0.8876 -1.2388
 2528TIP3    H229000   4.544   3.756  10.830  1.0458 -1.2400 -1.3590
 2529TIP3   OH229001   1.606   2.137   0.952 -0.0408  0.2601 -0.0158
 2529TIP3    H129002   1.534   2.140   0.889  0.3861  2.1496 -0.4623
 2529TIP3    H229003   1.569   2.171   1.033  0.3181  1.1331 -0.2164
 2530TIP3   OH229004   5.500   3.269   0.240 -0.1903 -0.2296  0.1939
 2530TIP3    H129005   5.495   3.355   0.282 -1.2409 -1.4011  2.6679
 2530TIP3    H229006   5.522   3.209   0.311  1.0927 -1.9650 -1.5767
 2531TIP3   OH229007   5.561   6.015  12.470  0.2941 -0.6532  0.1468
 2531TIP3    H129008   5.506   6.088  12.499 -0.4032 -0.9502 -0.4009
 2531TIP3    H229009   5.620   5.998  12.544 -1.5115 -1.4912  1.4503
 2532TIP3   OH229010   4.198   5.457   2.146 -0.2352 -0.2700  0.2876
 2532TIP3    H129011   4.208   5.382   2.087  0.2104 -0.7337  0.9379
 2532TIP3    H229012   4.140   5.517   2.099  0.6652 -0.3210 -0.9126
 2533TIP3   OH229013   0.318   4.328   4.326  0.1381 -1.0979 -0.2096
 2533TIP3    H129014   0.357   4.246   4.296 -1.0643 -2.0424  0.7273
 2533TIP3    H229015   0.224   4.311   4.326 -0.1055  0.1718  0.3238
 2534TIP3   OH229016   5.230   0.038   3.708 -0.5835 -0.3244 -0.8264
 2534TIP3    H129017   5.262   0.068   3.623 -1.8926 -0.7289 -1.5049
 2534TIP3    H229018   5.306   0.001   3.752  0.6826  2.1943 -0.7347
 2535TIP3   OH229019   3.169   6.322  16.889  0.7747  0.2112  0.3755
 2535TIP3    H129020   3.114   6.357  16.960 -1.3718 -1.0429 -0.5615
 2535TIP3    H229021   3.226   6.258  16.933  0.6942  0.6984  1.2217
 2536TIP3   OH229022   1.070   4.656   0.531 -0.3080  0.4212 -0.2455
 2536TIP3    H129023   1.143   4.655   0.593 -0.2044  0.7562 -0.3582
 2536TIP3    H229024   0.997   4.618   0.579  0.6152 -2.5808 -1.0025
 2537TIP3   OH229025   0.372   0.137  14.170 -0.1259 -0.2042  0.6320
 2537TIP3    H129026   0.286   0.154  14.131  0.0412  2.4946  1.2184
 2537TIP3    H229027   0.392   0.046  14.147 -1.6785  0.0768 -2.3620
 2538TIP3   OH229028   5.119   1.904  12.723  0.0612  0.2444  0.1214
 2538TIP3    H129029   5.087   1.884  12.635  0.3264  1.4344 -0.2653
 2538TIP3    H229030   5.213   1.921  12.711  0.5668 -1.6671  0.9920
 2539TIP3   OH229031   3.465   5.350  15.351  0.1719  0.7313 -0.1141
 2539TIP3    H129032   3.443   5.410  15.280  0.3644  0.2570 -0.5827
 2539TIP3    H229033   3.426   5.266  15.325 -0.2444  0.6874  0.6171
 2540TIP3   OH229034   2.476   2.614  12.378 -0.1843 -0.2865  0.3285
 2540TIP3    H129035   2.531   2.565  12.317  2.0309 -2.0853  3.5035
 2540TIP3    H229036   2.386   2.586  12.357  0.7720 -3.7104  0.2273
 2541TIP3   OH229037   5.358   2.974   4.051 -0.4473  0.4558 -0.2019
 2541TIP3    H129038   5.394   2.996   3.965  2.3260 -0.0499  0.7322
 2541TIP3    H229039   5.412   2.901   4.081 -1.6169  0.3723  1.8106
 2542TIP3   OH229040   6.143   6.214  14.850  0.2585 -0.0813 -0.0465
 2542TIP3    H129041   6.209   6.180  14.790 -0.4312 -0.2348 -0.7256
 2542TIP3    H229042   6.191   6.277  14.904  0.7422  0.5638 -1.1970
 2543TIP3   OH229043   0.196   2.595  11.790 -0.3195 -0.5171 -0.0651
 2543TIP3    H129044   0.104   2.608  11.816 -0.4467  1.3824 -1.2505
 2543TIP3    H229045   0.236   2.682  11.800  1.1945 -1.1731 -0.1821
 2544TIP3   OH229046   3.505   3.145   2.752 -0.1113  0.1651  0.0755
 2544TIP3    H129047   3.463   3.196   2.683 -0.3587  0.7735  0.6615
 2544TIP3    H229048   3.599   3.149   2.731 -0.3314 -1.5442 -1.4621
 2545TIP3   OH229049   1.258   2.121   2.995  0.1917  0.0298  0.1802
 2545TIP3    H129050   1.202   2.096   3.068  0.0899 -0.8855 -0.1930
 2545TIP3    H229051   1.198   2.145   2.924  0.2640 -0.3907 -0.0306
 2546TIP3   OH229052   5.907   4.807   5.192  0.3662 -0.1728 -0.1190
 2546TIP3    H129053   5.928   4.714   5.187 -0.1103 -0.3441  0.8717
 2546TIP3    H229054   5.812   4.810   5.203  0.3353  0.4512 -0.4840
 2547TIP3   OH229055   2.036   5.899  12.509  0.3732 -0.2351 -0.0757
 2547TIP3    H129056   2.131   5.894  12.497  0.8017  0.9747  2.2347
 2547TIP3    H229057   2.019   5.992  12.526 -1.2860 -0.3901 -0.6892
 2548TIP3   OH229058   6.516   2.546   6.050  0.1923  0.3002  0.1400
 2548TIP3    H129059   6.533   2.628   6.002  0.6573  0.5346  0.6899
 2548TIP3    H229060   6.507   2.574   6.141  1.8529 -0.4259  0.5574
 2549TIP3   OH229061   2.526   1.571  12.257  0.0682  0.5994 -0.0152
 2549TIP3    H129062   2.507   1.518  12.334  0.7763  0.0437 -0.2157
 2549TIP3    H229063   2.588   1.519  12.206  0.1195  1.2486 -0.6356
 2550TIP3   OH229064   6.299   2.780   1.880  0.0204  0.4188  0.2233
 2550TIP3    H129065   6.268   2.863   1.844  0.2791  0.3262 -0.2247
 2550TIP3    H229066   6.312   2.797   1.973 -1.5980  0.3991  0.4855
 2551TIP3   OH229067   4.015   4.056  11.725 -0.0592  0.0969  0.2354
 2551TIP3    H129068   4.067   4.095  11.795  1.3448 -2.3878  0.7229
 2551TIP3    H229069   3.928   4.042  11.763  0.5916 -0.8963  1.4311
 2552TIP3   OH229070   6.465   4.427  14.070 -0.0882 -0.3956 -0.2546
 2552TIP3    H129071   6.525   4.415  13.997 -0.3443 -1.0925 -0.3583
 2552TIP3    H229072   6.427   4.340  14.086  0.3225 -0.3702  1.0256
 2553TIP3   OH229073   1.114   6.064   0.777  0.3958 -0.6042 -0.3875
 2553TIP3    H129074   1.085   6.147   0.739 -1.5404 -0.3115  1.5227
 2553TIP3    H229075   1.057   5.998   0.737 -0.2360 -0.5716  0.4488
 2554TIP3   OH229076   0.047   6.236   1.214  0.6194 -0.7244 -0.1143
 2554TIP3    H129077   0.135   6.204   1.235  0.6802  0.0911  0.9498
 2554TIP3    H229078  -0.011   6.162   1.235  0.7936 -0.3255  1.9803
 2555TIP3   OH229079   4.106   5.438  15.720 -0.0946 -0.5891  0.2463
 2555TIP3    H129080   4.058   5.410  15.798 -0.9586 -0.5176 -0.2513
 2555TIP3    H229081   4.049   5.501  15.677  0.7794  0.0865  0.0413
 2556TIP3   OH229082   4.403   5.407   5.460  0.8798  0.0919  0.1913
 2556TIP3    H129083   4.348   5.331   5.442  0.8924  0.0263  0.4234
 2556TIP3    H229084   4.450   5.384   5.541  0.6883  0.4561  0.4064
 2557TIP3   OH229085   6.533   1.761  15.072  0.3232 -0.0325  0.1202
 2557TIP3    H129086   6.560   1.803  14.991 -0.3140 -2.5657 -1.5465
 2557TIP3    H229087   6.587   1.682  15.077 -0.3253 -0.4182  1.6708
 2558TIP3   OH229088   1.162   5.957   3.677  0.1356 -0.8383 -0.3935
 2558TIP3    H129089   1.092   6.014   3.708  0.1380  0.1551 -2.1024
 2558TIP3    H229090   1.163   5.884   3.738  0.0300  0.8898  1.7855
 2559TIP3   OH229091   5.771   3.140   4.040  0.3215  0.1310 -0.0027
 2559TIP3    H129092   5.790   3.225   4.000 -1.4042 -0.1758 -1.5915
 2559TIP3    H229093   5.798   3.150   4.131  0.2403  2.3645 -0.1733
 2560TIP3   OH229094   2.362   2.820   4.553 -0.5513 -0.7823  0.1657
 2560TIP3    H129095   2.286   2.837   4.498 -1.2849 -0.8945  1.1155
 2560TIP3    H229096   2.350   2.877   4.629  0.7032 -0.2568 -0.0039
 2561TIP3   OH229097   5.987   1.610   3.167  0.1182 -0.1024  0.2315
 2561TIP3    H129098   5.954   1.682   3.113 -1.6094  0.2723  1.7175
 2561TIP3    H229099   6.079   1.603   3.142 -0.4330  0.4982 -2.2360
 2562TIP3   OH229100   0.940   3.522   0.764  0.5382  0.2969 -0.1557
 2562TIP3    H129101   1.019   3.477   0.734  0.8149  0.9003 -0.3525
 2562TIP3    H229102   0.870   3.487   0.710  0.8920  0.7310 -0.9106
 2563TIP3   OH229103   0.954   2.199  12.311 -0.6040  0.1350  0.3966
 2563TIP3    H129104   0.881   2.148  12.275 -0.3281 -1.1711  1.5737
 2563TIP3    H229105   1.030   2.143  12.297 -0.3065  0.1549  1.8188
 2564TIP3   OH229106   5.178   3.605  11.828 -0.5721 -0.2115 -0.4827
 2564TIP3    H129107   5.256   3.579  11.779 -0.2347 -0.1973  0.0386
 2564TIP3    H229108   5.160   3.695  11.800  0.8525  0.5570  0.9366
 2565TIP3   OH229109   2.440   0.101   1.746  0.5165 -0.0991 -0.1239
 2565TIP3    H129110   2.501   0.028   1.754 -0.6848 -0.9161  2.9383
 2565TIP3    H229111   2.372   0.070   1.686  0.1580 -1.4578  0.9335
 2566TIP3   OH229112   1.735   3.614  13.970  0.2092 -0.1792 -0.3288
 2566TIP3    H129113   1.753   3.522  13.949  1.1166 -0.3715  1.1503
 2566TIP3    H229114   1.812   3.644  14.018  1.0472  2.1247 -2.8778
 2567TIP3   OH229115   1.192   1.705  14.603  0.3716 -0.4446  0.1483
 2567TIP3    H129116   1.255   1.651  14.651 -0.7093 -2.1704 -0.2918
 2567TIP3    H229117   1.191   1.669  14.515  0.1563  0.8082 -0.3935
 2568TIP3   OH229118   0.005   3.802   4.116 -0.5802 -0.3840  0.6403
 2568TIP3    H129119   0.062   3.781   4.190  0.3577 -0.9852 -0.2278
 2568TIP3    H229120   0.054   3.869   4.067 -0.9197 -0.4307  0.2340
 2569TIP3   OH229121   6.516   5.287   5.789 -0.4305 -0.6159 -0.9220
 2569TIP3    H129122   6.513   5.254   5.699 -1.5044 -0.3562 -1.0000
 2569TIP3    H229123   6.444   5.350   5.793 -0.6112 -0.8794  0.2148
 2570TIP3   OH229124   1.515   6.765  16.966 -0.2067  0.3592  0.3593
 2570TIP3    H129125   1.594   6.727  16.928 -0.4796  1.8441 -1.9002
 2570TIP3    H229126   1.493   6.707  17.039  2.9043 -0.1307  1.0627
 2571TIP3   OH229127   5.081   0.168  15.272 -0.4136 -0.3222  0.0221
 2571TIP3    H129128   5.087   0.198  15.181  0.0264 -1.8207 -0.4706
 2571TIP3    H229129   5.011   0.221  15.310 -0.6447  0.2951 -1.2054
 2572TIP3   OH229130   5.633   0.616  11.570 -0.4132  0.0340  0.0990
 2572TIP3    H129131   5.715   0.599  11.523  0.5621  2.7504  0.6093
 2572TIP3    H229132   5.654   0.596  11.661  0.5255  2.8133  0.5944
 2573TIP3   OH229133   0.928   6.632  10.947 -0.5072 -0.0479 -0.5092
 2573TIP3    H129134   0.848   6.602  10.904  0.5571 -0.5046 -2.2690
 2573TIP3    H229135   0.987   6.653  10.875  1.4429 -1.0372  0.7319
 2574TIP3   OH229136   6.428   4.156   3.168  0.4093 -0.3288 -0.2003
 2574TIP3    H129137   6.336   4.177   3.184  0.1215 -0.2789 -1.7197
 2574TIP3    H229138   6.474   4.189   3.245 -0.6668  1.0621 -0.1158
 2575TIP3   OH229139   4.789   5.133   0.793 -0.7035 -0.0273  0.1841
 2575TIP3    H129140   4.870   5.163   0.834 -0.5903  0.2437 -0.2403
 2575TIP3    H229141   4.811   5.124   0.700 -0.7621 -1.3014  0.2738
 2576TIP3   OH229142   2.282   4.268  16.435  0.1257 -0.4381 -0.3141
 2576TIP3    H129143   2.305   4.339  16.376  0.0678 -0.7298 -0.6884
 2576TIP3    H229144   2.352   4.205  16.426 -0.3542 -0.9161 -0.7892
 2577TIP3   OH229145   6.573   6.245   0.281  0.2563  0.1154  0.6264
 2577TIP3    H129146   6.512   6.212   0.347  0.7767 -0.2572  0.9356
 2577TIP3    H229147   6.569   6.180   0.211 -1.9341  1.6045 -0.7530
 2578TIP3   OH229148   5.674   6.447   0.090  0.0520  0.6233 -0.0291
 2578TIP3    H129149   5.632   6.398   0.019  0.8460 -2.9354  1.7482
 2578TIP3    H229150   5.623   6.528   0.097 -0.7909  0.5907 -3.7782
 2579TIP3   OH229151   4.490   4.283   2.475  0.2237 -0.3412 -0.2044
 2579TIP3    H129152   4.483   4.319   2.386  0.1119  0.1700  0.0083
 2579TIP3    H229153   4.441   4.200   2.470 -0.5657  0.1204 -0.3900
 2580TIP3   OH229154   3.988   6.311   2.322 -0.8028  0.8113  0.0459
 2580TIP3    H129155   4.076   6.309   2.285 -0.8903 -1.0531 -0.1556
 2580TIP3    H229156   3.942   6.380   2.273 -0.3557 -0.2769 -2.0106
 2581TIP3   OH229157   4.006   5.038   2.054 -0.5579  0.2559 -0.3990
 2581TIP3    H129158   4.005   4.966   1.991 -1.4224  0.1926 -0.3301
 2581TIP3    H229159   4.022   4.996   2.138 -1.9025  0.0106 -0.2349
 2582TIP3   OH229160   1.608   5.046  12.223 -0.0602  0.0481  0.4132
 2582TIP3    H129161   1.598   5.025  12.316  0.5944  1.8040  0.9400
 2582TIP3    H229162   1.534   5.104  12.203  0.3259  0.4515  0.1147
 2583TIP3   OH229163   4.896   3.294   0.769  0.1141  0.3690 -0.2556
 2583TIP3    H129164   4.804   3.307   0.790  0.0380 -0.1894 -0.2233
 2583TIP3    H229165   4.901   3.310   0.674 -0.1467 -0.2359 -0.3805
 2584TIP3   OH229166   5.931   1.586   5.564  0.3170  0.1073  0.7188
 2584TIP3    H129167   5.944   1.559   5.655 -2.5126  0.1349  1.1978
 2584TIP3    H229168   5.908   1.505   5.518 -1.2573  0.5313  0.7018
 2585TIP3   OH229169   3.131   0.109   2.477 -0.3841 -0.1320 -0.4102
 2585TIP3    H129170   3.106   0.019   2.455  1.1859 -0.4868 -0.8091
 2585TIP3    H229171   3.151   0.150   2.392  0.0916  0.2254 -0.1277
 2586TIP3   OH229172   3.990   4.390  16.068  0.1652 -0.2407  0.0299
 2586TIP3    H129173   3.970   4.354  16.155 -0.7980 -0.1768 -0.1547
 2586TIP3    H229174   4.064   4.449  16.083 -0.1232 -0.0726  0.8504
 2587TIP3   OH229175   1.298   5.909  14.562  0.1699  0.5823  0.2209
 2587TIP3    H129176   1.213   5.948  14.581 -1.2697 -1.5332 -1.3832
 2587TIP3    H229177   1.325   5.867  14.643 -0.9746  0.1249  0.3685
 2588TIP3   OH229178   1.827   6.653  12.464 -0.2025 -0.3009  0.4892
 2588TIP3    H129179   1.870   6.584  12.514 -1.3880 -0.6862  1.0095
 2588TIP3    H229180   1.833   6.730  12.520 -0.7398 -0.5109  0.8409
 2589TIP3   OH229181   2.330   2.634  16.580 -0.0001  0.0094  0.0361
 2589TIP3    H129182   2.269   2.644  16.506  2.3152 -0.1089 -2.0350
 2589TIP3    H229183   2.417   2.639  16.539  1.3990  0.1741  2.8390
 2590TIP3   OH229184   3.687   5.631  17.377  0.4352 -0.3965  0.0888
 2590TIP3    H129185   3.653   5.663  17.461  1.5343 -2.6871  1.5039
 2590TIP3    H229186   3.612   5.635  17.318 -1.2622 -1.6072  2.0353
 2591TIP3   OH229187   3.964   6.203   1.622  0.2821 -0.5315 -0.6571
 2591TIP3    H129188   3.893   6.180   1.561 -0.9617  0.1291  0.5036
 2591TIP3    H229189   3.965   6.298   1.622 -0.2186 -0.5124  0.8972
 2592TIP3   OH229190   0.975   6.576  13.390  0.2235  0.0171 -0.3981
 2592TIP3    H129191   1.012   6.501  13.436 -3.8843 -3.3325 -1.8363
 2592TIP3    H229192   0.943   6.633  13.460  1.5665 -0.5881  0.7601
 2593TIP3   OH229193   4.928   4.328   3.594  0.6186 -0.3091  1.0050
 2593TIP3    H129194   4.940   4.410   3.642  1.1993  0.0154  0.3304
 2593TIP3    H229195   5.002   4.325   3.532 -0.7621 -0.1026 -0.7298
 2594TIP3   OH229196   3.407   1.540   0.922 -0.7249  0.1572  0.2705
 2594TIP3    H129197   3.355   1.604   0.873  0.0293  1.4644  1.1567
 2594TIP3    H229198   3.341   1.482   0.961 -1.6860  2.6598  2.6089
 2595TIP3   OH229199   4.206   0.740   2.574 -0.3420  0.8860  0.1577
 2595TIP3    H129200   4.201   0.723   2.480  1.1252  1.2265  0.0063
 2595TIP3    H229201   4.239   0.659   2.612  0.5225  1.2528  0.1941
 2596TIP3   OH229202   6.666   5.467   6.427  0.0397 -0.0837  0.2691
 2596TIP3    H129203   6.644   5.543   6.481  0.6291  0.4492 -0.2192
 2596TIP3    H229204   6.587   5.450   6.376 -0.2620 -0.1126  0.7401
 2597TIP3   OH229205   4.076   4.850   4.145  0.3633  0.0044 -0.2468
 2597TIP3    H129206   4.050   4.788   4.077  0.6368 -0.2839 -0.0875
 2597TIP3    H229207   4.050   4.936   4.110 -0.5325 -0.2486 -0.2208
 2598TIP3   OH229208   4.793   6.462   3.105 -0.3665 -0.4443 -0.3268
 2598TIP3    H129209   4.751   6.434   3.186 -0.6963  2.5427  0.6305
 2598TIP3    H229210   4.873   6.507   3.134 -1.0191  1.6035 -1.5202
 2599TIP3   OH229211   0.402   3.040  15.168  0.2002  0.7044  0.3385
 2599TIP3    H129212   0.466   3.046  15.239  0.9886  0.0165 -0.3068
 2599TIP3    H229213   0.421   2.957  15.125 -0.6506  0.8453 -0.3261
 2600TIP3   OH229214   2.462   0.584   1.030 -0.5589  0.2648 -0.7215
 2600TIP3    H129215   2.408   0.530   0.973 -0.1647 -0.6861 -0.2242
 2600TIP3    H229216   2.421   0.579   1.116  1.9869 -3.2451  0.5263
 2601TIP3   OH229217   0.229   2.253   0.954 -0.3841 -0.3403 -0.1600
 2601TIP3    H129218   0.247   2.177   0.899 -1.5791  0.1425 -1.2597
 2601TIP3    H229219   0.292   2.319   0.924 -0.8545 -0.1663 -0.7756
 2602TIP3   OH229220   4.509   3.464   1.198 -0.1335 -1.1248 -0.8360
 2602TIP3    H129221   4.539   3.374   1.214 -0.2306 -0.8255  1.2737
 2602TIP3    H229222   4.551   3.516   1.266 -2.6492 -0.1358  0.0948
 2603TIP3   OH229223   5.932   0.988  15.295  0.2790 -0.1818 -0.0715
 2603TIP3    H129224   5.907   0.976  15.387  0.8302 -1.1401 -0.0347
 2603TIP3    H229225   5.945   0.900  15.262 -2.5371 -0.0359 -1.8475
 2604TIP3   OH229226   6.002   2.870   3.438  0.3323 -0.0188  0.0896
 2604TIP3    H129227   5.966   2.930   3.373  1.2187  0.6578  0.2003
 2604TIP3    H229228   6.077   2.830   3.395  0.3767 -0.2610  0.3868
 2605TIP3   OH229229   1.520   3.309   2.256 -0.0851 -0.2429  0.1920
 2605TIP3    H129230   1.428   3.291   2.237 -0.4291  0.5398  1.0251
 2605TIP3    H229231   1.562   3.310   2.170 -0.8566 -0.5819 -0.2062
 2606TIP3   OH229232   1.465   6.132  14.356 -0.4149  0.3186  0.1316
 2606TIP3    H129233   1.482   6.104  14.267  0.8514 -0.2398  0.5260
 2606TIP3    H229234   1.447   6.226  14.349 -0.2464  0.2917 -0.6945
 2607TIP3   OH229235   0.695   4.061   4.028 -0.6274 -0.1137 -0.5965
 2607TIP3    H129236   0.698   4.145   3.981 -0.0738  0.8835  1.1146
 2607TIP3    H229237   0.748   4.002   3.975 -0.8787  0.6590 -1.7559
 2608TIP3   OH229238   4.889   2.302   1.707  0.0305  0.0739  0.9171
 2608TIP3    H129239   4.844   2.300   1.622  0.4988 -1.8858  0.6682
 2608TIP3    H229240   4.926   2.390   1.712 -1.8456  0.9765  0.0998
 2609TIP3   OH229241   0.270   2.577   0.140  0.2247  0.1577 -0.1830
 2609TIP3    H129242   0.297   2.522   0.213 -1.6696 -1.9703 -0.9604
 2609TIP3    H229243   0.269   2.519   0.064 -0.4291  1.6237 -1.3701
 2610TIP3   OH229244   1.248   1.200   6.603  0.3712 -0.2620 -0.3484
 2610TIP3    H129245   1.268   1.256   6.529 -0.0359  0.1565 -0.1463
 2610TIP3    H229246   1.199   1.256   6.663  1.1995 -0.4232  0.5021
 2611TIP3   OH229247   4.268   2.739   5.882  0.3400  0.0379 -0.3297
 2611TIP3    H129248   4.208   2.813   5.891  1.0078  0.5492 -0.0128
 2611TIP3    H229249   4.210   2.663   5.877 -0.3310  0.4725  0.4424
 2612TIP3   OH229250   5.994   1.754  16.992 -0.0926 -0.3795  0.2113
 2612TIP3    H129251   5.916   1.791  17.034 -1.2558 -2.0870 -0.3415
 2612TIP3    H229252   6.050   1.728  17.065 -0.8317 -0.7479  0.6576
 2613TIP3   OH229253   1.564   5.501   0.239 -0.4007  0.1557 -0.1305
 2613TIP3    H129254   1.595   5.580   0.195 -2.1104  1.2585  0.5352
 2613TIP3    H229255   1.626   5.486   0.310 -0.1000  0.9712 -0.2139
 2614TIP3   OH229256   4.615   4.336   5.684  0.2979  0.1941  0.7697
 2614TIP3    H129257   4.594   4.318   5.592 -0.3288  0.9658  0.7421
 2614TIP3    H229258   4.617   4.250   5.726  2.6175 -0.3864 -0.3387
 2615TIP3   OH229259   1.707   1.584   0.142 -0.1049  0.5215 -0.4915
 2615TIP3    H129260   1.618   1.550   0.150 -0.7108  2.0042 -0.5941
 2615TIP3    H229261   1.740   1.546   0.061 -0.3187 -0.7275 -0.0084
 2616TIP3   OH229262   4.397   3.674   4.669 -0.6712  0.3728  0.1639
 2616TIP3    H129263   4.359   3.706   4.751 -0.4206 -1.6273  1.1026
 2616TIP3    H229264   4.402   3.579   4.680  1.0723  0.2275 -1.4404
 2617TIP3   OH229265   2.035   1.617  14.384  0.3034  0.4060  0.1806
 2617TIP3    H129266   2.118   1.574  14.363  1.3413  2.2877  0.1628
 2617TIP3    H229267   1.971   1.546  14.385  1.7049 -0.9629 -0.9049
 2618TIP3   OH229268   1.531   1.726  16.516  0.0636 -0.3316 -0.2582
 2618TIP3    H129269   1.588   1.650  16.524 -1.3221 -1.3478  0.1835
 2618TIP3    H229270   1.460   1.698  16.460 -0.1290  0.8608 -0.6479
 2619TIP3   OH229271   3.559   1.027  11.853 -0.6436 -0.0609 -0.2749
 2619TIP3    H129272   3.617   1.059  11.784  0.5298 -0.5056  0.4672
 2619TIP3    H229273   3.617   0.978  11.911 -1.1181  2.1996  2.2962
 2620TIP3   OH229274   1.281   0.852  14.963  0.2245  0.2413  1.2050
 2620TIP3    H129275   1.284   0.775  15.020 -0.0346  0.0802  1.0068
 2620TIP3    H229276   1.193   0.849  14.924 -0.3287  1.4444  2.3097
 2621TIP3   OH229277   2.218   3.325  12.958  0.0005  0.4360  0.2832
 2621TIP3    H129278   2.313   3.327  12.964  0.1112 -1.9647  0.1753
 2621TIP3    H229279   2.199   3.370  12.875  1.3521 -1.9594 -1.4631
 2622TIP3   OH229280   4.797   3.044   6.058  1.0076 -0.0246 -0.1548
 2622TIP3    H129281   4.783   2.984   6.131 -0.7457  2.0178  1.3187
 2622TIP3    H229282   4.816   3.128   6.099 -2.2715  1.7634 -1.8856
 2623TIP3   OH229283   3.773   6.025  13.348  0.5169 -0.2369  0.2533
 2623TIP3    H129284   3.680   6.048  13.349  0.6321  0.3526  2.5125
 2623TIP3    H229285   3.788   5.978  13.430  1.6776 -2.8648 -1.3316
 2624TIP3   OH229286   2.915   0.131   6.727  0.9281  0.7155  0.3563
 2624TIP3    H129287   2.830   0.155   6.691 -0.4788 -2.5713  1.0618
 2624TIP3    H229288   2.946   0.211   6.770 -1.3670  2.2810 -0.6728
 2625TIP3   OH229289   6.657   3.448   6.231  0.2940  0.3758 -0.1594
 2625TIP3    H129290   6.574   3.463   6.276 -0.0262  2.1904 -1.2513
 2625TIP3    H229291   6.706   3.530   6.241  0.8810  0.2508 -1.6712
 2626TIP3   OH229292   1.777   3.121   5.887  0.0623 -0.1353  0.5338
 2626TIP3    H129293   1.802   3.206   5.852  1.6096 -0.4535  0.7693
 2626TIP3    H229294   1.749   3.139   5.977 -3.3381  0.5986 -0.5119
 2627TIP3   OH229295   1.320   2.417   0.764 -0.1738 -0.1907  0.0229
 2627TIP3    H129296   1.264   2.419   0.687  0.3055  0.4828 -0.3145
 2627TIP3    H229297   1.355   2.506   0.771  0.6899 -0.5443  0.3436
 2628TIP3   OH229298   1.808   1.822  11.573 -0.4468  0.4037  0.1774
 2628TIP3    H129299   1.790   1.795  11.663 -2.6661 -2.8592 -1.0612
 2628TIP3    H229300   1.736   1.881  11.550  0.1851  1.3335  0.5195
 2629TIP3   OH229301   5.299   2.319  11.228  0.8083 -0.1162  0.2112
 2629TIP3    H129302   5.218   2.364  11.254  0.0086 -0.8866 -0.8223
 2629TIP3    H229303   5.296   2.318  11.132  2.3983  0.4257  0.1267
 2630TIP3   OH229304   6.355   5.172  15.550 -0.1297 -0.0064  0.4487
 2630TIP3    H129305   6.262   5.166  15.526  0.0617 -1.9554  0.0230
 2630TIP3    H229306   6.374   5.266  15.547 -1.9817  0.4119  0.1814
 2631TIP3   OH229307   4.815   6.161   3.581  0.1124  0.1029 -0.0025
 2631TIP3    H129308   4.780   6.189   3.665 -2.2851 -1.2114 -0.4889
 2631TIP3    H229309   4.763   6.208   3.516  2.0934  1.2910 -0.8125
 2632TIP3   OH229310   5.600   3.665   0.273 -0.0780 -0.1347  0.1147
 2632TIP3    H129311   5.694   3.657   0.258  0.1755  0.8846  1.0235
 2632TIP3    H229312   5.574   3.743   0.223 -0.5845 -0.7786 -0.6615
 2633TIP3   OH229313   5.455   4.479   4.364  0.5408 -0.4151  0.2344
 2633TIP3    H129314   5.476   4.572   4.353  0.5482 -0.3084  1.0656
 2633TIP3    H229315   5.513   4.434   4.303  0.9908  0.0874  0.2812
 2634TIP3   OH229316   4.048   1.167   2.116 -0.2393  0.3750  0.0105
 2634TIP3    H129317   3.988   1.148   2.044  0.7045  2.1699 -1.3094
 2634TIP3    H229318   4.109   1.093   2.116 -1.1871 -0.4357  0.0392
 2635TIP3   OH229319   2.705   2.605   5.780 -0.0563  0.3056 -0.2088
 2635TIP3    H129320   2.663   2.581   5.697 -0.4144  2.3886 -0.6744
 2635TIP3    H229321   2.672   2.540   5.843 -2.3702  0.5876 -1.0204
 2636TIP3   OH229322   5.639   3.123   5.255 -0.7487 -0.0604 -0.5932
 2636TIP3    H129323   5.579   3.075   5.312 -1.0113  0.6654 -0.2496
 2636TIP3    H229324   5.643   3.211   5.292  1.5327 -0.4153  0.1649
 2637TIP3   OH229325   3.775   5.227   2.258 -0.5762 -0.3555  0.2449
 2637TIP3    H129326   3.821   5.183   2.330 -2.1286 -1.7749  0.4185
 2637TIP3    H229327   3.685   5.234   2.288 -0.9450  0.4001 -0.9711
 2638TIP3   OH229328   3.754   0.523   5.809  0.3985  0.5157  0.4337
 2638TIP3    H129329   3.767   0.445   5.754  0.3151  0.8010  0.0005
 2638TIP3    H229330   3.659   0.530   5.818  0.3753 -1.6494  3.7136
 2639TIP3   OH229331   2.457   1.611   2.591  0.2473 -0.2822 -0.2401
 2639TIP3    H129332   2.407   1.663   2.529  1.2667  0.3403 -0.5577
 2639TIP3    H229333   2.393   1.584   2.657 -0.1740  1.9798  0.3438
 2640TIP3   OH229334   0.845   3.268  14.148  0.7877  0.2854  0.7790
 2640TIP3    H129335   0.896   3.237  14.073 -1.1777  1.6730 -1.2576
 2640TIP3    H229336   0.801   3.189  14.181  0.4218 -0.0856 -0.5596
 2641TIP3   OH229337   5.047   2.321  16.979  0.4515  0.9035 -0.0691
 2641TIP3    H129338   5.086   2.256  17.038 -0.0231  2.5078  2.1320
 2641TIP3    H229339   5.018   2.392  17.036 -0.6820  2.2781 -2.1917
 2642TIP3   OH229340   2.382   1.398   1.414  0.4196 -0.3886 -0.7466
 2642TIP3    H129341   2.339   1.460   1.355  0.9116  1.3851  0.6502
 2642TIP3    H229342   2.466   1.380   1.373 -0.0184 -0.7117 -1.5227
 2643TIP3   OH229343   1.592   2.489   1.151  0.0994 -0.1688 -0.0890
 2643TIP3    H129344   1.553   2.563   1.104 -0.5626  1.0236  2.1761
 2643TIP3    H229345   1.683   2.487   1.122 -0.0670  1.0421 -0.7673
 2644TIP3   OH229346   1.832   6.636   4.680 -0.0181 -0.0045 -0.7352
 2644TIP3    H129347   1.745   6.618   4.715  0.3617 -1.8700 -0.6501
 2644TIP3    H229348   1.826   6.725   4.645 -1.1938  0.9323  1.6041
 2645TIP3   OH229349   2.973   5.343   1.293 -0.4842  0.5503 -0.4482
 2645TIP3    H129350   3.020   5.260   1.281  0.7546  1.0669  0.5638
 2645TIP3    H229351   2.955   5.346   1.387 -0.5975  1.3995 -0.4944
 2646TIP3   OH229352   2.519   2.865  11.504  0.4160 -0.2197  0.0190
 2646TIP3    H129353   2.567   2.808  11.564  0.4698 -1.6115 -1.2940
 2646TIP3    H229354   2.581   2.935  11.482  0.9566 -0.6054  0.2943
 2647TIP3   OH229355   5.949   0.464   3.535 -0.2579  0.0088 -0.2936
 2647TIP3    H129356   6.003   0.465   3.614  1.4543  1.4626 -1.3878
 2647TIP3    H229357   5.895   0.543   3.542 -1.7548 -1.0359  0.4284
 2648TIP3   OH229358   0.518   1.288  15.358  0.1801  0.1255 -0.1912
 2648TIP3    H129359   0.500   1.377  15.388  0.4428 -0.1053  0.6960
 2648TIP3    H229360   0.598   1.263  15.405  0.0531 -0.6099 -0.3574
 2649TIP3   OH229361   4.229   4.445  12.194  0.2290  0.8086 -0.5694
 2649TIP3    H129362   4.248   4.495  12.115 -0.5756 -0.2366 -1.4664
 2649TIP3    H229363   4.153   4.489  12.233 -0.0480  0.7015 -0.9798
 2650TIP3   OH229364   0.631   4.704   1.704 -0.1858  0.2048  0.9267
 2650TIP3    H129365   0.679   4.759   1.766 -0.1877  0.6573  0.5354
 2650TIP3    H229366   0.678   4.716   1.621 -1.5837  1.5283  0.2608
 2651TIP3   OH229367   2.033   4.834   5.911  0.4719 -0.0980  0.0675
 2651TIP3    H129368   2.086   4.830   5.991 -1.1843  1.5030  1.3427
 2651TIP3    H229369   2.003   4.924   5.907 -4.3305 -1.3627  1.0272
 2652TIP3   OH229370   3.463   2.051   1.421 -0.1046 -0.0521  0.1586
 2652TIP3    H129371   3.555   2.027   1.417 -0.2050 -0.3878 -0.2583
 2652TIP3    H229372   3.416   1.968   1.408 -0.4587  0.3637 -1.5165
 2653TIP3   OH229373   0.151   5.755  13.035 -0.1407 -0.2624 -1.0060
 2653TIP3    H129374   0.148   5.741  13.130 -1.0741  0.5449 -0.9012
 2653TIP3    H229375   0.159   5.667  12.998  0.0429 -0.5994 -0.1914
 2654TIP3   OH229376   6.563   2.371  13.694  0.2892  0.4275 -0.1212
 2654TIP3    H129377   6.649   2.361  13.736  0.6388 -1.0176 -1.1049
 2654TIP3    H229378   6.574   2.441  13.630  0.5998  0.5693  0.0890
 2655TIP3   OH229379   5.355   3.488   5.388 -0.2280  0.6038 -0.0278
 2655TIP3    H129380   5.368   3.430   5.313 -1.4180  0.2861 -0.0045
 2655TIP3    H229381   5.341   3.575   5.349 -1.4657  0.3355 -0.2370
 2656TIP3   OH229382   6.598   0.991  16.679  0.7217  0.5314 -0.4094
 2656TIP3    H129383   6.605   1.082  16.652 -0.2765  0.8505  0.3524
 2656TIP3    H229384   6.683   0.952  16.657  0.2702  0.9328 -3.3214
 2657TIP3   OH229385   6.674   3.399  14.211  0.0874  0.0374  0.2298
 2657TIP3    H129386   6.732   3.388  14.136  1.2088  1.0316  0.9039
 2657TIP3    H229387   6.600   3.450  14.177  0.5557  0.4328 -0.2239
 2658TIP3   OH229388   1.286   2.968  12.756  0.1607 -0.5397 -0.1395
 2658TIP3    H129389   1.293   3.060  12.731 -1.8871  0.3012  2.0211
 2658TIP3    H229390   1.230   2.929  12.688 -0.1131  0.1651 -0.3261
 2659TIP3   OH229391   6.451   4.105   1.334 -0.5272  0.0070 -1.3547
 2659TIP3    H129392   6.407   4.056   1.264 -0.5681 -1.1747 -0.5366
 2659TIP3    H229393   6.464   4.193   1.298 -1.8111 -0.1736 -2.3257
 2660TIP3   OH229394   2.727   6.139  16.903 -0.2432  0.0359  0.2957
 2660TIP3    H129395   2.754   6.053  16.936 -1.6307 -1.4419 -2.1145
 2660TIP3    H229396   2.790   6.160  16.835  0.4987  1.3096  1.3431
 2661TIP3   OH229397   3.666   2.964   4.310 -0.2815 -0.2143  0.7112
 2661TIP3    H129398   3.756   2.940   4.290 -0.2593  1.0715 -0.9285
 2661TIP3    H229399   3.629   2.989   4.226 -1.5876  1.1534  1.6569
 2662TIP3   OH229400   5.512   4.981  15.925 -0.1085  0.3119  0.2654
 2662TIP3    H129401   5.439   4.970  15.863 -0.6395 -0.0692  0.9519
 2662TIP3    H229402   5.535   5.074  15.917  0.3070  0.1279 -1.0231
 2663TIP3   OH229403   2.781   0.583   3.490 -0.2503 -0.2451 -0.5900
 2663TIP3    H129404   2.808   0.570   3.399  0.9657  1.0350 -0.4461
 2663TIP3    H229405   2.790   0.497   3.531  1.5741 -0.3166 -1.0898
 2664TIP3   OH229406   1.751   1.078   2.052 -0.1407  0.1949 -0.3120
 2664TIP3    H129407   1.728   1.068   1.959 -2.8289  0.2138  0.2851
 2664TIP3    H229408   1.770   1.171   2.062  1.0461  0.0453 -0.9893
 2665TIP3   OH229409   3.508   2.420   4.429  0.7516 -0.0055 -0.6307
 2665TIP3    H129410   3.594   2.410   4.469 -0.1421 -0.6219  1.2318
 2665TIP3    H229411   3.527   2.428   4.335  2.7240 -2.1524 -0.5149
 2666TIP3   OH229412   6.586   1.430   2.873  0.0763 -0.5790  0.4407
 2666TIP3    H129413   6.563   1.421   2.780  2.7182  2.4253 -0.7013
 2666TIP3    H229414   6.600   1.524   2.885  4.7508 -1.2700  2.4911
 2667TIP3   OH229415   2.744   5.750  16.277  0.0430 -0.4184 -0.0440
 2667TIP3    H129416   2.782   5.712  16.198  0.7083 -1.2685  0.6691
 2667TIP3    H229417   2.805   5.819  16.303 -1.6877  2.0262 -1.9392
 2668TIP3   OH229418   4.168   1.490  14.224 -0.0515  0.1035  0.4121
 2668TIP3    H129419   4.262   1.480  14.240  0.1072  0.0263 -0.4995
 2668TIP3    H229420   4.163   1.540  14.142 -0.8235  1.8438  1.4654
 2669TIP3   OH229421   4.632   1.649   3.681 -0.1083  0.4554  0.0305
 2669TIP3    H129422   4.557   1.605   3.641  0.8193 -1.7951  0.5645
 2669TIP3    H229423   4.659   1.715   3.618 -1.2168 -0.1767 -1.1414
 2670TIP3   OH229424   0.744   2.016  11.352  0.0891  0.4060 -0.6647
 2670TIP3    H129425   0.826   2.017  11.301 -0.0747 -0.8355 -0.9764
 2670TIP3    H229426   0.725   1.923  11.365 -1.0205  0.6921 -0.1672
 2671TIP3   OH229427   0.726   0.941  13.410  0.3269 -0.3225 -0.3643
 2671TIP3    H129428   0.678   1.012  13.453  0.1157 -0.6222 -0.0991
 2671TIP3    H229429   0.762   0.890  13.482  1.3875  0.1291 -0.5670
 2672TIP3   OH229430   0.579   4.450  14.071  0.2430 -0.1114 -0.6028
 2672TIP3    H129431   0.488   4.444  14.043  0.1029 -0.4001 -0.1041
 2672TIP3    H229432   0.624   4.379  14.025 -0.1125 -0.9895  0.3560
 2673TIP3   OH229433   2.315   3.447   4.722  1.0144 -0.0665 -0.2297
 2673TIP3    H129434   2.291   3.357   4.742  1.4732 -0.4116 -1.1558
 2673TIP3    H229435   2.286   3.497   4.797  0.5627 -0.9610  0.2049
 2674TIP3   OH229436   3.694   5.391   1.637 -0.4608 -0.1582 -0.4018
 2674TIP3    H129437   3.641   5.311   1.641  2.3193 -2.1926 -1.1265
 2674TIP3    H229438   3.735   5.397   1.723  2.4196 -1.9294 -1.5123
 2675TIP3   OH229439   2.386   0.770   2.691  0.0390  0.4234 -0.3611
 2675TIP3    H129440   2.469   0.733   2.721 -1.2182 -0.6538  2.0871
 2675TIP3    H229441   2.344   0.698   2.645 -0.0916  0.5473 -0.4331
 2676TIP3   OH229442   5.876   0.192   2.823 -0.1732  0.2457  0.3572
 2676TIP3    H129443   5.801   0.245   2.795 -0.5203 -0.1965  0.4338
 2676TIP3    H229444   5.918   0.244   2.892  1.1068  1.6831 -1.3986
 2677TIP3   OH229445   1.042   6.372  17.355  0.0560 -0.1018 -0.3343
 2677TIP3    H129446   0.999   6.287  17.368 -2.6055  1.2075 -0.0168
 2677TIP3    H229447   0.987   6.417  17.291  1.4717  1.3891 -0.5703
 2678TIP3   OH229448   4.467   0.213   1.160 -0.1563 -0.2815 -0.2596
 2678TIP3    H129449   4.552   0.171   1.145 -0.0631  0.3649 -1.7104
 2678TIP3    H229450   4.409   0.142   1.186  0.7129 -0.8065  0.2775
 2679TIP3   OH229451   0.136   1.210  14.004  0.5209  0.2861 -0.1798
 2679TIP3    H129452   0.155   1.302  14.024 -0.8111  0.3443  0.9897
 2679TIP3    H229453   0.057   1.213  13.951  1.1485 -0.1472 -1.1579
 2680TIP3   OH229454   3.827   1.330  14.576 -0.2403  0.1277 -0.1343
 2680TIP3    H129455   3.830   1.262  14.643 -0.4020  0.0542 -0.1995
 2680TIP3    H229456   3.760   1.300  14.515 -1.0294  0.8428  0.3691
 2681TIP3   OH229457   3.931   5.618  12.837 -0.5029  0.2168 -0.8950
 2681TIP3    H129458   3.874   5.618  12.914  0.0127 -1.7911 -0.4390
 2681TIP3    H229459   3.871   5.616  12.762 -1.0100  1.0910 -0.5182
 2682TIP3   OH229460   3.536   3.296   2.977  0.0458  0.4246  0.4867
 2682TIP3    H129461   3.627   3.293   3.006  0.5799  1.2366 -1.0165
 2682TIP3    H229462   3.532   3.236   2.903 -0.9765 -0.5972  1.3329
 2683TIP3   OH229463   1.887   2.868   1.032  0.1817  0.6280 -0.4437
 2683TIP3    H129464   1.857   2.800   1.092  0.6900  1.6905  1.0643
 2683TIP3    H229465   1.975   2.890   1.063 -0.1583  2.3163 -0.6100
 2684TIP3   OH229466   2.382   2.849  13.642 -0.5834 -0.0170 -0.1738
 2684TIP3    H129467   2.297   2.888  13.661 -0.4440  0.2925 -0.1756
 2684TIP3    H229468   2.444   2.920  13.653 -0.3591 -0.1597 -0.4905
 2685TIP3   OH229469   1.006   6.166   2.644  0.0252  0.1058 -0.1063
 2685TIP3    H129470   1.022   6.075   2.670  2.7274  1.0683  2.2393
 2685TIP3    H229471   1.057   6.217   2.707 -2.0651  3.3166 -0.7961
 2686TIP3   OH229472   3.272   0.103  10.733 -1.0518  0.0296  0.5740
 2686TIP3    H129473   3.185   0.133  10.708 -1.6707 -2.2724 -0.2687
 2686TIP3    H229474   3.301   0.049  10.660  0.8064  0.1968  1.1411
 2687TIP3   OH229475   0.046   4.313  11.526 -0.0531  0.3686 -0.2545
 2687TIP3    H129476   0.042   4.263  11.608  0.8077  0.6599 -0.0191
 2687TIP3    H229477   0.131   4.357  11.529 -1.3507  3.0568  0.2498
 2688TIP3   OH229478   5.142   3.826  14.110 -0.5594  0.0057 -0.0884
 2688TIP3    H129479   5.058   3.860  14.142 -1.9359  0.0877 -3.4174
 2688TIP3    H229480   5.126   3.732  14.097 -0.7866  0.2857 -2.2688
 2689TIP3   OH229481   4.464   2.811  13.146  0.5577 -0.4620  0.1853
 2689TIP3    H129482   4.419   2.740  13.099  0.3919  0.0429 -0.4315
 2689TIP3    H229483   4.448   2.792  13.239  0.9840 -1.5403  0.0541
 2690TIP3   OH229484   3.852   1.800  13.941  0.2168 -0.1965 -0.8213
 2690TIP3    H129485   3.931   1.765  13.899 -0.3331 -1.4416 -0.8691
 2690TIP3    H229486   3.782   1.741  13.913 -0.6184  0.5029 -0.2500
 2691TIP3   OH229487   4.157   6.396   0.715 -0.2164 -0.3411 -0.4638
 2691TIP3    H129488   4.184   6.316   0.670 -2.4931 -4.1228  3.9550
 2691TIP3    H229489   4.063   6.402   0.700 -0.0197  2.0629 -1.2283
 2692TIP3   OH229490   3.158   3.648  13.702  0.3326 -0.1283 -0.0956
 2692TIP3    H129491   3.109   3.691  13.773  0.6403 -0.8153  0.5356
 2692TIP3    H229492   3.098   3.651  13.628 -0.1199  0.3060  0.2758
 2693TIP3   OH229493   2.674   5.308   0.535 -0.3444 -0.5652  0.1699
 2693TIP3    H129494   2.641   5.220   0.557 -0.1479 -0.6572  0.0939
 2693TIP3    H229495   2.722   5.296   0.453 -1.6392 -0.0941 -0.6849
 2694TIP3   OH229496   5.538   1.492  16.447 -0.2902 -0.1084 -0.2561
 2694TIP3    H129497   5.523   1.399  16.462  0.7605 -0.2509  0.0533
 2694TIP3    H229498   5.533   1.503  16.352  2.2390 -1.0366 -0.5780
 2695TIP3   OH229499   1.046   6.119   5.998 -0.1342 -0.5935  0.3357
 2695TIP3    H129500   0.955   6.112   5.969  0.5604 -0.3541 -2.0751
 2695TIP3    H229501   1.045   6.189   6.063 -1.4675  0.3855 -0.6900
 2696TIP3   OH229502   3.517   6.402   6.804 -0.2195  0.1671 -0.2606
 2696TIP3    H129503   3.530   6.488   6.843  1.3171 -0.1544  0.0239
 2696TIP3    H229504   3.533   6.416   6.710  0.2052  0.1609 -0.1902
 2697TIP3   OH229505   2.234   4.279   0.584 -0.5135  0.5347  0.3460
 2697TIP3    H129506   2.274   4.278   0.671 -0.3988  1.0517  0.3033
 2697TIP3    H229507   2.141   4.293   0.600 -0.4491  0.9485  0.3753
 2698TIP3   OH229508   2.149   4.702   3.714 -0.4097 -0.2446 -0.2058
 2698TIP3    H129509   2.103   4.720   3.632  0.9520 -0.9537 -1.1689
 2698TIP3    H229510   2.215   4.772   3.720  0.4658 -1.0294 -0.4985
 2699TIP3   OH229511   5.739   4.988  12.575 -0.6936 -0.3334 -0.6815
 2699TIP3    H129512   5.798   4.913  12.565 -1.8634 -1.3465 -0.3630
 2699TIP3    H229513   5.651   4.948  12.576 -1.3224  1.0226 -0.1491
 2700TIP3   OH229514   5.144   2.225   5.285  0.0258 -0.6558  0.1210
 2700TIP3    H129515   5.144   2.132   5.309 -2.6486 -0.6735  0.3429
 2700TIP3    H229516   5.133   2.271   5.368 -1.4544 -0.3060 -0.2547
 2701TIP3   OH229517   1.814   0.589   0.713  0.0574  0.1320 -0.7981
 2701TIP3    H129518   1.775   0.502   0.716  0.2375  0.0396 -1.1201
 2701TIP3    H229519   1.844   0.599   0.622 -0.9194  0.9415 -1.0562
 2702TIP3   OH229520   0.630   1.602   1.280  0.4030 -0.1570  0.1201
 2702TIP3    H129521   0.636   1.507   1.277 -0.8747 -0.3734  2.3015
 2702TIP3    H229522   0.654   1.625   1.370 -1.6259  1.3355  0.3552
 2703TIP3   OH229523   0.092   0.999  16.575  0.2127 -0.5962  0.3883
 2703TIP3    H129524   0.158   1.024  16.639  0.8230  2.2201 -1.1878
 2703TIP3    H229525   0.142   0.975  16.497 -0.5750 -0.0786 -0.2926
 2704TIP3   OH229526   5.792   2.989  17.334  0.5562 -0.5380 -0.0582
 2704TIP3    H129527   5.746   3.073  17.327 -0.5065 -1.1598 -0.6643
 2704TIP3    H229528   5.885   3.012  17.324  0.1809  0.3981 -1.7986
 2705TIP3   OH229529   3.612   5.131  16.123 -0.1954 -0.4813 -0.3551
 2705TIP3    H129530   3.704   5.108  16.110 -0.9227 -3.1724 -1.4013
 2705TIP3    H229531   3.591   5.099  16.211 -0.6310 -1.8360 -0.9315
 2706TIP3   OH229532   1.956   4.354   5.594 -0.5402 -1.3380 -0.3145
 2706TIP3    H129533   1.909   4.324   5.672 -0.3079 -0.7865  0.0388
 2706TIP3    H229534   2.047   4.328   5.609  0.0154  0.9820  0.7825
 2707TIP3   OH229535   6.415   3.322  12.408 -0.7991  0.2363  0.6349
 2707TIP3    H129536   6.444   3.338  12.318 -1.8316 -0.5795  0.1368
 2707TIP3    H229537   6.320   3.312  12.401 -0.7327 -1.3744  1.5698
 2708TIP3   OH229538   0.047   5.710   2.352 -0.4765 -0.8824  0.5946
 2708TIP3    H129539   0.017   5.752   2.271 -2.0483 -0.6609  1.2525
 2708TIP3    H229540   0.139   5.690   2.336 -0.6286 -0.4110 -1.0662
 2709TIP3   OH229541   0.635   2.364  15.795  0.6987 -0.2951 -0.0360
 2709TIP3    H129542   0.580   2.437  15.766  0.7856 -0.1190  0.2368
 2709TIP3    H229543   0.610   2.350  15.886  1.7646  0.4128  0.3845
 2710TIP3   OH229544   6.136   0.831  11.733 -0.1009 -0.0721 -0.1594
 2710TIP3    H129545   6.155   0.875  11.650 -0.2985  1.7579  0.7204
 2710TIP3    H229546   6.051   0.866  11.760  0.5450  0.3502  1.4354
 2711TIP3   OH229547   5.496   5.509   1.844  0.9463 -0.5825  0.5607
 2711TIP3    H129548   5.463   5.550   1.924 -1.2238 -0.3396 -0.3883
 2711TIP3    H229549   5.501   5.580   1.780  1.7264 -0.9484  0.1965
 2712TIP3   OH229550   0.853   6.271  12.797  0.2222  0.6725 -0.5336
 2712TIP3    H129551   0.813   6.358  12.793  0.6546  0.8771 -0.3730
 2712TIP3    H229552   0.938   6.285  12.839  0.3336  0.1884 -0.5950
 2713TIP3   OH229553   0.581   2.226  15.093 -0.0204  0.3291 -0.2120
 2713TIP3    H129554   0.492   2.259  15.099 -0.7436 -1.4798 -0.4289
 2713TIP3    H229555   0.629   2.273  15.162 -1.9196 -0.9680  2.1371
 2714TIP3   OH229556   6.052   6.218   0.772  0.4456 -0.2540  0.3907
 2714TIP3    H129557   6.012   6.241   0.856 -1.0419  0.3482 -0.4404
 2714TIP3    H229558   6.118   6.153   0.794  0.6157  0.4416  2.1121
 2715TIP3   OH229559   3.186   1.223   4.602  0.3363 -1.0614  0.4504
 2715TIP3    H129560   3.115   1.169   4.566  0.4497  0.5259 -2.4741
 2715TIP3    H229561   3.141   1.296   4.644  0.2089 -0.8658 -0.0197
 2716TIP3   OH229562   2.986   4.706   0.761 -0.4271 -0.5515  0.2939
 2716TIP3    H129563   3.032   4.625   0.738  0.5980  0.3076 -0.7847
 2716TIP3    H229564   3.045   4.776   0.734 -1.4523  0.5795  0.8739
 2717TIP3   OH229565   5.909   5.670   0.808  0.1920  0.4737  0.0602
 2717TIP3    H129566   5.938   5.760   0.794  1.2190  0.1635  0.1022
 2717TIP3    H229567   5.971   5.617   0.757 -0.8780 -0.1687 -0.6065
 2718TIP3   OH229568   2.580   4.690   6.718  0.4772 -0.0506 -0.1501
 2718TIP3    H129569   2.591   4.766   6.775 -2.7222 -0.0346  0.6735
 2718TIP3    H229570   2.621   4.715   6.636  1.5440  1.6096  0.8396
 2719TIP3   OH229571   5.107   6.448   2.912 -0.2849  0.0100  0.7720
 2719TIP3    H129572   5.135   6.525   2.861  2.5110 -1.0420  0.5136
 2719TIP3    H229573   5.052   6.398   2.853  0.8243  0.0830 -0.3683
 2720TIP3   OH229574   0.239   5.198  12.211 -0.0517 -0.3666 -0.3504
 2720TIP3    H129575   0.289   5.169  12.287  1.2744 -0.5032 -1.2205
 2720TIP3    H229576   0.149   5.172  12.229  0.4212 -1.3777  0.6756
 2721TIP3   OH229577   4.776   5.548   0.780 -0.1612 -0.1398  0.4882
 2721TIP3    H129578   4.844   5.536   0.846  0.0219  0.1466  0.3556
 2721TIP3    H229579   4.729   5.627   0.807  0.9328  0.9230 -0.5695
 2722TIP3   OH229580   4.833   1.647   1.441 -0.2627  0.3553 -0.5045
 2722TIP3    H129581   4.916   1.621   1.400 -1.5057 -3.2298 -1.1965
 2722TIP3    H229582   4.772   1.654   1.367 -0.6071  3.1953 -0.0336
 2723TIP3   OH229583   4.797   3.552  12.018  0.4274 -0.3454  0.1641
 2723TIP3    H129584   4.848   3.505  11.952  0.7627  0.7373 -0.3744
 2723TIP3    H229585   4.817   3.508  12.101  1.1827 -0.7753 -0.2380
 2724TIP3   OH229586   3.654   6.454   0.179 -0.2724  0.4033 -0.0722
 2724TIP3    H129587   3.647   6.395   0.254 -2.1881  1.2661  0.5137
 2724TIP3    H229588   3.633   6.540   0.215 -0.9602  0.8789 -1.5250
 2725TIP3   OH229589   1.387   0.850  16.802 -0.2955 -0.6636  0.3878
 2725TIP3    H129590   1.356   0.767  16.838 -0.5929  0.0157  1.7737
 2725TIP3    H229591   1.308   0.894  16.773 -0.0692 -1.1467 -1.0382
 2726TIP3   OH229592   6.304   6.451  15.705  0.4283 -0.3796  0.5027
 2726TIP3    H129593   6.365   6.523  15.723  1.0941 -0.0615 -2.3750
 2726TIP3    H229594   6.356   6.372  15.720  0.0231 -0.2812  2.6481
 2727TIP3   OH229595   4.793   3.214  16.781 -0.3950  0.4108 -0.0686
 2727TIP3    H129596   4.887   3.226  16.790 -0.2958  0.6379 -1.1855
 2727TIP3    H229597   4.754   3.273  16.846  0.2330 -0.7136  1.3780
 2728TIP3   OH229598   2.984   6.433  16.366  0.4444  0.8695  0.1603
 2728TIP3    H129599   2.913   6.403  16.423  1.0386  1.9639  1.5278
 2728TIP3    H229600   3.019   6.510  16.410 -0.1120  2.8059 -2.4896
 2729TIP3   OH229601   1.654   3.123   1.084 -0.0460  0.0407  0.1263
 2729TIP3    H129602   1.717   3.166   1.142 -0.5967  2.0536 -0.6641
 2729TIP3    H229603   1.702   3.106   1.004  0.0224 -0.3250  0.2430
 2730TIP3   OH229604   6.389   2.273  11.754  0.1008  0.2833  0.2346
 2730TIP3    H129605   6.481   2.248  11.745 -0.2707 -0.8047 -0.8165
 2730TIP3    H229606   6.377   2.286  11.848  1.3089  0.3827  0.3933
 2731TIP3   OH229607   2.273   0.300   6.202 -0.1807 -0.0861  0.3115
 2731TIP3    H129608   2.213   0.252   6.260  0.2319 -2.8818 -1.4018
 2731TIP3    H229609   2.356   0.253   6.209  0.4991  0.8895 -0.8390
 2732TIP3   OH229610   1.645   3.824   5.413 -0.1290  0.0657  0.2220
 2732TIP3    H129611   1.731   3.865   5.419  0.2430 -0.6703  0.0327
 2732TIP3    H229612   1.651   3.747   5.470  0.2029 -1.4477 -1.7653
 2733TIP3   OH229613   2.127   0.255  11.986 -0.1037  0.4458 -0.0025
 2733TIP3    H129614   2.167   0.268  11.900 -1.5920 -2.7910 -1.3464
 2733TIP3    H229615   2.051   0.314  11.987 -0.0558  0.5242 -0.8878
 2734TIP3   OH229616   5.215   5.455   2.491 -0.2474  0.4088  0.3734
 2734TIP3    H129617   5.299   5.497   2.473  0.8478 -1.1663  1.4981
 2734TIP3    H229618   5.228   5.364   2.466 -1.8307  0.2470  0.0463
 2735TIP3   OH229619   3.211   4.332   2.145 -0.1761  0.4118 -0.0423
 2735TIP3    H129620   3.270   4.362   2.215 -0.6328 -0.1441  0.5896
 2735TIP3    H229621   3.200   4.410   2.090  1.0663  0.5537 -0.1267
 2736TIP3   OH229622   6.734   0.883  14.283  0.2472 -0.4385  0.4947
 2736TIP3    H129623   6.782   0.949  14.233  0.2563 -1.6157 -1.1327
 2736TIP3    H229624   6.713   0.926  14.366  0.5260  1.4887 -0.3819
 2737TIP3   OH229625   2.939   1.083   0.339  0.1790  0.0137  0.7043
 2737TIP3    H129626   2.921   1.007   0.284  0.3557  1.1068 -0.9152
 2737TIP3    H229627   2.864   1.140   0.328  1.3900  1.4516 -0.5838
 2738TIP3   OH229628   6.269   2.024  12.735 -0.3151  0.0569 -0.0515
 2738TIP3    H129629   6.286   1.996  12.825  1.8256  1.2719 -0.0015
 2738TIP3    H229630   6.351   2.008  12.689 -0.7594  1.1877 -1.3215
 2739TIP3   OH229631   2.369   2.864  14.885 -0.3219  0.5349 -0.0579
 2739TIP3    H129632   2.304   2.933  14.881 -0.8779  0.0050 -0.3600
 2739TIP3    H229633   2.445   2.904  14.928 -1.6989  0.4948  2.6401
 2740TIP3   OH229634   6.754   6.560   2.403  0.2225  0.3077 -0.1398
 2740TIP3    H129635   6.831   6.609   2.430 -0.4767  2.2538 -1.4721
 2740TIP3    H229636   6.724   6.603   2.323 -2.8745  0.3381  0.8973
 2741TIP3   OH229637   3.703   1.332   3.322 -0.3475 -0.2066 -0.3570
 2741TIP3    H129638   3.647   1.391   3.271  1.8556  0.2759 -2.3543
 2741TIP3    H229639   3.724   1.261   3.262  1.5920 -0.0833  0.1037
 2742TIP3   OH229640   2.728   0.889   2.692 -0.3319 -0.0116 -0.0823
 2742TIP3    H129641   2.737   0.914   2.784 -1.4090  0.8817 -0.1968
 2742TIP3    H229642   2.739   0.794   2.691  1.4394  0.1555  0.7194
 2743TIP3   OH229643   2.982   1.393  16.931  0.2528  0.5799 -0.4421
 2743TIP3    H129644   3.023   1.314  16.896  0.0449  0.7490 -1.0869
 2743TIP3    H229645   2.888   1.378  16.921  0.0939 -0.0824  1.6365
 2744TIP3   OH229646   5.391   5.145   3.123  0.0571 -0.3703 -0.0833
 2744TIP3    H129647   5.365   5.233   3.097 -1.0043 -1.3222 -2.5197
 2744TIP3    H229648   5.487   5.149   3.128  0.0634  0.7849 -0.6699
 2745TIP3   OH229649   2.851   0.149  15.420 -0.1342  0.4492 -0.0050
 2745TIP3    H129650   2.786   0.197  15.472  0.9917  1.3809  0.5932
 2745TIP3    H229651   2.803   0.120  15.342 -1.2562  1.1255  0.4090
 2746TIP3   OH229652   1.634   3.083   2.068 -0.0160  0.0105  0.0879
 2746TIP3    H129653   1.586   3.138   2.005  0.0434  2.2013  1.8342
 2746TIP3    H229654   1.566   3.033   2.112 -0.2866  0.1434 -0.1729
 2747TIP3   OH229655   4.534   1.363   0.562 -0.4806  0.1127 -0.0098
 2747TIP3    H129656   4.525   1.366   0.658  1.8780  2.2223  0.2632
 2747TIP3    H229657   4.444   1.362   0.530 -1.3539  0.3778  2.2220
 2748TIP3   OH229658   4.114   6.196   3.504  0.3003  0.0353 -0.9125
 2748TIP3    H129659   4.075   6.112   3.525  1.7548 -0.0370  2.0428
 2748TIP3    H229660   4.064   6.260   3.555  0.6589  0.6559 -1.3167
 2749TIP3   OH229661   1.535   3.066  15.022 -0.1313  0.6609  0.2243
 2749TIP3    H129662   1.441   3.084  15.032 -0.2763  0.0794 -0.0664
 2749TIP3    H229663   1.559   3.108  14.940 -0.5922 -0.8872 -0.7410
 2750TIP3   OH229664   6.554   2.351   2.879  0.5466 -0.1588 -0.0090
 2750TIP3    H129665   6.482   2.413   2.876  0.1273 -0.6386 -0.0153
 2750TIP3    H229666   6.631   2.404   2.902  0.4772  0.5944 -1.4569
 2751TIP3   OH229667   1.789   4.012  16.842  0.0708 -0.8328 -0.1560
 2751TIP3    H129668   1.884   4.017  16.832  0.2313  0.6695  1.6201
 2751TIP3    H229669   1.773   4.032  16.934 -1.9196 -2.1133 -0.1564
 2752TIP3   OH229670   4.884   6.753   2.027 -0.6720 -0.7014  0.6174
 2752TIP3    H129671   4.860   6.783   1.939 -1.1437 -0.7392  0.7323
 2752TIP3    H229672   4.926   6.668   2.012  2.3644  0.7377  0.1056
 2753TIP3   OH229673   3.206   2.673   0.527  0.0295 -0.2951 -0.2957
 2753TIP3    H129674   3.112   2.668   0.545  0.1964 -1.5486  0.3401
 2753TIP3    H229675   3.245   2.693   0.612  0.3389  0.1063 -0.5366
 2754TIP3   OH229676   1.584   3.893  13.214 -0.1336 -0.1365  0.7830
 2754TIP3    H129677   1.627   3.971  13.247 -0.7247  0.8411 -0.6425
 2754TIP3    H229678   1.539   3.856  13.290 -1.5536  2.0768  1.1265
 2755TIP3   OH229679   1.452   3.737  16.697 -0.7115  0.0421  0.1770
 2755TIP3    H129680   1.535   3.691  16.706  0.7301  1.9095 -2.2837
 2755TIP3    H229681   1.463   3.818  16.748 -0.6898  0.6462 -0.7626
 2756TIP3   OH229682   4.692   1.380   3.136  0.4357 -0.2164 -0.1663
 2756TIP3    H129683   4.599   1.362   3.150  0.2861  0.7631  0.1652
 2756TIP3    H229684   4.737   1.313   3.187 -0.0059 -2.6162 -2.6543
 2757TIP3   OH229685   5.207   5.186   5.728 -0.3346  0.6499 -0.2312
 2757TIP3    H129686   5.254   5.264   5.757  0.4083  0.6680 -1.3981
 2757TIP3    H229687   5.249   5.163   5.644 -1.4531 -0.1883 -0.5824
 2758TIP3   OH229688   6.003   1.356   2.164  0.3304  0.1387  0.0355
 2758TIP3    H129689   6.014   1.416   2.090 -0.1897  1.4330  0.9701
 2758TIP3    H229690   6.083   1.367   2.216 -0.2035  0.8045  0.7376
 2759TIP3   OH229691   2.770   3.653   2.017 -0.7389  0.3690  0.5428
 2759TIP3    H129692   2.693   3.620   2.062 -0.2879  0.1557  1.1651
 2759TIP3    H229693   2.771   3.606   1.933  0.4820 -2.0794  1.8249
 2760TIP3   OH229694   3.841   0.432  15.888  0.1970 -0.0168  0.4389
 2760TIP3    H129695   3.753   0.413  15.920  0.1473 -0.5086  0.0245
 2760TIP3    H229696   3.852   0.526  15.900 -0.2371 -0.0176  0.8555
 2761TIP3   OH229697   5.918   0.920  12.059  1.0100 -0.0859 -0.1588
 2761TIP3    H129698   5.823   0.931  12.059  1.0026  0.3606 -2.4009
 2761TIP3    H229699   5.931   0.834  12.019  1.5381 -1.3155  2.4562
 2762TIP3   OH229700   0.930   5.644   2.853  0.2129 -0.0655 -0.0885
 2762TIP3    H129701   0.898   5.642   2.943  0.5357  1.9543  0.1146
 2762TIP3    H229702   0.987   5.721   2.849 -0.3191  0.2898 -2.1855
 2763TIP3   OH229703   3.243   6.694  16.032  0.1372  0.3658  0.9441
 2763TIP3    H129704   3.271   6.702  16.123  0.4881  2.7507  0.6864
 2763TIP3    H229705   3.168   6.753  16.025  2.0728  2.8017 -1.0205
 2764TIP3   OH229706   1.186   1.365  16.539  0.2213  0.4662  0.0518
 2764TIP3    H129707   1.147   1.305  16.476 -0.2819  1.7499 -0.9220
 2764TIP3    H229708   1.119   1.376  16.607 -0.6070  1.5844 -0.9021
 2765TIP3   OH229709   0.747   6.241   1.654  0.0490 -0.4314 -0.1808
 2765TIP3    H129710   0.655   6.259   1.636 -0.1769 -1.6018 -0.2700
 2765TIP3    H229711   0.746   6.159   1.703  1.1268 -1.4533 -1.7807
 2766TIP3   OH229712   2.074   4.639   5.538  0.2855  0.2268  0.1160
 2766TIP3    H129713   2.030   4.557   5.516 -0.1778  0.9787 -1.9825
 2766TIP3    H229714   2.164   4.626   5.508  0.5416  0.0520  0.9386
 2767TIP3   OH229715   1.317   0.069   4.358 -0.0578 -0.5023  0.2329
 2767TIP3    H129716   1.287  -0.012   4.400  0.0291  0.1972  1.7084
 2767TIP3    H229717   1.241   0.099   4.308 -1.6512  0.7054  3.1121
 2768TIP3   OH229718   1.306   4.845   0.687 -0.3502 -0.0363 -0.3101
 2768TIP3    H129719   1.315   4.750   0.673 -2.5176 -0.5311  1.0881
 2768TIP3    H229720   1.384   4.869   0.737  0.1406 -1.1228 -0.5156
 2769TIP3   OH229721   6.208   6.720  13.174  0.1173  0.1204 -0.3177
 2769TIP3    H129722   6.137   6.657  13.179 -0.0245  0.1290 -1.6980
 2769TIP3    H229723   6.225   6.746  13.264 -3.3179  1.9867 -0.0638
 2770TIP3   OH229724   4.176   3.874  16.708 -0.1067  0.1413 -0.1965
 2770TIP3    H129725   4.152   3.943  16.770  0.6164  0.6679 -0.4855
 2770TIP3    H229726   4.108   3.877  16.641 -0.2445  0.3662 -0.0474
 2771TIP3   OH229727   5.787   1.887   3.046  0.1651 -0.3941 -0.0080
 2771TIP3    H129728   5.700   1.925   3.052 -1.3685 -3.7448  0.8072
 2771TIP3    H229729   5.833   1.921   3.123 -2.5468 -3.2163  3.1375
 2772TIP3   OH229730   1.075   0.337  14.901  0.9274 -0.2680 -0.4282
 2772TIP3    H129731   1.070   0.306  14.810 -0.3632 -2.4443  0.2966
 2772TIP3    H229732   1.007   0.404  14.907  2.2193  1.2112 -1.4632
 2773TIP3   OH229733   6.114   0.840  13.945  0.2229 -0.0586 -0.0687
 2773TIP3    H129734   6.165   0.877  14.017  0.7229 -2.2310  0.7502
 2773TIP3    H229735   6.023   0.849  13.973  0.3113  0.6885  0.0142
 2774TIP3   OH229736   4.794   4.821   3.443  0.0249  0.6390 -0.2026
 2774TIP3    H129737   4.882   4.858   3.451  0.4526 -0.6846  2.0658
 2774TIP3    H229738   4.737   4.889   3.480  0.2851  0.8680 -0.2173
 2775TIP3   OH229739   2.206   5.112  17.328  0.4998 -0.0166  0.2148
 2775TIP3    H129740   2.268   5.048  17.362  0.5338 -0.1682 -0.1282
 2775TIP3    H229741   2.260   5.182  17.293  0.5008 -0.4221 -0.6239
 2776TIP3   OH229742   4.873   2.570  14.147  0.3578 -0.2915 -0.3236
 2776TIP3    H129743   4.965   2.592  14.131  0.1137  1.4092  0.4011
 2776TIP3    H229744   4.875   2.482  14.183  1.8228  0.2230  0.9364
 2777TIP3   OH229745   1.437   5.730   2.972 -0.4466  0.1860 -0.9201
 2777TIP3    H129746   1.498   5.661   2.945 -1.9273 -1.1813 -0.9238
 2777TIP3    H229747   1.493   5.799   3.007  1.0681 -2.5305  2.6823
 2778TIP3   OH229748   2.336   3.951  16.702  0.2859  0.4778  0.3764
 2778TIP3    H129749   2.309   3.942  16.611 -0.8360  0.0637  0.7371
 2778TIP3    H229750   2.395   3.877  16.718  0.3812  0.4781  0.0322
 2779TIP3   OH229751   1.667   1.331   5.480  0.1726 -0.2883 -0.4570
 2779TIP3    H129752   1.582   1.304   5.446  0.5263  0.2288 -1.8062
 2779TIP3    H229753   1.690   1.409   5.429  1.2232 -0.1174  0.2444
 2780TIP3   OH229754   4.302   1.864  16.107  0.6699 -0.0636 -0.3035
 2780TIP3    H129755   4.242   1.938  16.115  0.2793 -0.3715 -0.3532
 2780TIP3    H229756   4.247   1.787  16.122  0.8825 -0.3991 -1.2034
 2781TIP3   OH229757   4.158   3.743   2.058 -0.0793  0.0203  0.0450
 2781TIP3    H129758   4.209   3.662   2.059  0.7490  0.4603 -2.1402
 2781TIP3    H229759   4.069   3.716   2.081  0.0410 -1.6374 -1.2711
 2782TIP3   OH229760   1.288   0.991   3.725 -0.6274  0.4072 -0.8543
 2782TIP3    H129761   1.291   1.087   3.724 -2.0553  0.5280 -3.9914
 2782TIP3    H229762   1.327   0.965   3.642 -1.8640 -1.6719 -0.8452
 2783TIP3   OH229763   3.886   1.380  12.020  0.0178 -0.4324  0.2707
 2783TIP3    H129764   3.895   1.376  11.925 -2.0003 -1.9634  0.0754
 2783TIP3    H229765   3.852   1.467  12.037 -0.7355 -0.5451 -0.5650
 2784TIP3   OH229766   2.810   1.212  11.262 -0.0006 -0.5215 -0.4498
 2784TIP3    H129767   2.783   1.260  11.184 -1.2750  0.0136  0.2927
 2784TIP3    H229768   2.906   1.220  11.263  0.1289 -1.1236 -2.3069
 2785TIP3   OH229769   3.250   6.379  12.457 -0.3140  0.3482  0.3301
 2785TIP3    H129770   3.280   6.378  12.548 -1.8946  1.1601  0.8890
 2785TIP3    H229771   3.295   6.455  12.419 -0.7520  0.8744  0.8426
 2786TIP3   OH229772   3.972   6.174  12.775  0.7862  0.1654 -0.3387
 2786TIP3    H129773   4.009   6.262  12.768  0.2198  0.3193 -1.7228
 2786TIP3    H229774   3.889   6.179  12.728  0.3168 -0.8874  0.3391
 2787TIP3   OH229775   2.570   0.270   2.837  0.3955 -0.2426 -0.3859
 2787TIP3    H129776   2.582   0.364   2.848  1.9548 -0.1393 -2.3617
 2787TIP3    H229777   2.659   0.234   2.840  0.2982 -1.0739 -3.6996
 2788TIP3   OH229778   2.425   4.965  15.659  0.1002 -0.6342 -0.8014
 2788TIP3    H129779   2.400   5.022  15.732 -3.0536 -3.1580  0.3173
 2788TIP3    H229780   2.496   4.911  15.694  1.2935  0.7455 -0.9992
 2789TIP3   OH229781   3.269   5.834   3.047  0.3450 -0.1249 -0.7780
 2789TIP3    H129782   3.250   5.928   3.054  1.5077  0.2106 -1.7727
 2789TIP3    H229783   3.183   5.793   3.039 -0.2388  0.7484  0.6161
 2790TIP3   OH229784   5.325   1.676  11.033 -0.3725  0.9886  0.3122
 2790TIP3    H129785   5.238   1.650  11.064  0.5493 -1.5335  1.0234
 2790TIP3    H229786   5.360   1.730  11.104 -0.5990  0.3526  0.9119
 2791TIP3   OH229787   4.942   5.704  12.336  0.5327 -0.2719 -0.2103
 2791TIP3    H129788   4.893   5.646  12.277 -0.8160  0.2398  0.3704
 2791TIP3    H229789   4.877   5.736  12.398  1.2103  1.8726 -0.5003
 2792TIP3   OH229790   2.729   5.857   1.664  0.1797 -0.5245 -0.9852
 2792TIP3    H129791   2.730   5.849   1.760  0.1724  0.8423 -0.8597
 2792TIP3    H229792   2.636   5.856   1.641  0.1213  0.5532 -0.8363
 2793TIP3   OH229793   0.913   1.943   3.533  0.2163  0.1043  0.1572
 2793TIP3    H129794   0.966   1.869   3.559 -0.5241 -0.1908  0.8701
 2793TIP3    H229795   0.822   1.912   3.542 -0.1478 -0.1263 -3.0130
 2794TIP3   OH229796   3.462   2.501  16.280  0.3343  0.0292 -0.0815
 2794TIP3    H129797   3.489   2.453  16.202  0.4401 -2.5099  1.3758
 2794TIP3    H229798   3.366   2.505  16.273  0.2722 -0.9610  0.0361
 2795TIP3   OH229799   1.872   4.845   3.565 -0.2311 -0.1620  0.0040
 2795TIP3    H129800   1.782   4.822   3.586 -0.7622  0.5840 -1.3835
 2795TIP3    H229801   1.915   4.761   3.548 -0.1110 -0.7076  2.4962
 2796TIP3   OH229802   5.543   0.527  12.597  0.2066  0.0610 -0.0875
 2796TIP3    H129803   5.530   0.435  12.620 -1.4969  0.4673  0.7239
 2796TIP3    H229804   5.455   0.564  12.598  1.1034  2.3381  2.3259
 2797TIP3   OH229805   1.103   6.768  11.396  0.2369 -0.4627 -0.4264
 2797TIP3    H129806   1.030   6.722  11.438  2.3654 -2.4116  1.4035
 2797TIP3    H229807   1.151   6.808  11.468  0.7492  1.2069 -1.6438
 2798TIP3   OH229808   4.027   4.300  14.824  0.0553 -0.3640  0.4152
 2798TIP3    H129809   4.064   4.254  14.749 -0.1815 -1.4173  0.9238
 2798TIP3    H229810   4.016   4.391  14.794  0.4632 -0.6488 -0.6308
 2799TIP3   OH229811   3.171   3.875  12.329 -0.5000 -0.3648 -0.2209
 2799TIP3    H129812   3.239   3.941  12.340 -0.1270 -0.7331 -0.3128
 2799TIP3    H229813   3.201   3.821  12.256  0.0324 -1.6861  0.9282
 2800TIP3   OH229814   5.024   3.305   5.974  0.3794  0.1555 -0.0072
 2800TIP3    H129815   5.015   3.294   6.069  2.0061 -1.5705  0.0191
 2800TIP3    H229816   4.947   3.262   5.937  0.7240 -0.9522  0.5158
 2801TIP3   OH229817   3.531   5.517   2.312 -0.0161  1.0260  0.0614
 2801TIP3    H129818   3.530   5.595   2.257 -2.6542  1.5599  0.7082
 2801TIP3    H229819   3.518   5.445   2.250  3.2620  0.8983 -0.6394
 2802TIP3   OH229820   1.791   4.004  13.454 -0.2423  0.4389 -0.0296
 2802TIP3    H129821   1.839   4.039  13.529  0.0116 -0.5686  0.2937
 2802TIP3    H229822   1.707   3.977  13.490  1.0793 -3.1914  0.6857
 2803TIP3   OH229823   4.636   4.344   1.413 -0.3490 -0.0583  0.1641
 2803TIP3    H129824   4.557   4.387   1.445 -2.8507 -3.3387 -0.9970
 2803TIP3    H229825   4.663   4.396   1.338 -1.7974  0.8194  0.2182
 2804TIP3   OH229826   4.068   1.681   0.843  0.3312  0.3075  0.2924
 2804TIP3    H129827   4.162   1.673   0.826  0.7154  0.8001  2.0284
 2804TIP3    H229828   4.029   1.690   0.756  1.8601 -0.0882 -0.4726
 2805TIP3   OH229829   4.259   0.442  16.902  0.0597  0.5538 -0.2374
 2805TIP3    H129830   4.206   0.363  16.890 -0.3701  1.0450 -1.7348
 2805TIP3    H229831   4.263   0.453  16.997 -0.9639 -0.5403 -0.0379
 2806TIP3   OH229832   4.014   4.050  13.189  0.2413 -0.2460  0.1508
 2806TIP3    H129833   4.012   4.032  13.283  1.3221 -1.2335  0.0009
 2806TIP3    H229834   3.923   4.040  13.160 -0.0840 -0.0123  1.0692
 2807TIP3   OH229835   3.064   3.552  12.879 -0.3663 -0.2403  0.2542
 2807TIP3    H129836   2.980   3.509  12.860 -0.5710 -0.1119  0.8712
 2807TIP3    H229837   3.096   3.580  12.793 -1.3029  0.3542  0.0840
 2808TIP3   OH229838   0.315   1.044  15.097 -0.2811 -0.0305 -0.7921
 2808TIP3    H129839   0.314   1.085  15.183 -0.6663  0.0645 -0.8387
 2808TIP3    H229840   0.405   1.051  15.067 -0.1545 -0.0342 -0.4088
 2809TIP3   OH229841   5.658   6.490   4.909  0.2313 -0.3746 -0.0142
 2809TIP3    H129842   5.724   6.457   4.970  0.8112 -1.3244 -1.1079
 2809TIP3    H229843   5.669   6.436   4.831 -0.5059  0.7946 -0.9587
 2810TIP3   OH229844   5.561   4.503   2.689  0.0404  0.2320 -0.6674
 2810TIP3    H129845   5.499   4.433   2.670  0.9321 -0.9082  0.4240
 2810TIP3    H229846   5.514   4.563   2.746  0.2527 -1.2395  1.1396
 2811TIP3   OH229847   2.201   3.181   4.813  0.7058 -0.0934  0.5978
 2811TIP3    H129848   2.124   3.135   4.779  1.5028 -1.8249  1.0243
 2811TIP3    H229849   2.267   3.171   4.745  0.6043  1.3960  0.2292
 2812TIP3   OH229850   2.690   6.028   0.440  0.1056 -0.1125 -0.1946
 2812TIP3    H129851   2.615   6.043   0.382  0.5355  0.9542 -0.5084
 2812TIP3    H229852   2.750   5.974   0.388  0.3607  0.5932 -0.6503
 2813TIP3   OH229853   6.730   2.932  11.773  0.3000  0.0280  0.0088
 2813TIP3    H129854   6.744   2.991  11.847 -0.0858  2.9298 -2.0388
 2813TIP3    H229855   6.638   2.907  11.779 -0.9340  3.5312 -1.4823
 2814TIP3   OH229856   6.115   4.221  12.816  0.1799 -0.1041  0.0833
 2814TIP3    H129857   6.123   4.287  12.884 -0.5525  1.4137 -1.2479
 2814TIP3    H229858   6.200   4.176  12.816  0.5217  0.5179  1.3289
 2815TIP3   OH229859   5.390   1.922  12.699  0.1732  0.0054 -0.6062
 2815TIP3    H129860   5.430   1.979  12.765  0.9966 -1.4913  0.2426
 2815TIP3    H229861   5.423   1.955  12.616 -0.5632  1.6766 -0.2767
 2816TIP3   OH229862   1.312   0.743   4.373 -0.1678  0.2842  0.0275
 2816TIP3    H129863   1.237   0.803   4.375  0.5702  1.2533 -0.4561
 2816TIP3    H229864   1.289   0.677   4.308 -0.6033  0.5740 -0.1150
 2817TIP3   OH229865   0.878   4.540  15.396  0.5573  0.0743  0.3081
 2817TIP3    H129866   0.909   4.495  15.317  1.5217  1.2920 -0.0349
 2817TIP3    H229867   0.915   4.490  15.468 -0.7251 -1.3377  0.0432
 2818TIP3   OH229868   1.543   6.105   0.055  0.2714  1.0723 -0.2467
 2818TIP3    H129869   1.448   6.100   0.059  0.3344 -0.2256  0.1109
 2818TIP3    H229870   1.571   6.101   0.146  0.7692 -2.5998 -0.3989
 2819TIP3   OH229871   4.923   0.809  13.613 -0.1302 -0.5102 -0.0695
 2819TIP3    H129872   4.925   0.898  13.649 -1.8171  0.4715 -2.1463
 2819TIP3    H229873   4.991   0.762  13.661  0.0201  1.5635  1.9205
 2820TIP3   OH229874   0.328   6.075   3.577  0.4505  0.9383 -0.3565
 2820TIP3    H129875   0.359   5.986   3.596 -1.1576  0.5923  0.8448
 2820TIP3    H229876   0.370   6.097   3.493 -0.8285 -1.8533 -1.8634
 2821TIP3   OH229877   2.020   3.758   0.065  0.4810 -0.2092 -0.1452
 2821TIP3    H129878   2.115   3.750   0.062  0.4982 -0.1901  0.3735
 2821TIP3    H229879   2.002   3.849   0.041  0.5759 -0.2872 -0.5192
 2822TIP3   OH229880   0.281   5.579  15.420  0.5052 -0.5322 -0.7193
 2822TIP3    H129881   0.196   5.603  15.457  0.4616  1.6458 -2.0152
 2822TIP3    H229882   0.281   5.484  15.417 -1.9784 -0.5873 -0.8364
 2823TIP3   OH229883   2.297   6.748  15.544  0.0636  0.3527  0.2965
 2823TIP3    H129884   2.350   6.668  15.546  0.2682  0.4975  0.8203
 2823TIP3    H229885   2.312   6.783  15.457  1.2423  0.6510  0.5965
 2824TIP3   OH229886   6.564   0.454  11.159 -0.0091 -0.4102  0.0334
 2824TIP3    H129887   6.621   0.378  11.166  1.3121  0.5823  0.7086
 2824TIP3    H229888   6.553   0.468  11.065  0.4574 -0.9204 -0.1039
 2825TIP3   OH229889   1.231   3.500   3.130  0.2949  0.2284  0.0684
 2825TIP3    H129890   1.195   3.455   3.207 -1.2945  0.7535 -0.3379
 2825TIP3    H229891   1.206   3.444   3.056  1.0053  0.2094 -0.1648
 2826TIP3   OH229892   4.801   5.971   4.594 -0.0460 -0.1700  0.2046
 2826TIP3    H129893   4.831   5.882   4.610  0.1459  0.2026  2.0336
 2826TIP3    H229894   4.716   5.960   4.551 -0.6500 -1.2706  1.5980
 2827TIP3   OH229895   4.676   5.352   5.238  0.0709  0.3175 -0.4714
 2827TIP3    H129896   4.667   5.280   5.175 -0.4488 -0.7763  0.7972
 2827TIP3    H229897   4.597   5.404   5.227 -0.2442 -0.1429 -0.3815
 2828TIP3   OH229898   1.915   1.293  12.985 -0.2907 -0.6384 -0.5038
 2828TIP3    H129899   1.942   1.375  13.026 -0.9595 -0.0970 -1.1212
 2828TIP3    H229900   1.959   1.225  13.036 -1.3842 -0.0243  1.3604
 2829TIP3   OH229901   0.731   1.362  16.426 -0.4667  0.0319  0.2092
 2829TIP3    H129902   0.642   1.386  16.453 -0.6681 -1.4144  0.9058
 2829TIP3    H229903   0.785   1.381  16.503 -0.2176  0.5868 -0.0981
 2830TIP3   OH229904   0.549   4.579   5.183 -0.5901 -0.1342  0.2333
 2830TIP3    H129905   0.483   4.510   5.183 -0.4424 -0.3748  2.7599
 2830TIP3    H229906   0.633   4.533   5.185 -0.4620  0.1089  0.7729
 2831TIP3   OH229907   6.138   6.704  14.891  0.2224  0.6537 -0.0048
 2831TIP3    H129908   6.195   6.667  14.824 -1.0565 -0.4200 -0.5422
 2831TIP3    H229909   6.170   6.668  14.973 -0.7902 -1.4486 -0.4839
 2832TIP3   OH229910   4.895   4.112   4.757 -0.3668 -0.5724 -0.3436
 2832TIP3    H129911   4.938   4.060   4.690 -0.2924  0.0873 -0.8145
 2832TIP3    H229912   4.953   4.186   4.772 -0.2575 -0.8382  0.6409
 2833TIP3   OH229913   6.700   5.668  14.508 -0.0169 -0.8081  0.2160
 2833TIP3    H129914   6.789   5.703  14.502  0.3385 -1.8759 -1.3579
 2833TIP3    H229915   6.671   5.692  14.596  0.6295  2.3139 -0.2726
 2834TIP3   OH229916   3.876   1.741  13.020  0.3808  0.0447  0.6952
 2834TIP3    H129917   3.959   1.694  13.030  1.1012  1.1771  0.1779
 2834TIP3    H229918   3.901   1.831  12.999 -0.9524 -0.0047 -1.4990
 2835TIP3   OH229919   3.574   1.823  11.202  0.3073  0.5761 -0.3109
 2835TIP3    H129920   3.550   1.856  11.115 -1.6827  1.7968  0.6327
 2835TIP3    H229921   3.578   1.728  11.190 -0.1350  0.7016 -1.7090
 2836TIP3   OH229922   0.745   5.699  14.198 -0.3370 -0.4981  0.1007
 2836TIP3    H129923   0.652   5.713  14.213 -0.2105 -1.1535  1.6826
 2836TIP3    H229924   0.784   5.786  14.207 -0.5930 -0.4836  1.1536
 2837TIP3   OH229925   5.006   6.080   0.469 -0.1912  0.2471  0.0696
 2837TIP3    H129926   4.983   6.010   0.407  0.2985 -1.4242  1.6577
 2837TIP3    H229927   5.011   6.159   0.416  0.9542 -1.2189 -2.1681
 2838TIP3   OH229928   2.542   2.374   3.503  0.1318 -0.6409 -0.0398
 2838TIP3    H129929   2.516   2.462   3.476 -0.9913 -0.8206  0.3888
 2838TIP3    H229930   2.606   2.388   3.573  0.8210 -0.1727 -0.7582
 2839TIP3   OH229931   1.345   3.059   4.462  0.3410  1.2018  0.0789
 2839TIP3    H129932   1.405   2.988   4.486  2.1713  1.9793 -1.8596
 2839TIP3    H229933   1.263   3.015   4.441  0.7089 -0.0745  1.1717
 2840TIP3   OH229934   4.548   3.341  12.543 -0.1479 -0.2254 -0.5738
 2840TIP3    H129935   4.611   3.404  12.577  0.3909 -1.4819  0.8394
 2840TIP3    H229936   4.532   3.369  12.452  0.0655  1.9116  0.0009
 2841TIP3   OH229937   1.773   2.630  14.514 -0.2187 -0.4127  0.2350
 2841TIP3    H129938   1.687   2.601  14.485 -0.6728  1.3216 -0.3042
 2841TIP3    H229939   1.791   2.579  14.593 -1.8240 -0.6758  0.4562
 2842TIP3   OH229940   2.427   4.558   0.578 -0.2854  0.0980 -0.3215
 2842TIP3    H129941   2.337   4.580   0.601  0.1139 -0.4173  1.9386
 2842TIP3    H229942   2.465   4.641   0.547 -1.5876  0.2386 -1.6598
 2843TIP3   OH229943   4.994   6.315   0.334  0.4001 -0.4564 -0.2811
 2843TIP3    H129944   5.088   6.325   0.324  0.4103  1.3682  1.1373
 2843TIP3    H229945   4.962   6.294   0.245  2.0393 -0.4347 -0.9020
 2844TIP3   OH229946   1.677   6.118  11.085 -0.1846 -0.2641  0.4091
 2844TIP3    H129947   1.657   6.115  11.178 -0.1168 -0.6317  0.4121
 2844TIP3    H229948   1.693   6.211  11.067 -0.2260 -0.1893  0.7555
 2845TIP3   OH229949   6.026   3.821   3.882  0.3169  0.0426  0.4672
 2845TIP3    H129950   5.937   3.853   3.896  0.0263 -1.1241  1.4945
 2845TIP3    H229951   6.062   3.813   3.971  1.4951  0.6065  0.0549
 2846TIP3   OH229952   0.656   5.798  15.152 -0.0382  0.1156  0.6186
 2846TIP3    H129953   0.597   5.781  15.079  0.1877 -2.3324  0.9077
 2846TIP3    H229954   0.634   5.731  15.217  2.4455 -0.3417  1.1107
 2847TIP3   OH229955   5.255   3.915   2.898 -0.0049 -0.1993  0.3149
 2847TIP3    H129956   5.348   3.938   2.897 -0.6774  3.0929  1.8385
 2847TIP3    H229957   5.231   3.913   2.991 -1.4177 -1.2804 -0.0314
 2848TIP3   OH229958   3.024   5.251   0.266 -0.6451 -0.2207  0.2036
 2848TIP3    H129959   2.964   5.242   0.192  1.0071  0.9573 -1.3748
 2848TIP3    H229960   3.071   5.168   0.270  0.0514  0.1104 -0.8393
 2849TIP3   OH229961   6.550   0.567   3.356 -0.2484 -0.6917 -0.0028
 2849TIP3    H129962   6.484   0.635   3.340  0.5306  0.2196  0.5545
 2849TIP3    H229963   6.633   0.606   3.327  0.7062 -0.1842  3.0852
 2850TIP3   OH229964   3.040   6.149   0.732  0.4560 -0.4680  0.7663
 2850TIP3    H129965   3.060   6.211   0.802  0.8701 -0.5767  0.7432
 2850TIP3    H229966   2.971   6.093   0.770  0.8403 -0.6721  1.1732
 2851TIP3   OH229967   4.398   2.492  14.298  0.3690 -0.4823  0.3353
 2851TIP3    H129968   4.409   2.572  14.351 -1.5482 -0.6195  0.9927
 2851TIP3    H229969   4.472   2.495  14.237  2.1417  0.1728  2.3713
 2852TIP3   OH229970   5.288   5.109   0.647  0.7400  0.2101 -0.4291
 2852TIP3    H129971   5.337   5.050   0.590 -0.2042  1.1931 -2.3745
 2852TIP3    H229972   5.351   5.176   0.673  0.7923  0.7661 -1.8805
 2853TIP3   OH229973   4.334   4.839  16.894  0.1340  0.4159 -0.1152
 2853TIP3    H129974   4.406   4.787  16.930 -0.2720 -0.2575 -0.2659
 2853TIP3    H229975   4.359   4.930  16.912 -0.0281  0.1202  1.8218
 2854TIP3   OH229976   1.016   5.294  15.750  0.2417  0.6965  0.1433
 2854TIP3    H129977   0.969   5.229  15.698  0.9916  0.0816  0.2164
 2854TIP3    H229978   0.983   5.282  15.839  1.3252 -0.4997  0.4017
 2855TIP3   OH229979   5.696   4.306   1.668 -0.6107 -0.0505  0.2105
 2855TIP3    H129980   5.746   4.224   1.660  0.4864  0.6602 -0.4462
 2855TIP3    H229981   5.752   4.372   1.628 -1.5343  1.0149  0.6327
 2856TIP3   OH229982   2.524   5.417   5.271  0.6356  0.4485  0.3677
 2856TIP3    H129983   2.578   5.387   5.198 -0.7349  0.0503 -0.5118
 2856TIP3    H229984   2.488   5.337   5.309  0.4159  0.7258  0.7520
 2857TIP3   OH229985   0.392   0.579  16.789 -0.3146 -0.5560 -0.7023
 2857TIP3    H129986   0.312   0.567  16.840 -0.0805 -2.4735 -0.7301
 2857TIP3    H229987   0.438   0.495  16.795  1.1133  0.1087 -1.6949
 2858TIP3   OH229988   2.543   0.166   0.173 -0.1118 -0.4261  0.0135
 2858TIP3    H129989   2.467   0.112   0.152 -0.7412  0.3480  0.2921
 2858TIP3    H229990   2.589   0.176   0.089 -0.6969 -0.3070 -0.2948
 2859TIP3   OH229991   6.427   4.734  12.297  0.2121 -0.0859  0.0194
 2859TIP3    H129992   6.336   4.763  12.287  0.0604 -0.6024 -0.1277
 2859TIP3    H229993   6.425   4.674  12.371 -0.0335 -2.0018 -1.4706
 2860TIP3   OH229994   5.624   0.620  11.241  0.1992 -0.2613 -0.9303
 2860TIP3    H129995   5.581   0.537  11.259  0.0948 -0.8652 -3.5854
 2860TIP3    H229996   5.715   0.597  11.222 -0.2100 -0.0718 -3.4239
 2861TIP3   OH229997   4.943   4.419  12.094  0.1498  0.3088  0.1479
 2861TIP3    H129998   5.013   4.465  12.049 -0.3869  0.6179 -0.3919
 2861TIP3    H229999   4.885   4.390  12.023 -0.7677  0.9048  0.6380
 2862TIP3   OH230000   0.233   6.086   4.798 -0.5907  0.2946 -0.2828
 2862TIP3    H130001   0.140   6.086   4.778 -0.6160  0.6584 -0.1759
 2862TIP3    H230002   0.246   6.162   4.855 -0.9286 -1.9379  3.0834
 2863TIP3   OH230003   2.930   6.396   1.333 -0.4969  0.5130  0.3416
 2863TIP3    H130004   2.902   6.421   1.421  1.0784  0.7782  0.8023
 2863TIP3    H230005   2.895   6.308   1.321 -1.4602  0.8038  0.8758
 2864TIP3   OH230006   5.690   5.218   4.139 -0.3142  0.8962 -0.1603
 2864TIP3    H130007   5.748   5.183   4.071  0.4373  0.0153  0.9078
 2864TIP3    H230008   5.748   5.264   4.199 -0.7384  0.2053  0.8012
 2865TIP3   OH230009   5.493   2.862  17.357 -0.0437 -0.0477  0.6131
 2865TIP3    H130010   5.479   2.819  17.441  0.8706  0.8953  1.2657
 2865TIP3    H230011   5.561   2.928  17.374  0.5240 -0.1762 -0.9696
 2866TIP3   OH230012   3.453   2.307  14.860  0.8218 -0.3755  0.8006
 2866TIP3    H130013   3.485   2.254  14.787 -0.4514 -0.4970  0.3108
 2866TIP3    H230014   3.527   2.311  14.920  1.4037 -1.5344  0.1987
 2867TIP3   OH230015   4.006   4.534  14.095 -0.2682 -0.3065 -0.0205
 2867TIP3    H130016   3.996   4.604  14.159  0.1540 -1.0415  0.8693
 2867TIP3    H230017   4.061   4.572  14.027 -0.5603  0.4195  0.1329
 2868TIP3   OH230018   1.810   3.542  12.969  0.6919 -0.0136 -0.1042
 2868TIP3    H130019   1.895   3.561  13.007  0.1154  0.2198  1.1121
 2868TIP3    H230020   1.791   3.618  12.913  1.7829 -0.6095 -1.3198
 2869TIP3   OH230021   2.049   0.456  12.268  0.5518 -0.1142 -0.1120
 2869TIP3    H130022   1.969   0.493  12.228  0.7422 -0.7335 -1.0978
 2869TIP3    H230023   2.106   0.438  12.194  1.1008 -0.8898  0.4873
 2870TIP3   OH230024   4.446   6.362  10.708  0.5977 -0.4908 -0.0014
 2870TIP3    H130025   4.384   6.307  10.660 -1.8673  1.9295  0.1636
 2870TIP3    H230026   4.413   6.362  10.798  1.8736 -0.4936  0.4844
 2871TIP3   OH230027   2.495   4.341  15.446 -0.6545  0.0940  0.5212
 2871TIP3    H130028   2.580   4.321  15.408 -0.7588  0.1907  0.2347
 2871TIP3    H230029   2.434   4.280  15.404 -1.0369  1.2158 -0.6207
 2872TIP3   OH230030   3.414   3.790   4.909 -0.1250 -0.4291 -0.0154
 2872TIP3    H130031   3.372   3.791   4.996 -0.2914 -0.7081 -0.0927
 2872TIP3    H230032   3.508   3.785   4.928 -0.2034 -1.4584  0.1408
 2873TIP3   OH230033   3.998   6.118  10.740 -0.1495  0.1446 -0.5755
 2873TIP3    H130034   4.030   6.030  10.721 -4.1227 -1.4759 -0.6264
 2873TIP3    H230035   3.978   6.116  10.833 -2.5157  0.0672 -1.0270
 2874TIP3   OH230036   4.892   1.033   1.153  0.2866  0.2124  0.4750
 2874TIP3    H130037   4.876   0.944   1.185  0.0520 -1.0144 -2.6619
 2874TIP3    H230038   4.804   1.069   1.137  0.3948  0.6727  0.8958
 2875TIP3   OH230039   4.170   6.052   1.476  0.7031  0.0624 -0.2562
 2875TIP3    H130040   4.105   5.983   1.459  0.3998 -0.1550  1.5660
 2875TIP3    H230041   4.118   6.131   1.486  0.6392 -0.1757  1.5721
 2876TIP3   OH230042   5.945   5.254  12.031 -0.9599 -0.1476  0.5342
 2876TIP3    H130043   5.983   5.192  12.092 -1.9529  0.1036  1.4344
 2876TIP3    H230044   5.874   5.296  12.080 -0.0310  2.0442  0.1177
 2877TIP3   OH230045   4.208   2.886  16.024  0.0707 -0.1940 -0.2849
 2877TIP3    H130046   4.194   2.981  16.020 -0.1616 -0.1431  1.1781
 2877TIP3    H230047   4.129   2.849  15.986 -0.6246  0.1935  0.7460
 2878TIP3   OH230048   2.418   4.443  11.304  0.0774 -0.2261  0.0013
 2878TIP3    H130049   2.453   4.359  11.333 -0.3397 -0.5162 -0.3145
 2878TIP3    H230050   2.475   4.470  11.232  0.6256  0.0997  0.5507
 2879TIP3   OH230051   4.797   5.610   1.553 -0.4159 -0.0979 -0.3047
 2879TIP3    H130052   4.810   5.541   1.618 -2.3442 -1.3184 -1.1164
 2879TIP3    H230053   4.878   5.661   1.555 -0.0204 -0.7049  2.2887
 2880TIP3   OH230054   0.471   4.675  11.800  0.1381  0.0860  0.2313
 2880TIP3    H130055   0.457   4.602  11.861  0.5774  0.4833  0.8266
 2880TIP3    H230056   0.388   4.722  11.801  0.6491  1.0411  1.8462
 2881TIP3   OH230057   1.300   0.086  17.236 -0.0395  0.5721 -0.1101
 2881TIP3    H130058   1.316   0.180  17.234  0.0361  0.5662  0.2381
 2881TIP3    H230059   1.387   0.047  17.243  0.0841  0.4096 -2.0460
 2882TIP3   OH230060   4.496   4.480  14.139 -0.4937 -0.6115 -0.3590
 2882TIP3    H130061   4.575   4.432  14.115 -0.0256  0.2892 -0.6432
 2882TIP3    H230062   4.509   4.505  14.230 -0.1710  0.0725 -0.5885
 2883TIP3   OH230063   1.001   4.918  11.042 -0.4709  0.2853 -0.5020
 2883TIP3    H130064   1.054   4.974  11.099 -1.2793 -0.8889  1.5390
 2883TIP3    H230065   0.962   4.978  10.979  0.1704  1.7294  0.4104
 2884TIP3   OH230066   1.246   5.628  13.445 -0.2321  0.4988 -0.0058
 2884TIP3    H130067   1.168   5.611  13.498  0.4003 -0.9726  0.5061
 2884TIP3    H230068   1.253   5.723  13.442 -0.1184  0.6545  2.8517
 2885TIP3   OH230069   2.584   5.046   3.192  0.2647 -0.3805 -0.6096
 2885TIP3    H130070   2.655   4.982   3.196 -0.9964 -1.9020 -1.2561
 2885TIP3    H230071   2.569   5.060   3.099 -0.6849 -0.5927 -0.5044
 2886TIP3   OH230072   1.420   1.008   2.585 -0.2374 -0.5974  0.3238
 2886TIP3    H130073   1.337   1.053   2.574  0.1750 -0.2624 -1.6446
 2886TIP3    H230074   1.414   0.930   2.530  1.3543  0.3080 -1.2228
 2887TIP3   OH230075   1.001   2.361  13.935  0.0745  0.6483  0.2828
 2887TIP3    H130076   0.939   2.427  13.906 -0.5596 -0.5133 -1.1419
 2887TIP3    H230077   1.058   2.347  13.859 -0.3741 -1.0514  0.2077
 2888TIP3   OH230078   0.168   2.309   2.150 -0.4783  0.1574 -0.4633
 2888TIP3    H130079   0.186   2.400   2.128 -0.3282 -0.0786 -1.3531
 2888TIP3    H230080   0.171   2.263   2.067  0.3250 -0.8133  0.0714
 2889TIP3   OH230081   0.851   5.684  10.867 -0.2421  0.7955 -0.0087
 2889TIP3    H130082   0.833   5.697  10.774 -0.5795 -0.1924 -0.0948
 2889TIP3    H230083   0.771   5.712  10.912 -0.3743  0.5218 -0.0745
 2890TIP3   OH230084   2.704   2.489   3.734 -0.5924 -0.0788  0.0388
 2890TIP3    H130085   2.796   2.491   3.709 -0.8923 -0.2623 -1.1223
 2890TIP3    H230086   2.684   2.579   3.759  0.0212 -0.1379  0.7714
 2891TIP3   OH230087   1.022   1.565   0.216  0.0776  0.5833 -0.3058
 2891TIP3    H130088   0.999   1.566   0.309 -2.6099  1.3858 -0.8926
 2891TIP3    H230089   0.955   1.510   0.175  2.3208 -1.3650 -1.6025
 2892TIP3   OH230090   3.534   4.783   0.266 -0.3898 -0.2728  0.4123
 2892TIP3    H130091   3.582   4.748   0.191 -0.9099  0.2684 -0.1816
 2892TIP3    H230092   3.486   4.858   0.232  0.7514  1.1162  1.6601
 2893TIP3   OH230093   3.206   6.087  12.687  0.6154  0.9524 -0.5479
 2893TIP3    H130094   3.181   6.070  12.596 -0.2428 -0.7309 -0.0375
 2893TIP3    H230095   3.141   6.151  12.718 -1.8033 -1.5971  0.0582
 2894TIP3   OH230096   5.461   2.907  16.228  0.4804  0.4374 -0.1558
 2894TIP3    H130097   5.540   2.954  16.199  0.4495  0.4862 -0.1613
 2894TIP3    H230098   5.423   2.963  16.295  0.2268  0.6145 -0.4416
 2895TIP3   OH230099   1.082   0.181   4.276  0.0781 -0.1241 -0.5970
 2895TIP3    H130100   1.074   0.220   4.363  0.4050  0.4300 -0.8092
 2895TIP3    H230101   1.035   0.241   4.218 -1.8266 -1.4791 -0.5425
 2896TIP3   OH230102   4.837   6.614   1.149  0.1022 -0.4832  0.9185
 2896TIP3    H130103   4.908   6.587   1.091 -0.8802 -0.2049 -0.4492
 2896TIP3    H230104   4.774   6.542   1.146 -0.8597  0.3719  0.0800
 2897TIP3   OH230105   1.820   4.593   2.760  0.5775  0.2467 -0.1166
 2897TIP3    H130106   1.853   4.561   2.844 -0.0293  1.1575  0.4822
 2897TIP3    H230107   1.770   4.519   2.725  1.8502 -0.5657 -0.2726
 2898TIP3   OH230108   6.141   6.717   5.256 -0.4437 -0.2751 -0.0911
 2898TIP3    H130109   6.148   6.791   5.316  0.7430  0.7108 -1.4123
 2898TIP3    H230110   6.219   6.664   5.274 -0.2075 -0.1009 -0.6105
 2899TIP3   OH230111   3.966   4.561  15.832 -0.4019 -0.0037  0.0164
 2899TIP3    H130112   4.002   4.533  15.916 -1.4597 -1.7723 -0.0566
 2899TIP3    H230113   4.017   4.638  15.808  0.0194  0.4592  2.2032
 2900TIP3   OH230114   1.035   2.635  15.210 -0.1701  0.4162 -0.1273
 2900TIP3    H130115   0.958   2.587  15.239 -0.3118  0.0789 -1.0485
 2900TIP3    H230116   1.020   2.725  15.239 -1.5148  0.6386 -1.4179
 2901TIP3   OH230117   0.720   5.038  16.134 -0.0525  0.1865  0.0368
 2901TIP3    H130118   0.790   4.975  16.150 -0.7915 -0.4153  1.0031
 2901TIP3    H230119   0.718   5.092  16.214  0.3950  1.2947 -0.6667
 2902TIP3   OH230120   3.589   4.194  11.682 -0.1622 -0.1738  0.0455
 2902TIP3    H130121   3.569   4.126  11.618 -0.5008 -0.5832  0.5706
 2902TIP3    H230122   3.643   4.149  11.747 -3.9630 -1.2966  2.8171
 2903TIP3   OH230123   5.720   4.872  15.191 -0.1255 -0.0936 -0.1366
 2903TIP3    H130124   5.695   4.813  15.121  0.4452 -0.2210 -0.2445
 2903TIP3    H230125   5.778   4.936  15.149  0.0612 -0.0527  0.1756
 2904TIP3   OH230126   4.730   1.331   1.824 -0.6448 -0.1745 -0.3178
 2904TIP3    H130127   4.759   1.267   1.759 -0.3739 -0.4382  0.0511
 2904TIP3    H230128   4.798   1.398   1.823 -0.7252 -0.0959 -0.4263
 2905TIP3   OH230129   2.008   2.447  17.256  0.9191 -0.7995 -0.4465
 2905TIP3    H130130   2.056   2.467  17.175  0.4474  0.7093 -0.3885
 2905TIP3    H230131   2.023   2.354  17.271  1.0760 -1.0963 -2.2428
 2906TIP3   OH230132   4.360   0.345  12.266 -0.0405 -0.2177 -0.1432
 2906TIP3    H130133   4.289   0.330  12.328  0.8703 -1.9264  0.5535
 2906TIP3    H230134   4.342   0.284  12.194 -1.0982  1.7487 -1.6623
 2907TIP3   OH230135   6.412   2.282  14.829  0.5193 -0.3323  0.6988
 2907TIP3    H130136   6.482   2.274  14.894  0.8297  0.1627  0.4307
 2907TIP3    H230137   6.363   2.360  14.857 -0.2514 -0.9766  1.1871
 2908TIP3   OH230138   1.105   5.152  14.335  0.7256 -0.9169  0.2100
 2908TIP3    H130139   1.114   5.069  14.382  0.5466 -2.0028 -1.6067
 2908TIP3    H230140   1.174   5.208  14.373  0.4537 -1.6536  1.8802
 2909TIP3   OH230141   1.937   3.702  16.968  0.0859 -0.1495 -0.0815
 2909TIP3    H130142   1.972   3.613  16.965  0.3499 -0.1884  2.2553
 2909TIP3    H230143   1.843   3.691  16.953  0.4490 -0.4494 -2.6114
 2910TIP3   OH230144   1.400   5.780  15.596 -0.2968 -0.0456  0.1436
 2910TIP3    H130145   1.388   5.719  15.523 -1.0786  0.2230  0.0485
 2910TIP3    H230146   1.356   5.738  15.670 -1.2209  0.5912 -0.0264
 2911TIP3   OH230147   2.692   2.320   5.695  0.4184  0.2896 -0.6334
 2911TIP3    H130148   2.779   2.283   5.680 -0.5943 -1.9174 -1.5373
 2911TIP3    H230149   2.656   2.268   5.767  0.4124  2.3121  0.9216
 2912TIP3   OH230150   0.219   0.403   3.843 -0.3063 -0.0859  0.1935
 2912TIP3    H130151   0.177   0.433   3.924 -0.4041 -2.2703  1.0260
 2912TIP3    H230152   0.146   0.376   3.787 -0.1888  0.0483 -0.0215
 2913TIP3   OH230153   3.954   1.011   3.707  0.1405  0.0168 -0.4754
 2913TIP3    H130154   3.903   0.974   3.635 -1.2772  1.1523 -0.1019
 2913TIP3    H230155   3.903   1.086   3.737  1.7125  0.8118  0.3742
 2914TIP3   OH230156   0.716   5.494   5.774 -0.5100  0.3693  0.3128
 2914TIP3    H130157   0.732   5.535   5.859 -0.9278  0.6569  0.2546
 2914TIP3    H230158   0.783   5.425   5.767  0.7962  1.6233  0.0196
 2915TIP3   OH230159   3.012   0.579   5.424  0.2985  0.5837  0.6585
 2915TIP3    H130160   2.947   0.521   5.386  1.0698  0.5013 -0.5970
 2915TIP3    H230161   2.967   0.622   5.497 -1.2389  0.7252 -0.3409
 2916TIP3   OH230162   0.823   3.862   4.809  0.0573  0.7389 -0.3501
 2916TIP3    H130163   0.855   3.861   4.899 -1.0641 -1.1985  0.0878
 2916TIP3    H230164   0.861   3.784   4.769 -3.3275 -1.3093  0.0109
 2917TIP3   OH230165   5.583   6.475  12.566 -0.5115 -0.0088  0.8501
 2917TIP3    H130166   5.604   6.527  12.643  2.2572 -1.5709  1.2807
 2917TIP3    H230167   5.655   6.492  12.505 -0.6908 -1.6138  0.1276
 2918TIP3   OH230168   0.020   1.240  14.646  0.2302  0.1882  0.6766
 2918TIP3    H130169  -0.064   1.265  14.609 -0.1254 -0.6741  0.8624
 2918TIP3    H230170   0.022   1.282  14.732  0.3915  0.9409  0.3141
 2919TIP3   OH230171   6.337   2.468   2.603 -0.1854 -0.5398 -0.5089
 2919TIP3    H130172   6.342   2.513   2.687  1.4975  1.2895 -1.4868
 2919TIP3    H230173   6.426   2.437   2.586 -1.0081 -3.1614 -0.5204
 2920TIP3   OH230174   0.689   4.474  14.689  0.5949  0.1243  0.3332
 2920TIP3    H130175   0.697   4.399  14.747 -2.6521 -1.2621 -0.7639
 2920TIP3    H230176   0.663   4.437  14.605  0.8677  2.3551 -0.8255
 2921TIP3   OH230177   2.872   1.070   4.834  0.1587  0.0720  0.0680
 2921TIP3    H130178   2.959   1.070   4.793  0.0591  1.5600 -0.2063
 2921TIP3    H230179   2.888   1.040   4.923  0.9433  0.2135 -0.0108
 2922TIP3   OH230180   2.439   2.732   0.530  0.6398 -0.5436 -0.6493
 2922TIP3    H130181   2.433   2.647   0.573 -0.7311 -0.7989 -1.2834
 2922TIP3    H230182   2.509   2.778   0.577  0.9341 -1.7552  0.1479
 2923TIP3   OH230183   3.145   1.754   0.219 -0.2425 -0.1051  0.1921
 2923TIP3    H130184   3.105   1.766   0.305 -1.6646 -2.3736 -0.0510
 2923TIP3    H230185   3.074   1.772   0.157 -0.2476 -1.7419 -0.3419
 2924TIP3   OH230186   5.758   0.368   2.179  0.4489  0.6310  0.3017
 2924TIP3    H130187   5.841   0.398   2.218  0.1724  0.0987  1.3392
 2924TIP3    H230188   5.721   0.447   2.139  0.8774  1.1510  0.8919
 2925TIP3   OH230189   2.408   4.693  11.092  0.2386 -0.3228  0.3062
 2925TIP3    H130190   2.319   4.722  11.112 -0.6062 -0.4468 -2.7406
 2925TIP3    H230191   2.400   4.600  11.074  1.3661 -0.7208  1.6526
 2926TIP3   OH230192   1.902   0.570   1.781 -0.1520  0.3385  0.1489
 2926TIP3    H130193   1.852   0.505   1.829  1.4251 -0.8372  0.2856
 2926TIP3    H230194   1.910   0.644   1.842 -0.3164 -0.1186  0.7349
 2927TIP3   OH230195   5.444   4.228  13.413 -0.5791 -0.2398 -0.1327
 2927TIP3    H130196   5.362   4.216  13.365 -0.8130 -1.7031  0.5809
 2927TIP3    H230197   5.512   4.193  13.355 -0.4671  0.6728 -0.5842
 2928TIP3   OH230198   6.680   0.034   3.088 -0.4635  0.0096  0.4344
 2928TIP3    H130199   6.733  -0.035   3.128 -0.7885 -1.4918 -1.5991
 2928TIP3    H230200   6.621  -0.012   3.029  0.0504  2.0750 -1.8625
 2929TIP3   OH230201   5.589   5.503  13.273 -0.1910 -0.4455 -0.1589
 2929TIP3    H130202   5.545   5.419  13.260  0.3070 -1.0120  1.5897
 2929TIP3    H230203   5.558   5.533  13.359 -0.3647  1.1770 -0.7467
 2930TIP3   OH230204   2.327   2.815   2.975  0.2209  0.0232 -0.6940
 2930TIP3    H130205   2.304   2.818   2.882  0.3537  0.3048 -0.7186
 2930TIP3    H230206   2.417   2.784   2.977 -0.0818 -0.9047 -0.6064
 2931TIP3   OH230207   4.081   1.033   4.832  0.1655 -0.3773 -0.4045
 2931TIP3    H130208   4.008   1.057   4.890  0.2540 -0.7190 -0.1502
 2931TIP3    H230209   4.141   1.108   4.838  0.8207 -0.9750  1.0149
 2932TIP3   OH230210   0.497   1.571   4.918  0.1016 -0.0214 -0.1812
 2932TIP3    H130211   0.513   1.635   4.987  1.2033  0.4490 -0.8500
 2932TIP3    H230212   0.535   1.609   4.840  0.5506 -1.3737 -0.6589
 2933TIP3   OH230213   6.187   0.007   4.738  0.0095 -0.0120  0.2484
 2933TIP3    H130214   6.129   0.052   4.676  1.2255  0.4804 -0.5597
 2933TIP3    H230215   6.200   0.070   4.808  0.6346  0.3894 -0.2253
 2934TIP3   OH230216   1.033   6.333   6.189 -0.6027 -0.5911 -0.4791
 2934TIP3    H130217   0.954   6.347   6.241 -0.7736 -1.5971 -0.4460
 2934TIP3    H230218   1.105   6.348   6.250 -0.7612  0.3369 -0.5118
 2935TIP3   OH230219   4.186   3.129  16.773 -0.3515  0.4966 -0.3981
 2935TIP3    H130220   4.277   3.128  16.803  0.3085 -0.5285 -2.3014
 2935TIP3    H230221   4.163   3.222  16.768  0.4456  0.7565  0.4340
 2936TIP3   OH230222   2.290   5.283  14.374  0.4575 -0.1226  0.5735
 2936TIP3    H130223   2.301   5.362  14.321 -1.6210  0.6833  1.2468
 2936TIP3    H230224   2.197   5.262  14.367  0.4166 -0.8947  2.6218
 2937TIP3   OH230225   4.254   6.733   1.994 -0.6873  0.0273 -0.4492
 2937TIP3    H130226   4.174   6.779   2.019 -0.3576 -0.2909  1.3620
 2937TIP3    H230227   4.319   6.802   1.984 -0.7804  0.1507 -0.2044
 2938TIP3   OH230228   6.660   4.191  13.861 -0.6805  0.2961  0.0170
 2938TIP3    H130229   6.575   4.150  13.877 -0.4421 -0.2372 -0.0662
 2938TIP3    H230230   6.668   4.193  13.765  0.1023 -1.1447  0.0306
 2939TIP3   OH230231   4.208   4.003  13.710  0.2612 -0.3000 -0.8178
 2939TIP3    H130232   4.170   3.918  13.732  0.7749 -0.5670 -0.9630
 2939TIP3    H230233   4.210   4.050  13.794  1.0428 -0.8562 -0.5106
 2940TIP3   OH230234   4.038   2.545  11.959  0.0640  0.0418 -0.4576
 2940TIP3    H130235   4.112   2.553  12.019  1.2444 -1.1203 -1.7176
 2940TIP3    H230236   4.046   2.458  11.920  0.3359  1.2949 -3.5301
 2941TIP3   OH230237   0.488   1.070  15.705  0.4325 -0.3170  0.2457
 2941TIP3    H130238   0.457   1.007  15.771  0.7271  0.9479  1.6410
 2941TIP3    H230239   0.421   1.066  15.636  0.5245 -2.2584  0.1910
 2942TIP3   OH230240   1.528   5.897  16.314 -0.2438 -0.1150 -0.2827
 2942TIP3    H130241   1.604   5.955  16.314  0.9965 -1.5111 -3.4426
 2942TIP3    H230242   1.553   5.823  16.370 -0.1261  0.3808  0.3268
 2943TIP3   OH230243   3.144   0.625  16.736 -0.0955  0.1700 -0.1626
 2943TIP3    H130244   3.154   0.704  16.790 -0.5044  0.7549 -0.9183
 2943TIP3    H230245   3.114   0.658  16.651 -3.3749 -0.9741  0.3776
 2944TIP3   OH230246   6.318   1.907  11.851  0.0681 -0.0456  0.2170
 2944TIP3    H130247   6.338   1.898  11.944 -1.8851 -0.1884  0.6622
 2944TIP3    H230248   6.237   1.858  11.839 -0.7597  1.5514 -1.1426
 2945TIP3   OH230249   6.667   1.821   4.327 -0.1584 -0.1058  0.2480
 2945TIP3    H130250   6.714   1.824   4.411 -2.1971  1.4202  1.4431
 2945TIP3    H230251   6.603   1.893   4.333  0.0617  0.5002 -2.9160
 2946TIP3   OH230252   2.538   6.765   4.793 -0.3076 -0.5380 -0.1578
 2946TIP3    H130253   2.451   6.752   4.755  0.5788 -3.0342 -1.5514
 2946TIP3    H230254   2.544   6.701   4.863 -0.2190  0.9163  1.2353
 2947TIP3   OH230255   6.752   2.096   5.937 -0.1251  0.4439  0.0003
 2947TIP3    H130256   6.732   2.081   6.029  1.1767  1.4393  0.4816
 2947TIP3    H230257   6.698   2.172   5.912 -0.0943  0.4927  0.0845
 2948TIP3   OH230258   5.555   0.039   1.024  0.0468  0.9512 -0.8031
 2948TIP3    H130259   5.537   0.131   1.004 -0.5310  1.1536  0.5515
 2948TIP3    H230260   5.579   0.038   1.117 -1.3406 -0.4322 -0.4093
 2949TIP3   OH230261   4.265   2.850   4.996  0.1286 -0.2705 -0.5279
 2949TIP3    H130262   4.176   2.884   4.991  0.3841  0.2092 -3.1906
 2949TIP3    H230263   4.261   2.763   4.957  0.9251  0.0446 -1.3553
 2950TIP3   OH230264   2.418   0.238  11.385 -0.1458 -0.0478 -0.1723
 2950TIP3    H130265   2.485   0.255  11.452  0.4985 -0.5006 -0.6850
 2950TIP3    H230266   2.459   0.175  11.327 -1.3846 -1.0851  0.0424
 2951TIP3   OH230267   2.038   2.442  16.010 -0.1424 -0.0642  0.4877
 2951TIP3    H130268   2.036   2.517  15.952 -0.3714 -0.3144  0.1629
 2951TIP3    H230269   1.988   2.375  15.964  0.9258 -0.7584  0.3020
 2952TIP3   OH230270   1.806   4.039   1.689 -0.0476  0.3378 -0.0297
 2952TIP3    H130271   1.754   3.961   1.710  3.0817 -1.5517  1.6369
 2952TIP3    H230272   1.814   4.086   1.773 -0.4624  1.5135 -0.6350
 2953TIP3   OH230273   5.046   6.538   6.790 -0.2021  0.0368  0.1214
 2953TIP3    H130274   5.115   6.534   6.856 -0.9552 -0.3894  0.8914
 2953TIP3    H230275   5.094   6.538   6.706  0.7285 -0.1972  0.6355
 2954TIP3   OH230276   1.127   4.126  11.763 -0.1783 -0.7600  0.1657
 2954TIP3    H130277   1.208   4.133  11.813 -0.2012 -0.2299  0.1337
 2954TIP3    H230278   1.156   4.118  11.672 -0.1680  0.6703  0.0194
 2955TIP3   OH230279   0.334   5.570  16.294  0.1260  0.2141  0.2834
 2955TIP3    H130280   0.415   5.522  16.314 -1.2147 -1.1962  2.8120
 2955TIP3    H230281   0.278   5.507  16.250 -0.2530  0.6173  0.1788
 2956TIP3   OH230282   1.111   0.125   3.599 -0.2741 -0.7721  0.2561
 2956TIP3    H130283   1.207   0.131   3.592 -0.4419  1.0463 -1.5129
 2956TIP3    H230284   1.087   0.059   3.534 -0.3732  1.2323 -1.8857
 2957TIP3   OH230285   5.381   1.982   5.976  0.5125  0.1480 -0.4078
 2957TIP3    H130286   5.425   2.029   6.047  1.7947 -1.2344 -0.2306
 2957TIP3    H230287   5.291   1.973   6.005  0.3254  2.0873 -0.2688
 2958TIP3   OH230288   0.140   0.798  13.502 -0.0752 -0.4659  0.3137
 2958TIP3    H130289   0.138   0.804  13.597 -1.3789  0.0318  0.2716
 2958TIP3    H230290   0.062   0.845  13.473  0.3157 -0.5835 -1.0074
 2959TIP3   OH230291   1.292   5.416  12.135  0.6774 -0.0837 -0.1260
 2959TIP3    H130292   1.206   5.377  12.118  1.6331 -2.5739  0.2294
 2959TIP3    H230293   1.321   5.447  12.050  0.2463 -1.0937 -0.6723
 2960TIP3   OH230294   1.404   5.641  13.656 -0.0348  0.6916 -0.2710
 2960TIP3    H130295   1.364   5.611  13.575 -0.9279  1.0035  0.0377
 2960TIP3    H230296   1.371   5.580  13.723  1.6407 -0.2938 -0.3055
 2961TIP3   OH230297   5.314   4.893  14.931  0.0426  0.1856  0.2081
 2961TIP3    H130298   5.238   4.952  14.930 -0.8155 -0.8571 -1.5358
 2961TIP3    H230299   5.356   4.907  14.845  0.2276 -1.2148  0.0529
 2962TIP3   OH230300   6.249   5.476   0.019  0.5796  0.4519  0.0152
 2962TIP3    H130301   6.205   5.538   0.078 -0.2759 -0.2311  0.1153
 2962TIP3    H230302   6.200   5.395   0.029  1.8150 -0.3167  0.0427
 2963TIP3   OH230303   6.174   4.341   2.815 -0.2381 -0.2029  0.2985
 2963TIP3    H130304   6.213   4.254   2.823 -2.4824 -1.1063  2.7920
 2963TIP3    H230305   6.202   4.387   2.894 -0.9281  0.5108  0.1388
 2964TIP3   OH230306   5.585   4.565  16.803  0.1553 -0.0217  0.0862
 2964TIP3    H130307   5.653   4.624  16.836  0.4681  0.4530 -1.3534
 2964TIP3    H230308   5.633   4.493  16.763 -0.1804  0.1154 -0.5849
 2965TIP3   OH230309   2.792   5.632  15.873 -0.5056  0.4299  0.0445
 2965TIP3    H130310   2.836   5.647  15.957 -1.0580 -2.0989  0.8981
 2965TIP3    H230311   2.699   5.632  15.895 -0.6147 -1.8370 -0.1753
 2966TIP3   OH230312   5.820   2.640   1.852  0.4468  0.1806 -0.0886
 2966TIP3    H130313   5.726   2.652   1.839  0.7057  1.8243 -0.7255
 2966TIP3    H230314   5.827   2.579   1.925 -1.1122 -0.1754 -0.2074
 2967TIP3   OH230315   0.596   4.885  14.590  0.1493 -0.3571 -0.1301
 2967TIP3    H130316   0.690   4.889  14.604  0.0036 -1.4794  1.4247
 2967TIP3    H230317   0.558   4.930  14.665 -0.5726 -0.6687 -0.2974
 2968TIP3   OH230318   0.513   4.120   2.480 -0.5296  0.1596  0.4530
 2968TIP3    H130319   0.602   4.132   2.448 -0.7462 -0.0432 -0.2248
 2968TIP3    H230320   0.465   4.082   2.407 -1.0439 -0.2600  0.9945
 2969TIP3   OH230321   5.029   0.913   2.804 -0.1454  0.3557  0.0077
 2969TIP3    H130322   5.086   0.859   2.750 -0.6003  1.2023 -1.3871
 2969TIP3    H230323   5.081   0.934   2.881  0.1384 -1.7711  0.4292
 2970TIP3   OH230324   6.151   2.483   0.952 -0.1767  0.0949 -0.6527
 2970TIP3    H130325   6.063   2.493   0.915 -0.9096 -2.8144  0.0616
 2970TIP3    H230326   6.205   2.457   0.878 -0.6862 -1.3496 -0.5554
 2971TIP3   OH230327   3.358   1.235  15.159  0.2071  0.0110 -0.2253
 2971TIP3    H130328   3.288   1.214  15.221 -0.5458 -1.5545 -1.5437
 2971TIP3    H230329   3.428   1.173  15.180 -0.5526 -1.4199 -1.7038
 2972TIP3   OH230330   4.082   5.300   2.594  0.1579  0.0542 -0.1071
 2972TIP3    H130331   4.172   5.329   2.588  0.2937  0.0434  1.3917
 2972TIP3    H230332   4.042   5.357   2.660 -0.7834 -0.2962 -0.3456
 2973TIP3   OH230333   4.602   6.200  12.613 -0.1865  0.1242  0.0069
 2973TIP3    H130334   4.646   6.115  12.617 -0.8186 -0.1863  0.3266
 2973TIP3    H230335   4.617   6.239  12.699 -1.5762 -0.5116  0.5702
 2974TIP3   OH230336   4.761   0.518  16.634  0.0751 -0.4451 -0.1385
 2974TIP3    H130337   4.786   0.431  16.602 -0.8601 -1.0561  0.7135
 2974TIP3    H230338   4.840   0.571  16.624  0.8024 -1.5168 -0.2448
 2975TIP3   OH230339   5.145   5.391  11.811 -0.0419 -0.1634 -0.0669
 2975TIP3    H130340   5.116   5.469  11.763 -2.2206 -0.3685  0.7634
 2975TIP3    H230341   5.217   5.422  11.866  1.2963  0.4685 -2.0646
 2976TIP3   OH230342   3.847   5.373   5.654  0.2179  0.0783 -0.3805
 2976TIP3    H130343   3.759   5.349   5.683 -0.1738 -1.5445 -2.6453
 2976TIP3    H230344   3.846   5.468   5.651 -2.4646  0.1123 -2.9277
 2977TIP3   OH230345   6.105   1.066   3.978 -0.1964  0.1081 -0.2064
 2977TIP3    H130346   6.185   1.063   3.925  2.0927  1.1560  2.9085
 2977TIP3    H230347   6.130   1.027   4.061 -3.3325 -0.5788  0.5246
 2978TIP3   OH230348   3.886   0.250  15.696  0.4603  0.2351 -0.7113
 2978TIP3    H130349   3.869   0.304  15.773  0.6524  0.0118 -0.5121
 2978TIP3    H230350   3.943   0.180  15.727 -1.1529 -1.0924 -0.5676
 2979TIP3   OH230351   4.679   2.585   0.528 -0.2111  0.2684  0.3149
 2979TIP3    H130352   4.703   2.638   0.451  0.8961 -0.5073  0.1011
 2979TIP3    H230353   4.589   2.611   0.547 -1.0771 -0.5445 -2.1566
 2980TIP3   OH230354   0.791   2.865  12.466  0.1020  0.4311 -0.4336
 2980TIP3    H130355   0.863   2.841  12.407 -0.7160  0.6955 -1.5768
 2980TIP3    H230356   0.712   2.859  12.411 -0.5500  1.9153  0.2942
 2981TIP3   OH230357   1.878   0.003  13.211  0.3194  0.4004 -0.3525
 2981TIP3    H130358   1.935   0.065  13.256  0.6209 -1.5358  2.2133
 2981TIP3    H230359   1.937  -0.065  13.179 -0.2753 -0.2202 -0.1692
 2982TIP3   OH230360   2.238   0.138  12.672 -0.1341 -0.3822 -0.5625
 2982TIP3    H130361   2.207   0.077  12.606 -0.1982 -0.0321 -0.8609
 2982TIP3    H230362   2.295   0.086  12.729  0.2210 -0.6047 -1.1165
 2983TIP3   OH230363   4.474   5.381   1.427  0.2134  0.2180  0.6505
 2983TIP3    H130364   4.440   5.301   1.469  0.5714  0.2231  0.9610
 2983TIP3    H230365   4.430   5.384   1.343  0.1511 -0.2821  0.6587
 2984TIP3   OH230366   4.969   1.957  13.184  0.1648 -0.4059 -0.8520
 2984TIP3    H130367   4.953   1.866  13.208 -2.0603  0.1936  0.1517
 2984TIP3    H230368   4.882   1.997  13.177  1.0754  1.8777 -0.3221
 2985TIP3   OH230369   4.592   5.699  13.282  0.1275  0.0927 -0.0980
 2985TIP3    H130370   4.512   5.656  13.312 -0.8675  0.6364 -1.8009
 2985TIP3    H230371   4.615   5.760  13.352 -1.1417  0.1441  0.2999
 2986TIP3   OH230372   2.676   4.523  13.353 -0.4747 -0.0968 -0.1336
 2986TIP3    H130373   2.602   4.469  13.380 -0.5171  1.0612  2.2713
 2986TIP3    H230374   2.753   4.469  13.372 -0.5996 -0.6778 -1.1620
 2987TIP3   OH230375   1.071   0.825   1.390  0.5452  0.6558  0.6622
 2987TIP3    H130376   1.165   0.822   1.372  0.1391 -1.0968 -1.7043
 2987TIP3    H230377   1.063   0.869   1.474  3.4198  1.6165  0.5121
 2988TIP3   OH230378   3.152   3.828   6.583  0.4223 -0.3714 -0.1831
 2988TIP3    H130379   3.210   3.875   6.642 -2.0024  3.1817 -0.3494
 2988TIP3    H230380   3.076   3.805   6.637 -1.3297  1.9280 -1.4955
 2989TIP3   OH230381   1.988   3.587   2.933  0.0715 -0.4414 -0.2479
 2989TIP3    H130382   2.047   3.519   2.901 -0.8291 -0.9172 -0.9292
 2989TIP3    H230383   2.005   3.590   3.027  0.1019 -1.6421 -0.1942
 2990TIP3   OH230384   1.639   1.860  12.666 -0.6771 -0.5231 -0.0570
 2990TIP3    H130385   1.672   1.918  12.597  0.5044 -2.6038 -1.3526
 2990TIP3    H230386   1.707   1.793  12.675 -1.2662 -0.8774  2.4736
 2991TIP3   OH230387   2.125   0.525  15.255  0.1699  0.9395  0.0391
 2991TIP3    H130388   2.141   0.431  15.243  2.0170  1.2862 -0.4802
 2991TIP3    H230389   2.211   0.561  15.278  0.0942  2.8763 -2.3025
 2992TIP3   OH230390   2.173   3.811   4.681  0.4116  0.4439  0.5290
 2992TIP3    H130391   2.212   3.834   4.765  1.1256 -2.6738  1.1841
 2992TIP3    H230392   2.079   3.810   4.698  0.5212  0.3844  1.1661
 2993TIP3   OH230393   4.140   1.949   5.966 -0.0353 -0.2127 -0.5481
 2993TIP3    H130394   4.063   1.906   5.928 -0.7704  0.0118  0.6324
 2993TIP3    H230395   4.141   1.920   6.057 -0.1555  1.6850  0.1035
 2994TIP3   OH230396   2.304   1.368  11.691  0.2471 -0.1492 -0.0931
 2994TIP3    H130397   2.367   1.302  11.661 -0.4639  0.4476 -3.2791
 2994TIP3    H230398   2.357   1.432  11.739  1.1477 -2.2625  1.9189
 2995TIP3   OH230399   0.570   4.550  11.294 -0.5490  0.2526 -0.5164
 2995TIP3    H130400   0.521   4.548  11.212 -1.6967 -0.4837  0.1661
 2995TIP3    H230401   0.512   4.593  11.357 -0.3470 -0.6336  0.3064
 2996TIP3   OH230402   1.526   4.298  15.563  0.2093 -0.2449  0.6492
 2996TIP3    H130403   1.569   4.382  15.548  1.3280 -0.7511  0.9513
 2996TIP3    H230404   1.548   4.246  15.485 -2.5837  0.5360 -0.7871
 2997TIP3   OH230405   1.379   6.218  15.921 -0.2710  0.2532 -0.2243
 2997TIP3    H130406   1.429   6.285  15.969  0.7489 -0.4593 -0.2590
 2997TIP3    H230407   1.386   6.245  15.830 -0.1542  0.2926 -0.2048
 2998TIP3   OH230408   2.838   5.021   1.296 -0.1716  0.0432 -0.8026
 2998TIP3    H130409   2.797   5.090   1.244  0.0295  0.9391  0.1908
 2998TIP3    H230410   2.890   4.971   1.234 -0.5818  0.5818 -1.5951
 2999TIP3   OH230411   2.616   1.225   1.058  0.1627  0.2711  0.2756
 2999TIP3    H130412   2.581   1.279   0.987  0.8609  0.2630 -0.0733
 2999TIP3    H230413   2.643   1.144   1.016  0.7392  0.3321  0.5240
 3000TIP3   OH230414   5.586   4.610  13.342  0.3208 -1.1274  0.0339
 3000TIP3    H130415   5.544   4.628  13.258  0.7027 -1.5701 -0.2574
 3000TIP3    H230416   5.635   4.689  13.362  0.2230 -1.0179 -0.1590
 3001TIP3   OH230417   3.670   0.064  12.225  0.5108  0.1023 -0.1269
 3001TIP3    H130418   3.733   0.051  12.154  3.2318 -0.8673  2.2321
 3001TIP3    H230419   3.722   0.103  12.296 -1.4763 -0.9568  2.0775
 3002TIP3   OH230420   0.332   2.027  17.173  0.5972  0.4298  0.4086
 3002TIP3    H130421   0.365   2.068  17.093  0.0652  0.2461  0.0894
 3002TIP3    H230422   0.377   2.073  17.243  0.2334  1.3707  0.0453
 3003TIP3   OH230423   5.613   2.257  14.932 -0.3267  0.1736 -0.1872
 3003TIP3    H130424   5.686   2.289  14.880 -1.7954  0.2428 -2.3246
 3003TIP3    H230425   5.616   2.162  14.922  1.0828 -0.0858  2.0671
 3004TIP3   OH230426   6.763   0.069  15.493  0.5199  0.1061 -0.1324
 3004TIP3    H130427   6.685   0.053  15.439 -0.7592  1.6067  1.1669
 3004TIP3    H230428   6.812  -0.013  15.489 -0.0914 -0.2316 -2.6007
 3005TIP3   OH230429   3.246   2.925  11.565 -0.2253  0.1175 -0.6406
 3005TIP3    H130430   3.277   2.931  11.656 -0.1294  1.4059 -0.7442
 3005TIP3    H230431   3.316   2.965  11.513 -1.6687  2.4351 -0.9512
 3006TIP3   OH230432   3.047   3.886   0.485 -0.7850  0.4560 -0.0978
 3006TIP3    H130433   3.108   3.813   0.475 -2.1045 -0.8496  0.9173
 3006TIP3    H230434   2.976   3.867   0.424 -1.5486  0.4140  0.7763
 3007TIP3   OH230435   5.368   3.727   1.481 -0.0422 -0.1120 -0.1950
 3007TIP3    H130436   5.339   3.774   1.403  1.6896 -0.6901 -1.2405
 3007TIP3    H230437   5.391   3.639   1.450  4.8926  0.8218 -0.0814
 3008TIP3   OH230438   1.780   0.956  16.475  0.5366  0.4659 -0.0963
 3008TIP3    H130439   1.748   0.966  16.386  0.3129  0.9316  0.0319
 3008TIP3    H230440   1.776   1.044  16.512  0.4211  0.2414  0.4408
 3009TIP3   OH230441   2.601   2.773  12.609 -0.3431 -0.1629  0.4887
 3009TIP3    H130442   2.554   2.741  12.532 -1.0936 -1.7907  1.5649
 3009TIP3    H230443   2.655   2.699  12.637  0.0563  0.4609  1.4142
 3010TIP3   OH230444   3.489   3.578  12.761  1.0219  0.4064  0.4931
 3010TIP3    H130445   3.580   3.609  12.761  2.0900 -2.4888  0.8223
 3010TIP3    H230446   3.490   3.497  12.812 -1.8262  0.4010  0.7361
 3011TIP3   OH230447   0.889   2.459   3.837  0.1452 -0.3519  0.5105
 3011TIP3    H130448   0.815   2.475   3.779  0.8966  2.3295  0.1228
 3011TIP3    H230449   0.850   2.432   3.920 -1.2100 -0.1254 -0.0390
 3012TIP3   OH230450   6.101   3.508  11.733  0.2721  0.8148 -0.6886
 3012TIP3    H130451   6.145   3.457  11.665  1.0413 -0.0923  0.4390
 3012TIP3    H230452   6.010   3.482  11.729  0.7852 -1.4518  0.4586
 3013TIP3   OH230453   2.164   5.328   0.195 -0.1495  0.1708 -0.1323
 3013TIP3    H130454   2.161   5.246   0.147  0.8561  0.3945 -0.5965
 3013TIP3    H230455   2.213   5.308   0.274 -1.1501 -0.0128  0.4594
 3014TIP3   OH230456   1.986   3.273   0.288 -0.4201 -0.7518  0.0465
 3014TIP3    H130457   1.924   3.345   0.276 -1.5548 -1.4309  1.5268
 3014TIP3    H230458   1.953   3.204   0.229 -0.4428 -0.7377  0.0426
 3015TIP3   OH230459   5.535   1.225   2.241 -0.1006 -0.3215 -0.4680
 3015TIP3    H130460   5.522   1.300   2.299 -0.3064 -0.2799 -0.5695
 3015TIP3    H230461   5.626   1.199   2.256 -0.6633 -1.4625  1.2557
 3016TIP3   OH230462   2.849   6.494  11.265 -0.1015 -0.3978 -0.1398
 3016TIP3    H130463   2.919   6.448  11.219 -0.1666 -0.9255  0.2856
 3016TIP3    H230464   2.826   6.437  11.338 -0.7614 -0.0803 -0.0915
 3017TIP3   OH230465   1.549   0.823  12.777 -0.5501 -0.1659 -0.8747
 3017TIP3    H130466   1.625   0.804  12.832 -0.2374  0.1776 -1.1836
 3017TIP3    H230467   1.559   0.765  12.701 -0.6294 -0.1647 -0.8863
 3018TIP3   OH230468   1.574   0.182  12.501  0.5346 -0.1402  0.4501
 3018TIP3    H130469   1.635   0.127  12.549 -1.4126 -2.0517  0.9090
 3018TIP3    H230470   1.530   0.234  12.569 -0.8351 -1.4217  0.6033
 3019TIP3   OH230471   2.141   3.636  13.850 -0.3817  0.0866  0.2727
 3019TIP3    H130472   2.176   3.549  13.865 -1.9109 -1.0117 -1.9678
 3019TIP3    H230473   2.070   3.646  13.913 -0.6784 -0.5976  0.0478
 3020TIP3   OH230474   0.241   5.428  17.131  0.2719 -0.1074 -0.2754
 3020TIP3    H130475   0.253   5.519  17.104  0.1013 -0.4098 -1.4192
 3020TIP3    H230476   0.169   5.397  17.078  0.1765 -0.8546  0.2778
 3021TIP3   OH230477   1.267   2.129   0.257  0.1336  0.2919 -0.4028
 3021TIP3    H130478   1.198   2.065   0.243  0.5747 -0.7222  1.6625
 3021TIP3    H230479   1.318   2.094   0.330  2.0596  1.6500 -1.0126
 3022TIP3   OH230480   0.784   0.697  12.640 -0.6772 -0.2883  0.1749
 3022TIP3    H130481   0.760   0.783  12.674 -3.4342 -0.9303  0.1181
 3022TIP3    H230482   0.823   0.715  12.554 -0.5075  0.9431  0.4977
 3023TIP3   OH230483   5.660   2.217  14.311 -0.1386 -0.1846 -0.1196
 3023TIP3    H130484   5.624   2.252  14.392  0.7571 -1.2037  0.7354
 3023TIP3    H230485   5.653   2.290  14.249  1.3285  1.4504  1.5086
 3024TIP3   OH230486   0.013   4.603  13.894  1.0120  0.0265 -0.1096
 3024TIP3    H130487   0.033   4.601  13.801  1.8983  0.4110  0.0676
 3024TIP3    H230488  -0.047   4.677  13.905  0.9646  0.0247 -0.3642
 3025TIP3   OH230489   5.686   1.463   1.336  0.1522 -0.0245 -0.0514
 3025TIP3    H130490   5.771   1.501   1.310  0.4240 -0.1978  0.5712
 3025TIP3    H230491   5.657   1.517   1.408 -0.3090  0.0758 -0.3121
 3026TIP3   OH230492   0.001   1.108   0.832 -0.0627 -0.1887  0.0304
 3026TIP3    H130493  -0.048   1.139   0.909 -0.5644 -1.3535  0.1928
 3026TIP3    H230494  -0.055   1.040   0.794  0.8338 -0.5990 -0.5703
 3027TIP3   OH230495   2.781   3.882  11.655 -0.0510 -0.2642  0.7452
 3027TIP3    H130496   2.831   3.807  11.622  1.1493  1.3803 -1.4314
 3027TIP3    H230497   2.846   3.939  11.695 -0.5625  0.7456  0.1706
 3028TIP3   OH230498   0.648   2.452  14.461  0.5090  0.9306  0.5553
 3028TIP3    H130499   0.733   2.463  14.418 -0.5231  1.9348 -1.3517
 3028TIP3    H230500   0.590   2.417  14.393 -0.7492  0.7750  1.6577
 3029TIP3   OH230501   4.873   2.493   3.898 -0.0133 -0.3636 -0.4720
 3029TIP3    H130502   4.786   2.525   3.925 -0.3635 -0.0944 -1.8308
 3029TIP3    H230503   4.854   2.425   3.834  0.7886 -0.9731 -0.0797
 3030TIP3   OH230504   3.872   6.049   4.591  0.4806  0.1843  0.0840
 3030TIP3    H130505   3.812   6.021   4.660  0.4695  0.6451  0.2583
 3030TIP3    H230506   3.940   5.981   4.589 -0.0091 -0.3143 -0.0759
 3031TIP3   OH230507   3.277   3.065  17.045 -0.0891  0.6162  0.3184
 3031TIP3    H130508   3.269   3.024  16.959  0.6661  0.0706  0.5020
 3031TIP3    H230509   3.329   3.144  17.030 -3.3262  2.8142 -0.4323
 3032TIP3   OH230510   1.309   1.387   5.085  0.0785 -0.2452  0.2421
 3032TIP3    H130511   1.228   1.358   5.128 -0.0014  1.1836  1.1186
 3032TIP3    H230512   1.289   1.379   4.991 -1.2208  0.3947  0.4314
 3033TIP3   OH230513   2.346   1.006  16.908  0.3773  0.0802  0.0142
 3033TIP3    H130514   2.431   0.982  16.946 -0.3293 -1.4358  0.7143
 3033TIP3    H230515   2.362   1.091  16.866  1.9563  0.3561  1.0798
 3034TIP3   OH230516   4.085   5.354   1.083  0.3609 -0.2612  0.8863
 3034TIP3    H130517   4.069   5.321   0.995  0.4791 -1.2784  1.2289
 3034TIP3    H230518   4.071   5.449   1.076  0.1438 -0.3529 -0.1638
 3035TIP3   OH230519   0.451   4.133  13.330 -0.4707 -0.4827 -0.6962
 3035TIP3    H130520   0.469   4.040  13.343 -2.4578 -1.0082 -1.3079
 3035TIP3    H230521   0.504   4.158  13.254  1.2206 -0.6962  0.3745
 3036TIP3   OH230522   2.754   1.859  16.416  0.0498  0.0842  0.5858
 3036TIP3    H130523   2.781   1.772  16.386 -3.7031 -1.4818  1.1875
 3036TIP3    H230524   2.790   1.919  16.351  1.5287 -2.0370 -0.6798
 3037TIP3   OH230525   4.151   2.478  12.532  0.1931 -0.0615  0.0311
 3037TIP3    H130526   4.212   2.410  12.504 -0.3083 -0.8731  0.8636
 3037TIP3    H230527   4.065   2.440  12.519 -0.0745 -0.0067  1.4958
 3038TIP3   OH230528   0.963   4.240   5.830 -0.1920  0.2742  0.8983
 3038TIP3    H130529   0.971   4.145   5.834 -1.0104  0.2361  1.9627
 3038TIP3    H230530   0.913   4.264   5.908 -0.1367  1.5660  0.5669
 3039TIP3   OH230531   1.058   2.129  10.587 -0.2925  0.8153  0.2057
 3039TIP3    H130532   1.045   2.178  10.668 -1.5624  0.8948 -0.0217
 3039TIP3    H230533   0.994   2.058  10.591  1.8321 -1.2061  0.7576
 3040TIP3   OH230534   6.059   3.296  13.179  0.3565 -0.3274 -0.1800
 3040TIP3    H130535   6.133   3.237  13.193 -0.6576 -1.2791  1.4359
 3040TIP3    H230536   6.061   3.355  13.255  1.0981  1.5106 -1.5426
 3041TIP3   OH230537   3.720   4.173   5.147  0.9087  0.0868 -0.6691
 3041TIP3    H130538   3.644   4.188   5.091  0.7061 -0.1515 -0.4598
 3041TIP3    H230539   3.795   4.186   5.089  0.6856 -1.6070 -1.3900
 3042TIP3   OH230540   1.560   6.739  14.945  0.1528 -0.0153 -0.1923
 3042TIP3    H130541   1.525   6.777  14.864  1.0863  0.3238 -0.4561
 3042TIP3    H230542   1.529   6.797  15.014 -1.3675 -0.7894 -0.1970
 3043TIP3   OH230543   0.086   4.140   2.144 -0.0065 -0.2115 -0.0596
 3043TIP3    H130544   0.132   4.059   2.160 -1.1213 -0.7424  0.5857
 3043TIP3    H230545   0.150   4.197   2.100  0.7375 -1.4739 -0.6510
 3044TIP3   OH230546   3.868   2.224  15.937  0.0205  1.0316  0.2331
 3044TIP3    H130547   3.855   2.228  16.031  0.0085 -0.1309  0.2980
 3044TIP3    H230548   3.784   2.196  15.902  0.1118  1.1537 -0.0896
 3045TIP3   OH230549   6.078   5.760   1.118 -0.1113  0.1260 -0.4983
 3045TIP3    H130550   6.105   5.732   1.206  0.4216  0.9153 -0.3977
 3045TIP3    H230551   6.034   5.684   1.081 -1.5870  0.1990  0.9598
 3046TIP3   OH230552   5.403   3.640  11.334  0.0459  0.0072  0.6949
 3046TIP3    H130553   5.370   3.667  11.248 -0.1023 -1.6478  0.1911
 3046TIP3    H230554   5.332   3.658  11.394  1.0311  3.5735  0.9977
 3047TIP3   OH230555   5.556   6.358   0.930  0.0452 -0.0090 -1.0417
 3047TIP3    H130556   5.537   6.297   1.001  0.7891 -0.8698 -1.5527
 3047TIP3    H230557   5.473   6.402   0.912 -1.1763 -2.6318 -2.2982
 3048TIP3   OH230558   2.795   1.284   5.188 -0.6323  0.1702 -0.8950
 3048TIP3    H130559   2.861   1.222   5.155 -0.2518  0.4609 -0.6843
 3048TIP3    H230560   2.732   1.228   5.235  0.4264  0.0544  0.4739
 3049TIP3   OH230561   4.933   5.781   1.977 -0.0850 -0.0888  0.1984
 3049TIP3    H130562   4.847   5.802   2.012 -0.7317  0.3436 -1.5591
 3049TIP3    H230563   4.951   5.692   2.008 -1.2186 -0.2387  0.4503
 3050TIP3   OH230564   4.643   0.612   1.888 -0.2266 -0.4833  0.2511
 3050TIP3    H130565   4.548   0.611   1.888 -0.2267 -0.5927 -0.2854
 3050TIP3    H230566   4.666   0.704   1.872 -0.2387 -0.4417  0.4650
 3051TIP3   OH230567   5.217   5.038   2.141 -0.1761 -0.2836 -0.2748
 3051TIP3    H130568   5.121   5.045   2.144 -0.1886 -0.3129 -0.5638
 3051TIP3    H230569   5.234   4.952   2.105 -0.0228 -1.0457  1.5187
 3052TIP3   OH230570   4.151   6.703   5.773  0.1179 -0.2065  0.0675
 3052TIP3    H130571   4.209   6.672   5.704 -2.4874 -0.3742 -2.2602
 3052TIP3    H230572   4.170   6.647   5.848  1.7990 -1.3075 -1.1171
 3053TIP3   OH230573   3.123   0.409   5.082 -0.4915  0.2183  0.1608
 3053TIP3    H130574   3.074   0.486   5.055  0.8194  0.3933 -2.0087
 3053TIP3    H230575   3.070   0.369   5.151 -0.7710  3.4950  2.0038
 3054TIP3   OH230576   2.653   1.626  17.181 -0.3430 -0.2035 -0.0436
 3054TIP3    H130577   2.571   1.670  17.157 -0.4794 -0.5027 -0.1278
 3054TIP3    H230578   2.721   1.679  17.140 -0.4453  0.4669  0.6353
 3055TIP3   OH230579   6.760   6.030   5.118  0.3221  0.5426  0.1989
 3055TIP3    H130580   6.781   5.940   5.142  1.0218 -0.3717 -3.2686
 3055TIP3    H230581   6.666   6.029   5.101  0.3953  0.3778 -0.1917
 3056TIP3   OH230582   0.526   6.121  12.772 -0.0622  0.3075 -0.0875
 3056TIP3    H130583   0.485   6.035  12.767  0.5160 -0.2096  2.5020
 3056TIP3    H230584   0.581   6.116  12.851  0.8495  2.6889 -0.5066
 3057TIP3   OH230585   1.781   4.692  12.651  0.5665 -0.1516  0.6598
 3057TIP3    H130586   1.833   4.613  12.669  1.9837  0.9399  1.5398
 3057TIP3    H230587   1.795   4.748  12.726 -0.1169  1.1138 -0.1246
 3058TIP3   OH230588   4.967   6.674   0.594 -0.4252 -0.1366 -0.0648
 3058TIP3    H130589   5.048   6.624   0.597 -0.9978 -1.2886 -1.9142
 3058TIP3    H230590   4.940   6.670   0.502 -1.7323  1.5968  0.2000
 3059TIP3   OH230591   5.339   3.909   0.302  0.2403 -0.2633 -0.0370
 3059TIP3    H130592   5.320   3.879   0.391 -0.6646  1.6970  0.4885
 3059TIP3    H230593   5.420   3.959   0.311 -0.3188  0.6786 -0.1146
 3060TIP3   OH230594   3.736   4.545   2.459  0.0346 -0.4364 -0.0404
 3060TIP3    H130595   3.793   4.485   2.411 -1.0338 -2.9388  1.6314
 3060TIP3    H230596   3.722   4.618   2.399  1.9376 -1.5122 -1.9266
 3061TIP3   OH230597   4.421   6.361   3.244  0.1310 -0.3757  0.2731
 3061TIP3    H130598   4.372   6.310   3.179  0.9852  0.4389 -1.0617
 3061TIP3    H230599   4.411   6.452   3.216  0.4657  0.0066  1.3355
 3062TIP3   OH230600   6.441   2.572  11.489  0.3385 -0.2824  0.6615
 3062TIP3    H130601   6.496   2.531  11.422  1.1996  1.2542  0.3794
 3062TIP3    H230602   6.386   2.501  11.521  1.3967 -1.5310 -0.1662
 3063TIP3   OH230603   1.657   6.076   0.305 -0.1530 -0.9570 -0.3788
 3063TIP3    H130604   1.600   6.078   0.382 -1.2936  1.1162 -1.1791
 3063TIP3    H230605   1.712   6.154   0.315  0.7718 -1.5341 -0.8918
 3064TIP3   OH230606   3.839   0.107   1.712  0.3902  0.2383 -0.0601
 3064TIP3    H130607   3.859   0.199   1.728  1.9389  0.1574 -1.2004
 3064TIP3    H230608   3.917   0.073   1.668 -1.1034 -0.9963 -1.9342
 3065TIP3   OH230609   3.111   4.670  15.497  0.1929  0.0559 -0.0062
 3065TIP3    H130610   3.190   4.713  15.465  0.2134 -0.0757 -0.1350
 3065TIP3    H230611   3.131   4.648  15.588  0.2185  0.2296  0.0302
 3066TIP3   OH230612   5.374   3.961   1.613  0.0110 -0.3312  0.0088
 3066TIP3    H130613   5.378   3.939   1.706  3.6575 -1.0815 -0.1987
 3066TIP3    H230614   5.388   3.878   1.568  0.9190  0.4207 -1.1367
 3067TIP3   OH230615   6.286   1.716   1.584 -0.4079 -0.1445  0.1451
 3067TIP3    H130616   6.333   1.766   1.518  0.9170  0.5659  1.5713
 3067TIP3    H230617   6.301   1.624   1.560  0.4044  0.0948 -0.2929
 3068TIP3   OH230618   0.197   3.004   3.830 -0.3497 -0.5335 -0.3166
 3068TIP3    H130619   0.131   3.059   3.873 -1.0718 -0.5957 -1.3171
 3068TIP3    H230620   0.165   2.914   3.844  1.1960 -0.8241  1.9417
 3069TIP3   OH230621   0.479   4.505  13.634  0.2922  0.4042 -0.3149
 3069TIP3    H130622   0.422   4.484  13.559  1.6301 -0.6104 -1.0981
 3069TIP3    H230623   0.459   4.596  13.655 -2.5771 -0.2779  0.3192
 3070TIP3   OH230624   0.952   6.094  11.063  0.0418  0.0359  0.3883
 3070TIP3    H130625   1.003   6.045  10.998 -0.4581  1.5924 -1.2712
 3070TIP3    H230626   1.008   6.097  11.140  1.1868 -0.8460 -0.3743
 3071TIP3   OH230627   2.000   3.456  16.907  0.2731 -0.2631  0.2146
 3071TIP3    H130628   2.094   3.477  16.908 -0.0961  1.6225  0.4840
 3071TIP3    H230629   1.988   3.401  16.830  1.7815 -1.5859  0.8678
 3072TIP3   OH230630   5.484   5.758  12.763  0.2507  0.5850  0.2893
 3072TIP3    H130631   5.403   5.766  12.815  0.2095  0.7848  0.1924
 3072TIP3    H230632   5.478   5.671  12.724  0.8097 -0.0436  1.5230
 3073TIP3   OH230633   2.046   3.771   1.410 -0.5836  0.0031  0.0244
 3073TIP3    H130634   2.142   3.769   1.411 -0.4958  1.2684 -1.3413
 3073TIP3    H230635   2.019   3.680   1.400  0.4641 -0.4024  0.8236
 3074TIP3   OH230636   5.632   0.162   2.091 -0.0144  0.1747  0.6087
 3074TIP3    H130637   5.682   0.238   2.121 -0.4319  0.4143  0.7025
 3074TIP3    H230638   5.646   0.096   2.158  1.1072 -0.1556  0.0731
 3075TIP3   OH230639   2.464   1.367  16.277  0.0211 -0.5616 -0.0170
 3075TIP3    H130640   2.407   1.378  16.352  0.1868 -2.5922  0.4512
 3075TIP3    H230641   2.484   1.273  16.274  0.3278 -0.5012 -2.3602
 3076TIP3   OH230642   4.625   5.346  11.524  0.4281  0.3368  0.1478
 3076TIP3    H130643   4.612   5.292  11.446 -3.0676  0.1273  0.7059
 3076TIP3    H230644   4.598   5.434  11.497  2.1211  0.9648  0.3727
 3077TIP3   OH230645   1.020   2.672   4.118 -0.6414  0.1101  0.4773
 3077TIP3    H130646   0.971   2.681   4.200 -2.0179  0.0615 -0.3146
 3077TIP3    H230647   0.962   2.709   4.051  0.4831  0.2035 -0.4727
 3078TIP3   OH230648   1.067   4.563  17.206  0.1874 -0.0770  0.1495
 3078TIP3    H130649   1.078   4.468  17.206  0.5470 -0.0407  0.6975
 3078TIP3    H230650   1.032   4.584  17.292  0.3964  0.3203  0.1425
 3079TIP3   OH230651   4.713   5.405  14.657 -0.3979  0.1016  0.1687
 3079TIP3    H130652   4.696   5.494  14.686 -1.0826  0.1746 -0.4171
 3079TIP3    H230653   4.757   5.416  14.572 -2.7051 -0.0791 -1.1394
 3080TIP3   OH230654   2.791   4.044  14.461  0.0410 -0.0038  0.5045
 3080TIP3    H130655   2.758   4.128  14.430 -0.8140  0.5690  2.7471
 3080TIP3    H230656   2.883   4.061  14.482  0.0859  0.1512  0.1885
 3081TIP3   OH230657   3.619   1.374  16.227 -0.0275 -0.1806  0.1466
 3081TIP3    H130658   3.704   1.405  16.195 -1.1305  1.9476 -0.9773
 3081TIP3    H230659   3.629   1.371  16.322  1.0134  1.0493  0.1046
 3082TIP3   OH230660   6.628   4.828   0.764  0.4226 -0.0654 -0.6022
 3082TIP3    H130661   6.661   4.881   0.837 -1.8494 -0.4120  0.7909
 3082TIP3    H230662   6.656   4.875   0.686 -0.0700  2.3324  0.5548
 3083TIP3   OH230663   1.292   5.469   3.284 -0.0649  0.6093 -0.6643
 3083TIP3    H130664   1.230   5.477   3.212  0.8933 -1.3097 -1.7571
 3083TIP3    H230665   1.247   5.511   3.358 -1.9323  0.7827 -1.8319
 3084TIP3   OH230666   1.520   1.785   1.263  0.2129 -0.2941 -0.1012
 3084TIP3    H130667   1.561   1.764   1.178  1.2208  0.3886  0.1937
 3084TIP3    H230668   1.525   1.703   1.312  1.5965 -0.1523  0.0520
 3085TIP3   OH230669   2.427   3.635  17.065  0.3088  0.3887 -0.4334
 3085TIP3    H130670   2.397   3.715  17.109 -1.3473 -0.2493 -0.3240
 3085TIP3    H230671   2.509   3.613  17.108 -0.1856  0.9816  0.8516
 3086TIP3   OH230672   6.563   0.877  12.929 -0.1745 -0.4293  0.2169
 3086TIP3    H130673   6.585   0.953  12.984 -2.2950  0.5431 -0.1834
 3086TIP3    H230674   6.566   0.803  12.989  1.7113 -0.0520  0.6763
 3087TIP3   OH230675   6.728   0.592   2.589 -0.2941 -0.5266 -0.7583
 3087TIP3    H130676   6.726   0.683   2.561 -0.8583 -0.5017 -0.6461
 3087TIP3    H230677   6.759   0.596   2.680 -0.6331 -0.4204 -0.6479
 3088TIP3   OH230678   0.702   3.675  15.808 -0.1608  0.1123  0.0806
 3088TIP3    H130679   0.608   3.675  15.826 -0.1664 -0.1400  0.0461
 3088TIP3    H230680   0.719   3.763  15.773 -0.3391  0.2403  0.3107
 3089TIP3   OH230681   2.724   5.263   4.639  0.3063 -0.5576  0.1477
 3089TIP3    H130682   2.795   5.257   4.576 -1.0445 -1.1047 -1.3832
 3089TIP3    H230683   2.750   5.202   4.709  0.9200 -1.4660 -0.8332
 3090TIP3   OH230684   5.081   2.495  11.234  0.1073 -0.1135  0.1182
 3090TIP3    H130685   5.065   2.585  11.263 -0.8290 -0.3541  0.3557
 3090TIP3    H230686   5.021   2.483  11.160 -0.7705 -0.9978  0.9587
 3091TIP3   OH230687   3.638   6.236   4.262 -0.6724  0.1477  0.0176
 3091TIP3    H130688   3.664   6.327   4.247 -0.4842  0.4324  1.8152
 3091TIP3    H230689   3.651   6.223   4.356 -1.8889 -1.3628  0.0104
 3092TIP3   OH230690   0.683   5.820  11.861  0.5797 -0.4475  0.5349
 3092TIP3    H130691   0.738   5.823  11.939  0.8310 -1.9547  0.4503
 3092TIP3    H230692   0.737   5.860  11.793 -0.4528  2.8973  1.5189
 3093TIP3   OH230693   5.721   2.569  16.117  0.2771 -0.3177 -0.5408
 3093TIP3    H130694   5.760   2.541  16.035  1.9438 -0.2606  0.2017
 3093TIP3    H230695   5.747   2.660  16.127  1.4213 -0.7530  0.7753
 3094TIP3   OH230696   6.265   4.753  12.771  0.1803 -0.0033  0.0982
 3094TIP3    H130697   6.170   4.743  12.780  0.0682 -0.3662 -1.2712
 3094TIP3    H230698   6.296   4.664  12.752  0.6005  0.3370 -0.8797
 3095TIP3   OH230699   5.652   0.265  14.607 -0.4399  0.1694  0.5036
 3095TIP3    H130700   5.695   0.250  14.522 -0.9142  0.1004  0.2719
 3095TIP3    H230701   5.596   0.189  14.618  2.0304 -1.5529  2.4351
 3096TIP3   OH230702   2.907   5.494   0.701  0.9827  0.6238  0.5446
 3096TIP3    H130703   2.930   5.432   0.632  1.6387  0.2350  1.1017
 3096TIP3    H230704   2.892   5.577   0.655 -0.3701 -0.0379 -0.2640
 3097TIP3   OH230705   2.020   1.973  15.051 -0.2554 -0.2211 -0.0826
 3097TIP3    H130706   1.966   1.985  15.129  1.6249 -0.4928  1.3309
 3097TIP3    H230707   2.006   1.881  15.026  0.3912 -0.6086  0.9443
 3098TIP3   OH230708   4.939   2.547  12.986  0.8847 -0.3141 -0.0429
 3098TIP3    H130709   4.911   2.611  13.051  0.7751 -1.1961  0.8085
 3098TIP3    H230710   4.900   2.464  13.016  1.0149 -0.7787 -1.1140
 3099TIP3   OH230711   5.734   2.176   6.084  0.6515 -0.1067  0.5405
 3099TIP3    H130712   5.654   2.138   6.119  0.1306  0.4189 -0.0699
 3099TIP3    H230713   5.796   2.102   6.081  0.4337 -0.3539  1.7048
 3100TIP3   OH230714   0.595   6.495  11.123  0.1290  0.0175 -0.8610
 3100TIP3    H130715   0.687   6.469  11.127  0.1564  0.2797  0.6621
 3100TIP3    H230716   0.559   6.441  11.052  1.1739 -0.9812 -0.6764
 3101TIP3   OH230717   1.328   5.762   0.279 -0.0094  0.2924 -0.7041
 3101TIP3    H130718   1.347   5.668   0.278  1.9016  0.6083 -3.4775
 3101TIP3    H230719   1.279   5.775   0.360 -2.4684 -3.4614 -1.3393
 3102TIP3   OH230720   1.108   2.039   3.252 -0.2605  0.8218 -0.0460
 3102TIP3    H130721   1.098   2.093   3.330  1.5806  1.9784 -0.5359
 3102TIP3    H230722   1.044   1.969   3.262  0.4332  0.4896  2.8713
 3103TIP3   OH230723   1.597   5.197  16.830 -0.0593  0.2349 -0.0911
 3103TIP3    H130724   1.563   5.109  16.813 -0.1917  0.6431 -2.2707
 3103TIP3    H230725   1.652   5.188  16.907 -3.7758 -0.7964  2.7086
 3104TIP3   OH230726   6.168   5.824  11.586  0.0906 -0.2032  0.3766
 3104TIP3    H130727   6.114   5.863  11.655  0.2041 -2.6943  2.0093
 3104TIP3    H230728   6.255   5.816  11.626  0.6009 -0.1441 -0.6967
 3105TIP3   OH230729   0.699   1.073  16.051  0.3534  0.2513 -0.2926
 3105TIP3    H130730   0.783   1.088  16.094 -0.1195 -0.4221  0.9371
 3105TIP3    H230731   0.719   1.074  15.958  1.5688  0.9533 -0.0492
 3106TIP3   OH230732   4.718   1.164   6.003  0.3655  0.0420  0.6322
 3106TIP3    H130733   4.680   1.138   6.087 -1.0358  1.5758  0.5295
 3106TIP3    H230734   4.783   1.230   6.025  0.3680  0.0665  0.5539
 3107TIP3   OH230735   6.586   2.341   2.608 -0.7519  0.3223 -0.0519
 3107TIP3    H130736   6.592   2.323   2.702 -1.0169  0.8502  0.0668
 3107TIP3    H230737   6.656   2.289   2.569  0.7672  1.7630  0.6649
 3108TIP3   OH230738   2.713   4.336   3.733 -0.1544 -0.0776  0.0600
 3108TIP3    H130739   2.692   4.417   3.685 -2.0366 -0.0217  0.8979
 3108TIP3    H230740   2.774   4.364   3.801 -0.8978  0.6857  0.4295
 3109TIP3   OH230741   6.719   4.098  11.136 -0.4087 -0.0937 -0.1560
 3109TIP3    H130742   6.723   4.186  11.174 -0.7757  0.5738 -1.5678
 3109TIP3    H230743   6.723   4.039  11.211  0.5057  1.1094  0.7897
 3110TIP3   OH230744   1.637   1.486  11.596  0.1623  0.6283  0.1870
 3110TIP3    H130745   1.560   1.516  11.549 -0.8995  1.8475  2.5296
 3110TIP3    H230746   1.693   1.448  11.529 -2.0997  0.4415 -1.7234
 3111TIP3   OH230747   5.038   5.150  16.672 -0.1500  0.2228  0.4463
 3111TIP3    H130748   5.025   5.130  16.579 -0.1913 -0.4959  0.5988
 3111TIP3    H230749   4.951   5.176  16.703 -0.8286 -2.2796  0.9172
 3112TIP3   OH230750   0.151   6.486   1.604  0.0303  0.3467  0.0398
 3112TIP3    H130751   0.195   6.454   1.525 -0.8158 -0.6402 -0.0529
 3112TIP3    H230752   0.158   6.581   1.598  0.2949  0.2797 -1.0438
 3113TIP3   OH230753   2.427   6.314  14.603  0.3550  0.2099  0.1741
 3113TIP3    H130754   2.359   6.269  14.552  1.6280  0.9313 -2.3404
 3113TIP3    H230755   2.485   6.243  14.632  0.2530 -0.1328 -0.4328
 3114TIP3   OH230756   6.511   1.892   5.982  0.5406 -0.3372 -0.2562
 3114TIP3    H130757   6.493   1.828   6.051 -0.9618  0.4663  0.1397
 3114TIP3    H230758   6.581   1.947   6.017  0.3248 -0.4181  0.3094
 3115TIP3   OH230759   3.048   4.931   0.576  0.2538 -0.3147 -0.2982
 3115TIP3    H130760   3.009   4.873   0.510  2.4163 -1.6881 -0.4822
 3115TIP3    H230761   2.985   5.002   0.586 -1.3255 -1.3847 -1.9635
 3116TIP3   OH230762   0.113   5.825   3.103  0.2335 -0.5103 -0.1451
 3116TIP3    H130763   0.208   5.814   3.108  0.1410 -1.0550  0.4364
 3116TIP3    H230764   0.087   5.774   3.026  0.5706  0.8142 -1.1953
 3117TIP3   OH230765   5.493   1.273  14.977  0.1475  0.3247 -0.2555
 3117TIP3    H130766   5.537   1.261  15.062 -2.3378  1.4787  1.3306
 3117TIP3    H230767   5.466   1.185  14.951  0.7935 -0.0285  0.2254
 3118TIP3   OH230768   6.210   1.568  11.005 -0.0179  0.4979 -0.2366
 3118TIP3    H130769   6.180   1.646  11.051 -1.3684  0.8909 -1.6951
 3118TIP3    H230770   6.259   1.602  10.930  3.6738 -0.1146  1.6504
 3119TIP3   OH230771   0.245   2.138   2.362 -0.1034 -0.3286  0.1791
 3119TIP3    H130772   0.245   2.195   2.285  1.2552  0.3953  0.6850
 3119TIP3    H230773   0.159   2.154   2.402 -0.9721 -0.9721 -1.3291
 3120TIP3   OH230774   0.602   5.714  10.979 -0.1903  0.4589 -0.6324
 3120TIP3    H130775   0.576   5.622  10.983 -0.3358  0.4516 -1.4475
 3120TIP3    H230776   0.521   5.763  10.994 -0.1638  0.4558 -0.4748
 3121TIP3   OH230777   1.247   0.175  13.337  0.6498  0.2889 -0.1506
 3121TIP3    H130778   1.253   0.248  13.275  0.8228 -0.1355 -0.6291
 3121TIP3    H230779   1.202   0.106  13.290  0.0965  0.2283  0.4508
 3122TIP3   OH230780   4.303   1.300   1.446  0.2294 -0.1205 -0.4528
 3122TIP3    H130781   4.254   1.306   1.527  1.5178  1.9021  0.2509
 3122TIP3    H230782   4.304   1.206   1.425 -2.4322 -0.4230  0.3504
 3123TIP3   OH230783   5.433   1.172   3.230  0.5311 -0.0753  0.0442
 3123TIP3    H130784   5.435   1.106   3.160 -0.0295  0.1499 -0.1932
 3123TIP3    H230785   5.458   1.124   3.309  2.2943 -0.0829 -0.4923
 3124TIP3   OH230786   3.981   5.810   0.883  0.0869 -0.0835  0.6171
 3124TIP3    H130787   3.886   5.807   0.894 -0.3761 -0.5174 -2.5051
 3124TIP3    H230788   4.001   5.904   0.875 -0.4957 -0.0576 -1.0050
 3125TIP3   OH230789   6.442   1.069   2.100  0.0656  0.0199 -0.0759
 3125TIP3    H130790   6.432   1.103   2.189 -0.5534  1.2828 -0.5928
 3125TIP3    H230791   6.356   1.035   2.077  0.2131 -0.2687 -0.1986
 3126TIP3   OH230792   0.778   1.090   6.085  0.3698  0.1150 -0.0600
 3126TIP3    H130793   0.713   1.159   6.092  1.3152  1.0106  0.0871
 3126TIP3    H230794   0.806   1.073   6.175  0.9827  0.3691 -0.1986
 3127TIP3   OH230795   6.461   5.676   6.208 -0.2221  0.1185  0.0576
 3127TIP3    H130796   6.430   5.700   6.121 -0.2248  0.1021  0.0538
 3127TIP3    H230797   6.380   5.657   6.257 -0.1905 -0.6946 -0.1787
 3128TIP3   OH230798   0.899   3.201  10.540  0.3404  0.4007 -0.4224
 3128TIP3    H130799   0.859   3.198  10.453  3.5441 -1.1771 -2.0312
 3128TIP3    H230800   0.894   3.111  10.572  2.4100  0.1267 -0.7060
 3129TIP3   OH230801   5.842   4.283   3.425 -0.9356 -0.0399 -0.0142
 3129TIP3    H130802   5.905   4.306   3.494 -2.3119 -0.6671  1.5137
 3129TIP3    H230803   5.874   4.201   3.389 -0.3469  0.1585  0.0465
 3130TIP3   OH230804   4.405   4.668   1.329  0.2658 -0.3832  0.3661
 3130TIP3    H130805   4.436   4.696   1.416 -0.8485  0.0733  0.6233
 3130TIP3    H230806   4.427   4.741   1.271 -1.9780  0.8079  0.9032
 3131TIP3   OH230807   6.725   3.326  13.140  0.4694 -0.3249  0.4014
 3131TIP3    H130808   6.664   3.254  13.129  0.1778 -0.1576  0.9149
 3131TIP3    H230809   6.679   3.389  13.196  0.9068  0.0364  0.3608
 3132TIP3   OH230810   0.604   5.590  17.320 -0.0626  0.4246 -0.0655
 3132TIP3    H130811   0.682   5.586  17.375 -0.6644  1.3671  0.9038
 3132TIP3    H230812   0.624   5.534  17.245  0.7496 -0.9857  1.1516
 3133TIP3   OH230813   6.174   0.355   4.789  0.1344 -0.3476  0.0267
 3133TIP3    H130814   6.155   0.438   4.746  0.6481 -0.3669 -0.2438
 3133TIP3    H230815   6.267   0.360   4.812  0.1364 -0.7924  0.1283
 3134TIP3   OH230816   3.993   6.519   0.934 -0.5004 -0.1130 -0.1313
 3134TIP3    H130817   3.900   6.513   0.914 -0.3899 -0.7647 -0.4641
 3134TIP3    H230818   4.029   6.574   0.864 -0.0626 -2.6227 -2.0064
 3135TIP3   OH230819   2.542   4.940   5.530  0.3941 -0.2056  0.0113
 3135TIP3    H130820   2.455   4.964   5.562 -0.1839 -1.8758 -0.2097
 3135TIP3    H230821   2.602   4.982   5.591 -0.5354  1.4644 -0.1733
 3136TIP3   OH230822   3.165   2.426  13.997  0.5654 -0.4895  0.2378
 3136TIP3    H130823   3.108   2.350  14.004 -0.1951 -0.1314 -1.5801
 3136TIP3    H230824   3.147   2.477  14.076 -3.5451  0.8502 -1.3469
 3137TIP3   OH230825   4.201   3.601  16.765 -0.3675 -0.1143  0.1956
 3137TIP3    H130826   4.226   3.692  16.747  0.1701  0.2076  2.3107
 3137TIP3    H230827   4.278   3.550  16.743 -0.0974  0.1408  0.5410
 3138TIP3   OH230828   2.352   6.274   1.325  0.0300  0.6125 -0.2328
 3138TIP3    H130829   2.298   6.248   1.400  0.8576 -1.8533 -0.4168
 3138TIP3    H230830   2.435   6.302   1.363  0.1606  0.1624 -0.1892
 3139TIP3   OH230831   5.679   5.543  14.403 -0.1974 -0.2247  0.6256
 3139TIP3    H130832   5.737   5.618  14.396  1.3143 -1.5022 -2.2501
 3139TIP3    H230833   5.711   5.495  14.479  2.1642 -0.4914 -0.4403
 3140TIP3   OH230834   4.877   6.630   2.706  0.1277  0.2201  0.5366
 3140TIP3    H130835   4.825   6.634   2.626 -0.2308 -1.9805  0.5961
 3140TIP3    H230836   4.827   6.571   2.764  2.0210 -0.9255  1.0790
 3141TIP3   OH230837   1.814   1.960  10.966  0.0936 -0.6127 -0.6734
 3141TIP3    H130838   1.848   2.049  10.955  1.0880 -0.9241 -0.1833
 3141TIP3    H230839   1.821   1.920  10.880 -0.6441 -0.1294 -0.9707
 3142TIP3   OH230840   1.846   5.653  13.929  0.0833  0.5505 -0.1275
 3142TIP3    H130841   1.914   5.623  13.989 -2.4011 -0.1987  2.5452
 3142TIP3    H230842   1.830   5.578  13.872 -0.4821 -0.3955  1.2049
 3143TIP3   OH230843   5.034   2.863  16.712  0.1240 -0.2574  0.2366
 3143TIP3    H130844   4.955   2.917  16.721  1.7652  2.6293 -1.0123
 3143TIP3    H230845   5.050   2.861  16.617  1.4873 -0.8227  0.4626
 3144TIP3   OH230846   0.295   2.899   6.366 -0.0063 -0.2031  0.4928
 3144TIP3    H130847   0.282   2.970   6.304 -0.4954 -0.8176 -0.1201
 3144TIP3    H230848   0.387   2.874   6.356 -0.1934 -0.5948 -0.3088
 3145TIP3   OH230849   3.384   5.995   5.652  0.0364 -0.6521 -0.2148
 3145TIP3    H130850   3.367   5.984   5.746  0.1789 -0.9152 -0.2198
 3145TIP3    H230851   3.419   6.084   5.645  0.6136 -0.8511  0.0655
 3146TIP3   OH230852   6.298   2.194  16.500 -0.4692 -0.0914 -0.9205
 3146TIP3    H130853   6.284   2.105  16.468 -2.5341 -0.1631  0.0361
 3146TIP3    H230854   6.237   2.248  16.451 -0.4363  0.5223 -0.3003
 3147TIP3   OH230855   1.287   2.864   3.022  0.7422 -0.5357 -0.0302
 3147TIP3    H130856   1.264   2.941   2.971  1.2955  0.2723  0.9060
 3147TIP3    H230857   1.376   2.882   3.053  0.0613 -0.5149  2.0701
 3148TIP3   OH230858   3.662   1.763   2.720 -0.2933 -0.5465  0.3055
 3148TIP3    H130859   3.695   1.680   2.687 -0.0966 -1.0424  1.6698
 3148TIP3    H230860   3.694   1.828   2.658 -1.9650 -1.6245 -1.8191
 3149TIP3   OH230861   4.289   2.156   0.175 -0.7318  0.1064 -0.5937
 3149TIP3    H130862   4.342   2.223   0.131 -0.3011 -0.4875 -0.9970
 3149TIP3    H230863   4.202   2.196   0.184 -0.7997  0.3082 -1.8779
 3150TIP3   OH230864   1.816   0.312  11.973 -0.0605 -0.1138  0.4113
 3150TIP3    H130865   1.751   0.243  11.960  1.3372 -1.1155 -2.0376
 3150TIP3    H230866   1.778   0.370  12.039 -2.5793 -1.6288  0.3956
 3151TIP3   OH230867   3.123   3.387  14.694 -0.3840 -0.2084 -0.1843
 3151TIP3    H130868   3.072   3.457  14.733  2.0285  1.4083  0.2698
 3151TIP3    H230869   3.081   3.306  14.725 -2.7308  0.9833 -0.0568
 3152TIP3   OH230870   0.784   1.964  12.248  1.0090 -0.2141 -0.5660
 3152TIP3    H130871   0.722   1.911  12.199  1.8491 -1.7995  0.0121
 3152TIP3    H230872   0.870   1.935  12.218  1.6101  2.9222 -2.4079
 3153TIP3   OH230873   3.487   5.023   0.875  0.3067 -0.3667  0.2724
 3153TIP3    H130874   3.407   5.029   0.927 -1.1331 -3.5789 -1.2287
 3153TIP3    H230875   3.525   4.939   0.900  2.6574  0.5766  0.1174
 3154TIP3   OH230876   0.595   6.309   1.133 -0.0180 -0.1187 -0.3054
 3154TIP3    H130877   0.630   6.247   1.196  0.1484  0.9417  0.6862
 3154TIP3    H230878   0.638   6.392   1.154 -1.5150  0.7434 -0.4374
 3155TIP3   OH230879   5.338   2.973  10.913 -0.4170 -0.4422 -0.2334
 3155TIP3    H130880   5.262   2.948  10.860  0.0723 -0.3192 -1.0133
 3155TIP3    H230881   5.409   2.915  10.883 -0.1034 -0.3103  0.2280
 3156TIP3   OH230882   0.433   5.069   5.485  0.0135 -0.0952  0.0843
 3156TIP3    H130883   0.444   5.025   5.401  0.1400  1.4552 -0.7686
 3156TIP3    H230884   0.339   5.084   5.493  0.0209 -0.0583  0.1056
 3157TIP3   OH230885   6.371   4.422   3.002 -0.0897 -0.5792 -0.3475
 3157TIP3    H130886   6.377   4.365   3.079 -0.4318  2.0437  1.7602
 3157TIP3    H230887   6.383   4.511   3.037 -0.5971  0.7638 -3.3000
 3158TIP3   OH230888   1.225   6.561  16.718 -0.3123  0.3572 -0.2806
 3158TIP3    H130889   1.209   6.646  16.676  0.4048  1.0690  0.8283
 3158TIP3    H230890   1.248   6.583  16.808  1.0886 -0.9521 -0.2816
 3159TIP3   OH230891   5.748   4.490   4.964  0.1926  0.1400  0.2760
 3159TIP3    H130892   5.728   4.397   4.971  0.1629  0.1510  0.3367
 3159TIP3    H230893   5.816   4.505   5.029  1.2188 -0.1312 -0.7081
 3160TIP3   OH230894   3.784   4.944  11.888  0.3019  0.0232 -0.1142
 3160TIP3    H130895   3.751   4.983  11.969 -2.5885  0.1383 -1.2454
 3160TIP3    H230896   3.803   4.853  11.912  0.7711  0.3919  0.9861
 3161TIP3   OH230897   5.914   5.620   2.073  0.6813  0.1373 -0.3625
 3161TIP3    H130898   5.888   5.710   2.090 -0.5511 -0.2918  0.1423
 3161TIP3    H230899   6.004   5.614   2.107  0.5142  0.9817  0.2576
 3162TIP3   OH230900   2.029   2.181  16.561  0.5570  0.3214 -0.0023
 3162TIP3    H130901   2.111   2.203  16.606  0.7614 -0.8427  0.2471
 3162TIP3    H230902   2.057   2.129  16.485  0.2011  2.1411 -1.4363
 3163TIP3   OH230903   0.493   3.650  15.288  0.0504  0.1459 -0.3875
 3163TIP3    H130904   0.546   3.676  15.364 -0.1905 -1.0834  0.2185
 3163TIP3    H230905   0.413   3.702  15.296  0.1060  0.1620  0.1040
 3164TIP3   OH230906   3.703   6.242  14.110 -0.0019 -0.3283 -0.1353
 3164TIP3    H130907   3.621   6.291  14.119 -0.2824 -0.5871 -1.1562
 3164TIP3    H230908   3.720   6.208  14.198 -2.1782 -2.1301 -0.3088
 3165TIP3   OH230909   0.418   6.621   1.881 -0.0023 -0.1518  0.0794
 3165TIP3    H130910   0.387   6.538   1.846  2.0022 -0.5971 -0.8025
 3165TIP3    H230911   0.359   6.640   1.954 -1.7192 -1.3255 -0.9368
 3166TIP3   OH230912   5.781   1.508   6.159 -0.5354  0.1992 -0.6239
 3166TIP3    H130913   5.862   1.506   6.108 -0.5584  0.0668 -0.6553
 3166TIP3    H230914   5.810   1.526   6.249 -0.4902  0.3761 -0.6718
 3167TIP3   OH230915   1.100   5.379   4.194  0.2113 -0.1581 -0.5329
 3167TIP3    H130916   1.015   5.345   4.164  0.9354 -1.6323 -0.9904
 3167TIP3    H230917   1.078   5.435   4.268 -0.9564 -2.8959  1.3350
 3168TIP3   OH230918   0.232   6.212   0.871 -0.0218  0.4673 -0.0401
 3168TIP3    H130919   0.156   6.268   0.889 -0.6826  0.3123 -2.0503
 3168TIP3    H230920   0.257   6.234   0.781  0.9742 -1.0127 -0.1561
 3169TIP3   OH230921   0.221   0.158  12.973 -0.3851 -0.2398  0.4126
 3169TIP3    H130922   0.128   0.141  12.961 -0.6376  0.2016  1.5963
 3169TIP3    H230923   0.265   0.083  12.931 -1.2820 -0.8301  0.5000
 3170TIP3   OH230924   6.667   6.312  14.043  0.1501  0.2470 -0.5591
 3170TIP3    H130925   6.665   6.396  13.997  1.5656 -1.0518 -3.2059
 3170TIP3    H230926   6.648   6.247  13.976 -0.9696 -1.6166  1.4277
 3171TIP3   OH230927   6.383   6.258   1.820 -0.1514  0.1879 -0.4383
 3171TIP3    H130928   6.373   6.210   1.902 -3.4111 -2.9595 -2.3598
 3171TIP3    H230929   6.468   6.230   1.785  0.8804  0.9159  1.3713
 3172TIP3   OH230930   6.055   1.360   0.203  0.1943  0.1693 -0.0784
 3172TIP3    H130931   6.074   1.266   0.216 -0.2165 -0.0771 -1.1818
 3172TIP3    H230932   5.975   1.361   0.150  0.2076  1.1507 -0.0855
 3173TIP3   OH230933   6.096   3.011  13.225 -0.1981 -0.2474  0.2104
 3173TIP3    H130934   6.069   2.943  13.287  0.1892 -0.3561  0.2620
 3173TIP3    H230935   6.029   3.008  13.156 -1.2571  0.6547  1.1802
 3174TIP3   OH230936   4.717   1.460  15.877  0.0081 -0.3126  0.4458
 3174TIP3    H130937   4.778   1.386  15.882 -0.3185 -0.6639 -0.4639
 3174TIP3    H230938   4.690   1.475  15.968 -0.8696 -2.1442  0.5408
 3175TIP3   OH230939   0.398   4.334  12.154 -0.1503 -0.5036  0.1072
 3175TIP3    H130940   0.474   4.339  12.211 -0.4536  1.3126  0.4073
 3175TIP3    H230941   0.402   4.246  12.117  2.4603 -0.2730 -0.3911
 3176TIP3   OH230942   4.145   0.683  11.958  0.0517  0.1967  0.4293
 3176TIP3    H130943   4.182   0.714  11.876  0.2393  2.6900  1.3822
 3176TIP3    H230944   4.072   0.742  11.976 -0.9545 -1.2423  1.3245
 3177TIP3   OH230945   4.654   3.665   5.871  0.3376 -0.4138 -0.1321
 3177TIP3    H130946   4.581   3.678   5.932  0.1519 -0.5130 -0.3330
 3177TIP3    H230947   4.680   3.754   5.846 -0.2944 -0.3983 -0.7470
 3178TIP3   OH230948   2.644   5.009   5.784  0.3755  0.3134  0.4678
 3178TIP3    H130949   2.714   4.944   5.788  1.0422  0.9435 -0.5140
 3178TIP3    H230950   2.585   4.985   5.855 -0.3109 -2.4106 -0.8623
 3179TIP3   OH230951   2.060   0.124  13.411  0.8035  0.1553 -0.2178
 3179TIP3    H130952   2.044   0.166  13.496  2.4304  1.0975 -0.3336
 3179TIP3    H230953   2.126   0.058  13.429  0.6626 -0.1033 -0.6362
 3180TIP3   OH230954   6.157   1.377  11.185  0.8697  0.0298  0.6447
 3180TIP3    H130955   6.207   1.300  11.155 -2.5722 -1.7774 -1.1656
 3180TIP3    H230956   6.182   1.446  11.124  0.6181 -1.0745 -0.7827
 3181TIP3   OH230957   4.049   4.780   1.268 -0.0483  0.2274  0.1134
 3181TIP3    H130958   4.099   4.703   1.294 -1.4109 -0.5065  0.7110
 3181TIP3    H230959   3.959   4.747   1.259 -0.5959  1.6851  0.0542
 3182TIP3   OH230960   2.569   5.639  15.566  0.1091  0.3128  0.4486
 3182TIP3    H130961   2.658   5.639  15.531  0.1608  2.0547  0.4737
 3182TIP3    H230962   2.548   5.546  15.577  1.8715 -0.1485  0.3513
 3183TIP3   OH230963   0.292   1.070  13.532  0.2347  0.1483  0.0007
 3183TIP3    H130964   0.385   1.092  13.533  0.7330 -1.7831 -0.0402
 3183TIP3    H230965   0.286   0.994  13.474 -1.4215  0.4127 -0.2183
 3184TIP3   OH230966   3.200   1.471  16.713 -0.1871 -0.2192  0.6816
 3184TIP3    H130967   3.129   1.530  16.738  0.6550  1.1991 -0.1590
 3184TIP3    H230968   3.240   1.446  16.796 -0.5412  0.4101  1.0536
 3185TIP3   OH230969   1.216   2.461   5.763  0.5182 -0.0308 -0.3410
 3185TIP3    H130970   1.255   2.543   5.733  2.0058 -0.7589 -0.4638
 3185TIP3    H230971   1.276   2.429   5.830 -1.5899  0.4498  1.9339
 3186TIP3   OH230972   3.859   4.112   5.809  0.5947  0.0890 -0.1519
 3186TIP3    H130973   3.844   4.049   5.880  1.0935  1.1236  0.9055
 3186TIP3    H230974   3.879   4.058   5.733  1.1134 -1.0374  0.7495
 3187TIP3   OH230975   1.167   2.356   0.557 -0.3315  0.6335  0.4070
 3187TIP3    H130976   1.140   2.264   0.556  0.0176  0.5290 -0.3675
 3187TIP3    H230977   1.157   2.385   0.466  0.7091  1.0092  0.3985
 3188TIP3   OH230978   2.262   3.321   5.089  0.0148 -0.1857 -0.3184
 3188TIP3    H130979   2.167   3.334   5.089  0.1923  1.8506  1.9957
 3188TIP3    H230980   2.285   3.319   4.996 -2.0647  1.3737 -0.9642
 3189TIP3   OH230981   4.538   4.998  16.628 -0.4687  0.1739 -0.3313
 3189TIP3    H130982   4.522   5.090  16.648 -3.9658 -0.6256  1.3170
 3189TIP3    H230983   4.628   4.982  16.658 -0.2764  2.6796  0.6852
 3190TIP3   OH230984   1.050   5.860   2.677  0.5422 -0.1108 -0.2767
 3190TIP3    H130985   1.056   5.873   2.771 -0.4786 -0.2355 -0.1837
 3190TIP3    H230986   1.134   5.821   2.653  0.5579 -0.6973  0.6826
 3191TIP3   OH230987   0.403   4.290   3.393  0.3833 -0.5441 -0.0124
 3191TIP3    H130988   0.348   4.342   3.334 -1.2266 -0.9571  1.0481
 3191TIP3    H230989   0.492   4.319   3.375 -0.4520  3.9282  1.7011
 3192TIP3   OH230990   3.844   6.697  16.788  0.1689 -0.0386 -0.1315
 3192TIP3    H130991   3.848   6.657  16.875  2.9036 -0.8702 -0.5611
 3192TIP3    H230992   3.789   6.638  16.737 -1.7512  0.6307  1.0470
 3193TIP3   OH230993   5.102   2.062  12.970 -0.4805  0.1381 -0.1565
 3193TIP3    H130994   5.145   1.984  12.936  0.4910  1.0976 -1.2045
 3193TIP3    H230995   5.068   2.036  13.056  1.6263 -0.8498  0.4235
 3194TIP3   OH230996   4.812   1.971  12.375  0.0967 -0.4879  0.5567
 3194TIP3    H130997   4.756   1.981  12.452  1.2299 -1.0776  1.4930
 3194TIP3    H230998   4.886   1.919  12.406  0.5481 -0.7909 -0.9620
 3195TIP3   OH230999   0.194   4.372  13.547  0.2417  0.7219 -0.4878
 3195TIP3    H131000   0.248   4.368  13.468 -1.2715 -0.5813 -1.4962
 3195TIP3    H231001   0.208   4.288  13.590 -0.0646  0.8598 -0.1111
 3196TIP3   OH231002   4.936   3.306  13.429  0.0354  0.0067 -0.0427
 3196TIP3    H131003   4.951   3.218  13.462  2.6019  0.6460  0.6876
 3196TIP3    H231004   4.872   3.344  13.489  1.7823 -0.1242  1.9976
 3197TIP3   OH231005   0.915   5.009   4.749  0.0787  0.6510  0.5712
 3197TIP3    H131006   0.983   4.954   4.789  1.6384  1.8615 -0.2930
 3197TIP3    H231007   0.895   5.075   4.815  1.5308  1.7222 -0.0049
 3198TIP3   OH231008   6.584   5.633   1.117 -0.3718 -0.3516  0.4753
 3198TIP3    H131009   6.678   5.615   1.122 -0.3519 -0.4587 -0.1619
 3198TIP3    H231010   6.543   5.566   1.171 -0.1411 -0.9166 -0.0328
 3199TIP3   OH231011   0.344   4.985   2.319 -0.5250 -0.1003 -0.5403
 3199TIP3    H131012   0.381   4.957   2.403 -0.0974  1.1268 -0.3016
 3199TIP3    H231013   0.253   5.008   2.339 -1.1078 -1.9429 -0.8843
 3200TIP3   OH231014   6.316   1.659  11.536  0.7783  0.4864 -0.2618
 3200TIP3    H131015   6.279   1.577  11.501  1.7579  0.5532 -1.5194
 3200TIP3    H231016   6.315   1.647  11.631  3.1411 -2.0641 -0.4255
 3201TIP3   OH231017   2.658   4.554  14.308 -0.4808  0.0361 -0.1195
 3201TIP3    H131018   2.595   4.581  14.240 -0.0040  1.4440 -0.0320
 3201TIP3    H231019   2.735   4.607  14.291  0.2409 -0.7719  0.5570
 3202TIP3   OH231020   6.130   1.319  16.425 -0.1603 -0.1648  0.0394
 3202TIP3    H131021   6.142   1.322  16.520  0.6878  0.0957 -0.0636
 3202TIP3    H231022   6.146   1.409  16.397  1.9937 -0.6763 -0.5895
 3203TIP3   OH231023   0.286   1.522  12.266 -0.0444  0.5990 -0.4448
 3203TIP3    H131024   0.256   1.483  12.348 -1.9688 -0.0544 -1.4236
 3203TIP3    H231025   0.345   1.592  12.294 -0.6503  0.3968  1.4980
 3204TIP3   OH231026   6.680   4.194  13.576 -0.0945  0.1037 -0.0080
 3204TIP3    H131027   6.756   4.251  13.558 -0.3730  0.1122 -1.2413
 3204TIP3    H231028   6.648   4.170  13.490 -1.0869 -0.4710  0.5117
 3205TIP3   OH231029   4.241   5.254   4.234  0.4128  0.4584 -0.3467
 3205TIP3    H131030   4.148   5.238   4.218  0.2454  1.6313 -0.6091
 3205TIP3    H231031   4.247   5.348   4.251  1.4506  0.2689  0.4304
 3206TIP3   OH231032   3.037   1.692   1.550 -0.3862 -0.3418  0.1337
 3206TIP3    H131033   3.037   1.604   1.587  0.1468 -1.3460 -2.0836
 3206TIP3    H231034   3.107   1.690   1.484 -0.2550  1.8101  0.1428
 3207TIP3   OH231035   0.430   5.658  12.582 -0.0130 -0.1892  0.1309
 3207TIP3    H131036   0.367   5.709  12.531 -0.0186 -0.6580 -0.3306
 3207TIP3    H231037   0.408   5.677  12.673 -0.1097  0.5212 -0.0348
 3208TIP3   OH231038   2.752   4.071   1.717 -0.0191 -0.4405  0.3197
 3208TIP3    H131039   2.813   4.136   1.751 -0.8488  0.1062  0.8206
 3208TIP3    H231040   2.706   4.116   1.646 -0.1247 -0.6994  0.2220
 3209TIP3   OH231041   3.144   5.741  12.304 -0.0999  0.0828  0.1082
 3209TIP3    H131042   3.232   5.777  12.288  0.9586 -2.7733 -1.1257
 3209TIP3    H231043   3.138   5.736  12.399  1.6014 -0.7673  0.2199
 3210TIP3   OH231044   0.635   1.450  17.204 -0.2472 -0.1160 -0.2644
 3210TIP3    H131045   0.723   1.480  17.184  1.8574 -3.8483  2.2728
 3210TIP3    H231046   0.600   1.516  17.264  1.3433  0.7418 -0.2331
 3211TIP3   OH231047   6.453   5.445   5.425  0.4636 -0.0204 -0.6146
 3211TIP3    H131048   6.547   5.464   5.429  0.3434  1.0875 -2.1154
 3211TIP3    H231049   6.417   5.513   5.368 -1.5447  0.5526  1.1841
 3212TIP3   OH231050   3.927   5.477   1.510 -0.5331  0.5041  0.2617
 3212TIP3    H131051   4.010   5.441   1.540 -1.0717 -0.6040  0.4504
 3212TIP3    H231052   3.860   5.426   1.555 -1.3631 -0.4030 -1.8521
 3213TIP3   OH231053   4.644   4.681  15.805  0.1410  0.9266  0.5512
 3213TIP3    H131054   4.703   4.742  15.849  2.3900 -0.2835 -0.6318
 3213TIP3    H231055   4.602   4.734  15.737  2.0436  1.2491 -0.4428
 3214TIP3   OH231056   4.670   3.905  13.500  0.2446 -0.6372  0.0656
 3214TIP3    H131057   4.666   3.926  13.594 -0.6902  0.4450 -0.1878
 3214TIP3    H231058   4.623   3.822  13.492 -0.3530 -0.3503  0.4692
 3215TIP3   OH231059   0.643   0.135   1.869 -0.1941 -0.1742 -0.3521
 3215TIP3    H131060   0.735   0.120   1.891 -0.1112 -0.3043 -0.7850
 3215TIP3    H231061   0.634   0.105   1.779 -0.2727  1.4038 -0.8987
 3216TIP3   OH231062   1.325   2.999  11.797  0.2095  0.6585  0.2050
 3216TIP3    H131063   1.338   3.093  11.812  1.8797  0.5548 -0.3826
 3216TIP3    H231064   1.327   2.989  11.702 -1.3056  0.1793  0.2062
 3217TIP3   OH231065   5.307   0.214  15.559 -0.3000  0.1000  0.1287
 3217TIP3    H131066   5.257   0.286  15.520 -1.2422 -0.4168  0.3518
 3217TIP3    H231067   5.398   0.232  15.535 -0.3750  1.9276  1.0644
 3218TIP3   OH231068   2.574   6.271   2.061 -0.1572 -0.3644 -0.4061
 3218TIP3    H131069   2.652   6.214   2.063  0.7502  0.8390  1.7463
 3218TIP3    H231070   2.510   6.226   2.116 -0.1269 -0.2043 -0.2406
 3219TIP3   OH231071   6.336   0.614   0.748  0.1934 -0.2016  0.3639
 3219TIP3    H131072   6.265   0.668   0.782  1.1380  1.3830 -0.0658
 3219TIP3    H231073   6.399   0.609   0.820  1.3982  1.7101 -0.4661
 3220TIP3   OH231074   2.033   6.638  12.716 -0.4175 -0.2438  0.1132
 3220TIP3    H131075   2.123   6.623  12.688 -0.3021 -0.2684  0.4950
 3220TIP3    H231076   2.008   6.559  12.764 -0.9808 -0.6596 -0.8331
 3221TIP3   OH231077   0.802   3.635  13.510  0.2898 -0.5002  0.4929
 3221TIP3    H131078   0.844   3.701  13.455  1.2780  0.3071  2.1536
 3221TIP3    H231079   0.708   3.651  13.498  0.5045  1.3083  0.9377
 3222TIP3   OH231080   3.448   0.723   3.305 -0.1065 -0.0631 -0.0777
 3222TIP3    H131081   3.411   0.642   3.339 -1.2310  0.2587 -0.4910
 3222TIP3    H231082   3.493   0.763   3.379  1.6518 -1.6936 -0.1775
 3223TIP3   OH231083   1.157   1.964  12.267 -0.6283  0.5763  0.1417
 3223TIP3    H131084   1.121   1.900  12.329 -0.1425  0.4335  0.2794
 3223TIP3    H231085   1.197   1.911  12.199  0.7463  0.7058  0.8094
 3224TIP3   OH231086   5.242   3.122  11.274 -0.2998  0.4236 -0.0710
 3224TIP3    H131087   5.212   3.192  11.333 -0.2291  0.5910 -0.2322
 3224TIP3    H231088   5.218   3.153  11.187 -1.7869 -0.5129 -0.0225
 3225TIP3   OH231089   4.453   5.457   6.627  0.3886  0.1209  0.7171
 3225TIP3    H131090   4.456   5.362   6.633 -0.8158  0.1223  1.6683
 3225TIP3    H231091   4.534   5.486   6.670  0.4405 -0.4517  1.0215
 3226TIP3   OH231092   4.063   6.706  13.876  0.2167  0.1605  0.4784
 3226TIP3    H131093   4.037   6.641  13.811 -2.4771 -0.1967  1.7726
 3226TIP3    H231094   4.086   6.655  13.953 -0.4615  0.6687  1.0292
 3227TIP3   OH231095   5.369   6.775  11.704  0.6586 -0.2281 -0.8833
 3227TIP3    H131096   5.358   6.681  11.687 -0.4027 -0.1491 -0.6739
 3227TIP3    H231097   5.331   6.818  11.627 -1.4439  0.0666  0.2533
 3228TIP3   OH231098   1.628   3.105  11.989  0.7218 -0.2206 -0.1408
 3228TIP3    H131099   1.572   3.054  12.048  0.7869 -1.3692 -1.0261
 3228TIP3    H231100   1.642   3.188  12.034  1.4034 -1.3348  1.8314
 3229TIP3   OH231101   0.524   4.214  11.211  0.3550  0.0200 -0.6482
 3229TIP3    H131102   0.435   4.239  11.188  0.2804 -0.2596 -0.6608
 3229TIP3    H231103   0.570   4.211  11.128  0.7698  1.6626 -0.5213
 3230TIP3   OH231104   0.051   1.328  11.922  0.5092 -0.0719 -0.1347
 3230TIP3    H131105  -0.026   1.309  11.975 -0.5199  2.4514 -0.6129
 3230TIP3    H231106   0.017   1.371  11.844  2.3888  1.0265 -0.4110
 3231TIP3   OH231107   5.205   5.133  16.316  0.6631 -0.3653 -0.1407
 3231TIP3    H131108   5.253   5.216  16.321  2.5697 -1.4483  0.8801
 3231TIP3    H231109   5.251   5.075  16.377  0.9714 -2.9515 -2.6207
 3232TIP3   OH231110   0.209   0.612  14.921  0.1079 -0.1326 -0.5974
 3232TIP3    H131111   0.300   0.597  14.894  0.8643  1.6621  0.6934
 3232TIP3    H231112   0.160   0.620  14.839  1.2631 -0.3100 -1.3268
 3233TIP3   OH231113   2.230   4.209   2.521 -0.0273 -0.2639  0.1349
 3233TIP3    H131114   2.226   4.253   2.436  0.0181 -0.1357  0.1981
 3233TIP3    H231115   2.315   4.164   2.521  0.6794  1.0114  0.7266
 3234TIP3   OH231116   6.288   6.757  16.998  0.4052 -0.1974  0.1708
 3234TIP3    H131117   6.345   6.811  17.053 -0.6954  0.6459  0.5042
 3234TIP3    H231118   6.319   6.774  16.909 -0.4189  1.6455  0.1888
 3235TIP3   OH231119   2.834   2.832   1.489 -0.3870  0.1463 -0.4977
 3235TIP3    H131120   2.796   2.885   1.559 -1.5370 -0.7964 -0.3666
 3235TIP3    H231121   2.792   2.863   1.409 -0.5770 -0.1024 -0.4995
 3236TIP3   OH231122   1.911   0.350   2.579 -0.3121  0.7208  0.2586
 3236TIP3    H131123   1.857   0.423   2.611 -0.5568  2.1714 -3.0541
 3236TIP3    H231124   1.854   0.274   2.585 -1.2008  1.3935  0.7943
 3237TIP3   OH231125   2.062   1.839   2.216 -0.3581  0.5810 -0.5822
 3237TIP3    H131126   2.030   1.820   2.304 -2.3179  0.3697 -1.2963
 3237TIP3    H231127   2.126   1.909   2.228  0.7141 -0.6474  1.1746
 3238TIP3   OH231128   2.107   1.398  11.460 -0.4487  0.3013  0.1290
 3238TIP3    H131129   2.033   1.459  11.458 -0.1380  0.6684 -1.4417
 3238TIP3    H231130   2.183   1.454  11.477 -0.2734  0.2296 -0.4083
 3239TIP3   OH231131   3.430   1.888   3.812  0.2990  0.4322  0.1462
 3239TIP3    H131132   3.520   1.890   3.844  0.5260  0.8452 -0.4859
 3239TIP3    H231133   3.418   1.973   3.769 -0.0062 -0.0723 -0.7949
 3240TIP3   OH231134   2.125   4.346  15.118 -0.1627 -0.8653  0.4050
 3240TIP3    H131135   2.126   4.410  15.048  5.8757  1.5344  1.9899
 3240TIP3    H231136   2.060   4.379  15.180  0.2890  1.8450 -0.4271
 3241TIP3   OH231137   3.283   3.451  11.883 -0.2965  0.2189 -0.6034
 3241TIP3    H131138   3.313   3.384  11.823  1.0025  0.5945 -0.3938
 3241TIP3    H231139   3.281   3.408  11.968 -0.7010  0.1071 -0.6639
 3242TIP3   OH231140   4.702   1.835   5.127  0.2945 -0.0790  0.4002
 3242TIP3    H131141   4.708   1.922   5.168 -2.0898 -0.5707  1.9675
 3242TIP3    H231142   4.675   1.777   5.198 -0.3531 -1.6993 -1.1082
 3243TIP3   OH231143   3.792   4.193  15.348  0.2967 -0.4441 -0.3204
 3243TIP3    H131144   3.724   4.222  15.288  0.2760  0.8156  0.2785
 3243TIP3    H231145   3.745   4.166  15.427  0.4938  0.6599  0.1849
 3244TIP3   OH231146   0.827   1.533   4.182  0.6333 -0.0745  0.1399
 3244TIP3    H131147   0.884   1.508   4.255  0.6219 -1.1588 -0.2078
 3244TIP3    H231148   0.821   1.629   4.188 -2.1632 -0.2313  3.7170
 3245TIP3   OH231149   5.583   1.558  12.915  0.3019  0.2739  0.2110
 3245TIP3    H131150   5.672   1.552  12.950  1.2815 -2.4643 -2.3460
 3245TIP3    H231151   5.533   1.495  12.966  0.9143 -1.2472 -0.9915
 3246TIP3   OH231152   2.709   3.642   6.285 -0.2206 -0.0576  0.2560
 3246TIP3    H131153   2.804   3.630   6.282 -0.1713 -0.3029  2.0332
 3246TIP3    H231154   2.697   3.736   6.298 -0.3060  0.2481 -1.6964
 3247TIP3   OH231155   5.523   1.675   6.024  0.0001 -0.1868  0.4799
 3247TIP3    H131156   5.491   1.762   6.000  1.1790  0.1676  0.1425
 3247TIP3    H231157   5.593   1.657   5.961 -1.1108 -1.9759 -0.3359
 3248TIP3   OH231158   3.930   0.694   4.534  0.7222  0.8190  0.0171
 3248TIP3    H131159   3.860   0.737   4.485  0.3281  0.3188  0.1331
 3248TIP3    H231160   3.979   0.766   4.573 -0.0712  1.1715  0.3986
 3249TIP3   OH231161   0.579   6.172   5.626 -0.9908 -0.2695  0.2940
 3249TIP3    H131162   0.553   6.255   5.666  0.9975 -0.5864  2.4523
 3249TIP3    H231163   0.521   6.107   5.667  0.1156 -0.4115  1.7084
 3250TIP3   OH231164   6.353   6.095  11.914 -0.2795  0.1095 -0.5394
 3250TIP3    H131165   6.392   6.174  11.875  1.1603 -0.0842  0.4366
 3250TIP3    H231166   6.428   6.039  11.934 -1.0087 -0.0952  1.8196
 3251TIP3   OH231167   1.268   6.596   6.213 -0.5997 -0.2772  0.3253
 3251TIP3    H131168   1.231   6.650   6.143  0.8153  0.1334 -0.1300
 3251TIP3    H231169   1.313   6.658   6.270  1.5565 -0.9600 -0.5174
 3252TIP3   OH231170   3.997   2.026   6.340 -0.1038  0.4087 -0.3827
 3252TIP3    H131171   4.021   1.978   6.419  1.5838  1.4319 -0.2265
 3252TIP3    H231172   3.948   2.102   6.370  0.3003  0.6524 -0.3356
 3253TIP3   OH231173   6.267   6.069   5.789  0.2797  0.0548 -0.3095
 3253TIP3    H131174   6.237   6.154   5.758  0.0313 -0.9778 -3.2457
 3253TIP3    H231175   6.361   6.068   5.770  0.6544  0.2714  1.3609
 3254TIP3   OH231176   5.903   4.477  14.165 -0.3854  0.0595 -0.3065
 3254TIP3    H131177   5.965   4.541  14.200 -0.7404  0.1160  0.2428
 3254TIP3    H231178   5.958   4.406  14.131 -0.0156  0.1630  0.0648
 3255TIP3   OH231179   0.098   2.738  11.212  0.5236 -0.5317 -0.3190
 3255TIP3    H131180   0.034   2.801  11.179 -0.1222 -0.6467  0.6569
 3255TIP3    H231181   0.069   2.654  11.178  0.9737 -0.4023 -1.0346
 3256TIP3   OH231182   5.330   1.188  13.570  0.6977 -0.3280 -0.2928
 3256TIP3    H131183   5.332   1.118  13.634  0.8572  0.1477  0.2258
 3256TIP3    H231184   5.259   1.245  13.598  0.3837 -0.4179 -0.8707
 3257TIP3   OH231185   0.876   0.550  14.925  0.4484  0.3240 -0.2773
 3257TIP3    H131186   0.913   0.619  14.979  0.8290  0.1357 -0.2885
 3257TIP3    H231187   0.822   0.596  14.860 -0.2842  0.5251  0.4618
 3258TIP3   OH231188   3.287   5.139  15.359 -0.3253  0.2575 -0.6362
 3258TIP3    H131189   3.221   5.142  15.428 -0.5015  0.4250 -0.8093
 3258TIP3    H231190   3.242   5.098  15.285 -0.0035 -0.3314 -0.5100
 3259TIP3   OH231191   1.766   4.115   1.954 -0.2819 -0.1881  0.9770
 3259TIP3    H131192   1.740   4.175   2.024 -2.0009 -0.3398  0.5067
 3259TIP3    H231193   1.686   4.067   1.933  0.9535 -2.3903  1.0785
 3260TIP3   OH231194   1.745   5.468   1.333  0.9288  0.2516  0.4590
 3260TIP3    H131195   1.787   5.391   1.372  0.3056 -0.3441 -0.0270
 3260TIP3    H231196   1.655   5.440   1.317  1.0813  0.6034 -1.0943
 3261TIP3   OH231197   6.510   0.375   1.478 -0.1389 -0.1568  0.2270
 3261TIP3    H131198   6.437   0.320   1.450 -0.7757  0.3415  0.8839
 3261TIP3    H231199   6.584   0.344   1.426 -0.5413 -1.4485  0.3845
 3262TIP3   OH231200   1.569   4.929  16.803 -0.0452  0.4723  0.1016
 3262TIP3    H131201   1.647   4.907  16.854 -1.2414 -1.8444  1.1245
 3262TIP3    H231202   1.578   4.878  16.722 -1.5083 -1.8418  1.2614
 3263TIP3   OH231203   6.039   0.713  16.752 -0.1673 -0.6018  0.3763
 3263TIP3    H131204   6.101   0.771  16.708 -2.1599  0.4636 -1.2178
 3263TIP3    H231205   6.011   0.762  16.830 -0.3082 -0.3298  0.1533
 3264TIP3   OH231206   2.947   4.129   1.379 -0.1411  0.1827 -0.4024
 3264TIP3    H131207   3.013   4.198   1.381  0.3760 -0.3153  0.3866
 3264TIP3    H231208   2.949   4.092   1.467 -0.4868 -0.7625 -0.7786
 3265TIP3   OH231209   4.931   0.299   3.003 -0.1704  0.3554  0.1266
 3265TIP3    H131210   4.863   0.329   2.943 -2.2411  1.2402  2.6984
 3265TIP3    H231211   4.888   0.233   3.057  0.8263  1.2249  2.1077
 3266TIP3   OH231212   2.048   4.823   1.808 -0.1563 -0.2965 -0.8931
 3266TIP3    H131213   1.976   4.763   1.791 -0.2821 -0.2398 -0.5703
 3266TIP3    H231214   2.005   4.909   1.819 -0.0473 -0.2709 -0.6567
 3267TIP3   OH231215   6.433   0.970  15.918  0.1194 -0.2410 -0.1026
 3267TIP3    H131216   6.413   0.924  16.000 -2.2809 -0.0548 -0.4924
 3267TIP3    H231217   6.409   1.061  15.936  0.3457 -0.0458 -0.7733
 3268TIP3   OH231218   4.125   4.970  12.135 -0.1479  0.6975 -0.1826
 3268TIP3    H131219   4.036   5.004  12.147 -0.5040  0.4607 -1.9124
 3268TIP3    H231220   4.148   4.932  12.220 -1.9571  0.1932  0.1234
 3269TIP3   OH231221   0.842   0.123   3.190  0.5394  0.6741 -0.2932
 3269TIP3    H131222   0.885   0.191   3.138  2.1995  1.3971  1.8498
 3269TIP3    H231223   0.904   0.050   3.190 -0.5638 -0.3051 -1.3295
 3270TIP3   OH231224   1.030   0.194   2.739 -0.0393  0.1869 -0.1967
 3270TIP3    H131225   1.031   0.286   2.713 -1.0958  0.3250  0.2157
 3270TIP3    H231226   1.119   0.163   2.721 -0.0224  0.9383 -1.5652
 3271TIP3   OH231227   3.791   3.660   3.118  0.1493 -0.3763 -0.2955
 3271TIP3    H131228   3.863   3.616   3.072  0.5668 -1.7008  1.4984
 3271TIP3    H231229   3.726   3.677   3.050  1.7429 -0.0193 -1.7883
 3272TIP3   OH231230   6.433   6.046  16.528  0.2056  0.5257  0.0994
 3272TIP3    H131231   6.512   5.993  16.540 -0.0441  0.0087 -0.4975
 3272TIP3    H231232   6.386   6.039  16.611  0.8799  1.0028  0.5282
 3273TIP3   OH231233   5.879   3.306   5.387  0.2367 -0.1387 -0.1877
 3273TIP3    H131234   5.938   3.333   5.317  1.8652 -0.3492  1.0338
 3273TIP3    H231235   5.793   3.338   5.361  0.6692 -0.7033 -2.5366
 3274TIP3   OH231236   1.198   2.663   5.023  0.2421  0.1474  0.2700
 3274TIP3    H131237   1.186   2.571   5.047 -0.3537  0.4087  1.0188
 3274TIP3    H231238   1.152   2.712   5.091  0.2167  0.9927 -0.3364
 3275TIP3   OH231239   6.367   0.380  11.891  0.0753 -0.0582 -0.4680
 3275TIP3    H131240   6.322   0.461  11.868 -0.4631 -0.4216 -0.7015
 3275TIP3    H231241   6.460   0.400  11.877 -0.1298  0.1645 -1.6239
 3276TIP3   OH231242   0.845   1.971   6.124  0.2490 -0.6638  0.2316
 3276TIP3    H131243   0.821   1.910   6.194  0.4277  1.1901  1.9911
 3276TIP3    H231244   0.938   1.988   6.138 -0.0181  0.7532  0.3787
 3277TIP3   OH231245   0.206   5.821   4.548  0.3938  0.2276 -0.0554
 3277TIP3    H131246   0.275   5.797   4.610 -0.6794 -0.0439  1.0833
 3277TIP3    H231247   0.126   5.822   4.601 -0.6582 -0.5627 -1.5619
 3278TIP3   OH231248   5.381   1.593   4.718  0.0809  0.2454 -0.0072
 3278TIP3    H131249   5.471   1.605   4.746  0.2609  1.2667 -0.9638
 3278TIP3    H231250   5.333   1.664   4.760  0.1879  1.2268 -1.4867
 3279TIP3   OH231251   5.115   2.539  15.794 -0.3024 -0.0778  0.0491
 3279TIP3    H131252   5.042   2.590  15.829 -0.4356 -1.0305  1.2203
 3279TIP3    H231253   5.084   2.448  15.796  1.4921 -0.7109  2.1896
 3280TIP3   OH231254   2.021   4.572   0.615 -0.3354 -0.5024 -0.4808
 3280TIP3    H131255   1.998   4.485   0.646  0.2354 -0.6209 -0.3888
 3280TIP3    H231256   1.937   4.617   0.604 -0.7450 -1.5925 -2.1019
 3281TIP3   OH231257   4.404   2.584   3.644  1.1092  0.0210  0.1253
 3281TIP3    H131258   4.464   2.567   3.716  1.9092 -1.0698 -0.7702
 3281TIP3    H231259   4.461   2.601   3.568  0.3226 -1.3636 -0.8209
 3282TIP3   OH231260   2.935   3.952   4.755  0.2208  0.0600  0.3271
 3282TIP3    H131261   2.968   3.871   4.793 -0.8334 -1.0444 -1.0396
 3282TIP3    H231262   3.014   4.005   4.741  1.2893 -1.8818 -1.4122
 3283TIP3   OH231263   4.554   4.839  11.254 -0.1777  0.7244  0.3916
 3283TIP3    H131264   4.597   4.830  11.169 -0.9297 -0.5280  0.1185
 3283TIP3    H231265   4.524   4.930  11.256  0.2980  0.9124 -0.4631
 3284TIP3   OH231266   3.332   2.661  12.683 -0.7053 -0.7484  0.5699
 3284TIP3    H131267   3.291   2.718  12.749 -0.9301  0.3926 -0.5262
 3284TIP3    H231268   3.417   2.701  12.667 -0.8117 -0.7939 -0.1200
 3285TIP3   OH231269   0.891   1.604   4.569  0.3569  0.2882  0.3665
 3285TIP3    H131270   0.898   1.695   4.539  0.7683  0.7806  1.8813
 3285TIP3    H231271   0.932   1.553   4.499  1.8690  1.4350  0.3635
 3286TIP3   OH231272   5.295   6.658   6.909 -0.0042 -0.0862 -0.3250
 3286TIP3    H131273   5.319   6.650   7.001  0.0640  1.5814 -0.1737
 3286TIP3    H231274   5.358   6.719   6.872  0.5485 -1.4312 -1.7341
 3287TIP3   OH231275   5.556   4.000  11.424 -0.4853  0.3353 -0.1140
 3287TIP3    H131276   5.533   3.967  11.337 -1.0076  0.6009 -0.0783
 3287TIP3    H231277   5.474   4.034  11.460 -0.3836 -0.2251  0.6862
 3288TIP3   OH231278   2.411   0.513  16.949 -0.1622  0.6827  0.4566
 3288TIP3    H131279   2.399   0.561  16.867  2.2059  1.8134  0.6931
 3288TIP3    H231280   2.363   0.565  17.014 -0.9965  0.4745  0.0167
 3289TIP3   OH231281   4.315   2.073  12.691  0.3894 -0.8845 -0.1734
 3289TIP3    H131282   4.347   2.086  12.780 -0.8830  0.0244  0.1871
 3289TIP3    H231283   4.328   1.979  12.674  0.7459 -1.0469  0.9224
 3290TIP3   OH231284   0.127   2.737  16.501 -0.4330  0.1595 -0.2676
 3290TIP3    H131285   0.088   2.652  16.481 -1.7678  0.3289  1.4022
 3290TIP3    H231286   0.201   2.717  16.558 -0.7197  0.0864  0.0874
 3291TIP3   OH231287   5.710   5.443  15.042  0.3583 -0.4008 -0.2119
 3291TIP3    H131288   5.702   5.347  15.043 -0.2022 -0.3975  2.2528
 3291TIP3    H231289   5.764   5.463  15.118  0.8517  1.2536 -0.9496
 3292TIP3   OH231290   1.614   5.790   1.567 -0.3646 -0.2351 -0.1803
 3292TIP3    H131291   1.679   5.726   1.597  0.0747  0.4694  0.3987
 3292TIP3    H231292   1.601   5.848   1.642  0.0931  1.0405 -1.0478
 3293TIP3   OH231293   0.979   1.657  11.248  0.1071  0.0341 -0.1210
 3293TIP3    H131294   1.066   1.694  11.244  0.7054 -1.3653 -3.4576
 3293TIP3    H231295   0.923   1.720  11.203 -0.4401  0.3764  0.9830
 3294TIP3   OH231296   1.358   5.104  13.966  0.2763  0.1786  0.5421
 3294TIP3    H131297   1.349   5.009  13.956  0.1875  0.2420  0.0086
 3294TIP3    H231298   1.451   5.121  13.952  0.1108  0.2967 -0.4620
 3295TIP3   OH231299   4.277   2.306   4.161 -0.1966 -0.6563 -0.5030
 3295TIP3    H131300   4.357   2.255   4.147  0.0271 -0.8438  1.1687
 3295TIP3    H231301   4.211   2.242   4.188  0.0784 -0.1528  1.5772
 3296TIP3   OH231302   1.028   5.723  15.241  0.5073 -0.5042 -0.2603
 3296TIP3    H131303   1.064   5.754  15.324  1.3157  0.8695 -1.0846
 3296TIP3    H231304   0.941   5.690  15.263 -0.3941  2.2506  0.7584
 3297TIP3   OH231305   0.923   2.473  15.853 -0.0450 -0.2980  0.3154
 3297TIP3    H131306   0.965   2.428  15.780 -0.3098  0.7666 -0.5145
 3297TIP3    H231307   0.832   2.443  15.850 -0.3541  0.6558 -0.5751
 3298TIP3   OH231308   3.338   5.584  11.454  0.3053  0.1158  0.4971
 3298TIP3    H131309   3.258   5.532  11.448 -0.3804  1.2909 -2.3806
 3298TIP3    H231310   3.325   5.640  11.531 -2.0089  0.7780 -0.3010
 3299TIP3   OH231311   2.086   2.814  14.352  0.5978  0.1961  0.1263
 3299TIP3    H131312   2.172   2.775  14.339  1.3274  1.2593  1.4284
 3299TIP3    H231313   2.088   2.896  14.303 -0.3120 -0.5551 -1.2202
 3300TIP3   OH231314   5.973   3.590  15.602  0.4692 -0.6233 -0.0373
 3300TIP3    H131315   5.954   3.655  15.535 -1.0271  1.0234  1.8526
 3300TIP3    H231316   6.057   3.618  15.640  0.7817 -0.9320 -0.4944
 3301TIP3   OH231317   2.962   4.095  12.656 -0.1415  0.2951 -0.4518
 3301TIP3    H131318   2.990   4.004  12.648 -1.7145 -0.1871 -1.0363
 3301TIP3    H231319   3.037   4.147  12.628  0.4816 -0.8686 -0.9876
 3302TIP3   OH231320   1.866   5.372  12.822 -0.2449  0.5661 -0.4381
 3302TIP3    H131321   1.834   5.371  12.732 -1.0216  0.3730 -0.1632
 3302TIP3    H231322   1.835   5.456  12.858 -0.6305  0.2831 -0.1044
 3303TIP3   OH231323   6.047   1.396   2.551 -0.4012  0.5268  0.0208
 3303TIP3    H131324   6.066   1.477   2.503  0.8049  0.2916  0.0613
 3303TIP3    H231325   5.960   1.370   2.521 -0.3229  1.2278 -0.8531
 3304TIP3   OH231326   6.689   0.013   5.872 -0.2217  0.3010 -0.6653
 3304TIP3    H131327   6.765   0.062   5.905 -0.5090  0.8889 -0.8570
 3304TIP3    H231328   6.634  -0.001   5.949  0.1918 -0.3298 -0.4841
 3305TIP3   OH231329   2.010   1.997   4.493 -0.2890  0.0182 -0.0732
 3305TIP3    H131330   2.012   1.953   4.578 -2.1898  1.7274  0.9511
 3305TIP3    H231331   1.953   1.943   4.439 -0.4917 -0.1464  0.3065
 3306TIP3   OH231332   2.431   5.737   3.224 -1.2394 -0.0341  0.6164
 3306TIP3    H131333   2.376   5.814   3.238 -0.5325  0.4489  0.7774
 3306TIP3    H231334   2.397   5.672   3.284  0.6365  1.4193  3.4659
 3307TIP3   OH231335   1.426   6.626  10.932 -0.3876  0.1374  0.4430
 3307TIP3    H131336   1.359   6.653  10.869 -1.5878  3.6738  2.8735
 3307TIP3    H231337   1.509   6.655  10.894 -0.5073 -1.6011 -1.2728
 3308TIP3   OH231338   5.501   6.686  13.578 -0.5612 -0.4266  0.0369
 3308TIP3    H131339   5.488   6.742  13.501 -4.7148 -0.4098  0.5648
 3308TIP3    H231340   5.592   6.703  13.604 -0.4081  3.0830 -2.1310
 3309TIP3   OH231341   5.542   0.130   0.092 -0.0167  0.1451 -0.2197
 3309TIP3    H131342   5.531   0.225   0.099 -1.8554 -0.0425 -0.1667
 3309TIP3    H231343   5.600   0.108   0.165  0.9115  1.2816 -0.5825
 3310TIP3   OH231344   4.143   4.577   5.255  0.2626 -0.2222  0.3737
 3310TIP3    H131345   4.210   4.557   5.320  1.9040 -0.5469 -1.3442
 3310TIP3    H231346   4.111   4.492   5.226 -0.0094 -0.0918  0.2789
 3311TIP3   OH231347   4.100   6.149  17.175 -0.2274 -0.2681 -0.7165
 3311TIP3    H131348   4.151   6.077  17.139  0.5974  0.4468 -1.0131
 3311TIP3    H231349   4.036   6.107  17.233  1.9402 -1.0721  1.2115
 3312TIP3   OH231350   4.932   0.688  16.459 -0.2730  0.2080  0.3627
 3312TIP3    H131351   4.945   0.600  16.424  0.5923  0.9887 -1.4310
 3312TIP3    H231352   5.018   0.713  16.494  0.2764  1.2780 -1.5638
 3313TIP3   OH231353   2.442   5.006   0.405  0.0410  0.1304 -0.7197
 3313TIP3    H131354   2.455   4.941   0.474 -0.8066  0.5861 -0.1172
 3313TIP3    H231355   2.519   4.996   0.348  1.7325  1.0388  1.3016
 3314TIP3   OH231356   3.482   1.805  17.330 -0.4144 -0.7127 -0.0422
 3314TIP3    H131357   3.482   1.716  17.295  1.7784 -0.8106  0.0760
 3314TIP3    H231358   3.572   1.820  17.358 -0.5343  1.8282 -0.7574
 3315TIP3   OH231359   6.253   6.631  17.250 -0.1548  0.6104 -0.3941
 3315TIP3    H131360   6.160   6.610  17.239  0.4545 -2.6384 -0.4542
 3315TIP3    H231361   6.288   6.633  17.161  0.4824 -2.4266 -0.3472
 3316TIP3   OH231362   4.783   0.254   4.044  0.7680 -0.3254  0.4032
 3316TIP3    H131363   4.866   0.253   4.093  1.1707  0.3295 -0.2386
 3316TIP3    H231364   4.724   0.198   4.095  2.6756 -4.0296 -1.0544
 3317TIP3   OH231365   1.207   4.891  10.304 -0.3384  0.1091 -0.2681
 3317TIP3    H131366   1.298   4.863  10.314 -0.2628 -0.9577 -3.1585
 3317TIP3    H231367   1.197   4.960  10.370  2.6940  0.6114 -0.1559
 3318TIP3   OH231368   3.957   6.470  10.771  0.3210  0.5871 -0.9584
 3318TIP3    H131369   3.927   6.406  10.836 -3.0086  1.1463 -1.7904
 3318TIP3    H231370   4.050   6.482  10.792 -0.1015 -0.7245  2.4291
 3319TIP3   OH231371   4.133   5.759  16.672  0.2174  0.0932  0.0702
 3319TIP3    H131372   4.108   5.848  16.697 -0.7518 -0.4409  1.1274
 3319TIP3    H231373   4.058   5.726  16.622  0.4338 -0.2239 -0.0486
 3320TIP3   OH231374   2.779   0.161   4.763  0.5419  0.3353  0.1389
 3320TIP3    H131375   2.873   0.151   4.780  0.3838  0.4675  1.1844
 3320TIP3    H231376   2.745   0.071   4.766  0.5892  0.3154  0.0740
 3321TIP3   OH231377   1.371   5.178  11.809 -0.4555 -0.1294 -0.2798
 3321TIP3    H131378   1.353   5.155  11.900 -0.8552  1.6757  0.1343
 3321TIP3    H231379   1.407   5.267  11.814 -0.3160 -0.0782 -1.8702
 3322TIP3   OH231380   0.552   1.264   5.261 -0.6817  0.2607 -0.5782
 3322TIP3    H131381   0.529   1.274   5.353 -1.2844  1.7617 -0.8616
 3322TIP3    H231382   0.468   1.253   5.216 -0.4810  0.5951 -1.0510
 3323TIP3   OH231383   1.597   4.157  15.026  0.5792  0.1598 -0.4224
 3323TIP3    H131384   1.648   4.219  14.974 -1.6447  1.7347 -0.8141
 3323TIP3    H231385   1.521   4.136  14.972 -0.5594 -0.0723  1.1931
 3324TIP3   OH231386   3.263   1.460   0.164  0.0498  0.4626 -0.5976
 3324TIP3    H131387   3.211   1.394   0.210  1.4617 -0.7166 -0.5785
 3324TIP3    H231388   3.220   1.543   0.182 -1.3433 -0.3708  0.0426
 3325TIP3   OH231389   4.878   4.565   2.077  0.3495 -0.1024  0.1983
 3325TIP3    H131390   4.829   4.491   2.111  0.0148  1.1772  2.7048
 3325TIP3    H231391   4.813   4.636   2.070  0.8165  0.2124 -1.4179
 3326TIP3   OH231392   6.725   4.900   2.565 -0.7292 -0.1855 -0.5945
 3326TIP3    H131393   6.785   4.866   2.632  0.9200  0.1620 -1.8324
 3326TIP3    H231394   6.701   4.824   2.513 -1.2946 -0.3110 -0.1518
 3327TIP3   OH231395   1.509   3.553   4.607 -0.4292 -0.2338  0.1054
 3327TIP3    H131396   1.425   3.584   4.642 -1.3041 -1.0546 -1.1715
 3327TIP3    H231397   1.502   3.566   4.513  0.6384 -0.8793 -0.0819
 3328TIP3   OH231398   2.550   5.453  12.906 -0.5557  0.1872  0.6597
 3328TIP3    H131399   2.543   5.361  12.933 -0.1297  0.0993  0.4785
 3328TIP3    H231400   2.580   5.449  12.816 -2.8150  0.4544 -0.1834
 3329TIP3   OH231401   0.433   3.017   0.637 -0.3144 -0.6286 -0.2413
 3329TIP3    H131402   0.339   3.018   0.657 -0.3145  0.9267 -0.1999
 3329TIP3    H231403   0.471   3.078   0.700  0.5228 -0.1632 -1.1838
 3330TIP3   OH231404   0.845   4.200   5.573 -0.3194  0.1244  0.4958
 3330TIP3    H131405   0.783   4.265   5.542  1.2060  0.9718 -0.9836
 3330TIP3    H231406   0.891   4.242   5.646 -1.8788 -0.7632  2.0630
 3331TIP3   OH231407   1.671   3.530  16.695  0.2425  0.3773 -0.1920
 3331TIP3    H131408   1.727   3.599  16.732 -0.5160  1.4909 -1.0397
 3331TIP3    H231409   1.706   3.515  16.607  1.1391 -1.2199  0.3879
 3332TIP3   OH231410   0.479   1.907   3.027 -0.0990  0.7040  0.0508
 3332TIP3    H131411   0.458   1.971   3.096  0.3227  0.4787  0.3942
 3332TIP3    H231412   0.399   1.900   2.975 -0.5198  0.6537  0.6970
 3333TIP3   OH231413   3.251   6.224   6.163 -0.2653  0.2392 -0.1237
 3333TIP3    H131414   3.222   6.167   6.234 -1.6906  0.8750 -0.1642
 3333TIP3    H231415   3.214   6.310   6.185  0.1317  0.6726 -1.1055
 3334TIP3   OH231416   4.332   5.102   1.439 -0.1722  0.2293  0.3829
 3334TIP3    H131417   4.427   5.090   1.445  0.1357  1.3176 -1.5862
 3334TIP3    H231418   4.296   5.016   1.461  1.2221 -0.1222  1.4643
 3335TIP3   OH231419   3.184   1.315  16.073 -0.1846 -0.0728  0.2108
 3335TIP3    H131420   3.260   1.329  16.017 -0.2426  0.4528  0.2537
 3335TIP3    H231421   3.212   1.249  16.136 -0.8233 -2.3776 -1.7496
 3336TIP3   OH231422   6.413   4.284  15.698 -0.0663  0.1664 -0.1712
 3336TIP3    H131423   6.477   4.343  15.657 -0.2596  0.2332 -0.3830
 3336TIP3    H231424   6.366   4.339  15.761  0.6449 -0.0831  0.5937
 3337TIP3   OH231425   2.196   6.061   0.843 -0.3975 -0.7306  0.4777
 3337TIP3    H131426   2.131   6.010   0.892  0.5209  0.4567  3.1237
 3337TIP3    H231427   2.189   6.149   0.878  1.9269 -0.3334  0.1315
 3338TIP3   OH231428   6.041   3.507   4.903 -0.4477 -0.0328  0.3381
 3338TIP3    H131429   6.043   3.601   4.920 -1.9318  0.1669 -0.3534
 3338TIP3    H231430   6.097   3.494   4.826 -1.8077  0.6299 -0.8152
 3339TIP3   OH231431   6.183   6.655  12.514 -0.0460 -0.2162  0.0199
 3339TIP3    H131432   6.138   6.702  12.444 -0.2717  1.7330  1.3857
 3339TIP3    H231433   6.258   6.710  12.535  0.2208 -0.9549  1.0442
 3340TIP3   OH231434   5.914   4.922   5.467 -0.2822 -0.3247  0.8910
 3340TIP3    H131435   5.950   4.879   5.389  1.3347 -1.3441  2.1374
 3340TIP3    H231436   5.824   4.891   5.472  0.1003 -1.5733  0.3599
 3341TIP3   OH231437   6.704   3.409   3.210  0.4051  0.0067 -0.0900
 3341TIP3    H131438   6.694   3.487   3.155  0.0060 -0.9541 -1.4342
 3341TIP3    H231439   6.627   3.356   3.190  0.5239 -0.6250  1.0240
 3342TIP3   OH231440   4.831   1.636   5.778  0.3033  0.1853 -0.0685
 3342TIP3    H131441   4.782   1.555   5.788  1.4775 -0.4955  0.2867
 3342TIP3    H231442   4.777   1.702   5.822 -1.0833 -0.2027 -1.1224
 3343TIP3   OH231443   6.556   2.108  15.505  0.4742 -0.7059 -0.0363
 3343TIP3    H131444   6.526   2.045  15.570 -1.3778  0.0510 -0.0835
 3343TIP3    H231445   6.526   2.073  15.421  1.6126 -0.9685 -0.3586
 3344TIP3   OH231446   6.353   0.442  12.523 -0.1225 -0.4006 -0.2230
 3344TIP3    H131447   6.397   0.526  12.533 -0.0762 -0.3528 -0.8007
 3344TIP3    H231448   6.423   0.377  12.527  0.1465 -0.2708 -2.1042
 3345TIP3   OH231449   5.183   1.975   3.789  0.1605 -0.3132  0.0986
 3345TIP3    H131450   5.255   1.916   3.764  0.2104  0.6716 -2.3822
 3345TIP3    H231451   5.218   2.025   3.862  1.9398 -0.0586 -0.8674
 3346TIP3   OH231452   3.697   4.528  14.899 -0.2363 -0.2676  0.7095
 3346TIP3    H131453   3.695   4.451  14.956 -0.4488 -1.1907 -0.4936
 3346TIP3    H231454   3.661   4.497  14.816 -0.2078  1.1111  0.1576
 3347TIP3   OH231455   4.001   0.751  17.347 -0.4697  0.0051 -0.0864
 3347TIP3    H131456   4.097   0.744  17.341 -0.4819 -1.1413  0.7408
 3347TIP3    H231457   3.971   0.661  17.359 -1.8400  0.0923 -2.4133
 3348TIP3   OH231458   5.824   1.392   0.031  0.3781  0.2978 -1.0944
 3348TIP3    H131459   5.797   1.455   0.098 -1.7240 -1.4908 -0.0871
 3348TIP3    H231460   5.885   1.440  -0.025 -0.4589  2.9258  0.0777
 3349TIP3   OH231461   2.977   0.402   4.579  0.7902  0.1723  0.7628
 3349TIP3    H131462   2.902   0.353   4.611  0.1651 -0.2484 -1.1756
 3349TIP3    H231463   3.018   0.343   4.515  0.0840  2.0544 -1.5640
 3350TIP3   OH231464   3.456   6.039   1.097 -0.3585  0.2868 -0.4071
 3350TIP3    H131465   3.393   6.104   1.128 -2.4830 -1.4409 -0.8412
 3350TIP3    H231466   3.441   6.034   1.002  0.2391 -0.3467 -0.4825
 3351TIP3   OH231467   1.762   6.064  16.374  0.9308 -0.1232  0.3232
 3351TIP3    H131468   1.833   6.125  16.396  2.9186 -1.5482 -1.6911
 3351TIP3    H231469   1.755   6.007  16.452  0.0893  1.6486  1.6067
 3352TIP3   OH231470   0.190   2.274   4.362  0.1030 -0.5917 -0.1750
 3352TIP3    H131471   0.194   2.333   4.287 -0.3713  1.2064  1.1259
 3352TIP3    H231472   0.097   2.272   4.385  0.4542  0.4244  1.4715
 3353TIP3   OH231473   6.759   5.731   2.057 -0.1892 -0.0998 -1.0346
 3353TIP3    H131474   6.772   5.672   1.983 -0.8267 -0.0442 -1.1904
 3353TIP3    H231475   6.820   5.803   2.041 -0.0609 -0.2668 -1.3112
 3354TIP3   OH231476   0.373   3.551  12.604  0.2134  0.4892 -0.4340
 3354TIP3    H131477   0.312   3.483  12.631  0.3302  0.4460 -0.2741
 3354TIP3    H231478   0.459   3.508  12.605  0.4959  1.0234  1.1350
 3355TIP3   OH231479   5.341   6.713   3.073 -0.0294 -0.1978  0.0611
 3355TIP3    H131480   5.282   6.731   3.001 -0.5814  1.3170  0.8561
 3355TIP3    H231481   5.425   6.750   3.046 -0.8363  2.6570  1.1428
 3356TIP3   OH231482   1.697   1.532  16.415 -0.1879 -0.1909  0.2750
 3356TIP3    H131483   1.750   1.462  16.452 -0.1653  0.0151  0.6357
 3356TIP3    H231484   1.759   1.603  16.397 -0.2625 -0.1371  0.2295
 3357TIP3   OH231485   0.701   5.342   2.141  0.5564  0.8626  0.2422
 3357TIP3    H131486   0.766   5.283   2.103  0.3708  1.6302 -1.3350
 3357TIP3    H231487   0.630   5.284   2.169  0.5373  0.2856 -0.9435
 3358TIP3   OH231488   3.710   3.310   4.742  0.2557  0.1639  0.3206
 3358TIP3    H131489   3.628   3.302   4.790  0.5202  1.4011  1.0295
 3358TIP3    H231490   3.723   3.224   4.702 -1.4413 -0.0191  0.0814
 3359TIP3   OH231491   5.185   3.717   3.972  0.4026 -0.8082  0.0115
 3359TIP3    H131492   5.209   3.770   3.896  2.0225  1.1334  1.7456
 3359TIP3    H231493   5.091   3.703   3.963  0.6763 -1.4107 -2.7417
 3360TIP3   OH231494   4.417   3.344   5.196  0.3534 -0.4558 -0.2743
 3360TIP3    H131495   4.453   3.380   5.115 -0.3465 -1.4186 -1.0397
 3360TIP3    H231496   4.476   3.375   5.265  1.5653 -0.4922 -1.2710
 3361TIP3   OH231497   3.831   2.635   0.515  0.1417  0.1364  0.2411
 3361TIP3    H131498   3.923   2.619   0.497  0.1620 -0.0920  0.5351
 3361TIP3    H231499   3.791   2.548   0.519 -0.3950  0.2716 -1.4116
 3362TIP3   OH231500   2.246   0.994  11.726  0.5165  0.0802 -0.0991
 3362TIP3    H131501   2.316   0.962  11.669  0.0459 -0.8639 -0.1623
 3362TIP3    H231502   2.270   0.964  11.813 -0.1380 -0.8373 -0.2210
 3363TIP3   OH231503   0.578   2.970  11.473  0.2959  0.1042  0.1341
 3363TIP3    H131504   0.632   3.028  11.419  0.8946  1.4329  2.0400
 3363TIP3    H231505   0.489   3.001  11.458  0.2321 -0.7739 -1.4829
 3364TIP3   OH231506   0.408   0.727  14.651  0.9274 -0.3084 -0.0879
 3364TIP3    H131507   0.342   0.658  14.640  0.5479 -0.3699  2.0434
 3364TIP3    H231508   0.381   0.796  14.591 -0.3151 -0.8904 -0.2417
 3365TIP3   OH231509   2.754   3.932  16.115  0.8360  0.0430  0.2898
 3365TIP3    H131510   2.670   3.962  16.081  1.1579 -1.5085 -2.0851
 3365TIP3    H231511   2.818   3.956  16.048  2.1335  0.1071  1.4954
 3366TIP3   OH231512   5.895   5.290  13.296 -0.2240 -0.4679 -0.2493
 3366TIP3    H131513   5.852   5.280  13.211  0.4436 -2.1993 -0.4168
 3366TIP3    H231514   5.843   5.236  13.356 -0.1105 -0.0576  0.2270
 3367TIP3   OH231515   5.227   6.549  13.554 -0.8084 -0.3939  0.0242
 3367TIP3    H131516   5.311   6.568  13.512 -0.7158  2.7145  1.3194
 3367TIP3    H231517   5.164   6.548  13.483 -0.0728  0.4940 -0.6664
 3368TIP3   OH231518   2.180   1.770  11.669 -0.6162 -0.3278 -0.3107
 3368TIP3    H131519   2.136   1.703  11.722 -0.3716  0.8276  1.4296
 3368TIP3    H231520   2.242   1.721  11.615 -2.1116 -1.7181 -0.8478
 3369TIP3   OH231521   5.731   4.841  16.862 -0.0424 -0.0138 -0.2052
 3369TIP3    H131522   5.731   4.822  16.956 -1.3436 -1.2511 -0.4151
 3369TIP3    H231523   5.819   4.819  16.833  0.3716  0.3807  0.7148
 3370TIP3   OH231524   6.767   6.072  11.375  0.1202 -0.1296  0.4462
 3370TIP3    H131525   6.678   6.039  11.358 -0.3102  1.1280  0.1582
 3370TIP3    H231526   6.761   6.166  11.358  1.1987  0.1824  1.6695
 3371TIP3   OH231527   2.741   6.426   1.078 -1.0612 -0.2161 -0.5917
 3371TIP3    H131528   2.800   6.497   1.102 -0.4983 -1.0705  0.6882
 3371TIP3    H231529   2.709   6.391   1.162 -3.8893  0.5694 -1.2330
 3372TIP3   OH231530   3.258   3.356   6.412 -0.2264  0.2221  0.5112
 3372TIP3    H131531   3.340   3.357   6.363 -0.2955  0.5573  0.4055
 3372TIP3    H231532   3.240   3.447   6.433 -1.0651  0.2527 -0.2913
 3373TIP3   OH231533   3.413   1.942  12.482 -0.2436 -0.1879 -0.5950
 3373TIP3    H131534   3.428   1.911  12.571 -0.6324 -0.2993 -0.5708
 3373TIP3    H231535   3.477   1.894  12.429  0.5339  0.4539 -0.2685
 3374TIP3   OH231536   4.072   3.986   5.474  0.0994 -0.3088  0.6665
 3374TIP3    H131537   4.049   4.071   5.437  0.4696 -0.6419 -0.3950
 3374TIP3    H231538   4.137   3.950   5.412  0.1389 -1.2470  1.2275
 3375TIP3   OH231539   4.791   0.985   4.998 -0.5925  0.2680 -0.7849
 3375TIP3    H131540   4.773   0.904   4.951 -0.8159  0.0470 -0.3271
 3375TIP3    H231541   4.748   1.053   4.947 -1.0910 -0.0067 -0.7342
 3376TIP3   OH231542   5.363   6.764  15.000 -0.4530  0.6404  0.3722
 3376TIP3    H131543   5.455   6.741  15.011 -0.2157  1.2369 -0.2817
 3376TIP3    H231544   5.318   6.680  14.988 -0.1658  0.2694  1.7931
 3377TIP3   OH231545   2.140   2.559   1.462 -0.0002 -0.5405 -0.1633
 3377TIP3    H131546   2.082   2.557   1.386 -0.7420  0.9411  0.3183
 3377TIP3    H231547   2.228   2.554   1.426 -0.3826 -1.7606 -0.9808
 3378TIP3   OH231548   3.887   3.349  12.249 -0.0553  0.5217 -0.7277
 3378TIP3    H131549   3.869   3.436  12.213  1.0838  0.2913 -1.9830
 3378TIP3    H231550   3.958   3.363  12.311  0.6905  0.4054 -1.5321
 3379TIP3   OH231551   3.948   5.606   3.377 -0.5950  0.5440 -0.2514
 3379TIP3    H131552   4.027   5.584   3.328  0.3131  2.6658  0.1338
 3379TIP3    H231553   3.909   5.522   3.400  0.8802 -0.5342 -1.5006
 3380TIP3   OH231554   4.395   1.422   1.048  0.0335  0.0615  0.5932
 3380TIP3    H131555   4.418   1.391   0.961  1.0080  1.0572  0.4694
 3380TIP3    H231556   4.463   1.387   1.105 -0.5297 -0.4803  0.9493
 3381TIP3   OH231557   1.773   5.853  13.384  0.0111 -0.6062  0.3970
 3381TIP3    H131558   1.736   5.941  13.383  1.7457  0.1742 -1.1425
 3381TIP3    H231559   1.715   5.800  13.330  0.8217  0.4908 -1.6418
 3382TIP3   OH231560   3.165   0.967  13.370  0.5720  0.6152 -0.0360
 3382TIP3    H131561   3.222   1.025  13.319  0.7753  1.0223  0.6359
 3382TIP3    H231562   3.223   0.896  13.399  0.5782  0.6682  0.0798
 3383TIP3   OH231563   5.535   0.039   5.823 -0.0999  0.2124  0.2440
 3383TIP3    H131564   5.619   0.052   5.866  0.3609 -1.2876 -0.1256
 3383TIP3    H231565   5.521  -0.056   5.826 -0.3796  0.0934 -2.2203
 3384TIP3   OH231566   3.657   3.472   5.516 -0.3174 -0.3967  0.1118
 3384TIP3    H131567   3.678   3.484   5.608  0.4876 -1.7143  0.1297
 3384TIP3    H231568   3.583   3.412   5.515 -0.9931  0.4211 -0.0884
 3385TIP3   OH231569   0.929   4.729   1.772 -0.7182 -0.4136 -0.3503
 3385TIP3    H131570   0.998   4.705   1.710 -1.0859 -0.8094 -0.6057
 3385TIP3    H231571   0.972   4.790   1.833  0.4204 -2.1979  0.7285
 3386TIP3   OH231572   5.641   1.972  16.603 -0.2768 -0.3122  0.2513
 3386TIP3    H131573   5.620   1.883  16.631 -1.2903 -0.4910 -1.0016
 3386TIP3    H231574   5.694   1.961  16.524 -0.8620  0.1912 -0.2201
 3387TIP3   OH231575   4.731   4.257   4.530 -0.0615  0.9961  0.1319
 3387TIP3    H131576   4.646   4.297   4.551 -1.3215 -0.6677 -1.4597
 3387TIP3    H231577   4.766   4.230   4.614 -0.9648  1.9726  0.8568
 3388TIP3   OH231578   6.735   4.066   1.866 -0.0298 -1.0755 -0.4542
 3388TIP3    H131579   6.780   4.068   1.951 -1.3625 -2.8189  0.3670
 3388TIP3    H231580   6.687   4.149   1.863  0.2409 -0.8729  0.3792
 3389TIP3   OH231581   5.063   4.458   1.364 -0.3114 -0.0107 -0.0206
 3389TIP3    H131582   5.037   4.549   1.350  0.3628  0.2551  0.3688
 3389TIP3    H231583   5.105   4.458   1.450 -3.1204 -1.3132  1.4976
 3390TIP3   OH231584   2.157   4.732   2.851 -0.2091 -0.5069  0.0353
 3390TIP3    H131585   2.249   4.737   2.823 -0.5039  0.2542 -0.8351
 3390TIP3    H231586   2.161   4.692   2.938  0.9223 -0.7715 -0.1198
 3391TIP3   OH231587   1.394   0.956   1.895  0.4982  0.3761 -0.0962
 3391TIP3    H131588   1.333   0.921   1.830 -1.3969 -0.0854  1.8154
 3391TIP3    H231589   1.406   1.047   1.871 -1.2004  0.5548 -0.3818
 3392TIP3   OH231590   4.068   6.035  16.637 -0.2118 -0.7003  0.0455
 3392TIP3    H131591   3.979   6.042  16.669  0.1164 -1.5511  1.2321
 3392TIP3    H231592   4.059   6.017  16.543 -1.2620 -0.2446  0.0563
 3393TIP3   OH231593   3.172   0.612  14.545 -0.3421 -0.3793  0.2885
 3393TIP3    H131594   3.194   0.554  14.473 -0.0853 -0.1773  0.2042
 3393TIP3    H231595   3.241   0.599  14.609  0.4673  0.8271 -0.3103
 3394TIP3   OH231596   2.698   3.320   2.254 -0.4869 -0.5329 -0.1240
 3394TIP3    H131597   2.676   3.256   2.187 -0.2950 -1.4634  0.6724
 3394TIP3    H231598   2.678   3.275   2.337 -1.9800  1.0285  0.4313
 3395TIP3   OH231599   3.360   0.413  16.051  0.2204 -0.0126 -0.1592
 3395TIP3    H131600   3.379   0.485  15.991 -0.6815  0.3935  0.0228
 3395TIP3    H231601   3.427   0.347  16.032  0.6214  0.5734 -0.8264
 3396TIP3   OH231602   3.772   4.164   1.995  0.2582  0.3017  0.1467
 3396TIP3    H131603   3.805   4.254   1.994 -0.7802  0.7418  1.6484
 3396TIP3    H231604   3.813   4.122   1.919 -0.5329  2.4908 -1.6045
 3397TIP3   OH231605   2.576   1.088  14.410 -0.3506 -0.1769  0.2835
 3397TIP3    H131606   2.486   1.080  14.442 -0.2879  2.5544  1.4997
 3397TIP3    H231607   2.567   1.125  14.322 -0.4230 -1.3429 -0.2071
 3398TIP3   OH231608   0.491   3.013   4.054 -0.0882 -0.1477  0.2579
 3398TIP3    H131609   0.441   2.956   4.113  0.5443  0.4805  1.4183
 3398TIP3    H231610   0.425   3.071   4.015 -0.3598  0.2352  1.2699
 3399TIP3   OH231611   4.335   1.970   5.465  0.2388  0.3078 -0.6673
 3399TIP3    H131612   4.327   2.050   5.412 -1.8767  1.4587  1.1936
 3399TIP3    H231613   4.370   2.000   5.549  0.2569 -0.8914 -0.2247
 3400TIP3   OH231614   6.269   1.804   2.296  0.3502 -0.6475 -0.0077
 3400TIP3    H131615   6.261   1.876   2.232 -2.7735  1.1424  2.1022
 3400TIP3    H231616   6.300   1.847   2.376 -0.9352 -1.7127  1.1167
 3401TIP3   OH231617   4.867   6.531  16.944 -0.1346 -0.2026 -0.5821
 3401TIP3    H131618   4.784   6.499  16.909  0.1868 -1.4354 -0.2817
 3401TIP3    H231619   4.934   6.488  16.891  0.3435  1.9694 -1.8368
 3402TIP3   OH231620   3.475   5.015  15.146 -0.1221  0.0057 -0.5057
 3402TIP3    H131621   3.383   5.017  15.173 -0.7370 -1.0308 -2.3426
 3402TIP3    H231622   3.483   4.935  15.094  0.9008  1.8851 -3.4764
 3403TIP3   OH231623   6.475   5.866   1.275 -0.3835 -0.1164 -0.0031
 3403TIP3    H131624   6.532   5.789   1.275  0.2160  0.3163 -0.4103
 3403TIP3    H231625   6.504   5.918   1.349 -2.2035 -1.2696  1.6159
 3404TIP3   OH231626   1.772   4.055   3.374  0.0163  0.3070  0.1370
 3404TIP3    H131627   1.748   3.981   3.430 -0.8455 -0.9949 -1.8450
 3404TIP3    H231628   1.756   4.132   3.429  1.5723 -0.9295  2.4976
 3405TIP3   OH231629   0.367   2.616  14.175  0.1667 -0.6386 -0.3859
 3405TIP3    H131630   0.333   2.619  14.086  1.3777  0.2843 -0.8410
 3405TIP3    H231631   0.322   2.687  14.221  1.1314  0.3148 -0.8760
 3406TIP3   OH231632   0.968   2.979  11.980  0.3815  0.5487  0.0900
 3406TIP3    H131633   0.975   2.968  11.885  1.9077  1.2113  0.0980
 3406TIP3    H231634   1.051   3.019  12.006  0.5818 -0.9111  1.9039
 3407TIP3   OH231635   3.985   0.273  13.630 -0.0039 -0.3074 -0.9543
 3407TIP3    H131636   4.040   0.351  13.643  0.3281 -0.6263 -0.4209
 3407TIP3    H231637   4.027   0.227  13.557 -0.6137  0.3703 -1.7501
 3408TIP3   OH231638   6.465   3.620   4.618  0.5388  0.1956 -0.2607
 3408TIP3    H131639   6.371   3.623   4.638  0.2967  0.0180 -1.3011
 3408TIP3    H231640   6.469   3.588   4.528  1.5476  1.4508 -0.6905
 3409TIP3   OH231641   2.749   6.726  14.887  0.3123 -0.2611 -0.0840
 3409TIP3    H131642   2.792   6.671  14.953  0.0985  1.0717  1.2069
 3409TIP3    H231643   2.817   6.741  14.821  0.7664 -0.9721  0.2096
 3410TIP3   OH231644   6.564   5.274   2.332 -0.7580 -0.1226  0.1686
 3410TIP3    H131645   6.615   5.276   2.413 -0.0084 -0.0849 -0.2975
 3410TIP3    H231646   6.612   5.330   2.271 -2.1314  1.1049  0.1563
 3411TIP3   OH231647   5.116   2.014  14.151  0.2527 -0.3437 -0.4679
 3411TIP3    H131648   5.164   2.097  14.157 -0.5228  0.1411 -0.7685
 3411TIP3    H231649   5.184   1.947  14.151  0.8509  0.2159  0.9493
 3412TIP3   OH231650   5.825   3.122   1.301  0.0709 -0.0028  0.0144
 3412TIP3    H131651   5.894   3.188   1.293 -0.5171  0.4744 -1.2882
 3412TIP3    H231652   5.768   3.138   1.227 -0.0335 -2.0508 -0.3983
 3413TIP3   OH231653   5.031   6.098  10.299 -0.2113 -0.2422 -0.4421
 3413TIP3    H131654   4.994   6.048  10.372 -0.0680 -1.0480 -0.9073
 3413TIP3    H231655   4.958   6.151  10.267  0.1937  1.6893  1.5314
 3414TIP3   OH231656   3.262   4.964   1.784 -0.4221 -0.1015 -0.2413
 3414TIP3    H131657   3.335   4.977   1.724  0.2287  0.1793  0.6033
 3414TIP3    H231658   3.226   4.879   1.760 -1.2804  0.7395 -2.1879
 3415TIP3   OH231659   1.389   6.750  16.395 -0.4477  0.3811  0.7409
 3415TIP3    H131660   1.390   6.801  16.476 -0.4607  0.5418  0.6426
 3415TIP3    H231661   1.296   6.738  16.376 -0.4887  1.7457 -0.1079
 3416TIP3   OH231662   2.319   3.107  17.032 -0.5810 -0.2763 -0.7569
 3416TIP3    H131663   2.229   3.097  17.001 -0.2923  1.1339 -2.2336
 3416TIP3    H231664   2.363   3.155  16.961  1.0533  0.0197  0.3985
 3417TIP3   OH231665   4.353   0.616   6.447  0.6207 -0.0832 -0.0636
 3417TIP3    H131666   4.405   0.612   6.527  0.9129 -0.0557 -0.2482
 3417TIP3    H231667   4.290   0.545   6.455  0.7491 -0.1765  0.1213
 3418TIP3   OH231668   0.507   5.655   4.032 -0.1991 -0.6781  0.3494
 3418TIP3    H131669   0.570   5.594   3.992  0.6221 -0.3701  1.1500
 3418TIP3    H231670   0.556   5.736   4.042 -1.2085  0.0522 -0.4580
 3419TIP3   OH231671   6.280   5.844   3.004  0.2140  0.0066  0.4733
 3419TIP3    H131672   6.352   5.811   3.059  0.5194 -0.4084 -0.1721
 3419TIP3    H231673   6.204   5.791   3.030 -0.0278  0.8565  1.5976
 3420TIP3   OH231674   1.984   5.041  17.052 -0.1222  0.0121  0.2227
 3420TIP3    H131675   2.074   5.041  17.019  0.2401 -3.6296  0.8269
 3420TIP3    H231676   1.993   5.034  17.147 -1.1789  3.3928  0.7251
 3421TIP3   OH231677   2.814   1.208   5.708  0.3686  0.3316  0.5759
 3421TIP3    H131678   2.836   1.255   5.628  0.4681 -1.1097 -0.2640
 3421TIP3    H231679   2.724   1.178   5.695  0.4704 -0.1301  0.8951
 3422TIP3   OH231680   2.856   1.083   4.219  0.1617  0.2680 -0.1483
 3422TIP3    H131681   2.944   1.072   4.183  0.8285  0.1206  1.4668
 3422TIP3    H231682   2.868   1.140   4.295 -1.1942  0.4983 -0.0827
 3423TIP3   OH231683   0.049   6.210  15.647  0.1438  0.2401  0.1656
 3423TIP3    H131684  -0.023   6.242  15.591 -0.0444 -1.9597 -0.9631
 3423TIP3    H231685   0.009   6.199  15.733 -0.6997 -0.2491 -0.2726
 3424TIP3   OH231686   0.219   4.625  13.213 -0.4659  0.1600 -0.1465
 3424TIP3    H131687   0.276   4.600  13.285 -0.8380  0.2898  0.1962
 3424TIP3    H231688   0.203   4.719  13.227 -0.2662  0.2668 -0.5922
 3425TIP3   OH231689   6.533   2.691  12.108 -0.2373 -0.5487 -0.4731
 3425TIP3    H131690   6.465   2.659  12.049 -0.0975 -2.1055  0.1559
 3425TIP3    H231691   6.510   2.783  12.124 -1.3676 -0.6486 -1.3940
 3426TIP3   OH231692   6.268   3.143  14.850  0.0015 -0.5745 -0.3766
 3426TIP3    H131693   6.256   3.238  14.842  2.5480  0.0917  2.1426
 3426TIP3    H231694   6.186   3.112  14.889 -1.7171  0.1250 -3.1161
 3427TIP3   OH231695   0.773   1.386   2.959 -0.1457 -0.3733  0.4595
 3427TIP3    H131696   0.802   1.295   2.967  1.1332  0.1029  1.3865
 3427TIP3    H231697   0.818   1.418   2.881  0.5604 -0.1032  0.9785
 3428TIP3   OH231698   1.841   0.329   0.173  0.4327  0.3179  0.4847
 3428TIP3    H131699   1.773   0.382   0.131  0.1814 -0.4844 -0.1511
 3428TIP3    H231700   1.843   0.247   0.122  1.9600  0.3710  0.4017
 3429TIP3   OH231701   3.471   2.528  14.699  0.1500 -0.2178  0.0669
 3429TIP3    H131702   3.449   2.457  14.760 -0.9692 -1.0589 -1.2707
 3429TIP3    H231703   3.559   2.507  14.668 -0.0898 -0.9108 -0.1527
 3430TIP3   OH231704   6.305   5.791   1.631  0.3097 -0.6842 -0.7145
 3430TIP3    H131705   6.290   5.714   1.576  0.0544 -1.5211  0.4875
 3430TIP3    H231706   6.223   5.804   1.678 -0.5920  1.9358 -2.7371
 3431TIP3   OH231707   4.929   2.792   2.880  0.4590 -0.3605  0.2203
 3431TIP3    H131708   4.866   2.765   2.813 -0.4877  1.5302  0.2830
 3431TIP3    H231709   4.897   2.751   2.960 -1.7513  1.8388  0.5920
 3432TIP3   OH231710   1.770   0.359  16.138 -0.6342 -0.5026 -0.7152
 3432TIP3    H131711   1.792   0.449  16.161 -0.2841 -1.2688  2.3513
 3432TIP3    H231712   1.682   0.346  16.173 -0.7518 -1.3169 -1.2857
 3433TIP3   OH231713   3.938   0.436   2.088  0.0583 -0.1815  0.5979
 3433TIP3    H131714   4.019   0.479   2.060 -0.1129 -0.3349 -0.1693
 3433TIP3    H231715   3.877   0.452   2.016 -0.4099 -0.5684  0.9077
 3434TIP3   OH231716   0.139   2.007  12.366 -0.1329 -0.1619  0.2796
 3434TIP3    H131717   0.133   2.016  12.271  1.5044 -0.8066  0.0801
 3434TIP3    H231718   0.119   2.095  12.400  1.7212  0.7517 -0.8186
 3435TIP3   OH231719   0.858   6.411  13.162 -0.0459  0.4460 -0.5509
 3435TIP3    H131720   0.775   6.387  13.203  0.0419  1.7731  0.4597
 3435TIP3    H231721   0.898   6.473  13.223  1.4596  0.2234 -1.2642
 3436TIP3   OH231722   4.594   4.911  14.909  0.3133  0.1722 -0.1866
 3436TIP3    H131723   4.618   4.949  14.824  0.3597  3.1522  1.0611
 3436TIP3    H231724   4.671   4.924  14.964  0.3341 -1.8545  0.3348
 3437TIP3   OH231725   4.287   4.204   4.973  0.2117 -0.2704  0.3778
 3437TIP3    H131726   4.298   4.218   4.879 -0.2669 -0.2954  0.3179
 3437TIP3    H231727   4.249   4.117   4.980  0.2562 -0.2723  0.5971
 3438TIP3   OH231728   4.727   1.236  13.514 -0.3327 -0.1077  0.4393
 3438TIP3    H131729   4.747   1.329  13.506  1.9277 -0.6987 -1.5934
 3438TIP3    H231730   4.643   1.225  13.469 -1.1723  1.0627  1.6437
 3439TIP3   OH231731   1.575   4.907  12.754 -0.1868 -0.2511  0.8625
 3439TIP3    H131732   1.551   4.826  12.708  0.0012  0.1996 -0.0570
 3439TIP3    H231733   1.594   4.969  12.684 -0.6833  0.7064  1.5503
 3440TIP3   OH231734   3.568   2.539  14.194 -1.0659  0.2444 -0.0614
 3440TIP3    H131735   3.507   2.535  14.267 -1.7955 -2.2406 -0.7260
 3440TIP3    H231736   3.547   2.462  14.140  1.5676  0.1906 -1.1636
 3441TIP3   OH231737   3.635   5.040   1.363  0.1545 -0.5549 -0.2318
 3441TIP3    H131738   3.587   4.990   1.297 -1.7500  1.7747 -0.7162
 3441TIP3    H231739   3.722   5.053   1.325 -0.7545  0.3322 -2.0959
 3442TIP3   OH231740   2.374   1.597  13.203 -0.2278  0.1720 -0.1375
 3442TIP3    H131741   2.287   1.628  13.178  0.1529  0.0182 -1.8126
 3442TIP3    H231742   2.361   1.554  13.287 -1.2438  2.5869  1.0467
 3443TIP3   OH231743   2.874   6.051  11.934  0.3840  0.1137 -0.3945
 3443TIP3    H131744   2.914   6.001  11.863 -0.4493 -1.8831  0.4586
 3443TIP3    H231745   2.915   6.017  12.014  0.9889  2.0120  0.1570
 3444TIP3   OH231746   1.173   6.580  14.251 -0.4839  0.0214 -0.3373
 3444TIP3    H131747   1.262   6.559  14.281 -0.5999 -0.6180 -0.4171
 3444TIP3    H231748   1.186   6.621  14.165 -0.2492  0.2607 -0.1905
 3445TIP3   OH231749   4.036   0.192   4.676 -0.3246 -0.1195  0.5670
 3445TIP3    H131750   4.099   0.264   4.675  0.4353 -0.7725  0.8363
 3445TIP3    H231751   4.013   0.182   4.768 -0.7129  0.0156  0.4864
 3446TIP3   OH231752   3.750   5.982   5.569 -0.7811 -0.1553  0.4963
 3446TIP3    H131753   3.777   5.921   5.637 -0.4326  0.9186  1.3533
 3446TIP3    H231754   3.756   6.068   5.610  0.5709  0.6423 -1.2214
 3447TIP3   OH231755   1.888   4.868   4.122  0.0798  0.2009 -0.3651
 3447TIP3    H131756   1.821   4.926   4.087 -0.6587 -1.3891 -1.7649
 3447TIP3    H231757   1.846   4.782   4.124  1.7390 -0.6544 -0.2361
 3448TIP3   OH231758   5.558   6.581  15.047 -0.9168 -0.5093  0.3372
 3448TIP3    H131759   5.533   6.511  15.107  1.3383 -0.1482  1.8365
 3448TIP3    H231760   5.630   6.626  15.091 -0.6246  1.1957 -1.6918
 3449TIP3   OH231761   2.366   4.139  15.333 -0.4120 -0.1269  0.6276
 3449TIP3    H131762   2.285   4.137  15.384  0.2448 -3.2615  1.8051
 3449TIP3    H231763   2.414   4.061  15.362  1.9348  0.2844 -1.7827
 3450TIP3   OH231764   3.135   5.360  11.484  0.2561 -0.2589  0.3304
 3450TIP3    H131765   3.043   5.346  11.506  0.2288 -1.6279 -0.5613
 3450TIP3    H231766   3.182   5.288  11.526  0.8536  0.0510  0.2196
 3451TIP3   OH231767   0.870   1.893  15.537 -0.1510  0.7958 -0.2876
 3451TIP3    H131768   0.778   1.868  15.540 -0.5115  1.9376 -1.0323
 3451TIP3    H231769   0.894   1.909  15.628 -1.0234  1.5957 -0.1815
 3452TIP3   OH231770   0.658   5.568  11.747 -1.0656 -0.2887 -0.5132
 3452TIP3    H131771   0.639   5.504  11.816 -2.7651  0.3639 -0.3168
 3452TIP3    H231772   0.694   5.643  11.792 -4.2373  1.0316  0.0903
 3453TIP3   OH231773   2.289   1.469   6.454  0.1626 -0.0322  0.0636
 3453TIP3    H131774   2.380   1.453   6.481  0.0386 -0.7161  0.0889
 3453TIP3    H231775   2.269   1.396   6.395 -0.7977 -0.6280  1.0831
 3454TIP3   OH231776   6.236   0.943  12.863 -0.1936  0.0535  0.2446
 3454TIP3    H131777   6.297   0.959  12.790 -1.2158  1.0552 -0.4267
 3454TIP3    H231778   6.211   0.851  12.854 -0.3774  0.1910 -0.7393
 3455TIP3   OH231779   2.414   3.698  16.789  0.0018 -0.0610 -0.0580
 3455TIP3    H131780   2.399   3.677  16.881 -1.2890 -1.1266 -0.4774
 3455TIP3    H231781   2.371   3.627  16.741 -0.7784  1.3194 -1.4972
 3456TIP3   OH231782   0.440   3.094  13.176  0.0452  0.2688 -0.1412
 3456TIP3    H131783   0.487   3.161  13.226  2.0706 -1.8103  0.9435
 3456TIP3    H231784   0.456   3.013  13.224 -1.5725 -1.1635 -1.8744
 3457TIP3   OH231785   4.557   2.939   5.901  0.2217  0.6552 -0.1163
 3457TIP3    H131786   4.472   2.982   5.896  0.8284  1.9262  0.0074
 3457TIP3    H231787   4.597   2.975   5.980  0.5246 -0.6154  0.3341
 3458TIP3   OH231788   0.574   5.393  15.893 -0.0013  0.4579 -0.7800
 3458TIP3    H131789   0.575   5.458  15.822  1.2571  1.0547 -0.2574
 3458TIP3    H231790   0.597   5.444  15.972  1.9137 -0.7303 -0.4917
 3459TIP3   OH231791   1.665   2.012   3.576 -0.3395 -0.2460  0.1597
 3459TIP3    H131792   1.692   2.101   3.599  0.9417 -0.7519  0.7638
 3459TIP3    H231793   1.686   1.960   3.654 -0.4623 -1.1808 -0.4130
 3460TIP3   OH231794   4.066   4.508   3.563 -0.1513 -0.2903  0.5526
 3460TIP3    H131795   4.126   4.480   3.633  0.5544 -0.7515 -0.2239
 3460TIP3    H231796   3.990   4.542   3.610  0.6642  0.2000  1.5600
 3461TIP3   OH231797   4.699   2.072  16.781  0.3880 -0.2426 -0.1834
 3461TIP3    H131798   4.675   1.979  16.778  0.6949 -0.4973  2.5776
 3461TIP3    H231799   4.776   2.079  16.725 -0.5393 -1.3193 -1.6485
 3462TIP3   OH231800   0.110   0.161  14.121 -0.1419 -0.3177 -0.0092
 3462TIP3    H131801   0.077   0.230  14.179 -0.7650  0.6117 -1.4075
 3462TIP3    H231802   0.042   0.094  14.122 -1.6438  1.0916 -2.0175
 3463TIP3   OH231803   0.882   2.949  11.156  0.1139  0.0131  0.2063
 3463TIP3    H131804   0.870   2.998  11.075 -0.5426 -0.4622  0.0038
 3463TIP3    H231805   0.836   2.866  11.141  0.7852 -0.4670  0.7192
 3464TIP3   OH231806   4.633   2.713   1.093 -0.3992  0.5945  0.2682
 3464TIP3    H131807   4.682   2.786   1.132 -0.1471  1.0830 -0.9108
 3464TIP3    H231808   4.683   2.690   1.015 -1.3117  0.1687 -0.2057
 3465TIP3   OH231809   4.369   4.560   5.455 -0.3548 -0.3639  0.1718
 3465TIP3    H131810   4.394   4.575   5.546  1.5349  0.1963 -0.3965
 3465TIP3    H231811   4.335   4.471   5.453 -0.7815 -0.2401  1.4933
 3466TIP3   OH231812   2.231   3.488   3.502  0.1946  0.1680  0.1377
 3466TIP3    H131813   2.208   3.501   3.594 -0.7711 -0.3718 -0.0107
 3466TIP3    H231814   2.262   3.397   3.498 -0.7248 -0.1396 -0.2372
 3467TIP3   OH231815   5.623   4.721   5.073 -0.1412 -0.3464 -0.3008
 3467TIP3    H131816   5.668   4.656   5.019 -1.5643 -1.3335 -0.3583
 3467TIP3    H231817   5.534   4.725   5.038 -0.4602  0.6509  0.5586
 3468TIP3   OH231818   5.820   0.065  15.947  0.2104  0.4273 -0.2925
 3468TIP3    H131819   5.846  -0.019  15.907 -1.2124 -0.1709 -0.0389
 3468TIP3    H231820   5.728   0.075  15.922 -0.1091  1.0851  1.0630
 3469TIP3   OH231821   3.968   2.492  15.481 -0.2783 -0.4035 -0.1151
 3469TIP3    H131822   3.975   2.455  15.393  0.9082  0.0896 -0.2589
 3469TIP3    H231823   3.918   2.428  15.531 -0.6271 -0.8772 -1.0492
 3470TIP3   OH231824   1.316   0.602   3.504 -0.2584 -0.2600  0.0172
 3470TIP3    H131825   1.279   0.672   3.558  0.3065  0.3932 -0.4297
 3470TIP3    H231826   1.381   0.560   3.560  1.0891  1.0954 -0.4646
 3471TIP3   OH231827   0.563   3.446   3.928  0.5789  0.8720 -0.7799
 3471TIP3    H131828   0.595   3.535   3.941  0.9593  0.5256  0.7689
 3471TIP3    H231829   0.518   3.424   4.009  0.2750 -0.2780 -1.2347
 3472TIP3   OH231830   4.731   0.299  14.143  0.2201 -0.1756  0.6764
 3472TIP3    H131831   4.751   0.360  14.072  0.3910 -1.9412 -0.8774
 3472TIP3    H231832   4.664   0.241  14.106  1.9486 -2.5598  1.0718
 3473TIP3   OH231833   5.395   1.895   2.784 -0.4096  0.4974 -0.1388
 3473TIP3    H131834   5.487   1.893   2.759 -0.5036 -1.4076 -0.5102
 3473TIP3    H231835   5.364   1.981   2.756  1.1284  0.9817 -0.4378
 3474TIP3   OH231836   2.782   5.236   3.142 -0.5402 -0.2032 -0.0478
 3474TIP3    H131837   2.805   5.328   3.154  1.0265 -0.6194  0.5312
 3474TIP3    H231838   2.689   5.231   3.163 -1.1409  1.5462 -1.9823
 3475TIP3   OH231839   5.757   2.195   1.361  0.4237 -0.3338 -0.0111
 3475TIP3    H131840   5.669   2.187   1.399 -0.5745  1.2850 -1.7987
 3475TIP3    H231841   5.808   2.242   1.428 -0.9151  1.2653 -0.0327
 3476TIP3   OH231842   0.006   4.587   5.585  0.1620 -0.1475  0.8976
 3476TIP3    H131843  -0.056   4.584   5.512 -0.0518  2.1171  0.9318
 3476TIP3    H231844   0.091   4.605   5.544  0.3301 -0.4679  1.0955
 3477TIP3   OH231845   3.874   6.042   4.276 -0.2759  0.1076 -0.5037
 3477TIP3    H131846   3.864   6.000   4.361  0.1139 -2.1956 -1.5211
 3477TIP3    H231847   3.791   6.087   4.261  0.3909  2.4598  1.9774
 3478TIP3   OH231848   6.469   5.810  16.106  0.1894  0.1728 -0.2043
 3478TIP3    H131849   6.519   5.728  16.100 -1.1915 -0.6020 -1.7986
 3478TIP3    H231850   6.394   5.797  16.048  0.1045  2.7072 -0.7651
 3479TIP3   OH231851   4.155   4.470   0.976  0.3549 -0.3644 -0.2340
 3479TIP3    H131852   4.127   4.501   1.062  1.7644  0.0199  0.1082
 3479TIP3    H231853   4.131   4.541   0.916 -1.6885 -1.1089 -0.3957
 3480TIP3   OH231854   4.705   2.344   5.144  0.1610 -0.3779 -0.4792
 3480TIP3    H131855   4.769   2.413   5.161 -0.1880 -0.0059 -0.6488
 3480TIP3    H231856   4.665   2.326   5.229  0.8731 -1.0013 -0.2696
 3481TIP3   OH231857   6.010   5.009   3.705  0.5934  0.1832  0.0430
 3481TIP3    H131858   6.079   5.073   3.686  0.4124 -0.0203 -1.4257
 3481TIP3    H231859   6.051   4.946   3.765  1.0506  1.1633  0.7791
 3482TIP3   OH231860   1.007   4.977  12.890  0.2711  0.0651  0.3435
 3482TIP3    H131861   0.972   5.013  12.971 -2.0380  0.0980 -0.5760
 3482TIP3    H231862   1.059   4.902  12.917 -0.7177 -0.1248  1.8438
 3483TIP3   OH231863   0.785   5.449  14.139 -0.0442 -0.2729 -0.4864
 3483TIP3    H131864   0.869   5.439  14.184 -0.5574 -0.0561  0.5455
 3483TIP3    H231865   0.767   5.543  14.143 -0.5515 -0.3761 -0.2796
 3484TIP3   OH231866   2.926   0.489   1.938  0.2453  0.1479 -0.4543
 3484TIP3    H131867   2.888   0.416   1.986 -2.7730  1.6953 -0.2146
 3484TIP3    H231868   2.979   0.449   1.870 -1.6162 -2.3200 -0.5907
 3485TIP3   OH231869   4.109   6.643   0.145  0.2413 -0.3583 -0.2659
 3485TIP3    H131870   4.125   6.644   0.239  0.5462 -0.5506 -0.3154
 3485TIP3    H231871   4.138   6.556   0.117  0.7601 -0.0636 -0.6442
 3486TIP3   OH231872   4.911   6.355  11.221 -0.3689  0.1509 -0.1254
 3486TIP3    H131873   4.891   6.411  11.146 -0.0986  0.2937 -0.0925
 3486TIP3    H231874   4.901   6.266  11.187  2.5258  0.1142 -1.1952
 3487TIP3   OH231875   3.520   1.853  12.716 -0.2696  0.8910  0.2706
 3487TIP3    H131876   3.535   1.868  12.809 -0.7187 -0.1475  0.5190
 3487TIP3    H231877   3.606   1.830  12.681 -0.1664  0.9423  0.4899
 3488TIP3   OH231878   5.926   1.884  15.892 -0.3372  0.1626 -0.0644
 3488TIP3    H131879   5.917   1.974  15.861 -0.3367 -0.2267 -1.2401
 3488TIP3    H231880   5.837   1.853  15.904 -0.3427  0.2107  0.0194
 3489TIP3   OH231881   6.070   1.630  13.851 -0.0550  0.2529  1.1072
 3489TIP3    H131882   6.106   1.547  13.879  2.5996  1.0921  0.4901
 3489TIP3    H231883   6.064   1.683  13.931 -3.2728 -0.9356  1.7829
 3490TIP3   OH231884   3.168   1.132   5.868 -0.1982 -0.9224 -0.0909
 3490TIP3    H131885   3.117   1.213   5.868  0.8257 -0.2461  0.0775
 3490TIP3    H231886   3.188   1.116   5.961  0.3895 -0.8358 -0.1948
 3491TIP3   OH231887   4.329   2.602  15.454 -0.5742  0.2682  0.0537
 3491TIP3    H131888   4.387   2.529  15.433 -0.6243  0.3348 -0.3112
 3491TIP3    H231889   4.274   2.613  15.377 -0.8664  0.4065  0.2789
 3492TIP3   OH231890   1.367   6.062   0.913 -0.3550  0.8111  0.2982
 3492TIP3    H131891   1.360   6.009   0.993  0.5331 -1.0840 -0.8048
 3492TIP3    H231892   1.283   6.051   0.869  0.1970 -0.6717 -0.4596
 3493TIP3   OH231893   4.772   5.001   6.443 -0.4798  0.1621 -0.6597
 3493TIP3    H131894   4.803   5.091   6.435 -4.0558  1.4507 -1.9074
 3493TIP3    H231895   4.701   4.994   6.379 -0.9599 -3.2745  0.0506
 3494TIP3   OH231896   4.581   0.163  11.938 -0.3409  0.2805  0.5726
 3494TIP3    H131897   4.659   0.167  11.884  0.4551  0.8681  1.7275
 3494TIP3    H231898   4.614   0.146  12.027 -1.6477 -1.5921  0.7679
 3495TIP3   OH231899   2.239   0.996   4.419 -0.0603 -0.7052 -0.1203
 3495TIP3    H131900   2.241   1.087   4.391  1.7384 -0.6173  0.1470
 3495TIP3    H231901   2.205   0.999   4.509  1.5381 -0.0450  0.5167
 3496TIP3   OH231902   2.359   0.632   3.276  0.2602 -0.1371  0.2477
 3496TIP3    H131903   2.269   0.602   3.261  0.7286 -1.2515 -0.5118
 3496TIP3    H231904   2.413   0.557   3.251  1.4313  0.7671 -0.0048
 3497TIP3   OH231905   3.687   2.432  16.989  0.1471 -0.3229  0.0044
 3497TIP3    H131906   3.641   2.390  16.917 -1.2495  0.0602  0.6452
 3497TIP3    H231907   3.690   2.525  16.965  1.2942 -0.4402 -0.3856
 3498TIP3   OH231908   0.374   3.246  11.583  0.6821 -0.1250  0.0154
 3498TIP3    H131909   0.432   3.317  11.554  0.7890 -0.3985 -0.4561
 3498TIP3    H231910   0.352   3.200  11.502 -2.5713  1.7252 -0.3243
 3499TIP3   OH231911   3.181   5.739  12.983 -0.1815 -0.7398 -0.7051
 3499TIP3    H131912   3.173   5.815  12.925 -1.8868  0.6478  1.1656
 3499TIP3    H231913   3.092   5.705  12.990 -0.1128 -0.6849  1.2065
 3500TIP3   OH231914   1.023   2.462  16.114 -0.0361 -0.5161 -0.1070
 3500TIP3    H131915   0.987   2.426  16.033 -0.9944 -1.7826  0.8493
 3500TIP3    H231916   1.037   2.386  16.171 -1.9417  0.5468  1.9165
 3501TIP3   OH231917   2.089   6.006  11.919  0.1360  0.8283 -0.7428
 3501TIP3    H131918   1.995   6.005  11.899 -0.1990 -0.7958  0.6253
 3501TIP3    H231919   2.118   6.094  11.895 -1.4662  0.9802 -2.3352
 3502TIP3   OH231920   5.240   1.372   5.831 -0.1616 -0.1820  0.4947
 3502TIP3    H131921   5.237   1.409   5.920  1.3201  1.4520 -0.0567
 3502TIP3    H231922   5.166   1.412   5.786  0.3426  0.7320  0.4348
 3503TIP3   OH231923   6.074   4.962   1.069  0.2870  0.3284  0.1275
 3503TIP3    H131924   6.100   5.009   0.990  1.9438 -1.2220 -0.3196
 3503TIP3    H231925   6.080   4.870   1.046 -0.2037 -0.1601  1.7729
 3504TIP3   OH231926   1.976   6.520  15.816  0.3396  0.6015  0.7457
 3504TIP3    H131927   2.041   6.493  15.881  0.9717 -1.3887 -0.6158
 3504TIP3    H231928   1.997   6.611  15.798  1.1619  0.7245  2.1421
 3505TIP3   OH231929   3.103   4.848   2.135 -0.1577 -0.1624 -0.4915
 3505TIP3    H131930   3.112   4.887   2.222  2.2482  1.2158 -1.2650
 3505TIP3    H231931   3.155   4.768   2.139  0.8866  0.4666 -0.9157
 3506TIP3   OH231932   5.187   4.509   2.941  0.6698 -0.7988  0.1008
 3506TIP3    H131933   5.225   4.456   2.871 -1.7418 -2.1761 -0.2724
 3506TIP3    H231934   5.136   4.576   2.895  1.9612  0.5771  0.5880
 3507TIP3   OH231935   5.638   2.246  13.858  0.1082 -0.2989  0.6390
 3507TIP3    H131936   5.628   2.165  13.808  1.1149  0.7902 -1.4894
 3507TIP3    H231937   5.588   2.231  13.938 -0.7250 -2.5601 -0.2046
 3508TIP3   OH231938   6.368   1.785  12.415  0.4291  0.1557  0.3054
 3508TIP3    H131939   6.398   1.788  12.505 -0.6383 -0.0617  0.6904
 3508TIP3    H231940   6.305   1.857  12.408  0.5909  0.2425 -0.2965
 3509TIP3   OH231941   1.538   0.787   4.501 -0.2125 -0.6026  0.3216
 3509TIP3    H131942   1.541   0.741   4.585  0.1719  0.1896  0.7517
 3509TIP3    H231943   1.458   0.755   4.459  0.2365 -1.9148  0.4517
 3510TIP3   OH231944   5.989   0.529  12.236  0.5899 -0.0139 -0.6484
 3510TIP3    H131945   5.898   0.517  12.266  1.0515 -2.5588 -0.0155
 3510TIP3    H231946   5.983   0.594  12.166 -1.4217  1.4012  0.7133
 3511TIP3   OH231947   3.256   5.540   5.636 -0.8556 -0.3050 -0.5794
 3511TIP3    H131948   3.329   5.595   5.664  0.3421 -2.2055  0.2330
 3511TIP3    H231949   3.212   5.592   5.569  1.6021  0.6898 -1.5707
 3512TIP3   OH231950   2.378   3.434   6.522 -0.6751 -0.5461  0.1209
 3512TIP3    H131951   2.367   3.374   6.596  1.3189  0.9801  1.7708
 3512TIP3    H231952   2.450   3.491   6.548 -0.1875  0.3604 -2.8513
 3513TIP3   OH231953   4.286   3.424   4.152  0.0590 -0.0147  0.3039
 3513TIP3    H131954   4.284   3.340   4.198  2.5881 -0.0772  0.4278
 3513TIP3    H231955   4.356   3.473   4.196 -0.0053  1.3742 -1.0728
 3514TIP3   OH231956   2.703   1.591   0.397 -0.5660 -0.2004 -0.2020
 3514TIP3    H131957   2.693   1.496   0.394  0.1549 -0.2991  0.1990
 3514TIP3    H231958   2.771   1.605   0.463 -2.6796  0.7646  1.9070
 3515TIP3   OH231959   2.584   1.133  16.752  0.0533 -0.1907 -0.0009
 3515TIP3    H131960   2.515   1.098  16.696 -0.5056  0.3532  0.3410
 3515TIP3    H231961   2.658   1.145  16.693 -0.4951  0.2696 -0.6104
 3516TIP3   OH231962   4.080   2.559  16.018  0.1893  0.0396 -0.5991
 3516TIP3    H131963   4.059   2.541  16.109  0.6604 -1.5968 -0.7874
 3516TIP3    H231964   3.996   2.575  15.976  0.0383  1.7553  0.2864
 3517TIP3   OH231965   2.686   5.752   1.915  0.5130 -0.1304 -0.0379
 3517TIP3    H131966   2.643   5.678   1.957 -1.6759 -0.5798 -2.7859
 3517TIP3    H231967   2.646   5.829   1.955 -2.2100 -0.5482 -1.7027
 3518TIP3   OH231968   1.638   4.414   2.050  0.2786 -0.4336  0.1659
 3518TIP3    H131969   1.611   4.505   2.044 -0.7536 -0.7831 -0.8062
 3518TIP3    H231970   1.638   4.395   2.144  0.4138  0.5298  0.3685
 3519TIP3   OH231971   0.716   5.978   6.129 -0.4666  0.3156 -0.0494
 3519TIP3    H131972   0.764   5.977   6.211  0.8987  2.9946 -0.7085
 3519TIP3    H231973   0.636   6.027   6.149 -0.5696  0.1825 -0.1289
 3520TIP3   OH231974   1.837   4.614  13.629 -0.3415  0.6557 -0.2686
 3520TIP3    H131975   1.930   4.605  13.607 -0.2748  1.8509 -0.5667
 3520TIP3    H231976   1.806   4.684  13.571 -1.7500 -0.5878 -1.0884
 3521TIP3   OH231977   4.173   0.477   5.265 -0.0808  0.3824 -0.0261
 3521TIP3    H131978   4.164   0.518   5.351  0.2650 -0.3138  0.3435
 3521TIP3    H231979   4.265   0.453   5.259  0.4585  2.5219 -1.5589
 3522TIP3   OH231980   0.133   0.537  16.914 -0.1217  0.0626 -0.4284
 3522TIP3    H131981   0.096   0.604  16.856 -0.0665  0.7392  0.2981
 3522TIP3    H231982   0.113   0.569  17.003  0.0744 -0.7912 -0.0694
 3523TIP3   OH231983   1.435   5.511   1.487 -0.0205  0.1820 -0.6069
 3523TIP3    H131984   1.378   5.518   1.411  0.0445  0.7193 -0.6133
 3523TIP3    H231985   1.488   5.591   1.484 -1.8629  1.6045  1.5019
 3524TIP3   OH231986   6.170   2.045   1.444 -0.0995 -0.2079 -0.5726
 3524TIP3    H131987   6.118   2.113   1.486 -0.3266 -0.9988  0.4568
 3524TIP3    H231988   6.116   2.016   1.370 -0.7305 -0.4035 -0.0415
 3525TIP3   OH231989   0.355   4.445   3.150 -0.0339 -0.0246  0.7739
 3525TIP3    H131990   0.376   4.535   3.125 -1.5296  0.0025 -0.5732
 3525TIP3    H231991   0.292   4.417   3.084  1.5949 -2.6185  0.2038
 3526TIP3   OH231992   2.412   3.349  16.927  0.1020 -0.4998 -0.9724
 3526TIP3    H131993   2.498   3.310  16.911 -0.2681 -1.5669 -0.3927
 3526TIP3    H231994   2.425   3.404  17.004  0.2765 -0.6324 -0.9063
 3527TIP3   OH231995   0.953   3.925  15.396  0.6107  0.3120  0.0036
 3527TIP3    H131996   0.897   3.996  15.428 -0.0667 -0.6376  1.0485
 3527TIP3    H231997   0.913   3.899  15.313 -1.0432 -0.8529  1.0884
 3528TIP3   OH231998   5.962   1.043  17.166 -1.1547 -0.3936 -0.2682
 3528TIP3    H131999   5.894   1.048  17.234 -0.1886 -0.4507  0.7242
 3528TIP3    H232000   5.923   1.089  17.091 -2.0411  0.1424  0.4899
 3529TIP3   OH232001   4.061   2.895   4.568 -0.0018  0.4948 -0.1570
 3529TIP3    H132002   3.966   2.895   4.555 -0.4740  2.0077  2.5570
 3529TIP3    H232003   4.084   2.802   4.573 -1.3771  0.1042 -0.5479
 3530TIP3   OH232004   3.523   3.319   3.412  0.7631  0.2915  0.9025
 3530TIP3    H132005   3.575   3.393   3.382  0.3863  0.7160  1.2872
 3530TIP3    H232006   3.457   3.357   3.469 -0.3416 -0.1584 -0.0212
 3531TIP3   OH232007   0.588   1.416   4.418  0.1032  0.2445 -1.0999
 3531TIP3    H132008   0.682   1.438   4.422  0.2462 -0.4620 -0.2044
 3531TIP3    H232009   0.584   1.340   4.360  0.0654  0.3766 -1.2700
 3532TIP3   OH232010   6.372   4.936  13.884 -0.6369 -0.5837  0.5376
 3532TIP3    H132011   6.355   4.858  13.936  2.2984 -1.2407  0.6730
 3532TIP3    H232012   6.420   4.905  13.808  1.9153  1.1704  1.3054
 3533TIP3   OH232013   5.951   0.365  16.709 -0.5727 -0.1099  0.0301
 3533TIP3    H132014   6.043   0.390  16.705 -0.3843 -0.7371  0.3000
 3533TIP3    H232015   5.923   0.359  16.618 -1.2200  3.1243 -0.1080
 3534TIP3   OH232016   3.537   1.359   1.342 -0.0160 -0.3371  0.3987
 3534TIP3    H132017   3.469   1.424   1.356  1.8803  1.5370  1.6460
 3534TIP3    H232018   3.504   1.280   1.384 -2.3221 -0.2346 -1.0217
 3535TIP3   OH232019   5.501   4.327  16.131 -0.5145 -0.5980  0.3626
 3535TIP3    H132020   5.572   4.270  16.102  0.6623  0.8077  0.3492
 3535TIP3    H232021   5.468   4.286  16.212  2.2381  0.1493  1.9892
 3536TIP3   OH232022   2.317   4.608   3.438 -0.2262 -0.4327  0.1792
 3536TIP3    H132023   2.402   4.580   3.405 -0.2594 -1.0080  0.5553
 3536TIP3    H232024   2.284   4.532   3.486 -0.9195 -0.1902  0.0995
 3537TIP3   OH232025   3.536   4.110   5.716 -0.0134  0.6603  0.8679
 3537TIP3    H132026   3.539   4.062   5.799  0.6704 -0.7698  0.0684
 3537TIP3    H232027   3.492   4.050   5.656  1.6869  0.6054 -0.4001
 3538TIP3   OH232028   3.848   4.048   4.640  0.3076 -0.4899 -0.3362
 3538TIP3    H132029   3.853   3.999   4.722 -0.3122 -2.9035 -1.6493
 3538TIP3    H232030   3.755   4.055   4.621  0.2914  2.3926  0.4093
 3539TIP3   OH232031   4.164   0.083   6.339 -0.1592  0.0602 -0.0607
 3539TIP3    H132032   4.120   0.127   6.412 -0.6782  1.1316 -0.9825
 3539TIP3    H232033   4.233   0.032   6.380 -0.2354  0.8797  1.1558
 3540TIP3   OH232034   2.807   0.301  11.209 -0.1030  0.0813  0.5236
 3540TIP3    H132035   2.734   0.268  11.155 -0.4267  1.4891  0.0342
 3540TIP3    H232036   2.884   0.257  11.174 -0.1436  1.7259 -1.8972
 3541TIP3   OH232037   0.825   4.978  15.771  0.1065  0.1313 -0.0829
 3541TIP3    H132038   0.877   4.984  15.851 -0.7518  0.0152  0.4974
 3541TIP3    H232039   0.888   4.992  15.700  1.3505 -2.1983  0.4691
 3542TIP3   OH232040   6.362   1.807  11.285  0.1305  0.4985  0.2575
 3542TIP3    H132041   6.352   1.747  11.359  0.8814 -0.0084 -0.0454
 3542TIP3    H232042   6.279   1.800  11.237 -0.1397  0.3995  0.7307
 3543TIP3   OH232043   1.546   3.775   5.162  0.7021 -0.4896 -0.4807
 3543TIP3    H132044   1.602   3.793   5.238  0.6659  0.8409 -0.7491
 3543TIP3    H232045   1.461   3.754   5.199  0.8453 -0.4629 -0.1339
 3544TIP3   OH232046   2.145   5.365  16.850 -0.0318 -0.5385  0.4126
 3544TIP3    H132047   2.157   5.459  16.864 -0.6823 -0.3686 -0.1533
 3544TIP3    H232048   2.081   5.339  16.916  2.4813 -1.2524  2.7624
 3545TIP3   OH232049   5.106   6.062  14.726  0.0986  0.6218  0.5463
 3545TIP3    H132050   5.090   5.995  14.792 -0.3150 -0.9768 -1.0751
 3545TIP3    H232051   5.195   6.093  14.745 -0.0898  0.3697  1.9515
 3546TIP3   OH232052   2.402   4.924  15.187 -0.5690 -0.1121 -0.1181
 3546TIP3    H132053   2.474   4.907  15.247 -3.4487 -0.3115  3.6539
 3546TIP3    H232054   2.359   4.839  15.176 -0.9018  0.1988 -1.3991
 3547TIP3   OH232055   5.760   4.234   0.000  0.2031 -0.3793 -0.1725
 3547TIP3    H132056   5.665   4.234   0.013  0.1707 -0.4747 -0.4086
 3547TIP3    H232057   5.773   4.273  -0.086  0.5431  2.2894  0.9927
 3548TIP3   OH232058   6.179   3.823   4.138  0.1186 -0.2107 -0.4006
 3548TIP3    H132059   6.155   3.913   4.156  0.2963 -0.2457  0.0202
 3548TIP3    H232060   6.274   3.824   4.131  0.0905 -0.2949 -0.7952
 3549TIP3   OH232061   5.391   6.274   1.177  0.0281 -0.2498 -0.0021
 3549TIP3    H132062   5.409   6.305   1.266  2.3355  0.2549 -0.5543
 3549TIP3    H232063   5.298   6.292   1.163 -0.5137 -0.7835  2.4417
 3550TIP3   OH232064   0.967   1.084  15.388 -0.3918 -0.4900 -0.4815
 3550TIP3    H132065   0.985   0.991  15.375  0.0398 -0.5324  0.4078
 3550TIP3    H232066   1.053   1.125  15.390 -0.5563 -0.1530 -0.2641
 3551TIP3   OH232067   1.134   5.228  12.373  0.0062  0.1194  0.4116
 3551TIP3    H132068   1.102   5.216  12.462 -0.0932  0.8312  0.4817
 3551TIP3    H232069   1.056   5.251  12.322  0.1499  0.2975  0.2689
 3552TIP3   OH232070   6.237   1.541   6.518  0.0697 -0.2485 -0.2437
 3552TIP3    H132071   6.221   1.535   6.424 -0.0513 -0.9871 -0.1817
 3552TIP3    H232072   6.316   1.595   6.526  1.2239 -1.7607 -0.8853
 3553TIP3   OH232073   3.915   5.121   3.265 -0.5942 -0.3091  0.4930
 3553TIP3    H132074   3.952   5.174   3.195  1.1858  0.6138  2.0340
 3553TIP3    H232075   3.829   5.159   3.281  0.4264  1.8528  1.1989
 3554TIP3   OH232076   1.973   3.288   1.687 -0.4127 -0.6640  0.6221
 3554TIP3    H132077   2.027   3.227   1.637 -0.4367 -0.2137  0.0301
 3554TIP3    H232078   1.987   3.264   1.779  2.3313  0.6573  0.6408
 3555TIP3   OH232079   2.436   1.443  12.479 -0.2223 -0.3926  0.2556
 3555TIP3    H132080   2.345   1.471  12.471  0.8143  2.8297 -3.0653
 3555TIP3    H232081   2.462   1.470  12.567 -2.2585 -0.8504  1.0497
 3556TIP3   OH232082   0.349   5.589  14.438  0.1461 -0.4806  0.5374
 3556TIP3    H132083   0.307   5.533  14.373 -0.0682  0.9373 -0.6006
 3556TIP3    H232084   0.442   5.586  14.415 -0.0330  0.7166 -0.4316
 3557TIP3   OH232085   0.800   6.419   0.611 -0.2253  0.7338  0.0329
 3557TIP3    H132086   0.854   6.479   0.560 -0.7053  0.2196 -1.1157
 3557TIP3    H232087   0.825   6.435   0.702  2.0106  0.3751 -0.4692
 3558TIP3   OH232088   1.570   2.328   2.647  0.5289 -0.0222 -0.1978
 3558TIP3    H132089   1.583   2.375   2.729  1.3806  1.2983 -1.0448
 3558TIP3    H232090   1.641   2.265   2.644  0.4645 -0.1117  0.0911
 3559TIP3   OH232091   0.224   2.817   0.290 -0.1590  0.1491  0.2810
 3559TIP3    H132092   0.151   2.867   0.254 -0.8626 -1.1157 -0.1138
 3559TIP3    H232093   0.235   2.743   0.230  1.5917  0.4122  0.2170
 3560TIP3   OH232094   5.414   0.418  14.521 -0.3500  0.0716  0.5605
 3560TIP3    H132095   5.449   0.330  14.532  0.2362  0.3208  0.7516
 3560TIP3    H232096   5.485   0.466  14.477 -0.2785  0.6911  1.3275
 3561TIP3   OH232097   4.912   4.180  13.355 -0.9023  0.0190 -0.2425
 3561TIP3    H132098   4.890   4.094  13.319  0.4186 -0.2146 -0.5442
 3561TIP3    H232099   4.845   4.239  13.319  0.1141 -0.2663 -2.8628
 3562TIP3   OH232100   0.738   5.330  11.096 -0.1076 -0.3717 -0.5176
 3562TIP3    H132101   0.831   5.312  11.111 -0.2283 -0.0032  0.8968
 3562TIP3    H232102   0.705   5.252  11.051  1.0360 -0.1678 -1.7806
 3563TIP3   OH232103   5.492   2.632   0.551  0.3640 -0.3571 -0.2560
 3563TIP3    H132104   5.457   2.594   0.470 -0.8152 -0.1879  0.1566
 3563TIP3    H232105   5.550   2.702   0.521 -0.6021  0.1663 -0.9582
 3564TIP3   OH232106   4.468   6.520  16.995  0.1048 -0.2090 -0.0458
 3564TIP3    H132107   4.530   6.490  17.062 -1.8200 -0.5594  1.6627
 3564TIP3    H232108   4.443   6.440  16.949  0.7962 -0.0847 -0.6524
 3565TIP3   OH232109   6.328   4.662   2.429  0.2812  0.4711  0.0264
 3565TIP3    H132110   6.327   4.567   2.438 -1.0901  0.2826 -1.5964
 3565TIP3    H232111   6.236   4.687   2.429  0.3749  1.3094 -3.3569
 3566TIP3   OH232112   1.689   3.335  15.145 -0.7206  0.1490  0.1998
 3566TIP3    H132113   1.676   3.308  15.235 -1.0167 -3.6361 -0.8171
 3566TIP3    H232114   1.696   3.253  15.096 -1.4403  2.0147 -3.3563
 3567TIP3   OH232115   2.906   5.063  13.341 -0.1818  0.0426  0.6338
 3567TIP3    H132116   2.968   5.011  13.391  1.8499 -0.2923 -2.0033
 3567TIP3    H232117   2.889   5.012  13.262 -0.2367  2.1416 -0.8037
 3568TIP3   OH232118   6.231   1.685  17.157  0.4655  0.2152  0.4579
 3568TIP3    H132119   6.244   1.634  17.237  2.8026 -0.4095 -0.2717
 3568TIP3    H232120   6.317   1.720  17.136 -0.7732  3.4727  0.1934
 3569TIP3   OH232121   3.969   0.222  13.303 -0.7269  0.7877  0.2727
 3569TIP3    H132122   4.053   0.218  13.348  2.1576  0.2732 -4.3950
 3569TIP3    H232123   3.942   0.314  13.309  1.7523  1.6274 -0.4474
 3570TIP3   OH232124   1.072   0.061  16.763  0.3882  0.8287  0.3295
 3570TIP3    H132125   1.001  -0.001  16.779  1.0790 -0.0520  0.1185
 3570TIP3    H232126   1.074   0.117  16.841 -0.0824  0.4148  0.6439
 3571TIP3   OH232127   3.695   3.144   3.530 -0.3630 -0.2113 -0.2339
 3571TIP3    H132128   3.634   3.203   3.487 -0.7161 -0.7100 -0.4213
 3571TIP3    H232129   3.776   3.151   3.478  1.1613  3.4889  2.2651
 3572TIP3   OH232130   4.764   5.672  16.370  0.5025 -0.2915 -0.0316
 3572TIP3    H132131   4.852   5.711  16.376  1.1394 -1.5163 -0.8967
 3572TIP3    H232132   4.733   5.695  16.283  0.3520 -0.6382 -0.0721
 3573TIP3   OH232133   3.015   1.484  11.737  0.0003  0.0343  0.1753
 3573TIP3    H132134   3.026   1.397  11.698  0.7409  0.1758  0.0587
 3573TIP3    H232135   3.081   1.488  11.806 -0.7880  0.0792  0.9421
 3574TIP3   OH232136   3.593   5.229   1.867 -0.0272  0.2043 -0.1061
 3574TIP3    H132137   3.561   5.145   1.834  0.2671 -0.5464  1.4097
 3574TIP3    H232138   3.687   5.215   1.882  0.1676  1.0329 -0.4811
 3575TIP3   OH232139   2.611   2.461  14.501  0.0528 -0.1213  0.1491
 3575TIP3    H132140   2.604   2.368  14.478  1.5194 -0.3352  0.4401
 3575TIP3    H232141   2.524   2.485  14.530 -0.0769 -1.7749  1.3017
 3576TIP3   OH232142   5.178   2.156  15.394  0.1514  0.2201 -0.3714
 3576TIP3    H132143   5.241   2.085  15.408 -1.3616 -0.8379  1.5369
 3576TIP3    H232144   5.099   2.111  15.363 -1.0014  0.9836  1.3547
 3577TIP3   OH232145   2.466   1.019  13.615  0.6016  0.3928 -0.2903
 3577TIP3    H132146   2.555   1.040  13.586  0.3427 -0.0551 -1.4406
 3577TIP3    H232147   2.409   1.064  13.553  0.0339 -0.3395 -0.3143
 3578TIP3   OH232148   4.069   0.691   5.017 -0.3599 -0.1021  0.0765
 3578TIP3    H132149   4.111   0.612   4.983 -2.2977 -0.3145 -2.0207
 3578TIP3    H232150   4.128   0.762   4.990  1.5132 -0.7231  2.1680
 3579TIP3   OH232151   3.388   0.392   5.046 -0.1930 -0.1021 -0.5124
 3579TIP3    H132152   3.409   0.468   4.991 -0.5721 -1.2772 -2.3883
 3579TIP3    H232153   3.293   0.395   5.054 -0.2960 -0.8068 -1.3084
 3580TIP3   OH232154   0.288   0.007  12.088  0.3573  0.3449  0.3948
 3580TIP3    H132155   0.328   0.035  12.006  0.3359 -1.8844 -0.4319
 3580TIP3    H232156   0.340  -0.067  12.117  0.2539  0.9665  2.3446
 3581TIP3   OH232157   3.268   2.611   1.346  0.3022  0.7085  0.3183
 3581TIP3    H132158   3.298   2.702   1.339 -0.3719  0.9439  0.3554
 3581TIP3    H232159   3.345   2.559   1.327  1.0199  1.2793  1.5359
 3582TIP3   OH232160   5.987   2.378  13.417  0.4928  0.3951  0.6539
 3582TIP3    H132161   5.905   2.404  13.459  0.2196  0.5514  0.0316
 3582TIP3    H232162   6.055   2.417  13.472  0.0908  2.5514 -0.3093
 3583TIP3   OH232163   0.544   0.006  13.166  0.4116  0.3557 -0.1200
 3583TIP3    H132164   0.463  -0.041  13.143  0.1545  0.6820  0.1111
 3583TIP3    H232165   0.569   0.050  13.085 -0.2612  1.1583  0.0911
 3584TIP3   OH232166   4.443   0.382   3.561 -0.3487 -0.5000  0.2367
 3584TIP3    H132167   4.512   0.335   3.609  0.3145 -0.8428 -1.0044
 3584TIP3    H232168   4.464   0.367   3.469 -1.6626  0.0390 -0.1676
 3585TIP3   OH232169   3.466   0.019  15.152 -0.2413 -0.0384 -0.0741
 3585TIP3    H132170   3.385  -0.021  15.123  0.3118  0.4994 -2.5350
 3585TIP3    H232171   3.480  -0.016  15.240 -3.2882  0.1496  0.5843
 3586TIP3   OH232172   0.685   0.178   4.566 -0.2563 -0.6071  0.0796
 3586TIP3    H132173   0.706   0.127   4.488  0.6789 -0.4803  0.2436
 3586TIP3    H232174   0.659   0.264   4.532  1.9076  0.0629 -0.0583
 3587TIP3   OH232175   4.811   2.158   2.090 -0.1661  0.5082  0.3514
 3587TIP3    H132176   4.844   2.160   2.000  1.6106 -0.4041  0.9279
 3587TIP3    H232177   4.720   2.131   2.082  0.6600 -2.1348 -1.0520
 3588TIP3   OH232178   0.473   1.103  16.771 -0.0911 -0.4322  0.2319
 3588TIP3    H132179   0.379   1.088  16.783  0.1142  0.1240  3.4503
 3588TIP3    H232180   0.515   1.053  16.841  1.8173  1.2551  0.3824
 3589TIP3   OH232181   4.521   1.439   2.499 -0.0226  0.3653  0.5054
 3589TIP3    H132182   4.610   1.422   2.528  0.6585  0.7290 -1.2663
 3589TIP3    H232183   4.528   1.514   2.440 -1.6020  0.7685  0.7554
 3590TIP3   OH232184   2.861   5.158   2.903  0.3721 -0.0269  0.2954
 3590TIP3    H132185   2.830   5.198   2.984  0.3644  1.8461 -0.5717
 3590TIP3    H232186   2.784   5.154   2.846  0.2368 -1.9056  0.5598
 3591TIP3   OH232187   4.946   0.603  14.541 -0.3256 -0.4807 -0.4880
 3591TIP3    H132188   4.887   0.573  14.472  0.3825 -0.8498 -0.9478
 3591TIP3    H232189   5.016   0.537  14.543  0.6126  0.4759 -0.6711
 3592TIP3   OH232190   3.363   6.523  15.074 -0.2755 -0.3227 -0.6339
 3592TIP3    H132191   3.273   6.555  15.065 -0.2204 -0.6257 -2.7311
 3592TIP3    H232192   3.358   6.431  15.047  0.8392 -0.0417 -1.8881
 3593TIP3   OH232193   1.860   0.280   2.989  0.4106  0.2619  0.1374
 3593TIP3    H132194   1.911   0.200   2.972 -2.7380 -2.2339  1.2860
 3593TIP3    H232195   1.860   0.289   3.084 -1.5759 -0.1638  0.2304
 3594TIP3   OH232196   3.430   2.839  17.089  0.7353  0.5181  0.0155
 3594TIP3    H132197   3.349   2.791  17.104  1.0748 -0.6575 -1.6619
 3594TIP3    H232198   3.402   2.928  17.068 -0.0116  0.5325  1.0197
 3595TIP3   OH232199   6.591   3.633  13.067  0.4375 -0.2064 -0.2823
 3595TIP3    H132200   6.576   3.540  13.049 -1.3563 -0.0110  0.0555
 3595TIP3    H232201   6.674   3.652  13.023  0.0288 -1.5742 -1.7628
 3596TIP3   OH232202   2.157   5.275   3.307 -0.4320 -0.1002  0.7326
 3596TIP3    H132203   2.167   5.369   3.318  1.8063 -0.4282  2.0000
 3596TIP3    H232204   2.096   5.266   3.233 -1.1960  2.2948  0.9839
 3597TIP3   OH232205   1.800   1.209  13.847  0.4983  0.6526  0.4591
 3597TIP3    H132206   1.895   1.212  13.845  0.4998  1.3843  1.0844
 3597TIP3    H232207   1.779   1.131  13.898  0.7254 -0.5128 -1.1500
 3598TIP3   OH232208   1.807   5.230  17.002  0.3100 -1.1067  0.0756
 3598TIP3    H132209   1.865   5.155  17.015  0.5985 -1.1065 -1.1105
 3598TIP3    H232210   1.837   5.294  17.067  1.4005 -1.2603 -0.2445
 3599TIP3   OH232211   3.339   2.159  11.601  0.1127  0.7309  1.4153
 3599TIP3    H132212   3.329   2.069  11.571  1.3275  0.9828  0.1526
 3599TIP3    H232213   3.278   2.167  11.674 -1.4470 -0.5333  0.3122
 3600TIP3   OH232214   0.995   1.566   5.152 -0.4455  0.0078  0.2381
 3600TIP3    H132215   0.987   1.582   5.058 -0.7976  1.3799  0.4928
 3600TIP3    H232216   1.069   1.620   5.179  0.3160 -1.1599  0.5935
 3601TIP3   OH232217   6.065   0.666   0.728  0.8551 -0.0068  0.2190
 3601TIP3    H132218   6.035   0.747   0.768 -1.2865 -1.0636  0.9186
 3601TIP3    H232219   5.986   0.612   0.722  2.3004 -2.2728  0.3774
 3602TIP3   OH232220   0.787   0.607   1.477  0.2070 -0.4932  0.3599
 3602TIP3    H132221   0.874   0.647   1.481  0.3321 -0.8387  2.1346
 3602TIP3    H232222   0.726   0.680   1.490  0.2091 -0.2332 -1.0037
 3603TIP3   OH232223   2.882   4.297  13.031  0.3975  0.6950  0.1740
 3603TIP3    H132224   2.799   4.257  13.056  0.3838  0.2994 -0.4782
 3603TIP3    H232225   2.948   4.239  13.070  0.4262 -1.2443 -2.4771
 3604TIP3   OH232226   6.416   4.906   4.815  0.0356  0.0818 -0.1602
 3604TIP3    H132227   6.479   4.956   4.764  1.6713 -1.0510  0.6630
 3604TIP3    H232228   6.416   4.819   4.775  2.1464 -1.1584  2.2689
 3605TIP3   OH232229   3.972   5.723  13.579  0.6757 -0.2613 -0.5999
 3605TIP3    H132230   3.994   5.693  13.667 -1.6433 -0.0877  0.1060
 3605TIP3    H232231   4.009   5.811  13.574  0.2366  0.0041  0.4937
 3606TIP3   OH232232   5.881   3.384   1.989 -0.1237  0.0088 -0.5878
 3606TIP3    H132233   5.947   3.434   2.037  0.1124 -0.7710 -0.0847
 3606TIP3    H232234   5.899   3.405   1.897  2.6911 -2.2838 -0.7126
 3607TIP3   OH232235   2.894   4.986   4.521  0.3740 -0.3067  0.3130
 3607TIP3    H132236   2.917   5.074   4.491  1.2089 -0.4918  0.3609
 3607TIP3    H232237   2.802   4.992   4.546 -0.0580  0.1217 -1.2537
 3608TIP3   OH232238   0.073   2.347   3.678 -0.2307  0.3205  0.3326
 3608TIP3    H132239   0.098   2.438   3.666 -2.0458  1.2428  2.7651
 3608TIP3    H232240   0.030   2.344   3.763 -0.0570 -2.8790  0.4527
 3609TIP3   OH232241   2.062   2.723  13.040  0.8523 -0.2582 -0.5854
 3609TIP3    H132242   2.097   2.807  13.069 -0.2713  0.3502 -0.9348
 3609TIP3    H232243   2.125   2.658  13.073 -0.4392  0.2897  3.5861
 3610TIP3   OH232244   5.218   0.157  15.910  0.3483 -0.3021 -0.4672
 3610TIP3    H132245   5.160   0.230  15.932 -0.0026 -1.1618  1.7041
 3610TIP3    H232246   5.293   0.198  15.866 -1.0487  1.0207 -1.7281
 3611TIP3   OH232247   5.960   2.409   3.132 -0.2231  0.0074 -0.3891
 3611TIP3    H132248   5.884   2.350   3.130 -0.4078  0.1922  0.5142
 3611TIP3    H232249   5.953   2.454   3.216 -0.8676  2.3720 -1.6111
 3612TIP3   OH232250   0.421   4.608  17.035 -0.2027  0.3296 -0.0525
 3612TIP3    H132251   0.372   4.592  16.954  0.7553  2.4329 -1.1242
 3612TIP3    H232252   0.393   4.538  17.093 -1.5188 -0.8148 -1.9260
 3613TIP3   OH232253   2.850   4.016   0.977 -0.4374 -0.4920 -0.3350
 3613TIP3    H132254   2.776   4.069   0.947 -0.3055 -0.3460 -0.4068
 3613TIP3    H232255   2.867   3.955   0.906 -0.1565 -0.1787 -0.5422
 3614TIP3   OH232256   1.108   4.505   0.298 -0.4542  0.9378 -0.6181
 3614TIP3    H132257   1.083   4.416   0.324  0.3146  0.8837 -0.0429
 3614TIP3    H232258   1.068   4.561   0.364 -0.9647  1.0324 -0.9983
 3615TIP3   OH232259   2.183   4.134   2.207 -0.2411  0.4424  0.0781
 3615TIP3    H132260   2.125   4.076   2.159 -2.3026  1.1376  1.5903
 3615TIP3    H232261   2.214   4.082   2.281 -3.4347  1.5933  2.4017
 3616TIP3   OH232262   3.151   6.337   2.121 -0.4047 -0.0308  0.3093
 3616TIP3    H132263   3.152   6.260   2.064  1.3364  0.9159 -1.0618
 3616TIP3    H232264   3.227   6.388   2.092 -0.3427  1.2266  2.5218
 3617TIP3   OH232265   2.500   5.878   2.855  0.1957 -0.2122  0.6961
 3617TIP3    H132266   2.524   5.795   2.896 -1.1366 -0.1243  1.7184
 3617TIP3    H232267   2.500   5.941   2.927  0.0085  0.4198  0.1558
 3618TIP3   OH232268   6.157   6.664   2.172 -0.6231 -0.0531  0.4571
 3618TIP3    H132269   6.164   6.707   2.258 -1.5096 -0.4586  0.7434
 3618TIP3    H232270   6.066   6.679   2.145 -0.5624 -0.5908 -0.0567
 3619TIP3   OH232271   1.307   4.027  13.299  0.7025  0.6641  0.3575
 3619TIP3    H132272   1.253   4.047  13.375  0.8573  1.4271  0.2745
 3619TIP3    H232273   1.341   3.939  13.316  0.1048  0.5159  0.7951
 3620TIP3   OH232274   2.916   4.423   3.875 -0.1809 -0.4232  0.0859
 3620TIP3    H132275   2.951   4.411   3.964 -0.5590  0.7223  0.3980
 3620TIP3    H232276   2.982   4.476   3.831 -0.0232 -0.9400 -0.3152
 3621TIP3   OH232277   1.220   0.298   5.345  0.3960 -0.1518  0.4560
 3621TIP3    H132278   1.172   0.380   5.336  2.1064  0.7292 -1.1611
 3621TIP3    H232279   1.230   0.266   5.256  3.5064  0.1726  0.5671
 3622TIP3   OH232280   5.600   0.445   3.720 -0.0233 -0.2096 -0.6321
 3622TIP3    H132281   5.505   0.447   3.715 -0.0161 -1.2111 -1.6962
 3622TIP3    H232282   5.629   0.516   3.663 -0.1266  0.1011 -0.3014
 3623TIP3   OH232283   5.266   2.848  13.168 -0.5079 -0.3415 -0.0162
 3623TIP3    H132284   5.286   2.780  13.104 -3.1747 -0.1257 -1.2523
 3623TIP3    H232285   5.237   2.922  13.115  0.5143  1.1003  1.3673
 3624TIP3   OH232286   1.641   4.820  14.843 -0.3671  0.5290  0.0360
 3624TIP3    H132287   1.570   4.786  14.788 -0.8216 -0.0309  0.9534
 3624TIP3    H232288   1.617   4.912  14.858 -1.1314  0.2416  0.6697
 3625TIP3   OH232289   5.266   5.777  10.824 -0.2982 -0.5404 -0.1075
 3625TIP3    H132290   5.212   5.772  10.745  0.6223 -1.0098 -0.7242
 3625TIP3    H232291   5.355   5.761  10.793  0.2302  0.4242  0.8687
 3626TIP3   OH232292   4.002   1.149   0.540 -0.0365 -0.3668 -0.0515
 3626TIP3    H132293   3.947   1.084   0.495  0.0514 -0.9141  0.6159
 3626TIP3    H232294   3.984   1.135   0.633 -1.9080  2.2146  0.0784
 3627TIP3   OH232295   0.673   0.371   5.861 -0.6638 -0.1210  0.1689
 3627TIP3    H132296   0.627   0.288   5.849 -2.2334  0.3364  2.4597
 3627TIP3    H232297   0.765   0.346   5.873 -0.7590 -1.3019 -1.2072
 3628TIP3   OH232298   0.274   0.980  12.336  0.1887 -0.4490 -0.2602
 3628TIP3    H132299   0.249   1.053  12.280 -0.1546  0.1746  0.6856
 3628TIP3    H232300   0.228   0.904  12.300 -0.4508  0.0474 -0.4953
 3629TIP3   OH232301   1.425   1.025  12.913 -0.0674  0.9582  0.2733
 3629TIP3    H132302   1.465   0.960  12.854  0.3911  0.8474  0.6963
 3629TIP3    H232303   1.441   0.990  13.001 -0.2601  1.3962  0.4823
 3630TIP3   OH232304   4.323   4.110   2.629 -0.2829  0.3667 -0.0878
 3630TIP3    H132305   4.317   4.037   2.690  0.9958  0.3461  0.0313
 3630TIP3    H232306   4.247   4.164   2.649  0.7143  0.9790  2.3435
 3631TIP3   OH232307   3.421   0.649  11.702  0.3360 -0.2151 -0.2619
 3631TIP3    H132308   3.363   0.641  11.778  0.4439 -3.2705 -0.3902
 3631TIP3    H232309   3.419   0.563  11.660  1.9716  0.7299 -2.5163
 3632TIP3   OH232310   0.688   4.515  16.860 -0.0305  0.6084 -0.2003
 3632TIP3    H132311   0.642   4.489  16.940 -2.9905  3.5677 -0.7189
 3632TIP3    H232312   0.678   4.440  16.801 -2.3169  0.2681  0.5241
 3633TIP3   OH232313   6.027   1.234   1.269 -0.0892  0.8001 -0.0736
 3633TIP3    H132314   6.075   1.299   1.217  1.5265 -0.3290 -0.0615
 3633TIP3    H232315   6.032   1.268   1.358  0.4924  0.8110 -0.1064
 3634TIP3   OH232316   5.008   2.024  11.361  0.1175 -0.3169 -0.4225
 3634TIP3    H132317   4.988   2.116  11.376  0.5131 -0.5335  1.7869
 3634TIP3    H232318   5.098   2.023  11.330 -0.2671  0.0913 -1.5932
 3635TIP3   OH232319   1.996   5.939   0.987 -0.7514 -0.0668 -0.4458
 3635TIP3    H132320   1.951   5.914   0.906  0.6258 -1.6863 -0.7689
 3635TIP3    H232321   2.011   5.856   1.033 -0.1423  0.6737  0.7447
 3636TIP3   OH232322   1.674   1.291  17.358 -0.0047 -0.0170  0.2710
 3636TIP3    H132323   1.596   1.315  17.307 -0.8990 -0.6239  1.3005
 3636TIP3    H232324   1.745   1.340  17.317 -0.7219 -0.2980 -1.3880
 3637TIP3   OH232325   6.629   2.713  12.376 -0.2317  0.5046  0.4095
 3637TIP3    H132326   6.667   2.799  12.389  1.7033 -0.2530  0.1525
 3637TIP3    H232327   6.580   2.720  12.294 -0.9662  1.6094  0.9259
 3638TIP3   OH232328   2.268   2.441   3.672 -0.0021 -0.5906  0.4488
 3638TIP3    H132329   2.271   2.536   3.665 -2.1387 -0.5595 -1.3017
 3638TIP3    H232330   2.356   2.416   3.699  1.2817  1.7397 -1.1843
 3639TIP3   OH232331   3.126   5.759  16.434 -0.2622 -0.0204 -0.2636
 3639TIP3    H132332   3.094   5.729  16.520  0.4315 -1.8672 -0.6132
 3639TIP3    H232333   3.069   5.833  16.413  0.0508  1.0116  2.1370
 3640TIP3   OH232334   1.602   1.960  17.243  0.4901 -0.0010  0.3389
 3640TIP3    H132335   1.600   1.913  17.160  0.4485 -0.0746  0.3810
 3640TIP3    H232336   1.648   2.042  17.224 -0.0194  0.2341  0.1177
 3641TIP3   OH232337   3.190   4.458  11.397 -0.0393  0.0261 -0.3576
 3641TIP3    H132338   3.111   4.509  11.415  1.6778  2.2534  1.5073
 3641TIP3    H232339   3.209   4.412  11.479  1.3009  0.5954 -0.3293
 3642TIP3   OH232340   5.124   3.411   0.926 -0.1837 -0.6861  0.4134
 3642TIP3    H132341   5.038   3.380   0.900 -0.5055  0.6227 -0.1604
 3642TIP3    H232342   5.112   3.505   0.942  1.1472 -0.4658  0.2385
 3643TIP3   OH232343   2.157   4.921  14.027 -0.2691  0.2494  0.4792
 3643TIP3    H132344   2.167   4.988  13.959  0.3546  0.7821  1.0821
 3643TIP3    H232345   2.237   4.869  14.021 -1.0614 -0.9169 -0.4631
 3644TIP3   OH232346   5.510   1.278   3.688 -0.3032 -0.6352  0.9591
 3644TIP3    H132347   5.441   1.344   3.680 -0.1825 -0.7256 -1.5752
 3644TIP3    H232348   5.592   1.327   3.683 -0.2147 -0.8242  0.4511
 3645TIP3   OH232349   1.284   3.253   6.391 -0.3095 -0.5721 -0.4891
 3645TIP3    H132350   1.205   3.232   6.341 -1.4878 -0.6096  1.3059
 3645TIP3    H232351   1.254   3.312   6.460  1.5438  0.7123 -0.7077
 3646TIP3   OH232352   4.196   2.819   3.227 -0.2917  0.3419 -0.0867
 3646TIP3    H132353   4.204   2.832   3.321  0.0288  0.3690 -0.1158
 3646TIP3    H232354   4.116   2.867   3.203 -2.5453 -2.7180  0.7253
 3647TIP3   OH232355   6.456   5.464   0.939 -0.4224 -0.6282  0.6241
 3647TIP3    H132356   6.508   5.393   0.975  2.4288  0.5163 -0.9402
 3647TIP3    H232357   6.495   5.543   0.977 -2.6959  0.2500  1.3338
 3648TIP3   OH232358   1.844   6.251  14.259  0.3314  0.1951 -0.2498
 3648TIP3    H132359   1.856   6.160  14.286 -1.0298 -0.6145 -2.1572
 3648TIP3    H232360   1.768   6.281  14.309 -0.3970 -0.3553 -1.0085
 3649TIP3   OH232361   5.095   3.297  15.755  0.1793 -0.1242  0.1074
 3649TIP3    H132362   5.071   3.388  15.773  1.3163 -0.0525  1.4064
 3649TIP3    H232363   5.017   3.259  15.716 -1.1987  0.7474  1.8713
 3650TIP3   OH232364   3.467   1.483   1.984 -0.4382 -0.0173  0.1377
 3650TIP3    H132365   3.543   1.426   1.979  0.0527  0.6963 -1.1883
 3650TIP3    H232366   3.395   1.425   2.008  0.7022 -0.4844  2.7382
 3651TIP3   OH232367   5.255   3.347  15.984  0.0219  0.1649 -0.3619
 3651TIP3    H132368   5.196   3.349  16.059  0.7969  0.0770  0.2585
 3651TIP3    H232369   5.197   3.333  15.909 -0.8226  0.7708  0.1473
 3652TIP3   OH232370   1.551   2.315  13.886 -0.3113 -0.4023 -0.5839
 3652TIP3    H132371   1.638   2.354  13.898 -1.4617  1.5491  2.5583
 3652TIP3    H232372   1.512   2.367  13.815 -0.5907  2.1460  1.2852
 3653TIP3   OH232373   1.416   4.583  14.380 -0.6128 -0.5133  0.2956
 3653TIP3    H132374   1.511   4.575  14.376 -0.2877  2.3621 -0.1232
 3653TIP3    H232375   1.384   4.549  14.296  0.0644 -1.1090  0.2766
 3654TIP3   OH232376   5.997   2.718   4.528  0.2839  0.4645 -0.0965
 3654TIP3    H132377   6.079   2.719   4.480  0.4994  1.4016  0.2655
 3654TIP3    H232378   5.969   2.810   4.531 -0.5832  0.2100  0.1075
 3655TIP3   OH232379   0.641   6.313   4.415 -0.0305  0.3582  0.0855
 3655TIP3    H132380   0.648   6.218   4.425  0.1173  0.5066  1.6254
 3655TIP3    H232381   0.577   6.325   4.345 -0.2471 -0.8765  0.0510
 3656TIP3   OH232382   5.505   0.960  11.702  1.0536 -0.2107 -0.1056
 3656TIP3    H132383   5.473   1.046  11.676  1.2827 -0.6812 -2.1262
 3656TIP3    H232384   5.542   0.923  11.621  1.1866 -2.0992  0.7735
 3657TIP3   OH232385   3.899   5.033  16.752  0.2134  0.2890 -0.3145
 3657TIP3    H132386   3.887   4.963  16.688  0.7620  2.0944 -2.5540
 3657TIP3    H232387   3.982   5.013  16.795 -0.2091 -1.0099 -0.0640
 3658TIP3   OH232388   5.214   0.965   2.989  0.4836  0.1844 -0.4627
 3658TIP3    H132389   5.302   0.961   3.024  0.0662 -3.5042  0.5414
 3658TIP3    H232390   5.173   1.039   3.035  2.2622  0.3272  1.0049
 3659TIP3   OH232391   6.245   1.249   4.591  0.1902 -0.2801 -0.8158
 3659TIP3    H132392   6.284   1.197   4.521  0.6071 -1.8032  0.4915
 3659TIP3    H232393   6.320   1.294   4.631  0.1260 -0.4309 -0.5273
 3660TIP3   OH232394   3.591   6.428  14.721 -0.0133 -0.4707 -0.7658
 3660TIP3    H132395   3.544   6.394  14.645 -0.6983  0.9938 -1.0344
 3660TIP3    H232396   3.567   6.521  14.725 -0.3180 -0.5812  1.4648
 3661TIP3   OH232397   5.891   2.401  11.505 -0.2674  0.1926 -0.7326
 3661TIP3    H132398   5.905   2.342  11.430  1.2183 -0.1829 -0.2007
 3661TIP3    H232399   5.797   2.399  11.520 -0.4363 -0.7364 -1.7880
 3662TIP3   OH232400   5.232   0.811  17.089 -0.0759 -0.6573 -0.1105
 3662TIP3    H132401   5.174   0.806  17.166  0.2556  1.7182  0.3689
 3662TIP3    H232402   5.318   0.786  17.122 -0.0665 -0.3173  0.1226
 3663TIP3   OH232403   2.819   1.318  11.951  0.3024 -0.2355  0.1182
 3663TIP3    H132404   2.853   1.230  11.938 -1.2252 -0.8798  0.2185
 3663TIP3    H232405   2.822   1.331  12.046  1.2718  0.1563  0.0458
 3664TIP3   OH232406   5.748   2.672   1.238  0.3931 -0.4141 -0.0340
 3664TIP3    H132407   5.780   2.685   1.327 -0.5502  0.0988  0.2392
 3664TIP3    H232408   5.755   2.577   1.223  3.6142 -0.1815 -0.6203
 3665TIP3   OH232409   2.205   5.842  16.811  0.1855  0.1428 -0.4664
 3665TIP3    H132410   2.145   5.854  16.737 -1.4461 -0.2796  0.7278
 3665TIP3    H232411   2.172   5.901  16.879  2.4849  1.5642 -0.4975
 3666TIP3   OH232412   6.043   4.462  16.401 -0.2466  0.2056 -0.2689
 3666TIP3    H132413   5.979   4.403  16.361  0.7804  0.0282 -1.7333
 3666TIP3    H232414   6.128   4.420  16.386  0.2374  0.4352  1.6236
 3667TIP3   OH232415   4.234   1.527   0.375  0.0546  0.3102 -0.6550
 3667TIP3    H132416   4.158   1.539   0.431  1.8781  2.4522  1.6026
 3667TIP3    H232417   4.243   1.432   0.366 -1.8312 -0.0239  0.4720
 3668TIP3   OH232418   2.417   5.944  14.414 -0.2258 -0.5740 -0.2678
 3668TIP3    H132419   2.391   6.018  14.360  0.3809 -0.6481 -0.6778
 3668TIP3    H232420   2.513   5.946  14.413 -0.2038 -1.2167 -0.0894
 3669TIP3   OH232421   0.820   2.204  17.299  0.5686 -0.0775  0.1596
 3669TIP3    H132422   0.726   2.220  17.306  0.6935  0.2240  1.5968
 3669TIP3    H232423   0.829   2.109  17.304  0.2871 -0.1614 -0.8934
 3670TIP3   OH232424   6.404   5.565   3.273  0.1423  0.3149  0.4105
 3670TIP3    H132425   6.453   5.628   3.220 -0.9098  1.1575  0.3927
 3670TIP3    H232426   6.408   5.600   3.362 -1.6168  1.2166  0.1824
 3671TIP3   OH232427   0.927   3.271  14.769  0.6358 -0.3034  0.0163
 3671TIP3    H132428   0.943   3.341  14.706  0.5599 -1.1828 -1.0015
 3671TIP3    H232429   1.000   3.278  14.831 -0.4047  1.9150  1.1219
 3672TIP3   OH232430   2.212   0.677  12.533  0.4480  0.0859 -0.1106
 3672TIP3    H132431   2.216   0.592  12.576  0.2631  1.0877  2.0294
 3672TIP3    H232432   2.300   0.691  12.499  0.8992 -0.3495  0.8382
 3673TIP3   OH232433   1.545   1.031   4.205  0.4810 -0.1560 -0.5309
 3673TIP3    H132434   1.551   0.979   4.285  0.6509  1.6983  0.7180
 3673TIP3    H232435   1.519   1.118   4.234  1.4931  0.8442 -2.3897
 3674TIP3   OH232436   5.995   0.911   2.989  0.4434  0.3183  0.2215
 3674TIP3    H132437   6.076   0.945   2.951  1.1376 -1.0463  0.4437
 3674TIP3    H232438   6.008   0.918   3.084  1.0208 -1.4489  0.3057
 3675TIP3   OH232439   0.636   3.484  12.573 -0.1635  0.3496 -0.3605
 3675TIP3    H132440   0.621   3.404  12.523 -0.3172  0.5459 -0.6327
 3675TIP3    H232441   0.675   3.455  12.655 -3.1817 -0.3372  0.9828
 3676TIP3   OH232442   4.479   3.988   4.564  0.2611 -0.2870  0.2412
 3676TIP3    H132443   4.491   4.080   4.540  0.7126  0.0030  1.4963
 3676TIP3    H232444   4.485   3.987   4.660 -1.8192 -1.3281  0.4176
 3677TIP3   OH232445   2.834   5.200   0.749  0.0751  0.2478  0.2695
 3677TIP3    H132446   2.906   5.238   0.699  0.2573  0.5505  0.7479
 3677TIP3    H232447   2.756   5.219   0.697  0.3937 -0.5757 -0.5290
 3678TIP3   OH232448   6.687   5.217  15.986  0.0451 -0.0450  0.1059
 3678TIP3    H132449   6.760   5.166  16.023 -0.2552 -0.5749 -0.0269
 3678TIP3    H232450   6.650   5.263  16.061 -0.0945 -0.5410  0.3455
 3679TIP3   OH232451   3.892   6.353  13.924 -0.4749  0.3172  0.6570
 3679TIP3    H132452   3.881   6.424  13.988 -1.0317  0.9575 -0.1245
 3679TIP3    H232453   3.823   6.291  13.946  0.6542 -0.5063  1.9912
 3680TIP3   OH232454   0.738   5.760   6.656 -0.1884  0.1668  0.1258
 3680TIP3    H132455   0.751   5.681   6.708  0.9528  1.1652  1.4558
 3680TIP3    H232456   0.820   5.770   6.607 -1.0074 -0.4112 -1.4117
 3681TIP3   OH232457   2.123   3.539  11.876  0.1735 -0.0242  0.0016
 3681TIP3    H132458   2.133   3.630  11.904 -0.2533  0.2345 -0.6600
 3681TIP3    H232459   2.196   3.524  11.816 -1.2051  0.7186 -1.9467
 3682TIP3   OH232460   1.199   4.084  16.547  0.0780 -0.3092 -0.3160
 3682TIP3    H132461   1.173   4.169  16.512 -0.4707 -0.1363  0.4907
 3682TIP3    H232462   1.199   4.026  16.471 -0.4212  0.2083 -0.7174
 3683TIP3   OH232463   4.806   4.062  11.376 -0.1109  0.2403 -0.5087
 3683TIP3    H132464   4.891   4.077  11.333 -0.2022 -0.4365 -0.9401
 3683TIP3    H232465   4.817   3.977  11.420 -0.9935 -0.4982 -1.6732
 3684TIP3   OH232466   1.059   4.040   2.806 -0.1010 -0.0610  0.2987
 3684TIP3    H132467   1.069   4.097   2.882 -0.6206 -0.0082  0.3273
 3684TIP3    H232468   0.988   3.981   2.829 -0.0762 -0.2236 -0.0382
 3685TIP3   OH232469   0.037   5.737   0.136  0.1428 -0.0240 -0.4439
 3685TIP3    H132470   0.095   5.696   0.071 -1.5845 -2.6420 -0.4981
 3685TIP3    H232471   0.009   5.664   0.192 -0.6751  1.6824  1.4847
 3686TIP3   OH232472   1.008   4.470   5.661 -0.1749 -0.9636  0.4801
 3686TIP3    H132473   1.072   4.541   5.666 -0.3781 -0.4719 -2.1382
 3686TIP3    H232474   1.028   4.413   5.735  2.5057 -0.1963  0.4248
 3687TIP3   OH232475   1.352   5.888  13.349 -0.2048  0.3906 -0.2125
 3687TIP3    H132476   1.297   5.869  13.273 -1.1698 -2.1376  0.9809
 3687TIP3    H232477   1.429   5.831  13.338 -0.5719 -0.3549  0.8571
 3688TIP3   OH232478   2.618   3.474  16.217  0.2316 -0.1641 -0.1097
 3688TIP3    H132479   2.698   3.492  16.167  0.0817 -1.9877 -1.0970
 3688TIP3    H232480   2.584   3.393  16.180 -1.6070  0.0824  0.9052
 3689TIP3   OH232481   4.037   3.197   0.196 -0.2222  0.1596  0.1658
 3689TIP3    H132482   4.081   3.112   0.206  0.7306  0.7051  0.7828
 3689TIP3    H232483   4.026   3.228   0.286  1.6193  1.7642 -0.1025
 3690TIP3   OH232484   4.462   0.295   3.287  0.3388 -0.6210 -0.5800
 3690TIP3    H132485   4.468   0.306   3.192 -0.3746 -0.3705 -0.6087
 3690TIP3    H232486   4.540   0.245   3.311  2.9049  2.9461 -0.7102
 3691TIP3   OH232487   6.046   2.386  14.394 -0.3448  0.2968 -0.5825
 3691TIP3    H132488   5.964   2.421  14.427 -0.6254  0.1155 -1.0765
 3691TIP3    H232489   6.023   2.301  14.356  0.3669 -0.5626  0.8209
 3692TIP3   OH232490   0.983   6.310   1.768  0.1764 -0.3055  0.0058
 3692TIP3    H132491   0.904   6.292   1.717  1.0411  0.5758 -1.7089
 3692TIP3    H232492   1.037   6.365   1.712  1.5999 -0.0512  1.5261
 3693TIP3   OH232493   0.976   0.662   1.171  0.0010  0.2201  0.3787
 3693TIP3    H132494   1.024   0.592   1.216 -2.8390 -0.5808  2.4302
 3693TIP3    H232495   0.988   0.739   1.227  0.2489  0.4864 -0.0289
 3694TIP3   OH232496   5.614   3.555   2.798 -0.5029  0.2586  0.4512
 3694TIP3    H132497   5.683   3.570   2.862 -1.2007 -0.4246  1.3894
 3694TIP3    H232498   5.594   3.642   2.763  1.8350  0.3031 -0.9414
 3695TIP3   OH232499   0.762   3.408  11.740  0.5941 -0.2819  0.8046
 3695TIP3    H132500   0.690   3.439  11.685  1.3966  0.1624 -0.0249
 3695TIP3    H232501   0.734   3.321  11.770  0.1830 -0.5935 -0.4211
 3696TIP3   OH232502   2.913   3.449   3.262  0.0812  0.5489  0.0770
 3696TIP3    H132503   2.871   3.515   3.208 -1.9112 -0.4899  0.2565
 3696TIP3    H232504   2.970   3.401   3.202 -1.5037 -0.0931 -0.9918
 3697TIP3   OH232505   4.292   6.057   5.413 -0.2776  0.3930 -0.0048
 3697TIP3    H132506   4.259   6.078   5.326  1.2385 -0.7097 -0.9071
 3697TIP3    H232507   4.303   6.141   5.457 -0.7744  0.9761 -0.9850
 3698TIP3   OH232508   1.752   3.543  16.178 -0.0138  0.6657 -0.8981
 3698TIP3    H132509   1.787   3.630  16.200  1.8110  0.1813 -1.7252
 3698TIP3    H232510   1.665   3.542  16.219  0.9239  1.9067  1.3361
 3699TIP3   OH232511   5.399   2.123  15.179  0.4959  0.1475 -0.7098
 3699TIP3    H132512   5.371   2.198  15.232 -3.4623 -2.6225  1.7204
 3699TIP3    H232513   5.334   2.116  15.110  0.1500 -1.5281 -0.2706
 3700TIP3   OH232514   1.360   0.406   3.746  0.2668  0.7450 -0.7012
 3700TIP3    H132515   1.286   0.454   3.784  0.2728 -0.4074  0.8539
 3700TIP3    H232516   1.429   0.412   3.813  0.5226 -0.7617 -0.8018
 3701TIP3   OH232517   3.732   5.075  15.017  0.1126  0.1388  0.4135
 3701TIP3    H132518   3.720   5.155  15.067 -1.2985 -0.1853  0.6398
 3701TIP3    H232519   3.645   5.036  15.013  0.6147 -0.9504 -0.4265
 3702TIP3   OH232520   4.666   3.885  15.076 -0.0422  0.1066  0.2746
 3702TIP3    H132521   4.747   3.854  15.117  0.2341 -1.1861 -1.1495
 3702TIP3    H232522   4.600   3.878  15.144  0.1200 -3.1943  0.2350
 3703TIP3   OH232523   6.529   3.191   5.461  0.3870  0.0070 -0.2742
 3703TIP3    H132524   6.546   3.244   5.539  0.8212  0.0708 -0.4070
 3703TIP3    H232525   6.578   3.110   5.477 -0.2148 -0.3281 -0.1034
 3704TIP3   OH232526   1.639   5.504  13.077 -0.1368  0.3882  0.1085
 3704TIP3    H132527   1.597   5.549  13.005 -1.2484 -0.1741  0.3776
 3704TIP3    H232528   1.732   5.518  13.064 -0.4177  2.1106 -0.2189
 3705TIP3   OH232529   4.071   5.145   1.282  0.3946 -0.6817  0.3196
 3705TIP3    H132530   4.159   5.150   1.320  0.5389 -1.0007  0.0283
 3705TIP3    H232531   4.064   5.223   1.227  0.8161 -1.0932 -0.3320
 3706TIP3   OH232532   1.093   0.904  14.297  0.5737  0.2051 -0.2849
 3706TIP3    H132533   1.187   0.898  14.318  0.5794  0.5182 -0.2273
 3706TIP3    H232534   1.053   0.934  14.378  0.3646 -0.3768 -0.1706
 3707TIP3   OH232535   3.609   2.553  15.704  0.4727 -0.6642 -0.9958
 3707TIP3    H132536   3.541   2.539  15.638 -0.6997 -0.7824  0.1779
 3707TIP3    H232537   3.612   2.648  15.715 -0.0466 -0.6989 -0.5201
 3708TIP3   OH232538   1.401   2.857   1.401  0.1876 -0.6702 -0.3239
 3708TIP3    H132539   1.383   2.936   1.451 -0.8500 -0.9801 -0.1889
 3708TIP3    H232540   1.439   2.888   1.319 -0.5410 -0.0065 -0.4157
 3709TIP3   OH232541   5.773   3.350   3.671  0.2839 -0.2277 -0.3227
 3709TIP3    H132542   5.789   3.257   3.653  1.3369  0.0182 -0.7539
 3709TIP3    H232543   5.798   3.360   3.763  1.4793 -0.1119 -0.6434
 3710TIP3   OH232544   1.453   0.984  15.347  0.7470  0.3859  0.1498
 3710TIP3    H132545   1.508   1.035  15.287  4.1147 -1.4197  1.4377
 3710TIP3    H232546   1.460   1.029  15.431 -2.9181  2.1834 -0.3273
 3711TIP3   OH232547   2.982   0.393   0.212  0.1216  0.3593  0.2724
 3711TIP3    H132548   3.041   0.361   0.280 -1.1998  1.8125  2.2118
 3711TIP3    H232549   2.899   0.350   0.230  0.1993 -0.7840 -1.7258
 3712TIP3   OH232550   1.907   4.547   4.116  0.3625  0.0054  0.3438
 3712TIP3    H132551   1.844   4.477   4.101  0.1105  0.0802  1.0050
 3712TIP3    H232552   1.967   4.543   4.041  0.1132 -0.6547  0.1760
 3713TIP3   OH232553   5.609   6.330  13.157  0.3212  0.8395 -0.3558
 3713TIP3    H132554   5.607   6.298  13.066 -0.2935 -0.8092  0.1890
 3713TIP3    H232555   5.529   6.294  13.196  0.8099  1.1351  0.9608
 3714TIP3   OH232556   6.083   4.115  12.566  0.3227 -0.5182  0.4816
 3714TIP3    H132557   6.096   4.170  12.643  2.3872  0.1550 -0.2791
 3714TIP3    H232558   6.022   4.164  12.511  0.3551 -0.0839  0.8288
 3715TIP3   OH232559   4.181   1.030   2.697  0.0177 -0.6230 -0.0650
 3715TIP3    H132560   4.231   1.094   2.748 -0.3290 -1.4402  1.3262
 3715TIP3    H232561   4.098   1.074   2.679 -0.0703 -0.5268  0.5574
 3716TIP3   OH232562   4.384   3.779   6.559  0.0250  0.5881  0.0642
 3716TIP3    H132563   4.334   3.715   6.609 -0.5454  2.2186  1.7086
 3716TIP3    H232564   4.322   3.813   6.494 -0.6194  1.5533  1.1429
 3717TIP3   OH232565   4.457   2.492  11.719 -0.1496 -0.0015 -0.0534
 3717TIP3    H132566   4.386   2.454  11.668 -0.1472  0.9488 -0.7810
 3717TIP3    H232567   4.477   2.426  11.785 -0.7668 -0.8639 -0.7137
 3718TIP3   OH232568   5.206   0.880  11.611  0.0419  0.3338  0.0619
 3718TIP3    H132569   5.225   0.935  11.535 -0.1056  2.2206  1.3129
 3718TIP3    H232570   5.292   0.847  11.638  0.0212 -0.8761 -1.2599
 3719TIP3   OH232571   4.112   6.083  13.351 -0.0104 -0.6769 -0.3840
 3719TIP3    H132572   4.058   6.053  13.279 -3.9478  1.5765  1.2973
 3719TIP3    H232573   4.140   6.171  13.325  0.1518 -0.5830  0.0909
 3720TIP3   OH232574   1.455   6.310  11.422  0.2608 -0.4794  0.0826
 3720TIP3    H132575   1.420   6.399  11.414 -0.4724 -0.9038 -2.0692
 3720TIP3    H232576   1.517   6.302  11.350 -0.6436 -2.0912 -0.5649
 3721TIP3   OH232577   3.554   3.815   4.178  0.1303  0.2244 -0.4161
 3721TIP3    H132578   3.463   3.789   4.187  0.5059 -1.6180 -1.4397
 3721TIP3    H232579   3.573   3.805   4.085  1.9370 -1.5222  0.0790
 3722TIP3   OH232580   3.966   4.861   2.654 -0.3051 -0.7200  0.4393
 3722TIP3    H132581   4.050   4.858   2.610 -1.2529  0.9646 -1.6444
 3722TIP3    H232582   3.969   4.789   2.717  2.7823 -0.4741  0.6937
 3723TIP3   OH232583   3.289   3.721  12.130 -0.0507 -0.2233 -1.0427
 3723TIP3    H132584   3.232   3.717  12.053  0.5520  0.4138 -1.5380
 3723TIP3    H232585   3.364   3.666  12.107 -0.2903 -0.7799 -0.5296
 3724TIP3   OH232586   3.805   6.571  15.005 -0.2645  0.1210 -0.3197
 3724TIP3    H132587   3.900   6.574  15.007 -0.2289 -0.6860 -0.5363
 3724TIP3    H232588   3.778   6.606  15.090  0.2048  0.7633 -0.4309
 3725TIP3   OH232589   0.990   1.279   4.134  0.6627 -0.1169  0.0923
 3725TIP3    H132590   0.940   1.248   4.209  1.7961 -0.5056  0.7116
 3725TIP3    H232591   1.007   1.200   4.082 -2.2065  0.4591 -1.9320
 3726TIP3   OH232592   6.097   0.106  15.145 -0.6448  0.3877  0.4012
 3726TIP3    H132593   6.039   0.171  15.105  0.5148  1.5035  0.4619
 3726TIP3    H232594   6.149   0.072  15.072  0.5376  1.4399  0.7249
 3727TIP3   OH232595   2.678   0.088  15.196 -0.0517 -0.1081 -0.2358
 3727TIP3    H132596   2.737   0.098  15.121  0.1809 -0.3856 -0.0927
 3727TIP3    H232597   2.640   0.001  15.185  0.1021 -0.2118  0.0530
 3728TIP3   OH232598   0.029   0.568  13.804 -0.1095 -0.3681  0.5108
 3728TIP3    H132599  -0.021   0.562  13.722 -0.0747  0.0329  0.4597
 3728TIP3    H232600  -0.018   0.510  13.864  0.3584 -1.3522 -0.0394
 3729TIP3   OH232601   0.347   1.915  15.462 -0.7678  0.2529 -0.6805
 3729TIP3    H132602   0.345   1.823  15.434 -0.1054 -0.3536  1.1042
 3729TIP3    H232603   0.438   1.930  15.488 -0.9264  1.3434 -0.7132
 3730TIP3   OH232604   4.078   6.001   3.227 -0.3893 -0.0008 -0.7442
 3730TIP3    H132605   3.986   6.016   3.207 -0.4628  0.1712 -0.2922
 3730TIP3    H232606   4.081   5.991   3.322 -0.1299 -1.3436 -0.8683
 3731TIP3   OH232607   0.827   2.554  11.945  0.2014  0.0694 -0.4128
 3731TIP3    H132608   0.762   2.616  11.978  0.4148 -0.2243  0.5973
 3731TIP3    H232609   0.818   2.478  12.003  1.9800  0.3283  0.2454
 3732TIP3   OH232610   3.749   3.435  14.871 -0.0209  0.3713  0.5709
 3732TIP3    H132611   3.708   3.402  14.951 -0.4573 -1.9219 -0.5196
 3732TIP3    H232612   3.693   3.507  14.843 -0.5382  0.4227  1.6855
 3733TIP3   OH232613   2.254   4.755  14.248  0.1367 -0.4696  0.6934
 3733TIP3    H132614   2.301   4.832  14.280  1.2396 -0.6683 -0.3645
 3733TIP3    H232615   2.165   4.785  14.233  0.4499  0.4913  0.7215
 3734TIP3   OH232616   1.898   6.302  11.775 -0.0012  0.1051  0.5272
 3734TIP3    H132617   1.922   6.297  11.867  1.6631  2.4188  0.3018
 3734TIP3    H232618   1.958   6.367  11.738 -1.1892 -0.1275 -2.0094
 3735TIP3   OH232619   1.114   3.137   6.200  0.0876 -0.6742 -0.0564
 3735TIP3    H132620   1.094   3.043   6.193  2.0523 -1.0844 -0.9499
 3735TIP3    H232621   1.031   3.180   6.182 -0.8424 -2.2439  0.2478
 3736TIP3   OH232622   6.520   2.604   4.751 -0.2028  0.3904 -0.2070
 3736TIP3    H132623   6.600   2.644   4.718 -0.4339  1.1838  0.1682
 3736TIP3    H232624   6.550   2.549   4.824  0.1666 -0.4914 -0.9982
 3737TIP3   OH232625   2.945   0.618   0.085  0.2040  0.1308 -0.4799
 3737TIP3    H132626   2.981   0.532   0.107  1.7040  0.8864  0.1420
 3737TIP3    H232627   2.985   0.640   0.001 -0.4507  0.0743 -0.8098
 3738TIP3   OH232628   6.502   1.983  16.156  0.1134  0.1337 -0.2160
 3738TIP3    H132629   6.477   2.032  16.078  1.1352  0.1018 -0.5745
 3738TIP3    H232630   6.584   1.941  16.133  0.4623  0.1716  0.8960
 3739TIP3   OH232631   1.351   5.775  10.904  0.3606  0.0164  0.0433
 3739TIP3    H132632   1.399   5.776  10.987 -0.8785 -1.5417  0.8392
 3739TIP3    H232633   1.259   5.772  10.930 -0.0912  0.4608 -1.4131
 3740TIP3   OH232634   3.835   5.059  13.370  0.2720  0.1662 -0.1587
 3740TIP3    H132635   3.899   5.008  13.418 -0.8608  1.2469  2.7162
 3740TIP3    H232636   3.879   5.142  13.351  0.2007  0.3637  0.5266
 3741TIP3   OH232637   1.745   3.170   4.117  0.0619 -0.0166  0.1121
 3741TIP3    H132638   1.711   3.227   4.048 -1.7372 -0.0097  0.9469
 3741TIP3    H232639   1.667   3.129   4.154  1.0969 -0.9396  1.3458
 3742TIP3   OH232640   2.003   6.557   4.963 -0.5642  0.9085 -0.2155
 3742TIP3    H132641   1.939   6.619   4.999 -2.0575 -0.3149 -0.6620
 3742TIP3    H232642   1.959   6.519   4.887  0.1717 -0.9331  0.2316
 3743TIP3   OH232643   1.475   2.784   2.785 -0.2452  0.5623  0.3369
 3743TIP3    H132644   1.484   2.879   2.787  0.8374  0.4779  0.1601
 3743TIP3    H232645   1.533   2.754   2.855  0.7659 -0.0386 -0.7163
 3744TIP3   OH232646   6.530   0.371   1.169  0.0754  0.1783  0.5075
 3744TIP3    H132647   6.503   0.284   1.139  0.4567  0.5370 -1.0001
 3744TIP3    H232648   6.611   0.356   1.218  0.9526 -0.2138 -0.9781
 3745TIP3   OH232649   1.921   3.213   5.363 -0.3620  0.6770 -0.2045
 3745TIP3    H132650   1.825   3.211   5.366 -0.3498  0.9435  1.3550
 3745TIP3    H232651   1.947   3.127   5.396 -0.0969  1.4064  1.6362
 3746TIP3   OH232652   5.628   3.294  13.027 -0.0378 -0.3754  0.0110
 3746TIP3    H132653   5.645   3.363  12.963 -0.7482  1.2900  1.5456
 3746TIP3    H232654   5.604   3.218  12.974  0.8435  0.4963 -1.7344
 3747TIP3   OH232655   5.642   4.727  15.929  0.9820  0.2185 -0.2876
 3747TIP3    H132656   5.586   4.799  15.959  1.3513  0.2057  0.4460
 3747TIP3    H232657   5.580   4.660  15.900  0.5987  0.0462  0.8955
 3748TIP3   OH232658   0.728   0.688   3.537  0.4048 -0.3764 -0.1363
 3748TIP3    H132659   0.633   0.696   3.543  0.3358 -1.0446 -0.2857
 3748TIP3    H232660   0.760   0.777   3.549 -0.1465 -0.3893  1.6619
 3749TIP3   OH232661   2.578   4.398   4.253 -0.4330  0.3116  0.0618
 3749TIP3    H132662   2.505   4.343   4.224  0.4306 -0.3132 -1.0473
 3749TIP3    H232663   2.572   4.477   4.199  0.7723 -0.5568 -1.4457
 3750TIP3   OH232664   4.058   2.270  11.922  0.3907 -0.3711 -0.0936
 3750TIP3    H132665   4.081   2.191  11.873  1.3627 -0.1638  0.0218
 3750TIP3    H232666   4.095   2.256  12.009  1.0899  0.4628 -0.2475
 3751TIP3   OH232667   5.115   0.385  10.975 -0.2280 -0.1113 -0.8015
 3751TIP3    H132668   5.176   0.311  10.974  0.2293  0.2062  0.8129
 3751TIP3    H232669   5.166   0.458  11.009 -1.7873 -0.1652  1.9749
 3752TIP3   OH232670   6.323   3.507  11.490 -0.2555  0.1655  0.2897
 3752TIP3    H132671   6.250   3.453  11.459 -0.6010  0.3837  0.7166
 3752TIP3    H232672   6.401   3.468  11.449 -0.4581 -0.8844  0.8753
 3753TIP3   OH232673   2.121   5.390  15.802 -0.0724  0.2000  0.2452
 3753TIP3    H132674   2.146   5.388  15.709  0.9923 -0.8940  0.5295
 3753TIP3    H232675   2.086   5.302  15.818 -0.5447  0.4904  0.8095
 3754TIP3   OH232676   2.443   4.261   5.301 -0.1436 -0.1250  0.5724
 3754TIP3    H132677   2.531   4.298   5.306  0.8752 -1.8328 -2.1873
 3754TIP3    H232678   2.434   4.210   5.382  0.8373  1.1123  1.5042
 3755TIP3   OH232679   3.106   0.758   3.196 -0.1188 -0.3635 -0.2678
 3755TIP3    H132680   3.142   0.748   3.284 -0.3465 -1.6352 -0.3058
 3755TIP3    H232681   3.182   0.754   3.138  0.0317  0.4779 -0.1525
 3756TIP3   OH232682   5.351   5.629  13.764 -0.3518  0.5966 -0.2219
 3756TIP3    H132683   5.390   5.584  13.689  1.1649  1.5103 -0.0262
 3756TIP3    H232684   5.411   5.611  13.836 -0.3729  1.9175  0.1401
 3757TIP3   OH232685   3.686   2.243   1.037  0.1003  0.1605 -0.1341
 3757TIP3    H132686   3.745   2.183   0.991 -0.3119 -0.4886  0.1538
 3757TIP3    H232687   3.731   2.327   1.037 -0.1848  0.3690 -2.3385
 3758TIP3   OH232688   2.450   3.433   0.326  0.1352 -0.4452 -0.2094
 3758TIP3    H132689   2.447   3.351   0.376  0.5836 -0.9392 -0.9841
 3758TIP3    H232690   2.359   3.463   0.324 -0.2875 -1.7533 -1.2728
 3759TIP3   OH232691   1.502   2.230  12.072 -0.3408  0.1270  0.0391
 3759TIP3    H132692   1.470   2.141  12.087  0.3239 -0.4278 -1.6149
 3759TIP3    H232693   1.537   2.228  11.983  2.4202  1.2042  0.9765
 3760TIP3   OH232694   6.560   6.275   4.383 -0.3320  0.2811  0.0207
 3760TIP3    H132695   6.531   6.365   4.369 -1.6992 -0.3400 -1.4838
 3760TIP3    H232696   6.480   6.227   4.404  0.0694 -0.9002 -0.9997
 3761TIP3   OH232697   1.758   0.817  17.158  0.5198  0.1693 -0.2515
 3761TIP3    H132698   1.725   0.735  17.195 -1.8250  0.0087 -2.4206
 3761TIP3    H232699   1.800   0.792  17.076  1.9216  0.9250  0.2052
 3762TIP3   OH232700   5.127   3.292  11.491  0.1634  0.2098 -0.0155
 3762TIP3    H132701   5.035   3.281  11.515  0.4341  0.0300  1.0069
 3762TIP3    H232702   5.132   3.378  11.450 -0.6631 -0.2743 -1.1957
 3763TIP3   OH232703   1.987   5.695   2.220  0.1708 -0.0991  0.3514
 3763TIP3    H132704   2.027   5.656   2.298 -0.9292 -0.8867  0.5426
 3763TIP3    H232705   1.897   5.662   2.220  0.0902  0.0598 -1.1420
 3764TIP3   OH232706   3.060   1.898  16.113 -0.5233 -0.4433 -0.2089
 3764TIP3    H132707   3.114   1.873  16.188 -0.2828 -1.0550 -0.5789
 3764TIP3    H232708   3.122   1.910  16.042 -0.7761 -0.1145 -0.3772
 3765TIP3   OH232709   3.309   2.953  16.137 -0.2940  0.1534 -0.2507
 3765TIP3    H132710   3.240   2.916  16.082  0.7970  1.8204 -2.9853
 3765TIP3    H232711   3.380   2.889  16.132 -0.1327  0.3784 -1.0102
 3766TIP3   OH232712   0.911   5.924   4.213  0.0018  0.5028  0.3741
 3766TIP3    H132713   0.907   6.019   4.208 -1.1357  0.4905  0.7905
 3766TIP3    H232714   0.913   5.905   4.307  0.3724  0.1204  0.2920
 3767TIP3   OH232715   4.025   1.855   6.547 -0.1266 -0.2542  0.2560
 3767TIP3    H132716   4.102   1.825   6.595  0.1926 -0.4047 -0.3448
 3767TIP3    H232717   4.004   1.782   6.488 -0.7283 -0.2150  0.4119
 3768TIP3   OH232718   5.717   2.265   3.115 -0.2556  0.0539  0.7106
 3768TIP3    H132719   5.697   2.185   3.066 -1.4938  0.0090  1.2614
 3768TIP3    H232720   5.706   2.240   3.206  2.5260  0.0022  1.1167
 3769TIP3   OH232721   3.208   1.826  12.302 -0.0482  0.6560 -0.7192
 3769TIP3    H132722   3.259   1.891  12.350  0.6799  0.5164 -1.2873
 3769TIP3    H232723   3.198   1.753  12.363  0.6039  0.6053 -0.6598
 3770TIP3   OH232724   6.589   6.343  15.109 -0.4820 -0.0868 -0.2898
 3770TIP3    H132725   6.523   6.298  15.162 -1.5517  0.8145 -0.8464
 3770TIP3    H232726   6.643   6.272  15.074  0.7954 -0.7134  2.6105
 3771TIP3   OH232727   0.063   3.013  12.928  0.0399  0.6427 -0.1242
 3771TIP3    H132728  -0.015   3.038  12.977  0.6723  0.7921  0.8350
 3771TIP3    H232729   0.073   2.919  12.945  1.6638  1.1569  2.1498
 3772TIP3   OH232730   0.204   5.160   0.903  0.1049 -0.5320  0.1596
 3772TIP3    H132731   0.280   5.206   0.865 -0.1670  0.4534  0.7701
 3772TIP3    H232732   0.130   5.217   0.882 -0.3915 -1.2216  0.0424
 3773TIP3   OH232733   6.191   2.578  16.589 -0.5817  0.2609 -0.1318
 3773TIP3    H132734   6.110   2.528  16.600 -0.5776 -0.6659 -3.2270
 3773TIP3    H232735   6.176   2.631  16.511  0.8214  2.2525  0.8746
 3774TIP3   OH232736   2.106   0.830   6.315  0.2263  0.2619 -0.6095
 3774TIP3    H132737   2.054   0.871   6.246  1.1725 -2.0273 -2.8208
 3774TIP3    H232738   2.197   0.845   6.289  0.6014 -1.4816 -0.4494
 3775TIP3   OH232739   4.855   2.962  14.626  0.2685  0.5610  0.0406
 3775TIP3    H132740   4.851   2.907  14.705  1.4897 -1.5389 -1.2537
 3775TIP3    H232741   4.837   2.902  14.554  1.7523  1.8356 -1.4738
 3776TIP3   OH232742   1.404   1.276  15.164 -0.2033  0.0540  0.5194
 3776TIP3    H132743   1.490   1.236  15.147 -1.0490 -2.0177  0.8683
 3776TIP3    H232744   1.413   1.313  15.252  1.3507  2.9424 -0.7028
 3777TIP3   OH232745   4.549   6.076  14.567 -0.3399  0.0628 -0.0205
 3777TIP3    H132746   4.616   6.028  14.519 -1.2862 -0.4413 -0.8590
 3777TIP3    H232747   4.560   6.048  14.658 -0.6750 -1.5406 -0.4455
 3778TIP3   OH232748   4.909   6.185  14.547  0.1106 -0.0053  0.0217
 3778TIP3    H132749   4.980   6.124  14.568  1.9163  2.7837  2.9193
 3778TIP3    H232750   4.846   6.172  14.618 -0.0687  0.6387 -0.0209
 3779TIP3   OH232751   1.340   3.968   0.762 -0.0604  0.4292 -0.0853
 3779TIP3    H132752   1.286   4.047   0.759 -1.5519 -0.4314  1.8182
 3779TIP3    H232753   1.390   3.976   0.843  0.6745 -0.0598 -0.4741
 3780TIP3   OH232754   6.102   6.710   6.121  0.1349 -0.3794 -0.5663
 3780TIP3    H132755   6.191   6.709   6.086  0.6378  1.4008  0.5278
 3780TIP3    H232756   6.108   6.660   6.203 -0.2306 -1.4658 -1.1755
 3781TIP3   OH232757   6.522   4.089  15.922 -0.1360 -0.0934  0.3561
 3781TIP3    H132758   6.552   4.025  15.859  0.2657 -1.1469  1.5696
 3781TIP3    H232759   6.476   4.155  15.870 -2.4671 -2.4109 -0.7824
 3782TIP3   OH232760   0.508   0.548   5.226 -0.3189 -0.0178 -0.2134
 3782TIP3    H132761   0.578   0.561   5.290  1.0716 -1.6727 -1.2936
 3782TIP3    H232762   0.441   0.500   5.274 -0.2236  0.5854  0.5371
 3783TIP3   OH232763   0.673   5.497  12.327  0.0653 -0.2745  0.2909
 3783TIP3    H132764   0.658   5.407  12.358 -0.3795 -0.3395 -0.1104
 3783TIP3    H232765   0.589   5.525  12.292  0.0117  0.5707  1.0780
 3784TIP3   OH232766   3.388   2.635   1.642 -0.0862  0.5337  0.1517
 3784TIP3    H132767   3.396   2.588   1.560  1.1286  0.5746  0.2265
 3784TIP3    H232768   3.391   2.567   1.709  1.4009  0.6758  0.2488
 3785TIP3   OH232769   3.699   6.658   6.089 -0.5306  0.2865 -0.5200
 3785TIP3    H132770   3.680   6.652   6.182 -0.3649 -1.3855 -0.5648
 3785TIP3    H232771   3.789   6.628   6.081 -0.2097  1.3484 -1.1267
 3786TIP3   OH232772   3.189   4.187  12.911 -0.4478  0.3724 -0.2729
 3786TIP3    H132773   3.214   4.192  12.819 -1.7269 -1.3730 -0.7705
 3786TIP3    H232774   3.174   4.094  12.927  0.4352  0.5558  1.9094
 3787TIP3   OH232775   2.045   4.054  16.726 -0.1595 -0.0602 -0.1648
 3787TIP3    H132776   2.066   3.961  16.727 -0.0939 -0.0823 -1.7623
 3787TIP3    H232777   2.046   4.079  16.634  2.0305  2.0282  0.3067
 3788TIP3   OH232778   1.844   0.876  14.112 -0.1481 -0.0715 -0.7304
 3788TIP3    H132779   1.783   0.859  14.184  0.2012  0.5908 -0.2712
 3788TIP3    H232780   1.788   0.882  14.035 -0.4186 -1.9752 -0.7352
 3789TIP3   OH232781   6.401   0.063  12.517  0.2729  0.6122  0.4818
 3789TIP3    H132782   6.489   0.025  12.522  0.2661  0.6964  1.3781
 3789TIP3    H232783   6.408   0.146  12.564 -0.1967  0.8062  0.2230
 3790TIP3   OH232784   0.055   3.831  16.864 -0.4414  0.6247 -0.3794
 3790TIP3    H132785  -0.001   3.817  16.787  1.3922  2.5485 -2.2145
 3790TIP3    H232786   0.116   3.758  16.864 -0.4743  0.5959 -0.7433
 3791TIP3   OH232787   1.163   1.540   3.686  0.3268 -0.3808 -0.0443
 3791TIP3    H132788   1.251   1.545   3.724  1.0007  0.0204 -1.6000
 3791TIP3    H232789   1.109   1.593   3.744  0.7468 -1.8913  1.8282
 3792TIP3   OH232790   2.417   5.734  11.637  0.4577 -0.0643 -0.2379
 3792TIP3    H132791   2.499   5.704  11.597  1.0145  0.3121  0.5938
 3792TIP3    H232792   2.443   5.805  11.695  0.0384 -1.9839  2.4810
 3793TIP3   OH232793   0.133   1.229  13.160  0.3600 -0.6033 -0.2583
 3793TIP3    H132794   0.222   1.259  13.175  0.9319 -2.7643  1.2142
 3793TIP3    H232795   0.138   1.174  13.082 -0.6916  2.8452 -2.9847
 3794TIP3   OH232796   2.237   2.732   3.612 -0.1174  0.8544 -0.3353
 3794TIP3    H132797   2.155   2.780   3.620 -0.3268  0.3847  0.3885
 3794TIP3    H232798   2.288   2.782   3.547 -1.5456  0.3256 -1.9236
 3795TIP3   OH232799   2.614   0.506  11.727  0.1692 -0.7818 -0.1997
 3795TIP3    H132800   2.530   0.550  11.739  0.2903 -0.6681  0.2690
 3795TIP3    H232801   2.619   0.486  11.634  0.5929  1.1910 -0.6325
 3796TIP3   OH232802   5.089   3.988   4.158  0.8914  0.3265 -0.1332
 3796TIP3    H132803   5.027   4.058   4.177 -1.0480 -1.5378  0.9229
 3796TIP3    H232804   5.158   3.999   4.224 -0.7243 -0.2055  1.7748
 3797TIP3   OH232805   4.961   6.207   4.662 -0.0829  0.3021  0.0056
 3797TIP3    H132806   4.922   6.294   4.667  0.0572  0.4815 -1.4290
 3797TIP3    H232807   4.887   6.147   4.655 -0.1538  0.4034 -0.0988
 3798TIP3   OH232808   1.736   2.592  16.933  0.3770 -0.1400 -0.2564
 3798TIP3    H132809   1.730   2.616  17.025 -0.4385  1.1305 -0.6155
 3798TIP3    H232810   1.814   2.536  16.928  0.0496 -0.7802  1.3007
 3799TIP3   OH232811   6.689   2.967  15.344 -0.4665 -0.1734 -0.2953
 3799TIP3    H132812   6.759   2.926  15.294 -0.8191 -0.7403 -0.3370
 3799TIP3    H232813   6.721   3.055  15.364  0.1635 -0.3566 -0.4925
 3800TIP3   OH232814   5.675   0.253   3.200 -0.2611  0.2105 -0.2956
 3800TIP3    H132815   5.754   0.275   3.251 -2.0367  0.9095  2.3380
 3800TIP3    H232816   5.643   0.338   3.168 -0.4416  0.0175 -0.6401
 3801TIP3   OH232817   5.705   3.297   2.284 -0.2220 -0.0076  0.4477
 3801TIP3    H132818   5.639   3.300   2.214 -1.4992  0.1231  1.6028
 3801TIP3    H232819   5.735   3.388   2.292  3.4927 -0.6929 -3.0657
 3802TIP3   OH232820   1.129   5.339  15.394 -0.2438 -0.1879  0.1201
 3802TIP3    H132821   1.057   5.275  15.393 -0.0861 -0.3640 -0.0988
 3802TIP3    H232822   1.100   5.406  15.455 -0.4060 -0.4801  0.3713
 3803TIP3   OH232823   5.104   6.641  12.601  0.0249 -0.0390  0.0800
 3803TIP3    H132824   5.159   6.708  12.643 -0.0083  0.0617 -0.0352
 3803TIP3    H232825   5.128   6.559  12.645 -1.7920  0.4123  2.0375
 3804TIP3   OH232826   2.766   3.385  15.119  0.4264  0.3995 -0.1595
 3804TIP3    H132827   2.791   3.331  15.194  0.3807  1.4738  0.6638
 3804TIP3    H232828   2.787   3.475  15.147 -1.9781  1.1081 -0.4102
 3805TIP3   OH232829   0.723   3.878  13.687  0.7348 -0.2528  0.2364
 3805TIP3    H132830   0.757   3.895  13.774  3.3005 -2.6271 -0.1485
 3805TIP3    H232831   0.801   3.859  13.634 -0.8660 -0.7346 -2.1155
 3806TIP3   OH232832   3.396   0.591   0.519  0.0957  0.3788  0.1931
 3806TIP3    H132833   3.484   0.554   0.516 -0.0162  0.1602 -1.1254
 3806TIP3    H232834   3.349   0.545   0.450 -0.6729  1.4281  0.0005
 3807TIP3   OH232835   3.637   1.762  12.431 -0.0242  0.1953  0.0589
 3807TIP3    H132836   3.682   1.772  12.515 -1.1419  0.4458  0.6493
 3807TIP3    H232837   3.703   1.726  12.372  1.1155  1.1134  0.7313
 3808TIP3   OH232838   4.385   0.277   5.885  0.5084 -0.0700 -0.4285
 3808TIP3    H132839   4.440   0.201   5.865  0.4222  0.2825 -2.1996
 3808TIP3    H232840   4.389   0.331   5.806 -0.0875  1.3809  0.4800
 3809TIP3   OH232841   6.228   2.072   2.749 -0.4254 -0.2833  0.4257
 3809TIP3    H132842   6.176   2.142   2.787 -1.4875 -0.7841 -0.0720
 3809TIP3    H232843   6.318   2.091   2.776 -0.9542  0.1477  1.9708
 3810TIP3   OH232844   3.761   0.630   3.647  0.5667  0.2430 -0.6868
 3810TIP3    H132845   3.699   0.695   3.614  0.9768  0.8871 -0.2293
 3810TIP3    H232846   3.836   0.636   3.588  0.3325 -0.3059 -1.0475
 3811TIP3   OH232847   6.610   0.053   0.688 -0.3894  0.6278  0.0515
 3811TIP3    H132848   6.678   0.060   0.756  1.2453 -0.9800 -1.3279
 3811TIP3    H232849   6.624   0.129   0.632 -0.4564  0.8949  0.3947
 3812TIP3   OH232850   4.944   6.548  16.372  0.1055  0.4143  0.0829
 3812TIP3    H132851   5.038   6.531  16.369 -0.2778 -2.7057  1.7053
 3812TIP3    H232852   4.916   6.515  16.458 -2.2418  2.8331  0.3795
 3813TIP3   OH232853   1.496   6.514  15.149 -0.7439  0.3184 -0.1815
 3813TIP3    H132854   1.434   6.459  15.101  0.0408 -0.8437  0.0934
 3813TIP3    H232855   1.574   6.516  15.093 -0.4698  0.4641  0.2014
 3814TIP3   OH232856   1.823   1.705  17.096  0.2014  0.3959 -0.0492
 3814TIP3    H132857   1.793   1.781  17.045 -2.1338 -0.2014  0.3051
 3814TIP3    H232858   1.787   1.630  17.050  0.3804 -0.3396  0.9758
 3815TIP3   OH232859   2.220   3.079   3.896 -0.1950 -0.1688 -0.0765
 3815TIP3    H132860   2.232   3.168   3.861  0.1519 -0.3515 -0.4277
 3815TIP3    H232861   2.128   3.060   3.880  0.3933 -1.0824 -2.9157
 3816TIP3   OH232862   6.181   0.482  16.993  0.2523 -0.0597  0.0209
 3816TIP3    H132863   6.147   0.526  16.915  0.4652 -1.6769 -1.0596
 3816TIP3    H232864   6.115   0.415  17.013 -0.0192  0.6272  1.5407
 3817TIP3   OH232865   2.308   4.561   5.437 -0.4252 -0.6965 -1.0318
 3817TIP3    H132866   2.350   4.494   5.383  2.0243  1.2147 -1.6934
 3817TIP3    H232867   2.356   4.641   5.416  0.4697  0.2631  3.7233
 3818TIP3   OH232868   6.269   3.277   1.204  0.3766 -0.2569 -0.0223
 3818TIP3    H132869   6.335   3.325   1.253  1.9981  0.2666 -2.5077
 3818TIP3    H232870   6.310   3.261   1.118 -2.2863 -0.9864 -1.2723
 3819TIP3   OH232871   0.927   1.938   2.366  0.2954  0.1242 -0.0892
 3819TIP3    H132872   0.886   2.011   2.412 -2.4453 -1.2431 -0.1633
 3819TIP3    H232873   0.911   1.956   2.273 -2.6397 -1.6190 -0.0507
 3820TIP3   OH232874   4.354   1.337  11.521 -0.2947 -0.3335  0.1712
 3820TIP3    H132875   4.343   1.361  11.429 -1.7982 -2.8625 -0.4008
 3820TIP3    H232876   4.447   1.314  11.529 -0.0279  0.4428 -0.5426
 3821TIP3   OH232877   4.575   0.762  14.785  0.0808  0.2328 -0.2927
 3821TIP3    H132878   4.495   0.811  14.769  0.6996  1.1680 -0.6596
 3821TIP3    H232879   4.588   0.711  14.705 -1.0896 -1.3481  0.4722
 3822TIP3   OH232880   2.039   6.073  16.682  0.3790 -0.5499  1.1583
 3822TIP3    H132881   1.989   6.081  16.762 -3.5114 -0.2912 -1.0633
 3822TIP3    H232882   2.016   6.149  16.630  0.2700 -2.1939 -1.4103
 3823TIP3   OH232883   1.275   0.842   0.934  0.0394 -0.6973  0.1893
 3823TIP3    H132884   1.240   0.915   0.985  0.4798 -0.0589 -0.4117
 3823TIP3    H232885   1.368   0.838   0.959  0.4153  0.0354 -1.0292
 3824TIP3   OH232886   3.244   2.873  15.446  0.1397  0.2793  0.3007
 3824TIP3    H132887   3.214   2.820  15.372  0.6479 -0.3138  0.5154
 3824TIP3    H232888   3.312   2.930  15.409  2.5045 -1.9885  0.8074
 3825TIP3   OH232889   5.405   0.299  17.186  0.1539  0.1762 -0.6699
 3825TIP3    H132890   5.356   0.290  17.104  0.0468  0.8887 -0.6898
 3825TIP3    H232891   5.354   0.361  17.238 -0.2691 -0.9482  0.3242
 3826TIP3   OH232892   6.767   0.232  10.959 -0.4009  0.1903  0.4522
 3826TIP3    H132893   6.687   0.190  10.928 -0.8493  0.2209  1.5458
 3826TIP3    H232894   6.767   0.219  11.054 -0.5272  2.5900  0.8321
 3827TIP3   OH232895   1.257   3.846  14.804  0.2475 -0.1517 -0.5051
 3827TIP3    H132896   1.311   3.833  14.726 -0.4019  1.1080 -1.2064
 3827TIP3    H232897   1.169   3.861  14.770  0.0024  0.6845  0.4349
 3828TIP3   OH232898   0.251   4.847  15.882 -0.1618  0.1606  0.2817
 3828TIP3    H132899   0.208   4.923  15.842  0.0873 -0.3842 -1.0794
 3828TIP3    H232900   0.339   4.847  15.845 -0.8796 -2.1432 -1.6653
 3829TIP3   OH232901   5.264   4.268  11.233  0.2335 -0.2033  0.5518
 3829TIP3    H132902   5.271   4.354  11.275 -0.8986  0.2492 -0.1328
 3829TIP3    H232903   5.297   4.282  11.144 -0.2361 -0.3927  0.3436
 3830TIP3   OH232904   4.522   5.287   3.514  0.7228  0.6781 -0.0577
 3830TIP3    H132905   4.551   5.336   3.437  0.7743  0.9982  0.1587
 3830TIP3    H232906   4.500   5.355   3.578  0.2908  0.4225  0.0696
 3831TIP3   OH232907   1.562   4.440  12.380 -0.2300 -0.1964 -0.2205
 3831TIP3    H132908   1.491   4.477  12.434  0.7990 -1.1757  1.9422
 3831TIP3    H232909   1.601   4.372  12.436  1.7030 -0.4497 -1.7776
 3832TIP3   OH232910   3.812   1.420   4.022 -0.1977 -0.7516  0.4277
 3832TIP3    H132911   3.808   1.410   4.118  0.8468 -0.0718  0.5526
 3832TIP3    H232912   3.900   1.453   4.005 -0.3292 -0.9920 -0.7934
 3833TIP3   OH232913   6.730   6.234  16.449 -0.3942  0.4603 -0.2732
 3833TIP3    H132914   6.751   6.195  16.364 -0.5376  0.2996 -0.2357
 3833TIP3    H232915   6.785   6.187  16.512 -0.2747  0.5915 -0.2778
 3834TIP3   OH232916   1.342   1.962  15.715  0.2405  0.8062  0.8440
 3834TIP3    H132917   1.358   2.001  15.629 -1.4134  0.8440  0.5278
 3834TIP3    H232918   1.409   1.894  15.723 -1.0335 -0.8819 -1.5487
 3835TIP3   OH232919   3.574   3.989   6.718  0.1908  0.4182 -0.0123
 3835TIP3    H132920   3.634   3.952   6.654 -2.5321 -1.7360 -1.5692
 3835TIP3    H232921   3.575   3.928   6.792 -1.7225 -1.0205 -1.0835
 3836TIP3   OH232922   2.237   3.941   4.206  0.4669 -0.4003  0.2777
 3836TIP3    H132923   2.323   3.939   4.163  0.5845 -0.6069  0.5197
 3836TIP3    H232924   2.256   3.921   4.298  0.3618  1.1220  0.6664
 3837TIP3   OH232925   3.565   2.323   5.186 -0.3108 -0.5354  0.2737
 3837TIP3    H132926   3.571   2.258   5.256  1.4350 -0.1021  0.5686
 3837TIP3    H232927   3.632   2.388   5.207 -0.3329  0.0576 -1.3376
 3838TIP3   OH232928   1.699   4.573  16.374 -0.9612 -0.0592 -0.7174
 3838TIP3    H132929   1.679   4.551  16.465 -1.5655 -0.1853 -0.8727
 3838TIP3    H232930   1.631   4.636  16.349  0.7547  2.1050 -0.2714
 3839TIP3   OH232931   1.275   2.816   5.299 -0.3641 -1.1362  0.2747
 3839TIP3    H132932   1.317   2.767   5.370 -0.9606  0.6154  1.9193
 3839TIP3    H232933   1.181   2.804   5.315 -0.5155 -1.5987 -0.8867
 3840TIP3   OH232934   5.770   2.470  17.063 -0.6106 -0.2040 -0.0247
 3840TIP3    H132935   5.862   2.446  17.053 -0.0831  1.5282  0.4044
 3840TIP3    H232936   5.732   2.399  17.116  0.3885 -1.0532 -0.4072
 3841TIP3   OH232937   5.437   3.084   4.301  0.2229  0.0782 -0.1813
 3841TIP3    H132938   5.380   3.077   4.224  0.0126 -2.6528  0.1062
 3841TIP3    H232939   5.390   3.036   4.370  2.2739 -1.2077  0.4207
 3842TIP3   OH232940   1.536   3.701  12.914  0.0170  0.2351 -0.0854
 3842TIP3    H132941   1.500   3.787  12.936  0.2246  0.3760 -0.2956
 3842TIP3    H232942   1.521   3.649  12.992 -0.7826  0.2465 -0.2160
 3843TIP3   OH232943   6.290   4.949   1.357 -0.6468 -0.3002  0.0737
 3843TIP3    H132944   6.279   5.028   1.411  2.2983  0.9436 -0.9203
 3843TIP3    H232945   6.263   4.976   1.269 -1.9815 -1.2147  0.1752
 3844TIP3   OH232946   2.491   4.211  12.136  0.1206  0.2653 -0.0048
 3844TIP3    H132947   2.544   4.158  12.076 -0.7920  0.2112 -0.7927
 3844TIP3    H232948   2.537   4.206  12.220  0.9840 -0.3386 -0.5019
 3845TIP3   OH232949   6.135   1.718   2.624  0.6962  0.2622  0.2512
 3845TIP3    H132950   6.122   1.812   2.612 -0.4851 -0.1128 -1.9970
 3845TIP3    H232951   6.061   1.691   2.678 -0.8585  0.1969 -1.7687
 3846TIP3   OH232952   6.689   4.421   6.033 -0.2628  0.2697 -0.6145
 3846TIP3    H132953   6.759   4.463   6.083  0.4368  0.0786 -1.4310
 3846TIP3    H232954   6.726   4.406   5.946 -0.3803 -2.2102 -0.3317
 3847TIP3   OH232955   6.169   4.442   4.318 -0.0853 -0.0358  0.0003
 3847TIP3    H132956   6.112   4.517   4.300 -1.7429 -1.3112 -0.3110
 3847TIP3    H232957   6.129   4.399   4.393  0.3577 -1.0700 -0.3362
 3848TIP3   OH232958   4.737   0.070  16.252 -0.2232 -0.2051 -0.1148
 3848TIP3    H132959   4.744   0.069  16.348  2.7742 -1.7333 -0.2250
 3848TIP3    H232960   4.822   0.102  16.222 -0.6148 -1.0177 -2.2922
 3849TIP3   OH232961   6.774   3.445   3.719 -0.0926  0.4027 -0.3744
 3849TIP3    H132962   6.760   3.539   3.711 -2.2915  0.1037 -0.5862
 3849TIP3    H232963   6.749   3.409   3.634  1.3888 -0.3441 -0.5339
 3850TIP3   OH232964   1.735   1.670  11.797  0.3167 -0.0909  0.7782
 3850TIP3    H132965   1.786   1.626  11.864  0.6205  0.0268  0.6235
 3850TIP3    H232966   1.718   1.603  11.731 -0.4287 -0.3484  1.2155
 3851TIP3   OH232967   4.401   5.301   0.006 -0.3319  0.3263 -0.2591
 3851TIP3    H132968   4.449   5.374  -0.034  0.1987  0.1039 -0.0385
 3851TIP3    H232969   4.375   5.334   0.092  0.0721  0.1914 -0.0845
 3852TIP3   OH232970   6.031   5.806  15.516  0.4353 -0.0452 -0.7410
 3852TIP3    H132971   6.042   5.783  15.424  1.1776 -1.1468 -0.3871
 3852TIP3    H232972   6.119   5.802  15.553  0.4364  2.1312 -0.3383
 3853TIP3   OH232973   2.721   5.631  17.312  0.5074  0.4670 -0.0948
 3853TIP3    H132974   2.767   5.547  17.322  1.8661  1.0626 -1.1049
 3853TIP3    H232975   2.643   5.622  17.368  0.9392 -1.2289  0.2949
 3854TIP3   OH232976   4.126   5.753   0.057  0.1216 -0.2707  0.4395
 3854TIP3    H132977   4.217   5.783   0.063 -0.6137  2.3164  0.1061
 3854TIP3    H232978   4.122   5.706  -0.026  1.6104 -2.4259  1.4973
 3855TIP3   OH232979   0.671   0.966   0.750 -0.3567  0.6466 -0.2313
 3855TIP3    H132980   0.609   1.002   0.686  1.0299  2.2376 -0.7787
 3855TIP3    H232981   0.655   1.016   0.830 -0.8689 -0.0988  0.1487
 3856TIP3   OH232982   5.996   0.344   1.821  0.3565  0.4285  0.1094
 3856TIP3    H132983   5.985   0.251   1.803 -0.2510  0.3596  0.7917
 3856TIP3    H232984   5.908   0.375   1.844  0.9945  0.5083  2.8102
 3857TIP3   OH232985   5.920   0.342  15.075 -0.2737  0.3518 -0.0871
 3857TIP3    H132986   5.934   0.273  15.010  0.8219  1.5448 -1.1784
 3857TIP3    H232987   5.937   0.424  15.028 -0.1754  1.2999  1.5077
 3858TIP3   OH232988   0.801   4.181  16.480 -0.0921 -0.0283 -0.7544
 3858TIP3    H132989   0.886   4.214  16.452 -0.3594 -0.4631 -2.1776
 3858TIP3    H232990   0.820   4.099  16.526  0.2615 -0.0666 -0.9696
 3859TIP3   OH232991   0.173   3.068  15.558 -0.8246 -0.0816 -0.0199
 3859TIP3    H132992   0.180   2.997  15.495 -0.1827  1.3086 -1.6033
 3859TIP3    H232993   0.263   3.099  15.569 -1.2835  1.6543 -0.8299
 3860TIP3   OH232994   4.557   0.312  16.421 -0.2229 -0.6654 -0.3405
 3860TIP3    H132995   4.582   0.336  16.331  0.2952  0.2827  0.0411
 3860TIP3    H232996   4.531   0.395  16.461  0.3267 -0.9553  0.6321
 3861TIP3   OH232997   1.083   4.071  13.504 -0.3477  0.3696  0.6640
 3861TIP3    H132998   0.996   4.060  13.542 -1.2701  0.2686 -1.3679
 3861TIP3    H232999   1.072   4.139  13.438  0.3142 -1.7593 -1.8238
 3862TIP3   OH233000   5.747   1.749  12.106  0.5462 -0.3567  0.9584
 3862TIP3    H133001   5.690   1.687  12.060  0.2190 -0.3275  1.3181
 3862TIP3    H233002   5.813   1.773  12.041 -0.1493  0.0014  0.3561
 3863TIP3   OH233003   0.410   2.355   2.458 -0.3872  0.1549 -0.0393
 3863TIP3    H133004   0.340   2.291   2.445  0.6932 -1.1044  0.0815
 3863TIP3    H233005   0.470   2.341   2.385 -0.2227  1.1775 -0.1143
 3864TIP3   OH233006   0.626   3.749  16.384  0.2232  0.4556  0.0975
 3864TIP3    H133007   0.610   3.840  16.359 -2.1677  0.2629  0.6213
 3864TIP3    H233008   0.616   3.749  16.479  2.1165 -0.0668  0.3369
 3865TIP3   OH233009   1.664   1.393  12.592  0.2721 -0.1229  0.4911
 3865TIP3    H133010   1.606   1.339  12.646 -0.6842  1.4018  1.0681
 3865TIP3    H233011   1.627   1.481  12.599  1.2288  0.4456 -1.1686
 3866TIP3   OH233012   0.200   4.456   0.516  0.0796  0.4256  0.4761
 3866TIP3    H133013   0.147   4.406   0.454  0.5534 -0.4651  0.7676
 3866TIP3    H233014   0.138   4.516   0.558 -0.7449 -0.7498  0.9813
 3867TIP3   OH233015   6.220   3.406  14.814 -0.6873 -0.4665  0.2187
 3867TIP3    H133016   6.207   3.407  14.719  0.7038 -0.4972 -0.0039
 3867TIP3    H233017   6.285   3.474  14.830 -0.0195 -1.2582  0.9874
 3868TIP3   OH233018   0.698   4.964   4.928  0.1989 -0.5348  0.1473
 3868TIP3    H133019   0.613   4.923   4.915  0.4000 -1.5078  1.6661
 3868TIP3    H233020   0.753   4.895   4.963  1.7280  0.0066 -1.0842
 3869TIP3   OH233021   4.179   0.905  12.190 -0.4756  0.3158 -0.1384
 3869TIP3    H133022   4.171   0.980  12.132 -0.8612 -0.3762 -1.0140
 3869TIP3    H233023   4.112   0.843  12.159 -1.3566  0.3076  1.6655
 3870TIP3   OH233024   2.141   2.300   2.465 -0.0745  0.0065 -0.9892
 3870TIP3    H133025   2.220   2.335   2.507  0.2591 -1.1645 -0.5814
 3870TIP3    H233026   2.069   2.353   2.501  0.3011 -0.3591  0.3809
 3871TIP3   OH233027   5.985   1.841  10.673 -0.1770 -0.0109  0.1836
 3871TIP3    H133028   6.011   1.914  10.730 -2.0222  0.9850 -0.1722
 3871TIP3    H233029   5.910   1.875  10.624 -0.3683 -1.7943 -0.8198
 3872TIP3   OH233030   6.080   0.878  14.717  0.0731  0.2868 -0.1577
 3872TIP3    H133031   6.000   0.841  14.756  0.8663 -0.6690  0.6043
 3872TIP3    H233032   6.078   0.850  14.626 -0.6144  0.5341 -0.2266
 3873TIP3   OH233033   4.530   6.238   0.832 -0.0285 -0.2761 -0.0901
 3873TIP3    H133034   4.596   6.237   0.762 -1.1994  1.7691 -1.3520
 3873TIP3    H233035   4.465   6.174   0.805  0.5159 -0.9489  0.1862
 3874TIP3   OH233036   4.817   3.324  14.363  0.6439  0.1126  0.0542
 3874TIP3    H133037   4.814   3.303  14.270 -0.2093 -0.5562  0.2236
 3874TIP3    H233038   4.884   3.393  14.370  0.4723  0.4092 -1.0905
 3875TIP3   OH233039   2.642   4.625   1.585 -0.1601 -0.1648  0.3953
 3875TIP3    H133040   2.663   4.664   1.671  0.0575 -2.7862  1.6189
 3875TIP3    H233041   2.585   4.551   1.606 -0.0274 -0.9300 -1.7426
 3876TIP3   OH233042   3.954   2.292  13.161 -0.5532  0.0325  0.4483
 3876TIP3    H133043   3.893   2.279  13.233 -0.4116  2.4142  1.0894
 3876TIP3    H233044   3.909   2.351  13.101  0.4192  0.4287  0.0769
 3877TIP3   OH233045   1.851   3.320   4.441 -0.1610 -0.1596 -0.1557
 3877TIP3    H133046   1.865   3.225   4.442  0.1072 -0.1301  1.7263
 3877TIP3    H233047   1.931   3.356   4.478 -0.1483  0.8530 -1.1106
 3878TIP3   OH233048   0.905   5.936  11.695 -0.4755  0.0535  0.3342
 3878TIP3    H133049   0.967   5.922  11.623 -0.5053  0.7888  0.1533
 3878TIP3    H233050   0.961   5.960  11.769 -0.5463  0.8837  0.1263
 3879TIP3   OH233051   1.223   4.011  15.345 -0.0227  0.1078  0.9027
 3879TIP3    H133052   1.128   3.994  15.344  0.1334 -1.1280  2.4152
 3879TIP3    H233053   1.253   3.983  15.259 -1.0844  1.0607  0.1751
 3880TIP3   OH233054   0.184   4.498  15.266  0.1188  0.0448  0.5399
 3880TIP3    H133055   0.253   4.448  15.309  1.6109  0.7386 -0.8801
 3880TIP3    H233056   0.231   4.571  15.224 -1.5099  0.6213 -0.3776
 3881TIP3   OH233057   6.251   5.429   4.696 -0.1627  0.6111  0.0361
 3881TIP3    H133058   6.236   5.511   4.649 -2.7804 -0.0240 -0.3800
 3881TIP3    H233059   6.271   5.365   4.628 -2.7985 -0.0532 -0.2154
 3882TIP3   OH233060   3.194   1.998  15.442 -0.0789 -0.1565  0.0409
 3882TIP3    H133061   3.145   1.926  15.482  0.1046 -0.4758 -0.2939
 3882TIP3    H233062   3.147   2.018  15.362 -0.1365  0.1066  0.1414
 3883TIP3   OH233063   5.148   1.674   5.497  0.2740  0.2235 -0.1291
 3883TIP3    H133064   5.172   1.756   5.454  0.4724 -0.0720 -0.5871
 3883TIP3    H233065   5.123   1.700   5.585 -3.1156  1.2785 -1.2489
 3884TIP3   OH233066   3.011   1.965  12.582 -0.0935  0.3117  0.3739
 3884TIP3    H133067   3.070   2.027  12.540  0.2437 -0.0409  0.3271
 3884TIP3    H233068   3.031   1.972  12.676  0.3554 -0.1540  0.3138
 3885TIP3   OH233069   4.716   2.889  14.324  0.0193 -0.3002  0.1534
 3885TIP3    H133070   4.747   2.885  14.233  0.9378  0.0284  0.4420
 3885TIP3    H233071   4.678   2.977  14.332 -1.8738 -1.0050 -0.4529
 3886TIP3   OH233072   4.150   5.777  13.364  0.9660  0.0816  0.3049
 3886TIP3    H133073   4.091   5.732  13.425 -0.5604  1.1154 -0.3566
 3886TIP3    H233074   4.094   5.803  13.291  2.0867  1.7539 -0.0085
 3887TIP3   OH233075   3.437   4.386  11.168  0.2986 -0.0136  0.9734
 3887TIP3    H133076   3.410   4.414  11.080  0.8025  1.3898  1.2420
 3887TIP3    H233077   3.519   4.339  11.154  0.9328  1.1273  0.7891
 3888TIP3   OH233078   3.990   2.366   1.866  0.3185  0.9336 -0.0358
 3888TIP3    H133079   3.912   2.310   1.863  1.0154 -0.2101  1.6603
 3888TIP3    H233080   3.960   2.447   1.909 -0.3944  1.3772 -1.3248
 3889TIP3   OH233081   5.934   2.148   5.816  0.0927  0.0103  0.2342
 3889TIP3    H133082   5.892   2.095   5.749  1.0551 -0.8127  0.2661
 3889TIP3    H233083   5.900   2.113   5.899 -0.6908  0.6836  0.2159
 3890TIP3   OH233084   0.197   4.789  11.855  0.1021 -0.3261  0.0502
 3890TIP3    H133085   0.257   4.780  11.929  0.5800  0.0246 -0.2889
 3890TIP3    H233086   0.193   4.883  11.838  1.7593 -0.5279 -1.7793
 3891TIP3   OH233087   5.042   3.959   2.354 -0.0159  0.2231 -0.7282
 3891TIP3    H133088   5.048   3.992   2.264  2.2544  1.6303 -0.1389
 3891TIP3    H233089   4.965   4.003   2.390 -2.1584 -1.8258 -2.4486
 3892TIP3   OH233090   2.035   1.302   0.535  0.1304  0.1945 -0.8380
 3892TIP3    H133091   1.944   1.294   0.508 -0.1160 -0.5486  0.1787
 3892TIP3    H233092   2.070   1.372   0.480 -1.1242  0.6823 -1.0413
 3893TIP3   OH233093   3.233   5.947  16.643 -1.0510  0.3058 -0.3164
 3893TIP3    H133094   3.246   5.869  16.588 -1.9932 -0.4820  0.5405
 3893TIP3    H233095   3.293   5.935  16.716  1.2526  2.0403 -1.7715
 3894TIP3   OH233096   3.500   2.635  17.260  0.3452 -0.2758 -0.3593
 3894TIP3    H133097   3.503   2.699  17.189  0.3521  0.6625  0.4751
 3894TIP3    H233098   3.501   2.687  17.340 -0.5541 -1.2820  0.3352
 3895TIP3   OH233099   0.280   5.603   1.788 -0.3114 -0.3502 -0.0026
 3895TIP3    H133100   0.184   5.602   1.791 -0.3676  0.7520 -0.8878
 3895TIP3    H233101   0.306   5.529   1.843 -1.6372  0.1330  1.3364
 3896TIP3   OH233102   6.562   1.422  17.250 -0.6049 -0.0247  0.1310
 3896TIP3    H133103   6.613   1.358  17.200 -0.0024 -1.5759  2.5105
 3896TIP3    H233104   6.472   1.388  17.247  0.0661 -2.7629  3.5199
 3897TIP3   OH233105   5.604   2.964   4.755  0.2277 -0.4569 -0.6909
 3897TIP3    H133106   5.652   2.884   4.777  0.1486 -0.7816 -1.6443
 3897TIP3    H233107   5.623   3.024   4.827  1.0968 -0.9894 -0.4621
 3898TIP3   OH233108   0.433   5.801   5.553 -0.2651 -0.0861  0.4644
 3898TIP3    H133109   0.439   5.862   5.627 -1.1490  0.2002  0.3180
 3898TIP3    H233110   0.450   5.855   5.476 -1.0223 -0.0168  0.3360
 3899TIP3   OH233111   4.761   3.222   0.166 -0.1754  0.1475  0.3909
 3899TIP3    H133112   4.706   3.164   0.220 -0.5560  0.5377  0.4344
 3899TIP3    H233113   4.709   3.236   0.087 -0.1152  0.4870  0.4130
 3900TIP3   OH233114   5.153   0.599   0.341 -0.0376 -0.2482 -0.0576
 3900TIP3    H133115   5.122   0.662   0.407 -0.3989  0.8923 -1.2849
 3900TIP3    H233116   5.082   0.595   0.277 -1.1768 -3.8801  1.2190
 3901TIP3   OH233117   4.039   6.253  15.059  0.0997  0.1933 -0.2673
 3901TIP3    H133118   4.089   6.319  15.108 -0.7667 -0.4537  1.6058
 3901TIP3    H233119   4.095   6.230  14.986  1.3732  1.4241  0.2725
 3902TIP3   OH233120   1.557   0.840   5.418 -0.4104 -0.5175 -0.2074
 3902TIP3    H133121   1.567   0.746   5.432  0.6174 -0.3120  0.5729
 3902TIP3    H233122   1.479   0.863   5.468  0.1834 -0.7162  0.8363
 3903TIP3   OH233123   1.263   3.463  16.083  0.2635 -0.6421  0.3104
 3903TIP3    H133124   1.249   3.449  15.990  0.6362 -0.1241  0.1735
 3903TIP3    H233125   1.179   3.442  16.124 -0.1147 -0.1539 -0.2176
 3904TIP3   OH233126   5.907   4.333  15.314  0.5527 -0.4062  0.0112
 3904TIP3    H133127   5.965   4.274  15.363  1.5765  0.4664 -0.1142
 3904TIP3    H233128   5.824   4.286  15.308  0.6855 -0.9294  1.7779
 3905TIP3   OH233129   2.985   6.605  13.927  0.0101 -0.0271 -0.2163
 3905TIP3    H133130   3.005   6.671  13.860  0.1930  0.6913  0.5365
 3905TIP3    H233131   2.891   6.588  13.916 -0.0101  0.2579 -0.5047
 3906TIP3   OH233132   0.292   4.845   1.978 -0.0298  0.4594  0.0373
 3906TIP3    H133133   0.327   4.815   2.062 -1.1044  0.4017  0.4874
 3906TIP3    H233134   0.324   4.781   1.914 -1.3706 -1.0413  0.8153
 3907TIP3   OH233135   6.254   4.917  17.138 -0.2203 -0.0373 -0.3062
 3907TIP3    H133136   6.279   4.995  17.088 -1.6574  0.4737 -0.2810
 3907TIP3    H233137   6.218   4.857  17.073  1.1733 -0.8495 -0.3736
 3908TIP3   OH233138   6.210   1.896   4.256  0.5890  0.5824  0.3037
 3908TIP3    H133139   6.246   1.877   4.170  1.3489  0.3067  0.6761
 3908TIP3    H233140   6.134   1.838   4.264  1.5911 -0.7453  0.5482
 3909TIP3   OH233141   4.296   5.370   0.260 -0.3907 -0.5461  0.5281
 3909TIP3    H133142   4.239   5.437   0.298 -1.9995  0.2998 -2.9215
 3909TIP3    H233143   4.238   5.296   0.243 -0.3514 -0.0739 -2.0692
 3910TIP3   OH233144   2.450   5.230   2.351  0.2473  0.5665 -0.2775
 3910TIP3    H133145   2.357   5.216   2.367  0.1096  1.4858 -0.2272
 3910TIP3    H233146   2.454   5.311   2.301  0.9172 -0.3551 -1.7969
 3911TIP3   OH233147   6.007   3.091   0.517 -0.3665  0.0310  0.2992
 3911TIP3    H133148   6.033   3.018   0.460  0.7464  0.3524  0.3756
 3911TIP3    H233149   6.088   3.140   0.531 -0.5116 -0.2775  2.5351
 3912TIP3   OH233150   6.498   0.683  12.591 -0.0965  0.3152 -0.4626
 3912TIP3    H133151   6.586   0.684  12.629 -0.7224 -1.3522  1.1427
 3912TIP3    H233152   6.460   0.767  12.619  0.7482  0.7831 -0.6652
 3913TIP3   OH233153   4.178   1.439   5.219 -0.1088  0.2967 -0.4396
 3913TIP3    H133154   4.241   1.422   5.289 -1.0811  0.3167  0.4617
 3913TIP3    H233155   4.132   1.356   5.207 -1.8624  1.0185  0.9234
 3914TIP3   OH233156   2.974   4.422  12.124  0.0287 -0.2587 -0.2515
 3914TIP3    H133157   2.985   4.421  12.219  0.0535  0.3300 -0.2480
 3914TIP3    H233158   2.881   4.399  12.110 -0.7286  2.3218  0.0494
 3915TIP3   OH233159   4.251   1.452   3.267 -0.4189 -0.1310  0.1775
 3915TIP3    H133160   4.166   1.415   3.289  0.1669 -1.0966  0.9020
 3915TIP3    H233161   4.287   1.394   3.201 -0.5176  0.5582 -0.5005
 3916TIP3   OH233162   4.226   2.159  11.566 -0.4082 -0.6125  0.0613
 3916TIP3    H133163   4.175   2.147  11.486 -0.5543 -1.5352  0.2724
 3916TIP3    H233164   4.279   2.079  11.572 -0.9110 -0.8818  1.2419
 3917TIP3   OH233165   5.249   1.677  16.033  0.1098 -0.4446 -0.0699
 3917TIP3    H133166   5.325   1.692  15.977  0.8436  1.7848  1.3722
 3917TIP3    H233167   5.218   1.590  16.009  1.3484 -0.2532 -2.7379
 3918TIP3   OH233168   1.808   3.596  14.794  0.4332 -0.6807 -0.2985
 3918TIP3    H133169   1.731   3.563  14.840  0.2148 -1.1178 -0.9688
 3918TIP3    H233170   1.836   3.672  14.845 -0.9176 -0.0296 -0.4921
 3919TIP3   OH233171   6.170   5.592  15.206  0.2861  0.5735 -0.6032
 3919TIP3    H133172   6.238   5.534  15.239 -0.8603 -0.0791  0.7084
 3919TIP3    H233173   6.187   5.676  15.249  0.1985  0.3788 -0.1863
 3920TIP3   OH233174   3.505   2.471   3.905 -0.0713 -0.1503  0.1267
 3920TIP3    H133175   3.482   2.461   3.813  0.4114 -1.7906  0.1459
 3920TIP3    H233176   3.424   2.455   3.953 -0.4463  1.2410 -0.0045
 3921TIP3   OH233177   6.486   1.222  14.824  0.8128 -0.2498 -0.7099
 3921TIP3    H133178   6.399   1.184  14.832  0.7264  0.0893 -0.0405
 3921TIP3    H233179   6.522   1.221  14.913  0.5974  1.7420 -0.5613
 3922TIP3   OH233180   4.672   3.967   1.028 -0.2017 -0.4709  0.0803
 3922TIP3    H133181   4.605   3.962   0.959 -0.7065 -1.3467  0.6162
 3922TIP3    H233182   4.674   3.879   1.066  0.0503  0.0122  1.2115
 3923TIP3   OH233183   6.547   0.684  16.871  0.3576 -0.1828  0.7818
 3923TIP3    H133184   6.631   0.709  16.910  1.4025  1.3677 -2.1763
 3923TIP3    H233185   6.486   0.752  16.900  0.4221 -0.5481  1.8242
 3924TIP3   OH233186   0.030   1.823  15.461 -0.1173  0.0890  0.0006
 3924TIP3    H133187  -0.003   1.854  15.546  1.2451 -1.9575  1.3730
 3924TIP3    H233188  -0.047   1.784  15.419 -0.1536 -2.4707  2.1296
 3925TIP3   OH233189   1.173   0.439   2.197  0.2749  0.1913 -0.1578
 3925TIP3    H133190   1.236   0.386   2.149  1.2733  0.6367  0.6275
 3925TIP3    H233191   1.194   0.424   2.289  0.6634  1.9967  0.0856
 3926TIP3   OH233192   2.528   2.114   0.748  0.0537 -0.3746  0.2516
 3926TIP3    H133193   2.578   2.087   0.824  1.3875 -0.2425 -0.5528
 3926TIP3    H233194   2.549   2.206   0.735 -3.0079  0.6977  1.8413
 3927TIP3   OH233195   6.230   2.555  14.527 -0.0046  0.4359 -0.4066
 3927TIP3    H133196   6.154   2.510  14.491  0.3184 -2.0804  1.7387
 3927TIP3    H233197   6.294   2.486  14.542  0.9693  1.7359  2.0503
 3928TIP3   OH233198   5.475   0.933   6.304  0.2255  0.4292  0.5792
 3928TIP3    H133199   5.515   1.015   6.276 -0.5608 -0.0553 -2.2803
 3928TIP3    H233200   5.548   0.881   6.339  0.9815  1.7537  1.0287
 3929TIP3   OH233201   3.105   6.351  14.017  0.2567  0.1050  0.0377
 3929TIP3    H133202   3.177   6.373  13.958 -1.6139 -0.6828 -2.7726
 3929TIP3    H233203   3.039   6.419  14.001 -0.4904 -0.4079  0.8452
 3930TIP3   OH233204   3.340   6.457   1.996  0.4492 -0.2635  0.0395
 3930TIP3    H133205   3.409   6.487   2.055  0.2080  2.0829 -0.8017
 3930TIP3    H233206   3.384   6.443   1.912  0.2477 -0.6680 -0.0024
 3931TIP3   OH233207   2.359   1.895   1.457  0.1451 -0.3664  0.0479
 3931TIP3    H133208   2.309   1.819   1.486  0.0901 -0.3707 -0.0554
 3931TIP3    H233209   2.423   1.911   1.527  0.3296 -0.6680 -0.0489
 3932TIP3   OH233210   3.871   5.139   6.068 -0.0803 -0.2724 -0.0491
 3932TIP3    H133211   3.905   5.055   6.037 -2.2321 -0.3196 -2.5996
 3932TIP3    H233212   3.804   5.116   6.133  1.0727 -0.3568  1.1607
 3933TIP3   OH233213   4.002   0.919  11.254  0.6573  0.4307 -0.0436
 3933TIP3    H133214   4.010   0.841  11.199  2.6218  1.2516 -1.0213
 3933TIP3    H233215   4.006   0.992  11.193 -0.1191  1.3423  0.9575
 3934TIP3   OH233216   3.487   0.402  11.237 -0.5264 -0.3696 -0.2042
 3934TIP3    H133217   3.580   0.389  11.221 -0.6391 -0.0294 -1.2161
 3934TIP3    H233218   3.483   0.470  11.303 -0.0516  1.7485 -2.2304
 3935TIP3   OH233219   5.740   5.085   5.894 -0.0370 -0.1302  0.8152
 3935TIP3    H133220   5.773   5.163   5.850  1.7396 -0.8444  0.8148
 3935TIP3    H233221   5.722   5.114   5.983 -3.4746  1.2777 -0.1514
 3936TIP3   OH233222   6.208   6.593   1.133 -1.0522  0.0104 -0.0761
 3936TIP3    H133223   6.147   6.563   1.065 -1.4976  1.5033 -0.3619
 3936TIP3    H233224   6.292   6.602   1.087 -0.6443 -1.7012  0.2406
 3937TIP3   OH233225   0.572   3.841   3.898 -0.0122  0.2753  0.2261
 3937TIP3    H133226   0.572   3.896   3.976  1.3027  0.6996 -0.0445
 3937TIP3    H233227   0.548   3.901   3.827  0.7942  0.3592  0.0209
 3938TIP3   OH233228   5.287   2.743   1.418 -0.3112 -0.0370 -0.1045
 3938TIP3    H133229   5.234   2.764   1.495 -1.0336 -0.4442 -0.4801
 3938TIP3    H233230   5.255   2.804   1.351  1.3394  1.3621  0.2978
 3939TIP3   OH233231   2.967   2.220   1.201  0.6546 -0.1126 -0.1082
 3939TIP3    H133232   3.014   2.300   1.223 -0.5250  0.5093  0.1973
 3939TIP3    H233233   2.927   2.238   1.116  0.0901 -0.2386  0.1281
 3940TIP3   OH233234   0.750   0.072  13.341  0.1128  0.0813 -0.0104
 3940TIP3    H133235   0.733   0.166  13.352  1.4409  0.5481 -1.5101
 3940TIP3    H233236   0.687   0.044  13.275  1.7575  0.6949 -1.9318
 3941TIP3   OH233237   0.473   3.966  15.113  0.3715  0.0269  0.1529
 3941TIP3    H133238   0.525   3.926  15.043 -1.7454  0.9167 -2.0703
 3941TIP3    H233239   0.412   4.023  15.068  0.2432  2.2870  2.9219
 3942TIP3   OH233240   3.831   4.994   1.203  0.3834  0.4735 -0.5236
 3942TIP3    H133241   3.925   5.012   1.210  0.2699  1.1681 -0.7027
 3942TIP3    H233242   3.820   4.909   1.245  0.7280  1.4610  1.7467
 3943TIP3   OH233243   3.073   0.549  13.476  0.6842 -0.5193  0.7595
 3943TIP3    H133244   3.018   0.543  13.398  0.8848 -2.2411  0.7060
 3943TIP3    H233245   3.146   0.489  13.459  0.5689 -1.1721  2.3832
 3944TIP3   OH233246   5.338   4.209   0.648 -0.0025 -0.6067 -0.0158
 3944TIP3    H133247   5.392   4.138   0.683  1.2880 -0.8430 -2.3108
 3944TIP3    H233248   5.382   4.289   0.675  0.2336 -0.7529  0.0314
 3945TIP3   OH233249   1.343   6.292  13.663 -0.2527  0.1310 -0.4053
 3945TIP3    H133250   1.313   6.236  13.592  0.1608 -0.0621 -0.4304
 3945TIP3    H233251   1.324   6.381  13.633 -1.6671 -0.0076 -0.0145
 3946TIP3   OH233252   2.544   6.120   0.830 -0.0309 -0.6937 -0.1381
 3946TIP3    H133253   2.626   6.073   0.840 -0.4357 -1.2298  0.7944
 3946TIP3    H233254   2.490   6.090   0.903  0.3488  2.5634  1.6837
 3947TIP3   OH233255   0.020   0.444  15.845  0.2074 -0.9968 -0.0167
 3947TIP3    H133256   0.047   0.438  15.936  1.1420 -1.7458 -0.3218
 3947TIP3    H233257  -0.043   0.373  15.833  0.2411 -1.0273 -0.0106
 3948TIP3   OH233258   6.289   1.750   3.302  0.7696 -0.4310 -0.1920
 3948TIP3    H133259   6.383   1.762   3.314  0.4983 -0.3202  2.2149
 3948TIP3    H233260   6.279   1.740   3.207  2.7217  3.4605 -1.0211
 3949TIP3   OH233261   4.858   5.540   0.466 -0.0276 -0.3680 -0.2629
 3949TIP3    H133262   4.777   5.502   0.430  0.7784 -1.2505 -1.2044
 3949TIP3    H233263   4.836   5.560   0.557 -1.7614  0.8268 -0.8843
 3950TIP3   OH233264   0.624   4.647   2.776  0.1115 -0.1978 -0.4358
 3950TIP3    H133265   0.558   4.621   2.713  0.0515 -0.5495 -0.2313
 3950TIP3    H233266   0.650   4.565   2.819  0.4829 -0.0270 -0.3270
 3951TIP3   OH233267   5.669   6.645   6.957  0.4507  0.1248  0.4117
 3951TIP3    H133268   5.710   6.596   6.885  2.0977  2.3663 -0.3018
 3951TIP3    H233269   5.735   6.645   7.026  1.7127  3.4824 -0.6113
 3952TIP3   OH233270   5.072   1.039   3.419  0.2252 -0.1056  0.1455
 3952TIP3    H133271   5.067   0.991   3.501 -1.2184  1.6099  1.1452
 3952TIP3    H233272   4.994   1.012   3.371  0.1639  0.1784  0.0854
 3953TIP3   OH233273   1.581   5.923   4.474 -0.0084  0.5540 -0.4338
 3953TIP3    H133274   1.633   5.934   4.394 -0.2963  0.5930 -0.6181
 3953TIP3    H233275   1.643   5.937   4.545  0.0435  1.5032 -0.6525
 3954TIP3   OH233276   5.054   6.484   2.019  0.3316  0.3419 -0.0905
 3954TIP3    H133277   5.109   6.527   2.085 -1.2486 -0.7075  2.0459
 3954TIP3    H233278   4.970   6.471   2.063 -0.7810 -0.4982 -2.3283
 3955TIP3   OH233279   5.874   5.077  15.066  1.1788  0.2058  1.1809
 3955TIP3    H133280   5.914   5.108  15.147  0.4278  0.7128  1.3682
 3955TIP3    H233281   5.935   5.103  14.997  1.3427  0.6576  1.4914
 3956TIP3   OH233282   0.384   5.186  17.290 -0.6378  0.0962 -0.1278
 3956TIP3    H133283   0.338   5.261  17.253 -1.0231  0.0875  0.3127
 3956TIP3    H233284   0.385   5.203  17.384  0.5858  0.2592 -0.1649
 3957TIP3   OH233285   2.369   6.393   4.258 -0.2453  0.4363 -0.0377
 3957TIP3    H133286   2.341   6.353   4.175  0.4517  0.3056 -0.2177
 3957TIP3    H233287   2.432   6.331   4.294  1.3468  1.6316 -0.6336
 3958TIP3   OH233288   0.568   2.168   5.147 -0.1814  0.0025  0.0856
 3958TIP3    H133289   0.503   2.163   5.217 -1.0242 -0.0371 -0.6929
 3958TIP3    H233290   0.590   2.077   5.128  1.2777  0.0339  1.3972
 3959TIP3   OH233291   6.510   1.724  16.885  0.0119  0.0377 -0.3051
 3959TIP3    H133292   6.517   1.818  16.869  2.0360  0.0382  0.2782
 3959TIP3    H233293   6.507   1.716  16.981 -2.1353 -0.4347 -0.3595
 3960TIP3   OH233294   5.549   2.808   1.522  0.5462  0.2051 -0.1446
 3960TIP3    H133295   5.499   2.871   1.575  0.4906  0.0273  0.0135
 3960TIP3    H233296   5.482   2.756   1.477  0.5743 -0.6471  0.7832
 3961TIP3   OH233297   5.650   5.263  15.331  0.1157 -0.0294 -0.1408
 3961TIP3    H133298   5.689   5.178  15.354 -1.7068 -1.2155 -1.2259
 3961TIP3    H233299   5.556   5.250  15.341 -0.1674  2.3123  0.9708
 3962TIP3   OH233300   1.730   5.876   3.388  0.5370  0.4504 -0.9188
 3962TIP3    H133301   1.673   5.807   3.354 -0.1503  0.6666 -0.2287
 3962TIP3    H233302   1.817   5.854   3.354 -0.2567  1.3203 -3.8711
 3963TIP3   OH233303   4.672   2.635   2.829 -0.1224  0.0706 -0.3808
 3963TIP3    H133304   4.594   2.690   2.815 -1.5878 -1.4460  1.3486
 3963TIP3    H233305   4.664   2.604   2.919  3.4240  1.1989  0.4774
 3964TIP3   OH233306   3.718   0.723   5.556  1.0154  0.2108  0.0529
 3964TIP3    H133307   3.670   0.687   5.631 -1.8741  1.1440 -1.2200
 3964TIP3    H233308   3.764   0.647   5.520  1.2225 -0.5734  1.8270
 3965TIP3   OH233309   4.800   4.598   6.221 -0.0357  0.3706  0.4622
 3965TIP3    H133310   4.770   4.523   6.171  1.4621 -1.4821  2.1798
 3965TIP3    H233311   4.721   4.635   6.260 -1.0989  1.2788 -2.3745
 3966TIP3   OH233312   0.961   2.839  14.876 -0.1443 -0.0805  0.0315
 3966TIP3    H133313   0.934   2.747  14.874  0.3444 -0.2564  0.8188
 3966TIP3    H233314   1.035   2.844  14.815 -1.0198  0.0970 -1.0460
 3967TIP3   OH233315   5.573   0.131  13.858 -0.2019  0.3006 -0.2894
 3967TIP3    H133316   5.492   0.165  13.818  0.4918  1.6935 -0.5531
 3967TIP3    H233317   5.615   0.082  13.788 -0.7848 -0.3987 -0.1638
 3968TIP3   OH233318   0.946   2.093   4.749  0.0605 -0.3749  0.2454
 3968TIP3    H133319   1.030   2.127   4.782  0.3576 -2.5422  1.9491
 3968TIP3    H233320   0.883   2.119   4.816 -0.5561  0.7443 -0.7454
 3969TIP3   OH233321   3.932   0.910   6.288 -0.2699 -1.2493 -0.3381
 3969TIP3    H133322   3.894   0.903   6.200 -0.9310  0.7362 -0.2757
 3969TIP3    H233323   3.899   0.994   6.321  1.5428 -1.0099  1.0372
 3970TIP3   OH233324   0.374   6.225   1.728 -0.7440 -0.2000  0.0674
 3970TIP3    H133325   0.330   6.221   1.643 -2.6452  0.5390  0.9642
 3970TIP3    H233326   0.317   6.280   1.781  1.5991  1.3305  1.1364
 3971TIP3   OH233327   5.839   5.778   5.759  0.0260 -0.2449 -0.1982
 3971TIP3    H133328   5.760   5.831   5.767 -0.0392  0.2967 -3.1319
 3971TIP3    H233329   5.911   5.840   5.770 -0.0508  0.3350 -2.4158
 3972TIP3   OH233330   6.718   3.346  15.710 -0.6669  0.5869 -0.0904
 3972TIP3    H133331   6.783   3.323  15.777  0.3529 -1.0843 -1.5655
 3972TIP3    H233332   6.685   3.432  15.738  3.6458  2.5963 -0.2791
 3973TIP3   OH233333   6.606   4.460  14.803 -0.1898 -0.3336 -0.1044
 3973TIP3    H133334   6.543   4.402  14.760 -0.4224 -0.2107  0.0687
 3973TIP3    H233335   6.632   4.414  14.882  0.0099 -0.4251 -0.2219
 3974TIP3   OH233336   4.767   4.656   1.645 -0.1820 -0.2009 -0.1911
 3974TIP3    H133337   4.852   4.622   1.671 -0.9719 -1.6289  0.5861
 3974TIP3    H233338   4.774   4.751   1.659  0.5633 -0.5220  1.9835
 3975TIP3   OH233339   6.636   1.565   4.869 -0.4945  0.0444 -0.1412
 3975TIP3    H133340   6.650   1.476   4.899 -1.0881  0.1959  0.6067
 3975TIP3    H233341   6.557   1.561   4.815  1.3052 -0.4863 -2.9176
 3976TIP3   OH233342   2.611   1.118   3.317  0.0541 -0.1200 -0.1328
 3976TIP3    H133343   2.631   1.130   3.224 -2.8433 -2.3465 -1.2196
 3976TIP3    H233344   2.644   1.031   3.338  1.1897  0.5852  1.1364
 3977TIP3   OH233345   6.222   4.849   4.128  0.5786 -0.1755 -0.0472
 3977TIP3    H133346   6.217   4.788   4.054  0.1470 -0.2224  0.0191
 3977TIP3    H233347   6.315   4.849   4.152  0.8672  0.3997 -1.0635
 3978TIP3   OH233348   6.258   5.123   3.702 -0.0747 -0.1936 -0.4302
 3978TIP3    H133349   6.313   5.070   3.758 -1.3883  0.5376  1.6566
 3978TIP3    H233350   6.320   5.175   3.650  1.2386  0.4642  1.6816
 3979TIP3   OH233351   1.800   0.848   5.629 -0.0012 -0.4768 -0.0789
 3979TIP3    H133352   1.825   0.940   5.628  0.6735 -0.6467  0.2015
 3979TIP3    H233353   1.722   0.843   5.575  0.4739  0.1142 -0.8321
 3980TIP3   OH233354   2.442   3.496  15.953  0.2459  0.1653  0.4089
 3980TIP3    H133355   2.348   3.509  15.942  0.3156 -0.3196 -0.9402
 3980TIP3    H233356   2.449   3.424  16.016 -0.3005 -0.1408  0.1309
 3981TIP3   OH233357   5.955   2.291  17.346 -0.6698 -0.3615 -0.0153
 3981TIP3    H133358   5.879   2.346  17.327 -1.2994 -1.3052 -0.2906
 3981TIP3    H233359   5.949   2.275  17.441 -0.0980  0.5947  0.1911
 3982TIP3   OH233360   2.821   5.467   5.609 -0.0552 -0.0252 -0.2554
 3982TIP3    H133361   2.792   5.384   5.569 -3.3165  0.3391  1.0124
 3982TIP3    H233362   2.763   5.533   5.572  1.8680  1.6043 -0.5237
 3983TIP3   OH233363   5.966   0.753   1.890 -0.3082 -0.4094 -0.1979
 3983TIP3    H133364   5.935   0.844   1.881  2.4504  0.5122 -1.3917
 3983TIP3    H233365   5.947   0.713   1.805 -0.8435 -0.7641  0.0788
 3984TIP3   OH233366   0.910   0.859   0.156 -0.6050 -0.0977  0.0659
 3984TIP3    H133367   0.847   0.931   0.149  0.5111  1.1696  1.8273
 3984TIP3    H233368   0.993   0.903   0.175  0.1225 -1.8535  1.1926
 3985TIP3   OH233369   4.403   2.338  15.423 -0.5662  0.1198 -0.2102
 3985TIP3    H133370   4.482   2.316  15.374 -0.0311  0.3436  0.5360
 3985TIP3    H233371   4.341   2.267  15.403 -0.5823  0.5172 -1.6798
 3986TIP3   OH233372   6.639   4.902   0.192 -0.3640  0.1628  0.2193
 3986TIP3    H133373   6.562   4.958   0.186 -1.1236 -0.9893 -1.7018
 3986TIP3    H233374   6.687   4.918   0.111 -0.3849 -1.6091 -0.1949
 3987TIP3   OH233375   1.925   1.918   1.975 -0.1798 -0.1479  0.7178
 3987TIP3    H133376   1.994   1.980   1.951  0.1824 -0.9653 -0.4547
 3987TIP3    H233377   1.944   1.894   2.066  0.4719  0.4175  0.7329
 3988TIP3   OH233378   2.493   4.492   5.654 -0.0859 -0.0622 -0.5344
 3988TIP3    H133379   2.462   4.542   5.729  1.1516  1.9334 -1.2844
 3988TIP3    H233380   2.413   4.464   5.609 -0.8751 -1.8203  1.7592
 3989TIP3   OH233381   3.071   1.797   0.498  0.6794  0.3263 -0.6971
 3989TIP3    H133382   3.010   1.869   0.481 -0.5100 -1.1422 -3.2542
 3989TIP3    H233383   3.146   1.839   0.541 -1.5546  2.3926  1.5558
 3990TIP3   OH233384   6.248   4.324   3.919  0.5927 -0.4956  0.4468
 3990TIP3    H133385   6.199   4.242   3.909 -0.2307  0.2264 -2.0032
 3990TIP3    H233386   6.183   4.389   3.944  0.6827  0.0067 -0.5808
 3991TIP3   OH233387   5.876   6.615  15.807 -0.5012  0.1785 -0.7630
 3991TIP3    H133388   5.883   6.628  15.712 -0.2395 -0.3754 -0.8234
 3991TIP3    H233389   5.950   6.558  15.829  0.0084  1.0846 -0.0689
 3992TIP3   OH233390   4.334   0.457   6.761 -0.0435 -0.4030  0.4005
 3992TIP3    H133391   4.288   0.436   6.679 -1.0451  3.3068 -0.1694
 3992TIP3    H233392   4.401   0.520   6.736  0.4093 -0.0805  2.2644
 3993TIP3   OH233393   4.685   0.347  15.599 -0.0131 -0.3479  0.5837
 3993TIP3    H133394   4.613   0.393  15.643  0.4797  0.6924  0.3423
 3993TIP3    H233395   4.764   0.393  15.629  0.3670  0.1700 -1.0861
 3994TIP3   OH233396   2.856   3.794  13.093 -0.2689  0.3067 -0.0378
 3994TIP3    H133397   2.851   3.826  13.183  2.5975  0.7826  0.0465
 3994TIP3    H233398   2.899   3.864  13.044  1.4922 -1.3142 -0.9604
 3995TIP3   OH233399   0.021   3.898  14.848  0.3002 -0.5546 -0.0480
 3995TIP3    H133400  -0.068   3.900  14.812 -0.3079  2.6074  1.3442
 3995TIP3    H233401   0.076   3.927  14.776  0.0348 -1.0902 -0.4769
 3996TIP3   OH233402   2.999   1.038   4.504 -0.1943  0.1466 -0.4330
 3996TIP3    H133403   2.951   0.956   4.518  1.4543 -1.1445 -1.8968
 3996TIP3    H233404   3.038   1.028   4.417  2.2698  1.3199  0.4575
 3997TIP3   OH233405   3.604   6.221   3.971  0.0717  0.6648 -0.1380
 3997TIP3    H133406   3.634   6.226   4.062  0.9577  0.6016 -0.4202
 3997TIP3    H233407   3.532   6.284   3.966  0.9839  1.7512  0.2399
 3998TIP3   OH233408   2.960   2.217   4.036 -0.4799 -0.3364  0.3632
 3998TIP3    H133409   2.871   2.249   4.049 -0.6311 -0.8490  0.6116
 3998TIP3    H233410   2.951   2.121   4.037 -0.3219 -0.4600 -2.1325
 3999TIP3   OH233411   3.936   3.256  16.058  0.4827 -0.6637 -0.4794
 3999TIP3    H133412   3.999   3.301  16.115  0.5681 -0.7778 -0.4813
 3999TIP3    H233413   3.989   3.221  15.986  0.4810 -1.1051 -0.2710
 4000TIP3   OH233414   2.839   2.039  14.984  0.7592 -0.2474 -0.3238
 4000TIP3    H133415   2.793   2.045  14.900  1.0629 -2.0111 -0.6454
 4000TIP3    H233416   2.910   2.104  14.976  1.1875 -0.8423 -1.7127
 4001TIP3   OH233417   4.430   0.951  11.443 -0.6894  0.1795  0.0841
 4001TIP3    H133418   4.423   0.860  11.416  1.2133 -0.0125  0.0664
 4001TIP3    H233419   4.421   1.001  11.362 -0.9712 -0.0381 -0.0205
 4002TIP3   OH233420   1.017   6.125   0.226  0.0749 -0.1645  0.1293
 4002TIP3    H133421   1.104   6.088   0.212  0.9047  1.6678  0.2950
 4002TIP3    H233422   0.977   6.125   0.139  1.8207  2.7664 -0.7677
 4003TIP3   OH233423   0.632   3.834  14.914 -0.3016  0.7778  0.5427
 4003TIP3    H133424   0.634   3.904  14.848 -1.0205  1.1456  0.8909
 4003TIP3    H233425   0.724   3.811  14.927 -0.0993  1.1993 -0.0632
 4004TIP3   OH233426   1.072   4.932   1.042 -0.2354 -0.2882  0.0728
 4004TIP3    H133427   1.062   4.890   1.128  0.1758 -2.6311 -0.9253
 4004TIP3    H233428   1.128   4.872   0.993  1.2103  1.9973 -1.2270
 4005TIP3   OH233429   6.358   1.955   5.061 -0.1236  0.6951 -0.9550
 4005TIP3    H133430   6.291   1.929   4.997  1.2277 -2.8403 -1.1360
 4005TIP3    H233431   6.438   1.911   5.032  1.0260  0.5523  2.0915
 4006TIP3   OH233432   6.166   2.007  14.873  0.2960  0.6982 -0.2501
 4006TIP3    H133433   6.169   1.912  14.862 -1.3946  0.1973  2.7485
 4006TIP3    H233434   6.238   2.027  14.933 -0.0979  1.1431  0.0809
 4007TIP3   OH233435   3.117   5.785   0.874  0.3198 -0.1580  0.2023
 4007TIP3    H133436   3.166   5.703   0.882  0.2940 -0.0937  1.0800
 4007TIP3    H233437   3.125   5.827   0.960 -2.1612 -0.6386  0.7356
 4008TIP3   OH233438   0.116   0.489  12.475 -0.0366  0.2478  0.0356
 4008TIP3    H133439   0.131   0.451  12.561 -0.0680 -0.4130 -0.2466
 4008TIP3    H233440   0.027   0.464  12.452 -0.0875  0.5609 -0.1232
 4009TIP3   OH233441   1.963   0.689   5.431  0.7114  0.2152 -1.0429
 4009TIP3    H133442   1.971   0.595   5.444  0.7579  0.4592  1.0193
 4009TIP3    H233443   1.912   0.719   5.506  0.4078  1.7941 -1.8411
 4010TIP3   OH233444   6.513   1.735  17.163  0.0676  0.2546 -0.6918
 4010TIP3    H133445   6.552   1.661  17.209 -0.3057 -0.9179 -2.2083
 4010TIP3    H233446   6.565   1.811  17.191  1.3571 -0.7776 -0.2017
 4011TIP3   OH233447   0.384   3.456   5.197  0.5660  0.3847  0.1246
 4011TIP3    H133448   0.413   3.468   5.288  0.5737 -1.0349  0.3310
 4011TIP3    H233449   0.441   3.514   5.146  1.2442  0.4462  0.9267
 4012TIP3   OH233450   3.301   1.845  11.298 -0.0241 -0.2348 -0.0956
 4012TIP3    H133451   3.327   1.783  11.230 -0.0587 -0.2293 -0.1141
 4012TIP3    H233452   3.316   1.931  11.260  1.4569 -0.2130  0.4749
 4013TIP3   OH233453   3.856   2.970   5.171 -0.4178  0.3083  0.1642
 4013TIP3    H133454   3.851   3.064   5.152 -1.0635  0.1823 -0.3238
 4013TIP3    H233455   3.766   2.939   5.162 -0.2299 -0.3358  0.4543
 4014TIP3   OH233456   3.140   2.318   1.909  0.1734  0.1966 -0.4668
 4014TIP3    H133457   3.071   2.374   1.874 -1.1435  0.2682  2.0386
 4014TIP3    H233458   3.114   2.229   1.884 -0.5610  0.2677  0.0416
 4015TIP3   OH233459   3.147   4.558  12.413  0.2775 -0.1279  0.9740
 4015TIP3    H133460   3.214   4.573  12.480  0.7767  0.9446  0.2688
 4015TIP3    H233461   3.194   4.522  12.339  0.0075  0.2280  0.6228
 4016TIP3   OH233462   4.015   4.178   4.462 -0.9388 -0.3231  0.1332
 4016TIP3    H133463   3.935   4.134   4.491 -1.0682  0.1024  0.4325
 4016TIP3    H233464   3.993   4.271   4.464 -1.4566 -0.2804 -2.7874
 4017TIP3   OH233465   3.282   2.721  10.686 -0.7904  0.1756  0.0632
 4017TIP3    H133466   3.271   2.809  10.722  0.0324  0.0082  0.7668
 4017TIP3    H233467   3.234   2.722  10.604 -1.9289  0.8676  0.7114
 4018TIP3   OH233468   0.197   0.632   4.613  0.7503  0.7576  0.7027
 4018TIP3    H133469   0.155   0.695   4.553  2.4454  0.8556 -0.4597
 4018TIP3    H233470   0.275   0.677   4.644  0.4087  0.3219  2.2649
 4019TIP3   OH233471   6.181   6.136   4.824 -0.4069 -0.8364 -0.0184
 4019TIP3    H133472   6.217   6.053   4.792  1.6713 -0.3194  0.8264
 4019TIP3    H233473   6.191   6.131   4.919 -2.4509 -0.5539  0.2478
 4020TIP3   OH233474   1.527   1.265  12.757  0.0055 -0.4904 -0.1258
 4020TIP3    H133475   1.568   1.202  12.817  0.9192 -0.9695 -1.2282
 4020TIP3    H233476   1.469   1.212  12.703  1.5243 -0.6147 -1.7354
 4021TIP3   OH233477   5.231   1.099  14.878 -0.2765  0.1297  0.2436
 4021TIP3    H133478   5.185   1.173  14.918 -2.1185 -1.5004  1.3018
 4021TIP3    H233479   5.161   1.044  14.842  1.0132 -1.2858 -0.1908
 4022TIP3   OH233480   6.171   2.888  12.883 -0.0600 -0.3913 -0.1193
 4022TIP3    H133481   6.080   2.911  12.864 -0.3405  0.3591  1.8576
 4022TIP3    H233482   6.167   2.839  12.965  1.1537 -2.2533 -1.1176
 4023TIP3   OH233483   2.987   5.942  11.728 -0.6922  0.0584  0.0794
 4023TIP3    H133484   3.004   6.014  11.667  0.5873  1.2882  1.7679
 4023TIP3    H233485   3.008   5.863  11.679  0.6610  1.0203 -0.9655
 4024TIP3   OH233486   4.450   6.438  14.209 -0.1347  0.0382 -0.3996
 4024TIP3    H133487   4.372   6.418  14.157 -0.8284  0.9070  0.2814
 4024TIP3    H233488   4.417   6.456  14.297  0.6900  1.6432 -0.3799
 4025TIP3   OH233489   2.437   2.331  14.890  0.2853  0.5347 -0.4461
 4025TIP3    H133490   2.462   2.282  14.968 -0.0948 -0.6159 -1.0255
 4025TIP3    H233491   2.362   2.283  14.854 -0.7368  2.0834 -0.5132
 4026TIP3   OH233492   5.842   5.681  12.794  0.4131  0.9518 -0.0220
 4026TIP3    H133493   5.805   5.639  12.872 -0.1283 -1.0861 -1.2850
 4026TIP3    H233494   5.926   5.716  12.823 -0.7388  2.2749  1.9897
 4027TIP3   OH233495   3.305   2.230   4.769 -0.7513  0.5529  0.2041
 4027TIP3    H133496   3.305   2.144   4.810  0.9881  0.3742 -0.0711
 4027TIP3    H233497   3.367   2.282   4.821 -0.4253  1.0833 -0.6851
 4028TIP3   OH233498   6.069   2.825  12.033 -0.0306 -0.0749  0.0593
 4028TIP3    H133499   6.137   2.893  12.034  1.2848 -1.3377 -0.0579
 4028TIP3    H233500   6.025   2.837  11.949 -0.2343  0.9997  0.2963
 4029TIP3   OH233501   0.773   4.317   4.799  0.1023 -0.2983 -0.1441
 4029TIP3    H133502   0.708   4.279   4.858 -0.4401  1.4922  0.4629
 4029TIP3    H233503   0.847   4.339   4.856  0.3362 -0.2590 -0.4589
 4030TIP3   OH233504   3.703   3.816   0.762 -0.4965  0.8892  0.2517
 4030TIP3    H133505   3.648   3.883   0.804 -0.4092  0.4855  1.0329
 4030TIP3    H233506   3.704   3.840   0.670 -1.0343  1.5700  0.4145
 4031TIP3   OH233507   5.675   1.154   4.522  0.1372 -0.1573 -0.2941
 4031TIP3    H133508   5.625   1.125   4.598 -1.9778  2.0498 -0.6929
 4031TIP3    H233509   5.752   1.198   4.559  0.6569 -1.6332  0.4304
 4032TIP3   OH233510   4.125   6.581  14.383  0.0915 -0.0231  0.3389
 4032TIP3    H133511   4.037   6.609  14.410  0.6336  1.0859  1.0021
 4032TIP3    H233512   4.179   6.594  14.460  1.5522  2.6157 -1.0010
 4033TIP3   OH233513   5.991   3.144  15.562 -0.2481 -0.1100 -0.1660
 4033TIP3    H133514   6.068   3.195  15.536 -1.2188  1.6453  0.2449
 4033TIP3    H233515   5.921   3.209  15.570 -1.5215 -1.5109  0.5129
 4034TIP3   OH233516   3.116   3.982  13.709  0.5982  0.4088 -0.0986
 4034TIP3    H133517   3.153   3.960  13.795  2.2674 -0.2409 -0.9268
 4034TIP3    H233518   3.112   4.078  13.709  0.5238  0.4158  0.7251
 4035TIP3   OH233519   6.587   0.614  16.591 -0.5013  0.3260 -0.0812
 4035TIP3    H133520   6.508   0.588  16.542 -0.3132  1.6833 -1.1590
 4035TIP3    H233521   6.553   0.650  16.673 -0.8809 -0.9119  0.3269
 4036TIP3   OH233522   3.493   6.463  12.142 -1.3805  0.4094  0.3546
 4036TIP3    H133523   3.462   6.537  12.193  1.3478  0.5507  2.0147
 4036TIP3    H233524   3.493   6.495  12.051 -2.5011  1.5890  0.7442
 4037TIP3   OH233525   5.883   4.637   4.023  0.0546 -0.2663  0.2373
 4037TIP3    H133526   5.918   4.548   4.036  0.8231 -0.2938 -1.6786
 4037TIP3    H233527   5.921   4.688   4.094 -0.7802 -1.5440  1.6683
 4038TIP3   OH233528   0.205   3.752  13.692 -0.6667 -0.6305 -0.1878
 4038TIP3    H133529   0.259   3.675  13.675  0.4376  0.1519 -0.3317
 4038TIP3    H233530   0.256   3.803  13.755 -1.7691 -0.4041  0.5482
 4039TIP3   OH233531   1.672   4.508  17.077 -0.7751  0.0840  0.3337
 4039TIP3    H133532   1.626   4.473  17.153 -0.5187  2.9959  1.9588
 4039TIP3    H233533   1.759   4.533  17.110 -0.0216 -0.1434 -1.3455
 4040TIP3   OH233534   4.031   2.670  16.607 -0.5376 -0.1408 -0.7534
 4040TIP3    H133535   3.936   2.664  16.600 -0.5433 -1.5513  0.1750
 4040TIP3    H233536   4.053   2.618  16.684  1.0650 -0.4327 -1.3694
 4041TIP3   OH233537   5.939   6.146   5.235  0.1066  0.3485  0.2806
 4041TIP3    H133538   5.877   6.190   5.293 -0.7253  0.1801 -0.4582
 4041TIP3    H233539   5.884   6.093   5.177  0.9860 -0.2906  0.0174
 4042TIP3   OH233540   6.146   3.780  12.684  0.4478  0.1775  0.3568
 4042TIP3    H133541   6.202   3.834  12.629  0.4957 -0.8029 -0.5856
 4042TIP3    H233542   6.166   3.690  12.658  0.6158 -0.3301  2.1111
 4043TIP3   OH233543   4.997   2.486  13.307  0.1476  0.2745  0.4253
 4043TIP3    H133544   5.013   2.403  13.262  0.1343  0.7945 -0.5585
 4043TIP3    H233545   4.935   2.464  13.377  1.0366 -0.7488  0.9060
 4044TIP3   OH233546   6.029   0.560  12.573 -0.3959 -0.1084  0.5743
 4044TIP3    H133547   6.092   0.562  12.501 -0.3180  1.1429  0.6558
 4044TIP3    H233548   6.075   0.515  12.644  0.9977  2.0601  1.1349
 4045TIP3   OH233549   6.361   5.063  15.815 -0.1613  0.4802  0.3939
 4045TIP3    H133550   6.298   5.002  15.776  2.9417 -2.1592 -0.9980
 4045TIP3    H233551   6.375   5.129  15.747 -0.5680  0.4427  0.2689
 4046TIP3   OH233552   2.051   1.409   3.636 -0.7919 -0.4836 -0.3522
 4046TIP3    H133553   2.020   1.472   3.701 -0.0400  1.4840 -1.8089
 4046TIP3    H233554   1.975   1.394   3.579 -1.1573 -1.4262  0.3631
 4047TIP3   OH233555   1.637   1.632   2.517 -0.2286 -0.5712  0.8514
 4047TIP3    H133556   1.551   1.590   2.509  0.1602 -1.4290  1.0915
 4047TIP3    H233557   1.664   1.647   2.426 -1.0379  0.5928  0.7745
 4048TIP3   OH233558   6.335   0.394  17.213 -0.1666  0.4155 -0.5760
 4048TIP3    H133559   6.263   0.450  17.183  0.0542  1.3620  0.5968
 4048TIP3    H233560   6.408   0.454  17.226  0.7162 -0.4677 -1.2785
 4049TIP3   OH233561   4.819   3.194  14.138 -0.0105  0.2645 -0.6434
 4049TIP3    H133562   4.811   3.101  14.117 -2.0617  0.4263 -0.7911
 4049TIP3    H233563   4.839   3.236  14.055 -3.4309  0.3709 -1.5799
 4050TIP3   OH233564   2.175   1.713  15.420 -0.1887 -0.1189  0.1320
 4050TIP3    H133565   2.090   1.699  15.463  0.0907  1.1072  1.1661
 4050TIP3    H233566   2.229   1.753  15.488  0.5446  1.1247 -1.1283
 4051TIP3   OH233567   5.066   2.119   2.473 -0.2264 -0.3495  0.2445
 4051TIP3    H133568   4.997   2.057   2.449  0.3314 -1.3461  1.1457
 4051TIP3    H233569   5.132   2.110   2.404 -1.2712  1.1575 -1.0467
 4052TIP3   OH233570   6.524   3.883   4.722 -0.0245  0.1879  0.3653
 4052TIP3    H133571   6.492   3.795   4.703 -0.1640  0.2322  0.3931
 4052TIP3    H233572   6.585   3.871   4.795 -0.3269  0.1585  0.6217
 4053TIP3   OH233573   6.077   3.959   4.399  0.3939  0.3317  0.0727
 4053TIP3    H133574   6.170   3.939   4.407  0.2649 -1.1574 -1.4939
 4053TIP3    H233575   6.037   3.876   4.373 -1.0310  1.4407 -1.4755
 4054TIP3   OH233576   3.012   1.702  11.922 -0.1103  0.1909  0.3307
 4054TIP3    H133577   2.979   1.637  11.860 -0.1449 -0.3725  0.9313
 4054TIP3    H233578   2.943   1.710  11.987 -0.3454  1.2485 -0.0351
 4055TIP3   OH233579   2.677   0.624   2.707  0.0415  0.1255  0.0532
 4055TIP3    H133580   2.728   0.544   2.719 -0.6174 -0.5153 -1.1808
 4055TIP3    H233581   2.615   0.625   2.780 -0.6169 -1.0424 -0.4544
 4056TIP3   OH233582   3.797   3.047   4.712 -0.1487  0.5419  0.3659
 4056TIP3    H133583   3.780   2.955   4.730  0.4796  0.4504  0.5283
 4056TIP3    H233584   3.875   3.067   4.763  1.7026  0.2874 -2.1505
 4057TIP3   OH233585   5.588   0.894  15.985 -0.5217  0.2960  0.2296
 4057TIP3    H133586   5.571   0.985  15.959 -0.7498  0.3037  0.4025
 4057TIP3    H233587   5.678   0.894  16.017 -0.3012  0.3297 -0.3753
 4058TIP3   OH233588   5.398   1.107  11.461 -0.2330  0.4463  0.0858
 4058TIP3    H133589   5.459   1.174  11.492  1.0213 -1.6314  2.5725
 4058TIP3    H233590   5.402   1.112  11.366  1.7237  2.2112  0.1848
 4059TIP3   OH233591   5.649   3.733  12.874 -0.8024 -0.4395  0.4459
 4059TIP3    H133592   5.744   3.730  12.864 -0.6451 -3.7013  1.6911
 4059TIP3    H233593   5.635   3.775  12.959 -0.8661  3.9630 -1.4698
 4060TIP3   OH233594   2.481   2.443  13.935 -0.1000 -0.1092  0.0623
 4060TIP3    H133595   2.489   2.373  13.871  1.5050  0.5093 -0.4517
 4060TIP3    H233596   2.495   2.523  13.884  0.8510  0.4100  1.1140
 4061TIP3   OH233597   0.190   5.571   5.428 -0.2343  0.4973  0.1734
 4061TIP3    H133598   0.237   5.644   5.387  0.6886 -0.0210  0.2782
 4061TIP3    H233599   0.257   5.506   5.445 -1.2464 -0.9506 -1.1291
 4062TIP3   OH233600   1.488   5.598   2.018 -0.0391  0.0696  0.0703
 4062TIP3    H133601   1.452   5.516   1.985  0.6123 -0.6994  1.2045
 4062TIP3    H233602   1.437   5.618   2.096  1.4951 -0.6964  1.3347
 4063TIP3   OH233603   5.322   4.749  15.260  0.2409 -0.4509  0.2695
 4063TIP3    H133604   5.329   4.674  15.200  0.4760  1.3567 -2.0889
 4063TIP3    H233605   5.402   4.744  15.312  1.6300 -0.3909 -1.7225
 4064TIP3   OH233606   2.483   1.050  15.084 -0.1330 -0.1682  0.4551
 4064TIP3    H133607   2.576   1.044  15.061  0.0943  1.2712  0.8851
 4064TIP3    H233608   2.473   0.993  15.160  0.6798  0.5677  1.1373
 4065TIP3   OH233609   6.512   2.944   1.770 -0.5746 -0.1728  0.2789
 4065TIP3    H133610   6.462   2.866   1.795  1.4018 -2.1373 -1.4992
 4065TIP3    H233611   6.481   2.965   1.682 -1.6922  1.6785  1.0447
 4066TIP3   OH233612   5.497   0.791  15.655  0.2899  0.8113 -0.3602
 4066TIP3    H133613   5.540   0.705  15.650 -1.3143 -0.4006  3.2235
 4066TIP3    H233614   5.569   0.853  15.664  1.4375 -0.4134 -0.7230
 4067TIP3   OH233615   3.728   4.447   0.215 -0.1690 -0.6513 -0.2280
 4067TIP3    H133616   3.736   4.522   0.156 -0.0104  0.5316  1.2194
 4067TIP3    H233617   3.809   4.397   0.202 -0.5037 -0.8834 -1.5813
 4068TIP3   OH233618   5.712   6.756   2.780  0.2396  0.2667  0.4211
 4068TIP3    H133619   5.750   6.843   2.779  4.7551 -1.4580  0.7781
 4068TIP3    H233620   5.702   6.736   2.874 -0.0028  0.1087  0.3624
 4069TIP3   OH233621   5.197   5.281  15.110 -0.1882  0.0751 -0.3799
 4069TIP3    H133622   5.143   5.215  15.067 -0.6883  0.3285 -0.1516
 4069TIP3    H233623   5.137   5.352  15.130  0.2510  0.4053 -0.2062
 4070TIP3   OH233624   4.215   5.084  16.565 -0.3100 -0.0919  0.2774
 4070TIP3    H133625   4.260   5.156  16.521 -1.6031  0.1450 -0.7095
 4070TIP3    H233626   4.179   5.124  16.644 -0.0461  0.0618  0.3221
 4071TIP3   OH233627   3.797   3.547  13.971 -0.1825  0.3987  0.5475
 4071TIP3    H133628   3.748   3.629  13.976 -1.0518 -0.1228  5.3418
 4071TIP3    H233629   3.730   3.480  13.954 -0.3742  0.2233  1.8819
 4072TIP3   OH233630   2.522   0.122  11.765  0.0413 -0.2123 -0.4963
 4072TIP3    H133631   2.575   0.141  11.688  1.5281 -0.3275  0.4570
 4072TIP3    H233632   2.484   0.207  11.790  1.3076  0.2589 -0.1079
 4073TIP3   OH233633   5.873   6.111   0.576 -0.6383 -0.5005  0.0377
 4073TIP3    H133634   5.783   6.109   0.610 -0.8613  1.2831 -0.3118
 4073TIP3    H233635   5.923   6.155   0.645 -0.5216  0.5904 -0.7192
 4074TIP3   OH233636   0.912   5.800   2.310  0.5349 -0.0850  0.2504
 4074TIP3    H133637   0.825   5.786   2.345  0.8297  0.7770  1.3653
 4074TIP3    H233638   0.920   5.894   2.300  0.5570 -0.2719 -1.9563
 4075TIP3   OH233639   3.451   2.100   3.649 -0.2117  0.4924  0.5633
 4075TIP3    H133640   3.541   2.097   3.615 -0.1158 -0.8610  0.9032
 4075TIP3    H233641   3.398   2.062   3.579 -0.6702  2.0066  0.0257
 4076TIP3   OH233642   5.309   3.071   6.004  0.2049 -0.4052 -0.6697
 4076TIP3    H133643   5.220   3.039   6.016  0.4219 -0.9964 -0.6368
 4076TIP3    H233644   5.363   3.012   6.056  0.2561  2.2669  2.6406
 4077TIP3   OH233645   5.039   0.178  12.239  0.1778  0.0070  0.5346
 4077TIP3    H133646   5.005   0.211  12.322  0.8163  1.2277  0.3432
 4077TIP3    H233647   5.069   0.090  12.258 -0.9121 -0.2312  1.2632
 4078TIP3   OH233648   3.858   2.510  11.269  0.4664 -0.5911  0.1803
 4078TIP3    H133649   3.842   2.525  11.175 -0.0116 -0.2100  0.3214
 4078TIP3    H233650   3.930   2.568  11.291  1.1620 -1.3107 -0.1430
 4079TIP3   OH233651   1.404   6.212  14.621  0.2322  0.7863 -0.4013
 4079TIP3    H133652   1.387   6.148  14.551  0.6766  2.2969 -1.9491
 4079TIP3    H233653   1.410   6.296  14.575  0.3759  1.8501  1.4982
 4080TIP3   OH233654   3.802   4.399   4.782  0.0607 -0.3318 -0.5146
 4080TIP3    H133655   3.728   4.343   4.805  0.4376 -0.9559 -0.8186
 4080TIP3    H233656   3.761   4.478   4.745 -0.4267 -1.1420 -1.7396
 4081TIP3   OH233657   4.351   5.823   5.553 -0.5914 -0.3929 -0.0695
 4081TIP3    H133658   4.335   5.896   5.493  1.4492  1.4288  1.4505
 4081TIP3    H233659   4.273   5.821   5.609 -0.4841  0.9690  0.1692
 4082TIP3   OH233660   1.207   0.909   0.678  0.2728 -0.2368  0.1641
 4082TIP3    H133661   1.214   0.868   0.765 -0.3653  0.4371  0.5405
 4082TIP3    H233662   1.113   0.912   0.661  0.4255 -1.2667 -1.0008
 4083TIP3   OH233663   2.625   4.518  16.034  0.1244  0.4606  0.0723
 4083TIP3    H133664   2.706   4.467  16.030  0.5314  1.1488 -1.7132
 4083TIP3    H233665   2.655   4.609  16.030 -0.6364  0.8531  2.0992
 4084TIP3   OH233666   1.635   1.630   1.935 -0.7876  0.1028  0.2314
 4084TIP3    H133667   1.705   1.682   1.897 -1.6067  2.7123  1.9991
 4084TIP3    H233668   1.567   1.694   1.957 -1.7393 -1.6506  2.8981
 4085TIP3   OH233669   6.276   3.204  11.680  0.5023  0.0093  0.2055
 4085TIP3    H133670   6.294   3.172  11.591  1.1940 -0.6887  0.5822
 4085TIP3    H233671   6.194   3.162  11.704 -0.0315  0.7196 -0.3459
 4086TIP3   OH233672   5.215   2.325  12.855 -0.2570 -0.2017  0.1884
 4086TIP3    H133673   5.181   2.246  12.896 -0.6130 -1.0014 -1.5443
 4086TIP3    H233674   5.158   2.339  12.779  0.1125  1.4399  0.1759
 4087TIP3   OH233675   0.847   5.272   1.207 -0.1112  0.0313  0.1941
 4087TIP3    H133676   0.769   5.260   1.261  0.7684  1.0040  1.8002
 4087TIP3    H233677   0.854   5.192   1.155 -0.6584 -1.2981  2.0469
 4088TIP3   OH233678   2.889   0.819   2.922 -0.2833 -1.1845 -0.3213
 4088TIP3    H133679   2.966   0.874   2.937 -0.7269 -0.8105  0.6780
 4088TIP3    H233680   2.925   0.733   2.900  0.4400 -1.2662  1.0804
 4089TIP3   OH233681   1.062   4.287  17.235  0.0024  0.1168 -0.6425
 4089TIP3    H133682   1.146   4.279  17.189 -0.0380  0.3882 -0.7711
 4089TIP3    H233683   1.071   4.231  17.312  0.8561  1.3003  0.1448
 4090TIP3   OH233684   6.275   4.471  16.202  0.4903 -0.2913  0.2801
 4090TIP3    H133685   6.246   4.555  16.238  1.0124 -0.4893  1.2009
 4090TIP3    H233686   6.195   4.430  16.168 -0.1981 -0.5020  2.0784
 4091TIP3   OH233687   1.341   2.894  13.208 -0.4827  0.1088  0.0797
 4091TIP3    H133688   1.413   2.870  13.267 -0.8831  0.2589  0.6354
 4091TIP3    H233689   1.377   2.965  13.154 -0.7176  1.3738  1.4980
 4092TIP3   OH233690   4.435   2.707   6.424 -0.5252 -0.1325  0.4529
 4092TIP3    H133691   4.359   2.656   6.398  0.5168 -1.4977 -0.0519
 4092TIP3    H233692   4.423   2.724   6.518 -1.3919 -0.4058  0.3923
 4093TIP3   OH233693   0.763   3.133  17.337  0.6947 -0.1642 -0.4362
 4093TIP3    H133694   0.790   3.168  17.422  3.0271 -0.6792 -0.8792
 4093TIP3    H233695   0.690   3.075  17.357  0.4117  0.6539  1.0505
 4094TIP3   OH233696   6.323   5.179   2.257 -0.1775  0.0860  0.2913
 4094TIP3    H133697   6.325   5.106   2.318  0.6306  0.6712  0.9972
 4094TIP3    H233698   6.410   5.219   2.265 -0.0514  0.1716 -1.2550
 4095TIP3   OH233699   4.478   5.332  14.100  0.2263 -0.3298 -0.0373
 4095TIP3    H133700   4.523   5.384  14.033  0.4690  1.7410  1.6503
 4095TIP3    H233701   4.385   5.338  14.076  0.3506 -0.0684 -0.4738
 4096TIP3   OH233702   1.644   4.237   4.605 -0.2606  0.3038 -0.1098
 4096TIP3    H133703   1.639   4.246   4.700  0.7225 -0.7003  0.0571
 4096TIP3    H233704   1.712   4.298   4.578 -0.2519  0.2888 -0.1224
 4097TIP3   OH233705   2.845   4.628  15.524 -0.4994  0.4777  0.1364
 4097TIP3    H133706   2.825   4.692  15.456  1.5802 -0.8615 -1.8980
 4097TIP3    H233707   2.940   4.634  15.536 -0.5106 -0.9019  1.2390
 4098TIP3   OH233708   2.610   4.247   2.360  0.1036 -0.1975 -0.0356
 4098TIP3    H133709   2.536   4.295   2.323  0.2900 -0.3214 -0.5734
 4098TIP3    H233710   2.662   4.314   2.405  0.2356  0.0740 -0.5815
 4099TIP3   OH233711   1.978   4.297  11.068  0.1109 -0.8272 -0.4123
 4099TIP3    H133712   2.058   4.321  11.115 -0.0036 -1.2550  0.0084
 4099TIP3    H233713   1.920   4.263  11.136 -0.8775  0.5605 -0.5001
 4100TIP3   OH233714   5.056   0.704   0.601 -0.3410  0.3857  0.0362
 4100TIP3    H133715   5.141   0.717   0.643 -0.0830 -1.0857  0.0215
 4100TIP3    H233716   4.999   0.769   0.642  0.8978  1.7475 -0.3340
 4101TIP3   OH233717   2.078   1.339  13.989  0.5764  0.2850 -0.4115
 4101TIP3    H133718   2.080   1.291  14.071  0.5461  1.3377  0.2203
 4101TIP3    H233719   2.152   1.306  13.939 -1.0197 -2.4405 -1.1926
 4102TIP3   OH233720   4.653   1.826  13.109 -0.2758 -0.1377  0.4765
 4102TIP3    H133721   4.596   1.894  13.072 -1.6434 -0.8067  1.2750
 4102TIP3    H233722   4.653   1.756  13.044  2.6333  1.2787 -1.2247
 4103TIP3   OH233723   2.490   5.573   1.454 -0.1164 -0.2459  0.3544
 4103TIP3    H133724   2.500   5.485   1.418 -0.5722 -1.4429  2.9387
 4103TIP3    H233725   2.441   5.621   1.387 -1.6903 -2.5690 -0.2761
 4104TIP3   OH233726   0.710   2.508   1.723 -0.6060 -0.3037 -0.0201
 4104TIP3    H133727   0.798   2.528   1.691 -1.3479 -2.4676 -3.9196
 4104TIP3    H233728   0.725   2.474   1.812  2.0894  1.9861  0.5627
 4105TIP3   OH233729   3.997   4.867   3.129  0.0240  0.2521 -0.3213
 4105TIP3    H133730   4.081   4.848   3.170  0.0754 -0.8890 -0.8916
 4105TIP3    H233731   3.997   4.962   3.116  0.9584  0.3399  0.2423
 4106TIP3   OH233732   1.642   1.095  15.182  0.2060  0.3034  0.3016
 4106TIP3    H133733   1.725   1.050  15.199  0.8107  1.5046  0.6404
 4106TIP3    H233734   1.615   1.065  15.095  0.6777 -0.5580  0.4460
 4107TIP3   OH233735   2.294   5.030   3.322  0.0162 -0.2786 -0.2613
 4107TIP3    H133736   2.369   5.037   3.263  0.0288 -1.6284 -0.4269
 4107TIP3    H233737   2.242   5.108   3.304  1.4534  0.7762 -0.0209
 4108TIP3   OH233738   3.078   2.346  11.540 -0.1360  0.4733  0.0240
 4108TIP3    H133739   3.153   2.390  11.577 -0.4450  0.1220  1.0970
 4108TIP3    H233740   3.109   2.312  11.456  0.0301  2.9266 -0.9925
 4109TIP3   OH233741   4.318   3.169   0.548 -0.1067  0.3128  0.6083
 4109TIP3    H133742   4.350   3.224   0.476  3.3348 -0.2300  1.5278
 4109TIP3    H233743   4.288   3.231   0.614  1.0534  1.0305  0.4968
 4110TIP3   OH233744   6.695   6.051  13.637  0.3240  0.4464 -0.0708
 4110TIP3    H133745   6.647   6.093  13.708  2.8191  2.0337  0.8025
 4110TIP3    H233746   6.739   5.977  13.678  1.3441  1.0555 -0.0126
 4111TIP3   OH233747   2.268   2.213   0.687 -0.3714 -0.0067  0.1450
 4111TIP3    H133748   2.338   2.158   0.720 -1.3762 -0.7416  1.1322
 4111TIP3    H233749   2.225   2.247   0.765 -0.2546  1.5857 -0.4476
 4112TIP3   OH233750   6.497   1.147  13.971  0.2664  0.1175 -0.0136
 4112TIP3    H133751   6.483   1.241  13.970  1.0089  0.2341 -1.0274
 4112TIP3    H233752   6.417   1.111  14.009 -0.5745  1.0719 -0.8236
 4113TIP3   OH233753   3.274   3.825  11.472 -0.1282  0.0633  0.3177
 4113TIP3    H133754   3.226   3.796  11.395 -0.9384  0.1582  0.7752
 4113TIP3    H233755   3.327   3.750  11.497 -0.3226 -0.1745  0.0295
 4114TIP3   OH233756   0.881   5.276   4.925  0.3444  0.7056 -0.7273
 4114TIP3    H133757   0.788   5.251   4.928  0.5921 -0.1384  0.9753
 4114TIP3    H233758   0.880   5.371   4.919 -0.6817  0.9083  1.6403
 4115TIP3   OH233759   3.847   3.476  11.237  0.0773 -0.4455  1.0960
 4115TIP3    H133760   3.821   3.517  11.319 -0.8262  0.1351  0.5301
 4115TIP3    H233761   3.767   3.470  11.186  0.4399 -1.6908  0.6203
 4116TIP3   OH233762   3.332   2.351   3.668 -0.1334  0.0757  0.5006
 4116TIP3    H133763   3.374   2.265   3.665 -1.6364 -0.6942  0.3965
 4116TIP3    H233764   3.239   2.332   3.658 -0.3498  1.8756 -1.5464
 4117TIP3   OH233765   6.032   4.204   3.066 -0.6861  0.2109 -0.3046
 4117TIP3    H133766   6.106   4.205   3.005 -2.1792 -0.1790 -2.2309
 4117TIP3    H233767   5.971   4.141   3.029 -2.0418  0.5748  1.1861
 4118TIP3   OH233768   1.125   2.666   0.727  0.1339 -0.0762 -0.3895
 4118TIP3    H133769   1.039   2.634   0.699  0.0301 -0.8836  0.7906
 4118TIP3    H233770   1.144   2.616   0.807  2.1080 -0.5726 -1.1260
 4119TIP3   OH233771   0.137   6.750   4.979  0.1250  0.6750 -0.1250
 4119TIP3    H133772   0.147   6.673   4.923  1.7609  0.6383  0.1839
 4119TIP3    H233773   0.154   6.824   4.921 -1.3677  0.8407 -0.4028
 4120TIP3   OH233774   5.561   5.847  13.068 -0.2567 -0.4773  0.0821
 4120TIP3    H133775   5.470   5.876  13.060 -0.3459 -0.2071  1.7304
 4120TIP3    H233776   5.581   5.856  13.161  1.8343  0.5793 -0.4135
 4121TIP3   OH233777   2.526   4.693  15.360 -0.3850  0.4644  0.0379
 4121TIP3    H133778   2.526   4.660  15.450  1.2492 -2.7328 -0.9698
 4121TIP3    H233779   2.612   4.734  15.350 -0.4858  0.6386 -0.1233
 4122TIP3   OH233780   1.065   3.906  11.974 -0.4311 -0.1441 -0.1171
 4122TIP3    H133781   1.025   3.936  12.055  0.0160  0.1869 -0.0104
 4122TIP3    H233782   1.142   3.963  11.963 -0.7203  0.1028 -0.9923
 4123TIP3   OH233783   2.182   4.664  16.110  0.0795 -0.2313  1.0486
 4123TIP3    H133784   2.092   4.654  16.079  0.1879 -1.0062  0.9483
 4123TIP3    H233785   2.230   4.698  16.035  0.3867 -2.3098  0.2335
 4124TIP3   OH233786   1.786   5.917  10.612  0.3061 -0.3358  0.1532
 4124TIP3    H133787   1.733   5.859  10.666 -1.1548  0.6276 -0.2052
 4124TIP3    H233788   1.825   5.978  10.675 -0.7308  0.2656  0.2403
 4125TIP3   OH233789   0.079   3.402   4.583 -0.5137 -0.4822  0.9857
 4125TIP3    H133790   0.133   3.369   4.655 -2.2709 -2.9325  1.2891
 4125TIP3    H233791   0.048   3.324   4.539 -0.8677  0.9371 -1.4497
 4126TIP3   OH233792   2.500   0.333   1.922  0.0987  0.4464  0.1404
 4126TIP3    H133793   2.568   0.372   1.868  0.0772  1.6675  0.9436
 4126TIP3    H233794   2.480   0.250   1.880  1.6610  0.3293 -0.4421
 4127TIP3   OH233795   3.616   5.282   0.799 -0.0881 -0.2723  0.0050
 4127TIP3    H133796   3.590   5.192   0.821 -0.8752  0.1476  0.8291
 4127TIP3    H233797   3.593   5.334   0.875  2.3067  0.3280  0.4013
 4128TIP3   OH233798   1.400   5.996   0.451 -0.0768  0.1141 -0.4575
 4128TIP3    H133799   1.365   6.076   0.489 -1.1700 -0.5886  0.0710
 4128TIP3    H233800   1.355   5.925   0.499  1.8978 -0.8344  0.0886
 4129TIP3   OH233801   1.217   6.221  12.739  0.0824 -0.5746  0.1544
 4129TIP3    H133802   1.195   6.243  12.830  0.3774  0.5946 -0.0383
 4129TIP3    H233803   1.135   6.233  12.692 -0.1163 -1.3622  0.2854
 4130TIP3   OH233804   1.332   6.542   3.061  0.1876 -0.2659  0.0364
 4130TIP3    H133805   1.269   6.574   2.997 -1.4105  1.4167  2.2845
 4130TIP3    H233806   1.285   6.474   3.110  1.6287 -2.0658 -0.9379
 4131TIP3   OH233807   0.470   0.455   4.711 -0.1772 -0.4627 -0.1750
 4131TIP3    H133808   0.473   0.538   4.664  2.0677 -0.5636 -0.2978
 4131TIP3    H233809   0.515   0.473   4.794 -0.9737 -1.1954  0.4348
 4132TIP3   OH233810   4.653   4.019   4.121 -0.5087 -0.3102 -0.3976
 4132TIP3    H133811   4.693   3.932   4.110 -0.4201 -0.2390 -0.6409
 4132TIP3    H233812   4.698   4.056   4.197 -1.9052 -1.2477  0.9326
 4133TIP3   OH233813   1.084   1.895  16.193 -0.3020  0.0795  0.1616
 4133TIP3    H133814   1.058   1.858  16.108  1.8652  1.2349 -1.1122
 4133TIP3    H233815   1.017   1.865  16.254 -2.1595 -0.4998 -2.0145
 4134TIP3   OH233816   0.806   2.483   2.011 -0.1281 -0.3131 -0.3569
 4134TIP3    H133817   0.893   2.520   2.023 -0.6969  1.0906 -0.3185
 4134TIP3    H233818   0.798   2.416   2.079  0.9926 -0.6410 -0.5243
 4135TIP3   OH233819   4.990   0.096  16.987 -0.8325  0.6895  0.0992
 4135TIP3    H133820   5.069   0.048  17.012 -0.3813  0.6919 -1.2335
 4135TIP3    H233821   4.922   0.066  17.048 -0.6292 -1.8464 -0.8350
 4136TIP3   OH233822   3.085   6.113   2.885  0.1771  0.1816  0.3631
 4136TIP3    H133823   2.995   6.081   2.887 -0.4821  1.8146 -0.6927
 4136TIP3    H233824   3.112   6.112   2.977 -0.1153 -2.3198  0.4931
 4137TIP3   OH233825   1.018   6.374  14.839 -0.9064 -0.0201 -0.1404
 4137TIP3    H133826   1.071   6.371  14.760 -2.0625  1.3377 -1.0236
 4137TIP3    H233827   1.039   6.293  14.886 -0.0055 -0.7326 -1.7057
 4138TIP3   OH233828   0.194   1.586   2.298 -0.3512  0.5875 -0.8460
 4138TIP3    H133829   0.242   1.578   2.215  0.7737  0.3743 -0.2003
 4138TIP3    H233830   0.189   1.496   2.332 -1.3811  0.5819 -0.9801
 4139TIP3   OH233831   0.995   1.123   5.907 -0.4482 -0.6298 -0.0997
 4139TIP3    H133832   1.061   1.183   5.941 -0.4212 -0.5620 -0.2675
 4139TIP3    H233833   0.921   1.131   5.966 -0.5094 -0.3065 -0.2204
 4140TIP3   OH233834   3.115   4.800   2.414  0.1583  0.0336 -0.1338
 4140TIP3    H133835   3.131   4.707   2.394  2.4700  0.3369 -0.0339
 4140TIP3    H233836   3.170   4.817   2.491 -0.6401  1.3810  0.1630
 4141TIP3   OH233837   2.365   2.586   1.330 -0.0671  0.4705  0.2195
 4141TIP3    H133838   2.394   2.597   1.239  2.7748 -1.4814  0.7325
 4141TIP3    H233839   2.390   2.668   1.373 -0.3270  0.9390 -0.5083
 4142TIP3   OH233840   6.184   3.388  13.906 -0.2935 -0.2859 -0.2860
 4142TIP3    H133841   6.268   3.347  13.928 -0.5079 -0.9225 -0.6381
 4142TIP3    H233842   6.125   3.358  13.975 -0.1173  0.5809  0.2583
 4143TIP3   OH233843   2.459   1.277   6.029  0.2620  0.2468 -0.2206
 4143TIP3    H133844   2.415   1.332   5.964  0.4099 -0.2884 -0.7715
 4143TIP3    H233845   2.552   1.280   6.005  0.3066 -0.0236 -0.0852
 4144TIP3   OH233846   2.202   6.134   5.126 -0.4535  0.2228  0.4583
 4144TIP3    H133847   2.252   6.157   5.204  0.3788 -0.8652  0.2702
 4144TIP3    H233848   2.166   6.217   5.096 -0.8568  0.6505  2.0288
 4145TIP3   OH233849   1.225   6.306   3.773 -0.2338  0.3325  0.5181
 4145TIP3    H133850   1.176   6.381   3.740 -0.0549  0.0402 -0.4752
 4145TIP3    H233851   1.182   6.230   3.733 -0.3794 -0.0951  1.4617
 4146TIP3   OH233852   2.284   4.887   3.569  0.2472 -0.5720 -0.3639
 4146TIP3    H133853   2.288   4.804   3.523 -1.8319 -1.0396  0.2009
 4146TIP3    H233854   2.296   4.954   3.501  2.7214 -1.2743 -0.7138
 4147TIP3   OH233855   0.033   4.158  15.126 -0.4680 -0.7229  0.0149
 4147TIP3    H133856   0.013   4.244  15.090 -1.2803 -0.7712  0.3371
 4147TIP3    H233857   0.092   4.118  15.062 -0.0877  0.0610 -0.1416
 4148TIP3   OH233858   4.772   2.947  16.684 -0.3718 -0.3716 -0.0570
 4148TIP3    H133859   4.739   3.036  16.693 -0.5692 -0.4601  0.0999
 4148TIP3    H233860   4.798   2.940  16.592  0.5516  0.1543  0.1546
 4149TIP3   OH233861   0.110   6.374  16.187 -0.0531  0.1649  0.1986
 4149TIP3    H133862   0.115   6.462  16.150  2.6838 -0.8243 -2.2153
 4149TIP3    H233863   0.134   6.385  16.279  1.7101  1.8275 -0.3856
 4150TIP3   OH233864   5.591   0.411  13.039  0.2210 -0.7163 -0.2534
 4150TIP3    H133865   5.581   0.319  13.013  0.6111 -0.0877 -2.9983
 4150TIP3    H233866   5.683   0.419  13.063  0.4372 -0.8713 -0.9841
 4151TIP3   OH233867   3.582   2.793  12.633  0.0761 -0.6723  0.2942
 4151TIP3    H133868   3.668   2.827  12.657  0.3937 -1.7111  0.6915
 4151TIP3    H233869   3.595   2.699  12.625 -0.9849 -0.8226  0.1817
 4152TIP3   OH233870   1.428   4.391   2.575  0.0081 -0.6329  0.1345
 4152TIP3    H133871   1.353   4.433   2.533  1.3113 -0.4876 -2.2679
 4152TIP3    H233872   1.426   4.300   2.543  1.1368 -0.4816 -0.4352
 4153TIP3   OH233873   2.752   5.334  16.203  0.2417 -0.3536  0.4583
 4153TIP3    H133874   2.782   5.416  16.244  0.1981  0.0572 -0.3058
 4153TIP3    H233875   2.661   5.353  16.177  0.8175  0.0320 -1.4230
 4154TIP3   OH233876   3.174   5.492   3.166 -0.4447  0.0981  0.5800
 4154TIP3    H133877   3.151   5.400   3.150 -2.4309  0.1362  2.7155
 4154TIP3    H233878   3.119   5.541   3.105 -1.1199 -0.0685  1.0439
 4155TIP3   OH233879   6.654   1.911  13.568 -0.5726 -0.5668  0.2151
 4155TIP3    H133880   6.630   1.847  13.501 -1.7954 -1.5327  1.5089
 4155TIP3    H233881   6.734   1.875  13.608 -0.4382 -0.5223 -0.0084
 4156TIP3   OH233882   6.350   5.320   4.451  0.1128 -0.4451  0.2489
 4156TIP3    H133883   6.411   5.312   4.377 -1.3932  1.5165 -1.3215
 4156TIP3    H233884   6.300   5.238   4.449  1.8175 -1.5469  0.7958
 4157TIP3   OH233885   2.706   1.801  16.689  0.2056 -0.0240 -0.3764
 4157TIP3    H133886   2.732   1.828  16.601 -0.4308 -0.4534 -0.7121
 4157TIP3    H233887   2.765   1.848  16.748 -0.9052  2.1728 -0.9113
 4158TIP3   OH233888   6.110   4.880  15.031  0.3695  0.4763 -0.1439
 4158TIP3    H133889   6.061   4.799  15.046 -1.6740  1.5579 -0.5084
 4158TIP3    H233890   6.133   4.910  15.119 -1.9643  1.2185  0.3066
 4159TIP3   OH233891   6.413   0.408  11.438 -0.0914 -0.0962 -0.1235
 4159TIP3    H133892   6.466   0.367  11.507 -0.2770 -0.7073 -0.3428
 4159TIP3    H233893   6.477   0.453  11.382  0.1040 -0.0167  0.1606
 4160TIP3   OH233894   4.587   0.551   4.880 -0.2691  0.2184  0.2917
 4160TIP3    H133895   4.664   0.603   4.903 -0.2112 -0.6072  2.2471
 4160TIP3    H233896   4.593   0.539   4.785  0.4972  2.4701 -0.0004
 4161TIP3   OH233897   5.664   4.532   5.468  0.4657 -0.0199  0.1523
 4161TIP3    H133898   5.598   4.493   5.410 -0.5822 -0.9457  1.8843
 4161TIP3    H233899   5.711   4.457   5.504  0.2601  0.4455  1.4375
 4162TIP3   OH233900   1.131   3.874   0.603 -0.0648  0.3985 -0.0338
 4162TIP3    H133901   1.197   3.866   0.672  0.1362 -0.3314 -0.2976
 4162TIP3    H233902   1.182   3.870   0.522 -0.2138  2.0520 -0.2401
 4163TIP3   OH233903   4.556   2.830  17.368  0.6177 -0.5769 -0.0487
 4163TIP3    H133904   4.484   2.769  17.352  0.0588 -0.2354  1.0613
 4163TIP3    H233905   4.635   2.776  17.362  0.3286 -0.8670 -1.7268
 4164TIP3   OH233906   6.504   6.642  11.853  0.0058 -0.6560 -0.1583
 4164TIP3    H133907   6.571   6.595  11.902  0.0300 -0.9454 -0.4610
 4164TIP3    H233908   6.506   6.732  11.887 -1.2314 -1.2671  1.6491
 4165TIP3   OH233909   2.169   5.783  16.420  0.1172 -0.5288 -0.2558
 4165TIP3    H133910   2.247   5.839  16.417  0.0314 -0.4207 -0.4515
 4165TIP3    H233911   2.201   5.700  16.456  0.5285 -0.8287 -1.2897
 4166TIP3   OH233912   3.431   1.214   4.227 -0.1206 -0.1617 -0.2998
 4166TIP3    H133913   3.462   1.256   4.147  0.1556  2.3468  1.0195
 4166TIP3    H233914   3.350   1.260   4.248 -1.1918 -2.0425 -0.0595
 4167TIP3   OH233915   3.183   2.485  17.337  0.2259  0.1274  0.1272
 4167TIP3    H133916   3.096   2.491  17.377 -0.6841 -0.0414 -1.7053
 4167TIP3    H233917   3.191   2.394  17.310 -0.3868  0.7314 -2.4341
 4168TIP3   OH233918   2.353   4.817  15.941  0.9781  0.2997 -0.5354
 4168TIP3    H133919   2.373   4.745  15.882  1.2987 -0.2967  0.2708
 4168TIP3    H233920   2.427   4.877  15.932  1.1856  0.0509 -0.5038
 4169TIP3   OH233921   4.094   6.281  14.398  0.3435  0.5390 -0.3715
 4169TIP3    H133922   4.130   6.324  14.320  2.4185  0.3326  0.4134
 4169TIP3    H233923   4.163   6.289  14.463 -0.5106 -1.1789  0.8021
 4170TIP3   OH233924   3.302   2.318   2.826 -0.4739  0.1057  0.0821
 4170TIP3    H133925   3.359   2.372   2.881  0.0589 -1.2380  0.8998
 4170TIP3    H233926   3.319   2.229   2.855 -1.9788 -0.4386 -0.6337
 4171TIP3   OH233927   5.439   1.818   2.455  0.0309  0.3774  0.0053
 4171TIP3    H133928   5.393   1.734   2.466  2.6929 -1.1190  0.6611
 4171TIP3    H233929   5.398   1.858   2.379 -3.4699  0.0611  1.5111
 4172TIP3   OH233930   6.422   6.344  17.070 -1.1417  0.3244 -0.3694
 4172TIP3    H133931   6.481   6.298  17.010 -0.7709 -3.1583  2.3272
 4172TIP3    H233932   6.480   6.405  17.117 -0.1751 -1.1564  0.4289
 4173TIP3   OH233933   6.336   6.495  11.365 -0.5535  0.3575 -0.2569
 4173TIP3    H133934   6.303   6.582  11.342  1.9270  1.5783  0.3550
 4173TIP3    H233935   6.370   6.460  11.283  1.8883  1.6985  0.0605
 4174TIP3   OH233936   5.089   2.534   2.213 -0.5637  0.5007  0.1029
 4174TIP3    H133937   5.042   2.566   2.136 -1.0914  2.4412  1.1604
 4174TIP3    H233938   5.023   2.486   2.264 -0.2334 -0.7160 -0.5620
 4175TIP3   OH233939   6.381   0.638  10.984  0.6669  0.1360 -0.0002
 4175TIP3    H133940   6.365   0.560  10.930 -1.7082  1.9252 -2.1311
 4175TIP3    H233941   6.296   0.656  11.025  0.8370  2.1950 -0.4555
 4176TIP3   OH233942   3.705   5.911  11.093 -0.0342  0.3383 -0.4230
 4176TIP3    H133943   3.783   5.939  11.141 -0.6118  1.0885  0.1117
 4176TIP3    H233944   3.643   5.984  11.103 -0.3318  0.3283 -1.9557
 4177TIP3   OH233945   1.691   3.387  12.061  0.2709  0.9113 -0.0155
 4177TIP3    H133946   1.783   3.363  12.074  0.2045  0.5628 -0.1849
 4177TIP3    H233947   1.692   3.482  12.059  0.8848  0.9104 -1.8185
 4178TIP3   OH233948   4.217   2.982  17.333 -0.0629 -0.7341 -0.7557
 4178TIP3    H133949   4.136   2.948  17.295 -0.1695 -0.7880 -0.4857
 4178TIP3    H233950   4.286   2.950  17.275 -0.1852 -1.1847 -0.6560
 4179TIP3   OH233951   2.555   6.106  13.967  0.2299  0.3649  0.4551
 4179TIP3    H133952   2.569   6.121  13.874  1.4997  2.7478  0.9762
 4179TIP3    H233953   2.642   6.090  14.003 -0.1669  0.1677  1.3654
 4180TIP3   OH233954   5.705   1.762  14.477  0.0519  0.7081  0.0856
 4180TIP3    H133955   5.766   1.775  14.550  0.1755 -0.9016  0.3136
 4180TIP3    H233956   5.761   1.750  14.401 -0.0773  2.3470 -0.2896
 4181TIP3   OH233957   3.094   4.560  11.885 -0.2946 -0.0154  0.0424
 4181TIP3    H133958   3.022   4.568  11.821  0.3520  1.0070 -0.5872
 4181TIP3    H233959   3.065   4.491  11.944 -2.5113  1.3820  0.7247
 4182TIP3   OH233960   6.097   2.745  16.359  0.1714 -0.0615  0.1845
 4182TIP3    H133961   6.042   2.805  16.408  0.1890 -0.7698  1.1198
 4182TIP3    H233962   6.075   2.759  16.268  0.4524  1.6175  0.3539
 4183TIP3   OH233963   6.343   2.276   2.260 -0.4210  0.3602  0.5775
 4183TIP3    H133964   6.329   2.255   2.352  1.0735  0.9037  0.9484
 4183TIP3    H233965   6.264   2.245   2.216 -1.1392  0.0655  2.0321
 4184TIP3   OH233966   4.447   3.899   4.241  0.0749  0.3560  0.0200
 4184TIP3    H133967   4.380   3.958   4.276  0.6439  0.5318  0.8445
 4184TIP3    H233968   4.508   3.956   4.195  0.3992  0.3647  0.4563
 4185TIP3   OH233969   6.758   0.329   0.563  0.2494 -0.7377 -0.5361
 4185TIP3    H133970   6.810   0.395   0.518  1.4781 -1.0107  0.4380
 4185TIP3    H233971   6.706   0.379   0.627  0.0362 -0.5661 -0.8404
 4186TIP3   OH233972   4.968   5.799   5.331 -0.1790 -0.3990 -0.2868
 4186TIP3    H133973   4.976   5.826   5.240 -2.1543 -0.6072 -0.5833
 4186TIP3    H233974   4.904   5.728   5.329 -0.8845  0.1304  1.3209
 4187TIP3   OH233975   0.457   6.538   0.916  0.0257 -0.0525 -0.5164
 4187TIP3    H133976   0.432   6.473   0.850  0.3707 -0.6986 -0.0098
 4187TIP3    H233977   0.460   6.490   0.998  0.7618  0.5011 -0.2093
 4188TIP3   OH233978   0.897   4.582  15.076  0.0661  0.2866 -0.2039
 4188TIP3    H133979   0.945   4.615  15.152 -1.4420  2.1061  0.0201
 4188TIP3    H233980   0.964   4.577  15.007  1.3275 -0.8441  1.0249
 4189TIP3   OH233981   5.406   0.882  15.411  0.1202  0.1369  0.2377
 4189TIP3    H133982   5.450   0.822  15.350  0.5841  1.3757 -0.6968
 4189TIP3    H233983   5.439   0.856  15.497 -1.3141 -2.2992  0.1337
 4190TIP3   OH233984   3.940   2.118   5.763 -0.6299 -0.3490  0.6645
 4190TIP3    H133985   3.990   2.096   5.841 -0.1127  0.6271  0.6267
 4190TIP3    H233986   3.950   2.041   5.706  0.4629 -0.3549  0.8414
 4191TIP3   OH233987   0.029   4.131  11.751 -0.6022 -0.4272  0.3744
 4191TIP3    H133988   0.103   4.103  11.805 -0.5122  2.0017  1.6822
 4191TIP3    H233989  -0.048   4.109  11.803 -0.6157  0.0629  0.5673
 4192TIP3   OH233990   0.130   5.621   1.515 -0.4685 -0.1653  1.2223
 4192TIP3    H133991   0.166   5.555   1.575  1.5662  0.1204  0.3898
 4192TIP3    H233992   0.206   5.657   1.471 -1.6095  2.1522  1.0233
 4193TIP3   OH233993   3.527   3.357   2.277 -0.0621 -0.2709  0.1012
 4193TIP3    H133994   3.601   3.321   2.228  0.1783  1.8584 -1.2093
 4193TIP3    H233995   3.564   3.432   2.323 -1.6121  1.6017 -1.5686
 4194TIP3   OH233996   3.397   0.139  11.412 -0.0807  0.4678 -0.0149
 4194TIP3    H133997   3.492   0.140  11.406 -0.0061  1.0126  1.0019
 4194TIP3    H233998   3.373   0.231  11.427 -0.7516  0.3162 -0.1365
 4195TIP3   OH233999   3.986   2.520   4.445 -0.3263  0.2275  0.4993
 4195TIP3    H134000   4.069   2.546   4.404 -1.2581  1.7087 -0.5601
 4195TIP3    H234001   4.012   2.466   4.519  1.4731 -2.4641 -1.8857
 4196TIP3   OH234002   4.679   0.339  13.693 -0.1935 -0.4442 -0.4439
 4196TIP3    H134003   4.674   0.403  13.763  1.5540 -0.9274  0.1753
 4196TIP3    H234004   4.681   0.254  13.738 -0.6230 -0.8372 -1.1494
 4197TIP3   OH234005   0.897   0.534  12.840 -0.6397 -0.3165  0.3681
 4197TIP3    H134006   0.884   0.444  12.807 -0.8347 -0.4833  0.8933
 4197TIP3    H234007   0.846   0.588  12.779 -0.0422 -0.4884 -0.3065
 4198TIP3   OH234008   2.687   3.191   0.593 -0.2216 -0.1582  0.3697
 4198TIP3    H134009   2.774   3.178   0.632 -0.0649 -0.9589 -0.2208
 4198TIP3    H234010   2.674   3.286   0.597  1.7159  0.2754 -1.6552
 4199TIP3   OH234011   0.661   0.799   1.917 -0.0409  0.0599  0.0436
 4199TIP3    H134012   0.620   0.812   1.831  2.5917 -0.7861 -1.4514
 4199TIP3    H234013   0.658   0.704   1.930  1.6943 -0.0619 -0.2772
 4200TIP3   OH234014   3.397   4.917   2.547 -0.4333  0.3780 -0.4265
 4200TIP3    H134015   3.372   5.006   2.571  0.3913  0.7020 -0.7230
 4200TIP3    H234016   3.346   4.860   2.605 -0.1847  1.0741  0.4883
 4201TIP3   OH234017   2.551   2.697  17.366  0.3600  0.1159 -0.0699
 4201TIP3    H134018   2.608   2.768  17.397  0.7531  0.0277 -0.5752
 4201TIP3    H234019   2.463   2.733  17.373  0.6632  1.5361 -2.4527
 4202TIP3   OH234020   2.213   4.315   1.503  0.2301  0.1012 -0.3803
 4202TIP3    H134021   2.124   4.348   1.517  0.7167  1.1189  0.5387
 4202TIP3    H234022   2.239   4.350   1.418 -1.3738 -2.9006 -2.2435
 4203TIP3   OH234023   2.693   5.184  10.474  0.3741 -0.1971 -0.8771
 4203TIP3    H134024   2.744   5.187  10.393  0.3803  1.2652 -0.8389
 4203TIP3    H234025   2.608   5.220  10.450 -0.1329 -1.1439 -0.5623
 4204TIP3   OH234026   0.272   1.897   2.847  0.1734  0.8402 -0.2895
 4204TIP3    H134027   0.327   1.950   2.789  1.8434 -0.5091  0.0148
 4204TIP3    H234028   0.244   1.824   2.792  0.8070  0.1725  0.2706
 4205TIP3   OH234029   4.451   0.761  11.937  0.5721  0.5475  0.1094
 4205TIP3    H134030   4.361   0.773  11.907  1.1384  1.6442 -1.2477
 4205TIP3    H234031   4.442   0.725  12.026 -1.1933  0.9206  0.1158
 4206TIP3   OH234032   2.143   4.398  15.829 -0.5557 -0.8696  0.0909
 4206TIP3    H134033   2.097   4.404  15.745 -1.2206 -0.4565  0.4797
 4206TIP3    H234034   2.224   4.446  15.815 -1.6460  1.1799  0.3337
 4207TIP3   OH234035   6.311   3.825   2.914 -0.4103 -0.5874  0.3637
 4207TIP3    H134036   6.287   3.800   3.003 -1.7835  1.7547  0.7450
 4207TIP3    H234037   6.406   3.823   2.913 -0.3721 -0.6386  1.9209
 4208TIP3   OH234038   6.554   5.010   4.607 -0.4531 -0.1758  0.0752
 4208TIP3    H134039   6.611   5.083   4.582 -0.1830 -0.3335  0.2210
 4208TIP3    H234040   6.509   4.985   4.527  0.2470 -0.5404 -0.2140
 4209TIP3   OH234041   2.441   5.319   1.938  0.9592  0.1984  0.3291
 4209TIP3    H134042   2.384   5.245   1.920  1.0825  0.1772  0.0108
 4209TIP3    H234043   2.418   5.383   1.870 -0.0100  0.9447  1.3287
 4210TIP3   OH234044   1.090   5.398   0.818  0.1471 -0.0959  0.2711
 4210TIP3    H134045   1.007   5.411   0.771  0.5656  0.3736 -0.3622
 4210TIP3    H234046   1.068   5.411   0.910 -0.1841  1.6469 -0.0162
 4211TIP3   OH234047   2.994   1.440   3.356  0.0908 -0.2007 -0.2845
 4211TIP3    H134048   3.084   1.473   3.348  0.1556 -0.1538  0.5907
 4211TIP3    H234049   3.002   1.361   3.409 -0.6873  1.3719  2.3802
 4212TIP3   OH234050   6.127   1.696  14.744  0.3645 -0.1992 -0.0101
 4212TIP3    H134051   6.181   1.766  14.707 -2.8876  2.5259 -0.0791
 4212TIP3    H234052   6.134   1.625  14.681  1.3488  1.2333 -1.6230
 4213TIP3   OH234053   6.334   2.296   4.866  0.5093  0.2851  0.3476
 4213TIP3    H134054   6.405   2.290   4.931  0.7099 -0.6455  0.0580
 4213TIP3    H234055   6.367   2.248   4.790 -0.4252 -0.1433  0.2026
 4214TIP3   OH234056   5.503   6.057   4.121 -0.3319  0.0928  0.5048
 4214TIP3    H134057   5.416   6.035   4.154 -0.5432 -0.7152 -0.5707
 4214TIP3    H234058   5.529   5.983   4.067  0.9448  0.4171  0.6216
 4215TIP3   OH234059   5.729   3.050  15.832 -0.8312 -0.0638 -0.4571
 4215TIP3    H134060   5.710   3.116  15.767  1.1072  0.9787 -0.0506
 4215TIP3    H234061   5.751   2.972  15.781 -1.0915  0.2071 -0.9943
 4216TIP3   OH234062   4.497   1.489  12.575  0.6426 -0.4272 -0.0117
 4216TIP3    H134063   4.413   1.535  12.570  1.3559  0.9126 -0.3232
 4216TIP3    H234064   4.549   1.542  12.636  1.5655 -0.6972 -0.5502
 4217TIP3   OH234065   0.710   2.126   0.202 -1.0493  0.0401 -0.6304
 4217TIP3    H134066   0.757   2.062   0.148 -2.5968 -0.0919 -1.8805
 4217TIP3    H234067   0.664   2.181   0.139 -0.1551  2.1105  0.4483
 4218TIP3   OH234068   0.018   4.326   4.672 -0.0002 -0.0714 -0.3355
 4218TIP3    H134069  -0.037   4.249   4.654 -0.8886  0.6431 -0.7909
 4218TIP3    H234070   0.105   4.301   4.643 -0.4115 -0.6824 -1.0735
 4219TIP3   OH234071   0.564   4.902  12.263 -0.2443  0.0155  0.3542
 4219TIP3    H134072   0.633   4.955  12.222  0.7510 -1.2574  0.3200
 4219TIP3    H234073   0.610   4.852  12.330 -0.8635 -1.7813 -0.5009
 4220TIP3   OH234074   5.147   0.406  14.522 -0.6072 -0.6055  0.3012
 4220TIP3    H134075   5.135   0.363  14.437  0.1652  0.9031 -0.6250
 4220TIP3    H234076   5.242   0.410  14.534 -0.5480  2.1135 -0.4089
 4221TIP3   OH234077   3.290   0.190  16.313  0.3022 -0.3066  0.1125
 4221TIP3    H134078   3.335   0.269  16.344 -0.2825 -0.0542  0.3264
 4221TIP3    H234079   3.200   0.218  16.299  0.4952 -0.4626 -1.6378
 4222TIP3   OH234080   6.637   6.375   5.276  0.0937 -0.0546  0.4718
 4222TIP3    H134081   6.657   6.449   5.218 -1.5260  1.5340  1.7988
 4222TIP3    H234082   6.721   6.348   5.311  0.6112  2.8410  1.7938
 4223TIP3   OH234083   5.119   4.011  15.313 -0.0317 -0.0402  0.0726
 4223TIP3    H134084   5.027   4.006  15.339  0.1979 -1.4056  0.7610
 4223TIP3    H234085   5.117   4.027  15.219 -0.9715  0.2786  0.1371
 4224TIP3   OH234086   0.744   0.549   1.816  0.1066 -0.0334 -0.2684
 4224TIP3    H134087   0.716   0.509   1.898  1.0525  1.3730  0.7939
 4224TIP3    H234088   0.837   0.566   1.828 -0.1365  1.9690 -0.8431
 4225TIP3   OH234089   4.075   2.541   5.118  1.1736 -0.3775 -0.1213
 4225TIP3    H134090   4.038   2.594   5.047 -0.8964 -1.4854  0.0454
 4225TIP3    H234091   4.055   2.591   5.198  0.2161 -0.8193 -0.0602
 4226TIP3   OH234092   1.535   4.330   5.133 -0.1899 -0.7400  0.1273
 4226TIP3    H134093   1.572   4.241   5.135  0.0893 -0.6249  1.9690
 4226TIP3    H234094   1.445   4.318   5.162 -0.5027 -0.5441 -0.7358
 4227TIP3   OH234095   0.594   3.877   2.907 -0.0355  0.1677 -0.3774
 4227TIP3    H134096   0.553   3.900   2.991  1.6116 -0.7952  0.7490
 4227TIP3    H234097   0.581   3.782   2.900 -0.9158  0.3546 -1.6829
 4228TIP3   OH234098   0.534   2.496   3.085  0.5341  0.2262  0.1097
 4228TIP3    H134099   0.612   2.513   3.034  0.2222  1.2948 -0.0340
 4228TIP3    H234100   0.567   2.462   3.169  1.0907 -0.3482 -0.3341
 4229TIP3   OH234101   3.371   5.180   3.094 -0.1374 -0.2384  0.3510
 4229TIP3    H134102   3.423   5.108   3.058  1.8539  1.1575  0.2673
 4229TIP3    H234103   3.347   5.232   3.018  0.2709  0.3227  0.6032
 4230TIP3   OH234104   4.926   3.203  11.219 -0.0612  0.2513 -0.1866
 4230TIP3    H134105   4.923   3.115  11.181  0.4805  0.1631 -0.0366
 4230TIP3    H234106   4.987   3.251  11.164  1.5564 -0.1784  1.1350
 4231TIP3   OH234107   4.933   3.692  10.600 -0.2158 -0.2704 -0.6956
 4231TIP3    H134108   4.905   3.783  10.593 -0.7143 -0.4148 -0.6209
 4231TIP3    H234109   4.963   3.670  10.512 -0.9078 -0.2870 -0.9396
 4232TIP3   OH234110   5.355   0.222   0.713  0.2634  0.5100  0.1801
 4232TIP3    H134111   5.382   0.260   0.797 -0.1312 -0.3944  0.7322
 4232TIP3    H234112   5.318   0.295   0.664 -2.0074  0.5607  1.8395
 4233TIP3   OH234113   5.294   5.613  12.215 -0.4705  0.0610  0.1585
 4233TIP3    H134114   5.294   5.692  12.270 -0.6431 -0.3408  0.7479
 4233TIP3    H234115   5.230   5.555  12.256 -0.4484 -0.3290 -0.3511
 4234TIP3   OH234116   2.115   0.806   0.772 -0.1746 -0.0394 -0.3891
 4234TIP3    H134117   2.055   0.743   0.812  0.3805 -0.3901 -0.0994
 4234TIP3    H234118   2.183   0.820   0.838  0.2225  0.1284 -0.8296
 4235TIP3   OH234119   6.195   5.691   2.237 -0.3583 -0.2463 -0.4632
 4235TIP3    H134120   6.200   5.602   2.273  1.6426 -0.6417 -1.5395
 4235TIP3    H234121   6.152   5.742   2.305 -0.2690 -1.7576  0.7905
 4236TIP3   OH234122   4.227   5.061  13.369 -0.7733 -0.0508 -0.1654
 4236TIP3    H134123   4.303   5.113  13.394  0.0423 -0.9619 -0.6687
 4236TIP3    H234124   4.240   5.042  13.276  0.3783 -3.3607  0.5432
 4237TIP3   OH234125   1.915   5.626  12.977 -0.3997 -0.6914  0.7253
 4237TIP3    H134126   2.010   5.612  12.982 -0.5624 -1.5170  1.7853
 4237TIP3    H234127   1.905   5.694  12.911  0.9961  0.1700  1.3536
 4238TIP3   OH234128   0.823   6.154  16.423  0.5604  0.2271 -0.0910
 4238TIP3    H134129   0.896   6.202  16.462 -0.4342  1.4026  0.3684
 4238TIP3    H234130   0.819   6.073  16.473  1.2921  0.3291  0.1482
 4239TIP3   OH234131   2.980   1.635   2.944 -0.3278 -0.3594  0.2049
 4239TIP3    H134132   3.032   1.559   2.916  0.0498  0.1997 -0.6642
 4239TIP3    H234133   2.929   1.603   3.018  0.6251 -1.1670  0.5423
 4240TIP3   OH234134   1.652   0.546   3.558 -0.0597  0.1849 -0.2957
 4240TIP3    H134135   1.633   0.511   3.471  1.1625  1.0668 -0.9483
 4240TIP3    H234136   1.726   0.494   3.589 -0.5116 -0.1490  0.2504
 4241TIP3   OH234137   4.139   4.169   1.825  0.4246 -0.7921  0.2960
 4241TIP3    H134138   4.169   4.127   1.744 -0.6147 -1.6353  0.3240
 4241TIP3    H234139   4.072   4.110   1.859 -0.9194  0.7742  0.4776
 4242TIP3   OH234140   0.026   1.266   0.613  0.4769  0.4136 -0.3751
 4242TIP3    H134141   0.034   1.214   0.693  1.5867 -0.4160 -0.9869
 4242TIP3    H234142  -0.068   1.268   0.595  0.4115 -2.1613 -0.7809
 4243TIP3   OH234143   3.210   1.924  14.424  0.0274  0.0060  0.2792
 4243TIP3    H134144   3.286   1.967  14.463 -0.0027  1.2026 -0.9098
 4243TIP3    H234145   3.240   1.834  14.408  1.8552  0.8853 -1.7817
 4244TIP3   OH234146   3.679   0.732  11.751  0.0574  0.8915  0.2653
 4244TIP3    H134147   3.687   0.827  11.748 -1.3568  1.0713  1.1427
 4244TIP3    H234148   3.585   0.715  11.746  0.1174 -0.3312  2.0472
 4245TIP3   OH234149   5.190   5.179  12.208 -0.2051 -1.0401 -0.4967
 4245TIP3    H134150   5.258   5.246  12.217 -0.5362 -0.8198  0.4635
 4245TIP3    H234151   5.175   5.173  12.114  0.2097 -0.1513 -0.6330
 4246TIP3   OH234152   2.633   1.435  15.582  0.4479 -0.0886  0.1710
 4246TIP3    H134153   2.554   1.488  15.576 -0.1960 -1.0531 -0.2635
 4246TIP3    H234154   2.608   1.351  15.542  1.4096 -0.7290  0.8718
 4247TIP3   OH234155   1.400   2.910  14.348  0.5476  0.1696 -0.4104
 4247TIP3    H134156   1.327   2.854  14.374 -0.2158  0.3526 -2.0469
 4247TIP3    H234157   1.363   2.968  14.282  2.0430  0.6565 -0.8561
 4248TIP3   OH234158   2.399   5.494   5.996  0.4663 -0.2139  0.3322
 4248TIP3    H134159   2.318   5.526   6.036  0.6498 -1.1837  1.5310
 4248TIP3    H234160   2.468   5.550   6.033  0.3902  0.4852 -0.5407
 4249TIP3   OH234161   0.333   1.832  14.082 -0.4805 -0.0637 -0.4285
 4249TIP3    H134162   0.408   1.782  14.116  0.1834 -0.7930 -2.7642
 4249TIP3    H234163   0.369   1.882  14.008 -1.9882  0.7993 -0.6159
 4250TIP3   OH234164   4.864   0.375  14.944  0.0472  0.1932  0.3718
 4250TIP3    H134165   4.867   0.334  14.858 -3.7304  1.1872 -0.4211
 4250TIP3    H234166   4.852   0.468  14.926 -1.0530  0.3980  1.9388
 4251TIP3   OH234167   3.088   2.819   2.741  0.3032  0.3750 -0.2755
 4251TIP3    H134168   3.060   2.844   2.829  0.7235 -0.9974  0.2651
 4251TIP3    H234169   3.058   2.891   2.686 -2.6038 -0.1141  0.5113
 4252TIP3   OH234170   1.692   2.009  14.471  0.2148 -0.1204  0.1691
 4252TIP3    H134171   1.610   1.969  14.498 -0.0224  0.0470 -0.2854
 4252TIP3    H234172   1.673   2.048  14.386  1.1327 -1.2946 -0.6120
 4253TIP3   OH234173   6.753   1.541  15.611  0.3873 -0.1626  0.2456
 4253TIP3    H134174   6.726   1.606  15.546 -1.0265 -1.7294 -0.8609
 4253TIP3    H234175   6.769   1.461  15.559 -0.2889 -1.3328  1.7590
 4254TIP3   OH234176   6.480   2.615   3.329  0.2204 -0.5918  0.2501
 4254TIP3    H134177   6.509   2.583   3.243  0.3796  0.4701 -0.1079
 4254TIP3    H234178   6.436   2.540   3.368  0.5388 -1.2337 -0.5739
 4255TIP3   OH234179   0.483   2.668  16.017 -0.2778  0.7390 -0.2738
 4255TIP3    H134180   0.561   2.705  16.058  0.1454 -0.8712  0.4743
 4255TIP3    H234181   0.514   2.634  15.933 -0.2446  0.4511 -0.1476
 4256TIP3   OH234182   1.748   5.045   3.944 -0.1067  0.2503 -0.2873
 4256TIP3    H134183   1.655   5.029   3.927 -0.2964  1.4732 -0.4989
 4256TIP3    H234184   1.792   5.027   3.861 -0.2512  0.3801 -0.3919
 4257TIP3   OH234185   0.912   1.931  11.922  0.1736  0.0046  0.2587
 4257TIP3    H134186   0.874   2.014  11.892  3.0805  0.6432 -2.0666
 4257TIP3    H234187   0.852   1.864  11.889 -0.5322  1.0430 -0.6405
 4258TIP3   OH234188   6.325   3.459   0.564  0.3770 -0.0935  0.1977
 4258TIP3    H134189   6.380   3.505   0.628 -1.2597  3.0241 -0.4392
 4258TIP3    H234190   6.323   3.518   0.488  1.8712 -3.4137 -2.6899
 4259TIP3   OH234191   5.346   5.864   0.784 -0.2451 -0.0151  0.9143
 4259TIP3    H134192   5.290   5.808   0.838  0.8711 -0.0480  2.0851
 4259TIP3    H234193   5.382   5.928   0.845  0.4738  0.4201  0.0660
 4260TIP3   OH234194   5.026   5.020   4.939 -0.6152 -0.0530  0.5247
 4260TIP3    H134195   4.961   4.950   4.942 -0.3896 -0.2356  2.5757
 4260TIP3    H234196   5.056   5.028   5.029 -0.2301  2.3345  0.2301
 4261TIP3   OH234197   2.225   1.365   1.677  0.1533 -0.2016 -0.4636
 4261TIP3    H134198   2.191   1.281   1.648  0.9242 -0.7498  0.1722
 4261TIP3    H234199   2.313   1.370   1.639  0.7577 -0.4510  0.8410
 4262TIP3   OH234200   6.128   1.807  11.144 -0.0538 -0.0191  0.1080
 4262TIP3    H134201   6.080   1.766  11.216 -0.4845 -0.0078 -0.1666
 4262TIP3    H234202   6.075   1.884  11.122 -3.0710 -2.7642 -3.8203
 4263TIP3   OH234203   5.709   5.996   0.182  0.4917 -0.4338 -0.3372
 4263TIP3    H134204   5.740   5.907   0.198  0.5181 -0.1663  1.3855
 4263TIP3    H234205   5.783   6.052   0.206 -0.2418  0.0974  0.8193
 4264TIP3   OH234206   0.942   1.602  17.255  0.1222 -0.0011 -0.1219
 4264TIP3    H134207   0.925   1.524  17.308  1.8143  0.4948  1.2207
 4264TIP3    H234208   0.890   1.671  17.296  0.1055  0.0115 -0.1638
 4265TIP3   OH234209   5.600   5.291  13.917 -0.3078  0.5107  0.1836
 4265TIP3    H134210   5.528   5.229  13.927 -0.7992  0.7433 -1.6100
 4265TIP3    H234211   5.664   5.246  13.862  0.2591  0.8723  0.5255
 4266TIP3   OH234212   4.371   4.807  14.726  0.1810 -0.4678  0.1886
 4266TIP3    H134213   4.315   4.759  14.788 -0.6757  2.2626  1.7212
 4266TIP3    H234214   4.447   4.833  14.778  0.5330 -0.0136 -0.5389
 4267TIP3   OH234215   5.311   5.455   2.085 -0.3167  0.3595  0.2995
 4267TIP3    H134216   5.398   5.476   2.119 -0.9744 -0.6064  2.7758
 4267TIP3    H234217   5.269   5.540   2.074 -0.5263  0.7803  3.4235
 4268TIP3   OH234218   4.364   6.406   1.268 -0.0626  0.0606 -0.0954
 4268TIP3    H134219   4.408   6.323   1.249 -1.3961 -1.2376  2.0098
 4268TIP3    H234220   4.315   6.426   1.189  0.3923 -1.1061 -0.6925
 4269TIP3   OH234221   6.200   0.997   2.796  0.3064 -0.5014  0.0190
 4269TIP3    H134222   6.278   0.946   2.775  0.8305  0.4385 -0.3698
 4269TIP3    H234223   6.209   1.077   2.744  0.6389  1.0360  2.3402
 4270TIP3   OH234224   5.174   4.901  11.764 -0.4040  0.2124 -0.3806
 4270TIP3    H134225   5.221   4.823  11.793 -0.1247 -0.2563 -1.9736
 4270TIP3    H234226   5.115   4.869  11.696  1.2830  1.6580 -2.6728
 4271TIP3   OH234227   6.326   0.429   0.173  0.0624 -0.1233 -0.1043
 4271TIP3    H134228   6.345   0.397   0.085 -0.6887 -0.9106  0.0072
 4271TIP3    H234229   6.405   0.409   0.223  1.9322  3.3904 -1.3146
 4272TIP3   OH234230   2.482   2.351  15.371 -0.5062  0.1339 -0.4805
 4272TIP3    H134231   2.504   2.435  15.332 -0.5240  0.4310  0.1546
 4272TIP3    H234232   2.484   2.290  15.297  1.9272  0.2151 -0.5675
 4273TIP3   OH234233   2.642   5.681  16.777 -0.0667 -0.6761 -0.5368
 4273TIP3    H134234   2.648   5.747  16.708  0.3295 -2.0937 -1.8960
 4273TIP3    H234235   2.549   5.677  16.798 -0.0597  0.5150 -0.2118
 4274TIP3   OH234236   0.485   3.880  13.451 -0.7085 -0.1347 -0.1738
 4274TIP3    H134237   0.487   3.789  13.422  2.8516 -0.1095 -0.4321
 4274TIP3    H234238   0.475   3.875  13.546 -3.1641 -0.5782 -0.3791
 4275TIP3   OH234239   1.480   2.171  15.059  0.2864  0.1269 -0.8145
 4275TIP3    H134240   1.406   2.196  15.115 -0.0000 -1.6336 -0.3361
 4275TIP3    H234241   1.526   2.253  15.042 -0.2839  0.8991  1.0544
 4276TIP3   OH234242   2.413   4.228  14.363  0.6064 -0.0756 -0.1163
 4276TIP3    H134243   2.389   4.138  14.342  1.9397 -0.6402  0.6941
 4276TIP3    H234244   2.349   4.281  14.316  0.6612 -1.4050 -1.8018
 4277TIP3   OH234245   2.746   0.794  13.713 -0.3778  0.0814 -0.1003
 4277TIP3    H134246   2.828   0.825  13.750  0.8799  1.4447 -3.6078
 4277TIP3    H234247   2.686   0.788  13.788  2.0696  1.8272  2.1711
 4278TIP3   OH234248   4.725   5.669  12.101 -0.0442 -0.3236 -0.2957
 4278TIP3    H134249   4.762   5.695  12.017  2.1597 -1.4546  0.2693
 4278TIP3    H234250   4.699   5.577  12.089  2.5669 -1.3056  0.8760
 4279TIP3   OH234251   2.070   5.424  14.897 -0.2260 -0.4449  0.1115
 4279TIP3    H134252   2.164   5.436  14.885 -0.1214 -1.8038 -0.6863
 4279TIP3    H234253   2.059   5.330  14.912 -1.5175 -0.4412 -0.6177
 4280TIP3   OH234254   1.622   4.115   0.945  0.0441  0.3947 -0.4069
 4280TIP3    H134255   1.643   4.162   1.026 -0.6928 -1.4672  0.9194
 4280TIP3    H234256   1.639   4.023   0.965  2.0769  0.0813 -3.1417
 4281TIP3   OH234257   4.863   4.092   0.813 -0.8439  0.0561  0.0616
 4281TIP3    H134258   4.809   4.039   0.871  0.5506 -0.5124  0.8915
 4281TIP3    H234259   4.915   4.028   0.763  1.2273  0.5604  1.4325
 4282TIP3   OH234260   3.425   6.365  14.506 -0.5703  0.5941 -0.7450
 4282TIP3    H134261   3.437   6.408  14.422 -1.8861  1.0851 -0.7165
 4282TIP3    H234262   3.398   6.276  14.484 -2.1011  1.0672 -0.8891
 4283TIP3   OH234263   2.467   6.468  12.096 -0.5541 -0.8851  0.2213
 4283TIP3    H134264   2.543   6.511  12.056 -1.2277 -0.3475 -0.5472
 4283TIP3    H234265   2.445   6.523  12.171  0.0075 -1.2265  0.6401
 4284TIP3   OH234266   4.833   6.271   5.427 -0.1405  0.6312 -0.4897
 4284TIP3    H134267   4.812   6.276   5.334  2.1500  1.2392 -1.0361
 4284TIP3    H234268   4.775   6.336   5.468 -0.4430  1.1129 -1.6425
 4285TIP3   OH234269   6.125   2.817   1.565  0.2825  0.4261  0.0042
 4285TIP3    H134270   6.105   2.822   1.658 -0.2286 -1.0115 -0.0108
 4285TIP3    H234271   6.050   2.858   1.522 -0.8892 -1.4743  0.1266
 4286TIP3   OH234272   2.152   0.132   2.478 -0.7103  0.6093  0.4633
 4286TIP3    H134273   2.150   0.211   2.424  0.3917  0.3965  0.0866
 4286TIP3    H234274   2.228   0.144   2.535 -0.3444 -0.3073  0.1948
 4287TIP3   OH234275   0.827   5.088   6.044  0.0619  0.2438  0.2020
 4287TIP3    H134276   0.851   5.170   6.001 -0.8805  0.2658 -0.3131
 4287TIP3    H234277   0.733   5.096   6.059  0.3672  0.3049  2.4597
 4288TIP3   OH234278   6.396   3.030  15.374  0.5758  0.3095 -0.7646
 4288TIP3    H134279   6.372   3.121  15.390 -0.7955  0.0167 -1.0542
 4288TIP3    H234280   6.490   3.033  15.356  0.9810  1.4177  1.1811
 4289TIP3   OH234281   0.847   3.220   0.482 -0.2956  0.2961  0.6481
 4289TIP3    H134282   0.802   3.277   0.545 -0.7035  1.7659 -0.8951
 4289TIP3    H234283   0.860   3.138   0.529 -1.9029  0.8328  2.1516
 4290TIP3   OH234284   0.160   0.996   5.014  0.2697 -0.1039 -0.8826
 4290TIP3    H134285   0.211   1.029   5.088 -0.0468  0.4529 -0.9038
 4290TIP3    H234286   0.205   0.916   4.987 -0.2144 -0.9212  0.5902
 4291TIP3   OH234287   4.296   2.080   4.824  0.2831 -0.3096 -0.2260
 4291TIP3    H134288   4.273   2.121   4.741 -0.5074  0.1219  0.1961
 4291TIP3    H234289   4.212   2.051   4.861  0.7537 -1.7161 -0.2012
 4292TIP3   OH234290   6.235   6.323  15.090  0.3929  0.0609 -0.0938
 4292TIP3    H134291   6.179   6.246  15.079 -0.0806  0.3065  0.5129
 4292TIP3    H234292   6.258   6.323  15.183  1.2369  0.0817 -0.2955
 4293TIP3   OH234293   4.441   0.010   3.470 -0.1376 -0.1731  0.4824
 4293TIP3    H134294   4.439  -0.048   3.394 -0.1244 -0.3300  0.6002
 4293TIP3    H234295   4.349   0.020   3.495 -0.1467 -0.0672  0.4048
 4294TIP3   OH234296   0.178   6.757   2.504  0.1078 -0.4936 -0.1288
 4294TIP3    H134297   0.095   6.793   2.534  0.0039 -2.2149  1.8885
 4294TIP3    H234298   0.245   6.810   2.547  0.1162  0.6589 -1.4686
 4295TIP3   OH234299   6.745   6.083   5.576 -0.2017  0.0881  0.9962
 4295TIP3    H134300   6.711   6.001   5.538  0.3696  0.5067 -0.4728
 4295TIP3    H234301   6.711   6.083   5.665 -1.1373 -1.2152  0.6777
 4296TIP3   OH234302   6.033   5.988  16.029 -0.3476 -0.4559  0.0914
 4296TIP3    H134303   5.954   6.005  15.978  0.2748  1.0932 -0.4035
 4296TIP3    H234304   6.086   5.932  15.973 -0.5972 -0.5602 -0.0429
 4297TIP3   OH234305   3.169   3.338   1.371  0.0040  0.2408  0.2464
 4297TIP3    H134306   3.181   3.414   1.428 -0.6440 -0.5171  1.4357
 4297TIP3    H234307   3.258   3.315   1.344  0.0983  3.2681 -2.7590
 4298TIP3   OH234308   2.350   1.310  13.103 -0.8213  0.2228  0.3922
 4298TIP3    H134309   2.351   1.406  13.105 -1.6675  0.2662 -0.6735
 4298TIP3    H234310   2.414   1.287  13.035 -0.6937  0.0331  0.5762
 4299TIP3   OH234311   3.432   5.383   2.067 -0.0529 -0.9863  0.4622
 4299TIP3    H134312   3.491   5.355   1.996 -0.1464  0.0066 -0.0186
 4299TIP3    H234313   3.378   5.306   2.084  0.2587 -1.3770 -0.2545
 4300TIP3   OH234314   5.479   4.418   5.291  0.1231  0.6861  0.4191
 4300TIP3    H134315   5.484   4.440   5.198  3.4193 -0.9302  0.0994
 4300TIP3    H234316   5.395   4.372   5.299  0.2659 -0.1535 -1.9991
 4301TIP3   OH234317   4.202   4.431  15.571 -0.2493  0.3241  0.6990
 4301TIP3    H134318   4.154   4.384  15.503 -0.9389  1.9973 -0.0255
 4301TIP3    H234319   4.172   4.522  15.563  2.9929  1.4813  0.2089
 4302TIP3   OH234320   6.036   3.231  17.206 -0.1218 -0.0880  1.1036
 4302TIP3    H134321   6.046   3.144  17.168  0.1620 -0.0604  1.1099
 4302TIP3    H234322   6.114   3.242  17.261 -0.1225  0.1951  1.0484
 4303TIP3   OH234323   1.161   2.903  15.311 -0.5885 -0.0552  0.1274
 4303TIP3    H134324   1.190   2.986  15.348 -0.3000  0.1937 -0.6412
 4303TIP3    H234325   1.213   2.892  15.231 -1.9832 -0.0234 -0.8277
 4304TIP3   OH234326   3.426   0.445  13.640  0.4186  0.2059  0.4667
 4304TIP3    H134327   3.390   0.531  13.662 -1.0675 -0.0763 -0.6825
 4304TIP3    H234328   3.352   0.385  13.645  1.0916 -0.7319 -0.2533
 4305TIP3   OH234329   6.054   2.201  12.084  0.4358  0.2526  0.5454
 4305TIP3    H134330   5.981   2.150  12.121 -0.5567  1.4352  0.2852
 4305TIP3    H234331   6.046   2.188  11.989  1.0603 -0.2483  0.5542
 4306TIP3   OH234332   5.677   1.340  14.748 -0.1733  0.1768 -0.1894
 4306TIP3    H134333   5.630   1.302  14.822  1.1337 -1.3011 -0.0666
 4306TIP3    H234334   5.730   1.410  14.786  0.2747 -0.3869  0.2344
 4307TIP3   OH234335   2.388   6.106  15.246 -0.0759 -0.1669  0.0647
 4307TIP3    H134336   2.319   6.142  15.302  0.9802  1.8306  0.1718
 4307TIP3    H234337   2.454   6.073  15.307  0.0450 -0.0697 -0.0128
 4308TIP3   OH234338   3.020   5.675  16.688  0.7806 -0.3674  0.3265
 4308TIP3    H134339   3.003   5.712  16.774  1.4955 -0.0319  0.3226
 4308TIP3    H234340   2.955   5.605  16.680  0.7857 -0.4869  1.1880
 4309TIP3   OH234341   1.143   5.414  15.060  0.0317 -0.4167 -0.2958
 4309TIP3    H134342   1.191   5.365  15.127  0.2607  0.8252  0.4902
 4309TIP3    H234343   1.052   5.390  15.073  0.3525 -2.4485 -1.4946
 4310TIP3   OH234344   4.238   1.531  16.414  0.7696 -0.1346  0.1014
 4310TIP3    H134345   4.262   1.442  16.437  1.6315  0.1989  0.5313
 4310TIP3    H234346   4.264   1.584  16.489 -0.1783  0.4239  0.0606
 4311TIP3   OH234347   1.890   0.498   3.733 -0.5909  0.1120  0.0305
 4311TIP3    H134348   1.872   0.569   3.795 -2.5826  1.4563 -1.9375
 4311TIP3    H234349   1.943   0.538   3.664 -1.4423 -0.3534 -0.9299
 4312TIP3   OH234350   4.506   0.781   1.359  0.2062  0.2380 -0.3136
 4312TIP3    H134351   4.578   0.736   1.314 -0.3148 -1.3575  0.3840
 4312TIP3    H234352   4.430   0.769   1.303 -0.7059 -2.7035  1.3425
 4313TIP3   OH234353   4.988   4.584   3.689  0.6044 -0.0487  0.1837
 4313TIP3    H134354   4.937   4.645   3.742 -0.3118 -0.9030  0.3149
 4313TIP3    H234355   5.053   4.639   3.646 -0.8739  1.2253 -0.5582
 4314TIP3   OH234356   0.733   5.514   5.014 -0.1940  0.0282  0.0929
 4314TIP3    H134357   0.821   5.537   5.043 -0.9070  0.4306  2.0532
 4314TIP3    H234358   0.675   5.556   5.077 -1.8100 -0.2949 -1.1092
 4315TIP3   OH234359   2.087   6.103   2.104 -0.5417  0.3168  0.5350
 4315TIP3    H134360   2.043   6.186   2.082 -1.2719  0.2382  1.5982
 4315TIP3    H234361   2.062   6.087   2.195 -3.4225 -2.8916 -0.6203
 4316TIP3   OH234362   0.053   0.951   4.257 -0.4094 -0.2375 -0.6975
 4316TIP3    H134363  -0.033   0.912   4.274 -1.0054  1.1359 -0.3878
 4316TIP3    H234364   0.033   1.036   4.218  0.5238  2.5610  4.1301
 4317TIP3   OH234365   1.692   2.726  12.146  0.1264 -0.4003 -0.1239
 4317TIP3    H134366   1.787   2.716  12.139  0.3927  1.0410  0.8742
 4317TIP3    H234367   1.659   2.706  12.058  1.2842 -1.4606 -0.3363
 4318TIP3   OH234368   4.198   6.057   2.442 -0.5543 -0.4282  0.1828
 4318TIP3    H134369   4.160   6.070   2.355  4.7282  2.7180 -2.0799
 4318TIP3    H234370   4.239   5.971   2.437 -0.8823 -0.5750 -0.1051
 4319TIP3   OH234371   1.140   4.392   2.513  0.7272  0.3346 -0.4588
 4319TIP3    H134372   1.062   4.361   2.466  0.6968  0.3286 -0.4050
 4319TIP3    H234373   1.159   4.323   2.577  0.0954  0.8466  0.3089
 4320TIP3   OH234374   1.798   3.304   3.682  0.3561  0.4049 -0.3488
 4320TIP3    H134375   1.835   3.373   3.627 -1.0198  0.8621 -0.7303
 4320TIP3    H234376   1.703   3.316   3.676 -0.1644 -3.2637 -2.7999
 4321TIP3   OH234377   0.499   1.630  13.058  0.0091 -0.0254 -0.2896
 4321TIP3    H134378   0.494   1.592  12.970 -0.3467 -0.5238 -0.0568
 4321TIP3    H234379   0.576   1.588  13.098  0.3676  0.4461 -0.4735
 4322TIP3   OH234380   4.234   1.813   2.904  0.5658 -0.4679 -0.2708
 4322TIP3    H134381   4.295   1.879   2.936  1.4948 -2.4662  2.5385
 4322TIP3    H234382   4.150   1.836   2.942  0.4238  0.1340 -0.9274
 4323TIP3   OH234383   4.427   2.988   2.920 -0.1261  0.1165 -0.4838
 4323TIP3    H134384   4.378   3.033   2.851  0.7598 -0.3656 -1.4675
 4323TIP3    H234385   4.416   2.895   2.900 -0.1734 -0.0430  0.2644
 4324TIP3   OH234386   6.611   0.290   3.201 -0.0471 -0.0499 -0.4084
 4324TIP3    H134387   6.636   0.199   3.192  2.1526  0.5056 -0.5899
 4324TIP3    H234388   6.615   0.307   3.295  1.1885  0.2323 -0.4900
 4325TIP3   OH234389   2.429   2.009   3.895 -0.1873 -0.0595  0.5181
 4325TIP3    H134390   2.504   2.069   3.895 -1.7399  2.0177  2.0344
 4325TIP3    H234391   2.375   2.038   3.822  0.0477 -1.0328 -0.0650
 4326TIP3   OH234392   2.231   3.636   3.781  0.3786 -0.6041  0.2359
 4326TIP3    H134393   2.224   3.732   3.780  0.5446 -0.5845 -0.9568
 4326TIP3    H234394   2.317   3.619   3.818  1.1469 -0.1880 -1.2457
 4327TIP3   OH234395   1.944   2.146   3.219  0.3948 -0.7560 -0.1934
 4327TIP3    H134396   2.012   2.209   3.244  0.7623 -1.1931 -0.0835
 4327TIP3    H234397   1.935   2.089   3.295  1.8755 -2.4121 -1.1918
 4328TIP3   OH234398   3.991   3.369   2.000  0.4934 -0.2260  0.1454
 4328TIP3    H134399   4.005   3.398   1.910 -2.1119 -3.5563 -1.5927
 4328TIP3    H234400   3.941   3.440   2.040  1.0407  1.0150 -1.2684
 4329TIP3   OH234401   6.063   5.630   0.255  0.0787 -0.2586 -0.4482
 4329TIP3    H134402   6.011   5.567   0.306 -0.6804 -0.4677 -1.4647
 4329TIP3    H234403   6.026   5.715   0.277  0.5417 -0.2263  0.2576
 4330TIP3   OH234404   2.133   0.439  13.252 -0.4751 -0.0895  0.3579
 4330TIP3    H134405   2.096   0.415  13.167  1.2670 -1.6250 -0.0365
 4330TIP3    H234406   2.172   0.358  13.285 -0.6551  0.6008  2.4037
 4331TIP3   OH234407   2.416   6.760  12.191  0.1023 -0.5117 -0.0334
 4331TIP3    H134408   2.493   6.734  12.140  0.5435  2.8852 -1.3068
 4331TIP3    H234409   2.452   6.793  12.273 -0.1995 -0.8347  0.2346
 4332TIP3   OH234410   5.180   5.514   6.236  0.4506  0.3616  0.3943
 4332TIP3    H134411   5.236   5.450   6.280  0.2297 -0.2395 -0.1829
 4332TIP3    H234412   5.237   5.557   6.172  0.2953 -0.1428 -0.0874
 4333TIP3   OH234413   2.618   3.297   6.830 -0.1887  0.1712 -0.6143
 4333TIP3    H134414   2.696   3.322   6.779  1.8119 -0.7130  1.8038
 4333TIP3    H234415   2.642   3.213   6.868 -2.5456 -0.3066 -0.0889
 4334TIP3   OH234416   1.790   1.906  11.257  0.1877 -0.5320  0.0314
 4334TIP3    H134417   1.798   1.973  11.325 -2.4534 -0.4697  0.3908
 4334TIP3    H234418   1.782   1.956  11.175  1.0172 -0.5376 -0.0652
 4335TIP3   OH234419   3.789   4.241   4.196  0.0738  0.2504  0.2872
 4335TIP3    H134420   3.713   4.283   4.238 -2.0077 -2.6074 -0.3313
 4335TIP3    H234421   3.772   4.250   4.102  1.9164  1.8154  0.0403
 4336TIP3   OH234422   4.304   5.936   1.058 -0.1148  0.3015  0.0841
 4336TIP3    H134423   4.224   5.908   1.012 -0.4584  0.2755  0.6776
 4336TIP3    H234424   4.335   5.856   1.101 -0.4816  0.5790  0.8853
 4337TIP3   OH234425   0.588   4.412   1.681  0.1687  0.2825 -0.4261
 4337TIP3    H134426   0.675   4.444   1.704  0.6345 -0.0343 -1.6641
 4337TIP3    H234427   0.604   4.348   1.612 -0.7420 -2.5091  1.7665
 4338TIP3   OH234428   3.154   5.390  15.239 -0.2180 -0.6997 -0.1860
 4338TIP3    H134429   3.246   5.415  15.233 -0.7938  1.7952 -0.1227
 4338TIP3    H234430   3.129   5.412  15.328 -0.9719 -0.9455 -0.3285
 4339TIP3   OH234431   1.901   3.777   5.533  0.0144  0.0404 -0.2707
 4339TIP3    H134432   1.987   3.759   5.569 -0.5526 -0.0607  1.0745
 4339TIP3    H234433   1.849   3.809   5.607 -0.7374  1.3657 -1.3250
 4340TIP3   OH234434   5.112   3.479  16.766 -0.7199  0.1122 -0.6620
 4340TIP3    H134435   5.133   3.459  16.675  0.0159 -0.2117 -0.4356
 4340TIP3    H234436   5.031   3.432  16.784  0.2647 -1.6422 -0.5364
 4341TIP3   OH234437   2.984   2.694  12.676  0.3249 -0.3353  0.3183
 4341TIP3    H134438   3.023   2.606  12.670  2.0831  0.2893  1.7145
 4341TIP3    H234439   3.050   2.746  12.722 -1.8145  1.0648  1.9906
 4342TIP3   OH234440   0.583   0.240   3.228  0.4604 -0.0709 -0.1424
 4342TIP3    H134441   0.574   0.276   3.140  2.7394 -0.1381 -0.4671
 4342TIP3    H234442   0.676   0.220   3.237  0.0561 -1.4647  1.7547
 4343TIP3   OH234443   5.078   1.514   0.668  0.2434 -0.2010  0.2411
 4343TIP3    H134444   5.075   1.610   0.664  0.9139 -0.2101 -1.0935
 4343TIP3    H234445   4.987   1.487   0.674 -0.0353  0.5095 -0.5654
 4344TIP3   OH234446   5.312   5.713  15.833  0.2090  0.0669 -0.0499
 4344TIP3    H134447   5.244   5.669  15.781 -1.7167  1.4544  1.1315
 4344TIP3    H234448   5.339   5.787  15.779  0.0132  0.1007 -0.1039
 4345TIP3   OH234449   5.953   1.049  16.657  0.1068 -0.1518 -0.3546
 4345TIP3    H134450   5.866   1.020  16.684 -0.9883  1.9186 -1.4336
 4345TIP3    H234451   5.954   1.036  16.562  0.0491  2.0439 -0.6859
 4346TIP3   OH234452   6.387   4.322   5.481  0.5574  0.3907  0.1246
 4346TIP3    H134453   6.408   4.233   5.454  0.4207  0.7274 -1.1464
 4346TIP3    H234454   6.390   4.319   5.577  2.7375 -0.4302  0.0763
 4347TIP3   OH234455   3.564   3.318  15.511 -0.1718  0.0398 -0.8576
 4347TIP3    H134456   3.598   3.305  15.600 -1.6969 -0.2807 -0.2958
 4347TIP3    H234457   3.532   3.408  15.510 -2.0849 -0.5956 -0.3750
 4348TIP3   OH234458   5.185   1.838   4.744 -0.1169  0.5571  0.6977
 4348TIP3    H134459   5.126   1.883   4.683 -0.5036  0.5921  1.0901
 4348TIP3    H234460   5.162   1.873   4.830  0.9417  1.0644  0.7922
 4349TIP3   OH234461   1.825   5.052   2.350 -0.3116 -0.2356 -0.2060
 4349TIP3    H134462   1.759   5.004   2.400 -1.2679  0.2373 -0.9821
 4349TIP3    H234463   1.779   5.080   2.271  1.2283 -1.2635 -1.5387
 4350TIP3   OH234464   5.700   6.040   1.074 -0.3182  0.3957  0.7483
 4350TIP3    H134465   5.693   6.129   1.108 -0.3608  0.6568  0.0692
 4350TIP3    H234466   5.779   6.005   1.114 -0.0828  0.8785  0.7149
 4351TIP3   OH234467   3.225   4.102   1.017 -0.2460  0.7225 -0.3483
 4351TIP3    H134468   3.213   4.035   0.949 -0.5412 -0.4441  0.7986
 4351TIP3    H234469   3.316   4.091   1.045 -0.7343 -0.3550  0.9537
 4352TIP3   OH234470   1.668   4.498  16.098 -0.0938 -0.3722  0.2950
 4352TIP3    H134471   1.600   4.519  16.033  1.9071 -0.1611 -1.8929
 4352TIP3    H234472   1.628   4.518  16.182 -2.7534 -0.3657 -0.8606
 4353TIP3   OH234473   5.982   1.545   1.385  0.1724  0.0884  0.4495
 4353TIP3    H134474   5.939   1.628   1.365  1.9937  0.8016 -0.8039
 4353TIP3    H234475   6.032   1.525   1.307  0.9051 -1.4640  1.2767
 4354TIP3   OH234476   1.329   5.289  14.621 -0.3897  0.2313 -0.3193
 4354TIP3    H134477   1.406   5.341  14.595  0.3658  0.5076  2.1918
 4354TIP3    H234478   1.261   5.354  14.639  0.3757  0.4260  2.2489
 4355TIP3   OH234479   4.651   1.221   2.835 -0.2316 -0.2024 -0.2572
 4355TIP3    H134480   4.564   1.218   2.875 -0.0538 -1.0417  0.0933
 4355TIP3    H234481   4.649   1.151   2.770  0.4649 -0.8359  0.3787
 4356TIP3   OH234482   2.229   5.465  14.157 -0.0809  0.2072 -0.8277
 4356TIP3    H134483   2.150   5.482  14.209  0.1545 -1.9234  0.3207
 4356TIP3    H234484   2.226   5.530  14.087 -1.9518  1.2760  0.1714
 4357TIP3   OH234485   2.655   3.712   0.608 -0.2976 -0.1753 -0.3387
 4357TIP3    H134486   2.577   3.703   0.553 -0.7998  0.8914  0.1804
 4357TIP3    H234487   2.633   3.665   0.689 -0.1059 -0.5268 -0.4898
 4358TIP3   OH234488   4.719   6.381  11.771  0.3737  0.9744  0.0443
 4358TIP3    H134489   4.770   6.462  11.771  0.3208  1.0082 -0.4764
 4358TIP3    H234490   4.705   6.361  11.679 -0.6340  1.0138  0.1765
 4359TIP3   OH234491   1.184   0.295  11.628  0.2628  0.4656  0.2917
 4359TIP3    H134492   1.190   0.343  11.710  2.7899 -1.2974  1.2901
 4359TIP3    H234493   1.097   0.315  11.594 -0.7272  1.5809  3.1804
 4360TIP3   OH234494   6.075   3.824   5.726 -0.1706 -0.2440  0.3211
 4360TIP3    H134495   6.155   3.875   5.739  0.1960 -0.2816 -1.4884
 4360TIP3    H234496   6.044   3.805   5.815  1.0039  1.0365  1.0518
 4361TIP3   OH234497   5.036   4.808  16.558 -0.0720  0.5123 -0.0143
 4361TIP3    H134498   5.079   4.810  16.643  1.2458 -0.2881 -0.6276
 4361TIP3    H234499   5.102   4.772  16.498 -1.0923  0.6860 -1.3001
 4362TIP3   OH234500   5.180   5.342   3.405  0.0149  0.0625  0.1461
 4362TIP3    H134501   5.150   5.252   3.419 -0.3677  0.3293  1.0834
 4362TIP3    H234502   5.159   5.359   3.313  2.8288 -1.8034 -0.9782
 4363TIP3   OH234503   5.614   0.516   3.200  0.7275  0.5627  0.1735
 4363TIP3    H134504   5.690   0.570   3.221 -0.0368  1.9394 -0.4552
 4363TIP3    H234505   5.554   0.575   3.154  0.2165 -1.0360 -1.3305
 4364TIP3   OH234506   2.733   3.857  14.242  0.5574  0.4525  0.3006
 4364TIP3    H134507   2.730   3.944  14.283  2.5483  1.2314 -1.0688
 4364TIP3    H234508   2.675   3.804  14.296 -0.6275  2.5817  1.2730
 4365TIP3   OH234509   0.084   2.494   0.428 -0.2088  0.1135 -0.4567
 4365TIP3    H134510   0.178   2.487   0.412 -0.1251  0.1405  0.0103
 4365TIP3    H234511   0.044   2.445   0.356  0.1349  0.5969 -0.9847
 4366TIP3   OH234512   6.568   2.270   1.036  0.3288 -0.2799  0.0620
 4366TIP3    H134513   6.538   2.360   1.044 -0.4629 -0.5252 -0.0029
 4366TIP3    H234514   6.536   2.227   1.115  2.4804 -0.0460  1.1075
 4367TIP3   OH234515   6.652   0.203  16.832  0.3124 -0.2748 -0.3578
 4367TIP3    H134516   6.689   0.270  16.775  0.1862  0.0516 -0.0529
 4367TIP3    H234517   6.659   0.239  16.920  1.7692 -1.3347  0.0053
 4368TIP3   OH234518   6.442   1.145   5.516 -0.1435 -0.5423  0.4526
 4368TIP3    H134519   6.390   1.135   5.436 -1.0342  0.0313  0.9433
 4368TIP3    H234520   6.527   1.177   5.485  0.4241 -2.7764 -0.4940
 4369TIP3   OH234521   4.505   3.136  15.738 -0.5137 -0.1945 -0.1208
 4369TIP3    H134522   4.489   3.104  15.649  0.8751 -0.1594 -0.4083
 4369TIP3    H234523   4.567   3.209  15.726 -0.3417 -0.1735  0.8719
 4370TIP3   OH234524   6.305   1.998   2.496 -0.1773  0.4163 -0.2302
 4370TIP3    H134525   6.398   1.985   2.517 -0.4306 -1.1658  0.0800
 4370TIP3    H234526   6.265   2.020   2.580 -0.4332 -1.3022  0.1511
 4371TIP3   OH234527   1.710   0.476  12.169  0.3406 -0.4960  0.0798
 4371TIP3    H134528   1.707   0.504  12.260  1.0429 -2.4142  0.7452
 4371TIP3    H234529   1.762   0.542  12.125  0.1685  0.3473  1.1058
 4372TIP3   OH234530   1.486   5.705   0.696 -0.0585 -0.5200  0.5677
 4372TIP3    H134531   1.413   5.673   0.750 -0.0944  0.5853  1.2128
 4372TIP3    H234532   1.478   5.801   0.700  0.2342 -0.4039 -1.0218
 4373TIP3   OH234533   1.635   4.618   1.502  0.8753  0.4904 -0.0810
 4373TIP3    H134534   1.544   4.591   1.488  1.6687 -0.9460 -3.0968
 4373TIP3    H234535   1.637   4.709   1.472 -0.2250  1.8365  3.4065
 4374TIP3   OH234536   4.370   4.743  11.453  0.0352 -0.0551 -0.4062
 4374TIP3    H134537   4.352   4.649  11.443 -1.4438  0.2650 -0.9230
 4374TIP3    H234538   4.399   4.771  11.366 -2.3276  0.5213 -1.0722
 4375TIP3   OH234539   3.924   5.162   3.781  0.3118 -0.3942  0.3866
 4375TIP3    H134540   3.840   5.185   3.819  0.5764 -0.4092  0.9810
 4375TIP3    H234541   3.933   5.068   3.796 -0.4603 -0.8022 -1.4400
 4376TIP3   OH234542   3.160   5.000   1.435  0.3886  0.6034  0.0818
 4376TIP3    H134543   3.189   5.069   1.376  0.3413  1.0867  0.6168
 4376TIP3    H234544   3.066   5.015   1.445  0.4130  0.5785  0.3484
 4377TIP3   OH234545   5.717   3.456  12.568 -0.3274  0.6552 -0.3852
 4377TIP3    H134546   5.799   3.440  12.520 -0.9068  0.7955 -1.4566
 4377TIP3    H234547   5.712   3.552  12.575 -0.2484  0.6348 -0.0534
 4378TIP3   OH234548   5.208   2.260  14.262 -0.0717 -0.1358  0.1508
 4378TIP3    H134549   5.257   2.332  14.223 -0.4434  0.6949  1.1635
 4378TIP3    H234550   5.269   2.220  14.324 -0.7054  1.1236  1.6785
 4379TIP3   OH234551   3.851   6.340  15.976  0.0636 -0.4238 -0.6100
 4379TIP3    H134552   3.863   6.273  15.909 -0.1565 -0.2108 -0.8661
 4379TIP3    H234553   3.879   6.422  15.934  0.2284 -0.3368 -0.3369
 4380TIP3   OH234554   0.325   0.722  12.959  0.1337 -0.0648  0.0993
 4380TIP3    H134555   0.317   0.814  12.984 -1.1462 -0.0847 -0.1621
 4380TIP3    H234556   0.411   0.715  12.917 -0.2305  1.2773 -0.9415
 4381TIP3   OH234557   4.888   5.422   3.777  0.1710 -0.2091  0.1960
 4381TIP3    H134558   4.795   5.406   3.766  0.3031 -1.1955  0.4392
 4381TIP3    H234559   4.927   5.335   3.785  1.3263  0.0984 -1.5791
 4382TIP3   OH234560   5.438   4.630   1.867  0.1127  0.1885  0.1496
 4382TIP3    H134561   5.444   4.534   1.873  0.3849  0.0994 -1.1688
 4382TIP3    H234562   5.528   4.660   1.872  0.0084  0.4060  0.8086
 4383TIP3   OH234563   5.766   3.941  14.454 -0.1667 -0.7315  0.3268
 4383TIP3    H134564   5.760   3.884  14.530  1.8373 -3.4568 -1.4067
 4383TIP3    H234565   5.695   3.912  14.396  0.5963 -1.2082 -0.3861
 4384TIP3   OH234566   2.671   2.155   3.862 -0.2765 -0.2811  0.2729
 4384TIP3    H134567   2.703   2.193   3.944  1.1439 -0.3516 -0.2150
 4384TIP3    H234568   2.722   2.199   3.794 -1.4703 -0.1903 -0.5846
 4385TIP3   OH234569   5.878   4.221   1.987  0.5292  0.5779 -0.5253
 4385TIP3    H134570   5.855   4.303   1.943  2.6099  0.9287 -1.1181
 4385TIP3    H234571   5.915   4.248   2.071 -0.9139  0.0677  0.3043
 4386TIP3   OH234572   5.888   1.426   0.816 -0.3205 -0.0451 -0.0008
 4386TIP3    H134573   5.803   1.382   0.816 -0.8262  0.8637 -1.2828
 4386TIP3    H234574   5.868   1.518   0.834  0.3852  0.1849 -0.3407
 4387TIP3   OH234575   5.328   5.187  15.685  0.1148  0.5262 -0.0876
 4387TIP3    H134576   5.256   5.134  15.720 -0.0710  0.4915 -0.5181
 4387TIP3    H234577   5.298   5.278  15.695 -0.7020  0.4885 -1.7176
 4388TIP3   OH234578   1.579   4.136  12.015  0.7369  0.4252 -0.2182
 4388TIP3    H134579   1.659   4.129  11.962 -0.2112  1.1564 -1.8315
 4388TIP3    H234580   1.582   4.224  12.052  1.5755 -0.2086  1.3167
 4389TIP3   OH234581   3.255   4.641   2.055 -0.2037 -0.4125  0.3673
 4389TIP3    H134582   3.320   4.603   2.114  2.1108  2.4691 -0.0669
 4389TIP3    H234583   3.267   4.593   1.973  2.4756  0.8708 -0.1100
 4390TIP3   OH234584   0.438   6.355   5.389  0.2133 -0.0648  0.1766
 4390TIP3    H134585   0.433   6.372   5.483  0.3865 -2.0084  0.5607
 4390TIP3    H234586   0.402   6.434   5.349  0.1520  0.8035  1.8624
 4391TIP3   OH234587   6.071   3.965  17.066 -0.0137 -0.3749 -0.0342
 4391TIP3    H134588   5.984   3.974  17.105 -0.3841 -0.6700 -0.7678
 4391TIP3    H234589   6.131   3.965  17.140 -0.6240  0.0286  0.4678
 4392TIP3   OH234590   6.511   3.690  11.856  0.1319  0.1883  0.1493
 4392TIP3    H134591   6.489   3.751  11.926  1.5016 -0.6952  1.4157
 4392TIP3    H234592   6.595   3.652  11.883  1.5752  1.0509 -2.8110
 4393TIP3   OH234593   2.940   1.444  15.404 -0.0988 -0.4703 -0.1770
 4393TIP3    H134594   3.034   1.446  15.422 -0.1111 -0.1244 -0.1468
 4393TIP3    H234595   2.922   1.353  15.379 -0.0295 -0.9085  1.2799
 4394TIP3   OH234596   5.006   6.718   2.987 -0.3489  0.3551 -0.7840
 4394TIP3    H134597   4.972   6.697   2.900  1.4791 -0.5291 -1.3506
 4394TIP3    H234598   5.051   6.638   3.015  0.7882  1.2582  0.0932
 4395TIP3   OH234599   5.611   0.313   6.929  0.0607 -0.3099 -0.4476
 4395TIP3    H134600   5.541   0.352   6.981 -0.9385  0.5957 -2.3788
 4395TIP3    H234601   5.685   0.373   6.940  0.4132 -0.9827  1.1618
 4396TIP3   OH234602   1.822   6.077  10.855 -0.6086  0.0369  0.1761
 4396TIP3    H134603   1.764   6.077  10.931 -2.3756  1.7105 -1.0933
 4396TIP3    H234604   1.900   6.124  10.884 -1.1467  0.4297  1.0212
 4397TIP3   OH234605   2.991   1.785  13.975 -0.3435 -0.5416 -0.2775
 4397TIP3    H134606   3.024   1.752  14.058 -1.2115 -1.1805 -0.1651
 4397TIP3    H234607   2.900   1.808  13.994  0.1549  1.7472 -0.4153
 4398TIP3   OH234608   5.401   3.126  13.993  0.0865 -0.1644 -0.0752
 4398TIP3    H134609   5.486   3.170  14.001  0.7677 -0.9843 -2.1969
 4398TIP3    H234610   5.342   3.194  13.959  0.5132 -0.2093 -0.9278
 4399TIP3   OH234611   4.833   1.290  12.652  0.7429  0.2319  0.0140
 4399TIP3    H134612   4.822   1.305  12.746  2.0055 -0.6440  0.3268
 4399TIP3    H234613   4.745   1.268  12.620  0.5909 -1.1975  1.3253
 4400TIP3   OH234614   0.999   4.453   5.385 -0.0004 -0.5671  0.0669
 4400TIP3    H134615   1.078   4.506   5.372 -1.9124  2.4413 -0.2419
 4400TIP3    H234616   0.986   4.451   5.479  1.0015 -2.0426  0.2001
 4401TIP3   OH234617   2.414   1.586  11.894  0.8929 -1.1657  0.8371
 4401TIP3    H134618   2.497   1.633  11.894 -0.2997  1.0810  0.2705
 4401TIP3    H234619   2.377   1.602  11.980 -0.3722  0.6722  0.0227
 4402TIP3   OH234620   1.787   2.433  13.833 -0.2438  0.3259 -0.1271
 4402TIP3    H134621   1.858   2.470  13.886  0.3582 -0.6084 -0.2523
 4402TIP3    H234622   1.813   2.341  13.818 -1.7574 -0.1992  0.2993
 4403TIP3   OH234623   1.146   2.136   5.249  0.1750 -0.5305 -0.1733
 4403TIP3    H134624   1.174   2.228   5.244 -1.8117  0.0717 -1.4588
 4403TIP3    H234625   1.186   2.104   5.330  1.4755  1.2668 -0.0385
 4404TIP3   OH234626   5.631   6.259   5.266  0.2218  0.4066 -0.0131
 4404TIP3    H134627   5.590   6.343   5.286 -0.0118  0.7157 -1.6327
 4404TIP3    H234628   5.664   6.269   5.176  0.4652 -1.1231 -0.1219
 4405TIP3   OH234629   1.607   3.864   1.212 -0.0112 -0.0380  0.5533
 4405TIP3    H134630   1.659   3.856   1.132 -1.1091 -0.3538 -0.1424
 4405TIP3    H234631   1.670   3.847   1.283  1.6372  2.8496 -0.0302
 4406TIP3   OH234632   0.753   2.099   4.935 -0.0389 -0.1308  0.4592
 4406TIP3    H134633   0.700   2.161   4.985 -1.0761 -0.4798 -0.1560
 4406TIP3    H234634   0.838   2.098   4.978 -0.1842  1.2825  0.8252
 4407TIP3   OH234635   0.532   2.769  14.755  0.5622 -0.1625  0.2330
 4407TIP3    H134636   0.560   2.828  14.685  0.3257  1.4073  1.4215
 4407TIP3    H234637   0.593   2.695  14.749  1.8427  0.8954 -0.3381
 4408TIP3   OH234638   2.366   1.614   5.162 -0.1185 -0.1926 -0.1712
 4408TIP3    H134639   2.379   1.620   5.067 -0.8874 -0.7775 -0.3281
 4408TIP3    H234640   2.280   1.655   5.176  0.4592  0.8610  0.4214
 4409TIP3   OH234641   3.171   5.870   1.148  0.0849 -0.0544  0.7774
 4409TIP3    H134642   3.167   5.809   1.222  1.0801 -1.3272 -0.1808
 4409TIP3    H234643   3.211   5.949   1.185  1.8386 -1.1385  1.3428
 4410TIP3   OH234644   3.377   2.894  12.218  0.4094  0.2170  0.4383
 4410TIP3    H134645   3.312   2.914  12.150 -0.2561  1.1848  1.3178
 4410TIP3    H234646   3.324   2.877  12.296  1.1962  1.9444  1.4094
 4411TIP3   OH234647   2.515   0.550   2.929 -0.1416  0.1888  0.1730
 4411TIP3    H134648   2.419   0.543   2.932 -0.0784 -0.4215  1.5030
 4411TIP3    H234649   2.538   0.593   3.011  0.8005 -0.6547  0.3590
 4412TIP3   OH234650   4.120   6.632  13.120 -0.3960  0.3524 -0.1768
 4412TIP3    H134651   4.149   6.639  13.211 -1.3676  2.4402  0.0372
 4412TIP3    H234652   4.147   6.544  13.092 -1.0964 -0.7901  2.4695
 4413TIP3   OH234653   1.028   1.653  10.846 -0.0516 -0.6538 -0.0103
 4413TIP3    H134654   1.008   1.729  10.901 -1.5984 -1.2786  0.3342
 4413TIP3    H234655   1.058   1.691  10.764 -0.4422  0.3305  0.2827
 4414TIP3   OH234656   4.648   6.530   0.678 -0.7147 -0.0153  0.6428
 4414TIP3    H134657   4.563   6.501   0.645 -1.2355  0.0063  1.9046
 4414TIP3    H234658   4.710   6.503   0.611 -1.7413  0.1713 -0.4114
 4415TIP3   OH234659   3.181   3.475  12.414 -0.0291  0.1355  0.2970
 4415TIP3    H134660   3.109   3.432  12.368 -1.1834  0.5459  1.6329
 4415TIP3    H234661   3.260   3.444  12.370 -0.9416 -1.4313 -0.3239
 4416TIP3   OH234662   2.926   0.855   3.571  0.1388 -0.1679 -0.5932
 4416TIP3    H134663   2.969   0.915   3.511  1.8449  0.0417  0.7813
 4416TIP3    H234664   2.990   0.786   3.587 -0.5019 -0.5332  0.5361
 4417TIP3   OH234665   0.505   0.784   1.155  1.2185  0.1276  0.1466
 4417TIP3    H134666   0.572   0.853   1.155  1.9736 -0.5317  1.6520
 4417TIP3    H234667   0.556   0.702   1.148  0.5131 -0.3530  0.5287
 4418TIP3   OH234668   4.380   6.238   2.024  0.2151 -0.0811 -0.1392
 4418TIP3    H134669   4.366   6.290   2.103  1.3819 -1.4926  1.0484
 4418TIP3    H234670   4.332   6.157   2.040  0.7833 -0.5373 -0.7138
 4419TIP3   OH234671   2.404   4.964   0.076  0.1822  0.4850 -0.4101
 4419TIP3    H134672   2.345   4.906   0.124  0.6542 -0.3525 -0.8055
 4419TIP3    H234673   2.481   4.910   0.058  0.0763  0.8054 -1.9820
 4420TIP3   OH234674   0.466   0.215  11.565  0.6865  0.1875 -0.1653
 4420TIP3    H134675   0.495   0.293  11.612 -1.4662  0.5604  0.6284
 4420TIP3    H234676   0.508   0.222  11.479  0.9053  1.9605  0.0559
 4421TIP3   OH234677   0.302   0.487   3.001 -0.1526  0.8184 -0.1971
 4421TIP3    H134678   0.328   0.576   3.025 -0.7919  0.4357  2.1493
 4421TIP3    H234679   0.212   0.479   3.032 -0.1326 -0.6108 -0.4416
 4422TIP3   OH234680   5.708   2.596   1.515  0.7712 -0.1131 -0.7232
 4422TIP3    H134681   5.679   2.558   1.598 -0.1454 -1.6940 -1.7319
 4422TIP3    H234682   5.651   2.673   1.503  1.7024  0.8523  0.6403
 4423TIP3   OH234683   0.077   1.187   1.975  0.0162 -0.1669  0.0646
 4423TIP3    H134684   0.032   1.236   1.906 -0.6223  0.6860  1.0493
 4423TIP3    H234685   0.168   1.184   1.947 -0.3422 -0.3781 -1.1094
 4424TIP3   OH234686   0.048   4.396   0.239 -0.6807  0.1394  1.0054
 4424TIP3    H134687   0.008   4.348   0.166  0.5632 -0.5488  0.7527
 4424TIP3    H234688   0.041   4.488   0.213  0.2914 -0.1287 -0.2847
 4425TIP3   OH234689   0.398   4.348   2.187 -0.4684 -0.7999 -0.7824
 4425TIP3    H134690   0.346   4.365   2.109 -1.4637  1.0642  0.2329
 4425TIP3    H234691   0.372   4.415   2.250  1.2466 -1.4326  0.7231
 4426TIP3   OH234692   2.914   6.323   0.289 -0.0892 -0.9992 -0.5329
 4426TIP3    H134693   2.929   6.292   0.378  0.1168  1.2675  0.2761
 4426TIP3    H234694   2.821   6.345   0.286  0.4455  1.6813  0.1274
 4427TIP3   OH234695   2.930   6.402   5.520  0.4221  0.3106  0.2698
 4427TIP3    H134696   3.011   6.358   5.547 -1.5621 -2.4711  2.2198
 4427TIP3    H234697   2.906   6.455   5.595 -1.0790 -1.3211  1.0112
 4428TIP3   OH234698   6.188   6.115  11.251 -0.0040 -0.0774 -0.1182
 4428TIP3    H134699   6.283   6.114  11.262  0.0541 -0.5976 -0.6412
 4428TIP3    H234700   6.172   6.063  11.173 -0.8091 -1.1064  0.6974
 4429TIP3   OH234701   5.876   6.146   4.817  0.0718  0.5414  0.3660
 4429TIP3    H134702   5.963   6.152   4.778  0.4719 -0.7834  1.0158
 4429TIP3    H234703   5.873   6.060   4.858 -2.5759 -0.7337 -2.1082
 4430TIP3   OH234704   6.282   3.484   0.162  0.1485  0.4977 -0.0846
 4430TIP3    H134705   6.219   3.422   0.198 -0.1420  1.4530  1.1026
 4430TIP3    H234706   6.252   3.500   0.072  0.1417 -0.9280 -0.3728
 4431TIP3   OH234707   5.207   4.533   5.483  0.4334  0.2732 -0.4232
 4431TIP3    H134708   5.254   4.567   5.560  1.6211 -2.8164  0.3851
 4431TIP3    H234709   5.232   4.591   5.412  0.2175  2.5695  1.2697
 4432TIP3   OH234710   2.827   6.257   4.825  0.6698  0.6309 -0.4038
 4432TIP3    H134711   2.847   6.163   4.829  1.2687  0.7901  0.5816
 4432TIP3    H234712   2.750   6.262   4.769  0.8432 -0.4177 -0.7684
 4433TIP3   OH234713   6.424   0.981  13.698 -0.0285 -0.2683  0.2423
 4433TIP3    H134714   6.430   1.054  13.636 -0.7339 -0.1237  0.3326
 4433TIP3    H234715   6.331   0.959  13.700  0.0562 -0.5986  0.8730
 4434TIP3   OH234716   0.340   6.263  12.392  0.4438  0.0806  0.3727
 4434TIP3    H134717   0.381   6.298  12.472 -0.5667  1.3741  0.3644
 4434TIP3    H234718   0.272   6.205  12.423  0.1140  0.5104  0.4676
 4435TIP3   OH234719   3.360   6.532   0.291 -0.4682  0.0958 -0.0554
 4435TIP3    H134720   3.367   6.588   0.368  1.9494 -0.0000 -0.1176
 4435TIP3    H234721   3.350   6.444   0.327 -0.9795  0.2116  0.0994
 4436TIP3   OH234722   4.033   2.566   5.847 -0.0586 -0.1862  0.4096
 4436TIP3    H134723   4.080   2.491   5.884 -0.5132 -0.8648 -0.3640
 4436TIP3    H234724   3.975   2.595   5.917 -0.9362 -1.4776  0.2399
 4437TIP3   OH234725   5.760   3.817   4.978  0.4657  0.3868  0.1954
 4437TIP3    H134726   5.759   3.824   4.883  2.7857 -0.3266  0.0505
 4437TIP3    H234727   5.836   3.869   5.005  1.0227 -1.0091  1.4675
 4438TIP3   OH234728   5.145   6.484   5.073  0.7834  0.6591  0.2413
 4438TIP3    H134729   5.187   6.473   5.159 -0.8047  0.2530  1.0093
 4438TIP3    H234730   5.051   6.490   5.093  0.2509 -0.6384 -1.5462
 4439TIP3   OH234731   1.505   3.380   0.643  0.0770  0.5784  0.1837
 4439TIP3    H134732   1.591   3.352   0.676 -0.6277 -0.5613  1.1005
 4439TIP3    H234733   1.516   3.382   0.548  0.9385 -0.1542  0.2565
 4440TIP3   OH234734   5.142   1.374  13.635 -0.2039 -0.2636  0.0664
 4440TIP3    H134735   5.082   1.381  13.709  0.7909 -0.8440  0.9586
 4440TIP3    H234736   5.114   1.441  13.573 -1.5603 -0.3214  0.6070
 4441TIP3   OH234737   4.959   1.238  15.199  0.5025 -0.2385  0.1569
 4441TIP3    H134738   4.955   1.146  15.174 -1.1410 -0.3602  0.7822
 4441TIP3    H234739   4.882   1.278  15.160 -0.1320  0.3387  1.8961
 4442TIP3   OH234740   1.763   0.338   0.455 -0.1339  0.6195  0.2374
 4442TIP3    H134741   1.777   0.342   0.360  0.5420  1.7495  0.3718
 4442TIP3    H234742   1.784   0.426   0.486  2.7151 -0.4972  1.8281
 4443TIP3   OH234743   2.173   1.784  17.068 -0.2980  0.4325  0.2000
 4443TIP3    H134744   2.126   1.736  17.136  0.9309 -0.4270  0.5032
 4443TIP3    H234745   2.113   1.787  16.994  0.0449 -2.9700 -0.3684
 4444TIP3   OH234746   4.652   2.510  15.675 -0.3393 -0.7033  0.4374
 4444TIP3    H134747   4.608   2.593  15.658  1.3257  0.5879  2.0884
 4444TIP3    H234748   4.580   2.447  15.685 -1.6310  0.3546 -1.3789
 4445TIP3   OH234749   1.812   5.563   1.086 -0.3321  0.2318 -0.8935
 4445TIP3    H134750   1.901   5.595   1.070 -0.2881 -0.0218 -1.1716
 4445TIP3    H234751   1.805   5.557   1.181 -0.2914  0.9199 -0.8378
 4446TIP3   OH234752   1.009   0.779   4.458  0.6812  0.0086 -0.0530
 4446TIP3    H134753   1.021   0.854   4.515  1.6086  0.2869 -0.6004
 4446TIP3    H234754   0.915   0.776   4.441  0.6336  1.0033  0.0298
 4447TIP3   OH234755   1.116   6.189  15.621  0.7081 -0.0187 -0.1436
 4447TIP3    H134756   1.192   6.246  15.615 -0.8201  2.3502  1.1439
 4447TIP3    H234757   1.072   6.198  15.537  0.4792  0.7735  0.0482
 4448TIP3   OH234758   1.290   5.934  15.307  0.0844  0.5231  0.0824
 4448TIP3    H134759   1.369   5.909  15.355  0.9225 -0.2028 -1.5912
 4448TIP3    H234760   1.314   5.926  15.215 -2.1504 -0.3704 -0.4899
 4449TIP3   OH234761   3.216   3.393  13.025 -0.0554  0.0653 -0.1362
 4449TIP3    H134762   3.150   3.447  12.980  0.7240  0.6166 -0.6443
 4449TIP3    H234763   3.215   3.425  13.115  1.5446  2.1494 -0.7687
 4450TIP3   OH234764   0.624   6.551  13.326 -0.3439  0.8727 -0.8421
 4450TIP3    H134765   0.598   6.548  13.234 -2.5802 -0.8124 -0.2476
 4450TIP3    H234766   0.574   6.624  13.362  1.8894  2.7144 -1.2397
 4451TIP3   OH234767   3.078   4.849  14.773 -0.3142  0.5026 -1.2106
 4451TIP3    H134768   3.000   4.901  14.754 -0.7873  0.6177  0.8088
 4451TIP3    H234769   3.045   4.768  14.812  0.5331  0.1620 -1.1754
 4452TIP3   OH234770   3.221   5.492  13.347  0.7235 -0.2983  0.2590
 4452TIP3    H134771   3.274   5.487  13.267  2.7157 -2.2151  1.5861
 4452TIP3    H234772   3.265   5.556  13.401 -0.0325  0.2442  0.2418
 4453TIP3   OH234773   1.345   3.515   5.384 -0.0244 -0.0048 -0.4243
 4453TIP3    H134774   1.307   3.576   5.321  0.8680  0.7125 -0.2922
 4453TIP3    H234775   1.421   3.479   5.338  0.1446 -0.1062 -0.0639
 4454TIP3   OH234776   5.190   6.552   6.558  0.0006 -0.5682  0.6873
 4454TIP3    H134777   5.240   6.623   6.599  0.3911  0.4641 -1.4170
 4454TIP3    H234778   5.126   6.598   6.503 -0.4397 -1.8693  0.0788
 4455TIP3   OH234779   2.720   1.362   4.803 -0.0308 -0.1578  0.4687
 4455TIP3    H134780   2.780   1.301   4.846 -0.2394 -0.5799  0.1614
 4455TIP3    H234781   2.640   1.358   4.856 -0.9809 -2.1011 -0.9721
 4456TIP3   OH234782   2.021   4.337   0.739  0.1144  0.3454  0.5949
 4456TIP3    H134783   1.975   4.254   0.724  1.9037 -0.9193  1.7286
 4456TIP3    H234784   2.048   4.333   0.831  1.0900  1.7436  0.4033
 4457TIP3   OH234785   0.943   3.773   1.541 -0.4138 -0.4706 -1.0092
 4457TIP3    H134786   0.996   3.694   1.527 -0.2196 -0.4684 -0.2894
 4457TIP3    H234787   0.858   3.740   1.569 -0.1238 -0.4088 -0.0367
 4458TIP3   OH234788   4.494   2.437   0.877 -0.0535  0.1253  0.2644
 4458TIP3    H134789   4.446   2.375   0.931  1.1967 -0.0401  1.2525
 4458TIP3    H234790   4.489   2.402   0.788  0.1277 -1.0761  0.7118
 4459TIP3   OH234791   6.069   4.264  14.023  0.7409  0.1589  0.1516
 4459TIP3    H134792   6.163   4.272  14.004  0.8864  0.7530  1.0780
 4459TIP3    H234793   6.047   4.174  14.002  1.2175  0.3728 -1.3917
 4460TIP3   OH234794   4.868   6.730  11.418  0.0766 -0.1480  0.0419
 4460TIP3    H134795   4.908   6.693  11.497  0.8893  1.7984  0.6012
 4460TIP3    H234796   4.829   6.813  11.447 -1.5777 -0.4460 -1.1749
 4461TIP3   OH234797   4.278   2.705   1.397 -0.5906 -0.0872 -0.2629
 4461TIP3    H134798   4.225   2.655   1.335 -1.0863  1.2970 -0.9887
 4461TIP3    H234799   4.325   2.638   1.447  0.5342 -1.2435 -2.6983
 4462TIP3   OH234800   6.739   4.599  15.419  0.4498  0.7050 -0.2943
 4462TIP3    H134801   6.809   4.544  15.386  0.0027  0.6952 -1.2506
 4462TIP3    H234802   6.670   4.594  15.353 -0.1910  1.2419  0.3042
 4463TIP3   OH234803   3.167   6.491  14.332 -0.6444 -0.3077  0.4166
 4463TIP3    H134804   3.243   6.523  14.284 -0.4487 -0.7955  0.3907
 4463TIP3    H234805   3.182   6.397  14.341 -1.1545 -0.3804  0.5751
 4464TIP3   OH234806   3.393   2.758   5.787 -0.2410  0.5127  0.1276
 4464TIP3    H134807   3.298   2.756   5.783 -0.1892 -1.3409 -1.6265
 4464TIP3    H234808   3.417   2.847   5.762 -1.4741  0.1191 -2.8298
 4465TIP3   OH234809   4.718   5.333  16.995  0.1905  0.3543  0.2149
 4465TIP3    H134810   4.775   5.397  16.952  0.5246 -0.6307 -0.8439
 4465TIP3    H234811   4.630   5.369  16.985  0.3317  0.4559 -0.7239
 4466TIP3   OH234812   0.029   0.510   2.938  0.4613 -0.3099  0.0608
 4466TIP3    H134813  -0.046   0.568   2.952 -0.7210 -2.1252  1.9022
 4466TIP3    H234814  -0.007   0.436   2.888  1.2258 -0.8073  0.2311
 4467TIP3   OH234815   2.394   2.919   3.492  0.5840  0.3531 -0.4694
 4467TIP3    H134816   2.401   2.946   3.400  2.2693 -0.1348 -0.5123
 4467TIP3    H234817   2.354   2.994   3.536  2.7778  1.9355 -1.0308
 4468TIP3   OH234818   5.178   0.325  13.177  0.1507 -0.2217  0.8019
 4468TIP3    H134819   5.226   0.405  13.157 -2.2843  0.5835 -2.8127
 4468TIP3    H234820   5.105   0.354  13.232 -2.0200  0.7640 -2.2641
 4469TIP3   OH234821   4.211   1.463   5.668  0.4426 -0.2547  0.0190
 4469TIP3    H134822   4.145   1.478   5.735 -0.6876  0.1885 -1.1395
 4469TIP3    H234823   4.291   1.442   5.716 -0.0629  1.0955  1.5187
 4470TIP3   OH234824   6.634   3.951   1.480 -0.2356 -0.3629  0.2094
 4470TIP3    H134825   6.581   4.017   1.434 -1.0125 -0.9006  0.3271
 4470TIP3    H234826   6.702   3.927   1.417 -2.0444 -2.0582 -1.2226
 4471TIP3   OH234827   6.260   2.808  13.732  0.2490 -0.5799 -0.2965
 4471TIP3    H134828   6.216   2.754  13.797  0.8930 -1.2209 -0.3748
 4471TIP3    H234829   6.260   2.896  13.769  3.8774 -1.4839  2.4176
 4472TIP3   OH234830   2.897   3.843  11.293 -0.3291  0.1331 -0.0639
 4472TIP3    H134831   2.909   3.810  11.382 -0.0110  0.6441  0.0835
 4472TIP3    H234832   2.815   3.803  11.264 -0.1120 -0.5314  0.2270
 4473TIP3   OH234833   6.345   0.274  15.610 -0.0975  0.1038 -0.0567
 4473TIP3    H134834   6.308   0.356  15.643 -0.3979 -0.2134  0.4107
 4473TIP3    H234835   6.295   0.256  15.530 -1.3838 -0.6252  0.8814
 4474TIP3   OH234836   0.891   0.536   0.886  0.6356  0.2135  0.3626
 4474TIP3    H134837   0.946   0.568   0.957  1.4312  1.0763 -0.6052
 4474TIP3    H234838   0.946   0.543   0.808 -0.7219  0.7635 -0.5838
 4475TIP3   OH234839   3.485   5.971  14.223 -0.1818 -0.2272 -0.8981
 4475TIP3    H134840   3.550   6.026  14.267 -0.9618  1.3565 -1.6300
 4475TIP3    H234841   3.536   5.902  14.181  0.8074 -0.2615  0.2966
 4476TIP3   OH234842   3.842   1.228   2.823 -0.3327  0.4801 -0.4166
 4476TIP3    H134843   3.846   1.163   2.893 -0.9715 -0.3415 -1.1099
 4476TIP3    H234844   3.751   1.257   2.823  0.5037  3.6845  1.8469
 4477TIP3   OH234845   3.000   0.119  12.903 -0.0160  0.2008 -1.0204
 4477TIP3    H134846   3.007   0.170  12.983 -0.0232  0.3716 -1.1295
 4477TIP3    H234847   2.915   0.142  12.867  0.0868  0.3018 -1.2006
 4478TIP3   OH234848   5.670   6.472   2.979  0.5718 -0.6573 -0.0659
 4478TIP3    H134849   5.764   6.461   2.990  0.3402 -1.7470  0.9835
 4478TIP3    H234850   5.641   6.517   3.058  0.4879  1.6292 -1.3170
 4479TIP3   OH234851   2.669   0.580   4.506  0.2485  0.0130 -0.7546
 4479TIP3    H134852   2.610   0.633   4.560  0.1572  0.9539 -1.7437
 4479TIP3    H234853   2.703   0.514   4.566 -1.7297 -0.4993 -0.1231
 4480TIP3   OH234854   3.538   0.728   4.549 -0.5785 -0.7960 -0.1539
 4480TIP3    H134855   3.613   0.739   4.491 -0.2435 -1.7890  0.0823
 4480TIP3    H234856   3.563   0.775   4.629 -0.5448 -0.4419 -0.3721
 4481TIP3   OH234857   0.518   1.397  16.687 -0.3223  0.0080 -0.1134
 4481TIP3    H134858   0.449   1.390  16.622  1.0926 -1.6927 -1.5449
 4481TIP3    H234859   0.493   1.335  16.755 -1.3173  1.0803  0.5286
 4482TIP3   OH234860   6.466   1.511  11.734 -0.5463 -0.2773 -0.8695
 4482TIP3    H134861   6.551   1.556  11.738 -0.9348  0.3782  0.3530
 4482TIP3    H234862   6.414   1.551  11.803 -1.1703 -2.0988 -0.2308
 4483TIP3   OH234863   4.318   6.402   4.774  0.2681  0.2251 -0.3215
 4483TIP3    H134864   4.227   6.434   4.770 -0.6516 -1.5627  2.6980
 4483TIP3    H234865   4.365   6.469   4.823 -0.4893 -0.6886  1.7465
 4484TIP3   OH234866   4.598   2.080  12.997 -0.1993  0.1671  0.1841
 4484TIP3    H134867   4.505   2.102  12.992 -0.3463 -0.4327  0.2281
 4484TIP3    H234868   4.623   2.063  12.906  0.1882  1.5803  0.0040
 4485TIP3   OH234869   2.382   2.173  16.799  0.0962  0.0485  0.3335
 4485TIP3    H134870   2.450   2.167  16.865  0.3498  0.8105  0.1441
 4485TIP3    H234871   2.302   2.144  16.844  0.2092  0.8465  1.0645
 4486TIP3   OH234872   5.166   1.170   0.875 -0.4534 -0.0643 -0.3757
 4486TIP3    H134873   5.094   1.172   0.812 -0.1936 -0.5547 -0.6897
 4486TIP3    H234874   5.209   1.255   0.865  1.9773 -1.5163 -3.6561
 4487TIP3   OH234875   5.560   3.448  16.669  0.1790  0.4338  0.9352
 4487TIP3    H134876   5.520   3.464  16.583  1.1344 -0.3585  0.3172
 4487TIP3    H234877   5.488   3.455  16.731 -0.8462 -0.6084 -0.1038
 4488TIP3   OH234878   5.161   6.441   6.060 -0.1448 -0.3194  0.5508
 4488TIP3    H134879   5.196   6.529   6.046  1.0213 -0.7247  0.7854
 4488TIP3    H234880   5.123   6.417   5.976 -1.2071  0.7013  0.7029
 4489TIP3   OH234881   6.202   6.470  16.432  0.1465  0.2925 -0.2980
 4489TIP3    H134882   6.277   6.415  16.410  0.5653 -0.5236  2.6744
 4489TIP3    H234883   6.136   6.409  16.464 -0.5331  1.2588  0.2163
 4490TIP3   OH234884   1.552   5.553  15.297 -0.4009  0.3925 -0.0331
 4490TIP3    H134885   1.569   5.464  15.265  0.7230  0.0166  1.5069
 4490TIP3    H234886   1.464   5.549  15.334 -0.2378 -0.1669  0.3014
 4491TIP3   OH234887   3.562   3.387  13.977  0.4596  0.0332  0.1708
 4491TIP3    H134888   3.468   3.403  13.972  0.7192  1.8845  0.4583
 4491TIP3    H234889   3.577   3.309  13.923 -1.2109 -0.2183  0.0389
 4492TIP3   OH234890   2.740   3.308  11.738 -0.2878 -0.4554 -0.0105
 4492TIP3    H134891   2.821   3.278  11.696  1.1664 -0.6736  2.7069
 4492TIP3    H234892   2.763   3.392  11.777 -0.8311 -1.1809  2.0404
 4493TIP3   OH234893   1.216   6.683  12.478  0.1239 -0.0001 -0.4926
 4493TIP3    H134894   1.155   6.651  12.412 -0.5062  0.9331 -0.3879
 4493TIP3    H234895   1.251   6.604  12.519 -2.0622 -0.5995  0.3879
 4494TIP3   OH234896   4.391   1.517   3.594 -0.1553 -0.0958 -0.3965
 4494TIP3    H134897   4.414   1.486   3.681  0.2267  0.7047 -0.2058
 4494TIP3    H234898   4.296   1.529   3.597 -0.0094  1.0030  0.2746
 4495TIP3   OH234899   0.217   4.316   1.951 -0.1534  0.2299  0.1999
 4495TIP3    H134900   0.268   4.354   1.880 -0.0988 -0.0860  0.0686
 4495TIP3    H234901   0.131   4.358   1.945 -0.1854  0.1141 -0.1259
 4496TIP3   OH234902   2.664   0.067  16.827  0.2733 -0.1302 -0.1496
 4496TIP3    H134903   2.673   0.152  16.869  1.2239  0.5909 -1.7362
 4496TIP3    H234904   2.734   0.014  16.865 -0.5689 -0.3857  1.1423
 4497TIP3   OH234905   1.916   0.359   5.689 -0.2055 -0.1103 -0.3566
 4497TIP3    H134906   1.907   0.452   5.669 -1.4037 -0.2995 -0.7568
 4497TIP3    H234907   1.831   0.321   5.668  0.4985 -1.4433 -0.9619
 4498TIP3   OH234908   1.870   1.450   2.647  0.0982  0.1009  0.1375
 4498TIP3    H134909   1.810   1.414   2.712  0.1217  0.4686  0.3679
 4498TIP3    H234910   1.815   1.507   2.593  0.3334  0.8593  0.6813
 4499TIP3   OH234911   3.041   0.201   0.649 -0.1065 -0.0608  0.0220
 4499TIP3    H134912   3.112   0.177   0.709 -0.8767 -0.1418  0.9360
 4499TIP3    H234913   3.085   0.226   0.568  1.4023  4.2840  1.8759
 4500TIP3   OH234914   3.700   1.583  17.105 -0.3211 -0.1752  0.1851
 4500TIP3    H134915   3.788   1.574  17.141 -0.3349 -0.1071  0.2360
 4500TIP3    H234916   3.675   1.494  17.078  0.8826  0.1915 -2.4647
 4501TIP3   OH234917   5.391   3.412   0.037  0.2641  0.4191  0.4397
 4501TIP3    H134918   5.429   3.347   0.095  1.8988  1.1273  0.2375
 4501TIP3    H234919   5.465   3.467   0.011 -0.7081  1.1372 -0.9784
 4502TIP3   OH234920   5.344   6.136  11.758  0.2046  0.5237 -0.4480
 4502TIP3    H134921   5.256   6.137  11.795  0.3988  2.7818  0.0451
 4502TIP3    H234922   5.357   6.044  11.732 -2.0617  0.0210 -0.0580
 4503TIP3   OH234923   5.267   0.625   2.916 -0.2882 -0.2669  0.4429
 4503TIP3    H134924   5.271   0.549   2.973 -0.4986 -0.1783  0.5780
 4503TIP3    H234925   5.174   0.632   2.892 -0.3078  0.0817  0.6138
 4504TIP3   OH234926   5.206   6.608   2.217  0.5532 -0.0151  0.0804
 4504TIP3    H134927   5.174   6.693   2.247  2.0957  0.1264  1.4297
 4504TIP3    H234928   5.224   6.560   2.298 -0.2688 -1.6495 -0.6566
 4505TIP3   OH234929   1.179   0.155   5.707  0.0332 -0.2122  0.1794
 4505TIP3    H134930   1.181   0.094   5.634  0.6404 -0.8654  0.7219
 4505TIP3    H234931   1.225   0.109   5.778  1.3180  1.2039  0.3291
 4506TIP3   OH234932   5.393   3.485   5.666  0.0492 -0.2435 -0.1032
 4506TIP3    H134933   5.383   3.444   5.581 -1.7979 -0.1391  0.0347
 4506TIP3    H234934   5.345   3.429   5.727  0.1675  0.4311  0.6387
 4507TIP3   OH234935   0.268   5.445   0.874  0.4592 -0.0816 -0.2523
 4507TIP3    H134936   0.311   5.412   0.795  0.3930  0.2542 -0.4329
 4507TIP3    H234937   0.176   5.421   0.863  0.3967  0.2253 -0.4215
 4508TIP3   OH234938   6.354   6.550   5.223  0.0253 -0.3906 -0.3732
 4508TIP3    H134939   6.399   6.552   5.139 -1.4079 -0.2820 -1.1690
 4508TIP3    H234940   6.363   6.459   5.253  2.7887  0.1397  0.6746
 4509TIP3   OH234941   3.115   2.503  16.938 -0.1973 -0.4119  0.6563
 4509TIP3    H134942   3.069   2.435  16.889 -2.0284  1.9356 -1.1247
 4509TIP3    H234943   3.049   2.537  16.999  0.7696 -0.3626  1.7193
 4510TIP3   OH234944   5.218   0.795  14.331 -0.3770 -0.3906 -0.2680
 4510TIP3    H134945   5.142   0.844  14.299 -0.2578 -0.8692 -1.3204
 4510TIP3    H234946   5.280   0.863  14.358 -0.3056  0.0697 -1.5074
 4511TIP3   OH234947   3.623   1.905  16.669  0.5276  0.5897  0.2137
 4511TIP3    H134948   3.528   1.914  16.667  0.4906  0.1840 -1.2299
 4511TIP3    H234949   3.638   1.810  16.662  1.0295  0.7676 -1.5704
 4512TIP3   OH234950   0.763   4.775   4.682  0.0899  0.1911  0.2879
 4512TIP3    H134951   0.818   4.835   4.732  0.7229  1.1771 -1.5068
 4512TIP3    H234952   0.825   4.716   4.639 -0.4189 -0.3902  0.3359
 4513TIP3   OH234953   1.781   3.475   1.058 -0.1480 -0.4960 -0.3192
 4513TIP3    H134954   1.741   3.522   0.985 -1.3542 -0.0799  0.5670
 4513TIP3    H234955   1.746   3.387   1.053  0.8196 -0.8562 -1.0091
 4514TIP3   OH234956   2.545   1.181   3.598  0.3298  0.0731 -0.3708
 4514TIP3    H134957   2.551   1.168   3.503 -2.5460 -1.1420 -0.4934
 4514TIP3    H234958   2.551   1.092   3.634 -2.1616  0.0918  0.2397
 4515TIP3   OH234959   5.443   6.058   0.952 -0.4396 -0.3356  0.2599
 4515TIP3    H134960   5.524   6.047   1.002 -0.6706  0.3344  0.7869
 4515TIP3    H234961   5.379   6.087   1.016 -0.8982 -0.0810 -0.3086
 4516TIP3   OH234962   4.046   4.036  15.388  0.2462  0.0911 -0.0521
 4516TIP3    H134963   3.973   4.076  15.340 -0.1652 -1.2377 -0.5695
 4516TIP3    H234964   4.020   4.042  15.480 -1.4526 -2.0127 -0.3049
 4517TIP3   OH234965   1.804   5.737  14.576  0.3865  0.1077  0.4749
 4517TIP3    H134966   1.726   5.790  14.591 -1.0789 -1.9650  0.6744
 4517TIP3    H234967   1.828   5.705  14.663 -0.1417 -1.3006  0.1443
 4518TIP3   OH234968   1.574   4.951  13.241  0.0768 -0.0735 -0.4051
 4518TIP3    H134969   1.584   5.046  13.234 -2.5026  0.3297  0.4501
 4518TIP3    H234970   1.649   4.923  13.294  0.5281  1.5541 -0.1217
 4519TIP3   OH234971   5.547   5.154   5.183  0.2635 -0.1068  0.2083
 4519TIP3    H134972   5.529   5.125   5.273 -0.4608 -0.8878 -0.1714
 4519TIP3    H234973   5.642   5.147   5.175  0.1416 -2.6020  0.1125
 4520TIP3   OH234974   4.386   3.531   3.830  0.7552  0.4250 -0.2771
 4520TIP3    H134975   4.412   3.602   3.889  0.5165  0.0278  0.3173
 4520TIP3    H234976   4.456   3.528   3.764  1.4862  0.3002  0.4828
 4521TIP3   OH234977   1.966   4.169   0.402  0.3997  0.3013 -0.3235
 4521TIP3    H134978   1.889   4.112   0.409  0.3356  0.3906 -0.3020
 4521TIP3    H234979   1.935   4.255   0.429  0.9784 -0.0406  1.5728
 4522TIP3   OH234980   4.252   3.153  16.055 -0.1937 -0.2544  0.1787
 4522TIP3    H134981   4.330   3.134  16.107  0.9456  1.0711 -0.9838
 4522TIP3    H234982   4.223   3.238  16.086 -0.1499  0.0404 -0.5727
 4523TIP3   OH234983   3.411   4.154  12.106 -0.1259  0.1398 -0.5527
 4523TIP3    H134984   3.346   4.186  12.043  0.4619  0.9092 -0.7814
 4523TIP3    H234985   3.400   4.059  12.105  0.1680  0.0918 -2.1501
 4524TIP3   OH234986   3.650   5.921  14.955 -0.1342 -0.2302  0.4428
 4524TIP3    H134987   3.639   5.852  14.889  1.2503 -0.7520  0.7179
 4524TIP3    H234988   3.623   6.001  14.910 -0.2018 -0.7195 -0.4216
 4525TIP3   OH234989   4.582   5.141   4.730 -0.2665 -0.3256  0.3984
 4525TIP3    H134990   4.663   5.190   4.744 -0.1409  0.0556 -1.3384
 4525TIP3    H234991   4.518   5.184   4.787  0.8256 -0.9301  2.1510
 4526TIP3   OH234992   3.043   5.118  13.933 -0.1254  0.2968  0.2842
 4526TIP3    H134993   3.136   5.133  13.917 -0.1439  2.2516  1.6560
 4526TIP3    H234994   2.998   5.179  13.875 -0.6707 -1.5957 -1.3954
 4527TIP3   OH234995   5.662   3.798  13.155 -0.3425 -0.1666 -0.0106
 4527TIP3    H134996   5.607   3.720  13.146 -1.7131  0.4458  2.1097
 4527TIP3    H234997   5.614   3.866  13.108  1.0578 -0.6202 -2.2144
 4528TIP3   OH234998   0.923   6.431  15.442  0.1788 -0.1728 -0.1358
 4528TIP3    H134999   0.945   6.372  15.370  1.1209  0.1958 -0.1688
 4528TIP3    H235000   0.968   6.513  15.420 -0.0871  0.1599  0.5299
 4529TIP3   OH235001   4.125   4.858  12.764 -0.6173  0.2415 -0.0182
 4529TIP3    H135002   4.145   4.892  12.676 -0.7978  0.6570  0.0957
 4529TIP3    H235003   4.118   4.937  12.818 -1.5002  0.0543  0.1581
 4530TIP3   OH235004   3.701   3.021  16.360  0.1305 -0.3480  0.3201
 4530TIP3    H135005   3.747   3.001  16.278 -4.1628 -1.4692 -2.1050
 4530TIP3    H235006   3.735   2.956  16.423 -1.1461 -4.2179 -2.5903
 4531TIP3   OH235007   3.503   0.280   4.184 -0.1967 -0.1636  0.1407
 4531TIP3    H135008   3.521   0.363   4.140 -1.2033 -0.4884 -0.9491
 4531TIP3    H235009   3.408   0.272   4.183 -0.1810 -0.7595  1.3484
 4532TIP3   OH235010   1.850   4.121  13.717  0.2887 -0.0340  0.3220
 4532TIP3    H135011   1.767   4.163  13.739 -1.0823 -1.2122 -2.1487
 4532TIP3    H235012   1.861   4.055  13.784 -0.2637  0.7826  1.2436
 4533TIP3   OH235013   1.665   6.287  14.497 -0.2035 -0.5376 -0.8246
 4533TIP3    H135014   1.585   6.338  14.485 -1.0637 -1.9976 -1.5363
 4533TIP3    H235015   1.635   6.197  14.511  1.1605 -0.6414  2.4269
 4534TIP3   OH235016   1.877   3.277  15.599 -0.2755  1.0386 -0.7085
 4534TIP3    H135017   1.822   3.228  15.660 -0.9035  1.5901 -0.8130
 4534TIP3    H235018   1.844   3.252  15.512  1.8455 -1.1971 -0.9449
 4535TIP3   OH235019   0.662   5.277   1.428  0.0054  0.2262 -0.4569
 4535TIP3    H135020   0.665   5.349   1.491 -0.8826 -0.1439  0.0242
 4535TIP3    H235021   0.665   5.198   1.482 -0.7151 -0.0946 -0.8801
 4536TIP3   OH235022   0.768   5.877  16.931 -0.4490 -0.3997 -0.6205
 4536TIP3    H135023   0.809   5.796  16.961  2.0350  1.0918  0.2531
 4536TIP3    H235024   0.717   5.907  17.007  1.2472  0.4482  0.2420
 4537TIP3   OH235025   4.684   2.186   2.834  0.2854 -0.9209 -0.9026
 4537TIP3    H135026   4.650   2.116   2.890  0.5476  0.7444  1.4429
 4537TIP3    H235027   4.760   2.146   2.791  0.2973 -2.1610  0.1986
 4538TIP3   OH235028   2.110   4.540  13.564  0.5438  0.4888 -0.0896
 4538TIP3    H135029   2.121   4.453  13.526  0.5404  0.6214 -0.3997
 4538TIP3    H235030   2.187   4.588  13.535  1.0327  0.3067  0.8850
 4539TIP3   OH235031   1.846   4.121   5.394  0.1673 -0.5453  0.3906
 4539TIP3    H135032   1.900   4.126   5.315  3.0607 -1.3989  2.1707
 4539TIP3    H235033   1.764   4.164   5.369  1.5652  0.7260 -2.5435
 4540TIP3   OH235034   6.319   3.012  12.676 -0.0171 -0.0199  0.1133
 4540TIP3    H135035   6.271   2.962  12.742  2.4036 -2.1695  0.4189
 4540TIP3    H235036   6.360   3.084  12.724 -1.2703  0.6550  0.2031
 4541TIP3   OH235037   3.549   6.753   5.388 -0.2221  0.0714 -0.4658
 4541TIP3    H135038   3.583   6.839   5.413 -1.2367 -0.0163  1.4932
 4541TIP3    H235039   3.626   6.700   5.370  0.4720  1.0270 -0.3799
 4542TIP3   OH235040   3.168   4.231  11.967  0.4318  0.4529 -0.0096
 4542TIP3    H135041   3.077   4.260  11.964  0.0008 -0.3831  2.4034
 4542TIP3    H235042   3.213   4.285  11.901 -2.0997 -0.4626 -2.6913
 4543TIP3   OH235043   1.273   5.879  12.730 -0.3158 -0.3786 -0.3850
 4543TIP3    H135044   1.281   5.854  12.822 -0.3629 -0.7807 -0.4897
 4543TIP3    H235045   1.217   5.957  12.732 -0.8036 -0.7283 -0.1223
 4544TIP3   OH235046   4.156   5.827   4.980 -0.2689 -0.1638 -0.2716
 4544TIP3    H135047   4.174   5.744   5.025  0.3067 -0.0215 -0.2356
 4544TIP3    H235048   4.111   5.880   5.045 -0.0687 -0.2159 -0.0896
 4545TIP3   OH235049   1.880   1.278  11.675  0.1940  0.3306  0.3453
 4545TIP3    H135050   1.924   1.339  11.618  0.1461  0.4425  0.4279
 4545TIP3    H235051   1.809   1.242  11.622  1.4304 -1.1562 -0.3643
 4546TIP3   OH235052   6.624   3.554   5.318  0.1202  0.8638 -0.4177
 4546TIP3    H135053   6.537   3.536   5.353 -0.4687  0.5422 -1.9582
 4546TIP3    H235054   6.633   3.493   5.244  1.9344  0.4178  0.1144
 4547TIP3   OH235055   4.204   6.284   5.552 -0.4029 -0.0220  0.6084
 4547TIP3    H135056   4.116   6.252   5.570 -0.2808 -2.9975 -2.8269
 4547TIP3    H235057   4.191   6.368   5.509 -1.4148  0.2994  1.4990
 4548TIP3   OH235058   3.087   0.618   0.848 -0.3537  0.0671  0.1663
 4548TIP3    H135059   3.094   0.591   0.757  1.1863  0.1667  0.2344
 4548TIP3    H235060   3.073   0.536   0.896 -0.8189 -0.0220 -0.1093
 4549TIP3   OH235061   0.391   3.987   4.959 -0.4228 -0.1026 -0.1600
 4549TIP3    H135062   0.432   3.912   4.915 -0.9813 -1.0772  0.9178
 4549TIP3    H235063   0.435   4.063   4.922  0.7915 -0.9988 -0.6512
 4550TIP3   OH235064   6.155   6.755  14.059  0.8661  0.0233 -0.1397
 4550TIP3    H135065   6.199   6.839  14.068 -0.6084  1.0426 -1.7339
 4550TIP3    H235066   6.098   6.749  14.136  2.3659 -0.4478  0.9685
 4551TIP3   OH235067   2.227   4.272  11.141 -0.4284 -0.1805 -0.2248
 4551TIP3    H135068   2.299   4.329  11.114 -0.1555  0.0409  0.9471
 4551TIP3    H235069   2.243   4.191  11.093 -0.5792  0.5595 -1.5712
 4552TIP3   OH235070   4.612   4.490   0.133 -0.1088  0.1309 -0.6572
 4552TIP3    H135071   4.528   4.513   0.173  0.5643  1.5504 -0.0221
 4552TIP3    H235072   4.614   4.540   0.052  0.3511  0.5188 -0.4084
 4553TIP3   OH235073   6.236   6.297  12.863  0.5446 -0.2447 -0.0047
 4553TIP3    H135074   6.241   6.393  12.865 -1.5200 -0.0840 -0.0544
 4553TIP3    H235075   6.179   6.278  12.788 -1.3553 -1.3320  1.6220
 4554TIP3   OH235076   4.484   3.999  13.307 -0.7884 -0.1679  0.3978
 4554TIP3    H135077   4.547   3.954  13.364 -0.0392 -0.3964 -0.5807
 4554TIP3    H235078   4.409   4.017  13.363 -0.7342 -1.8348  1.0489
 4555TIP3   OH235079   3.229   1.476   5.439 -0.4934 -0.2429 -0.4749
 4555TIP3    H135080   3.241   1.561   5.397 -1.6010 -0.8325 -2.0581
 4555TIP3    H235081   3.280   1.415   5.386 -3.8671 -1.4298 -2.6306
 4556TIP3   OH235082   1.108   3.750   3.544  0.1132 -0.4553  0.0845
 4556TIP3    H135083   1.056   3.692   3.489  0.2478  1.7333 -2.6017
 4556TIP3    H235084   1.145   3.814   3.483  2.9642  0.3016  2.3374
 4557TIP3   OH235085   0.498   0.403   3.805  0.3897 -0.2843  0.8361
 4557TIP3    H135086   0.490   0.345   3.881  0.7670  0.0657  1.1522
 4557TIP3    H235087   0.408   0.415   3.774  0.3076 -1.0177  0.7761
 4558TIP3   OH235088   1.635   4.739   2.076  0.5103  0.1753 -0.1790
 4558TIP3    H135089   1.612   4.749   1.983 -0.4823  0.7078  0.1108
 4558TIP3    H235090   1.559   4.698   2.116  1.0508 -0.3245  0.3580
 4559TIP3   OH235091   4.559   6.253  12.083  0.0159 -0.4330  0.0921
 4559TIP3    H135092   4.578   6.347  12.091  0.2216 -0.4918  0.3404
 4559TIP3    H235093   4.578   6.218  12.170  2.5980 -1.1604 -0.6517
 4560TIP3   OH235094   6.285   3.053   3.172  0.2414  0.0428 -0.0405
 4560TIP3    H135095   6.362   3.029   3.224  1.6312  0.1747 -1.9352
 4560TIP3    H235096   6.306   3.024   3.083 -3.4405 -3.2695 -0.0848
 4561TIP3   OH235097   4.833   6.608   6.676  0.0350  0.6280 -0.2239
 4561TIP3    H135098   4.907   6.573   6.725  0.0139  0.9230  0.0298
 4561TIP3    H235099   4.794   6.673   6.736 -1.3524 -0.5941  0.2717
 4562TIP3   OH235100   0.729   4.470   2.377 -0.2989 -0.3389  0.6109
 4562TIP3    H135101   0.643   4.437   2.351 -0.4212  0.0872  0.4690
 4562TIP3    H235102   0.783   4.391   2.385 -0.5748 -0.5717  0.2238
 4563TIP3   OH235103   4.822   1.921   1.777  0.4822 -0.0449 -0.5913
 4563TIP3    H135104   4.800   1.828   1.776  0.3145 -0.0141 -2.2235
 4563TIP3    H235105   4.845   1.942   1.686  1.1959  1.3506 -0.1203
 4564TIP3   OH235106   4.125   5.897   5.717  0.7534 -0.1053 -0.4776
 4564TIP3    H135107   4.140   5.840   5.792  2.0990 -0.8070 -1.2455
 4564TIP3    H235108   4.069   5.967   5.751  2.8163  0.6361  1.6795
 4565TIP3   OH235109   5.486   1.049  12.864  0.0757  0.1661  0.4046
 4565TIP3    H135110   5.415   0.986  12.881  0.5473 -0.5345 -0.1450
 4565TIP3    H235111   5.554   1.027  12.927  0.4932 -0.3052 -0.1862
 4566TIP3   OH235112   4.880   4.027  16.062 -0.5807  0.0507 -0.0287
 4566TIP3    H135113   4.858   3.974  15.985  0.3756 -0.1883 -0.1496
 4566TIP3    H235114   4.849   4.115  16.041  0.7920  0.2828 -1.2439
 4567TIP3   OH235115   1.570   1.047  17.310 -1.0175  0.8535  0.1342
 4567TIP3    H135116   1.611   1.130  17.332  1.1714 -0.6428  2.2052
 4567TIP3    H235117   1.614   1.018  17.230  1.2562 -0.1518  1.6576
 4568TIP3   OH235118   6.248   4.430   1.702 -0.1458  0.4086 -0.0753
 4568TIP3    H135119   6.283   4.350   1.661  0.3449  0.1225  0.8625
 4568TIP3    H235120   6.325   4.486   1.714 -0.2540  0.4309  0.5532
 4569TIP3   OH235121   4.783   6.773   1.780 -0.0753 -0.5443  0.4209
 4569TIP3    H135122   4.872   6.749   1.754 -0.3213 -0.4685 -0.5380
 4569TIP3    H235123   4.758   6.843   1.719 -0.3621  0.2685  1.4355
 4570TIP3   OH235124   3.330   2.312  16.068 -0.2147  0.2327  0.0554
 4570TIP3    H135125   3.240   2.305  16.099 -0.3943 -0.8252 -0.6608
 4570TIP3    H235126   3.324   2.358  15.985 -0.0659  0.3237  0.0947
 4571TIP3   OH235127   6.289   1.970  16.347 -0.4222  0.6139  0.4344
 4571TIP3    H135128   6.314   1.997  16.258 -0.4453  0.7817  0.4787
 4571TIP3    H235129   6.357   1.909  16.374 -0.1799  0.8970  0.4667
 4572TIP3   OH235130   6.081   5.703  11.941 -0.3668  0.2656  0.3240
 4572TIP3    H135131   6.017   5.635  11.964 -0.2768 -0.2777 -0.9497
 4572TIP3    H235132   6.154   5.688  12.001  0.7337 -2.4070 -1.5051
 4573TIP3   OH235133   1.748   4.732  11.085 -0.0197  0.3426 -0.5439
 4573TIP3    H135134   1.760   4.647  11.043 -0.2252 -0.7228  1.4377
 4573TIP3    H235135   1.835   4.772  11.082  0.4509 -0.6046 -0.1730
 4574TIP3   OH235136   4.134   0.349   4.334  0.1607  0.8096 -0.5323
 4574TIP3    H135137   4.167   0.276   4.281 -4.1368 -1.5717 -0.3858
 4574TIP3    H235138   4.125   0.311   4.422  0.8639  2.6393  0.3769
 4575TIP3   OH235139   3.993   6.011  17.374  0.4561 -0.1038 -0.0119
 4575TIP3    H135140   3.989   6.091  17.428 -1.0981 -1.7893  2.5724
 4575TIP3    H235141   4.036   5.947  17.429  0.0115 -1.5919 -1.3278
 4576TIP3   OH235142   0.204   3.481  17.267 -0.4788  0.0877 -0.1088
 4576TIP3    H135143   0.269   3.427  17.222 -1.3623 -0.7979 -0.3727
 4576TIP3    H235144   0.217   3.569  17.232  2.5296  0.6328  1.9992
 4577TIP3   OH235145   5.526   1.068   0.384  0.0726  0.2119  0.1691
 4577TIP3    H135146   5.605   1.014   0.392  0.8634  0.9224 -2.1041
 4577TIP3    H235147   5.556   1.157   0.404 -0.3649  0.3548  0.1902
 4578TIP3   OH235148   0.526   4.589  10.688  0.1359  0.6651  0.2559
 4578TIP3    H135149   0.513   4.559  10.598 -0.4103  1.7380 -0.0443
 4578TIP3    H235150   0.508   4.683  10.685 -1.7972  0.4297  1.8353
 4579TIP3   OH235151   1.578   1.627  14.387  0.6988  0.2315  0.1046
 4579TIP3    H135152   1.669   1.658  14.381  1.2504 -1.5051 -1.4697
 4579TIP3    H235153   1.575   1.577  14.469  0.4734  2.2146  1.3705
 4580TIP3   OH235154   1.876   4.992   2.015 -0.0088 -0.4001 -0.1721
 4580TIP3    H135155   1.815   4.922   2.042 -0.7177  0.6014  0.9276
 4580TIP3    H235156   1.952   4.980   2.072 -0.4801  0.2036  0.6155
 4581TIP3   OH235157   4.110   4.423  10.583 -0.1163  0.0657  0.7636
 4581TIP3    H135158   4.047   4.483  10.624 -2.9108 -0.2640 -2.6349
 4581TIP3    H235159   4.165   4.480  10.529 -0.7283 -0.0844 -0.0350
 4582TIP3   OH235160   0.697   4.727  15.325  0.0822  0.4528 -0.2971
 4582TIP3    H135161   0.777   4.677  15.337  0.8643  1.1860 -2.0795
 4582TIP3    H235162   0.627   4.665  15.343  1.0023 -1.3197 -2.3356
 4583TIP3   OH235163   1.768   5.299  12.156  0.5089  0.3045 -0.1125
 4583TIP3    H135164   1.709   5.230  12.188 -0.9776  1.0377 -1.1510
 4583TIP3    H235165   1.854   5.257  12.154 -0.3143 -1.4971 -0.5634
 4584TIP3   OH235166   2.196   5.416   3.813 -0.1938 -0.4321 -0.1001
 4584TIP3    H135167   2.289   5.422   3.787 -0.3596  1.1454 -0.4507
 4584TIP3    H235168   2.196   5.437   3.906 -0.2035 -0.3164 -0.1256
 4585TIP3   OH235169   2.251   3.626   4.911  0.0361  0.6999  0.1954
 4585TIP3    H135170   2.180   3.686   4.934 -1.2942 -1.3731  1.8793
 4585TIP3    H235171   2.295   3.607   4.994  0.4796 -0.5483 -0.3056
 4586TIP3   OH235172   0.011   5.173  11.910  0.1811 -0.4865 -0.5035
 4586TIP3    H135173  -0.011   5.106  11.846 -0.5269 -1.4709  0.7218
 4586TIP3    H235174  -0.052   5.160  11.981 -0.0303  1.5224 -0.2425
 4587TIP3   OH235175   2.435   5.299   4.126  0.1128  0.3228 -0.3888
 4587TIP3    H135176   2.355   5.341   4.158  0.5687  1.6362 -0.9334
 4587TIP3    H235177   2.431   5.311   4.031  0.2351 -0.9345 -0.5723
 4588TIP3   OH235178   4.983   0.368   4.291  0.1342 -0.3570 -0.4942
 4588TIP3    H135179   4.906   0.425   4.293 -0.3699 -1.0120 -0.9979
 4588TIP3    H235180   5.055   0.428   4.269 -0.2325  0.2515 -0.0781
 4589TIP3   OH235181   4.597   5.308  15.309  1.0919  0.2743  0.4612
 4589TIP3    H135182   4.651   5.233  15.332 -0.1864 -0.8380 -0.0030
 4589TIP3    H235183   4.509   5.272  15.298  0.7759  1.4899 -1.6275
 4590TIP3   OH235184   3.163   0.929  12.814  0.3959  0.2341  0.1474
 4590TIP3    H135185   3.257   0.947  12.822  0.1795  1.2391  0.6155
 4590TIP3    H235186   3.128   0.946  12.901  0.2633 -3.5526  0.9801
 4591TIP3   OH235187   2.235   6.428   0.042 -0.2879 -0.2372 -0.3209
 4591TIP3    H135188   2.192   6.373  -0.024 -0.3773  1.9817 -2.2373
 4591TIP3    H235189   2.162   6.467   0.091 -0.4897  1.5753 -1.9331
 4592TIP3   OH235190   6.698   4.944  13.533 -0.4286 -0.2635  0.0910
 4592TIP3    H135191   6.604   4.940  13.520 -0.5373 -1.6589  1.1389
 4592TIP3    H235192   6.712   5.016  13.594 -0.7871  0.0705 -0.2201
 4593TIP3   OH235193   1.632   4.069  11.032  0.3021 -0.3521  0.1806
 4593TIP3    H135194   1.553   4.016  11.042  0.0218 -0.2888 -1.3801
 4593TIP3    H235195   1.600   4.154  11.001  0.9055  0.0603  0.6547
 4594TIP3   OH235196   3.184   2.976   3.209 -0.7218  0.1501 -0.9685
 4594TIP3    H135197   3.236   2.990   3.288 -1.1531  2.8863 -1.0818
 4594TIP3    H235198   3.249   2.959   3.140 -0.0502  1.5890 -0.7327
 4595TIP3   OH235199   3.187   3.934  11.724 -0.3846  0.1001  0.3488
 4595TIP3    H135200   3.274   3.927  11.764 -1.0388  1.3045  2.1425
 4595TIP3    H235201   3.202   3.921  11.631  1.7505  0.4325  0.5901
 4596TIP3   OH235202   3.894   6.334  12.178  0.3371  0.6176 -0.5714
 4596TIP3    H135203   3.836   6.396  12.223  0.0595  0.4639 -0.7150
 4596TIP3    H235204   3.976   6.340  12.226 -0.7635 -1.6647  1.8558
 4597TIP3   OH235205   4.930   5.360  11.174  0.3672  0.3432 -0.5806
 4597TIP3    H135206   4.946   5.266  11.159  0.3198 -0.0200  1.3646
 4597TIP3    H235207   4.837   5.372  11.156  0.2275 -0.1350 -0.2004
 4598TIP3   OH235208   3.566   2.759  11.267  0.4443  0.3458 -0.1295
 4598TIP3    H135209   3.583   2.703  11.343  0.7837  0.0447 -0.4246
 4598TIP3    H235210   3.472   2.752  11.252  0.7077 -1.4732 -1.1889
 4599TIP3   OH235211   4.436   3.441  16.716  0.0471 -0.4920  0.8028
 4599TIP3    H135212   4.415   3.433  16.623 -1.0251  1.4201  0.8213
 4599TIP3    H235213   4.531   3.450  16.719  0.0149  0.3830 -0.2152
 4600TIP3   OH235214   0.799   0.987  11.733 -0.0057  0.2831 -0.1162
 4600TIP3    H135215   0.708   1.013  11.718  0.1656  0.8573 -0.1765
 4600TIP3    H235216   0.793   0.897  11.766 -0.6458  0.5664  0.5728
 4601TIP3   OH235217   2.468   1.413  16.680  0.3575 -0.5099 -0.1024
 4601TIP3    H135218   2.456   1.480  16.747  0.9501 -0.2865 -0.2033
 4601TIP3    H235219   2.564   1.406  16.671  0.3014  0.2004 -1.6257
 4602TIP3   OH235220   1.436   4.654  17.170 -0.3245 -0.6132 -0.0305
 4602TIP3    H135221   1.443   4.580  17.229  0.2890  0.9471  1.9649
 4602TIP3    H235222   1.523   4.694  17.170 -1.0496  1.0662  0.3263
 4603TIP3   OH235223   0.341   2.507  10.458  0.4966  0.6519  0.0933
 4603TIP3    H135224   0.386   2.426  10.435 -1.7230 -1.1273  1.5814
 4603TIP3    H235225   0.406   2.558  10.505  1.8661 -0.3906 -0.6021
 4604TIP3   OH235226   5.253   2.894  14.498  0.1114  0.2361  0.1347
 4604TIP3    H135227   5.190   2.855  14.437  0.2444  0.2799 -0.0305
 4604TIP3    H235228   5.283   2.974  14.454  0.5792  0.0095  0.0383
 4605TIP3   OH235229   0.539   0.082   0.174 -0.2818 -0.0293  0.1411
 4605TIP3    H135230   0.466   0.024   0.194 -1.3903  1.1282 -0.4324
 4605TIP3    H235231   0.517   0.165   0.216 -2.1747  2.1757 -4.5276
 4606TIP3   OH235232   6.738   1.451  16.253 -0.1957 -0.3805 -0.1867
 4606TIP3    H135233   6.662   1.453  16.195  0.0087  0.6636 -0.4435
 4606TIP3    H235234   6.781   1.368  16.233 -0.3295 -0.2003 -1.2791
 4607TIP3   OH235235   2.744   1.859   4.339  0.6635 -0.5822  0.6453
 4607TIP3    H135236   2.784   1.869   4.253 -0.9454 -0.2965 -0.1023
 4607TIP3    H235237   2.778   1.933   4.390  0.7528 -0.1016 -0.0982
 4608TIP3   OH235238   5.152   5.763   0.949 -0.2013  0.1894  0.1308
 4608TIP3    H135239   5.196   5.681   0.972  1.9836  1.5125  0.9272
 4608TIP3    H235240   5.168   5.821   1.023 -0.5814  1.7702 -0.9644
 4609TIP3   OH235241   3.028   3.122   2.302  0.4641 -0.0232 -0.8882
 4609TIP3    H135242   3.009   3.211   2.334  0.2283 -1.3348  3.2061
 4609TIP3    H235243   2.942   3.088   2.277  0.6093  0.9554 -2.9026
 4610TIP3   OH235244   6.683   2.368   0.626 -0.7297 -1.0000  0.0359
 4610TIP3    H135245   6.738   2.307   0.676  0.7308 -0.8584 -1.3245
 4610TIP3    H235246   6.744   2.432   0.590 -1.9154 -0.2795 -0.7650
 4611TIP3   OH235247   0.759   6.358   4.000 -0.1547  0.2854 -0.9499
 4611TIP3    H135248   0.704   6.283   3.977 -1.2735  1.4026 -2.0847
 4611TIP3    H235249   0.818   6.368   3.925 -0.3774  0.8667 -1.0511
 4612TIP3   OH235250   3.289   3.871   5.940  0.0830  0.0419 -0.2689
 4612TIP3    H135251   3.273   3.814   6.016  1.4977 -1.2086 -0.8657
 4612TIP3    H235252   3.226   3.841   5.874  0.0075 -0.0263 -0.1658
 4613TIP3   OH235253   4.835   2.845  12.092 -0.8093 -0.7345 -0.6898
 4613TIP3    H135254   4.742   2.832  12.109 -0.6688 -0.8385  0.0073
 4613TIP3    H235255   4.878   2.827  12.175 -0.2941  0.8411 -0.5823
 4614TIP3   OH235256   0.346   0.725  16.514  0.0551  0.1459  0.1283
 4614TIP3    H135257   0.367   0.702  16.604 -0.1780 -0.1132  0.1162
 4614TIP3    H235258   0.360   0.820  16.509 -0.5264  0.2606  0.5948
 4615TIP3   OH235259   4.166   1.764  14.447  0.0975  0.2308 -0.5042
 4615TIP3    H135260   4.116   1.831  14.492 -0.0574  1.5437 -2.4809
 4615TIP3    H235261   4.131   1.763  14.358  2.1946 -0.2234 -1.4060
 4616TIP3   OH235262   3.007   3.453  14.036 -0.2332 -0.1984  0.1189
 4616TIP3    H135263   3.006   3.529  13.977  1.1724 -0.0177  0.2950
 4616TIP3    H235264   2.941   3.394  13.999  1.7768 -0.8638 -2.7313
 4617TIP3   OH235265   5.151   2.958  17.218  0.1752 -0.2463 -0.1306
 4617TIP3    H135266   5.154   2.918  17.305  1.7724  1.1464  0.5052
 4617TIP3    H235267   5.188   2.892  17.160  0.8790 -0.4794  0.5641
 4618TIP3   OH235268   4.457   1.467  12.904  0.4809  0.1854 -0.0164
 4618TIP3    H135269   4.418   1.474  12.991  0.1956  1.1415 -0.2028
 4618TIP3    H235270   4.534   1.524  12.908  0.8763 -0.3338 -0.1758
 4619TIP3   OH235271   2.158   5.390  15.269  0.4548  0.0459  0.1856
 4619TIP3    H135272   2.187   5.304  15.241  1.0847  0.4483 -0.4469
 4619TIP3    H235273   2.198   5.450  15.205 -0.9856  0.7036 -0.1291
 4620TIP3   OH235274   1.942   5.022  12.683 -0.0446 -0.5636  0.8967
 4620TIP3    H135275   1.916   4.964  12.756 -0.3347 -1.3899  0.1532
 4620TIP3    H235276   1.908   4.978  12.605  2.2166 -0.8620  0.0263
 4621TIP3   OH235277   3.139   6.272  15.559  0.2802 -0.2361  0.0510
 4621TIP3    H135278   3.116   6.277  15.467 -1.8256  1.1554  0.5874
 4621TIP3    H235279   3.225   6.315  15.565  1.2104 -1.7562 -1.4196
 4622TIP3   OH235280   5.184   2.730   3.849 -0.5190 -0.2866  0.5421
 4622TIP3    H135281   5.154   2.820   3.864  0.5898 -0.0081  1.1439
 4622TIP3    H235282   5.148   2.707   3.763  2.0559  1.9991 -1.2750
 4623TIP3   OH235283   1.274   4.324   1.265  0.0042 -0.3603 -0.1804
 4623TIP3    H135284   1.326   4.315   1.345  0.7246 -0.7196 -0.6849
 4623TIP3    H235285   1.216   4.248   1.265 -0.7321  0.1775  0.5152
 4624TIP3   OH235286   6.028   6.538  12.757  0.0313  0.3111  0.1699
 4624TIP3    H135287   6.063   6.583  12.681  0.2659 -2.3279 -1.4051
 4624TIP3    H235288   5.944   6.502  12.727  1.1915 -2.7929  0.2467
 4625TIP3   OH235289   4.797   0.198   4.508 -0.5090  0.6782 -0.0428
 4625TIP3    H135290   4.748   0.254   4.448  1.2152  1.0705 -1.1483
 4625TIP3    H235291   4.853   0.145   4.451  2.0313  1.8667  1.1916
 4626TIP3   OH235292   0.529   0.331  15.402  0.4903  0.3448 -0.3721
 4626TIP3    H135293   0.550   0.242  15.373 -0.8889 -0.3094  0.4913
 4626TIP3    H235294   0.436   0.342  15.380  1.0041  2.1932 -1.8944
 4627TIP3   OH235295   4.964   4.872   4.641  0.4608 -0.1457  0.1101
 4627TIP3    H135296   4.930   4.945   4.693 -1.7446 -1.1501  0.1906
 4627TIP3    H235297   4.887   4.821   4.618  1.4192 -0.2408 -3.4577
 4628TIP3   OH235298   0.915   4.762   0.884 -0.2188  0.3110 -0.1222
 4628TIP3    H135299   0.977   4.806   0.941  0.6161  0.9133 -1.4540
 4628TIP3    H235300   0.876   4.831   0.831 -0.3528 -0.3103 -0.8665
 4629TIP3   OH235301   0.770   6.105  14.026  0.3094  0.6351 -0.8720
 4629TIP3    H135302   0.849   6.159  14.025  1.3001 -0.5692  1.9638
 4629TIP3    H235303   0.760   6.076  13.936  4.0327 -0.3707 -1.1202
 4630TIP3   OH235304   3.087   1.409   5.873  0.0397 -1.0574  0.3283
 4630TIP3    H135305   3.053   1.424   5.961  0.4630 -0.9507  0.4757
 4630TIP3    H235306   3.143   1.484   5.856 -1.1718 -0.3259 -0.6119
 4631TIP3   OH235307   1.263   3.402  15.825 -0.1833 -0.2455 -0.2062
 4631TIP3    H135308   1.338   3.439  15.779  1.2638 -0.7497  1.6340
 4631TIP3    H235309   1.277   3.307  15.822 -1.4034 -0.4242 -0.8652
 4632TIP3   OH235310   6.274   2.623  17.213 -0.2546 -0.1449  0.4605
 4632TIP3    H135311   6.344   2.615  17.279  0.2397  0.8219  0.0657
 4632TIP3    H235312   6.218   2.547  17.229 -1.1701  0.9772  3.1979
 4633TIP3   OH235313   6.616   2.787  15.580  0.0408 -0.6029 -0.0830
 4633TIP3    H135314   6.666   2.724  15.632  0.0424 -0.9473 -0.4975
 4633TIP3    H235315   6.683   2.840  15.537  0.0381  0.2165  0.8975
 4634TIP3   OH235316   2.912   2.899  15.858  0.7630  0.0721 -0.5537
 4634TIP3    H135317   2.960   2.871  15.780  0.5603  0.8331 -0.9563
 4634TIP3    H235318   2.823   2.864  15.845  0.2233  1.7187 -1.5496
 4635TIP3   OH235319   2.158   3.349   2.817  0.1539  0.0765  0.0293
 4635TIP3    H135320   2.165   3.432   2.770  2.3305 -0.2951 -0.4105
 4635TIP3    H235321   2.238   3.344   2.869  0.1218 -1.7862 -0.0365
 4636TIP3   OH235322   3.392   2.769  13.492  0.0785 -0.4000 -0.6787
 4636TIP3    H135323   3.304   2.776  13.455  0.1051 -0.2741 -0.7186
 4636TIP3    H235324   3.379   2.776  13.586 -0.0257 -1.0636 -0.6438
 4637TIP3   OH235325   5.994   2.525  16.212  0.3667 -0.0032  0.0225
 4637TIP3    H135326   5.945   2.528  16.129  1.1800 -0.5918 -0.4933
 4637TIP3    H235327   5.958   2.597  16.263 -0.2975  0.2440 -0.7617
 4638TIP3   OH235328   2.081   1.851  12.723  0.5831  0.3614  0.0687
 4638TIP3    H135329   2.161   1.875  12.768 -0.4030 -0.1397  2.2136
 4638TIP3    H235330   2.014   1.908  12.761 -0.1164  0.7760 -1.6795
 4639TIP3   OH235331   1.542   2.970   4.939 -0.3467  0.3163 -0.4608
 4639TIP3    H135332   1.597   3.048   4.930 -1.7054  1.3290 -0.2733
 4639TIP3    H235333   1.506   2.977   5.028 -0.0641 -0.8233 -0.2472
 4640TIP3   OH235334   3.862   0.240  10.582 -0.2462  0.5498 -0.2695
 4640TIP3    H135335   3.768   0.228  10.565 -0.3760  0.2078  0.6363
 4640TIP3    H235336   3.888   0.311  10.523 -1.1231  0.8037 -0.3648
 4641TIP3   OH235337   3.746   1.967  16.175  0.7113  0.9028  0.0614
 4641TIP3    H135338   3.765   1.905  16.104  1.1371  1.9790 -0.7797
 4641TIP3    H235339   3.659   2.002  16.155  0.7045  0.9881  0.2356
 4642TIP3   OH235340   1.729   2.926  11.435  0.1240  0.0925 -0.8352
 4642TIP3    H135341   1.685   2.996  11.483 -1.5557 -0.9884 -0.7392
 4642TIP3    H235342   1.738   2.959  11.346 -0.5243  0.4849 -0.7567
 4643TIP3   OH235343   2.329   2.064  15.036 -0.2509  0.0636  0.1017
 4643TIP3    H135344   2.331   2.061  14.941  0.6374 -0.8011  0.1247
 4643TIP3    H235345   2.247   2.021  15.061 -1.9721  2.8693 -0.2970
 4644TIP3   OH235346   0.140   2.911  15.778  0.1103 -0.2090 -0.1475
 4644TIP3    H135347   0.148   2.986  15.719 -0.4345 -0.0020  0.0416
 4644TIP3    H235348   0.046   2.890  15.779  0.3016 -1.1627 -0.5351
 4645TIP3   OH235349   2.137   4.723   4.018  0.1632 -0.0266 -0.1463
 4645TIP3    H135350   2.074   4.785   4.054 -1.9432 -2.1044 -0.0055
 4645TIP3    H235351   2.113   4.714   3.926  0.9995 -0.0067 -0.3808
 4646TIP3   OH235352   4.605   4.707  12.670  0.2351 -0.5166  0.1018
 4646TIP3    H135353   4.635   4.790  12.633  0.1169 -0.7317 -0.4875
 4646TIP3    H235354   4.628   4.642  12.603 -2.4143 -0.5853 -0.8646
 4647TIP3   OH235355   3.312   2.842   2.322 -0.0500 -0.0367  0.4027
 4647TIP3    H135356   3.358   2.786   2.261 -1.6586  0.7218 -1.6201
 4647TIP3    H235357   3.328   2.931   2.291 -2.6918  0.2639 -0.3633
 4648TIP3   OH235358   1.309   3.167  14.697 -0.0312 -0.1030 -0.0030
 4648TIP3    H135359   1.366   3.233  14.737 -0.2978 -0.5041  1.0951
 4648TIP3    H235360   1.341   3.084  14.732 -0.3637 -0.4619 -0.5387
 4649TIP3   OH235361   6.150   0.481  15.749 -0.1608 -0.6710 -0.1564
 4649TIP3    H135362   6.090   0.409  15.767 -0.2150 -1.3077 -2.5187
 4649TIP3    H235363   6.105   0.533  15.682  1.5039 -0.6621 -1.3285
 4650TIP3   OH235364   1.559   2.591   1.819  0.0293 -0.3839  0.0119
 4650TIP3    H135365   1.496   2.519   1.821  0.8186 -1.0737  0.7854
 4650TIP3    H235366   1.633   2.559   1.871  0.9572  0.4586 -0.7661
 4651TIP3   OH235367   1.562   2.375  10.961 -0.3073  0.0054  0.5631
 4651TIP3    H135368   1.608   2.339  10.885 -0.2283  1.0828  0.0882
 4651TIP3    H235369   1.534   2.462  10.933  0.2753  0.6737  1.9686
 4652TIP3   OH235370   3.430   1.268  16.481 -0.2522  0.1206  0.1709
 4652TIP3    H135371   3.409   1.265  16.575  2.7466 -1.3517  0.9007
 4652TIP3    H235372   3.511   1.318  16.476  0.2500 -0.7920 -1.5197
 4653TIP3   OH235373   0.365   3.722  17.189  0.1484  0.0462  0.8043
 4653TIP3    H135374   0.435   3.656  17.188 -1.6935 -2.1349 -1.9854
 4653TIP3    H235375   0.389   3.783  17.119  0.4447  0.6860  1.4656
 4654TIP3   OH235376   3.188   5.081  12.459  0.1078  0.0815  0.1781
 4654TIP3    H135377   3.160   5.111  12.373 -2.2248  0.4430  0.9694
 4654TIP3    H235378   3.236   5.155  12.496 -1.2088  0.9723  0.1813
 4655TIP3   OH235379   4.816   3.394  15.906 -0.4509  0.2878 -0.0056
 4655TIP3    H135380   4.855   3.314  15.940 -0.6961 -0.4385 -1.3794
 4655TIP3    H235381   4.726   3.392  15.938 -1.1467 -1.1780 -1.8574
 4656TIP3   OH235382   5.139   4.330   2.568  0.1066  0.9166 -0.4160
 4656TIP3    H135383   5.175   4.405   2.520 -1.2203  1.6008 -0.3894
 4656TIP3    H235384   5.072   4.368   2.625  1.8396  0.1888  2.2970
 4657TIP3   OH235385   3.594   3.819   2.333 -0.2059 -0.3390  0.2083
 4657TIP3    H135386   3.539   3.877   2.386  0.0456  0.0687  0.0317
 4657TIP3    H235387   3.623   3.874   2.260  1.4580 -0.1504  0.9552
 4658TIP3   OH235388   6.022   6.173   5.626  0.6593  0.1357  0.0605
 4658TIP3    H135389   5.937   6.165   5.583  0.3459 -0.7719  0.7941
 4658TIP3    H235390   6.079   6.213   5.561 -0.0547 -0.2732 -0.8367
 4659TIP3   OH235391   0.841   5.745   1.022 -0.2914  0.4173 -0.2122
 4659TIP3    H135392   0.801   5.702   0.946 -1.4505  0.4989  0.3240
 4659TIP3    H235393   0.917   5.790   0.987 -0.3415 -0.2226 -1.1783
 4660TIP3   OH235394   1.417   5.092  16.276 -0.0583 -0.6419 -0.0514
 4660TIP3    H135395   1.378   5.034  16.342  1.6255 -0.1291  1.4683
 4660TIP3    H235396   1.512   5.085  16.291  0.4060 -0.5927 -2.5276
 4661TIP3   OH235397   4.980   1.195   5.059  0.2462 -0.1834  0.2864
 4661TIP3    H135398   5.031   1.165   4.984 -1.3348 -1.3296 -0.3745
 4661TIP3    H235399   4.922   1.122   5.080 -1.5922  1.2620  0.5671
 4662TIP3   OH235400   2.764   6.441   3.740 -0.4076 -0.2192 -0.0815
 4662TIP3    H135401   2.676   6.432   3.703  0.0484 -0.1702 -1.2418
 4662TIP3    H235402   2.812   6.490   3.673  0.7551 -1.0619  0.1098
 4663TIP3   OH235403   4.829   5.527   4.992  0.3417 -0.5674 -0.1588
 4663TIP3    H135404   4.818   5.532   5.087 -1.3877 -1.3922 -0.2873
 4663TIP3    H235405   4.757   5.580   4.956  0.8906 -0.3769 -1.0156
 4664TIP3   OH235406   6.534   6.346   4.691  0.2831  0.2594 -0.6010
 4664TIP3    H135407   6.570   6.427   4.728 -0.0787  0.3464 -0.4368
 4664TIP3    H235408   6.581   6.335   4.608  0.7145  0.3510 -0.3706
 4665TIP3   OH235409   1.442   1.970  12.118 -0.2006  0.2144 -0.2728
 4665TIP3    H135410   1.352   1.943  12.099  0.4078 -1.0007 -1.5418
 4665TIP3    H235411   1.493   1.938  12.044  1.2633  1.0401  0.3467
 4666TIP3   OH235412   3.755   1.632   6.199 -0.0160  0.4923 -0.1194
 4666TIP3    H135413   3.721   1.605   6.284 -0.9627 -1.6548 -1.1228
 4666TIP3    H235414   3.850   1.631   6.210 -0.1154 -0.1107  0.7943
 4667TIP3   OH235415   5.435   1.093  14.234 -0.2818 -0.1826  0.1978
 4667TIP3    H135416   5.429   1.158  14.164 -0.9891 -0.9912 -0.5235
 4667TIP3    H235417   5.357   1.108  14.288 -0.4451 -0.4084  0.0317
 4668TIP3   OH235418   0.970   1.302  16.678 -0.2179 -0.1280  0.0321
 4668TIP3    H135419   0.943   1.362  16.747  0.4869 -0.5341  0.6696
 4668TIP3    H235420   0.902   1.235  16.676 -0.5714  0.2298 -0.1128
 4669TIP3   OH235421   6.590   5.695  15.743 -0.2814  0.1289  0.5090
 4669TIP3    H135422   6.545   5.779  15.732  0.3534  0.6794  1.8454
 4669TIP3    H235423   6.544   5.652  15.814 -0.4530 -0.5712 -0.0143
 4670TIP3   OH235424   0.500   5.462   4.334 -0.1195  0.2853  0.1449
 4670TIP3    H135425   0.533   5.550   4.321 -0.4665  0.7214  1.9069
 4670TIP3    H235426   0.498   5.423   4.247  1.2710  1.5636 -0.4941
 4671TIP3   OH235427   5.316   5.357  12.548 -0.0780  0.0087 -0.2910
 4671TIP3    H135428   5.262   5.413  12.604 -1.5175 -1.0377 -0.5569
 4671TIP3    H235429   5.269   5.356  12.464 -0.0915 -1.5478 -0.2997
 4672TIP3   OH235430   0.563   0.778   1.428 -0.7185 -0.0093 -0.1208
 4672TIP3    H135431   0.530   0.704   1.479  0.1806  0.3772  1.0534
 4672TIP3    H235432   0.527   0.764   1.340 -0.7064 -1.7461  0.1138
 4673TIP3   OH235433   5.859   1.275  11.805 -0.1861 -1.0444 -0.6924
 4673TIP3    H135434   5.894   1.363  11.789  0.5437 -1.5698 -2.2104
 4673TIP3    H235435   5.871   1.262  11.899 -1.4232  0.9171 -0.1894
 4674TIP3   OH235436   6.419   4.650   4.731  0.0569  0.5078 -0.4610
 4674TIP3    H135437   6.469   4.652   4.649 -0.1759 -0.2960 -0.6389
 4674TIP3    H235438   6.475   4.601   4.792 -0.8891 -1.3046 -0.9570
 4675TIP3   OH235439   6.572   0.399  15.182 -0.5286  0.3459 -0.3366
 4675TIP3    H135440   6.501   0.427  15.124 -2.8680  0.3685  2.3381
 4675TIP3    H235441   6.596   0.312  15.150  0.0315  1.3147 -2.7733
 4676TIP3   OH235442   3.592   3.799   5.727 -0.2661  0.4570 -0.2847
 4676TIP3    H135443   3.521   3.794   5.663  0.2562  1.2883 -0.9458
 4676TIP3    H235444   3.666   3.836   5.678 -0.4610  3.1861  1.2630
 4677TIP3   OH235445   6.715   3.716  16.377 -0.0316 -0.2641  0.6220
 4677TIP3    H135446   6.752   3.791  16.331 -0.8035 -0.2338  0.0235
 4677TIP3    H235447   6.744   3.640  16.326 -0.2163 -0.2853  0.5470
 4678TIP3   OH235448   4.554   2.905   1.998  0.0306  0.1349 -0.0079
 4678TIP3    H135449   4.587   2.992   1.979  1.4316 -0.0582  1.3702
 4678TIP3    H235450   4.496   2.917   2.074  0.2187 -0.1301  0.1795
 4679TIP3   OH235451   1.042   6.174   4.470 -0.6711  0.3403 -0.1558
 4679TIP3    H135452   1.109   6.133   4.415 -1.6889  1.3156 -2.2361
 4679TIP3    H235453   0.960   6.152   4.427 -1.5620  0.7627  1.2839
 4680TIP3   OH235454   3.426   2.290   1.177 -0.4373 -0.1633  0.8228
 4680TIP3    H135455   3.520   2.273   1.165 -0.4955 -0.1042  0.2503
 4680TIP3    H235456   3.409   2.267   1.268  0.4637  1.3548  1.4002
 4681TIP3   OH235457   1.453   3.258  14.465  0.4188  0.1986  0.5295
 4681TIP3    H135458   1.401   3.220  14.536  1.7105 -1.8174  0.4586
 4681TIP3    H235459   1.543   3.252  14.495  0.8707  0.8678 -0.6070
 4682TIP3   OH235460   6.674   6.385   1.718 -0.4670  0.1631  0.2345
 4682TIP3    H135461   6.632   6.367   1.634  0.2529 -2.1875  0.2903
 4682TIP3    H235462   6.765   6.406   1.696 -0.9184  2.4506  0.2970
 4683TIP3   OH235463   6.178   3.586   5.625  0.6702 -0.0364 -0.1384
 4683TIP3    H135464   6.220   3.648   5.565 -0.2474  1.0232  0.2856
 4683TIP3    H235465   6.121   3.640   5.679 -1.2299 -1.4115 -0.6863
 4684TIP3   OH235466   6.670   0.656   6.012  0.3891  0.3454  0.4635
 4684TIP3    H135467   6.613   0.637   5.938  0.4776  0.1224  0.4500
 4684TIP3    H235468   6.651   0.746   6.035  0.5144  0.4820  0.0361
 4685TIP3   OH235469   0.891   5.097   2.085 -0.6762  0.3550 -0.9907
 4685TIP3    H135470   0.874   5.023   2.144 -1.6096  1.8551  0.7221
 4685TIP3    H235471   0.987   5.106   2.086 -0.3446 -1.9247 -2.7469
 4686TIP3   OH235472   2.384   3.317  12.399 -0.2459 -0.1380  0.1031
 4686TIP3    H135473   2.426   3.241  12.438  1.6475  0.2198 -1.0879
 4686TIP3    H235474   2.435   3.334  12.319 -2.6903  0.3361 -1.4742
 4687TIP3   OH235475   0.420   2.916   2.662  0.1881  0.3589 -0.3942
 4687TIP3    H135476   0.483   2.844   2.671 -2.2479 -1.9453 -0.1504
 4687TIP3    H235477   0.385   2.906   2.574 -0.5224  0.9279 -0.1822
 4688TIP3   OH235478   0.235   4.031   1.344 -0.8400 -0.0585 -0.2853
 4688TIP3    H135479   0.329   4.023   1.332 -0.7307  1.1160 -0.3534
 4688TIP3    H235480   0.200   4.040   1.256 -0.6991  2.2621 -0.1620
 4689TIP3   OH235481   5.221   4.019  17.021 -0.1172 -0.1034 -1.1586
 4689TIP3    H135482   5.163   3.976  17.084 -2.3829 -0.9493 -3.6191
 4689TIP3    H235483   5.204   4.112  17.033  0.1399 -0.1992  0.0331
 4690TIP3   OH235484   4.734   2.910  15.036 -0.7585 -0.1922  0.5984
 4690TIP3    H135485   4.753   2.839  14.975 -2.5125 -2.5546  2.5908
 4690TIP3    H235486   4.648   2.942  15.008  0.0801  1.3209 -0.3669
 4691TIP3   OH235487   1.278   5.571  15.299 -0.5458 -0.5197 -0.7758
 4691TIP3    H135488   1.212   5.638  15.318  0.4711  0.4014 -0.4536
 4691TIP3    H235489   1.233   5.488  15.316 -1.0587  0.1370  1.3148
 4692TIP3   OH235490   6.047   0.088  12.395  0.4066  0.4316 -0.2684
 4692TIP3    H135491   6.004   0.047  12.320 -0.1510 -0.9067  0.7367
 4692TIP3    H235492   6.077   0.173  12.363 -3.1332  1.5497 -1.0138
 4693TIP3   OH235493   1.908   3.526   4.770 -0.1384 -0.0024 -0.1960
 4693TIP3    H135494   1.988   3.477   4.790  0.4798  1.0489 -0.0287
 4693TIP3    H235495   1.838   3.463   4.782  0.7263 -1.2139 -1.2363
 4694TIP3   OH235496   3.316   2.382  12.660 -0.2579 -0.5036  0.0701
 4694TIP3    H135497   3.345   2.471  12.639 -0.2851  0.1822  2.5667
 4694TIP3    H235498   3.379   2.325  12.616  0.9138  0.8091 -0.0214
 4695TIP3   OH235499   0.983   5.334   3.703 -0.6849  0.5253 -0.0186
 4695TIP3    H135500   1.008   5.300   3.789  0.7603 -0.6358 -0.8465
 4695TIP3    H235501   0.907   5.389   3.720 -0.4479  0.3054  1.9932
 4696TIP3   OH235502   5.958   6.416   7.040  0.0332  0.0538 -0.2334
 4696TIP3    H135503   5.931   6.327   7.061 -1.8990  1.0559  1.9707
 4696TIP3    H235504   5.921   6.432   6.953  0.3667 -1.2421 -0.6422
 4697TIP3   OH235505   1.051   1.652   1.429  0.5086 -0.0357  0.4153
 4697TIP3    H135506   1.132   1.663   1.378  0.6049 -2.3122 -0.0087
 4697TIP3    H235507   1.082   1.632   1.517  0.3536  1.1377  0.7555
 4698TIP3   OH235508   4.929   4.876  12.539  0.6791 -0.4248  0.2331
 4698TIP3    H135509   4.944   4.944  12.474  1.0514 -0.2109  0.5325
 4698TIP3    H235510   4.923   4.795  12.488  0.3261 -0.1815 -0.1160
 4699TIP3   OH235511   5.320   3.757   3.625  0.3264 -0.1341 -0.4987
 4699TIP3    H135512   5.343   3.809   3.548 -0.1287  1.6002  0.4605
 4699TIP3    H235513   5.398   3.706   3.644  1.5024  1.5944 -0.4548
 4700TIP3   OH235514   2.428   5.866   1.604 -0.1711  0.1666 -0.3263
 4700TIP3    H135515   2.397   5.831   1.687  1.1978 -1.3000 -0.3921
 4700TIP3    H235516   2.373   5.824   1.537  0.8480 -1.1842 -0.3440
 4701TIP3   OH235517   0.588   0.140  16.748  0.9487 -0.5056  0.0545
 4701TIP3    H135518   0.564   0.219  16.699  1.4878 -0.6230 -0.4059
 4701TIP3    H235519   0.669   0.110  16.707  0.8247 -1.2177  0.3214
 4702TIP3   OH235520   4.958   1.239  14.295 -0.0565 -0.4209  0.1695
 4702TIP3    H135521   4.931   1.330  14.309 -2.6233 -1.1955  0.9011
 4702TIP3    H235522   4.930   1.220  14.205  0.5260 -0.4659 -0.0028
 4703TIP3   OH235523   5.631   5.484  17.182  0.3014 -0.5847 -0.0892
 4703TIP3    H135524   5.601   5.395  17.163 -1.4504  0.1731 -1.0958
 4703TIP3    H235525   5.588   5.507  17.264 -0.6369 -0.0787 -0.7055
 4704TIP3   OH235526   3.795   6.003  13.637  0.0377 -0.4684 -0.1348
 4704TIP3    H135527   3.773   5.988  13.728  1.5341 -1.2750  0.1306
 4704TIP3    H235528   3.889   6.022  13.638 -0.0936  0.4474 -1.4179
 4705TIP3   OH235529   0.227   4.632  12.553 -0.1916 -0.1189  0.1534
 4705TIP3    H135530   0.173   4.586  12.618 -1.5437  0.5456 -0.4539
 4705TIP3    H235531   0.183   4.616  12.470 -0.0710  1.3380 -0.2204
 4706TIP3   OH235532   4.614   4.551   2.966  0.8659  0.1287 -0.0766
 4706TIP3    H135533   4.643   4.511   2.884 -0.0956 -0.4641 -0.1333
 4706TIP3    H235534   4.606   4.477   3.027  2.9244  0.6967  1.0007
 4707TIP3   OH235535   6.176   1.666  11.804 -0.5035 -0.7181  0.1719
 4707TIP3    H135536   6.229   1.606  11.857 -1.2674 -0.7279  0.9394
 4707TIP3    H235537   6.111   1.609  11.763  0.0353 -0.7011 -0.7523
 4708TIP3   OH235538   2.973   3.687   4.242  0.3200  0.2874 -0.2740
 4708TIP3    H135539   2.989   3.700   4.336  0.0019 -2.2005  0.1913
 4708TIP3    H235540   3.051   3.641   4.211  0.3277  0.9101 -1.2122
 4709TIP3   OH235541   3.396   4.416   0.348  0.1843 -0.2981  0.0252
 4709TIP3    H135542   3.402   4.443   0.257 -0.0197  0.1463  0.1416
 4709TIP3    H235543   3.303   4.420   0.369  0.1700 -0.9129  0.1017
 4710TIP3   OH235544   1.761   6.468   4.095  0.3690 -0.3128  0.4422
 4710TIP3    H135545   1.832   6.422   4.051  1.6521 -1.2123  3.2312
 4710TIP3    H235546   1.795   6.487   4.183 -1.4622  2.7398  0.6444
 4711TIP3   OH235547   0.999   4.350   0.639 -0.0911 -0.0574 -0.0140
 4711TIP3    H135548   1.024   4.390   0.723 -0.2182 -0.8048  0.3902
 4711TIP3    H235549   0.906   4.368   0.631 -0.0511  0.1291 -0.0548
 4712TIP3   OH235550   1.958   0.836  12.881 -0.0885 -0.2203  0.2626
 4712TIP3    H135551   2.010   0.869  12.808  1.0165 -1.1980  0.5719
 4712TIP3    H235552   2.004   0.757  12.910 -0.2916  0.3298  2.2537
 4713TIP3   OH235553   4.491   0.147  16.137 -0.1413 -0.0354 -0.4386
 4713TIP3    H135554   4.432   0.182  16.070  1.1845  1.8992 -0.6555
 4713TIP3    H235555   4.545   0.221  16.163 -0.0537 -0.9249  2.2309
 4714TIP3   OH235556   4.949   3.568   4.072  0.1211  0.2147 -0.3036
 4714TIP3    H135557   4.937   3.501   4.005  2.3266  0.7732 -1.3440
 4714TIP3    H235558   5.009   3.528   4.136 -2.8893 -0.7714  2.1341
 4715TIP3   OH235559   2.694   1.125  15.930 -0.1404 -0.3015 -0.5440
 4715TIP3    H135560   2.759   1.171  15.878  0.4072 -2.0125 -1.4511
 4715TIP3    H235561   2.743   1.087  16.003 -0.7120  1.1126  0.6233
 4716TIP3   OH235562   0.249   2.945   5.225  0.1602  0.1516 -0.7349
 4716TIP3    H135563   0.210   2.886   5.162 -0.9592 -0.8679  0.8377
 4716TIP3    H235564   0.182   3.013   5.238  0.0129 -0.1231 -0.0252
 4717TIP3   OH235565   3.669   4.622   6.184  0.2792  0.4559  0.4339
 4717TIP3    H135566   3.730   4.672   6.130 -0.3441 -0.2357 -0.9688
 4717TIP3    H235567   3.583   4.646   6.150 -0.0072 -2.8697 -1.5909
 4718TIP3   OH235568   0.809   4.095   4.310 -0.6076  0.6698 -0.5275
 4718TIP3    H135569   0.807   4.083   4.215 -0.9341 -0.0666 -0.4357
 4718TIP3    H235570   0.867   4.025   4.341  0.6627  1.7873 -0.3032
 4719TIP3   OH235571   3.614   6.585  11.863 -0.1523 -0.6699  0.4687
 4719TIP3    H135572   3.562   6.548  11.791  3.5482 -0.3044 -2.6969
 4719TIP3    H235573   3.701   6.548  11.851  1.7867  2.9334  1.9639
 4720TIP3   OH235574   3.818   0.182  12.948  0.1105  0.1733  0.3063
 4720TIP3    H135575   3.751   0.153  13.010  0.4349 -0.0175  0.5752
 4720TIP3    H235576   3.899   0.142  12.981  0.4566  0.8533  0.3088
 4721TIP3   OH235577   1.881   0.041  14.249 -0.4234  0.1367  0.4011
 4721TIP3    H135578   1.931  -0.027  14.204 -0.3336 -0.8187  1.8715
 4721TIP3    H235579   1.795   0.001  14.263 -0.0510 -0.1156  2.2079
 4722TIP3   OH235580   3.537   1.466   1.623  0.4810  0.0361  0.0183
 4722TIP3    H135581   3.591   1.399   1.667 -0.9941 -0.3309  1.3577
 4722TIP3    H235582   3.590   1.545   1.626  0.6106 -0.0885  2.1465
 4723TIP3   OH235583   6.678   2.103   1.601 -0.2144  0.1797 -0.0835
 4723TIP3    H135584   6.701   2.195   1.611 -0.6056  0.2599  0.0915
 4723TIP3    H235585   6.595   2.093   1.648 -1.0091  0.0985 -1.4410
 4724TIP3   OH235586   1.099   3.928   3.304 -0.1301 -1.0297  0.0525
 4724TIP3    H135587   1.135   3.988   3.239 -2.3840  1.6778  1.0860
 4724TIP3    H235588   1.035   3.876   3.256 -2.2819  1.4143  0.0412
 4725TIP3   OH235589   2.704   4.606   1.099  0.3368 -0.5334 -0.2654
 4725TIP3    H135590   2.713   4.687   1.049  0.9595 -0.1070  0.5187
 4725TIP3    H235591   2.689   4.634   1.189 -0.9035 -1.2969 -0.2026
 4726TIP3   OH235592   4.325   5.660  11.075 -0.3034 -0.1381 -0.5486
 4726TIP3    H135593   4.275   5.592  11.120  0.5609 -0.7320 -0.4712
 4726TIP3    H235594   4.263   5.697  11.011 -0.7623 -1.0290 -0.6325
 4727TIP3   OH235595   5.550   3.964  12.513 -0.0657 -0.5123 -0.3151
 4727TIP3    H135596   5.513   4.027  12.575 -1.0591 -0.6251 -0.7826
 4727TIP3    H235597   5.494   3.970  12.436  0.7599 -0.8580 -0.9604
 4728TIP3   OH235598   1.124   4.616   1.580 -0.1851  0.3049 -0.2267
 4728TIP3    H135599   1.052   4.583   1.527 -0.6275  1.2271 -0.2305
 4728TIP3    H235600   1.162   4.539   1.621 -1.6282 -0.1375  0.3384
 4729TIP3   OH235601   1.086   3.662   6.191 -0.4410  1.2899 -0.0973
 4729TIP3    H135602   1.157   3.598   6.188 -0.7892  0.9354 -2.1728
 4729TIP3    H235603   1.010   3.615   6.154 -1.4168  2.0753  0.8403
 4730TIP3   OH235604   3.686   4.283   0.732 -0.5888 -0.6203  0.0870
 4730TIP3    H135605   3.671   4.311   0.642 -0.2855 -0.4610  0.0865
 4730TIP3    H235606   3.739   4.353   0.771  1.9443 -2.1055 -0.4851
 4731TIP3   OH235607   1.024   4.167   0.118  0.0558 -0.1614 -0.2012
 4731TIP3    H135608   0.933   4.172   0.148 -0.6514  2.7327 -2.4123
 4731TIP3    H235609   1.074   4.217   0.183 -0.3970  0.4998 -0.3513
 4732TIP3   OH235610   3.968   3.311  14.987  0.2284 -0.0809 -0.0342
 4732TIP3    H135611   3.900   3.346  14.930  1.2937 -0.1573 -1.3914
 4732TIP3    H235612   3.980   3.378  15.055  0.6732  1.1877 -1.3250
 4733TIP3   OH235613   3.971   0.928  15.427 -0.3508  0.4351  0.2502
 4733TIP3    H135614   4.035   0.955  15.493 -0.4297 -3.5435  2.2650
 4733TIP3    H235615   3.899   0.990  15.437  1.4734  2.5999  0.7266
 4734TIP3   OH235616   5.415   2.086   4.928  0.0055 -0.0420  0.2126
 4734TIP3    H135617   5.320   2.075   4.916 -0.1504  2.1884 -1.0343
 4734TIP3    H235618   5.424   2.111   5.020 -0.7673  0.9218  0.0406
 4735TIP3   OH235619   1.023   2.581   0.984  0.6628 -0.0035 -0.0138
 4735TIP3    H135620   1.054   2.603   1.072  2.2653  1.8226 -0.9595
 4735TIP3    H235621   0.972   2.657   0.957  0.0596 -0.6120 -0.6146
 4736TIP3   OH235622   0.050   4.964   5.254  0.0334  0.3033 -0.8004
 4736TIP3    H135623   0.007   5.030   5.199 -1.4313  1.2116  1.3140
 4736TIP3    H235624   0.002   4.883   5.237  0.1151  0.3854 -1.4358
 4737TIP3   OH235625   0.786   3.320   1.116 -0.4729  0.4743  0.0753
 4737TIP3    H135626   0.860   3.301   1.058  0.8801  0.2277  1.8214
 4737TIP3    H235627   0.745   3.234   1.130  0.9198  0.0402  1.7105
 4738TIP3   OH235628   6.077   5.297  11.702 -0.0585 -0.0451  0.4174
 4738TIP3    H135629   6.070   5.392  11.701 -0.5440 -0.0819  0.0246
 4738TIP3    H235630   6.011   5.267  11.639  0.1153 -0.6372  0.5096
 4739TIP3   OH235631   4.091   1.655  13.233 -0.4439 -0.0411 -0.1832
 4739TIP3    H135632   4.024   1.714  13.267  1.4413  1.0451  1.9677
 4739TIP3    H235633   4.079   1.574  13.282 -1.3618 -0.5722 -1.2323
 4740TIP3   OH235634   5.604   4.945  16.212 -0.3800  0.1601  0.6083
 4740TIP3    H135635   5.586   4.987  16.127 -0.0255  1.5003  1.1629
 4740TIP3    H235636   5.644   5.014  16.264  0.4588 -0.9711  1.5039
 4741TIP3   OH235637   5.453   1.836   4.328 -0.4765 -0.9671  0.3141
 4741TIP3    H135638   5.423   1.817   4.417  0.7451  0.8470  1.1666
 4741TIP3    H235639   5.476   1.750   4.292 -0.5556 -1.6987  1.9179
 4742TIP3   OH235640   0.501   1.653  10.800  0.2313  0.5836 -0.6252
 4742TIP3    H135641   0.464   1.723  10.853 -1.9181 -0.7690 -0.2569
 4742TIP3    H235642   0.564   1.698  10.743 -0.5159  2.6915  0.1055
 4743TIP3   OH235643   3.911   1.236   5.497  0.0856 -0.0057  0.0850
 4743TIP3    H135644   3.994   1.231   5.543 -0.4885  1.8486  1.4461
 4743TIP3    H235645   3.932   1.215   5.406  1.8219 -0.6320  0.5961
 4744TIP3   OH235646   6.569   0.862   6.135 -0.0968 -0.2722  0.6877
 4744TIP3    H135647   6.540   0.951   6.156  1.3932  0.3687  0.1840
 4744TIP3    H235648   6.612   0.832   6.214 -1.7001 -1.0644  1.2945
 4745TIP3   OH235649   5.442   2.457   4.873  0.1126 -0.6912  0.7791
 4745TIP3    H135650   5.519   2.464   4.930  1.5037 -0.8716 -0.9720
 4745TIP3    H235651   5.444   2.367   4.842  0.7549 -0.0230 -1.2843
 4746TIP3   OH235652   0.802   0.012   2.801 -0.4238 -0.4380  0.3125
 4746TIP3    H135653   0.893   0.040   2.814 -1.1571  1.2218  2.7449
 4746TIP3    H235654   0.806  -0.083   2.797  1.5013 -0.3632 -0.7855
 4747TIP3   OH235655   1.269   1.467   0.920  0.0498 -0.0206 -0.1297
 4747TIP3    H135656   1.224   1.394   0.964 -0.6847 -0.5805 -1.7254
 4747TIP3    H235657   1.205   1.501   0.858  1.1306  0.5599 -0.9652
 4748TIP3   OH235658   5.381   1.557   1.425 -0.0931 -0.2640 -0.5195
 4748TIP3    H135659   5.417   1.474   1.457  0.9037  0.4365  0.2364
 4748TIP3    H235660   5.339   1.535   1.342  0.9091 -1.3700 -0.7478
 4749TIP3   OH235661   4.834   4.582  13.962  0.4157  0.5011  0.6091
 4749TIP3    H135662   4.760   4.641  13.948  0.0286  0.6070  2.8157
 4749TIP3    H235663   4.808   4.526  14.035  2.0187 -0.3164  0.6116
 4750TIP3   OH235664   1.028   4.228   0.912  0.2562  0.8713 -0.3424
 4750TIP3    H135665   0.982   4.299   0.866  0.2659 -0.0208 -1.7762
 4750TIP3    H235666   0.984   4.148   0.884  2.3065  0.0262 -1.3666
 4751TIP3   OH235667   6.611   4.457  12.926 -0.2254  0.0583  0.3337
 4751TIP3    H135668   6.628   4.469  13.020 -0.0586  0.9836  0.1953
 4751TIP3    H235669   6.669   4.520  12.883  0.9833 -1.5460 -0.4851
 4752TIP3   OH235670   0.336   3.949   5.652 -0.6021  0.2792 -0.3473
 4752TIP3    H135671   0.426   3.980   5.656 -0.3527 -0.3983 -0.6659
 4752TIP3    H235672   0.342   3.854   5.650 -1.3573  0.1995  0.3878
 4753TIP3   OH235673   0.028   0.489  11.570  0.3136 -0.2738  0.4381
 4753TIP3    H135674   0.067   0.440  11.498 -0.6491 -0.5242  0.0808
 4753TIP3    H235675   0.086   0.472  11.645 -0.0441 -2.0267  0.3540
 4754TIP3   OH235676   1.557   3.118  17.029 -0.0377  0.1691 -0.2436
 4754TIP3    H135677   1.612   3.157  16.961 -0.9021  0.6914 -0.6547
 4754TIP3    H235678   1.539   3.030  16.997  0.6686 -0.0575 -0.0380
 4755TIP3   OH235679   4.624   5.429   0.962 -0.5794 -0.1283 -0.0592
 4755TIP3    H135680   4.702   5.432   0.907  1.4538 -1.6419  2.5318
 4755TIP3    H235681   4.588   5.341   0.950 -1.5970  0.3589 -0.7719
 4756TIP3   OH235682   1.362   4.541  16.544  0.0052  0.1990 -0.7235
 4756TIP3    H135683   1.291   4.590  16.585 -0.3696 -0.6905 -0.2762
 4756TIP3    H235684   1.413   4.506  16.617  1.1292  1.1215 -1.0376
 4757TIP3   OH235685   6.154   6.135  17.183 -0.0187  0.6341 -0.0568
 4757TIP3    H135686   6.143   6.150  17.089  1.1554  0.1515 -0.2894
 4757TIP3    H235687   6.084   6.073  17.205 -0.8176  1.3926 -0.4304
 4758TIP3   OH235688   5.852   5.268   2.623  0.0287  0.0489  0.0704
 4758TIP3    H135689   5.763   5.248   2.597  0.9329 -3.2424 -0.9201
 4758TIP3    H235690   5.902   5.269   2.541  1.4221 -1.6201  0.8207
 4759TIP3   OH235691   2.925   4.496   1.935 -0.8009 -0.5178  0.5005
 4759TIP3    H135692   2.943   4.565   1.999 -1.6652  0.6950 -0.5394
 4759TIP3    H235693   2.834   4.471   1.951 -0.3177 -1.9246  1.2976
 4760TIP3   OH235694   2.956   1.804   0.026  0.2316  0.1186  0.4533
 4760TIP3    H135695   2.950   1.853  -0.056 -0.2166  0.4970  0.7023
 4760TIP3    H235696   2.874   1.825   0.072 -1.3029 -2.9389 -0.5688
 4761TIP3   OH235697   0.249   4.605   4.379 -0.5129 -0.4685 -0.4073
 4761TIP3    H135698   0.279   4.515   4.365  1.5425 -0.2224  1.7410
 4761TIP3    H235699   0.278   4.626   4.468 -2.9616  1.5639  0.0313
 4762TIP3   OH235700   1.231   3.545  12.459  0.5134  0.1134  0.5169
 4762TIP3    H135701   1.150   3.540  12.510 -0.1689  3.1041 -0.0859
 4762TIP3    H235702   1.298   3.510  12.517 -1.1199 -2.1264  1.1593
 4763TIP3   OH235703   2.454   1.776  12.993  0.0933  0.1081  0.1009
 4763TIP3    H135704   2.373   1.825  12.981 -0.8295 -1.7418 -1.8134
 4763TIP3    H235705   2.444   1.734  13.079 -0.0894  1.3972  0.7310
 4764TIP3   OH235706   4.858   3.332  17.283  0.0607  0.2795  0.0332
 4764TIP3    H135707   4.899   3.274  17.219  0.4862  0.7324 -0.1004
 4764TIP3    H235708   4.767   3.302  17.287 -0.2384  0.8970 -1.5345
 4765TIP3   OH235709   5.956   5.369   5.227  0.2356  0.0594 -0.4189
 4765TIP3    H135710   5.988   5.405   5.309  1.2763  0.4392 -0.9824
 4765TIP3    H235711   5.881   5.423   5.204  0.5407  0.5714 -0.2143
 4766TIP3   OH235712   5.179   1.424   0.443  0.2209  0.3695 -0.4006
 4766TIP3    H135713   5.179   1.478   0.522  3.8088  1.3525 -0.8745
 4766TIP3    H235714   5.152   1.337   0.473 -0.0450  1.0886  1.5702
 4767TIP3   OH235715   0.703   1.093   5.089 -0.0987  0.0141  0.0651
 4767TIP3    H135716   0.650   1.160   5.133 -1.6213 -1.6762  0.9456
 4767TIP3    H235717   0.639   1.029   5.058  1.3367 -1.3902 -0.1089
 4768TIP3   OH235718   2.172   2.942  13.328 -0.3370  0.0745 -0.1441
 4768TIP3    H135719   2.236   2.886  13.283 -1.1473 -1.4097  0.4818
 4768TIP3    H235720   2.174   3.025  13.279  4.2675  1.2914  1.5994
 4769TIP3   OH235721   2.840   4.768   2.798 -0.0333  0.6709  0.2156
 4769TIP3    H135722   2.897   4.692   2.811  1.0892  1.6871  1.6476
 4769TIP3    H235723   2.901   4.840   2.778 -0.9281  1.4861  0.3433
 4770TIP3   OH235724   3.802   0.520  12.305  0.3061  0.4619  0.1616
 4770TIP3    H135725   3.840   0.442  12.264 -0.1127  0.2433  0.1743
 4770TIP3    H235726   3.788   0.581  12.233 -0.2933  0.1346 -0.0101
 4771TIP3   OH235727   5.683   3.194   1.542  0.1419 -0.5775  0.0350
 4771TIP3    H135728   5.706   3.108   1.575  1.2317 -0.0319  0.7243
 4771TIP3    H235729   5.714   3.194   1.451 -1.7080 -1.6108 -0.6631
 4772TIP3   OH235730   0.525   4.730   4.567  0.0506 -0.1678 -0.1058
 4772TIP3    H135731   0.516   4.636   4.583  1.5561 -0.2604  0.2683
 4772TIP3    H235732   0.615   4.750   4.589  0.1726  1.1020 -1.5869
 4773TIP3   OH235733   1.396   1.762  14.231 -0.0264  0.3854  0.4417
 4773TIP3    H135734   1.448   1.753  14.152  0.0789  0.4083  0.5074
 4773TIP3    H235735   1.447   1.718  14.299  0.2630  1.0492  0.6624
 4774TIP3   OH235736   6.550   4.113  17.134 -0.4022  0.3088 -0.1329
 4774TIP3    H135737   6.455   4.128  17.134 -0.4466  0.1277 -1.6315
 4774TIP3    H235738   6.570   4.084  17.045  1.1863  1.0902 -0.0634
 4775TIP3   OH235739   0.958   4.929   6.464 -0.8719 -0.0826  0.1574
 4775TIP3    H135740   0.871   4.935   6.504 -1.5956 -0.6909 -1.2776
 4775TIP3    H235741   1.015   4.976   6.525 -2.1268  0.0130  1.3150
 4776TIP3   OH235742   3.693   1.965   3.547  0.4909  0.7442  0.7066
 4776TIP3    H135743   3.751   1.970   3.472 -0.4954  0.8157 -0.0681
 4776TIP3    H235744   3.745   1.921   3.615  0.0091 -3.6058 -1.4180
 4777TIP3   OH235745   3.612   4.602  16.565  0.0058  0.1829  0.3294
 4777TIP3    H135746   3.531   4.559  16.536  0.9155 -1.4958  0.1711
 4777TIP3    H235747   3.589   4.642  16.649 -0.1638 -3.2580  2.0745
 4778TIP3   OH235748   5.291   5.560   1.040 -0.3035 -0.1353 -0.3743
 4778TIP3    H135749   5.225   5.491   1.054  2.1030 -3.0218 -2.1830
 4778TIP3    H235750   5.362   5.537   1.100 -0.0902  1.8306  0.1867
 4779TIP3   OH235751   6.279   1.917  13.622  0.4908  0.1659  0.0654
 4779TIP3    H135752   6.313   1.983  13.683 -0.5017  0.6386  0.1442
 4779TIP3    H235753   6.353   1.861  13.602  1.0300  0.4903  1.0858
 4780TIP3   OH235754   0.038   6.616   5.215  0.4560 -0.3384 -0.0171
 4780TIP3    H135755   0.112   6.665   5.181  2.0859 -2.5759  0.0706
 4780TIP3    H235756   0.055   6.607   5.309  0.6708 -1.7195 -0.1570
 4781TIP3   OH235757   0.105   4.650  13.509  0.6429  0.0037  0.6324
 4781TIP3    H135758   0.042   4.666  13.439  0.5218 -1.1188  0.4751
 4781TIP3    H235759   0.108   4.555  13.519  0.4402  0.1358  2.3517
 4782TIP3   OH235760   3.957   1.326   4.772  0.1328  0.2452 -0.5153
 4782TIP3    H135761   3.872   1.288   4.794 -0.0623  1.3949  0.9125
 4782TIP3    H235762   3.983   1.374   4.851  1.5768  0.8594 -1.3180
 4783TIP3   OH235763   3.936   5.443   2.340  0.2440 -0.3541 -0.3185
 4783TIP3    H135764   3.890   5.382   2.282  0.8945  1.4640 -2.9316
 4783TIP3    H235765   3.866   5.488   2.387 -0.4828 -0.1108 -1.5896
 4784TIP3   OH235766   5.215   5.393  17.206 -0.1606 -0.2266 -0.8385
 4784TIP3    H135767   5.120   5.391  17.204 -0.1705  0.1930 -2.7721
 4784TIP3    H235768   5.242   5.333  17.136  1.0747 -2.0327  1.0523
 4785TIP3   OH235769   5.789   5.296  16.600 -0.1885 -0.6527 -0.2382
 4785TIP3    H135770   5.775   5.345  16.681 -1.1536 -1.6213  0.1900
 4785TIP3    H235771   5.855   5.348  16.552 -0.4429  0.5197  0.6441
 4786TIP3   OH235772   5.054   6.365  16.824 -0.2261 -0.6447 -0.8073
 4786TIP3    H135773   5.085   6.274  16.822 -0.0362 -0.5704 -1.2369
 4786TIP3    H235774   5.118   6.410  16.879 -0.8763 -0.9690  0.2519
 4787TIP3   OH235775   5.561   0.062   2.990  0.0677 -0.7115 -0.7394
 4787TIP3    H135776   5.615   0.130   3.031  0.5521 -1.4220 -0.1708
 4787TIP3    H235777   5.519   0.106   2.916  0.3325  0.2167 -0.3590
 4788TIP3   OH235778   4.675   2.151   1.195  0.1545 -0.1994 -0.3776
 4788TIP3    H135779   4.662   2.106   1.111 -1.6291  0.3999 -0.4476
 4788TIP3    H235780   4.622   2.101   1.257 -2.6816  2.2775 -0.6427
 4789TIP3   OH235781   5.936   2.318  14.065  0.6104 -0.1518 -0.1746
 4789TIP3    H135782   5.979   2.361  13.991  2.1381  1.0801  1.3380
 4789TIP3    H235783   5.861   2.373  14.085 -0.2842 -0.9363 -1.2790
 4790TIP3   OH235784   6.459   4.951   4.332 -0.1610  0.6792  0.0395
 4790TIP3    H135785   6.499   4.872   4.296 -1.3238 -0.7519  1.7226
 4790TIP3    H235786   6.437   5.004   4.255  0.3974 -0.7548 -1.1618
 4791TIP3   OH235787   1.502   3.038   0.160  0.0556 -0.2965  0.7734
 4791TIP3    H135788   1.473   3.103   0.095 -1.2733 -0.3461  1.2873
 4791TIP3    H235789   1.587   3.009   0.128 -0.6397 -0.4719 -1.0788
 4792TIP3   OH235790   0.149   0.010  15.808 -0.0970 -0.4630 -0.1134
 4792TIP3    H135791   0.128  -0.078  15.840  0.8509 -0.4637  0.5310
 4792TIP3    H235792   0.198   0.051  15.879 -0.1234  0.4250 -0.5948
 4793TIP3   OH235793   3.140   2.100  13.126 -0.0638  0.2548  0.5500
 4793TIP3    H135794   3.167   2.191  13.138  1.4348  0.1978 -1.7053
 4793TIP3    H235795   3.213   2.049  13.161 -0.1075 -0.0354  0.2237
 4794TIP3   OH235796   1.596   0.620   2.067 -0.0275 -0.6629 -0.0315
 4794TIP3    H135797   1.502   0.635   2.063  0.0840 -0.1869 -1.5142
 4794TIP3    H235798   1.635   0.706   2.051  0.6409 -1.0704 -0.7089
 4795TIP3   OH235799   1.824   5.793   5.624  0.7469 -0.2201  0.0209
 4795TIP3    H135800   1.831   5.700   5.643  2.4436 -0.3701 -1.1704
 4795TIP3    H235801   1.891   5.810   5.558  1.5549  2.1553  1.3284
 4796TIP3   OH235802   5.706   3.265   4.732 -0.9762 -0.0669 -0.2966
 4796TIP3    H135803   5.684   3.202   4.801 -1.7846 -0.0838 -0.5619
 4796TIP3    H235804   5.798   3.247   4.711 -0.1518  1.0766  1.9721
 4797TIP3   OH235805   4.566   0.981  13.662 -0.2683 -0.1364  0.2130
 4797TIP3    H135806   4.554   0.890  13.690 -0.7883 -0.1542 -0.0499
 4797TIP3    H235807   4.629   0.975  13.591 -0.1607 -0.2697  0.3161
 4798TIP3   OH235808   0.929   5.553   3.999  0.1534 -0.0725  0.0393
 4798TIP3    H135809   0.845   5.508   3.987 -0.5381  1.0577  0.4142
 4798TIP3    H235810   0.974   5.502   4.067  0.1373 -1.1573 -0.7433
 4799TIP3   OH235811   1.172   1.594  14.356  0.1719  0.1971  0.1630
 4799TIP3    H135812   1.234   1.523  14.374  0.4844  0.2329 -0.7343
 4799TIP3    H235813   1.216   1.650  14.292 -0.7436  0.2603 -0.4424
 4800TIP3   OH235814   6.770   5.356   0.845 -0.1390  0.6941 -0.1979
 4800TIP3    H135815   6.704   5.339   0.912 -1.4326 -0.8023 -1.7777
 4800TIP3    H235816   6.720   5.379   0.767  1.2743  0.9461 -1.0628
 4801TIP3   OH235817   5.547   3.477  13.239 -0.2499  0.2185  0.0469
 4801TIP3    H135818   5.453   3.492  13.237 -0.2832 -0.0438 -0.3422
 4801TIP3    H235819   5.560   3.396  13.190 -0.0257 -0.8275  1.7678
 4802TIP3   OH235820   4.013   3.868  14.651 -0.4446  0.2763  0.1251
 4802TIP3    H135821   3.957   3.820  14.712 -1.2005 -1.7532 -2.0156
 4802TIP3    H235822   4.102   3.854  14.684 -0.9750  2.8629  3.1048
 4803TIP3   OH235823   2.613   6.757  15.762 -0.0309 -0.2875  0.6605
 4803TIP3    H135824   2.586   6.693  15.827  0.7257 -0.2359  1.0424
 4803TIP3    H235825   2.646   6.831  15.813  1.7186 -0.7344  0.2708
 4804TIP3   OH235826   4.295   1.465  11.846  0.1330 -0.1703 -0.3156
 4804TIP3    H135827   4.247   1.473  11.764 -0.5405 -2.1404 -0.1610
 4804TIP3    H235828   4.329   1.375  11.846  0.9470  0.0973  1.1223
 4805TIP3   OH235829   0.526   4.044  13.093 -0.1760  0.4492 -0.1867
 4805TIP3    H135830   0.561   4.022  13.007  0.3164  1.6308 -0.3076
 4805TIP3    H235831   0.473   4.123  13.078  0.5612  1.1434  0.7031
 4806TIP3   OH235832   5.562   2.566   0.869  0.0490  0.2860 -0.2391
 4806TIP3    H135833   5.579   2.499   0.935  1.7985 -0.0969 -1.0404
 4806TIP3    H235834   5.478   2.541   0.831  0.3499 -1.0563 -0.0526
 4807TIP3   OH235835   3.850   1.103   4.078  0.7127 -0.2009  0.1884
 4807TIP3    H135836   3.824   1.170   4.141  0.0157  1.9183 -2.1679
 4807TIP3    H235837   3.945   1.114   4.069  0.7467 -0.2019  0.5217
 4808TIP3   OH235838   4.553   2.251  12.377  1.0256  0.4987 -0.6000
 4808TIP3    H135839   4.630   2.199  12.353 -0.4481 -0.8537 -2.6862
 4808TIP3    H235840   4.542   2.313  12.306 -0.5735 -0.2567 -1.0638
 4809TIP3   OH235841   5.888   3.731   6.314 -0.4763 -0.7179 -0.9062
 4809TIP3    H135842   5.851   3.652   6.355  0.7793 -2.1029 -2.3259
 4809TIP3    H235843   5.812   3.779   6.282 -1.2330 -1.7539 -0.7119
 4810TIP3   OH235844   1.213   3.364   2.245 -0.4057  0.1633  0.5080
 4810TIP3    H135845   1.217   3.271   2.224 -0.5984  0.2116  0.2444
 4810TIP3    H235846   1.120   3.380   2.265 -0.6846  0.6109 -0.9872
 4811TIP3   OH235847   1.064   0.955  10.880 -0.3361 -0.6396 -0.1323
 4811TIP3    H135848   0.980   0.975  10.921 -0.9461 -2.4306 -0.3809
 4811TIP3    H235849   1.054   0.984  10.789  0.1756  1.2183  0.3690
 4812TIP3   OH235850   4.602   4.396   0.976 -0.1320  0.3742 -0.2714
 4812TIP3    H135851   4.606   4.425   0.884 -0.3172  0.5386 -0.2291
 4812TIP3    H235852   4.538   4.325   0.975  0.3575 -0.0697 -0.3834
 4813TIP3   OH235853   2.489   0.523  14.750  0.5660 -0.1195 -0.0672
 4813TIP3    H135854   2.394   0.511  14.753 -0.0177  2.1549 -3.5606
 4813TIP3    H235855   2.501   0.617  14.752  2.5178 -0.2541 -2.1160
 4814TIP3   OH235856   1.926   6.379   3.916 -0.8483 -0.6106  0.7797
 4814TIP3    H135857   2.017   6.393   3.943 -1.2104 -0.6846  2.1410
 4814TIP3    H235858   1.929   6.304   3.858 -0.3220 -2.4002  2.9875
 4815TIP3   OH235859   3.438   4.386  16.324  0.0302 -0.2273  0.1066
 4815TIP3    H135860   3.515   4.342  16.359  0.0928  0.7075  1.2074
 4815TIP3    H235861   3.373   4.316  16.314  1.0887 -1.0782 -1.1260
 4816TIP3   OH235862   3.938   1.176  12.261  0.1265  0.3862 -0.4235
 4816TIP3    H135863   3.900   1.263  12.249 -1.5654 -0.3500 -0.6417
 4816TIP3    H235864   3.946   1.141  12.172 -0.0041 -0.0041 -0.2862
 4817TIP3   OH235865   4.847   1.898   4.383  0.1702  0.0901  0.3437
 4817TIP3    H135866   4.816   1.909   4.293 -1.4714  3.4547  1.1657
 4817TIP3    H235867   4.770   1.867   4.431  0.0633  1.5028  1.1275
 4818TIP3   OH235868   2.161   2.483   0.098 -0.2459 -0.2985 -0.0591
 4818TIP3    H135869   2.255   2.466   0.100 -0.4769 -1.5736  0.8929
 4818TIP3    H235870   2.138   2.486   0.005  0.4572 -1.6450 -0.2942
 4819TIP3   OH235871   1.500   1.322   4.613  0.3382 -0.4221 -0.4432
 4819TIP3    H135872   1.533   1.408   4.639  0.3397 -0.4925 -0.2112
 4819TIP3    H235873   1.497   1.272   4.695 -0.8145 -0.2647 -0.3713
 4820TIP3   OH235874   0.394   4.871  11.011  0.4677 -0.0692  0.1064
 4820TIP3    H135875   0.313   4.824  11.033  0.1479  0.8883  1.0198
 4820TIP3    H235876   0.397   4.868  10.915  0.1770 -1.4656  0.1202
 4821TIP3   OH235877   4.812   5.133   3.304 -0.1481 -0.3757  0.0844
 4821TIP3    H135878   4.898   5.106   3.271  0.4743 -0.1645  1.4276
 4821TIP3    H235879   4.750   5.072   3.265  0.5604 -0.3185 -1.1858
 4822TIP3   OH235880   4.323   4.252   0.915  0.6199 -0.5593 -0.4272
 4822TIP3    H135881   4.263   4.327   0.924 -1.3164 -2.0664 -0.1553
 4822TIP3    H235882   4.341   4.225   1.005  1.3783 -0.4004 -0.5236
 4823TIP3   OH235883   3.532   3.730  14.217 -0.2571  0.3785 -0.1824
 4823TIP3    H135884   3.627   3.719  14.219 -0.1526  1.2343  0.5817
 4823TIP3    H235885   3.501   3.679  14.292 -0.5167 -0.7299 -1.0225
 4824TIP3   OH235886   6.557   2.893   4.097  0.2257 -0.6644 -0.0249
 4824TIP3    H135887   6.488   2.828   4.092 -1.1069  0.7463 -0.7684
 4824TIP3    H235888   6.576   2.916   4.006  3.0915 -2.3701  0.0114
 4825TIP3   OH235889   0.848   5.275  15.994  0.6717  0.0490  0.8205
 4825TIP3    H135890   0.831   5.198  16.048  0.4911  0.0799  0.8077
 4825TIP3    H235891   0.761   5.304  15.966  0.7210  0.4245  1.0595
 4826TIP3   OH235892   0.212   3.096   1.818  0.1585  0.4892 -0.3521
 4826TIP3    H135893   0.279   3.035   1.847 -0.0143  0.6221  0.3468
 4826TIP3    H235894   0.137   3.041   1.797  0.3752  0.3690 -0.8087
 4827TIP3   OH235895   1.157   6.422  14.599  0.4310  0.8247 -0.2978
 4827TIP3    H135896   1.227   6.473  14.560  0.6799  0.6085 -0.1347
 4827TIP3    H235897   1.138   6.353  14.535  0.3964  0.8592 -0.3243
 4828TIP3   OH235898   3.087   2.082   2.426 -0.6078 -0.0608  0.2137
 4828TIP3    H135899   3.142   2.149   2.465 -1.6277 -0.0784  1.7700
 4828TIP3    H235900   3.060   2.118   2.342 -0.5859  1.1887  0.7269
 4829TIP3   OH235901   3.473   1.257   0.200  0.0717  0.7224  0.5023
 4829TIP3    H135902   3.446   1.166   0.206  1.4459  0.1743 -0.8716
 4829TIP3    H235903   3.399   1.307   0.234 -1.3875 -0.8308 -0.2641
 4830TIP3   OH235904   1.893   0.784  13.390 -0.5171 -0.0313 -0.0429
 4830TIP3    H135905   1.969   0.793  13.332  0.4193 -0.1746  1.1144
 4830TIP3    H235906   1.910   0.846  13.461 -0.8515 -0.9744  0.8844
 4831TIP3   OH235907   6.714   5.219   6.270  0.3514 -0.0115 -0.2275
 4831TIP3    H135908   6.667   5.294   6.306  0.5985 -0.3256  0.7744
 4831TIP3    H235909   6.799   5.220   6.315  0.2096 -1.1164  0.0863
 4832TIP3   OH235910   1.455   3.525  11.940 -0.1333  0.1349  0.3720
 4832TIP3    H135911   1.485   3.615  11.956 -0.3311  0.3566 -0.4550
 4832TIP3    H235912   1.388   3.510  12.006 -2.8378  1.9512 -1.6884
 4833TIP3   OH235913   0.321   6.186   4.004 -0.5991  0.4541  0.1666
 4833TIP3    H135914   0.246   6.223   4.052  0.0093  2.0143 -0.0231
 4833TIP3    H235915   0.303   6.208   3.912 -0.4772 -0.2193 -0.0229
 4834TIP3   OH235916   0.793   4.904  13.712 -0.3425  0.2995  0.2635
 4834TIP3    H135917   0.716   4.956  13.689 -0.6913 -0.4719 -0.3827
 4834TIP3    H235918   0.766   4.855  13.790 -0.8962 -0.7459 -0.5542
 4835TIP3   OH235919   0.604   3.605  16.889  0.0560 -0.1467  0.4824
 4835TIP3    H135920   0.685   3.598  16.940  0.0142  0.5570  0.6527
 4835TIP3    H235921   0.581   3.514  16.869  1.3808 -0.3188 -0.3508
 4836TIP3   OH235922   5.849   1.930   5.999  0.0383 -0.2066 -0.1058
 4836TIP3    H135923   5.780   1.886   5.950  0.3789  0.1659 -0.9404
 4836TIP3    H235924   5.873   1.868   6.068 -2.0266  0.1810  1.0350
 4837TIP3   OH235925   5.874   6.017  14.691 -0.0959 -0.0495  0.2319
 4837TIP3    H135926   5.911   6.034  14.604  1.0259 -0.3868  0.6178
 4837TIP3    H235927   5.821   5.939  14.681  1.0533 -0.8367  0.1010
 4838TIP3   OH235928   4.369   0.627  16.313 -0.1661 -0.5493  0.4603
 4838TIP3    H135929   4.299   0.574  16.351  0.1375 -0.1420  1.6411
 4838TIP3    H235930   4.420   0.657  16.389  1.1214 -0.6078 -0.3426
 4839TIP3   OH235931   4.052   0.219  16.882  0.0368 -0.2784 -0.0584
 4839TIP3    H135932   3.992   0.273  16.831  0.1647  1.2190  1.3185
 4839TIP3    H235933   3.994   0.168  16.940 -0.0757 -1.6137 -1.2749
 4840TIP3   OH235934   5.395   0.832  14.003 -0.2839 -0.7888  0.4939
 4840TIP3    H135935   5.426   0.766  14.064 -0.6080  0.0510  1.6072
 4840TIP3    H235936   5.388   0.912  14.056 -1.7245 -0.3158 -0.3486
 4841TIP3   OH235937   2.452   0.473  14.326  0.1491 -0.0269  0.0189
 4841TIP3    H135938   2.405   0.539  14.377 -0.8884 -0.1008 -0.8124
 4841TIP3    H235939   2.478   0.407  14.391 -2.5304 -0.9225  0.3024
 4842TIP3   OH235940   4.161   4.156  17.261  0.0352  0.4939 -0.1524
 4842TIP3    H135941   4.174   4.063  17.242 -2.6402  0.2257 -1.0726
 4842TIP3    H235942   4.178   4.199  17.177 -0.7664  0.5797 -0.2773
 4843TIP3   OH235943   3.234   3.896   1.620 -0.0890  0.6898 -0.3611
 4843TIP3    H135944   3.182   3.820   1.646  0.9278 -0.5705 -1.8428
 4843TIP3    H235945   3.300   3.861   1.560  1.3701  2.5068  0.0748
 4844TIP3   OH235946   2.985   4.665  14.941 -0.1495  0.3155 -0.3894
 4844TIP3    H135947   3.071   4.625  14.949  0.5477  1.2114 -2.7164
 4844TIP3    H235948   2.924   4.595  14.966  1.1723 -1.0735 -0.8943
 4845TIP3   OH235949   2.664   2.594  11.308 -0.0522 -0.0272  0.4297
 4845TIP3    H135950   2.736   2.568  11.365 -0.4195  1.1642  1.4696
 4845TIP3    H235951   2.618   2.512  11.290  1.0773 -0.6788  0.4141
 4846TIP3   OH235952   6.464   2.598   0.045  0.1357  0.1216  0.1410
 4846TIP3    H135953   6.493   2.545   0.120  0.2947 -0.1054 -0.0784
 4846TIP3    H235954   6.540   2.651   0.023  1.3371 -2.2865 -2.0498
 4847TIP3   OH235955   2.947   4.511  12.784  0.5535 -0.3305 -0.1680
 4847TIP3    H135956   2.947   4.555  12.869  0.1391 -0.6307 -0.0099
 4847TIP3    H235957   3.018   4.447  12.790  1.4934  0.6383 -0.5776
 4848TIP3   OH235958   6.492   3.816   5.054  0.2938  0.1138 -0.1474
 4848TIP3    H135959   6.431   3.748   5.024  1.4816 -0.8706 -0.4045
 4848TIP3    H235960   6.576   3.793   5.014  0.7580  1.6859 -0.1478
 4849TIP3   OH235961   4.406   4.585  12.808 -0.5784  0.3579  0.4865
 4849TIP3    H135962   4.449   4.502  12.790 -0.8325  0.4928 -0.7901
 4849TIP3    H235963   4.457   4.650  12.760 -0.4876  0.9231  1.3275
 4850TIP3   OH235964   3.191   4.840   6.484 -0.0394  0.1838  0.6509
 4850TIP3    H135965   3.172   4.921   6.532 -2.2036  0.2955 -0.2773
 4850TIP3    H235966   3.209   4.776   6.552 -0.4492  0.9464  1.4997
 4851TIP3   OH235967   5.218   1.013  15.303  0.7075  0.2288  0.0237
 4851TIP3    H135968   5.287   0.954  15.333 -1.4075 -1.5449  1.7319
 4851TIP3    H235969   5.199   0.983  15.214  1.0442 -0.3144  0.1280
 4852TIP3   OH235970   4.481   0.692  13.253 -0.1376 -0.1856 -0.0965
 4852TIP3    H135971   4.454   0.608  13.290  2.3919 -0.5266  1.1867
 4852TIP3    H235972   4.573   0.701  13.277 -0.6346  3.6288  1.1221
 4853TIP3   OH235973   2.238   1.905  12.999  0.3183  0.3219  0.7316
 4853TIP3    H135974   2.198   1.992  12.992 -2.0617 -0.7603  0.0281
 4853TIP3    H235975   2.192   1.863  13.071 -0.4560 -1.2654 -0.6332
 4854TIP3   OH235976   3.527   0.935  15.914 -0.0758  0.5475  0.2036
 4854TIP3    H135977   3.586   0.869  15.950 -1.1681  0.8391  2.7655
 4854TIP3    H235978   3.545   1.014  15.966 -2.0367  0.8977  0.4102
 4855TIP3   OH235979   1.720   0.949  13.658  0.7193 -0.3378 -0.3463
 4855TIP3    H135980   1.732   0.880  13.724 -0.4499 -0.0030  0.2464
 4855TIP3    H235981   1.636   0.989  13.681  1.9020  2.0791  0.0704
 4856TIP3   OH235982   5.281   1.191   6.241 -0.3010  0.0651  0.2634
 4856TIP3    H135983   5.286   1.287   6.234 -0.2911  0.0451 -0.0072
 4856TIP3    H235984   5.348   1.159   6.181 -1.7487 -0.1496 -1.3398
 4857TIP3   OH235985   1.886   6.440   2.805 -0.6688 -0.2557 -0.2986
 4857TIP3    H135986   1.835   6.475   2.732  0.2104  0.3348 -0.6332
 4857TIP3    H235987   1.955   6.504   2.820 -0.3572 -0.7647  0.5362
 4858TIP3   OH235988   6.487   2.478   1.495 -0.1634  0.3748 -0.3471
 4858TIP3    H135989   6.460   2.397   1.453 -0.0428  0.0866  0.1208
 4858TIP3    H235990   6.482   2.544   1.426 -0.6603  0.0508 -0.6313
 4859TIP3   OH235991   0.944   6.579   4.756  0.2106 -0.3568  0.1413
 4859TIP3    H135992   0.865   6.552   4.709 -0.4724 -1.2911  1.7296
 4859TIP3    H235993   1.007   6.601   4.688 -0.5560 -2.1463 -1.2122
 4860TIP3   OH235994   4.731   4.987  12.930  0.0546  0.3106 -0.2740
 4860TIP3    H135995   4.685   5.051  12.983 -0.7306 -1.1590  0.8781
 4860TIP3    H235996   4.819   5.024  12.918 -0.1991  1.3241  0.8469
 4861TIP3   OH235997   2.722   2.286  16.771 -0.3284  0.0706  0.3101
 4861TIP3    H135998   2.727   2.376  16.803 -0.9859 -0.1774  1.1387
 4861TIP3    H235999   2.673   2.239  16.838  1.4073 -1.2875  0.6754
 4862TIP3   OH236000   4.441   5.767   1.465 -0.0886  0.2006  0.2379
 4862TIP3    H136001   4.436   5.862   1.473  0.1307  0.2294  0.0324
 4862TIP3    H236002   4.431   5.751   1.371  1.0029  0.0862  0.1334
 4863TIP3   OH236003   6.483   2.002  16.875  0.5263  0.2141  0.2012
 4863TIP3    H136004   6.395   2.017  16.840  0.8511 -0.1251 -0.7983
 4863TIP3    H236005   6.489   2.060  16.951 -0.0821  1.2360 -0.5060
 4864TIP3   OH236006   2.916   0.808   1.650  0.1421 -0.1776 -0.1651
 4864TIP3    H136007   2.989   0.830   1.592 -0.0933  1.4817  0.1030
 4864TIP3    H236008   2.839   0.814   1.594  0.1165 -0.9993 -0.2292
 4865TIP3   OH236009   0.026   2.105  14.084  0.6559 -0.0878  0.4621
 4865TIP3    H136010   0.022   2.053  14.003 -0.5490  1.1424 -0.3299
 4865TIP3    H236011  -0.036   2.177  14.068  2.8387  2.0758  1.1447
 4866TIP3   OH236012   5.518   2.710   2.440  0.0668  0.2107 -0.7297
 4866TIP3    H136013   5.462   2.761   2.499  1.1270  1.1843 -0.5308
 4866TIP3    H236014   5.496   2.619   2.459 -0.2854  0.5345  0.4932
 4867TIP3   OH236015   4.631   0.488  11.825  0.0865  0.2011 -0.1633
 4867TIP3    H136016   4.667   0.448  11.746  0.0618 -2.5820  1.1570
 4867TIP3    H236017   4.707   0.507  11.880 -0.1039 -0.9614  0.5132
 4868TIP3   OH236018   5.943   5.158   1.552  0.0173 -0.7220  0.0872
 4868TIP3    H136019   5.848   5.157   1.564  0.2036  0.4041  2.1542
 4868TIP3    H236020   5.957   5.111   1.470 -2.2700 -1.5061  0.0580
 4869TIP3   OH236021   3.233   3.893   2.956 -0.3482  0.1838 -0.6836
 4869TIP3    H136022   3.190   3.825   3.008  1.1602  0.7148  1.3734
 4869TIP3    H236023   3.281   3.845   2.889  0.1680 -0.7738  0.3386
 4870TIP3   OH236024   0.307   5.554   3.870 -0.7365  0.1037  0.2853
 4870TIP3    H136025   0.371   5.585   3.934  1.3036  1.2478 -2.1454
 4870TIP3    H236026   0.247   5.627   3.858 -1.4398 -0.2981  1.1895
 4871TIP3   OH236027   2.100   2.813   1.158  0.0004 -0.5902 -0.2676
 4871TIP3    H136028   2.173   2.863   1.194 -1.8360  2.1769 -0.1147
 4871TIP3    H236029   2.045   2.793   1.233  0.2881 -2.1998 -0.4533
 4872TIP3   OH236030   6.363   1.177   2.355 -0.3480  0.2605  0.0632
 4872TIP3    H136031   6.332   1.115   2.421 -0.9632  1.0095  0.5009
 4872TIP3    H236032   6.448   1.207   2.389 -0.7514  0.7924  0.6426
 4873TIP3   OH236033   1.846   0.858   2.524  0.1137  0.0949 -0.3137
 4873TIP3    H136034   1.910   0.787   2.524  1.0352  0.9051  0.2774
 4873TIP3    H236035   1.854   0.898   2.437 -0.4080 -0.5141 -0.6481
 4874TIP3   OH236036   5.882   4.566  15.551  0.5235 -0.0279  0.1669
 4874TIP3    H136037   5.887   4.490  15.609  2.6045 -0.2325 -0.2011
 4874TIP3    H236038   5.831   4.536  15.476 -1.6855  0.0561  1.5641
 4875TIP3   OH236039   0.628   2.265   6.374 -0.1628 -0.5243 -0.2186
 4875TIP3    H136040   0.674   2.299   6.451  1.7738 -2.1891 -0.5495
 4875TIP3    H236041   0.535   2.267   6.398  0.1674  1.4510  1.1136
 4876TIP3   OH236042   1.828   3.115  12.622 -0.5121 -0.0942 -0.5496
 4876TIP3    H136043   1.745   3.156  12.644 -0.1262  0.9634 -0.9755
 4876TIP3    H236044   1.848   3.148  12.534  1.1125  0.9302  0.1612
 4877TIP3   OH236045   0.236   4.189   1.584 -0.1829  0.0422  0.4283
 4877TIP3    H136046   0.237   4.119   1.518 -0.6913  0.5608 -0.1416
 4877TIP3    H236047   0.245   4.143   1.667  2.7853 -0.4838 -0.0700
 4878TIP3   OH236048   4.444   3.252   4.454 -0.0611 -0.2330 -0.2352
 4878TIP3    H136049   4.525   3.276   4.408 -0.2812  0.5352 -0.2422
 4878TIP3    H236050   4.413   3.173   4.409  0.1463  0.0482 -0.8901
 4879TIP3   OH236051   4.808   3.316  12.820  0.5980  0.4249  0.0570
 4879TIP3    H136052   4.726   3.297  12.865  0.9913  1.0888  1.1216
 4879TIP3    H236053   4.786   3.318  12.727 -0.1572 -1.4429  0.1723
 4880TIP3   OH236054   2.316   3.059  16.157 -0.2886  0.0507 -0.2890
 4880TIP3    H136055   2.276   3.072  16.243  0.8246 -2.3610  0.6696
 4880TIP3    H236056   2.246   3.025  16.102 -0.8913  1.1828 -0.2569
 4881TIP3   OH236057   4.950   0.944   5.406 -0.0025  0.3389  0.0787
 4881TIP3    H136058   5.033   0.974   5.444  1.2210 -1.7932 -0.6928
 4881TIP3    H236059   4.971   0.926   5.315 -1.1623 -0.7679  0.0046
 4882TIP3   OH236060   5.082   4.358  11.690  0.1360 -0.0010 -0.2538
 4882TIP3    H136061   5.026   4.402  11.626 -1.4356 -0.1369  0.9799
 4882TIP3    H236062   5.083   4.266  11.662  0.2774  0.1113 -0.6276
 4883TIP3   OH236063   1.354   4.896   1.254  0.4467  0.2544 -0.0423
 4883TIP3    H136064   1.439   4.884   1.212  0.1293 -0.6910 -0.4426
 4883TIP3    H236065   1.358   4.841   1.332  0.5816  1.0494  0.5302
 4884TIP3   OH236066   6.674   0.775  15.035 -0.2281 -0.3590 -0.1849
 4884TIP3    H136067   6.761   0.734  15.034 -1.0641 -2.1899 -1.7018
 4884TIP3    H236068   6.679   0.842  14.967  0.0074 -0.3744 -0.1868
 4885TIP3   OH236069   2.721   1.625   1.281 -0.0316  0.1568 -0.0596
 4885TIP3    H136070   2.740   1.665   1.196  2.7173  2.6102  1.5229
 4885TIP3    H236071   2.790   1.561   1.293 -0.1262  0.1645  0.5241
 4886TIP3   OH236072   2.754   6.469  14.559 -0.1439 -0.4638  0.2972
 4886TIP3    H136073   2.788   6.532  14.495 -1.6112 -1.9250 -2.1020
 4886TIP3    H236074   2.817   6.397  14.558 -0.5015 -0.7835 -0.0694
 4887TIP3   OH236075   0.234   2.974  14.915 -0.2748 -0.0275 -0.1473
 4887TIP3    H136076   0.154   3.025  14.927 -0.2874  0.0478 -0.5246
 4887TIP3    H236077   0.246   2.971  14.820  0.5270  0.5084 -0.0724
 4888TIP3   OH236078   4.603   4.743   1.868 -0.4370  0.0102  0.3088
 4888TIP3    H136079   4.665   4.701   1.808 -1.9241  0.8655 -1.9364
 4888TIP3    H236080   4.542   4.673   1.892 -0.7077  0.0035 -0.3911
 4889TIP3   OH236081   5.941   2.134  14.372  0.2684 -0.3061  0.4990
 4889TIP3    H136082   5.847   2.137  14.355  0.3931 -0.3587 -0.2405
 4889TIP3    H236083   5.948   2.084  14.454 -0.4827  1.8122  1.9361
 4890TIP3   OH236084   2.854   1.711   5.654  0.1559  0.4192 -0.6036
 4890TIP3    H136085   2.913   1.636   5.655  1.6346  1.5032 -1.6041
 4890TIP3    H236086   2.766   1.673   5.654  0.8405 -1.2645 -0.0485
 4891TIP3   OH236087   0.977   4.038   6.135 -0.1393 -0.4896  0.0314
 4891TIP3    H136088   0.927   4.109   6.094 -1.2490 -1.0534  0.3613
 4891TIP3    H236089   1.069   4.065   6.128 -0.5397  0.9682  0.1374
 4892TIP3   OH236090   3.451   3.719  16.707 -0.6017  0.0611  0.2463
 4892TIP3    H136091   3.408   3.792  16.751 -0.1532 -0.8134  2.2262
 4892TIP3    H236092   3.385   3.649  16.706 -1.0622  0.4545 -1.7200
 4893TIP3   OH236093   3.847   3.355   1.080 -0.1871 -0.3058 -0.0712
 4893TIP3    H136094   3.894   3.360   0.997  1.5994 -1.0021  0.8473
 4893TIP3    H236095   3.758   3.386   1.059  0.4130  0.2356 -2.0512
 4894TIP3   OH236096   0.249   2.761   2.481 -0.0144 -0.0496  0.5147
 4894TIP3    H136097   0.163   2.802   2.492  0.1739  0.5387 -0.1886
 4894TIP3    H236098   0.233   2.690   2.418 -0.0714 -0.2127  0.7130
 4895TIP3   OH236099   3.351   6.171   2.345  0.0775  0.0955  0.0563
 4895TIP3    H136100   3.374   6.099   2.404  0.4060  0.5475  0.4911
 4895TIP3    H236101   3.270   6.143   2.302 -0.0626 -0.3170  0.5846
 4896TIP3   OH236102   5.993   6.580  13.066  0.2794  0.1776  0.4032
 4896TIP3    H136103   5.919   6.520  13.063  1.3798 -1.2471  0.8117
 4896TIP3    H236104   6.022   6.587  12.975  0.7774 -0.7368  0.4844
 4897TIP3   OH236105   0.323   0.190   5.175  0.1810 -0.2803 -0.0869
 4897TIP3    H136106   0.397   0.234   5.217 -0.4195  1.2508 -0.5873
 4897TIP3    H236107   0.327   0.100   5.209  0.1740  0.6638  2.6935
 4898TIP3   OH236108   0.079   0.666  14.660  0.3171  0.0687  0.3209
 4898TIP3    H136109   0.137   0.620  14.599  2.4077 -0.5008  2.5718
 4898TIP3    H236110  -0.009   0.641  14.632  1.2670 -2.3303 -0.8126
 4899TIP3   OH236111   1.733   0.121   2.702  0.1976 -0.0159  0.1860
 4899TIP3    H136112   1.684   0.155   2.628  0.7379  0.4501  0.0345
 4899TIP3    H236113   1.676   0.133   2.778  0.6626  1.9535  0.2658
 4900TIP3   OH236114   3.727   0.463   3.253  0.4480 -0.5150  0.0834
 4900TIP3    H136115   3.683   0.449   3.169  2.2891  0.1867 -1.0748
 4900TIP3    H236116   3.664   0.434   3.319 -3.1931  3.4356 -1.1635
 4901TIP3   OH236117   0.030   0.179   4.781  0.2709 -0.0648  0.3309
 4901TIP3    H136118   0.005   0.270   4.766 -1.0724 -0.4358  0.2193
 4901TIP3    H236119  -0.052   0.135   4.804  0.1303 -2.0727 -3.3316
 4902TIP3   OH236120   4.895   3.114   1.823 -0.0315 -0.1409  0.7424
 4902TIP3    H136121   4.895   3.019   1.812 -1.5255 -0.3104  1.9879
 4902TIP3    H236122   4.826   3.131   1.886  1.2136  1.6584  1.6918
 4903TIP3   OH236123   4.202   3.378   2.248 -0.3980 -0.0012  0.1351
 4903TIP3    H136124   4.238   3.309   2.304  0.5641  0.9541  0.7330
 4903TIP3    H236125   4.108   3.363   2.250 -0.1639 -1.9014 -0.5698
 4904TIP3   OH236126   2.640   0.295   5.135  0.7039  1.1223 -0.2221
 4904TIP3    H136127   2.546   0.314   5.141  0.5105  0.1607 -0.1290
 4904TIP3    H236128   2.677   0.374   5.096 -0.0211  1.8615  0.5154
 4905TIP3   OH236129   6.467   6.329  14.838 -0.1350  0.3516  0.7729
 4905TIP3    H136130   6.556   6.338  14.805 -0.5082  0.1063 -0.3497
 4905TIP3    H236131   6.471   6.363  14.928  1.3607 -0.8945  1.2088
 4906TIP3   OH236132   0.543   3.306  11.338  0.2951 -0.6669 -0.8588
 4906TIP3    H136133   0.594   3.386  11.349  0.8644 -1.2637  1.1987
 4906TIP3    H236134   0.604   3.244  11.296 -0.5823  0.3220 -3.8512
 4907TIP3   OH236135   4.868   5.897   2.510 -0.1808  0.1580 -0.0132
 4907TIP3    H136136   4.922   5.856   2.442 -1.1244  0.2765 -0.8479
 4907TIP3    H236137   4.802   5.831   2.530 -0.1551  0.2856  0.5052
 4908TIP3   OH236138   6.018   1.654   2.358 -0.0953 -0.7329  0.7302
 4908TIP3    H136139   6.033   1.682   2.448  0.9438 -0.9126  0.6209
 4908TIP3    H236140   6.067   1.716   2.305 -0.6563 -0.6619  0.2807
 4909TIP3   OH236141   1.368   6.420   4.692 -0.1187 -0.0625  0.2300
 4909TIP3    H136142   1.416   6.384   4.767 -0.4609  0.0476  0.5022
 4909TIP3    H236143   1.314   6.490   4.729 -0.9967 -0.6245  0.0397
 4910TIP3   OH236144   1.536   5.573  14.128  0.2174  0.2018 -0.0873
 4910TIP3    H136145   1.486   5.513  14.071 -0.3178  0.3472  0.2232
 4910TIP3    H236146   1.623   5.576  14.088 -0.1831  0.3994 -0.9744
 4911TIP3   OH236147   0.783   4.897   0.111 -0.1878 -0.0146  0.4249
 4911TIP3    H136148   0.764   4.818   0.061 -2.4617 -1.4684  3.2736
 4911TIP3    H236149   0.750   4.969   0.057 -0.2791 -1.2372 -1.1980
 4912TIP3   OH236150   0.482   5.852   6.629 -0.0424  0.1081 -0.3019
 4912TIP3    H136151   0.496   5.891   6.543 -0.8498 -0.0701 -0.5236
 4912TIP3    H236152   0.568   5.818   6.654  0.7811  2.3525  0.0893
 4913TIP3   OH236153   3.462   2.912   3.930  0.6188 -0.1191 -0.1747
 4913TIP3    H136154   3.467   2.889   4.023 -0.7141 -2.8379 -0.6746
 4913TIP3    H236155   3.547   2.888   3.895  0.6265 -0.4458  0.0673
 4914TIP3   OH236156   2.919   1.495   5.018 -0.0810  0.6100 -0.5954
 4914TIP3    H136157   2.871   1.445   5.084  1.5840 -0.7736 -0.3461
 4914TIP3    H236158   2.881   1.466   4.935 -0.4860  0.4660 -0.3660
 4915TIP3   OH236159   0.206   6.719  15.275 -0.0389  0.3343  0.4328
 4915TIP3    H136160   0.215   6.750  15.365  0.0296  1.8621 -0.0713
 4915TIP3    H236161   0.198   6.624  15.283 -0.9366  0.5163  2.1146
 4916TIP3   OH236162   4.585   2.489  12.176  0.3993  0.0467 -0.1105
 4916TIP3    H136163   4.537   2.557  12.222 -0.5226 -2.1137  2.4093
 4916TIP3    H236164   4.677   2.507  12.196  0.2256  0.8865 -0.0213
 4917TIP3   OH236165   1.370   3.901   1.078  0.3613  0.4227 -0.1868
 4917TIP3    H136166   1.337   3.814   1.054  0.3846  1.0199 -2.6665
 4917TIP3    H236167   1.443   3.883   1.137 -0.5445 -1.1485  0.5438
 4918TIP3   OH236168   2.152   5.748   0.007  0.3104 -0.1244 -0.0700
 4918TIP3    H136169   2.152   5.818  -0.058 -1.9359  1.7103  1.7223
 4918TIP3    H236170   2.188   5.788   0.086  0.7166 -1.5660  0.5098
 4919TIP3   OH236171   4.769   2.191   3.998  0.0554  0.3238 -0.1232
 4919TIP3    H136172   4.853   2.146   3.986  0.9233  1.5979  0.8449
 4919TIP3    H236173   4.755   2.238   3.916 -0.2810 -0.7443 -0.6981
 4920TIP3   OH236174   2.383   1.297  10.933  0.1187 -0.1171  0.1245
 4920TIP3    H136175   2.297   1.304  10.974  0.5492 -0.5620  1.1451
 4920TIP3    H236176   2.378   1.215  10.883 -0.2577  0.1933 -0.3575
 4921TIP3   OH236177   6.752   1.156   3.250  0.3237  0.1043 -0.1285
 4921TIP3    H136178   6.714   1.240   3.227  0.6082  0.5649  1.0449
 4921TIP3    H236179   6.780   1.119   3.166  2.1048  2.1117 -0.4960
 4922TIP3   OH236180   5.805   1.096   3.404 -0.1131 -0.2487 -0.4048
 4922TIP3    H136181   5.834   1.185   3.383 -0.4117  0.2225  1.0942
 4922TIP3    H236182   5.710   1.101   3.405 -0.1209 -0.4086  0.3663
 4923TIP3   OH236183   0.565   1.020   4.823  0.3398  0.3077  0.1813
 4923TIP3    H136184   0.485   1.065   4.849 -0.0416  0.2986 -0.9271
 4923TIP3    H236185   0.535   0.945   4.773  1.0393  0.5505 -0.6274
 4924TIP3   OH236186   4.782   5.642   3.646 -0.3647  0.1246 -0.3250
 4924TIP3    H136187   4.838   5.565   3.651 -0.3509  0.1307 -0.3862
 4924TIP3    H236188   4.816   5.691   3.571  1.2028  1.4368  1.1557
 4925TIP3   OH236189   4.932   5.147   4.720 -0.5830  0.6839  0.4109
 4925TIP3    H136190   4.951   5.102   4.802  0.4171 -0.5332 -0.4483
 4925TIP3    H236191   5.007   5.205   4.706 -0.7277  0.8548  0.3405
 4926TIP3   OH236192   2.116   1.361   2.553 -0.1878  0.0022  0.3278
 4926TIP3    H136193   2.150   1.447   2.581 -0.3572  0.6045 -1.2556
 4926TIP3    H236194   2.030   1.355   2.594 -0.2172  0.6253  0.3697
 4927TIP3   OH236195   4.539   2.485  16.813  0.2679 -0.4805 -0.5707
 4927TIP3    H136196   4.500   2.478  16.726 -1.6030 -0.3674  0.2011
 4927TIP3    H236197   4.632   2.468  16.800  0.1485  0.2893 -2.6924
 4928TIP3   OH236198   0.290   4.306  11.287  0.1683  0.0885 -0.3733
 4928TIP3    H136199   0.347   4.275  11.358 -0.7349 -0.2063  0.2391
 4928TIP3    H236200   0.239   4.376  11.326  1.0107  1.2628 -1.2923
 4929TIP3   OH236201   6.422   4.017  13.748 -0.2312 -0.3000 -0.6498
 4929TIP3    H136202   6.494   3.975  13.702  2.5389  1.8182  1.4173
 4929TIP3    H236203   6.370   3.945  13.783  1.9771 -1.9853 -0.6368
 4930TIP3   OH236204   5.972   1.486  11.621  0.7907 -0.8381  0.0154
 4930TIP3    H136205   6.051   1.448  11.583  0.2818 -0.6153 -1.2873
 4930TIP3    H236206   5.904   1.472  11.556 -0.1407 -0.5819  0.9112
 4931TIP3   OH236207   3.305   5.737   1.809  0.4237  0.7315  0.0738
 4931TIP3    H136208   3.259   5.766   1.730  1.4470  1.8455 -0.1385
 4931TIP3    H236209   3.307   5.641   1.801 -2.8616  0.4944  0.6980
 4932TIP3   OH236210   2.791   2.689   3.211  0.4500 -0.4549 -0.3302
 4932TIP3    H136211   2.752   2.769   3.245  1.8736  0.6046 -1.0751
 4932TIP3    H236212   2.880   2.689   3.247  1.3141 -0.3490 -2.3426
 4933TIP3   OH236213   0.949   3.540   4.221 -0.4156  0.5618 -0.0882
 4933TIP3    H136214   0.901   3.475   4.171  0.4043  0.4214 -0.7061
 4933TIP3    H236215   1.033   3.549   4.176 -0.2247  1.4972  0.4187
 4934TIP3   OH236216   0.221   0.931  11.141  0.4724 -0.0719  0.2834
 4934TIP3    H136217   0.253   0.904  11.055  2.0665 -2.3806  1.4810
 4934TIP3    H236218   0.279   0.886  11.203 -0.4682  1.6979  2.5757
 4935TIP3   OH236219   3.711   0.133   3.538  0.6164 -0.6179 -0.6862
 4935TIP3    H136220   3.651   0.191   3.492  1.4207  0.5153 -0.3543
 4935TIP3    H236221   3.786   0.125   3.480  1.8233  1.1649  0.5472
 4936TIP3   OH236222   3.226   3.135  12.952 -0.0694 -0.1031  0.2165
 4936TIP3    H136223   3.221   3.224  12.985 -0.2642  0.1725 -0.5362
 4936TIP3    H236224   3.285   3.140  12.878 -2.3585  0.0255 -1.7322
 4937TIP3   OH236225   0.537   2.804   4.430 -0.6423  0.0681 -0.1887
 4937TIP3    H136226   0.542   2.763   4.516 -3.2611 -1.1389 -0.4967
 4937TIP3    H236227   0.607   2.869   4.430  1.4611 -2.0430  1.6236
 4938TIP3   OH236228   1.860   1.064  13.266 -0.0483  0.1764  0.0854
 4938TIP3    H136229   1.903   1.035  13.346 -0.0276  1.1719  0.4511
 4938TIP3    H236230   1.931   1.069  13.201 -0.0065 -0.3087  0.0952
 4939TIP3   OH236231   5.997   5.429   1.311  0.7703 -0.3547  0.5468
 4939TIP3    H136232   6.087   5.436   1.344  1.3097 -0.0838 -0.8835
 4939TIP3    H236233   5.944   5.470   1.378  1.5316 -1.7993  2.0975
 4940TIP3   OH236234   3.899   4.749  17.101 -0.1119  0.0098 -0.4029
 4940TIP3    H136235   3.836   4.813  17.066 -1.6385 -0.3303  1.5305
 4940TIP3    H236236   3.968   4.802  17.140 -0.8039  0.4980  0.2045
 4941TIP3   OH236237   5.006   2.054   4.008 -0.6821 -0.1597  0.2058
 4941TIP3    H136238   5.085   2.086   4.052  0.3073  0.8696 -2.1171
 4941TIP3    H236239   5.035   1.974   3.963 -0.9933  0.1060 -0.4813
 4942TIP3   OH236240   0.110   1.812  13.674  0.3050  0.3512  0.1876
 4942TIP3    H136241   0.097   1.735  13.729  0.8203  1.1446  1.4642
 4942TIP3    H236242   0.199   1.801  13.639  1.2531  1.3783  2.1197
 4943TIP3   OH236243   6.033   1.787   4.972 -0.6578 -0.0631  0.0400
 4943TIP3    H136244   6.085   1.850   4.923 -1.4358  1.0166  0.5673
 4943TIP3    H236245   6.096   1.720   5.000  0.2232  0.6105 -0.2994
 4944TIP3   OH236246   1.509   1.389   2.206 -0.8043  0.8473 -0.1390
 4944TIP3    H136247   1.604   1.378   2.202 -1.0269 -1.6086  0.4051
 4944TIP3    H236248   1.497   1.472   2.253  1.0357  0.7183  0.6328
 4945TIP3   OH236249   1.292   2.224   2.411 -0.0718 -0.1731  0.3669
 4945TIP3    H136250   1.345   2.200   2.487 -1.5808  2.4097  2.4027
 4945TIP3    H236251   1.307   2.318   2.400 -1.4737 -0.0879 -1.2554
 4946TIP3   OH236252   5.028   1.777   1.259  0.6378  0.2500  0.5975
 4946TIP3    H136253   5.114   1.812   1.238  0.5573  0.2995  0.3471
 4946TIP3    H236254   4.975   1.794   1.180  0.5103 -0.1432  0.5983
 4947TIP3   OH236255   1.174   1.269   3.828  0.3216 -0.3389 -0.0061
 4947TIP3    H136256   1.216   1.288   3.745  0.1004  0.8463  0.1326
 4947TIP3    H236257   1.245   1.270   3.892  0.4322 -0.8421 -0.1179
 4948TIP3   OH236258   1.898   0.585  14.793 -0.1476 -0.2958 -0.2818
 4948TIP3    H136259   1.919   0.559  14.704  0.1494 -0.1117 -0.2688
 4948TIP3    H236260   1.803   0.585  14.797 -0.1658 -0.0372 -0.6807
 4949TIP3   OH236261   4.926   2.364   3.219 -0.5253  0.2159  0.2105
 4949TIP3    H136262   4.890   2.398   3.137  0.2683  0.9868  0.1682
 4949TIP3    H236263   5.020   2.357   3.203 -0.0624  2.2326  1.6634
 4950TIP3   OH236264   0.125   3.718   0.736 -0.2085  0.0576 -0.5859
 4950TIP3    H136265   0.193   3.706   0.669 -0.2042 -1.2177 -0.3634
 4950TIP3    H236266   0.122   3.813   0.749  1.8245  0.1179 -0.2850
 4951TIP3   OH236267   3.047   0.296  17.340 -0.7444  0.2184  0.3227
 4951TIP3    H136268   3.073   0.369  17.284  0.2755 -0.4138 -0.0504
 4951TIP3    H236269   3.014   0.338  17.420 -0.7276  1.0932 -0.1198
 4952TIP3   OH236270   6.596   6.723   0.246 -0.1417 -0.3251 -0.0902
 4952TIP3    H136271   6.521   6.716   0.187  0.9598 -0.3316 -1.5675
 4952TIP3    H236272   6.616   6.633   0.272  0.8073 -0.6229 -1.6796
 4953TIP3   OH236273   3.036   5.547  15.000  0.1061 -0.6179 -0.5476
 4953TIP3    H136274   3.070   5.474  15.053  3.4889  1.2781  0.2019
 4953TIP3    H236275   2.992   5.604  15.063  2.8268  0.8962  0.1146
 4954TIP3   OH236276   1.562   4.636  16.865 -0.1022  0.2001  0.1367
 4954TIP3    H136277   1.525   4.716  16.904 -0.9173  0.4653 -1.1022
 4954TIP3    H236278   1.623   4.604  16.930  0.2069  1.8186  0.7025
 4955TIP3   OH236279   3.607   6.740  14.301 -0.1650  0.1550 -0.3877
 4955TIP3    H136280   3.602   6.833  14.279  1.0055 -0.3612 -3.2341
 4955TIP3    H236281   3.658   6.738  14.382 -1.1538  2.0138  0.3441
 4956TIP3   OH236282   6.767   1.169   1.580 -0.0752  0.0133  0.6750
 4956TIP3    H136283   6.837   1.234   1.583  1.3254 -1.3373 -0.9442
 4956TIP3    H236284   6.708   1.200   1.511  0.0738  0.0632  0.5696
 4957TIP3   OH236285   0.767   0.630   4.182  0.2143 -0.2362  0.1375
 4957TIP3    H136286   0.740   0.645   4.273  1.3934 -0.6459  0.5699
 4957TIP3    H236287   0.686   0.603   4.138 -0.8130  1.8995  0.5647
 4958TIP3   OH236288   0.551   6.150   6.516  0.0373 -0.4654  0.1247
 4958TIP3    H136289   0.595   6.232   6.537  0.2133  0.0965 -2.1557
 4958TIP3    H236290   0.464   6.159   6.555  0.5041  0.2142  1.0506
 4959TIP3   OH236291   1.044   6.688   3.422  0.0424  0.2078 -0.1500
 4959TIP3    H136292   0.998   6.686   3.338  1.5113 -0.5325 -0.9711
 4959TIP3    H236293   1.060   6.596   3.443 -1.3101  0.3043  1.5563
 4960TIP3   OH236294   5.794   3.165   0.648  0.3056 -0.3107  0.3614
 4960TIP3    H136295   5.876   3.146   0.602  1.7550  0.0122  2.6666
 4960TIP3    H236296   5.790   3.101   0.719 -1.2836 -0.1013  0.5062
 4961TIP3   OH236297   1.584   3.205  12.759 -0.1506 -0.0489 -0.1655
 4961TIP3    H136298   1.523   3.155  12.814  0.9580 -0.2718  0.8982
 4961TIP3    H236299   1.528   3.265  12.709 -1.1926  0.2005  1.2493
 4962TIP3   OH236300   5.099   2.163   2.915  0.3635  0.3577 -0.1225
 4962TIP3    H136301   5.148   2.142   2.836  0.2049  1.2839 -0.4810
 4962TIP3    H236302   5.132   2.249   2.942  0.2897  0.1362  0.7187
 4963TIP3   OH236303   2.041   3.468  13.120 -0.1457  0.1575  0.4012
 4963TIP3    H136304   2.114   3.504  13.171  1.0881 -1.0672 -0.4342
 4963TIP3    H236305   2.082   3.406  13.059 -1.9099 -0.7266  0.0411
 4964TIP3   OH236306   2.225   3.228  15.900  0.0623 -0.4973 -0.0117
 4964TIP3    H136307   2.167   3.157  15.871 -0.4596 -0.4841  0.9705
 4964TIP3    H236308   2.253   3.202  15.988  1.7657 -0.6291 -0.5409
 4965TIP3   OH236309   5.211   5.175   4.766  0.1138  0.5322  0.6300
 4965TIP3    H136310   5.168   5.105   4.815 -2.0089  0.1106 -1.6261
 4965TIP3    H236311   5.299   5.140   4.748 -0.7013 -1.3713  0.0415
 4966TIP3   OH236312   3.978   1.430  12.486  0.5274  0.6634  0.3201
 4966TIP3    H136313   4.039   1.360  12.509 -0.9653 -0.8299 -0.0218
 4966TIP3    H236314   4.026   1.484  12.423  1.7359 -0.0219  0.6234
 4967TIP3   OH236315   1.084   1.326  17.167  0.3146 -0.1354 -0.2001
 4967TIP3    H136316   1.152   1.280  17.119 -0.2076 -1.2103  0.0628
 4967TIP3    H236317   1.071   1.275  17.246 -0.5379  0.2559 -0.0752
 4968TIP3   OH236318   6.510   6.023   5.030  0.6078  0.0598 -0.4359
 4968TIP3    H136319   6.555   6.077   4.966  0.7511  0.8697  0.3265
 4968TIP3    H236320   6.422   6.061   5.036  0.4961 -0.2008 -0.3648
 4969TIP3   OH236321   1.628   0.393  13.384 -0.2530 -0.2648 -0.3336
 4969TIP3    H136322   1.704   0.369  13.437  1.3259  1.6810 -1.5509
 4969TIP3    H236323   1.624   0.326  13.316 -0.3400 -1.0083  0.3975
 4970TIP3   OH236324   2.959   0.165  17.093  0.4374  0.7953  0.1910
 4970TIP3    H136325   2.869   0.136  17.103  1.1015 -1.3900  0.2653
 4970TIP3    H236326   2.982   0.202  17.178 -0.9443  3.2827 -0.4018
 4971TIP3   OH236327   5.010   1.985   3.567  0.7346 -0.1290 -0.0314
 4971TIP3    H136328   5.056   1.958   3.646  0.8817  0.7849  0.1956
 4971TIP3    H236329   5.016   1.908   3.509 -1.3819 -1.7132  1.6787
 4972TIP3   OH236330   0.177   4.732   0.944 -0.6155  0.7295  0.9304
 4972TIP3    H136331   0.156   4.807   0.999  1.4136  0.7300  1.7738
 4972TIP3    H236332   0.196   4.770   0.858  0.1451  1.1735  1.2842
 4973TIP3   OH236333   4.055   1.186   5.144 -0.5079 -0.2690  0.1475
 4973TIP3    H136334   4.111   1.129   5.197 -0.5505 -1.6659 -1.2192
 4973TIP3    H236335   3.969   1.143   5.145 -0.1954 -1.0904 -2.0474
 4974TIP3   OH236336   0.975   3.625  10.740 -0.1085  0.0343  0.0868
 4974TIP3    H136337   0.901   3.668  10.698 -0.3861 -0.7892 -0.2919
 4974TIP3    H236338   0.951   3.532  10.742  2.2857 -0.8191 -3.1571
 4975TIP3   OH236339   2.050   3.088  15.456 -0.3000  0.3309  0.0558
 4975TIP3    H136340   2.050   3.006  15.407 -1.0513  0.3721 -0.0217
 4975TIP3    H236341   1.990   3.145  15.407 -0.5712  0.5825  0.6675
 4976TIP3   OH236342   1.736   4.512   3.798 -0.6393  0.1402 -0.1084
 4976TIP3    H136343   1.826   4.480   3.796  0.4506  2.6872  1.7573
 4976TIP3    H236344   1.713   4.513   3.891 -3.1574 -1.6483 -0.6063
 4977TIP3   OH236345   3.742   5.365   0.365  0.2790  0.5954  0.6400
 4977TIP3    H136346   3.767   5.316   0.443 -0.1614  1.5648  1.4175
 4977TIP3    H236347   3.647   5.354   0.358  0.3066  0.5660  0.2787
 4978TIP3   OH236348   0.592   3.281   2.518 -0.7369  0.0895 -0.0885
 4978TIP3    H136349   0.566   3.201   2.473  0.1415 -0.2002 -0.1132
 4978TIP3    H236350   0.604   3.255   2.610 -0.9712  0.3114  0.0046
 4979TIP3   OH236351   5.198   6.708   3.296  0.2464  0.1757 -0.2410
 4979TIP3    H136352   5.223   6.715   3.204  0.1222 -0.2381 -0.3096
 4979TIP3    H236353   5.279   6.685   3.341 -0.1788 -2.4328 -0.6296
 4980TIP3   OH236354   3.255   1.106   3.650 -0.6373 -0.6663 -0.0422
 4980TIP3    H136355   3.271   1.036   3.712 -0.1576 -1.5814 -1.1667
 4980TIP3    H236356   3.333   1.161   3.655 -0.4970 -0.8683 -0.0057
 4981TIP3   OH236357   1.024   0.246   2.377 -0.0113  0.1140 -0.1055
 4981TIP3    H136358   1.079   0.168   2.365 -3.0067 -2.0167 -1.1856
 4981TIP3    H236359   1.064   0.312   2.320  2.0433 -0.8980  0.0475
 4982TIP3   OH236360   3.642   5.675   2.129  0.2767  0.1706  0.1029
 4982TIP3    H136361   3.673   5.764   2.144  0.8850  0.0628 -0.4561
 4982TIP3    H236362   3.574   5.684   2.062 -1.0479  0.4226  1.4188
 4983TIP3   OH236363   1.343   2.122  10.706 -0.4492  0.5634  0.2373
 4983TIP3    H136364   1.279   2.094  10.640 -1.1473  1.7470  0.3745
 4983TIP3    H236365   1.296   2.115  10.789 -0.7047  2.2190  0.2583
 4984TIP3   OH236366   5.223   0.868   0.854  0.3111 -0.3708  0.0780
 4984TIP3    H136367   5.136   0.831   0.838  0.2805 -1.6476  2.6793
 4984TIP3    H236368   5.206   0.960   0.877 -0.1761 -0.2160 -0.8388
 4985TIP3   OH236369   2.679   4.214  13.373 -0.1031  0.1520 -0.1768
 4985TIP3    H136370   2.616   4.146  13.395  1.0612 -1.4953 -1.6184
 4985TIP3    H236371   2.654   4.243  13.285  0.4665  0.2918 -0.2997
 4986TIP3   OH236372   2.095   3.668  16.208  0.4488  0.4387 -0.0648
 4986TIP3    H136373   2.178   3.707  16.236 -0.4613  0.2124  3.4849
 4986TIP3    H236374   2.076   3.603  16.275 -2.4424  0.2721 -0.9325
 4987TIP3   OH236375   6.545   3.657   3.211 -0.6776  0.6746  0.2688
 4987TIP3    H136376   6.481   3.622   3.148 -0.4606  1.3443 -0.3301
 4987TIP3    H236377   6.561   3.747   3.182  0.8941  0.3789  0.1353
 4988TIP3   OH236378   2.237   4.311   5.714  0.3887 -0.1478  0.1921
 4988TIP3    H136379   2.217   4.269   5.798  2.2116 -0.7016  0.3764
 4988TIP3    H236380   2.214   4.403   5.727 -1.1507 -0.5646  0.6420
 4989TIP3   OH236381   0.154   1.854   5.614  0.5378 -0.8271 -0.0420
 4989TIP3    H136382   0.213   1.918   5.654  0.1604 -0.4273 -0.1122
 4989TIP3    H236383   0.086   1.907   5.573  0.3126 -1.2727 -0.2503
 4990TIP3   OH236384   3.568   1.033  13.213  0.4486 -0.2068 -0.9318
 4990TIP3    H136385   3.631   1.001  13.149 -0.2582 -0.2208 -1.6445
 4990TIP3    H236386   3.616   1.097  13.265  1.9170 -2.3540  0.5337
 4991TIP3   OH236387   4.390   0.956   3.595  0.2772  0.2573 -0.6813
 4991TIP3    H136388   4.461   0.940   3.657  0.7581 -0.3974 -1.3806
 4991TIP3    H236389   4.376   0.872   3.552 -0.5990  0.4972 -0.9048
 4992TIP3   OH236390   4.279   2.852  11.874 -0.1020  0.3647  0.1118
 4992TIP3    H136391   4.363   2.895  11.856  0.2264 -0.2252  0.2030
 4992TIP3    H236392   4.282   2.772  11.822 -1.4263  1.2425 -1.3852
 4993TIP3   OH236393   6.708   5.010  17.287 -0.0576  0.1099  0.2699
 4993TIP3    H136394   6.621   4.971  17.285  0.6112 -1.6242  1.6212
 4993TIP3    H236395   6.733   5.019  17.195 -1.0375 -0.8787 -0.1110
 4994TIP3   OH236396   3.426   5.893  16.833  0.8319  0.6600  0.4342
 4994TIP3    H136397   3.519   5.899  16.854  0.8316 -0.9752  1.0090
 4994TIP3    H236398   3.384   5.876  16.917  0.0904  0.5660  0.0501
 4995TIP3   OH236399   1.128   1.098  15.049 -0.7421 -0.0738 -0.5527
 4995TIP3    H136400   1.193   1.068  14.986  0.0903 -0.8247  0.6213
 4995TIP3    H236401   1.146   1.048  15.129 -1.6168  0.9868  0.3596
 4996TIP3   OH236402   4.934   1.684  11.203  1.0067 -0.1159 -0.4640
 4996TIP3    H136403   4.839   1.691  11.194  1.1707  1.8434 -0.9351
 4996TIP3    H236404   4.965   1.664  11.115  1.0445 -0.8805 -0.2873
 4997TIP3   OH236405   3.713   4.756   3.042  0.2228 -0.3925 -0.5306
 4997TIP3    H136406   3.808   4.758   3.029  0.0906  3.3309 -2.2307
 4997TIP3    H236407   3.700   4.788   3.131  0.5334 -1.0459 -0.2440
 4998TIP3   OH236408   6.770   3.721   6.237 -0.4969  0.0479 -0.1445
 4998TIP3    H136409   6.845   3.726   6.177  0.8028  0.3737  1.4020
 4998TIP3    H236410   6.792   3.785   6.306 -1.7063 -0.6136  0.8877
 4999TIP3   OH236411   4.027   4.359  15.361  0.8854 -0.0042  0.1966
 4999TIP3    H136412   3.942   4.315  15.367  0.8715  0.2571  2.7848
 4999TIP3    H236413   4.070   4.315  15.287 -1.5054 -0.0300 -1.3007
 5000TIP3   OH236414   2.026   3.293  13.431  0.3830 -0.1712 -0.1252
 5000TIP3    H136415   1.932   3.284  13.413 -0.0773 -2.7568  2.6414
 5000TIP3    H236416   2.069   3.260  13.352 -1.1642 -1.6642 -0.4133
 5001TIP3   OH236417   2.808   6.247   3.909 -0.7343  0.1475  0.7477
 5001TIP3    H136418   2.778   6.310   3.974 -1.2579  1.2273 -0.4928
 5001TIP3    H236419   2.834   6.301   3.834  2.7659 -0.8323  1.1070
 5002TIP3   OH236420   4.154   0.911  14.065 -0.4264 -0.0984  0.2602
 5002TIP3    H136421   4.063   0.939  14.055 -0.3401 -0.4377 -1.9800
 5002TIP3    H236422   4.200   0.990  14.092 -1.0651  0.6209 -0.6889
 5003TIP3   OH236423   4.547   4.011  12.087  0.4236  0.1088 -0.1172
 5003TIP3    H136424   4.570   3.980  12.000  0.8741 -0.2726  0.1352
 5003TIP3    H236425   4.518   4.101  12.073  1.0166  0.2318 -0.5898
 5004TIP3   OH236426   6.608   6.686  15.841 -0.3993  0.0938  0.3639
 5004TIP3    H136427   6.646   6.598  15.838  0.5993  0.4736 -2.9624
 5004TIP3    H236428   6.684   6.745  15.844 -0.9323  0.8293 -0.0859
 5005TIP3   OH236429   3.640   4.723  14.222 -0.6096  0.1954  0.5435
 5005TIP3    H136430   3.725   4.691  14.190 -1.4844 -1.7844  0.0727
 5005TIP3    H236431   3.650   4.726  14.317 -0.4872 -1.6186  0.6235
 5006TIP3   OH236432   4.884   6.231  10.552 -0.5103 -0.3366  0.3327
 5006TIP3    H136433   4.909   6.286  10.478  0.0341  0.6336  1.2080
 5006TIP3    H236434   4.912   6.143  10.526  3.1029  0.4895  0.8109
 5007TIP3   OH236435   1.839   1.264  15.329 -0.0355  0.3332 -0.2036
 5007TIP3    H136436   1.754   1.221  15.317 -0.5526  0.8923  1.1515
 5007TIP3    H236437   1.871   1.229  15.413  0.1919  1.5125  0.2166
 5008TIP3   OH236438   3.555   5.300  16.766 -0.3631 -0.2175  0.0725
 5008TIP3    H136439   3.638   5.297  16.718 -0.2391 -0.8786  0.3150
 5008TIP3    H236440   3.580   5.315  16.857 -0.5324 -0.0283  0.0882
 5009TIP3   OH236441   3.397   4.098  13.376 -0.4204  0.2777  0.2554
 5009TIP3    H136442   3.332   4.167  13.365  0.9478  1.4476 -0.7416
 5009TIP3    H236443   3.383   4.039  13.301 -0.3309  0.5296  0.0407
 5010TIP3   OH236444   3.167   0.618  16.152 -0.0173 -0.4951 -0.1803
 5010TIP3    H136445   3.223   0.662  16.215  1.0919  0.9868 -2.0919
 5010TIP3    H236446   3.200   0.529  16.148  0.1423 -0.5057  0.9926
 5011TIP3   OH236447   2.354   0.111   2.670 -0.5126  0.5118 -0.0193
 5011TIP3    H136448   2.368   0.038   2.729 -1.5444 -0.0586 -0.4477
 5011TIP3    H236449   2.420   0.176   2.694  1.4679 -1.1768 -0.6543
 5012TIP3   OH236450   4.522   3.445   4.877 -0.2534 -0.3131 -0.0619
 5012TIP3    H136451   4.569   3.422   4.797  0.8577 -0.8433  0.7058
 5012TIP3    H236452   4.525   3.365   4.930 -2.7688 -0.6414 -0.2935
 5013TIP3   OH236453   5.884   2.387   1.532  0.0168  0.2477 -0.0334
 5013TIP3    H136454   5.811   2.447   1.516 -0.6684 -1.1222 -2.4545
 5013TIP3    H236455   5.962   2.434   1.502 -0.1293  0.9373  0.6484
 5014TIP3   OH236456   2.155   4.340  14.703 -0.0626  0.0104  0.1847
 5014TIP3    H136457   2.127   4.390  14.780 -1.4310 -0.4017 -0.0233
 5014TIP3    H236458   2.087   4.274  14.691  0.3371 -0.1863 -1.1445
 5015TIP3   OH236459   3.388   6.596   5.544  0.0796 -0.1938  0.8289
 5015TIP3    H136460   3.437   6.658   5.491  0.7943 -1.7965 -0.4403
 5015TIP3    H236461   3.313   6.646   5.576 -0.7186  0.7297 -2.1653
 5016TIP3   OH236462   1.784   6.698   5.099 -0.2975 -0.6021  0.2396
 5016TIP3    H136463   1.763   6.722   5.189  0.2097  0.9125 -0.0235
 5016TIP3    H236464   1.785   6.781   5.051  0.5806 -1.2460 -0.9185
 5017TIP3   OH236465   2.537   0.538   6.543 -0.4148 -0.2299 -0.7979
 5017TIP3    H136466   2.517   0.627   6.513  1.0459 -0.0236 -1.2265
 5017TIP3    H236467   2.455   0.490   6.529 -1.6561  1.3186  0.6402
 5018TIP3   OH236468   3.898   0.867   0.729  0.3176 -0.8338 -0.0292
 5018TIP3    H136469   3.986   0.835   0.749 -0.0373 -2.0039 -0.2913
 5018TIP3    H236470   3.846   0.788   0.715 -1.6567 -0.4450  3.6098
 5019TIP3   OH236471   2.687   1.223   2.741  0.2303 -0.3232 -0.1617
 5019TIP3    H136472   2.694   1.172   2.660 -1.0338  0.2331 -0.6545
 5019TIP3    H236473   2.644   1.163   2.803 -0.1491 -0.2738 -0.3702
 5020TIP3   OH236474   2.030   0.823   4.332  0.8452  0.1928 -0.5541
 5020TIP3    H136475   2.090   0.864   4.395  0.8621  0.2414 -0.6016
 5020TIP3    H236476   1.943   0.842   4.366  0.8068  1.5096 -1.3431
 5021TIP3   OH236477   0.768   4.726   1.453  0.3198  0.2957  0.1979
 5021TIP3    H136478   0.777   4.689   1.365  1.3759  0.0579  0.3914
 5021TIP3    H236479   0.800   4.815   1.446  0.3376  0.3005  0.3258
 5022TIP3   OH236480   1.913   3.233  12.066 -0.5014 -0.1777 -0.1634
 5022TIP3    H136481   2.008   3.249  12.061 -0.2651 -0.7430  1.8126
 5022TIP3    H236482   1.905   3.139  12.079 -1.2877 -0.0269  0.4985
 5023TIP3   OH236483   4.413   0.615   2.168  0.7023 -0.1374 -0.0959
 5023TIP3    H136484   4.434   0.524   2.145 -3.0244 -1.0103 -0.7311
 5023TIP3    H236485   4.370   0.649   2.090 -1.5041  0.8105  1.4353
 5024TIP3   OH236486   4.270   3.113   1.481 -0.4877  0.4494 -0.2416
 5024TIP3    H136487   4.303   3.092   1.394 -0.6937 -0.7978 -0.0380
 5024TIP3    H236488   4.243   3.029   1.517  1.1492  0.6556  1.6746
 5025TIP3   OH236489   0.402   3.128  15.921 -0.0119  0.2188  0.1082
 5025TIP3    H136490   0.379   3.037  15.942 -0.9697 -0.0080 -1.6916
 5025TIP3    H236491   0.496   3.126  15.905  0.3604 -0.0084  2.0106
 5026TIP3   OH236492   3.712   1.838   0.995 -0.1726  0.1680 -0.4807
 5026TIP3    H136493   3.675   1.896   0.930  0.0105  0.3475 -0.4256
 5026TIP3    H236494   3.714   1.752   0.952  0.7648  0.4483 -1.0417
 5027TIP3   OH236495   4.280   2.388  13.493 -0.0274 -0.8573 -0.1238
 5027TIP3    H136496   4.280   2.432  13.578 -0.6598 -1.6888  0.3223
 5027TIP3    H236497   4.372   2.362  13.480  0.0445 -0.8724  0.3930
 5028TIP3   OH236498   2.773   1.712  11.652 -0.3377 -0.1249  0.5394
 5028TIP3    H136499   2.730   1.675  11.729 -1.1784 -1.0958 -0.3826
 5028TIP3    H236500   2.862   1.677  11.655 -0.5163 -0.5586  0.7950
 5029TIP3   OH236501   5.715   2.484   0.580  0.6170  0.1334  0.6612
 5029TIP3    H136502   5.659   2.560   0.596  1.2430  0.2923  2.3002
 5029TIP3    H236503   5.677   2.415   0.635 -0.9060 -1.3100 -1.9623
 5030TIP3   OH236504   4.876   2.106   5.604 -0.2051  0.3416 -0.2481
 5030TIP3    H136505   4.821   2.183   5.619  0.4676  0.4793  2.0466
 5030TIP3    H236506   4.947   2.116   5.668 -0.3747 -2.4487  0.4951
 5031TIP3   OH236507   6.347   3.098   1.997  0.1626  0.4276 -0.2907
 5031TIP3    H136508   6.331   3.014   2.040 -0.1042  0.7484  0.2500
 5031TIP3    H236509   6.294   3.095   1.918  1.1009 -0.4009 -0.9160
 5032TIP3   OH236510   5.715   3.927  16.508  0.0978 -0.5897  0.0056
 5032TIP3    H136511   5.714   3.951  16.600  0.1104 -0.1970 -0.0965
 5032TIP3    H236512   5.807   3.934  16.483  0.1947 -1.3348  0.1279
 5033TIP3   OH236513   1.067   4.250   0.388  1.1457 -0.1209  0.1309
 5033TIP3    H136514   1.087   4.284   0.475  1.7613  1.7030 -0.6791
 5033TIP3    H236515   0.994   4.190   0.401 -0.1075  1.6640  1.6276
 5034TIP3   OH236516   3.465   5.088  11.454 -0.4702 -0.5652 -0.2083
 5034TIP3    H136517   3.377   5.084  11.491 -0.4348 -1.5222 -0.1942
 5034TIP3    H236518   3.495   4.997  11.454  1.7010 -0.0196  2.6570
 5035TIP3   OH236519   1.981   3.229  15.219 -0.0680 -0.0553 -0.2414
 5035TIP3    H136520   1.938   3.314  15.207 -1.7662 -1.1450 -2.9580
 5035TIP3    H236521   1.923   3.167  15.175  1.5841 -2.5202  0.8217
 5036TIP3   OH236522   6.144   6.080   2.408  0.4118  0.4567 -0.0014
 5036TIP3    H136523   6.207   6.150   2.387 -0.2320  0.5918 -1.6420
 5036TIP3    H236524   6.197   6.001   2.414  0.8923  0.7547 -0.2535
 5037TIP3   OH236525   2.363   5.996  14.871  0.3617  0.2274 -0.4844
 5037TIP3    H136526   2.305   5.987  14.794  0.3353 -2.1238 -0.2840
 5037TIP3    H236527   2.304   6.022  14.942 -0.6197 -2.2606 -0.2536
 5038TIP3   OH236528   0.159   2.482  13.244 -0.3154  0.0637  0.5164
 5038TIP3    H136529   0.110   2.417  13.194 -0.8879  1.0308 -0.2305
 5038TIP3    H236530   0.250   2.472  13.215 -0.3752 -0.4836  0.5140
 5039TIP3   OH236531   4.370   1.871   1.730 -0.0374 -0.2045  0.5136
 5039TIP3    H136532   4.445   1.822   1.697  1.5459  1.5286  1.3064
 5039TIP3    H236533   4.296   1.811   1.724  0.7236 -0.9970 -3.2819
 5040TIP3   OH236534   4.328   2.429   3.166 -0.6171  0.8186  0.3460
 5040TIP3    H136535   4.291   2.347   3.133  1.1433 -0.2491  0.8834
 5040TIP3    H236536   4.271   2.452   3.239  0.8193 -1.9212  2.5378
 5041TIP3   OH236537   3.879   5.577  15.641  0.4265  0.0286 -0.6833
 5041TIP3    H136538   3.893   5.671  15.630 -0.2518  0.1637 -0.4466
 5041TIP3    H236539   3.797   5.559  15.595  0.0169 -0.2581  0.1334
 5042TIP3   OH236540   4.403   4.136  10.815 -0.0755 -0.0943 -0.2924
 5042TIP3    H136541   4.440   4.213  10.772 -0.3780  1.0053  1.3461
 5042TIP3    H236542   4.309   4.140  10.796  0.2592 -1.8670 -2.8743
 5043TIP3   OH236543   4.610   0.541   0.053 -0.3860 -0.2805 -0.1746
 5043TIP3    H136544   4.632   0.460   0.007 -2.9154 -1.0629 -0.1681
 5043TIP3    H236545   4.628   0.610  -0.011  3.8715 -0.5028  0.5300
 5044TIP3   OH236546   2.238   6.639   0.995 -0.2132 -0.0884 -0.5004
 5044TIP3    H136547   2.330   6.626   1.015 -0.5275  1.9322  3.0162
 5044TIP3    H236548   2.236   6.660   0.902  2.6185 -1.6736 -1.0349
 5045TIP3   OH236549   0.479   6.456  13.105  0.1260  0.2530  0.0380
 5045TIP3    H136550   0.385   6.471  13.094  0.0857  0.2968  0.4049
 5045TIP3    H236551   0.513   6.447  13.016 -0.7349 -3.0853 -0.0797
 5046TIP3   OH236552   1.935   3.763   2.403  0.3889  0.2755 -0.1517
 5046TIP3    H136553   1.960   3.853   2.426 -0.5514  0.8475 -1.2292
 5046TIP3    H236554   1.857   3.746   2.455  1.0814 -0.2737  0.7312
 5047TIP3   OH236555   1.732   2.017  14.931 -0.2037 -0.2358  1.1431
 5047TIP3    H136556   1.718   2.109  14.953  1.0557  0.2313  0.1315
 5047TIP3    H236557   1.822   2.000  14.957  0.2935 -0.5444 -0.6795
 5048TIP3   OH236558   1.058   2.231  14.473 -0.3626  0.1125 -0.0098
 5048TIP3    H136559   1.119   2.160  14.491 -0.6033 -0.5946 -1.7496
 5048TIP3    H236560   1.112   2.299  14.431 -0.1073  1.0537  1.7589
 5049TIP3   OH236561   5.351   5.527   1.492 -0.0199  0.1340 -0.5154
 5049TIP3    H136562   5.320   5.571   1.413  2.1595 -0.4043 -1.7531
 5049TIP3    H236563   5.368   5.437   1.465  1.0240  0.0001  0.4975
 5050TIP3   OH236564   4.828   5.283  12.337  0.4565  0.0163 -0.5067
 5050TIP3    H136565   4.806   5.376  12.347  2.8663  0.9029 -2.3717
 5050TIP3    H236566   4.761   5.248  12.278  0.6478  1.1235 -1.4124
 5051TIP3   OH236567   3.598   1.386  15.433 -0.0341  0.4346 -0.0547
 5051TIP3    H136568   3.537   1.446  15.390 -0.1119 -0.0345 -0.6089
 5051TIP3    H236569   3.547   1.307  15.447  0.6169 -0.1932 -1.1075
 5052TIP3   OH236570   5.934   1.408   5.130 -0.8722  0.7644 -0.3169
 5052TIP3    H136571   5.985   1.351   5.071 -0.7542 -1.6915  1.9646
 5052TIP3    H236572   5.999   1.468   5.167 -0.0683 -0.5586  0.5192
 5053TIP3   OH236573   1.831   3.730  17.217 -0.2216  0.2304  0.1999
 5053TIP3    H136574   1.885   3.753  17.142  0.6796  0.8350  1.0020
 5053TIP3    H236575   1.894   3.702  17.284 -1.1228 -2.6121  0.0070
 5054TIP3   OH236576   4.428   3.271  16.428  0.1204 -0.2435 -0.0846
 5054TIP3    H136577   4.346   3.235  16.460 -0.9052 -0.1964 -2.4897
 5054TIP3    H236578   4.452   3.215  16.354  0.5822  1.5964 -1.4022
 5055TIP3   OH236579   5.173   6.082   1.703 -0.4526  0.2782 -0.1147
 5055TIP3    H136580   5.084   6.080   1.739 -0.6551 -1.0228 -0.6185
 5055TIP3    H236581   5.223   6.136   1.765 -0.6922 -2.1595  2.4208
 5056TIP3   OH236582   6.643   3.884  16.601  0.7450 -0.5564 -0.5061
 5056TIP3    H136583   6.551   3.880  16.575  1.1506 -1.3700 -1.9039
 5056TIP3    H236584   6.681   3.802  16.569  1.5727 -1.1085  1.6750
 5057TIP3   OH236585   2.264   2.353  12.861 -0.4726 -0.4550 -0.0425
 5057TIP3    H136586   2.256   2.417  12.789  0.6175 -0.8779 -0.5495
 5057TIP3    H236587   2.356   2.358  12.887 -0.2996 -2.0305 -0.2903
 5058TIP3   OH236588   6.060   5.570  11.609 -0.2372 -0.1730  0.2297
 5058TIP3    H136589   6.063   5.552  11.514 -0.3961 -0.3065  0.2503
 5058TIP3    H236590   6.088   5.661  11.617 -2.2366  0.5044 -0.1195
 5059TIP3   OH236591   4.159   0.632   3.750  0.3061 -0.2418  0.3066
 5059TIP3    H136592   4.072   0.624   3.788  0.2774 -0.7134  0.1371
 5059TIP3    H236593   4.144   0.657   3.659  0.3723  0.7258  0.5499
 5060TIP3   OH236594   3.418   6.289   4.636 -0.1856 -0.3914  0.4586
 5060TIP3    H136595   3.439   6.229   4.708 -1.6658 -1.6332 -0.0877
 5060TIP3    H236596   3.334   6.328   4.661 -1.1564 -1.4731 -0.9105
 5061TIP3   OH236597   5.637   0.818  11.904  0.1646  0.7630  0.2994
 5061TIP3    H136598   5.591   0.890  11.860 -0.3273 -0.1077 -0.6860
 5061TIP3    H236599   5.569   0.775  11.956  0.1817  0.3427 -0.0163
 5062TIP3   OH236600   1.411   2.317  10.498  0.4131 -0.1291 -0.1163
 5062TIP3    H136601   1.338   2.319  10.437 -0.0721 -0.3893  0.4447
 5062TIP3    H236602   1.376   2.356  10.578  0.7500 -0.6695  0.2999
 5063TIP3   OH236603   0.056   0.471  15.186 -0.2824  0.5577  0.3611
 5063TIP3    H136604   0.099   0.386  15.188 -0.0807  0.6105 -0.9291
 5063TIP3    H236605  -0.035   0.452  15.209 -0.9588 -0.5218 -2.6668
 5064TIP3   OH236606   2.317   1.425  15.094  0.0082  0.8865  0.3213
 5064TIP3    H136607   2.221   1.420  15.092 -0.0301  1.3756  0.6921
 5064TIP3    H236608   2.338   1.436  15.187  0.3221  2.5880  0.0707
 5065TIP3   OH236609   4.243   5.147   3.153 -0.4552 -0.0155  0.3746
 5065TIP3    H136610   4.163   5.192   3.126 -1.0096 -0.9896  0.3660
 5065TIP3    H236611   4.313   5.210   3.133 -1.1750  0.7033  0.0421
 5066TIP3   OH236612   6.016   5.150   0.284 -0.3990 -0.4219 -0.5966
 5066TIP3    H136613   5.942   5.111   0.331 -0.1543 -0.5712 -0.3305
 5066TIP3    H236614   6.034   5.231   0.332  0.7096 -1.2313  0.3963
 5067TIP3   OH236615   0.808   2.744  10.867 -0.0704 -0.1959 -0.5264
 5067TIP3    H136616   0.751   2.678  10.827 -1.6146  1.1242 -0.6066
 5067TIP3    H236617   0.776   2.753  10.957 -0.0571  0.6283 -0.5944
 5068TIP3   OH236618   4.377   0.881   5.118  0.3225 -0.0922 -0.0910
 5068TIP3    H136619   4.464   0.851   5.145 -0.0024 -0.0590  1.0428
 5068TIP3    H236620   4.334   0.907   5.199 -0.5156  0.5275 -0.7105
 5069TIP3   OH236621   3.848   3.298   5.457 -0.7983 -0.0586 -0.2049
 5069TIP3    H136622   3.802   3.263   5.381 -0.5422 -0.2721 -0.2662
 5069TIP3    H236623   3.791   3.365   5.492 -0.2454  1.1310 -1.4961
 5070TIP3   OH236624   4.938   1.723   2.917  0.0345 -0.4262 -0.3575
 5070TIP3    H136625   5.021   1.721   2.869  0.6633  1.2214  0.6056
 5070TIP3    H236626   4.942   1.802   2.970 -2.1995 -0.2453 -0.3404
 5071TIP3   OH236627   6.247   2.365  15.804  0.2598  0.1493 -0.1077
 5071TIP3    H136628   6.261   2.279  15.763  2.3154  0.8106 -0.8779
 5071TIP3    H236629   6.154   2.363  15.830  0.2392 -2.2962 -0.0711
 5072TIP3   OH236630   5.574   3.461  12.822  0.3631 -0.4829 -0.3529
 5072TIP3    H136631   5.598   3.553  12.838  1.9401 -0.9712  0.3657
 5072TIP3    H236632   5.561   3.456  12.727 -1.5118  0.8348 -0.2299
 5073TIP3   OH236633   1.863   4.864   6.166  0.3752  0.6309  0.2848
 5073TIP3    H136634   1.882   4.943   6.217 -0.6814 -0.4843  2.5533
 5073TIP3    H236635   1.777   4.881   6.128  0.1966  0.6329  0.6807
 5074TIP3   OH236636   0.391   4.546  11.088 -0.1272  0.2095 -0.4228
 5074TIP3    H136637   0.358   4.456  11.083 -1.0496  0.5502 -0.8784
 5074TIP3    H236638   0.328   4.597  11.037 -0.2098  1.2857  0.7084
 5075TIP3   OH236639   1.308   3.793   6.378 -0.2446  0.2294 -0.2766
 5075TIP3    H136640   1.235   3.734   6.397 -1.7965  1.0372 -3.0406
 5075TIP3    H236641   1.268   3.880   6.381  1.2365  0.8997  0.6032
 5076TIP3   OH236642   1.222   3.797  10.608  0.0675 -0.4389  0.0782
 5076TIP3    H136643   1.273   3.737  10.663 -1.0862 -0.6972  0.9111
 5076TIP3    H236644   1.131   3.775  10.628 -0.4506 -1.2817 -2.7440
 5077TIP3   OH236645   1.402   6.739  12.749 -0.0528  0.0308 -0.1973
 5077TIP3    H136646   1.451   6.704  12.674  0.1564 -0.1498  0.0212
 5077TIP3    H236647   1.393   6.833  12.731  0.9555  0.1872  0.0790
 5078TIP3   OH236648   5.114   2.951   1.308 -0.5968 -0.1945  0.0941
 5078TIP3    H136649   5.172   3.027   1.300  0.5292 -1.0786 -0.2483
 5078TIP3    H236650   5.108   2.916   1.219  1.5454 -2.4164  0.7293
 5079TIP3   OH236651   2.244   5.621  12.132  0.0720  0.7706  0.1529
 5079TIP3    H136652   2.331   5.583  12.118 -0.6835 -0.3694 -1.9467
 5079TIP3    H236653   2.204   5.566  12.198 -0.4686 -1.3404 -1.8002
 5080TIP3   OH236654   0.229   5.174   3.041  0.5730  0.2279 -0.4471
 5080TIP3    H136655   0.179   5.247   3.004  0.4194  0.0189 -0.6547
 5080TIP3    H236656   0.286   5.215   3.106  0.5214  0.5405 -0.5955
 5081TIP3   OH236657   0.713   0.573  12.120  0.1796  0.2205 -0.2003
 5081TIP3    H136658   0.744   0.567  12.211  1.1841 -1.9795 -0.6238
 5081TIP3    H236659   0.620   0.551  12.126  0.1970  0.2763  0.3281
 5082TIP3   OH236660   3.059   3.104   6.468  0.1153  0.2447  0.2145
 5082TIP3    H136661   3.085   3.190   6.433 -1.5478  0.6773 -0.0831
 5082TIP3    H236662   3.096   3.041   6.406  0.0756  0.8326 -0.4337
 5083TIP3   OH236663   3.508   0.337  14.423 -0.6427 -0.1284 -0.2617
 5083TIP3    H136664   3.559   0.296  14.353 -1.6206  0.8351 -1.5913
 5083TIP3    H236665   3.533   0.289  14.502  1.9065 -0.0216 -0.9232
 5084TIP3   OH236666   5.011   2.802  12.628 -0.1209 -0.1175 -0.2442
 5084TIP3    H136667   5.044   2.742  12.695 -0.4510 -1.5731 -1.3263
 5084TIP3    H236668   5.046   2.888  12.653  2.1008 -1.0952  0.2417
 5085TIP3   OH236669   0.723   0.275  10.937 -0.4392  0.2596  0.5218
 5085TIP3    H136670   0.716   0.333  11.013 -0.3436 -0.8496  1.4147
 5085TIP3    H236671   0.668   0.316  10.871 -0.0480  1.5671  0.9814
 5086TIP3   OH236672   0.652   0.360  16.343  0.5048 -0.2780  0.0075
 5086TIP3    H136673   0.660   0.303  16.267  1.6566 -1.3391  0.8795
 5086TIP3    H236674   0.671   0.448  16.310  0.8499 -0.7040 -0.9452
 5087TIP3   OH236675   2.522   1.978  12.220  0.3318  0.3262  0.0196
 5087TIP3    H136676   2.540   1.914  12.288 -0.1490  2.0443  1.8417
 5087TIP3    H236677   2.609   2.009  12.193  0.5183 -0.3339 -0.1715
 5088TIP3   OH236678   1.567   5.521  16.266 -0.5102  0.2876 -0.2271
 5088TIP3    H136679   1.633   5.541  16.200 -0.6221  0.1539 -0.3793
 5088TIP3    H236680   1.523   5.442  16.233 -0.8914  0.5014 -0.2316
 5089TIP3   OH236681   3.388   5.032  12.001 -0.6547  0.4286 -0.4850
 5089TIP3    H136682   3.334   4.967  11.956 -1.3681 -0.4944  1.5995
 5089TIP3    H236683   3.448   5.064  11.933 -0.1444 -2.5180 -1.5809
 5090TIP3   OH236684   0.119   4.573  10.675  0.2965 -0.5787  0.6648
 5090TIP3    H136685   0.141   4.657  10.635  0.2903 -0.1735  1.4874
 5090TIP3    H236686   0.038   4.546  10.632  1.4542 -1.2746 -1.2043
 5091TIP3   OH236687   5.332   0.804   0.062  0.4767 -0.5494 -0.5735
 5091TIP3    H136688   5.363   0.801   0.152  1.4746  1.5731 -0.7904
 5091TIP3    H236689   5.236   0.809   0.070  0.5321  5.1287  0.8072
 5092TIP3   OH236690   5.728   2.239   5.480 -0.2326  0.0198 -0.5194
 5092TIP3    H136691   5.713   2.178   5.553  1.9288  0.5312  0.4416
 5092TIP3    H236692   5.803   2.202   5.434 -0.3638  0.7444 -1.3248
 5093TIP3   OH236693   2.020   1.823  12.446 -0.5005 -0.9546 -0.0976
 5093TIP3    H136694   1.941   1.775  12.424 -0.1428 -1.0619 -1.2520
 5093TIP3    H236695   2.024   1.822  12.541 -1.5814 -1.4273 -0.0462
 5094TIP3   OH236696   3.948   5.039   4.600 -0.6825  0.2780 -0.1446
 5094TIP3    H136697   3.873   5.080   4.643  0.0554  0.8768  0.6049
 5094TIP3    H236698   3.917   5.021   4.511 -1.3757  1.5119 -0.1856
 5095TIP3   OH236699   3.990   1.925   0.913  0.3048 -0.2056  0.3584
 5095TIP3    H136700   4.024   1.844   0.874 -0.7589 -0.5266  0.0737
 5095TIP3    H236701   3.906   1.900   0.951  0.6765  0.4236  1.6596
 5096TIP3   OH236702   5.544   4.634  17.376  0.4227 -0.0652 -0.0980
 5096TIP3    H136703   5.478   4.572  17.345 -2.1350  1.2319  2.2227
 5096TIP3    H236704   5.567   4.603  17.463  1.5266  0.5194 -0.1618
 5097TIP3   OH236705   2.279   6.714   1.559  0.4303 -0.0778  0.0963
 5097TIP3    H136706   2.274   6.791   1.502  0.5979  0.1859  0.4389
 5097TIP3    H236707   2.193   6.673   1.551  0.2989  0.2096  0.0037
 5098TIP3   OH236708   3.818   0.763  16.959 -0.2707 -0.2329  0.0373
 5098TIP3    H136709   3.896   0.818  16.950 -0.6748  0.4072  0.3990
 5098TIP3    H236710   3.778   0.763  16.872 -0.6732  0.6618  0.2138
 5099TIP3   OH236711   3.708   4.065  12.567  0.3256  0.1750 -0.2817
 5099TIP3    H136712   3.676   3.997  12.627  0.1500 -1.1756 -1.8427
 5099TIP3    H236713   3.797   4.082  12.597  0.3370 -0.6789  0.2186
 5100TIP3   OH236714   4.645   3.606   1.378 -0.3990  0.2509  0.0809
 5100TIP3    H136715   4.639   3.670   1.449 -0.5527  1.0794 -0.6567
 5100TIP3    H236716   4.722   3.634   1.328 -0.7533  0.1493 -0.5216
 5101TIP3   OH236717   0.233   3.052   0.912 -0.3914  0.4152  0.3705
 5101TIP3    H136718   0.229   3.147   0.915 -2.3583  0.4173 -0.4014
 5101TIP3    H236719   0.308   3.029   0.967  1.0268  2.4438 -0.5900
 5102TIP3   OH236720   1.612   1.854   4.111 -0.0946  0.3636 -0.1329
 5102TIP3    H136721   1.594   1.947   4.095 -3.7163 -0.2761 -0.8385
 5102TIP3    H236722   1.608   1.813   4.024 -1.3421 -0.7316  0.3920
 5103TIP3   OH236723   1.904   1.892   4.793 -0.4899 -0.7421  0.2476
 5103TIP3    H136724   1.847   1.846   4.731 -0.0669 -0.0874 -0.6508
 5103TIP3    H236725   1.844   1.937   4.853 -0.9078 -2.0945  0.8874
 5104TIP3   OH236726   5.241   6.457   1.549  0.0788  0.0771 -0.2917
 5104TIP3    H136727   5.151   6.447   1.519 -0.8357 -0.3236  2.3142
 5104TIP3    H236728   5.269   6.367   1.569  0.1801  0.3940  1.1140
 5105TIP3   OH236729   4.024   4.256   0.815 -0.3394  0.2775  0.0353
 5105TIP3    H136730   3.984   4.330   0.770 -0.6573  0.0471 -0.0618
 5105TIP3    H236731   4.024   4.281   0.908 -1.3577 -0.0096  0.1299
 5106TIP3   OH236732   6.099   5.453  12.631  0.5896  0.1567 -0.2542
 5106TIP3    H136733   6.131   5.368  12.603  0.2647 -0.0448 -0.0197
 5106TIP3    H236734   6.146   5.516  12.576  1.5494 -0.1103  0.2333
 5107TIP3   OH236735   4.933   6.384  14.333 -0.3634 -0.0285  0.3170
 5107TIP3    H136736   4.918   6.359  14.424 -0.5684 -0.9428  0.0390
 5107TIP3    H236737   4.860   6.345  14.285 -0.2340  0.4098 -0.2513
 5108TIP3   OH236738   5.965   0.265  14.620  0.2469 -0.2964 -0.0015
 5108TIP3    H136739   5.918   0.273  14.537  1.0143  0.8925 -0.3484
 5108TIP3    H236740   6.020   0.343  14.624  0.7795 -0.7099  1.2833
 5109TIP3   OH236741   1.649   2.636  12.979  0.2480 -0.2004  0.5240
 5109TIP3    H136742   1.556   2.614  12.970  0.2386  0.2455 -0.6432
 5109TIP3    H236743   1.687   2.613  12.895  0.9909  0.6253  0.6270
 5110TIP3   OH236744   4.026   3.099   4.873  0.0998 -0.0762  0.3843
 5110TIP3    H136745   4.064   3.169   4.819  0.2911 -1.4343 -1.3164
 5110TIP3    H236746   4.076   3.021   4.850 -1.1495 -1.1065  1.0487
 5111TIP3   OH236747   2.944   3.461  16.196  0.3992  0.0909  0.3358
 5111TIP3    H136748   2.954   3.547  16.238  0.6388  0.2889 -0.1185
 5111TIP3    H236749   2.932   3.481  16.104 -0.2335 -0.3394  0.3198
 5112TIP3   OH236750   3.267   1.336   3.274 -0.1135  0.4472 -0.4570
 5112TIP3    H136751   3.243   1.393   3.200 -1.8459 -0.3896 -0.5792
 5112TIP3    H236752   3.229   1.251   3.252  0.3046 -0.1098  0.8869
 5113TIP3   OH236753   4.788   2.207  12.249 -1.0232 -0.6776 -0.0057
 5113TIP3    H136754   4.828   2.124  12.274  3.8616  1.3692  0.1918
 5113TIP3    H236755   4.775   2.199  12.155 -0.6351 -1.6713  0.0074
 5114TIP3   OH236756   4.833   3.512  16.749 -0.1069  0.2748 -0.1197
 5114TIP3    H136757   4.891   3.586  16.768  1.7033 -0.8751 -1.0271
 5114TIP3    H236758   4.808   3.524  16.658  0.7882 -0.6137 -0.4898
 5115TIP3   OH236759   4.872   0.278   6.693  0.6084  0.7128  0.1750
 5115TIP3    H136760   4.966   0.260   6.696  0.1083 -2.2866  0.9662
 5115TIP3    H236761   4.846   0.284   6.785 -0.3577 -1.0766  0.0474
 5116TIP3   OH236762   0.323   6.258  13.577  0.2973  0.2007 -0.1770
 5116TIP3    H136763   0.381   6.299  13.513  2.0569 -0.7583  0.7117
 5116TIP3    H236764   0.244   6.313  13.578  0.5228  0.6680 -2.5674
 5117TIP3   OH236765   5.083   4.767   0.472  0.0978 -0.7082 -0.1962
 5117TIP3    H136766   5.002   4.818   0.472  0.1062 -0.6959  0.0462
 5117TIP3    H236767   5.123   4.786   0.556  0.5683 -0.3725 -0.4927
 5118TIP3   OH236768   4.205   3.419  12.120  0.0285  0.4262 -0.4540
 5118TIP3    H136769   4.172   3.390  12.035 -1.4192  1.7869 -0.3982
 5118TIP3    H236770   4.187   3.513  12.122  0.4611  0.5058  1.1781
 5119TIP3   OH236771   5.767   5.547   1.018  0.0690  0.2295 -0.0856
 5119TIP3    H136772   5.758   5.613   1.087 -2.7820  0.5960 -0.6812
 5119TIP3    H236773   5.818   5.590   0.950  2.0600  0.2067  1.2963
 5120TIP3   OH236774   4.524   6.205   3.628 -0.1424  0.0305 -0.0711
 5120TIP3    H136775   4.552   6.252   3.550  0.2677 -2.2245 -1.3722
 5120TIP3    H236776   4.572   6.247   3.700 -0.3940  2.0315 -1.0165
 5121TIP3   OH236777   3.714   5.737  11.420 -0.1595 -0.3273 -0.1518
 5121TIP3    H136778   3.721   5.778  11.334  0.8023 -0.0289  0.0635
 5121TIP3    H236779   3.662   5.657  11.405  2.9588 -2.2357 -1.7274
 5122TIP3   OH236780   4.209   2.793   6.186  0.2128 -0.2395  0.0628
 5122TIP3    H136781   4.257   2.752   6.257  0.1702 -0.6941 -0.1628
 5122TIP3    H236782   4.269   2.789   6.111  1.1993  2.3751  0.6263
 5123TIP3   OH236783   6.492   3.099  11.913 -0.1834 -0.1068 -0.3160
 5123TIP3    H136784   6.411   3.053  11.891 -0.4818  0.4171 -0.3214
 5123TIP3    H236785   6.508   3.075  12.004 -1.0360  0.7943  0.0874
 5124TIP3   OH236786   1.826   3.821   4.515 -0.2004  0.0301  0.1744
 5124TIP3    H136787   1.754   3.800   4.455 -0.0207 -0.0921 -0.0008
 5124TIP3    H236788   1.893   3.755   4.496 -0.9235 -1.2777  1.9310
 5125TIP3   OH236789   0.337   5.691   0.960  0.3844  0.2802  0.0135
 5125TIP3    H136790   0.315   5.601   0.933  1.2145 -0.0771  0.4930
 5125TIP3    H236791   0.256   5.740   0.946  0.0379 -0.4468 -0.6654
 5126TIP3   OH236792   0.699   6.757  16.455 -0.2055  0.1701  0.1582
 5126TIP3    H136793   0.611   6.793  16.451 -1.1992 -2.1361 -2.8052
 5126TIP3    H236794   0.716   6.726  16.366  3.4975  0.1963  0.7031
 5127TIP3   OH236795   4.806   3.882   5.739 -0.7735  0.1857  0.4413
 5127TIP3    H136796   4.900   3.899   5.740 -0.6551 -0.3020 -0.7172
 5127TIP3    H236797   4.789   3.845   5.652 -2.1154  0.7024  0.4616
 5128TIP3   OH236798   4.800   4.603  12.449 -0.1857 -0.1304 -0.3284
 5128TIP3    H136799   4.891   4.575  12.462 -0.3782 -0.5265  0.2000
 5128TIP3    H236800   4.775   4.564  12.366  0.1111 -0.0651 -0.4504
 5129TIP3   OH236801   0.784   1.786   0.584 -0.0898  0.7066 -0.6085
 5129TIP3    H136802   0.749   1.865   0.624 -0.6051  1.9590 -3.2644
 5129TIP3    H236803   0.706   1.736   0.560  0.1988  0.0169 -0.1377
 5130TIP3   OH236804   5.238   1.045   3.917 -0.2779 -0.1508 -0.1327
 5130TIP3    H136805   5.287   1.127   3.908  1.0420 -0.8560  0.4019
 5130TIP3    H236806   5.250   1.000   3.834 -1.8405  0.5977 -0.8119
 5131TIP3   OH236807   2.974   6.485  11.736 -0.3451 -0.5767  0.6183
 5131TIP3    H136808   2.974   6.389  11.737  0.6465 -0.5870  1.4499
 5131TIP3    H236809   2.911   6.508  11.668 -2.1833 -1.8001  1.7800
 5132TIP3   OH236810   4.187   0.968   2.007 -0.4058  0.1129 -0.1985
 5132TIP3    H136811   4.262   0.929   1.963 -1.0730  1.9594 -3.2144
 5132TIP3    H236812   4.148   0.896   2.056  1.6346 -1.5717 -0.9106
 5133TIP3   OH236813   4.155   4.880   5.066 -0.5760 -0.1432  0.5588
 5133TIP3    H136814   4.235   4.833   5.090  0.7119  1.4641 -0.3639
 5133TIP3    H236815   4.132   4.847   4.980  1.0463  1.6317 -0.6602
 5134TIP3   OH236816   1.518   1.816  15.202 -0.5121  0.3130 -0.3303
 5134TIP3    H136817   1.526   1.721  15.192  1.6971  0.2317  1.3105
 5134TIP3    H236818   1.603   1.850  15.172 -1.0732  1.7244 -0.3959
 5135TIP3   OH236819   3.256   1.456   1.751  0.0883 -0.1755  0.1270
 5135TIP3    H136820   3.331   1.461   1.691  0.0804  0.9286  0.1777
 5135TIP3    H236821   3.292   1.483   1.836 -0.0721 -0.9787  0.4585
 5136TIP3   OH236822   0.694   6.318  15.174  0.2719  0.3901 -0.0870
 5136TIP3    H136823   0.737   6.400  15.197 -0.5835  0.4233  1.4894
 5136TIP3    H236824   0.746   6.250  15.217  0.6972  0.1222 -0.9923
 5137TIP3   OH236825   3.468   0.128  16.876 -0.0887 -0.0491  0.3852
 5137TIP3    H136826   3.400   0.134  16.809  0.7910  0.0986 -0.5219
 5137TIP3    H236827   3.480   0.034  16.891 -1.3007 -0.0538  1.4098
 5138TIP3   OH236828   6.660   3.690  11.008 -0.2612  0.6369  0.3196
 5138TIP3    H136829   6.721   3.633  11.055  0.3658  2.0808  1.3321
 5138TIP3    H236830   6.574   3.662  11.039  0.0538  0.4112  1.0264
 5139TIP3   OH236831   2.487   5.931   1.957 -0.4420 -0.0353 -0.2392
 5139TIP3    H136832   2.439   5.963   1.880  0.0109 -0.6234 -0.7805
 5139TIP3    H236833   2.422   5.931   2.027 -0.7603  0.8838 -0.5227
 5140TIP3   OH236834   2.306   0.623  17.167  0.4730 -0.1633 -0.1871
 5140TIP3    H136835   2.224   0.672  17.174  1.4095  1.6733 -1.4478
 5140TIP3    H236836   2.352   0.641  17.249  0.0330 -0.4545  0.1313
 5141TIP3   OH236837   4.863   5.248  15.092 -0.2543 -0.1036 -0.0190
 5141TIP3    H136838   4.894   5.337  15.104 -3.3616  1.6662 -3.2233
 5141TIP3    H236839   4.834   5.220  15.179  3.0988  0.8881  1.5434
 5142TIP3   OH236840   2.717   3.670  11.157 -0.7707  0.3278  0.1079
 5142TIP3    H136841   2.691   3.578  11.161 -2.0731  0.6418 -0.6316
 5142TIP3    H236842   2.743   3.683  11.066 -1.3365  0.8745  0.0189
 5143TIP3   OH236843   1.761   2.855   6.213  0.1379 -0.4150  0.5697
 5143TIP3    H136844   1.751   2.879   6.305  2.8999 -0.4157  0.9738
 5143TIP3    H236845   1.676   2.874   6.173 -0.8913  0.3167  2.9477
 5144TIP3   OH236846   0.999   6.027  12.567 -0.9532  0.0867  0.0395
 5144TIP3    H136847   0.943   6.062  12.637 -0.9185  1.4353 -0.5865
 5144TIP3    H236848   1.022   6.103  12.514 -0.3112 -0.7953 -0.9839
 5145TIP3   OH236849   3.192   2.974  12.639  0.4644 -0.1708 -0.0849
 5145TIP3    H136850   3.155   3.061  12.654  1.1927 -0.0385  1.0560
 5145TIP3    H236851   3.275   2.974  12.687  1.0887 -1.0727 -1.1072
 5146TIP3   OH236852   1.383   4.026  12.724 -0.4012  0.3456 -0.0297
 5146TIP3    H136853   1.461   3.983  12.688 -0.8807  0.7654 -1.6372
 5146TIP3    H236854   1.410   4.054  12.812  0.3093 -2.1309  0.6449
 5147TIP3   OH236855   4.217   3.004   0.253 -1.0612  0.0963  0.2707
 5147TIP3    H136856   4.245   2.993   0.162 -3.3006  0.6876 -0.5637
 5147TIP3    H236857   4.268   2.940   0.302  0.1220 -0.3193 -1.4130
 5148TIP3   OH236858   0.752   6.430   3.555 -0.5218 -0.1683 -0.1374
 5148TIP3    H136859   0.695   6.444   3.479  1.1363  0.9592 -1.2281
 5148TIP3    H236860   0.731   6.503   3.614 -1.7380 -0.9875  0.4831
 5149TIP3   OH236861   0.693   1.091   0.178 -0.2556 -0.0324  0.5355
 5149TIP3    H136862   0.635   1.163   0.156 -0.9043 -0.4421  0.8702
 5149TIP3    H236863   0.699   1.092   0.273  0.5859  0.2305  0.4891
 5150TIP3   OH236864   2.894   4.951  13.648 -0.3342 -0.2559  0.5341
 5150TIP3    H136865   2.911   4.883  13.582  0.9157 -0.8160  1.3881
 5150TIP3    H236866   2.893   5.032  13.598  2.0173 -0.5131 -0.0670
 5151TIP3   OH236867   3.333   3.919  16.845  0.1503 -0.2394 -0.1213
 5151TIP3    H136868   3.240   3.932  16.824 -0.1834 -0.6511  1.0440
 5151TIP3    H236869   3.332   3.869  16.926  1.3978 -2.3358 -1.3326
 5152TIP3   OH236870   4.809   1.785   3.878 -0.3401  0.0354  0.1559
 5152TIP3    H136871   4.725   1.750   3.847 -0.5564  0.6814 -0.0253
 5152TIP3    H236872   4.831   1.853   3.814  0.7614 -0.7110 -0.2888
 5153TIP3   OH236873   2.586   4.531   2.229 -0.0123  0.2877  0.2783
 5153TIP3    H136874   2.528   4.607   2.222  1.7147  1.6593  0.2298
 5153TIP3    H236875   2.614   4.514   2.139 -0.4206 -0.4540  0.2831
 5154TIP3   OH236876   0.414   4.098   4.149  0.0236 -0.4170 -0.0834
 5154TIP3    H136877   0.454   4.047   4.220 -1.2302 -1.1167  0.1421
 5154TIP3    H236878   0.477   4.091   4.077  0.9171 -0.4012  0.6696
 5155TIP3   OH236879   3.409   3.711   3.386  0.3746  0.1085 -0.2046
 5155TIP3    H136880   3.375   3.794   3.419 -0.6270  0.5800 -2.2220
 5155TIP3    H236881   3.415   3.724   3.291 -2.2046 -2.8981 -0.9643
 5156TIP3   OH236882   6.047   4.919   1.890  0.3599 -0.0004  0.2238
 5156TIP3    H136883   6.073   4.944   1.979  1.1126 -1.1250  0.3522
 5156TIP3    H236884   5.997   4.993   1.857  0.4083  0.5977  1.4465
 5157TIP3   OH236885   4.481   0.771   4.687 -0.1195 -0.4613 -0.0943
 5157TIP3    H136886   4.394   0.793   4.721  0.4197  1.2559  0.2387
 5157TIP3    H236887   4.539   0.782   4.762  0.7090  0.7125 -0.8850
 5158TIP3   OH236888   1.819   2.831  12.663  0.0893  0.1689  0.0521
 5158TIP3    H136889   1.817   2.927  12.656 -2.0075  0.3239  1.8076
 5158TIP3    H236890   1.727   2.806  12.672  0.6848 -1.9376  0.6351
 5159TIP3   OH236891   5.590   3.103  12.839 -1.0013  0.2912  0.1496
 5159TIP3    H136892   5.505   3.069  12.810  0.0886 -4.3194  1.5112
 5159TIP3    H236893   5.650   3.084  12.766 -0.7173  1.7661 -0.0448
 5160TIP3   OH236894   6.195   3.975  11.774 -0.2691  0.1526 -0.5241
 5160TIP3    H136895   6.237   3.895  11.742  0.5195 -0.1215  1.1108
 5160TIP3    H236896   6.250   4.045  11.740  0.3833 -0.1217 -0.0608
 5161TIP3   OH236897   3.476   3.752  12.515  0.9824  0.4271 -0.4836
 5161TIP3    H136898   3.425   3.682  12.557  0.7052  1.9894  2.0023
 5161TIP3    H236899   3.556   3.758  12.568  0.9521  2.0054 -0.5749
 5162TIP3   OH236900   3.743   0.251   5.749 -0.1479 -0.2949 -0.2083
 5162TIP3    H136901   3.685   0.199   5.805 -1.6163  0.6224 -0.8373
 5162TIP3    H236902   3.830   0.213   5.764 -0.7176 -1.0188  1.5615
 5163TIP3   OH236903   4.286   6.493  15.163 -0.4787 -0.8822 -0.1737
 5163TIP3    H136904   4.245   6.528  15.243  0.1388 -1.7901  0.5703
 5163TIP3    H236905   4.348   6.428  15.196  1.1260  0.0302 -1.2989
 5164TIP3   OH236906   0.591   3.152   1.779 -0.1167 -0.1943  0.3195
 5164TIP3    H136907   0.566   3.078   1.834 -3.3312  0.0559 -0.6248
 5164TIP3    H236908   0.567   3.229   1.831  1.3508  0.1856  0.4747
 5165TIP3   OH236909   4.808   6.350   6.002  0.5174 -0.3751  0.2277
 5165TIP3    H136910   4.726   6.304   5.983 -0.7105  2.1206 -0.9326
 5165TIP3    H236911   4.867   6.323   5.931 -0.3338  0.1696 -0.7141
 5166TIP3   OH236912   3.166   3.523   4.135 -0.3141 -0.5498 -0.0497
 5166TIP3    H136913   3.115   3.444   4.155 -1.8810  0.2583 -0.7453
 5166TIP3    H236914   3.196   3.510   4.045 -1.2161 -0.0352 -0.4343
 5167TIP3   OH236915   3.898   0.380  11.585  0.2210  0.1483 -0.5876
 5167TIP3    H136916   3.933   0.468  11.573  1.1107 -0.1415 -0.2098
 5167TIP3    H236917   3.965   0.322  11.549 -0.4649 -0.3684 -1.0635
 5168TIP3   OH236918   2.298   1.169   2.677 -0.6091 -0.2597  0.1822
 5168TIP3    H136919   2.377   1.130   2.640  0.1169  0.2384  1.1461
 5168TIP3    H236920   2.275   1.239   2.616  1.1762  1.2355  1.1426
 5169TIP3   OH236921   4.549   4.460  12.514  0.3206 -0.0488 -0.5613
 5169TIP3    H136922   4.555   4.418  12.600 -2.2053 -0.9173 -0.7463
 5169TIP3    H236923   4.578   4.392  12.453 -0.6403 -0.4297 -0.6038
 5170TIP3   OH236924   5.866   1.091   3.867 -0.5275  0.2998  0.8134
 5170TIP3    H136925   5.901   1.175   3.836  1.7005 -0.0119  2.2516
 5170TIP3    H236926   5.938   1.052   3.917 -2.0539 -1.7523  1.5500
 5171TIP3   OH236927   0.071   2.383  11.691  0.4709  0.2327 -0.3982
 5171TIP3    H136928   0.094   2.353  11.603  0.6696  2.3925 -1.1646
 5171TIP3    H236929   0.142   2.442  11.715  0.6872 -0.7378  1.4682
 5172TIP3   OH236930   0.194   6.037  14.886 -0.2205 -0.1047 -0.3050
 5172TIP3    H136931   0.271   5.999  14.844 -0.7018 -1.1523 -0.2735
 5172TIP3    H236932   0.129   5.966  14.887 -0.8153  0.4247  0.6405
 5173TIP3   OH236933   0.803   0.231   5.613  0.5431 -0.2784  0.2429
 5173TIP3    H136934   0.821   0.137   5.609  0.7229 -0.3039  1.3977
 5173TIP3    H236935   0.837   0.259   5.698 -1.9795  0.2858  1.1688
 5174TIP3   OH236936   6.095   3.123   5.221  0.1686 -0.2139  0.1109
 5174TIP3    H136937   6.004   3.095   5.217 -0.0807  0.5609  0.3410
 5174TIP3    H236938   6.120   3.137   5.130 -0.1858  0.3606  0.1045
 5175TIP3   OH236939   5.755   1.357   4.126 -0.2441 -0.6413 -0.0516
 5175TIP3    H136940   5.781   1.405   4.048  0.3689 -0.1417  0.4446
 5175TIP3    H236941   5.682   1.302   4.098 -2.0597  1.7298 -0.2758
 5176TIP3   OH236942   5.886   4.160  13.390 -0.3641  0.0043  0.0669
 5176TIP3    H136943   5.981   4.164  13.398 -0.2416  0.9314 -1.3351
 5176TIP3    H236944   5.854   4.223  13.455 -0.1839 -1.8880  2.0928
 5177TIP3   OH236945   3.820   3.903   0.530 -0.4928  0.4247  0.3445
 5177TIP3    H136946   3.908   3.934   0.550 -0.5052  1.2562 -0.7651
 5177TIP3    H236947   3.806   3.928   0.438 -1.9756  0.5247  0.5642
 5178TIP3   OH236948   0.840   1.829  16.349 -0.5291 -0.0506 -0.7938
 5178TIP3    H136949   0.799   1.744  16.363  0.5757 -0.2540  1.9378
 5178TIP3    H236950   0.774   1.881  16.303 -2.5893 -1.3262  0.5901
 5179TIP3   OH236951   3.203   2.981   1.589  0.1482  0.0794  0.4431
 5179TIP3    H136952   3.235   2.995   1.678  0.7596  3.2329 -0.1455
 5179TIP3    H236953   3.179   3.068   1.558 -0.2203 -0.9283 -2.4222
 5180TIP3   OH236954   4.608   1.763   4.520 -0.0840 -0.1425  0.1934
 5180TIP3    H136955   4.587   1.802   4.605 -3.5272 -0.7268 -0.2528
 5180TIP3    H236956   4.690   1.716   4.535  0.2198  1.0251  2.7330
 5181TIP3   OH236957   1.398   0.729   3.231 -0.0940 -0.0293  0.4882
 5181TIP3    H136958   1.316   0.729   3.183  0.1465 -1.1784  0.0710
 5181TIP3    H236959   1.378   0.684   3.313  0.1694 -0.4635  0.3111
 5182TIP3   OH236960   3.469   0.854  13.813  0.3694  0.1641  0.2252
 5182TIP3    H136961   3.545   0.899  13.777 -0.2798  2.3489  1.3733
 5182TIP3    H236962   3.501   0.816  13.895  0.8863 -1.4161 -0.6795
 5183TIP3   OH236963   1.951   2.438   2.599  0.4756  0.4240 -0.1976
 5183TIP3    H136964   1.907   2.519   2.625 -0.2300  0.1644 -0.5469
 5183TIP3    H236965   1.924   2.374   2.664  3.0516  1.0051  1.6032
 5184TIP3   OH236966   0.539   5.252   4.536  0.2071  0.3245  0.2546
 5184TIP3    H136967   0.504   5.295   4.614 -1.2263 -0.1402 -0.0918
 5184TIP3    H236968   0.539   5.321   4.469 -0.0341  0.3371  0.2660
 5185TIP3   OH236969   0.030   5.023  17.039  0.0290  0.2940 -0.3176
 5185TIP3    H136970  -0.014   4.955  16.987  0.1583 -0.8908  1.0809
 5185TIP3    H236971   0.113   4.983  17.065  0.3798  1.2281  0.0198
 5186TIP3   OH236972   3.683   2.688   2.432 -0.2369  0.6951 -0.0759
 5186TIP3    H136973   3.644   2.604   2.410 -1.3350  0.8840  1.0030
 5186TIP3    H236974   3.611   2.739   2.469  0.6004  1.8022  0.0985
 5187TIP3   OH236975   0.460   1.556  14.210  0.3181  0.2475  0.1324
 5187TIP3    H136976   0.462   1.575  14.304 -1.3196  0.6569  0.1045
 5187TIP3    H236977   0.519   1.621  14.172 -1.8081  2.5411  0.5231
 5188TIP3   OH236978   1.003   1.749  12.376  0.4033 -0.6858 -0.5233
 5188TIP3    H136979   1.001   1.668  12.324  3.4005 -0.5214 -1.0355
 5188TIP3    H236980   1.022   1.720  12.465 -2.4635 -0.7663  0.1711
 5189TIP3   OH236981   4.727   3.048  16.408  0.5871 -0.3158  0.8013
 5189TIP3    H136982   4.653   3.109  16.408 -1.4554 -2.5526 -1.8926
 5189TIP3    H236983   4.802   3.102  16.383 -0.8770  1.3353 -0.2415
 5190TIP3   OH236984   1.209   0.672  15.969  0.8745  0.0302 -0.1929
 5190TIP3    H136985   1.235   0.585  15.938  0.0312 -0.9655  1.6986
 5190TIP3    H236986   1.221   0.668  16.064 -0.2008  1.6342  0.0615
 5191TIP3   OH236987   3.691   6.377   5.935 -0.0357  0.0489 -0.3782
 5191TIP3    H136988   3.607   6.333   5.949  0.2987 -1.3260 -2.2699
 5191TIP3    H236989   3.674   6.440   5.865  0.1749  0.9259  0.3342
 5192TIP3   OH236990   6.680   4.652   2.073  0.5934 -0.7303  0.0266
 5192TIP3    H136991   6.752   4.629   2.015  0.8674  0.1225  0.0243
 5192TIP3    H236992   6.686   4.747   2.083 -1.0729 -0.5123 -0.7001
 5193TIP3   OH236993   1.623   5.364   1.646  0.0855 -0.0525 -0.1683
 5193TIP3    H136994   1.587   5.314   1.719  0.2775 -1.1334 -0.7983
 5193TIP3    H236995   1.547   5.389   1.594 -0.0029  0.2754  0.1097
 5194TIP3   OH236996   3.487   3.088   2.316  0.3031  0.0789  0.0099
 5194TIP3    H136997   3.566   3.049   2.354 -0.5295 -1.4450  0.2829
 5194TIP3    H236998   3.506   3.181   2.310  1.6421 -0.0786  1.2677
 5195TIP3   OH236999   1.572   3.952  13.917  0.1402  0.0543 -0.1444
 5195TIP3    H137000   1.593   3.933  13.826 -0.6117  1.7557 -0.7261
 5195TIP3    H237001   1.495   4.009  13.912 -0.5887 -0.7049  1.6094
 5196TIP3   OH237002   5.414   0.596  14.809 -0.0309  0.4324  0.1808
 5196TIP3    H137003   5.359   0.658  14.761 -1.5960 -0.3783  0.8533
 5196TIP3    H237004   5.437   0.530  14.744 -0.5503  0.3395  0.0876
 5197TIP3   OH237005   5.286   4.612  12.137 -0.2703 -0.0129  0.0632
 5197TIP3    H137006   5.361   4.556  12.121 -0.4246  0.3624 -2.3034
 5197TIP3    H237007   5.309   4.696  12.096 -1.4647  0.5058  0.3895
 5198TIP3   OH237008   4.023   2.558  13.789 -0.2159 -0.1099 -0.2470
 5198TIP3    H137009   4.024   2.514  13.874 -2.5024 -1.7258 -0.9444
 5198TIP3    H237010   3.956   2.511  13.739 -1.3242  2.8488 -1.8181
 5199TIP3   OH237011   5.332   4.428  16.815  0.2133 -0.4891  0.6343
 5199TIP3    H137012   5.405   4.488  16.824  1.1373 -0.9867 -2.3307
 5199TIP3    H237013   5.372   4.345  16.786 -1.3712 -1.2311  0.4293
 5200TIP3   OH237014   3.587   0.876  10.686 -0.0627  0.0243  0.1123
 5200TIP3    H137015   3.514   0.814  10.682  1.2516 -1.5030 -1.8037
 5200TIP3    H237016   3.663   0.821  10.707  0.8193  1.3323  0.4327
 5201TIP3   OH237017   4.855   0.215   5.344 -0.5568 -0.3167  0.1697
 5201TIP3    H137018   4.918   0.169   5.289 -0.1065  0.8231 -0.2980
 5201TIP3    H237019   4.835   0.153   5.414  0.8367 -0.8268  0.1471
 5202TIP3   OH237020   4.607   0.674  13.694 -0.2313  0.3490 -0.3900
 5202TIP3    H137021   4.559   0.597  13.665  1.0877 -0.6111 -0.1153
 5202TIP3    H237022   4.662   0.698  13.619  1.0655 -0.4064  0.2848
 5203TIP3   OH237023   1.742   0.713  12.967  0.3095 -0.4337  0.1414
 5203TIP3    H137024   1.722   0.673  13.052 -0.8098  0.7762  0.4770
 5203TIP3    H237025   1.813   0.775  12.986 -1.8944  2.0438  0.8926
 5204TIP3   OH237026   4.134   2.809  17.036 -0.0049  0.0728  0.3771
 5204TIP3    H137027   4.216   2.849  17.066  0.5168  0.8716 -1.8880
 5204TIP3    H237028   4.106   2.865  16.963 -0.0441 -2.7637 -1.9848
 5205TIP3   OH237029   3.227   3.004  15.768 -0.5129 -0.9323  0.0249
 5205TIP3    H137030   3.248   2.946  15.694 -0.6595 -1.1292  0.1381
 5205TIP3    H237031   3.180   2.948  15.829  0.7424 -1.1121  0.8644
 5206TIP3   OH237032   3.848   2.402   4.245 -0.4402  0.0749 -0.3513
 5206TIP3    H137033   3.866   2.424   4.336  1.1869 -0.0483 -0.6023
 5206TIP3    H237034   3.901   2.464   4.195 -2.3595  1.0569 -1.2890
 5207TIP3   OH237035   4.368   3.218   1.712 -0.2175 -0.2532  0.2802
 5207TIP3    H137036   4.439   3.275   1.682 -0.8833 -0.3548 -1.5874
 5207TIP3    H237037   4.338   3.174   1.633 -0.0249 -2.8912  1.5830
 5208TIP3   OH237038   6.734   4.641  14.319  0.0742  0.2449  0.9459
 5208TIP3    H137039   6.771   4.693  14.391 -0.3714  0.6790  0.8706
 5208TIP3    H237040   6.808   4.593  14.283  0.3163  0.0984  1.6393
 5209TIP3   OH237041   1.600   6.755   4.429  0.4208  0.0042  0.6002
 5209TIP3    H137042   1.566   6.766   4.518 -0.4628  0.0506  0.2648
 5209TIP3    H237043   1.617   6.844   4.398 -0.8834  0.1112  0.1219
 5210TIP3   OH237044   0.831   6.753  11.499  0.0866  0.2230 -0.0254
 5210TIP3    H137045   0.806   6.661  11.506  0.2789  0.1721 -0.0241
 5210TIP3    H237046   0.772   6.798  11.560 -1.3696  0.3666 -1.4599
 5211TIP3   OH237047   3.332   3.769   0.170  0.3670  0.5416 -0.4083
 5211TIP3    H137048   3.354   3.824   0.095 -1.6243  0.4830 -1.0925
 5211TIP3    H237049   3.249   3.803   0.202  0.5665 -0.2115  1.0385
 5212TIP3   OH237050   3.079   0.093   3.032 -0.3642 -0.1720 -0.2139
 5212TIP3    H137051   3.168   0.058   3.036 -0.3077  0.0022  0.0688
 5212TIP3    H237052   3.082   0.159   2.963  0.1520  1.0284  0.9166
 5213TIP3   OH237053   6.629   4.622  11.366 -0.0275  0.4395 -0.2627
 5213TIP3    H137054   6.541   4.614  11.329 -1.0384 -2.2594  2.3365
 5213TIP3    H237055   6.687   4.616  11.290 -1.9955 -2.7703 -1.7282
 5214TIP3   OH237056   0.790   3.185  15.453  0.0091 -0.2881 -0.3360
 5214TIP3    H137057   0.869   3.152  15.496  0.6091 -1.0774 -1.9557
 5214TIP3    H237058   0.764   3.260  15.505  1.5166 -0.3491  0.5666
 5215TIP3   OH237059   0.115   0.329  16.302 -0.1475  0.0198 -0.1525
 5215TIP3    H137060   0.112   0.358  16.393 -0.0516 -4.6920  1.6382
 5215TIP3    H237061   0.208   0.328  16.280 -0.2712  3.2722 -1.2591
 5216TIP3   OH237062   6.085   0.934   6.099 -0.3007  0.6783 -0.4239
 5216TIP3    H137063   5.999   0.923   6.140  1.4509 -1.4867  3.0580
 5216TIP3    H237064   6.076   0.892   6.013 -2.5577  0.0597  0.0564
 5217TIP3   OH237065   1.603   0.653  16.343  0.4362  0.0708  0.3179
 5217TIP3    H137066   1.689   0.683  16.312 -0.9691  1.0027 -3.2697
 5217TIP3    H237067   1.598   0.562  16.314  0.2960 -0.0513  0.7225
 5218TIP3   OH237068   4.732   2.201  13.199  0.6489  1.1019 -0.3082
 5218TIP3    H137069   4.805   2.248  13.159  1.7130 -1.0861 -1.0661
 5218TIP3    H237070   4.679   2.169  13.126 -1.1955  2.7352  0.2297
 5219TIP3   OH237071   0.685   6.746   5.313 -0.4027 -0.3761  0.0216
 5219TIP3    H137072   0.698   6.746   5.218  1.4678 -3.1079  0.1483
 5219TIP3    H237073   0.610   6.803   5.328 -0.6328  0.2739 -3.0616
 5220TIP3   OH237074   2.623   3.532   4.715  0.3032  0.5706 -0.3003
 5220TIP3    H137075   2.650   3.457   4.767  0.7729  1.2622  0.4743
 5220TIP3    H237076   2.527   3.530   4.716  0.3121  0.4369  0.3877
 5221TIP3   OH237077   4.429   4.441   5.844  0.1185 -0.0506  0.1244
 5221TIP3    H137078   4.348   4.458   5.797 -0.2782 -2.1922 -0.0561
 5221TIP3    H237079   4.494   4.428   5.775 -0.0270 -1.1683  0.1786
 5222TIP3   OH237080   2.526   3.419   5.806 -0.7081  0.3274  0.2906
 5222TIP3    H137081   2.479   3.500   5.827 -1.0131  0.4733 -0.8760
 5222TIP3    H237082   2.471   3.349   5.841 -1.1693  0.5635  0.0419
 5223TIP3   OH237083   0.011   1.985  14.628 -0.2925 -0.3422 -0.0678
 5223TIP3    H137084   0.092   2.017  14.668 -0.2415 -1.0608  0.4113
 5223TIP3    H237085   0.039   1.915  14.569 -0.5788 -0.7073  0.2260
 5224TIP3   OH237086   4.205   3.644  12.930  0.3537  0.1875  0.3025
 5224TIP3    H137087   4.252   3.577  12.881 -1.1529  0.0885 -1.0978
 5224TIP3    H237088   4.272   3.704  12.960  1.7872 -1.9678  1.7126
 5225TIP3   OH237089   1.719   2.565  11.909 -0.0410 -0.4195 -0.2383
 5225TIP3    H137090   1.770   2.502  11.959  0.2835 -1.0128 -1.2740
 5225TIP3    H237091   1.780   2.596  11.841 -1.2020 -1.6085 -1.8961
 5226TIP3   OH237092   0.113   3.066   0.178 -0.4797  0.0782  0.2367
 5226TIP3    H137093   0.055   3.131   0.217  0.5811  0.1838  1.7314
 5226TIP3    H237094   0.082   3.057   0.088 -1.9260  1.1303  0.5927
 5227TIP3   OH237095   3.456   3.749  13.912  0.0974 -0.0348  0.4730
 5227TIP3    H137096   3.453   3.674  13.853  1.0913  0.3780 -0.1373
 5227TIP3    H237097   3.401   3.724  13.986 -0.0699 -1.1175  0.0011
 5228TIP3   OH237098   6.598   4.784  15.533  0.7551  0.8885  0.7836
 5228TIP3    H137099   6.648   4.725  15.476 -0.8107  0.8716 -0.6694
 5228TIP3    H237100   6.604   4.745  15.620  1.1716 -0.4783  0.1676
 5229TIP3   OH237101   2.594   0.895   1.174 -0.0688 -0.5439 -0.0874
 5229TIP3    H137102   2.647   0.967   1.139  0.7311  0.4223  2.8432
 5229TIP3    H237103   2.654   0.820   1.174  0.7079  0.0500  1.3746
 5230TIP3   OH237104   0.029   0.001   6.727  0.3044 -0.0819 -0.2094
 5230TIP3    H137105   0.095   0.068   6.709 -0.1967  0.7515  0.9243
 5230TIP3    H237106  -0.054   0.048   6.727  0.1041 -0.2593  2.4865
 5231TIP3   OH237107   2.595   5.332  11.796  0.0103 -0.7518  0.0908
 5231TIP3    H137108   2.529   5.350  11.863 -0.2684 -1.5344  0.0412
 5231TIP3    H237109   2.664   5.284  11.842 -0.3275 -1.5661 -0.2362
 5232TIP3   OH237110   0.623   4.364  12.008  0.1194 -0.4584 -0.0115
 5232TIP3    H137111   0.667   4.303  12.068 -0.7283 -0.7850  0.2868
 5232TIP3    H237112   0.535   4.373  12.043 -0.1287  0.0158 -0.7369
 5233TIP3   OH237113   3.327   4.910   3.519 -0.7297 -0.8194 -0.1950
 5233TIP3    H137114   3.308   4.902   3.426 -1.0425 -1.7464 -0.0577
 5233TIP3    H237115   3.261   4.971   3.552 -2.3188 -2.5107 -0.0893
 5234TIP3   OH237116   3.852   4.690  15.049  0.2964  0.2051 -0.4169
 5234TIP3    H137117   3.809   4.628  14.990 -0.7020  2.0752 -1.7532
 5234TIP3    H237118   3.845   4.649  15.136 -2.3404 -0.5509 -0.8888
 5235TIP3   OH237119   5.330   6.025   2.147  0.0179 -0.4265 -0.0296
 5235TIP3    H137120   5.344   5.988   2.234 -0.4580  0.3298  0.3844
 5235TIP3    H237121   5.239   6.004   2.126 -0.0730 -0.0339 -0.0467
 5236TIP3   OH237122   2.497   3.699  14.780  0.0894  0.4106 -0.2706
 5236TIP3    H137123   2.420   3.710  14.837 -1.8946  0.8671 -2.8565
 5236TIP3    H237124   2.563   3.757  14.818 -0.6790 -0.2106  2.2073
 5237TIP3   OH237125   6.463   5.146   0.649  0.0202  0.1048  0.7053
 5237TIP3    H137126   6.419   5.134   0.565 -0.7321  2.5663  0.6599
 5237TIP3    H237127   6.398   5.120   0.714  0.0582 -0.3473  0.5668
 5238TIP3   OH237128   6.090   0.091  12.953 -0.1663  0.5286 -0.0373
 5238TIP3    H137129   6.151   0.093  12.880 -0.5440 -0.1170 -0.3825
 5238TIP3    H237130   6.138   0.046  13.023 -0.6487 -1.1485 -0.7188
 5239TIP3   OH237131   6.753   5.489  12.651 -0.0644  0.4359 -0.1197
 5239TIP3    H137132   6.709   5.552  12.708 -0.5923 -0.5460  0.5900
 5239TIP3    H237133   6.846   5.498  12.672 -0.3230 -0.6411  1.6969
 5240TIP3   OH237134   4.554   6.586   2.971 -0.4132  0.3052 -0.0858
 5240TIP3    H137135   4.639   6.627   2.987 -0.0967 -0.8654  1.5649
 5240TIP3    H237136   4.574   6.508   2.919 -0.6637  0.7465 -0.8558
 5241TIP3   OH237137   1.011   5.419  10.938  0.0285  0.2203 -0.5732
 5241TIP3    H137138   0.961   5.355  10.886 -2.5545  1.1230  0.5889
 5241TIP3    H237139   0.986   5.504  10.902  1.3610  0.6898 -0.4230
 5242TIP3   OH237140   1.653   3.482   3.231 -0.2346 -0.4881  0.6904
 5242TIP3    H137141   1.714   3.463   3.303  0.7814  0.1237  0.0218
 5242TIP3    H237142   1.636   3.397   3.191  2.7990 -0.3981 -1.1195
 5243TIP3   OH237143   6.312   4.681   1.170  0.6485  0.5478  1.0784
 5243TIP3    H137144   6.333   4.721   1.254  1.7429 -1.2338  1.7301
 5243TIP3    H237145   6.366   4.601   1.168 -0.6250 -0.3341 -0.5672
 5244TIP3   OH237146   4.283   1.181  12.337  0.5657  0.3315  0.1129
 5244TIP3    H137147   4.373   1.209  12.318  0.2758  0.7104 -0.7476
 5244TIP3    H237148   4.235   1.197  12.256 -0.7858  2.2763  1.1936
 5245TIP3   OH237149   4.292   3.684  12.301 -0.1311 -0.4903  0.1989
 5245TIP3    H137150   4.374   3.727  12.324  0.6850 -1.3572 -0.9693
 5245TIP3    H237151   4.275   3.625  12.375  0.0064  0.0745  0.6905
 5246TIP3   OH237152   0.549   1.450   5.789 -0.1586  0.6982 -0.9966
 5246TIP3    H137153   0.599   1.385   5.838  1.9583  1.0513 -2.5823
 5246TIP3    H237154   0.510   1.505   5.857  1.0995  0.0494  0.3229
 5247TIP3   OH237155   6.393   5.458  13.599  0.0265  0.0809  0.1040
 5247TIP3    H137156   6.414   5.539  13.551 -0.3069  0.0305 -0.1356
 5247TIP3    H237157   6.326   5.485  13.661 -0.5857 -0.1449 -0.4427
 5248TIP3   OH237158   1.975   3.849   3.628  0.1307 -0.4652 -0.3080
 5248TIP3    H137159   2.050   3.898   3.663  0.3270 -0.6150 -0.5126
 5248TIP3    H237160   2.010   3.803   3.552 -0.2166 -0.3999 -0.5063
 5249TIP3   OH237161   5.110   0.292   4.675  0.2009  0.0129  0.0032
 5249TIP3    H137162   5.145   0.366   4.726 -1.2526  0.8828 -0.2080
 5249TIP3    H237163   5.023   0.276   4.712  0.8990 -2.3630  0.7781
 5250TIP3   OH237164   4.895   4.240   1.439 -0.2461  0.2876  0.6291
 5250TIP3    H137165   4.814   4.277   1.403  0.0577 -1.3480 -2.0137
 5250TIP3    H237166   4.962   4.307   1.420 -0.6459  0.8341  1.1156
 5251TIP3   OH237167   2.848   1.522  14.791 -0.4593 -0.4726  1.0637
 5251TIP3    H137168   2.772   1.578  14.805 -1.4436 -1.3539 -0.4449
 5251TIP3    H237169   2.889   1.515  14.877 -0.9475  1.5996  1.5244
 5252TIP3   OH237170   0.055   2.128   2.693  0.6265  0.0167  0.0150
 5252TIP3    H137171   0.101   2.210   2.712 -1.7655  1.5526 -0.5168
 5252TIP3    H237172   0.114   2.081   2.634  1.8650  1.5321 -0.0175
 5253TIP3   OH237173   6.661   4.684  10.416 -0.5866  0.2665 -0.1645
 5253TIP3    H137174   6.634   4.610  10.471 -1.1148  1.1148  0.7382
 5253TIP3    H237175   6.717   4.737  10.472 -1.6086  1.4595 -0.2372
 5254TIP3   OH237176   3.237   3.972   4.521  0.6183  0.5668 -0.1112
 5254TIP3    H137177   3.192   4.041   4.473 -1.0069  0.7416  1.5148
 5254TIP3    H237178   3.268   4.014   4.601 -0.4582 -0.5440  0.9407
 5255TIP3   OH237179   3.188   3.371  16.327 -0.3537 -0.3232 -0.2753
 5255TIP3    H137180   3.130   3.401  16.257 -0.3032 -0.5003 -0.3952
 5255TIP3    H237181   3.178   3.276  16.327  0.1856 -0.3861 -0.5277
 5256TIP3   OH237182   5.427   6.209  14.103  0.1914 -0.1710  0.2400
 5256TIP3    H137183   5.387   6.268  14.039 -2.1224 -1.5914  0.2282
 5256TIP3    H237184   5.492   6.262  14.148  0.0854  1.5842 -1.5529
 5257TIP3   OH237185   6.644   4.041  16.889 -0.3603 -0.0366  0.1591
 5257TIP3    H137186   6.699   3.965  16.905 -1.7186 -0.9118  0.9138
 5257TIP3    H237187   6.705   4.112  16.872  1.0050 -0.8679  1.3460
 5258TIP3   OH237188   5.465   2.362  12.757 -0.2832 -0.4391 -0.2677
 5258TIP3    H137189   5.369   2.359  12.754 -0.3057 -0.2834  0.2028
 5258TIP3    H237190   5.485   2.402  12.842  0.1242  2.2454 -1.4966
 5259TIP3   OH237191   6.081   6.117  14.499  0.0895 -0.3536  0.1744
 5259TIP3    H137192   6.101   6.198  14.453 -0.3652 -0.7138 -0.6871
 5259TIP3    H237193   6.164   6.088  14.536  0.8660 -0.9655 -1.9174
 5260TIP3   OH237194   1.008   5.551   4.375  0.3626 -0.3099  0.4295
 5260TIP3    H137195   0.927   5.595   4.402  1.2703  1.0729  1.0609
 5260TIP3    H237196   1.066   5.561   4.451  0.7132 -2.4415  0.5022
 5261TIP3   OH237197   1.575   2.437  16.743  0.2461  0.7628 -0.4879
 5261TIP3    H137198   1.638   2.508  16.759 -1.3733  2.4162 -1.1359
 5261TIP3    H237199   1.508   2.450  16.809  1.0041 -1.6172  0.8626
 5262TIP3   OH237200   6.115   1.283   4.856 -0.7157  0.2180  0.7296
 5262TIP3    H137201   6.102   1.212   4.919  0.8268  0.5185  1.4159
 5262TIP3    H237202   6.172   1.245   4.789  1.2105  1.1119  1.7618
 5263TIP3   OH237203   5.836   6.238   6.101 -0.0732 -0.1391 -0.5462
 5263TIP3    H137204   5.856   6.144   6.105  0.5908 -0.0021 -0.4727
 5263TIP3    H237205   5.864   6.272   6.186 -2.3818 -0.2372  0.3355
 5264TIP3   OH237206   5.264   0.153   3.440  0.0025  0.2609  0.2213
 5264TIP3    H137207   5.212   0.217   3.392 -0.5614  0.6857  1.3634
 5264TIP3    H237208   5.244   0.069   3.397 -1.5697  0.4201  0.5594
 5265TIP3   OH237209   2.104   6.703   4.645  0.3216  0.1257 -0.2016
 5265TIP3    H137210   2.160   6.685   4.720  0.1537 -1.0987 -0.3490
 5265TIP3    H237211   2.016   6.680   4.674  0.2876 -0.5833 -0.8359
 5266TIP3   OH237212   0.445   0.214  15.670  0.0562 -0.0412 -0.4256
 5266TIP3    H137213   0.471   0.262  15.591  1.3410 -1.3668 -0.8358
 5266TIP3    H237214   0.349   0.210  15.665  0.0212  1.1278 -1.1524
 5267TIP3   OH237215   2.757   2.111   5.489  0.3412  1.2763 -0.1311
 5267TIP3    H137216   2.803   2.112   5.573  0.0517  0.1295  0.0616
 5267TIP3    H237217   2.799   2.040   5.440  0.1795  1.6163 -0.7571
 5268TIP3   OH237218   5.439   2.324   1.267 -0.2959 -0.2860 -0.4766
 5268TIP3    H137219   5.467   2.273   1.342  1.1731  0.3064 -0.5764
 5268TIP3    H237220   5.344   2.323   1.271 -0.2892 -2.1720  0.0723
 5269TIP3   OH237221   3.118   4.315  15.000  0.0542  0.0498 -0.3981
 5269TIP3    H137222   3.153   4.399  15.029  0.4499 -0.0144 -0.6725
 5269TIP3    H237223   3.112   4.324  14.905 -1.9902  0.5543 -0.2567
 5270TIP3   OH237224   0.307   5.653   2.687  0.4796  0.0374  0.1994
 5270TIP3    H137225   0.322   5.715   2.615 -2.5386  2.1290  1.1861
 5270TIP3    H237226   0.374   5.674   2.751  1.0497  0.5225 -0.5374
 5271TIP3   OH237227   1.122   4.499   1.116 -0.1765  0.0160  0.1281
 5271TIP3    H137228   1.049   4.508   1.176 -0.4668 -0.1578 -0.1942
 5271TIP3    H237229   1.183   4.441   1.161  1.1738  2.4810  1.7173
 5272TIP3   OH237230   4.897   6.586   5.677  0.1646 -0.5585  0.2844
 5272TIP3    H137231   4.887   6.500   5.716  2.6001 -0.4238  1.3987
 5272TIP3    H237232   4.905   6.646   5.752 -2.9598  0.9472 -0.4156
 5273TIP3   OH237233   5.951   2.833  14.794  0.0134 -0.0939  0.0264
 5273TIP3    H137234   5.861   2.802  14.796  0.2737 -0.9256 -0.5887
 5273TIP3    H237235   6.003   2.758  14.823  0.4753  0.5205  0.8122
 5274TIP3   OH237236   6.619   3.503   5.879 -0.5710 -0.0033  0.2599
 5274TIP3    H137237   6.707   3.525   5.909 -0.4089 -0.1678 -0.0981
 5274TIP3    H237238   6.561   3.540   5.947 -0.2038 -0.4450  0.8237
 5275TIP3   OH237239   1.866   1.462   1.636  0.0158 -0.4920 -0.0923
 5275TIP3    H137240   1.813   1.502   1.705 -0.6648 -1.3509 -0.1054
 5275TIP3    H237241   1.954   1.459   1.672 -0.3446 -0.9724  0.7744
 5276TIP3   OH237242   3.384   6.379   3.911 -0.1424 -0.1110 -0.1284
 5276TIP3    H137243   3.290   6.359   3.907 -0.3089  0.5667  0.3394
 5276TIP3    H237244   3.409   6.394   3.820 -1.1944  2.8141 -0.0388
 5277TIP3   OH237245   2.825   4.429  16.739 -0.3055 -0.0670  0.5927
 5277TIP3    H137246   2.898   4.451  16.796 -1.6568  1.7318  1.7201
 5277TIP3    H237247   2.749   4.428  16.797 -1.0203 -3.9218 -0.1322
 5278TIP3   OH237248   0.380   0.498   4.320 -0.2158  0.0751 -0.3660
 5278TIP3    H137249   0.303   0.468   4.370 -0.8459  0.2951 -1.1877
 5278TIP3    H237250   0.347   0.570   4.267  0.5251  0.0503 -0.8711
 5279TIP3   OH237251   5.485   6.595  11.202 -0.0887 -0.2144 -0.1558
 5279TIP3    H137252   5.518   6.562  11.286 -0.5600  0.2204  0.2090
 5279TIP3    H237253   5.389   6.591  11.211 -0.1463  0.5417 -0.3832
 5280TIP3   OH237254   1.482   3.066   6.351  0.5125 -0.2804  0.3807
 5280TIP3    H137255   1.467   2.978   6.317 -1.4582 -0.0403  0.5102
 5280TIP3    H237256   1.397   3.110   6.343  1.8152  2.2067 -1.3113
 5281TIP3   OH237257   4.909   1.882   4.858 -0.3067  0.3526  0.3931
 5281TIP3    H137258   4.852   1.957   4.872 -0.8263  0.9016 -3.4242
 5281TIP3    H237259   4.942   1.860   4.945 -2.5757  2.9918  2.1054
 5282TIP3   OH237260   1.649   4.369   3.436 -0.4228 -0.6086 -0.4175
 5282TIP3    H137261   1.605   4.417   3.366 -1.0275 -1.1598 -0.4258
 5282TIP3    H237262   1.593   4.382   3.513  1.0051  1.2672  0.3950
 5283TIP3   OH237263   3.400   2.370  13.177  0.4739  0.4667  0.1155
 5283TIP3    H137264   3.310   2.361  13.208  0.6802  1.0500  0.8950
 5283TIP3    H237265   3.393   2.356  13.082 -0.1565 -1.3550  0.3773
 5284TIP3   OH237266   6.127   4.157  12.193  0.4904  0.3105 -0.1455
 5284TIP3    H137267   6.220   4.159  12.212  0.1868 -1.8348  2.1183
 5284TIP3    H237268   6.109   4.065  12.171 -0.8131  1.0247 -2.5042
 5285TIP3   OH237269   1.371   1.669  16.093 -0.0529 -0.0962  1.1859
 5285TIP3    H137270   1.336   1.601  16.150  1.6253 -2.7613 -0.7361
 5285TIP3    H237271   1.310   1.674  16.020  0.5008 -0.4985  0.6892
 5286TIP3   OH237272   4.842   3.102   2.941 -0.2558  0.1938 -0.0404
 5286TIP3    H137273   4.773   3.098   3.008  0.4550  1.1932  0.7725
 5286TIP3    H237274   4.848   3.012   2.908 -2.1908  0.1551 -0.3940
 5287TIP3   OH237275   4.816   3.132   4.986  0.6108 -0.1066 -0.0546
 5287TIP3    H137276   4.726   3.150   4.958  0.7020 -0.7924 -0.8307
 5287TIP3    H237277   4.806   3.089   5.071  0.0512 -2.1853 -1.1001
 5288TIP3   OH237278   6.112   0.417   2.854  0.0103  0.1880  0.7763
 5288TIP3    H137279   6.154   0.492   2.813  1.8589 -1.4771 -0.5222
 5288TIP3    H237280   6.019   0.440   2.856  0.5697  2.7350  0.9994
 5289TIP3   OH237281   1.013   4.239   5.213 -0.0985  0.0584 -0.2810
 5289TIP3    H137282   1.021   4.320   5.263  0.0533  0.0325 -0.2622
 5289TIP3    H237283   1.051   4.171   5.269  0.4686  0.1017 -0.6002
 5290TIP3   OH237284   4.453   4.598   0.816 -0.2675  0.2142  0.3345
 5290TIP3    H137285   4.513   4.654   0.865  0.7229  0.9384 -1.6094
 5290TIP3    H237286   4.495   4.586   0.731 -1.0178 -2.5339  0.2646
 5291TIP3   OH237287   1.508   4.926   0.023 -0.0920  0.6505  0.0956
 5291TIP3    H137288   1.536   4.856  -0.035  1.6589  0.5830  0.9583
 5291TIP3    H237289   1.494   5.001  -0.035 -1.6581 -0.2839 -0.7876
 5292TIP3   OH237290   3.792   4.982   4.373 -0.5282  0.4763  0.1648
 5292TIP3    H137291   3.729   5.052   4.384 -1.3699 -0.5280  2.5828
 5292TIP3    H237292   3.740   4.907   4.342 -0.2095  0.1378  0.4332
 5293TIP3   OH237293   0.091   6.559   3.518  0.2613  0.0437  0.5264
 5293TIP3    H137294   0.173   6.555   3.568  1.0628 -2.1659 -0.8178
 5293TIP3    H237295   0.038   6.623   3.565  2.0976  0.2879  2.4447
 5294TIP3   OH237296   0.714   0.632  16.993 -0.4099  0.3221  0.0487
 5294TIP3    H137297   0.671   0.637  17.079  1.7138  1.7229  1.1309
 5294TIP3    H237298   0.779   0.702  16.996  1.3985 -1.1915 -1.7662
 5295TIP3   OH237299   3.625   3.670  14.927  0.4022  0.2642  0.3701
 5295TIP3    H137300   3.646   3.763  14.922 -0.4912  0.5060  0.7617
 5295TIP3    H237301   3.561   3.664  14.999  0.2592 -0.6124  0.1837
 5296TIP3   OH237302   3.109   1.094   1.862  0.5115 -0.0991 -0.1232
 5296TIP3    H137303   3.175   1.094   1.793  0.8041 -0.3594  0.1535
 5296TIP3    H237304   3.068   1.007   1.856  0.8704 -0.3029  0.3433
 5297TIP3   OH237305   3.388   0.291  10.444 -0.2440  0.4789 -0.5701
 5297TIP3    H137306   3.349   0.314  10.360 -1.2822  0.3011 -0.1554
 5297TIP3    H237307   3.369   0.366  10.501  0.6203  0.6830 -0.5387
 5298TIP3   OH237308   5.041   5.534  10.978 -0.0677 -0.4574  0.1153
 5298TIP3    H137309   5.020   5.474  11.049 -2.2858 -0.0579 -0.1257
 5298TIP3    H237310   5.101   5.485  10.921  0.9408 -1.1296  1.6906
 5299TIP3   OH237311   5.856   2.399  14.862  0.3734  0.1905  0.1283
 5299TIP3    H137312   5.870   2.328  14.925 -1.6417 -0.6133 -0.2341
 5299TIP3    H237313   5.943   2.432  14.843  1.2460 -1.2091  1.4395
 5300TIP3   OH237314   4.371   6.588   5.671  0.2873 -1.0129  0.4199
 5300TIP3    H137315   4.325   6.506   5.687 -0.3297 -0.3690  2.0861
 5300TIP3    H237316   4.426   6.570   5.595 -2.1051 -2.0575 -1.1902
 5301TIP3   OH237317   2.996   0.746  12.091 -0.2825 -0.1823 -0.0602
 5301TIP3    H137318   2.966   0.829  12.128 -0.0369  0.4471 -1.2157
 5301TIP3    H237319   2.921   0.714  12.041 -0.3391 -0.6035  0.2950
 5302TIP3   OH237320   4.494   0.487  12.672 -0.1235  0.9033 -0.9323
 5302TIP3    H137321   4.446   0.544  12.613  1.7176  1.3058 -2.1143
 5302TIP3    H237322   4.556   0.544  12.717 -0.0362  0.2482 -0.1871
 5303TIP3   OH237323   4.181   0.091   2.448 -0.7489 -0.1845  0.2422
 5303TIP3    H137324   4.253   0.028   2.442 -1.0659 -0.5111 -0.1945
 5303TIP3    H237325   4.188   0.127   2.537  0.9726  1.0259 -0.3108
 5304TIP3   OH237326   5.385   5.772   3.970  0.0172  0.1125  0.5579
 5304TIP3    H137327   5.333   5.700   4.005  0.4657 -1.0573 -1.0426
 5304TIP3    H237328   5.467   5.769   4.020  0.1316 -0.6885  0.3527
 5305TIP3   OH237329   3.215   6.713  14.782  0.3626  0.4014 -0.3846
 5305TIP3    H137330   3.288   6.755  14.827  3.4223 -2.0644 -2.5724
 5305TIP3    H237331   3.234   6.620  14.786 -1.1353 -0.1916 -3.4657
 5306TIP3   OH237332   6.691   2.001  13.136  0.1383  0.8202 -0.5327
 5306TIP3    H137333   6.661   1.913  13.116  0.8205  0.1941  1.0802
 5306TIP3    H237334   6.656   2.020  13.223  0.8910  1.7116 -0.4030
 5307TIP3   OH237335   0.617   3.261  12.399 -0.3861  0.4173  0.3261
 5307TIP3    H137336   0.610   3.187  12.458  0.3749  0.2149  0.1707
 5307TIP3    H237337   0.619   3.222  12.311  0.7454  0.5517  0.2730
 5308TIP3   OH237338   3.162   1.709   5.292  0.5535  0.0256  0.3167
 5308TIP3    H137339   3.074   1.710   5.255  0.1014  1.8788  1.3241
 5308TIP3    H237340   3.155   1.761   5.372  2.2542 -1.0041  1.1859
 5309TIP3   OH237341   2.619   1.742  14.274  0.0716 -0.4608 -0.7780
 5309TIP3    H137342   2.675   1.667  14.295 -0.5835 -0.0957  2.9618
 5309TIP3    H237343   2.679   1.816  14.267  0.2775 -0.2168  2.3868
 5310TIP3   OH237344   5.880   0.695  13.672  1.1334  0.4251  0.2270
 5310TIP3    H137345   5.880   0.669  13.580  0.2642  2.1075 -0.2952
 5310TIP3    H237346   5.788   0.715  13.691  0.7468 -2.7424  2.3894
 5311TIP3   OH237347   3.593   1.829  12.978  0.2219 -0.7209  0.8587
 5311TIP3    H137348   3.679   1.788  12.982  1.1003  0.8217 -0.6085
 5311TIP3    H237349   3.597   1.900  13.042  0.4437  0.0131  0.0465
 5312TIP3   OH237350   6.224   1.981   2.083 -0.1767 -0.9024 -0.7784
 5312TIP3    H137351   6.207   2.076   2.086 -1.7003 -1.1562 -0.3138
 5312TIP3    H237352   6.249   1.965   1.992  1.5592  0.1387 -0.5337
 5313TIP3   OH237353   3.562   3.574  12.134  0.0453  0.3640 -0.1509
 5313TIP3    H137354   3.572   3.497  12.189  0.6821  0.1206 -0.5929
 5313TIP3    H237355   3.633   3.632  12.161 -0.5925  0.9126  0.3633
 5314TIP3   OH237356   5.904   3.541   1.369 -0.1772 -0.1698 -0.0326
 5314TIP3    H137357   5.908   3.465   1.428  0.3381 -0.5468 -0.5429
 5314TIP3    H237358   5.814   3.572   1.377 -0.3602 -0.7548  0.2885
 5315TIP3   OH237359   1.487   4.726   1.060  0.2539  0.1903 -0.1617
 5315TIP3    H137360   1.524   4.773   0.985  0.4918  0.0412 -0.1394
 5315TIP3    H237361   1.394   4.748   1.058  0.2625  0.2099 -0.4852
 5316TIP3   OH237362   0.399   4.826  12.940  0.0847 -0.2709  0.2174
 5316TIP3    H137363   0.314   4.784  12.930  0.7990 -1.7745  0.1658
 5316TIP3    H237364   0.379   4.914  12.970 -1.5424 -0.0889 -1.2602
 5317TIP3   OH237365   1.330   6.652   3.574 -0.1351 -0.4873  0.0371
 5317TIP3    H137366   1.358   6.595   3.503 -0.8758 -1.1593  0.2727
 5317TIP3    H237367   1.411   6.694   3.604  0.3426 -1.0263 -0.4736
 5318TIP3   OH237368   5.423   1.116   2.527 -0.6601  0.1814 -0.5688
 5318TIP3    H137369   5.495   1.159   2.481 -0.7753  0.2124 -0.7205
 5318TIP3    H237370   5.433   1.143   2.619  0.9388 -1.6949 -0.1307
 5319TIP3   OH237371   5.378   3.791  12.210 -0.3967  0.2196 -0.7219
 5319TIP3    H137372   5.320   3.835  12.149 -0.3649  1.4776  0.1076
 5319TIP3    H237373   5.464   3.795  12.169 -0.1595  2.0768 -0.1486
 5320TIP3   OH237374   6.225   2.532  10.790  0.5366  0.6517 -0.1607
 5320TIP3    H137375   6.210   2.473  10.716 -2.9408 -0.4846  1.2263
 5320TIP3    H237376   6.226   2.620  10.751  0.0830  0.0086 -1.6833
 5321TIP3   OH237377   6.466   1.399   2.619  0.2339  0.5752 -0.2805
 5321TIP3    H137378   6.415   1.475   2.591 -0.2573  0.0700 -0.7979
 5321TIP3    H237379   6.528   1.384   2.548  0.5790  0.7084 -0.0119
 5322TIP3   OH237380   1.395   0.674  12.975 -0.0258  0.3479  0.0128
 5322TIP3    H137381   1.326   0.736  13.000  1.1601  1.1081  1.6253
 5322TIP3    H237382   1.414   0.696  12.884 -1.2566  0.7397 -0.1805
 5323TIP3   OH237383   6.752   4.680   6.209  0.6991  0.7787 -0.4907
 5323TIP3    H137384   6.820   4.691   6.142  0.6753  1.4363 -0.4086
 5323TIP3    H237385   6.674   4.721   6.171  0.4963  0.5248 -0.3513
 5324TIP3   OH237386   2.344   4.641   4.716  0.0664  0.0221  0.5301
 5324TIP3    H137387   2.277   4.691   4.763  0.4428  2.8099 -1.5995
 5324TIP3    H237388   2.296   4.594   4.648  0.0312  0.1193  0.4879
 5325TIP3   OH237389   5.824   2.106  12.498  0.8653 -0.7062 -0.0306
 5325TIP3    H137390   5.832   2.123  12.404  0.1324  1.1990  0.1964
 5325TIP3    H237391   5.905   2.142  12.535  0.2990  0.3649  0.2281
 5326TIP3   OH237392   0.749   0.534   3.274  0.0222 -0.2046  0.1509
 5326TIP3    H137393   0.766   0.613   3.223  0.9676 -0.5781 -0.1220
 5326TIP3    H237394   0.733   0.466   3.209 -1.1835 -0.1685  0.3867
 5327TIP3   OH237395   3.333   5.129   2.127 -0.7215  0.5872  0.2782
 5327TIP3    H137396   3.398   5.068   2.095 -0.5451  1.5206 -1.2526
 5327TIP3    H237397   3.281   5.152   2.050 -0.9452  2.1531  0.8541
 5328TIP3   OH237398   1.391   0.081   4.943  0.0911 -0.0241 -0.3682
 5328TIP3    H137399   1.424   0.073   5.032  1.5462  1.2333 -0.7452
 5328TIP3    H237400   1.332   0.157   4.946  1.1114  0.8167 -0.6881
 5329TIP3   OH237401   0.237   6.584  16.509  0.5340  0.7687  0.1369
 5329TIP3    H137402   0.278   6.629  16.583  0.8214  0.2677  0.2863
 5329TIP3    H237403   0.143   6.585  16.530  0.3914  2.3034 -0.4166
 5330TIP3   OH237404   2.848   4.965  12.245 -0.9362 -0.1129  0.3330
 5330TIP3    H137405   2.934   4.937  12.276 -0.6613  1.2413  0.8592
 5330TIP3    H237406   2.846   5.059  12.261 -2.8991 -0.2541  1.2194
 5331TIP3   OH237407   2.516   2.497   2.854 -0.1434 -0.2756 -0.1606
 5331TIP3    H137408   2.537   2.576   2.805 -1.1219  0.0058 -0.1380
 5331TIP3    H237409   2.585   2.435   2.830 -0.5281 -0.1150 -1.7971
 5332TIP3   OH237410   0.654   2.092   3.397  0.2363  0.5826  0.5603
 5332TIP3    H137411   0.570   2.103   3.353  0.5989  1.2574  0.0131
 5332TIP3    H237412   0.640   2.022   3.460 -0.1021 -0.9741 -1.1552
 5333TIP3   OH237413   5.421   3.184  13.219 -0.2632 -0.2468  0.4604
 5333TIP3    H137414   5.513   3.157  13.209  0.2632  1.9088 -1.3533
 5333TIP3    H237415   5.375   3.140  13.147  0.2222  1.8645 -1.2498
 5334TIP3   OH237416   0.833   6.321   0.271  0.0837 -0.0865 -0.9270
 5334TIP3    H137417   0.901   6.253   0.268 -0.1080 -0.5679  2.0814
 5334TIP3    H237418   0.848   6.366   0.354 -2.6266  0.4604 -0.6354
 5335TIP3   OH237419   2.164   5.541  16.607  0.3848  0.1426 -0.6305
 5335TIP3    H137420   2.200   5.461  16.569 -0.0795  0.7465 -2.4633
 5335TIP3    H237421   2.069   5.532  16.595  0.1406  0.0517  1.0940
 5336TIP3   OH237422   2.067   1.465  16.679 -0.7197  0.0645 -0.2920
 5336TIP3    H137423   2.020   1.389  16.644 -0.4689  0.0903 -0.6892
 5336TIP3    H237424   2.132   1.428  16.739 -0.5562 -0.0410 -0.5322
 5337TIP3   OH237425   5.564   2.600   3.507 -0.4769 -0.3692 -0.1503
 5337TIP3    H137426   5.482   2.566   3.541 -0.1038 -0.5949  0.5645
 5337TIP3    H237427   5.572   2.687   3.547  0.1331 -0.7744  0.6468
 5338TIP3   OH237428   4.319   3.401   2.891  0.0323 -0.1783  0.1315
 5338TIP3    H137429   4.400   3.438   2.927 -0.5497  0.1768  1.1094
 5338TIP3    H237430   4.297   3.458   2.818  0.3504  0.0714  0.2269
 5339TIP3   OH237431   4.768   0.927   2.533 -0.0400 -0.4830 -0.3512
 5339TIP3    H137432   4.704   0.907   2.602 -0.9530  0.6114 -0.8404
 5339TIP3    H237433   4.834   0.858   2.541 -1.2236 -1.5937  0.2441
 5340TIP3   OH237434   1.559   1.320   2.486 -0.4353  0.6051 -0.1795
 5340TIP3    H137435   1.570   1.299   2.393  0.4917  0.2621 -0.0052
 5340TIP3    H237436   1.595   1.244   2.532  0.9213  1.5897  0.4535
 5341TIP3   OH237437   4.552   3.419  15.969  0.3411 -0.4091 -0.1320
 5341TIP3    H137438   4.541   3.514  15.960 -0.4400 -0.4844 -0.0384
 5341TIP3    H237439   4.511   3.398  16.053 -0.4446 -0.9767 -0.6465
 5342TIP3   OH237440   0.858   5.656   0.345  0.3228 -0.1155  0.1036
 5342TIP3    H137441   0.888   5.746   0.336  1.0923 -0.4437 -0.7935
 5342TIP3    H237442   0.811   5.654   0.429  0.7395  0.9898  0.3720
 5343TIP3   OH237443   4.865   0.933   6.071 -0.3548 -0.4291  0.0663
 5343TIP3    H137444   4.819   0.985   6.004  2.2824  1.1976 -0.6310
 5343TIP3    H237445   4.874   0.993   6.145 -0.1265 -1.0132  0.5131
 5344TIP3   OH237446   5.592   5.241  15.983 -0.6302  0.6478  0.4248
 5344TIP3    H137447   5.505   5.277  15.966 -1.2178 -0.7571  0.3982
 5344TIP3    H237448   5.621   5.285  16.063 -1.4316  0.9982  0.5295
 5345TIP3   OH237449   2.784   1.504  12.697 -0.3746 -0.3741  0.2474
 5345TIP3    H137450   2.708   1.548  12.734  1.0579  0.0934  2.8614
 5345TIP3    H237451   2.770   1.411  12.718 -1.0043 -0.5348 -0.8140
 5346TIP3   OH237452   1.106   5.635  16.024  0.2280  0.3125 -0.5775
 5346TIP3    H137453   1.118   5.541  16.039  0.0727  0.3507 -0.1911
 5346TIP3    H237454   1.022   5.655  16.066 -0.6729  0.2663 -2.2602
 5347TIP3   OH237455   2.546   3.988  15.938 -0.0527 -0.1952  0.4843
 5347TIP3    H137456   2.625   4.039  15.921 -0.1933  0.7354  2.3119
 5347TIP3    H237457   2.474   4.046  15.913 -0.1809 -0.3717  0.4422
 5348TIP3   OH237458   2.528   1.301   1.621  0.1649  0.6839  0.5289
 5348TIP3    H137459   2.582   1.379   1.609 -1.1896  1.5859  0.1368
 5348TIP3    H237460   2.474   1.296   1.542  1.5504 -1.7694 -0.3831
 5349TIP3   OH237461   6.653   1.692  13.373  0.2688  0.1540 -0.2128
 5349TIP3    H137462   6.698   1.620  13.329 -0.4977  0.2918 -1.2598
 5349TIP3    H237463   6.634   1.658  13.461 -1.1802 -1.3954 -1.0764
 5350TIP3   OH237464   5.017   3.598   5.788  0.1229  0.3494 -0.7429
 5350TIP3    H137465   5.068   3.522   5.760  1.8405  1.8429 -1.8971
 5350TIP3    H237466   4.944   3.561   5.837  1.9209 -1.9702  0.4162
 5351TIP3   OH237467   3.704   0.189  13.586  0.1586  0.2067 -0.7321
 5351TIP3    H137468   3.714   0.270  13.636 -0.1389  0.1780 -0.6258
 5351TIP3    H237469   3.794   0.156  13.576  0.2229  0.2245 -0.2406
 5352TIP3   OH237470   0.868   2.130   2.585  0.4496 -0.2789  0.6505
 5352TIP3    H137471   0.812   2.198   2.622 -0.5166 -1.2564  1.0526
 5352TIP3    H237472   0.958   2.159   2.603  0.1041  1.4405 -0.2213
 5353TIP3   OH237473   4.052   6.519   4.750  0.6413  0.2539  0.6687
 5353TIP3    H137474   4.013   6.594   4.795 -1.1241 -0.3931  0.3326
 5353TIP3    H237475   4.030   6.532   4.658 -1.7660 -1.7386  0.8420
 5354TIP3   OH237476   3.823   3.795  16.326 -0.6952  0.6267 -0.1684
 5354TIP3    H137477   3.771   3.843  16.261  1.0535 -0.1002 -2.2241
 5354TIP3    H237478   3.758   3.744  16.375 -2.2368  2.4312 -0.2371
 5355TIP3   OH237479   5.161   2.327   1.274  0.5329 -0.3825 -0.0162
 5355TIP3    H137480   5.104   2.401   1.252 -1.7470 -1.4677  1.7862
 5355TIP3    H237481   5.126   2.253   1.225  0.9727 -0.8803  0.3993
 5356TIP3   OH237482   2.223   5.322  11.858  0.4635  0.4641  0.3312
 5356TIP3    H137483   2.207   5.405  11.813  0.4507  0.7002  0.7673
 5356TIP3    H237484   2.237   5.259  11.788 -0.3477  0.6682 -0.0269
 5357TIP3   OH237485   5.659   0.750   4.391 -0.0255  0.5062  0.2911
 5357TIP3    H137486   5.594   0.820   4.387  0.2192  0.7454  0.5067
 5357TIP3    H237487   5.646   0.710   4.477 -0.7889 -0.3206 -0.1860
 5358TIP3   OH237488   1.482   4.952   3.982 -0.7323  0.4844  0.7137
 5358TIP3    H137489   1.397   4.967   4.024 -0.5998 -0.1140  1.1990
 5358TIP3    H237490   1.535   4.909   4.049  0.1123  1.2778  0.5662
 5359TIP3   OH237491   0.074   3.286  13.774  0.0970  0.0596 -0.3240
 5359TIP3    H137492  -0.012   3.244  13.774 -0.0696  0.1019  2.8765
 5359TIP3    H237493   0.136   3.214  13.790  0.2690  0.3922  0.6195
 5360TIP3   OH237494   6.420   0.082  16.727 -0.5279  0.2059 -0.0777
 5360TIP3    H137495   6.450   0.008  16.675 -0.0332 -0.6315  1.3507
 5360TIP3    H237496   6.499   0.117  16.768 -0.9623  0.5388  0.5026
 5361TIP3   OH237497   4.490   4.483  14.461  0.0212 -0.3414 -0.4376
 5361TIP3    H137498   4.406   4.526  14.444 -0.2680 -0.9654 -0.5914
 5361TIP3    H237499   4.468   4.395  14.488  0.4923  0.3470  2.5559
 5362TIP3   OH237500   5.713   0.623   1.430  1.1220 -0.1088  0.6446
 5362TIP3    H137501   5.674   0.583   1.508  0.6099  0.4861  0.7062
 5362TIP3    H237502   5.638   0.645   1.374  1.3206  1.3107  0.8845
 5363TIP3   OH237503   5.359   5.279  15.324 -0.1385 -0.2947 -0.1970
 5363TIP3    H137504   5.311   5.266  15.242  1.6093 -1.3122 -1.1035
 5363TIP3    H237505   5.351   5.196  15.370 -1.7343  0.5012  1.0717
 5364TIP3   OH237506   0.991   5.370  16.764 -0.1680  0.5536 -0.4208
 5364TIP3    H137507   1.039   5.431  16.820 -0.5276 -0.6377  1.2790
 5364TIP3    H237508   0.924   5.423  16.722 -0.3274  1.3649  0.8307
 5365TIP3   OH237509   6.672   3.616   1.532 -0.3802  0.8926 -0.2577
 5365TIP3    H137510   6.710   3.558   1.598  0.2958  0.1508 -1.2689
 5365TIP3    H237511   6.646   3.694   1.581  0.3519  0.4699  0.8403
 5366TIP3   OH237512   5.662   3.603  14.452  0.6090 -0.1353 -0.4775
 5366TIP3    H137513   5.688   3.556  14.372 -0.6434 -0.9916 -0.4111
 5366TIP3    H237514   5.625   3.685  14.420 -0.0053 -0.5298 -0.7906
 5367TIP3   OH237515   5.813   5.903  13.388 -0.0773 -0.6004 -0.2309
 5367TIP3    H137516   5.753   5.845  13.434 -0.3276  1.3082  1.9966
 5367TIP3    H237517   5.772   5.989  13.393  1.6004  0.2928 -0.9662
 5368TIP3   OH237518   1.985   2.035  14.683 -0.0271 -0.0171 -0.2986
 5368TIP3    H137519   1.999   2.034  14.588  0.4203 -1.7323 -0.2495
 5368TIP3    H237520   1.964   1.944  14.705 -0.1588  0.3615  1.2472
 5369TIP3   OH237521   0.833   2.197  12.575  0.4646 -0.2667  0.6211
 5369TIP3    H137522   0.878   2.195  12.490 -2.3610  0.1202 -1.0354
 5369TIP3    H237523   0.849   2.284  12.610  0.8431 -0.0787 -0.0126
 5370TIP3   OH237524   3.632   0.075   4.045  0.0543  0.2854  0.6590
 5370TIP3    H137525   3.592   0.140   4.104 -0.6640  0.3192  0.1530
 5370TIP3    H237526   3.579  -0.004   4.058  0.7252 -0.1070  1.0327
 5371TIP3   OH237527   6.060   3.211   5.581 -0.2547 -0.3555 -0.0841
 5371TIP3    H137528   6.002   3.249   5.514 -1.3694  0.7523  1.4382
 5371TIP3    H237529   6.145   3.250   5.564 -0.7745  0.7683 -0.2085
 5372TIP3   OH237530   3.538   4.871   1.146  0.7153  0.1966  0.1115
 5372TIP3    H137531   3.479   4.850   1.218  0.0066  0.4262 -0.3916
 5372TIP3    H237532   3.485   4.925   1.087  1.4757  0.5262 -0.2753
 5373TIP3   OH237533   0.911   6.667   2.390 -0.1507 -0.1299 -0.4184
 5373TIP3    H137534   0.823   6.706   2.388  0.5184  1.4759 -2.6590
 5373TIP3    H237535   0.903   6.587   2.339 -0.4922 -0.4569  0.1385
 5374TIP3   OH237536   2.260   2.640  14.772 -0.0919  0.4724 -0.3389
 5374TIP3    H137537   2.265   2.723  14.820 -0.6940  0.4447 -0.2203
 5374TIP3    H237538   2.217   2.580  14.833  0.7384 -0.0586 -0.2542
 5375TIP3   OH237539   5.452   6.223  16.150 -0.1449 -0.0666  0.4961
 5375TIP3    H137540   5.388   6.284  16.187 -1.3665 -1.0517  0.0654
 5375TIP3    H237541   5.410   6.188  16.072  1.3395  0.0098 -0.3837
 5376TIP3   OH237542   0.114   5.698   5.678  0.2247 -0.1143 -0.3072
 5376TIP3    H137543   0.148   5.680   5.590  0.3449  0.4290 -0.3727
 5376TIP3    H237544   0.186   5.741   5.724  0.5527 -1.3729  0.4223
 5377TIP3   OH237545   6.097   1.407  15.826 -0.0396 -0.6306 -0.4661
 5377TIP3    H137546   6.062   1.439  15.909 -0.9983 -0.9852 -0.7164
 5377TIP3    H237547   6.097   1.484  15.769  0.9124 -0.3157 -0.0599
 5378TIP3   OH237548   5.493   4.999   5.401  0.5386 -0.7405  0.2550
 5378TIP3    H137549   5.564   4.937   5.385  2.9210  1.7093  0.5387
 5378TIP3    H237550   5.506   5.027   5.492  1.0271  1.8185 -0.5368
 5379TIP3   OH237551   2.831   0.395  12.138  0.1072  0.9191  0.6959
 5379TIP3    H137552   2.818   0.315  12.087  0.0616  1.1757  0.3000
 5379TIP3    H237553   2.809   0.466  12.077 -0.4512  1.2131  1.2341
 5380TIP3   OH237554   1.381   6.053   4.095 -0.4512 -0.2358 -0.4225
 5380TIP3    H137555   1.413   5.965   4.076  0.7385 -0.5778  2.5736
 5380TIP3    H237556   1.449   6.111   4.062  0.2917 -0.6452  0.3502
 5381TIP3   OH237557   4.564   1.536   0.822  0.2730  0.2794  0.0828
 5381TIP3    H137558   4.485   1.587   0.806 -0.1840 -0.0415  1.2347
 5381TIP3    H237559   4.600   1.571   0.903  0.8754 -0.1174 -0.0040
 5382TIP3   OH237560   4.087   2.129  10.948 -0.4312 -0.5267 -0.4309
 5382TIP3    H137561   4.062   2.221  10.940 -0.8495 -0.5605  0.4364
 5382TIP3    H237562   4.045   2.087  10.873 -0.9743 -0.1619 -0.3356
 5383TIP3   OH237563   4.987   5.746  11.281  0.2424 -0.4338  0.4083
 5383TIP3    H137564   5.073   5.756  11.241 -1.6503  1.4538 -3.7598
 5383TIP3    H237565   4.975   5.826  11.332  0.0765  0.5436 -1.0987
 5384TIP3   OH237566   0.569   1.933   4.812  0.3134  0.0406 -0.6604
 5384TIP3    H137567   0.620   2.002   4.852  1.5316 -0.3362 -1.4998
 5384TIP3    H237568   0.485   1.974   4.790  0.3403  0.7427  0.4682
 5385TIP3   OH237569   6.270   5.491  16.047  0.6635  0.5095  0.1781
 5385TIP3    H137570   6.354   5.450  16.024  1.1242  0.6855  1.4821
 5385TIP3    H237571   6.251   5.549  15.972  0.6260 -1.0931 -1.0983
 5386TIP3   OH237572   2.029   2.047  16.203  0.0667 -0.0392 -0.3258
 5386TIP3    H137573   2.094   1.996  16.155  0.6438  0.0680  0.3264
 5386TIP3    H237574   2.064   2.053  16.292 -2.0761 -2.1857  0.7586
 5387TIP3   OH237575   5.997   3.256   4.666  0.0588 -0.0186  0.2261
 5387TIP3    H137576   6.085   3.220   4.676  0.9009  1.4463 -1.3532
 5387TIP3    H237577   6.003   3.312   4.588 -1.8857  1.2802  0.9477
 5388TIP3   OH237578   0.238   4.163   4.599  0.4967 -0.0065  0.0572
 5388TIP3    H137579   0.326   4.152   4.562 -0.5051 -1.2432 -2.2188
 5388TIP3    H237580   0.200   4.075   4.596 -0.8441  0.5068  0.9646
 5389TIP3   OH237581   2.926   6.742   1.319  0.4257 -0.2740  1.3338
 5389TIP3    H137582   2.957   6.652   1.304 -0.0763 -0.3528  0.7020
 5389TIP3    H237583   2.851   6.732   1.377 -3.0226 -0.8908 -2.7246
 5390TIP3   OH237584   5.972   4.540  11.953  0.0157 -0.2579 -0.0549
 5390TIP3    H137585   6.003   4.482  11.884  0.6228  0.2775 -0.2348
 5390TIP3    H237586   5.951   4.481  12.026  0.8415 -0.6882 -0.1566
 5391TIP3   OH237587   0.005   3.439   1.330  0.4199 -0.0536  0.2869
 5391TIP3    H137588  -0.055   3.428   1.256 -0.0711  1.6881  0.3642
 5391TIP3    H237589  -0.051   3.471   1.401  1.3223  0.9744  0.5592
 5392TIP3   OH237590   6.443   5.550   1.937 -0.0510  0.4669  0.2593
 5392TIP3    H137591   6.378   5.616   1.961 -0.6860 -0.7726  2.2011
 5392TIP3    H237592   6.393   5.468   1.934  1.2172 -0.3589  0.7786
 5393TIP3   OH237593   1.418   2.049   3.301  0.3340  0.0448 -1.2727
 5393TIP3    H137594   1.322   2.041   3.304  0.2963  0.7752  1.4356
 5393TIP3    H237595   1.450   1.964   3.330  0.4278  0.5211  0.0836
 5394TIP3   OH237596   5.470   5.901  14.618 -0.0573  0.4404 -0.2783
 5394TIP3    H137597   5.478   5.987  14.578 -1.3692  0.6511 -0.1017
 5394TIP3    H237598   5.561   5.869  14.624  0.3662  1.4683 -1.0497
 5395TIP3   OH237599   3.207   2.585  14.610  0.0864  0.6561 -0.4099
 5395TIP3    H137600   3.298   2.572  14.636  0.0224 -0.0187 -0.5119
 5395TIP3    H237601   3.194   2.680  14.615  0.2172  0.5972  1.5444
 5396TIP3   OH237602   0.333   5.829   4.789  0.0807 -0.4830 -0.1310
 5396TIP3    H137603   0.400   5.859   4.849  1.2080 -1.3130 -0.9250
 5396TIP3    H237604   0.284   5.908   4.766 -1.2202 -0.3097  2.7749
 5397TIP3   OH237605   3.399   1.099   1.277 -0.2629  0.0496  0.3735
 5397TIP3    H137606   3.448   1.111   1.196  0.1348 -0.4846  0.5234
 5397TIP3    H237607   3.312   1.070   1.248  0.1473 -1.0263  0.1396
 5398TIP3   OH237608   2.343   6.314   0.609 -0.5972 -0.5946  0.1073
 5398TIP3    H137609   2.308   6.357   0.532  1.1633 -0.4164 -0.6392
 5398TIP3    H237610   2.339   6.220   0.589  1.0769 -0.5118 -0.8178
 5399TIP3   OH237611   3.059   5.213  14.942 -0.4042  0.3693  0.0208
 5399TIP3    H137612   2.995   5.264  14.893 -0.8026 -0.9047 -0.8550
 5399TIP3    H237613   3.091   5.148  14.878  0.7164  0.0785  0.8397
 5400TIP3   OH237614   2.063   2.760  15.182  0.3397 -0.7635  0.1504
 5400TIP3    H137615   2.016   2.741  15.101 -0.6457 -1.6010  0.8849
 5400TIP3    H237616   2.100   2.847  15.169 -1.2496 -0.1604 -0.5611
 5401TIP3   OH237617   1.751   5.891   4.226  0.1952  0.5728 -0.0406
 5401TIP3    H137618   1.694   5.924   4.156 -0.0118  1.6837  0.6444
 5401TIP3    H237619   1.787   5.810   4.190 -0.6534  0.6271 -1.0675
 5402TIP3   OH237620   2.799   3.423  14.389  0.3633  0.5973 -0.2752
 5402TIP3    H137621   2.874   3.469  14.351 -1.5113  2.3434 -2.1415
 5402TIP3    H237622   2.759   3.486  14.448  0.4944 -0.4364  0.9671
 5403TIP3   OH237623   2.479   3.723   5.407  0.7791  0.2407  0.8023
 5403TIP3    H137624   2.524   3.703   5.489 -1.4705  1.5935  2.4807
 5403TIP3    H237625   2.507   3.812   5.386 -1.0908  1.1725  1.9699
 5404TIP3   OH237626   4.505   3.617  12.080 -0.0371 -0.3258 -0.2856
 5404TIP3    H137627   4.584   3.585  12.036  0.2718  0.1390 -0.0839
 5404TIP3    H237628   4.474   3.688  12.023 -1.2638 -1.5717 -1.2387
 5405TIP3   OH237629   3.364   2.356   3.182  0.1173  0.7131  0.2987
 5405TIP3    H137630   3.403   2.414   3.117  0.2192 -1.0840 -1.3103
 5405TIP3    H237631   3.421   2.279   3.184  0.2228  0.7575  2.6783
 5406TIP3   OH237632   5.532   1.433   5.484 -0.4969 -0.8540  0.3153
 5406TIP3    H137633   5.453   1.460   5.438 -1.1443 -0.9315  1.3483
 5406TIP3    H237634   5.594   1.411   5.415 -1.0404  0.1590 -0.5168
 5407TIP3   OH237635   1.038   0.131   1.532 -0.0797 -0.4760  0.6376
 5407TIP3    H137636   0.988   0.187   1.472  2.7033  0.9818 -0.5495
 5407TIP3    H237637   1.100   0.191   1.574  1.7313 -2.3462  0.8015
 5408TIP3   OH237638   5.201   6.191   0.125 -0.2664  0.6149 -0.3201
 5408TIP3    H137639   5.225   6.103   0.153  0.7407  1.4184  1.5913
 5408TIP3    H237640   5.108   6.186   0.106 -0.2222 -0.8601 -0.2521
 5409TIP3   OH237641   6.075   1.787  14.082  0.2175 -0.6590  0.8262
 5409TIP3    H137642   6.030   1.872  14.087 -0.4050 -1.0553  3.7357
 5409TIP3    H237643   6.100   1.768  14.172  1.2547 -3.1216  0.0968
 5410TIP3   OH237644   5.402   0.907   2.070  0.1944  0.1646 -0.1727
 5410TIP3    H137645   5.425   0.878   1.981 -0.7710  0.7287 -0.6169
 5410TIP3    H237646   5.460   0.981   2.086  1.0312 -0.5208  0.0502
 5411TIP3   OH237647   3.651   2.008   1.971  0.1984  0.1103 -0.3968
 5411TIP3    H137648   3.652   1.979   1.879  1.8643  1.0875 -0.7292
 5411TIP3    H237649   3.575   1.964   2.009 -0.0875 -0.9211 -2.0516
 5412TIP3   OH237650   6.221   2.301  11.148 -0.2415 -0.1048 -0.3376
 5412TIP3    H137651   6.145   2.279  11.094  1.6113 -5.0719 -1.4885
 5412TIP3    H237652   6.216   2.239  11.221  0.5567  2.3588  1.9365
 5413TIP3   OH237653   4.953   6.114  16.492 -0.0399 -0.4768  0.1736
 5413TIP3    H137654   4.936   6.201  16.527  2.2366  0.3511 -0.5678
 5413TIP3    H237655   4.893   6.057  16.539 -2.5051  1.6245 -0.2095
 5414TIP3   OH237656   1.187   6.661   4.569  0.0544 -0.3581  0.3786
 5414TIP3    H137657   1.248   6.642   4.640  1.5523 -0.8137 -0.9543
 5414TIP3    H237658   1.180   6.578   4.522 -1.7957 -0.3725  0.6017
 5415TIP3   OH237659   5.294   4.122   4.930  0.0515  0.2002  0.5769
 5415TIP3    H137660   5.317   4.165   4.848  1.5730  0.7187  1.2424
 5415TIP3    H237661   5.242   4.046   4.903 -0.2466  0.8476 -0.7886
 5416TIP3   OH237662   5.016   3.664   1.036  0.1905 -0.3654  0.1430
 5416TIP3    H137663   5.095   3.691   0.990  0.2485  0.6043  0.7965
 5416TIP3    H237664   4.950   3.656   0.967  0.7257 -0.7156 -0.3420
 5417TIP3   OH237665   4.593   6.202  16.565 -0.2095  0.5022 -0.1446
 5417TIP3    H137666   4.662   6.224  16.503  0.1406  0.7288  0.3197
 5417TIP3    H237667   4.577   6.109  16.550  0.0423  0.4968 -0.4030
 5418TIP3   OH237668   3.984   2.632   0.929 -0.1575  0.6384 -0.5872
 5418TIP3    H137669   4.010   2.718   0.961  0.6333  0.4170 -0.6173
 5418TIP3    H237670   4.054   2.606   0.870 -0.2333 -0.1598 -0.3377
 5419TIP3   OH237671   2.371   6.613  17.300  0.2185  0.8810 -0.2199
 5419TIP3    H137672   2.345   6.547  17.364  0.5573  1.0049  0.0464
 5419TIP3    H237673   2.460   6.588  17.274  0.2214  1.0395 -0.3668
 5420TIP3   OH237674   4.160   5.037   0.882  0.1480 -0.2487 -0.4351
 5420TIP3    H137675   4.212   5.023   0.961 -0.9362  0.0625  0.3561
 5420TIP3    H237676   4.141   5.130   0.881 -1.4566 -0.5453 -0.0109
 5421TIP3   OH237677   4.215   3.810  13.436 -0.2923 -0.0305  0.6041
 5421TIP3    H137678   4.223   3.905  13.425 -2.3159 -0.1518 -3.3416
 5421TIP3    H237679   4.148   3.800  13.503  1.5751  1.1429  2.8335
 5422TIP3   OH237680   0.921   4.028  11.410 -0.2915  0.1381  0.5044
 5422TIP3    H137681   0.983   4.075  11.466 -1.3594  1.1781  0.8440
 5422TIP3    H237682   0.847   4.088  11.400  0.1264  0.2590 -2.5947
 5423TIP3   OH237683   5.259   3.428  13.204  0.2158 -0.7766  0.2585
 5423TIP3    H137684   5.233   3.382  13.124  0.4482 -0.1156 -0.2064
 5423TIP3    H237685   5.253   3.362  13.273 -0.1194 -1.3184 -0.2824
 5424TIP3   OH237686   4.934   5.408   5.576  0.2993 -0.0880  0.6347
 5424TIP3    H137687   4.859   5.349   5.583  0.7025 -0.5791  0.9478
 5424TIP3    H237688   4.966   5.395   5.487  0.0677  0.0524  0.5316
 5425TIP3   OH237689   4.891   6.047  14.938  0.3083  0.2773 -0.1097
 5425TIP3    H137690   4.966   5.994  14.967  0.4873  1.0408  0.8580
 5425TIP3    H237691   4.924   6.136  14.935 -0.9599  0.8690  1.8878
 5426TIP3   OH237692   4.833   2.402  17.289 -0.2446  0.3952  0.4392
 5426TIP3    H137693   4.852   2.309  17.290 -1.2277  0.1846  1.1742
 5426TIP3    H237694   4.908   2.442  17.244  1.0117 -0.5572  1.6198
 5427TIP3   OH237695   4.657   4.978  11.610  0.0812 -0.5670 -0.4003
 5427TIP3    H137696   4.727   4.995  11.674 -0.8219  0.3503  0.3751
 5427TIP3    H237697   4.703   4.971  11.526  1.2866 -1.6978  0.3093
 5428TIP3   OH237698   4.687   3.482  14.528 -0.0175 -0.2589  0.1070
 5428TIP3    H137699   4.749   3.490  14.600 -0.2805 -2.4725  0.6395
 5428TIP3    H237700   4.725   3.417  14.470  0.1710  1.4648 -1.8100
 5429TIP3   OH237701   3.250   0.560  11.241  0.4620  0.0039 -0.8409
 5429TIP3    H137702   3.229   0.547  11.148  0.1093 -0.8081 -0.6511
 5429TIP3    H237703   3.295   0.479  11.267  0.2345  0.0773 -0.2080
 5430TIP3   OH237704   3.628   6.208   2.253 -0.0130 -0.5697 -0.2928
 5430TIP3    H137705   3.632   6.243   2.164  2.0254  1.0735  0.3551
 5430TIP3    H237706   3.536   6.215   2.277 -0.3832  0.2249 -1.8013
 5431TIP3   OH237707   2.861   3.112  13.094 -0.7748  0.6690 -0.2314
 5431TIP3    H137708   2.852   3.137  13.002 -0.0415  2.2389  0.0833
 5431TIP3    H237709   2.785   3.150  13.137  0.5255  2.9301  0.3095
 5432TIP3   OH237710   3.349   1.571   1.423  0.0246  0.4579  0.0166
 5432TIP3    H137711   3.358   1.666   1.408  1.3521 -0.0846 -3.5014
 5432TIP3    H237712   3.398   1.556   1.504  0.2267  2.6834  0.3973
 5433TIP3   OH237713   6.677   1.569  16.756 -0.0454 -0.3542 -0.2404
 5433TIP3    H137714   6.635   1.642  16.802  2.0271  0.5352  0.3523
 5433TIP3    H237715   6.770   1.581  16.773  0.4800 -2.1790 -1.5903
 5434TIP3   OH237716   1.469   2.459   2.104 -0.4497 -0.0241  0.4620
 5434TIP3    H137717   1.543   2.438   2.161 -0.9766 -0.9906  0.8168
 5434TIP3    H237718   1.419   2.525   2.152  0.7556  1.4965 -0.2761
 5435TIP3   OH237719   6.465   1.488  14.756 -0.2191 -0.2378 -0.0333
 5435TIP3    H137720   6.532   1.549  14.787 -0.6572 -0.0902  0.6514
 5435TIP3    H237721   6.498   1.401  14.780  0.1286 -0.2359 -0.4825
 5436TIP3   OH237722   3.180   0.655  13.968 -0.2946 -0.1010 -0.5409
 5436TIP3    H137723   3.133   0.714  14.027 -1.0752  0.7112 -1.9323
 5436TIP3    H237724   3.117   0.634  13.900  0.3311 -1.6769 -0.6677
 5437TIP3   OH237725   5.370   3.729   5.567 -0.3748  0.6256  0.4771
 5437TIP3    H137726   5.408   3.767   5.646  3.2505 -0.1313 -0.7401
 5437TIP3    H237727   5.349   3.639   5.592 -1.6637  1.0906  1.1960
 5438TIP3   OH237728   6.358   4.087  12.845  0.5194  0.2124  0.3630
 5438TIP3    H137729   6.424   4.156  12.844 -0.0869  0.8549 -1.5895
 5438TIP3    H237730   6.404   4.010  12.878  1.6308  1.1603  1.1072
 5439TIP3   OH237731   3.464   2.632  12.280  0.0560  0.3297  0.1931
 5439TIP3    H137732   3.443   2.725  12.266 -0.3204  0.0730 -1.0934
 5439TIP3    H237733   3.560   2.630  12.285  0.1353  0.6674 -0.8926
 5440TIP3   OH237734   6.391   4.693   3.972 -0.2590  0.3398  0.6320
 5440TIP3    H137735   6.365   4.742   3.894 -0.3322  1.3531  1.2766
 5440TIP3    H237736   6.422   4.609   3.938 -0.9428  0.4963 -0.4295
 5441TIP3   OH237737   1.199   1.739  16.469  0.1039 -0.0840  0.1991
 5441TIP3    H137738   1.107   1.758  16.487  0.2582  1.9517 -0.7406
 5441TIP3    H237739   1.243   1.823  16.483  1.8283 -1.0291  0.6568
 5442TIP3   OH237740   5.040   2.323  15.593  0.5047  0.6564  0.3695
 5442TIP3    H137741   5.040   2.242  15.643 -0.6040 -0.1470 -0.8643
 5442TIP3    H237742   5.095   2.305  15.517  1.9211  1.7594  1.0970
 5443TIP3   OH237743   2.723   4.624   0.666 -0.4889 -0.3637  0.0413
 5443TIP3    H137744   2.719   4.542   0.714  0.4767  0.2156  1.1600
 5443TIP3    H237745   2.798   4.671   0.704 -0.7021  0.8137 -0.9179
 5444TIP3   OH237746   4.809   3.696  16.001  0.2168 -0.2980 -0.1379
 5444TIP3    H137747   4.792   3.783  15.963 -0.0813 -0.7495 -1.0573
 5444TIP3    H237748   4.743   3.639  15.961 -0.1342 -0.7854  1.1003
 5445TIP3   OH237749   0.204   0.725   1.489 -0.0457  0.5694  0.5843
 5445TIP3    H137750   0.131   0.768   1.534 -0.7330  2.1624 -1.8711
 5445TIP3    H237751   0.269   0.794   1.477  0.5881 -0.0951  0.1100
 5446TIP3   OH237752   3.101   2.121   5.470  0.7715  0.5064 -0.2452
 5446TIP3    H137753   3.106   2.164   5.556  1.0405  1.3673 -0.6851
 5446TIP3    H237754   3.048   2.043   5.486  0.3752  0.9338  0.6018
 5447TIP3   OH237755   2.676   4.953  12.852 -0.3413 -0.2166 -0.3533
 5447TIP3    H137756   2.729   4.941  12.773  1.1494 -0.7785  0.7053
 5447TIP3    H237757   2.593   4.987  12.819 -0.0342 -1.1506 -2.2391
 5448TIP3   OH237758   4.768   1.172  15.760  0.3283 -0.2216 -0.2120
 5448TIP3    H137759   4.861   1.162  15.743  0.8192 -0.3277  2.1982
 5448TIP3    H237760   4.727   1.096  15.718  1.3664 -0.4444 -0.8400
 5449TIP3   OH237761   1.300   1.374   3.255  0.0056 -0.2036 -0.0573
 5449TIP3    H137762   1.210   1.390   3.226 -0.6902 -0.6050  1.7094
 5449TIP3    H237763   1.315   1.439   3.324  1.4553  0.5092 -1.0104
 5450TIP3   OH237764   1.972   5.256  14.649  0.2258  0.1879 -0.0758
 5450TIP3    H137765   1.972   5.172  14.695 -3.0002  0.2857  0.3401
 5450TIP3    H237766   1.972   5.233  14.556  3.1146 -0.0838 -0.0973
 5451TIP3   OH237767   4.112   3.845   3.953  0.2561  0.1416 -0.0875
 5451TIP3    H137768   4.105   3.766   4.007 -2.2264  0.7462  0.5900
 5451TIP3    H237769   4.087   3.917   4.012  0.1385  1.1645 -1.3385
 5452TIP3   OH237770   4.820   0.914  12.587  0.1010  0.2005  0.1171
 5452TIP3    H137771   4.826   0.976  12.514  1.5785 -1.3435 -1.1681
 5452TIP3    H237772   4.732   0.926  12.622 -0.3254  1.6421 -1.3284
 5453TIP3   OH237773   3.465   6.721  12.040  0.3507 -0.3695  0.4727
 5453TIP3    H137774   3.527   6.710  11.968  0.2666  0.4822  0.2563
 5453TIP3    H237775   3.517   6.763  12.109  0.1301 -0.0592  0.4528
 5454TIP3   OH237776   1.210   2.552  11.475 -0.0875 -0.0319  0.1418
 5454TIP3    H137777   1.300   2.569  11.501 -0.1021 -0.3646  0.4157
 5454TIP3    H237778   1.216   2.514  11.388  0.0139  0.2881  0.0089
 5455TIP3   OH237779   5.605   1.489   0.576 -0.0804 -0.5525  0.0847
 5455TIP3    H137780   5.650   1.568   0.605  0.8611 -0.9146 -0.3359
 5455TIP3    H237781   5.607   1.430   0.651  1.8627 -1.2785 -0.4494
 5456TIP3   OH237782   3.999   1.456  15.534 -0.3975  0.3736 -0.6507
 5456TIP3    H137783   4.011   1.473  15.628 -1.4651 -2.2980  0.0726
 5456TIP3    H237784   3.959   1.536  15.500  2.3705  2.4513  0.5546
 5457TIP3   OH237785   4.619   4.721  13.899  0.2961 -0.2744 -0.2621
 5457TIP3    H137786   4.540   4.687  13.942  2.1325 -1.9057  2.0887
 5457TIP3    H237787   4.618   4.814  13.918  0.6632 -0.8181  2.9715
 5458TIP3   OH237788   4.797   2.476  15.390 -0.2565  0.6746 -0.7379
 5458TIP3    H137789   4.787   2.473  15.485 -0.4465  1.2319 -0.7356
 5458TIP3    H237790   4.774   2.566  15.366 -0.6232  0.4285 -1.3553
 5459TIP3   OH237791   3.422   4.917   2.003  0.4579  0.2046  0.1170
 5459TIP3    H137792   3.373   4.939   1.924 -1.0049 -0.0446  0.9157
 5459TIP3    H237793   3.371   4.847   2.044  1.7096 -0.3348  0.7903
 5460TIP3   OH237794   2.523   4.130  16.399  0.0227  0.1262  0.1056
 5460TIP3    H137795   2.606   4.141  16.446  0.5861 -2.9755  0.0112
 5460TIP3    H237796   2.546   4.145  16.307  0.1907  0.4342  0.1928
 5461TIP3   OH237797   6.300   6.701  14.658  0.1863 -0.6122  0.5204
 5461TIP3    H137798   6.216   6.675  14.620  0.7660 -0.6164 -0.8212
 5461TIP3    H237799   6.290   6.795  14.675  0.2148 -0.4130 -0.5093
 5462TIP3   OH237800   6.032   1.348   2.862 -0.8154  0.4058 -0.2342
 5462TIP3    H137801   6.117   1.390   2.873 -0.2883 -1.1958  2.6407
 5462TIP3    H237802   6.018   1.347   2.767  2.5119  0.4718 -0.8434
 5463TIP3   OH237803   5.673   0.786  14.168 -0.5076 -0.5028 -0.2757
 5463TIP3    H137804   5.737   0.738  14.219 -0.6789 -0.1696  0.2715
 5463TIP3    H237805   5.720   0.815  14.090 -0.4634 -1.7148 -0.7043
 5464TIP3   OH237806   5.073   2.847   5.119 -0.1564  0.1978 -0.1030
 5464TIP3    H137807   5.154   2.802   5.096  0.2085  0.1202  1.2328
 5464TIP3    H237808   5.006   2.807   5.065  0.6506  0.0638 -1.0214
 5465TIP3   OH237809   3.616   0.756   3.877  0.1203  0.2277  0.3727
 5465TIP3    H137810   3.596   0.668   3.844 -0.1247  0.1255  0.7864
 5465TIP3    H237811   3.712   0.761   3.876  0.1070  0.5923 -1.2993
 5466TIP3   OH237812   6.569   0.528  15.445  0.2258 -0.0979 -1.1127
 5466TIP3    H137813   6.549   0.597  15.382  0.4381  1.1005  0.0909
 5466TIP3    H237814   6.570   0.448  15.393 -2.6286  0.4132 -2.1291
 5467TIP3   OH237815   2.334   1.995  14.477  0.6702  0.5294 -0.5358
 5467TIP3    H137816   2.368   1.906  14.483  1.6878  0.9256 -0.2873
 5467TIP3    H237817   2.248   1.985  14.436 -0.7260 -0.9077  2.4026
 5468TIP3   OH237818   3.269   3.418  13.500  0.5069 -0.3171  0.2008
 5468TIP3    H137819   3.218   3.350  13.544 -1.5143  2.0135  1.6930
 5468TIP3    H237820   3.222   3.434  13.418  0.4864 -0.1496  0.2444
 5469TIP3   OH237821   0.640   5.105  17.362  0.0823 -0.4303 -0.2816
 5469TIP3    H137822   0.699   5.145  17.299  0.1167  2.7924  1.5917
 5469TIP3    H237823   0.553   5.135  17.335  0.0187  0.2666  0.6507
 5470TIP3   OH237824   6.218   4.369   4.845  0.6347  0.2973  0.3029
 5470TIP3    H137825   6.198   4.462   4.861 -1.6461  0.0297 -0.6706
 5470TIP3    H237826   6.208   4.327   4.931  0.0857  0.6916  0.4330
 5471TIP3   OH237827   1.124   6.362  16.581  0.1018  0.0753  0.0264
 5471TIP3    H137828   1.156   6.439  16.628 -0.2116  0.7318 -0.8102
 5471TIP3    H237829   1.037   6.346  16.617  1.0562 -1.3364  1.8660
 5472TIP3   OH237830   1.800   4.344  13.493 -0.0377 -0.1717  0.0459
 5472TIP3    H137831   1.807   4.426  13.542 -2.1678 -0.1434  0.4286
 5472TIP3    H237832   1.881   4.298  13.511  0.2475  0.8895  1.6713
 5473TIP3   OH237833   3.055   2.468   2.839 -0.2113  0.5769 -1.0699
 5473TIP3    H137834   3.125   2.428   2.890  0.1858  0.4323 -1.7134
 5473TIP3    H237835   3.099   2.536   2.789 -0.0398 -1.0792 -3.3176
 5474TIP3   OH237836   5.398   0.442   2.292  0.0991 -0.6050  0.0880
 5474TIP3    H137837   5.484   0.407   2.272  0.1024  0.0940 -1.2326
 5474TIP3    H237838   5.342   0.365   2.302  1.1363 -1.1336  2.4916
 5475TIP3   OH237839   4.693   6.250  16.260  0.7926  0.3620  0.4235
 5475TIP3    H137840   4.744   6.253  16.179  2.4769 -0.7859  1.3682
 5475TIP3    H237841   4.658   6.161  16.264 -0.0245  0.6771  0.5415
 5476TIP3   OH237842   5.036   4.340  10.915  0.0196 -0.1242  0.1095
 5476TIP3    H137843   5.093   4.264  10.926  1.2973  0.6707 -0.8098
 5476TIP3    H237844   5.028   4.351  10.821 -1.5939 -0.1437  0.2133
 5477TIP3   OH237845   2.250   0.193   1.424 -0.4358 -0.0704  0.6091
 5477TIP3    H137846   2.184   0.244   1.470 -0.4200 -0.2899  0.8794
 5477TIP3    H237847   2.222   0.195   1.332 -0.1024  0.9255  0.5189
 5478TIP3   OH237848   5.996   5.409  14.251  0.5897  0.3289 -0.2857
 5478TIP3    H137849   6.088   5.391  14.233  0.2621  0.4868 -2.4505
 5478TIP3    H237850   5.984   5.500  14.222 -0.6422 -0.3126 -1.9419
 5479TIP3   OH237851   4.347   3.293  11.868 -0.5225  0.0580  0.1656
 5479TIP3    H137852   4.327   3.386  11.882 -0.1635  0.1379  0.1507
 5479TIP3    H237853   4.382   3.263  11.952 -0.5906 -0.0535  0.1547
 5480TIP3   OH237854   4.448   6.075   1.446  0.1542  0.4245 -0.3983
 5480TIP3    H137855   4.458   6.117   1.361 -0.4903  0.7732 -0.3028
 5480TIP3    H237856   4.353   6.068   1.459  0.2204 -1.4259 -0.5993
 5481TIP3   OH237857   3.379   4.482  12.602  0.4356  0.0161 -0.0315
 5481TIP3    H137858   3.447   4.440  12.656  2.4675  1.0403 -1.6821
 5481TIP3    H237859   3.413   4.478  12.513 -1.5828  0.8441 -0.8999
 5482TIP3   OH237860   0.926   3.380   5.211 -0.1183  0.3756  0.3892
 5482TIP3    H137861   0.959   3.413   5.294 -0.7697  0.1813  0.7320
 5482TIP3    H237862   0.960   3.290   5.206  0.8191  0.7426 -0.0734
 5483TIP3   OH237863   1.786   2.580  12.760 -0.3648 -0.2143 -0.0137
 5483TIP3    H137864   1.788   2.510  12.694 -0.3322 -1.0131  0.8092
 5483TIP3    H237865   1.810   2.659  12.712 -0.3422 -0.7800 -0.9589
 5484TIP3   OH237866   5.683   0.767   6.402  0.1431 -0.0793  0.3884
 5484TIP3    H137867   5.730   0.695   6.360 -1.6287 -0.7660 -0.5565
 5484TIP3    H237868   5.737   0.791   6.477  1.7884 -1.0179 -0.4545
 5485TIP3   OH237869   5.270   5.969  14.164  0.1954 -0.0816 -0.5660
 5485TIP3    H137870   5.249   5.960  14.071 -0.5637 -1.4671 -0.2749
 5485TIP3    H237871   5.312   6.055  14.171  1.2596 -0.4079 -2.3654
 5486TIP3   OH237872   0.361   3.487  13.099 -0.2694 -0.0227 -0.0246
 5486TIP3    H137873   0.440   3.472  13.047 -0.2559 -1.7462  0.4209
 5486TIP3    H237874   0.392   3.505  13.187 -0.3586 -0.3111  0.0671
 5487TIP3   OH237875   2.183   4.361  11.414 -0.0096  0.2433  0.7375
 5487TIP3    H137876   2.268   4.397  11.388 -1.1330  1.3914 -1.6486
 5487TIP3    H237877   2.179   4.276  11.370 -0.2105  0.3382  0.5670
 5488TIP3   OH237878   1.477   2.648  15.620 -0.2315 -0.3200 -0.1518
 5488TIP3    H137879   1.525   2.693  15.550 -1.4234 -0.3024 -0.9959
 5488TIP3    H237880   1.435   2.718  15.669 -1.6920 -0.4502 -1.1678
 5489TIP3   OH237881   2.696   0.318   5.873 -0.3291 -0.0159  0.1619
 5489TIP3    H137882   2.748   0.333   5.794  1.3341  1.9063  1.5040
 5489TIP3    H237883   2.638   0.395   5.878 -1.3455 -0.7650  0.1487
 5490TIP3   OH237884   0.060   0.992  14.973 -0.1542 -0.3336  0.0741
 5490TIP3    H137885   0.154   1.012  14.965 -0.3381  0.1748 -1.0754
 5490TIP3    H237886   0.031   0.981  14.882 -0.9734 -1.6362  0.4704
 5491TIP3   OH237887   6.636   1.282  16.711 -0.0227 -0.4123  0.0460
 5491TIP3    H137888   6.659   1.254  16.622 -0.5614 -0.9175  0.0561
 5491TIP3    H237889   6.639   1.377  16.708  0.5782 -0.4380 -0.3468
 5492TIP3   OH237890   4.676   5.059   0.390  0.6131  0.2600  0.0834
 5492TIP3    H137891   4.686   5.008   0.310 -0.5395 -1.0963  0.7516
 5492TIP3    H237892   4.588   5.097   0.383  1.5537  2.4757 -0.5326
 5493TIP3   OH237893   5.111   1.871  14.900  0.0037  0.1092 -0.3483
 5493TIP3    H137894   5.069   1.883  14.985 -0.9441  1.6603 -0.9979
 5493TIP3    H237895   5.118   1.776  14.890  0.2185 -0.0909  1.4836
 5494TIP3   OH237896   2.795   2.675  16.319  0.3291  0.4099 -0.0040
 5494TIP3    H137897   2.798   2.746  16.255 -1.3893  1.2944  0.8461
 5494TIP3    H237898   2.850   2.706  16.391  0.6099  0.2962 -0.1636
 5495TIP3   OH237899   6.564   2.063   1.264 -0.3546 -0.4111  0.4854
 5495TIP3    H137900   6.622   2.044   1.191  1.7834  0.9931  1.7048
 5495TIP3    H237901   6.524   1.979   1.286  2.1442 -1.7289  0.3168
 5496TIP3   OH237902   4.635   5.399   0.423 -0.3308 -0.0237  0.6221
 5496TIP3    H137903   4.554   5.446   0.400 -0.7004  0.1536  2.1549
 5496TIP3    H237904   4.618   5.365   0.511  0.5108 -1.7557  0.1434
 5497TIP3   OH237905   2.414   5.479  12.454  0.1285  0.2557 -0.3064
 5497TIP3    H137906   2.345   5.466  12.389 -1.9335  1.2508  1.5554
 5497TIP3    H237907   2.478   5.536  12.411 -0.9017  0.4485 -1.6293
 5498TIP3   OH237908   2.522   3.082  13.692 -0.1643  0.6833 -0.0217
 5498TIP3    H137909   2.560   3.110  13.775  0.0143  2.9321 -0.7996
 5498TIP3    H237910   2.597   3.056  13.639 -0.0982  1.2122 -0.1832
 5499TIP3   OH237911   3.782   4.734   1.365  0.0700 -0.1725  0.2023
 5499TIP3    H137912   3.763   4.735   1.458 -0.6081 -1.8633  0.1154
 5499TIP3    H237913   3.698   4.712   1.323  0.0036  1.9697 -0.9383
 5500TIP3   OH237914   5.186   0.359   0.001  0.4611  0.2223 -0.3300
 5500TIP3    H137915   5.130   0.405   0.063 -0.4401 -0.2657 -0.7768
 5500TIP3    H237916   5.216   0.282   0.048 -0.0059 -0.0060 -0.4003
 5501TIP3   OH237917   5.354   3.087   2.360  0.0888 -0.1752 -0.2435
 5501TIP3    H137918   5.332   3.016   2.299  1.4551  0.9598 -2.1720
 5501TIP3    H237919   5.296   3.159   2.334  1.1510  0.5355 -0.6957
 5502TIP3   OH237920   6.716   2.372   1.649 -0.4466  0.1087  0.0871
 5502TIP3    H137921   6.718   2.427   1.727 -0.3051  0.2937 -0.0472
 5502TIP3    H237922   6.648   2.412   1.594 -0.7776 -0.2135  0.2549
 5503TIP3   OH237923   4.726   2.512   2.264  0.5497 -0.3432  0.0679
 5503TIP3    H137924   4.799   2.462   2.298  1.9216  0.6766 -1.2296
 5503TIP3    H237925   4.652   2.451   2.263  2.1556 -2.3895 -1.5361
 5504TIP3   OH237926   1.407   0.018   3.305  0.3162  0.2961 -0.4211
 5504TIP3    H137927   1.357  -0.060   3.328  1.3443 -0.9256 -2.0457
 5504TIP3    H237928   1.499  -0.010   3.312  0.7687  1.8836  0.5703
 5505TIP3   OH237929   5.725   6.620   5.191  0.2803  0.3474  0.2488
 5505TIP3    H137930   5.801   6.662   5.152 -0.1635  1.5824  0.6702
 5505TIP3    H237931   5.654   6.684   5.182 -0.0488  0.3314  2.2889
 5506TIP3   OH237932   5.160   5.748  15.337  0.2263 -0.0916 -0.5632
 5506TIP3    H137933   5.188   5.671  15.387 -0.3080 -0.3952 -0.7274
 5506TIP3    H237934   5.235   5.769  15.282  2.3316  2.4360  2.8321
 5507TIP3   OH237935   6.663   4.676  12.686  0.0237 -0.7118  0.0508
 5507TIP3    H137936   6.659   4.732  12.608  0.9136  1.5828  1.5251
 5507TIP3    H237937   6.724   4.606  12.662  1.7282  0.9621 -0.7716
 5508TIP3   OH237938   3.162   2.277   2.247 -0.6482 -0.0276 -0.2921
 5508TIP3    H137939   3.200   2.283   2.334 -0.9126 -1.7534 -0.0226
 5508TIP3    H237940   3.201   2.199   2.208 -0.4689  0.7483 -1.7745
 5509TIP3   OH237941   3.294   3.970   3.973  0.4160 -0.1497 -0.0553
 5509TIP3    H137942   3.290   4.062   4.000 -0.0822  0.3776 -1.7605
 5509TIP3    H237943   3.378   3.961   3.929  0.9973 -0.8488  1.1711
 5510TIP3   OH237944   4.609   4.284  13.326  0.2874  0.0813  0.4638
 5510TIP3    H137945   4.578   4.206  13.280  1.3987  0.7977 -1.5969
 5510TIP3    H237946   4.555   4.355  13.291  0.9528  0.6045  0.4833
 5511TIP3   OH237947   6.228   4.235  15.493  0.1520 -0.5559  0.5002
 5511TIP3    H137948   6.301   4.228  15.555  0.1715 -0.7798  0.4526
 5511TIP3    H237949   6.250   4.311  15.439  0.3407 -0.6081  0.5023
 5512TIP3   OH237950   2.838   2.551  12.060 -0.0893 -0.3866  0.6954
 5512TIP3    H137951   2.794   2.526  12.141 -1.1366 -1.6602 -0.2239
 5512TIP3    H237952   2.852   2.469  12.014  0.6161  0.3015 -0.3616
 5513TIP3   OH237953   3.345   2.222  11.891  0.1417  0.1227 -0.4121
 5513TIP3    H137954   3.317   2.307  11.925  0.2420  0.4441 -1.1150
 5513TIP3    H237955   3.390   2.181  11.964  0.8825  1.0568 -0.3172
 5514TIP3   OH237956   2.030   4.386   2.399 -0.0634 -0.1061 -0.5585
 5514TIP3    H137957   2.068   4.445   2.465  0.0915 -0.3999 -0.3840
 5514TIP3    H237958   2.002   4.309   2.449 -0.6533 -0.0005 -0.7258
 5515TIP3   OH237959   6.615   2.981   3.852  0.7551  0.0630  0.0002
 5515TIP3    H137960   6.669   2.922   3.800  0.2040 -0.5230  0.0854
 5515TIP3    H237961   6.555   3.020   3.789 -0.6722 -1.4894  0.3180
 5516TIP3   OH237962   3.621   5.023   4.109 -0.4837 -0.0888  0.4307
 5516TIP3    H137963   3.640   5.067   4.026 -0.0902  0.1049  0.6223
 5516TIP3    H237964   3.691   4.958   4.118 -0.4234  0.0124  0.6986
 5517TIP3   OH237965   3.969   3.984  12.068  0.0374  0.0661 -0.0926
 5517TIP3    H137966   4.045   3.978  12.011  0.6962  0.2423  0.7399
 5517TIP3    H237967   3.894   3.980  12.009  0.6255 -1.9972 -0.7999
 5518TIP3   OH237968   4.567   0.663   4.430  0.3256 -0.1281 -0.3943
 5518TIP3    H137969   4.539   0.721   4.501  2.5135  0.1973  0.2812
 5518TIP3    H237970   4.487   0.646   4.380 -0.4335  3.7034 -0.8266
 5519TIP3   OH237971   5.769   5.753   2.800 -0.3777  0.4613 -0.5650
 5519TIP3    H137972   5.804   5.747   2.889 -1.3012 -0.0099 -0.2272
 5519TIP3    H237973   5.732   5.842   2.794  0.2047  0.7027 -0.6849
 5520TIP3   OH237974   5.337   5.893   5.284 -0.1174  0.0697  0.3694
 5520TIP3    H137975   5.322   5.857   5.371 -0.8861 -0.8754 -0.1315
 5520TIP3    H237976   5.368   5.982   5.300  0.7832 -0.4343  1.6212
 5521TIP3   OH237977   2.996   3.431   4.932  0.5115 -0.3678  0.2356
 5521TIP3    H137978   3.056   3.418   5.005  0.3528  1.4226  0.7284
 5521TIP3    H237979   2.948   3.511   4.954 -0.8763 -0.8310 -0.9457
 5522TIP3   OH237980   0.637   2.516   0.440 -0.5746  0.6005  0.6031
 5522TIP3    H137981   0.596   2.429   0.437 -3.5220  1.8987 -0.7150
 5522TIP3    H237982   0.630   2.543   0.531  0.3916 -0.5241  1.0320
 5523TIP3   OH237983   6.606   3.964  13.259 -0.1498  0.0458  0.3078
 5523TIP3    H137984   6.550   3.946  13.183 -0.4226  1.5994  0.1083
 5523TIP3    H237985   6.695   3.967  13.223 -0.2902  0.8987  0.0121
 5524TIP3   OH237986   1.228   4.901   3.757 -0.5879  0.5682 -0.3128
 5524TIP3    H137987   1.243   4.992   3.733  0.2982  0.5247  0.0410
 5524TIP3    H237988   1.154   4.904   3.817 -0.6688  1.0337 -0.4311
 5525TIP3   OH237989   3.516   0.610  13.055  0.2761 -0.2142 -0.3190
 5525TIP3    H137990   3.489   0.688  13.006  1.4101 -0.2690 -1.0796
 5525TIP3    H237991   3.474   0.619  13.141 -0.5632  0.6286 -0.8057
 5526TIP3   OH237992   3.247   4.314  15.389  0.1230 -0.2540 -0.2676
 5526TIP3    H137993   3.223   4.223  15.370  0.8445 -0.7015  0.8092
 5526TIP3    H237994   3.268   4.314  15.483 -1.5437  1.4187  0.1688
 5527TIP3   OH237995   5.774   5.109  11.865 -0.0986  0.4999 -0.0275
 5527TIP3    H137996   5.828   5.054  11.808 -0.7543  0.1851 -0.3536
 5527TIP3    H237997   5.837   5.151  11.923  0.5052  0.1681 -0.4230
 5528TIP3   OH237998   3.504   3.153   0.902 -0.2552 -1.0192  0.4508
 5528TIP3    H137999   3.567   3.222   0.924 -1.0498 -0.4127  0.8950
 5528TIP3    H238000   3.436   3.198   0.852  0.2099 -1.8842 -1.0140
 5529TIP3   OH238001   1.420   3.483  14.666  0.2576  0.0604  0.1554
 5529TIP3    H138002   1.445   3.469  14.575  1.4325  0.1901  0.4410
 5529TIP3    H238003   1.455   3.570  14.687 -0.2039  0.1254  0.6597
 5530TIP3   OH238004   1.974   5.136   5.971 -0.1463  0.4946 -0.5358
 5530TIP3    H138005   2.048   5.197   5.964  0.3057  0.0604  0.2318
 5530TIP3    H238006   1.905   5.187   6.012  0.7639  0.1034  1.6308
 5531TIP3   OH238007   5.383   2.910  12.819  0.2105  0.1588  0.1609
 5531TIP3    H138008   5.330   2.903  12.740  0.6212  0.2592 -0.1301
 5531TIP3    H238009   5.403   2.819  12.842 -1.4275  0.0270  1.2098
 5532TIP3   OH238010   2.327   0.912  14.917  0.1807 -0.3149  0.1288
 5532TIP3    H138011   2.278   0.838  14.953 -0.6957  0.0218 -0.3425
 5532TIP3    H238012   2.360   0.959  14.994 -1.1031  0.0175  0.4971
 5533TIP3   OH238013   4.439   5.045  12.132  0.6834 -0.3034  0.7548
 5533TIP3    H138014   4.347   5.053  12.106  0.4935  0.6202  1.6395
 5533TIP3    H238015   4.480   4.997  12.061 -0.0315  1.1605 -0.7218
 5534TIP3   OH238016   4.971   2.804  15.629 -0.5304  0.5347 -0.4288
 5534TIP3    H138017   5.048   2.860  15.626 -0.4341  0.6434  2.3163
 5534TIP3    H238018   4.999   2.726  15.676 -2.0393  0.5386  0.5688
 5535TIP3   OH238019   2.883   0.488  16.744 -0.1224  0.2358 -0.0608
 5535TIP3    H138020   2.950   0.531  16.690  0.0210 -0.4562 -0.4525
 5535TIP3    H238021   2.825   0.446  16.680  1.2353 -2.3826  0.3165
 5536TIP3   OH238022   5.626   6.385  14.192  0.3786  0.1530  0.3590
 5536TIP3    H138023   5.667   6.437  14.260 -0.1330  0.0059  0.7875
 5536TIP3    H238024   5.696   6.329  14.159  0.8594  0.8870  0.1030
 5537TIP3   OH238025   5.004   6.017   2.929  0.2213 -0.8564 -0.0020
 5537TIP3    H138026   4.933   5.962   2.963 -0.3172 -0.5875 -0.6592
 5537TIP3    H238027   4.997   6.098   2.978 -0.5024 -0.4999 -0.6695
 5538TIP3   OH238028   2.847   5.262  11.508  0.0146 -0.5846 -0.0394
 5538TIP3    H138029   2.883   5.199  11.445 -1.0444 -0.8353 -0.4145
 5538TIP3    H238030   2.834   5.210  11.588  0.6569 -0.4428  0.1657
 5539TIP3   OH238031   2.365   2.396   5.834 -0.5332  0.2877 -0.1085
 5539TIP3    H138032   2.385   2.473   5.781 -0.1677  0.2576 -0.0131
 5539TIP3    H238033   2.381   2.322   5.775 -2.7582  0.3153 -0.8518
 5540TIP3   OH238034   0.542   2.178   3.772 -0.3595  0.1694  0.0580
 5540TIP3    H138035   0.566   2.090   3.742  1.7575  0.4519  0.7929
 5540TIP3    H238036   0.506   2.220   3.694  0.7783 -0.5891 -0.9107
 5541TIP3   OH238037   6.353   2.949  16.711  0.0509 -0.0266  0.2315
 5541TIP3    H138038   6.378   2.864  16.748  1.2874 -1.4216 -3.3306
 5541TIP3    H238039   6.430   3.004  16.722 -1.0373  1.0608  3.3065
 5542TIP3   OH238040   2.113   5.612  13.692  1.0833 -0.0815  0.1142
 5542TIP3    H138041   2.204   5.617  13.661  1.2915 -0.7854  0.5854
 5542TIP3    H238042   2.067   5.680  13.643  1.8212  0.1397 -0.2861
 5543TIP3   OH238043   1.235   1.230  12.920 -0.5996  0.6036 -0.6575
 5543TIP3    H138044   1.315   1.179  12.936 -0.3111  1.4098  0.5517
 5543TIP3    H238045   1.184   1.221  13.001 -1.5827  0.4078 -1.2780
 5544TIP3   OH238046   1.528   0.388  16.268  0.2337 -0.0341 -0.0020
 5544TIP3    H138047   1.515   0.349  16.354 -0.1533  0.1096  0.0071
 5544TIP3    H238048   1.440   0.416  16.241  0.6838  2.3676  0.7430
 5545TIP3   OH238049   1.503   6.696   6.638 -0.0087  0.1250  0.0888
 5545TIP3    H138050   1.556   6.726   6.565  2.2342  0.1715  1.6204
 5545TIP3    H238051   1.488   6.774   6.691  1.2175 -0.4168  1.3075
 5546TIP3   OH238052   0.957   2.400  17.121 -0.7622  0.1812  0.3885
 5546TIP3    H138053   0.906   2.320  17.115 -1.3912  0.6343 -0.6730
 5546TIP3    H238054   0.905   2.458  17.177  0.7288 -0.8595  3.0103
 5547TIP3   OH238055   4.729   2.099   4.851 -0.5154 -0.1569  0.7714
 5547TIP3    H138056   4.719   2.194   4.839 -0.1477 -0.2498 -0.4325
 5547TIP3    H238057   4.684   2.080   4.933  1.6479  1.4523  2.4081
 5548TIP3   OH238058   3.806   1.080   4.941  0.0709 -0.2309 -0.1387
 5548TIP3    H138059   3.831   1.101   5.032 -1.0755  0.7190 -0.0111
 5548TIP3    H238060   3.771   1.163   4.907  1.0542 -0.4006 -1.6705
 5549TIP3   OH238061   5.493   6.159   3.871  0.2748  0.2062  0.2683
 5549TIP3    H138062   5.513   6.122   3.957  1.3021 -0.4850 -0.2379
 5549TIP3    H238063   5.398   6.167   3.869  0.2921  1.0548  1.7818
 5550TIP3   OH238064   6.616   5.404   0.615 -0.2331 -0.2413 -0.5265
 5550TIP3    H138065   6.552   5.458   0.570 -0.1850  0.5821  0.3609
 5550TIP3    H238066   6.570   5.322   0.633 -1.2810  0.5730  0.6650
 5551TIP3   OH238067   1.308   1.961  15.251  0.9422 -0.4259 -0.2250
 5551TIP3    H138068   1.326   2.052  15.228  0.6775  0.0339  1.2709
 5551TIP3    H238069   1.394   1.918  15.247  1.4256  0.3675  0.9777
 5552TIP3   OH238070   4.273   2.170  16.154 -0.2769  0.2038  0.3866
 5552TIP3    H138071   4.247   2.165  16.062  0.8425 -0.3677  0.0718
 5552TIP3    H238072   4.320   2.253  16.161  0.4759 -0.1960  0.1943
 5553TIP3   OH238073   1.430   5.415  17.232  0.1204  0.2497 -0.2587
 5553TIP3    H138074   1.457   5.438  17.143 -0.2096  0.0028 -0.4229
 5553TIP3    H238075   1.511   5.390  17.275  0.0627 -1.3822 -1.0169
 5554TIP3   OH238076   4.861   5.213   1.190 -0.5818 -0.1157  0.6253
 5554TIP3    H138077   4.931   5.159   1.154 -0.8161 -0.3269  0.4832
 5554TIP3    H238078   4.888   5.229   1.281 -0.8158 -1.0076  0.8670
 5555TIP3   OH238079   3.253   2.803  12.449 -0.2015  0.3284  0.3877
 5555TIP3    H138080   3.202   2.871  12.494 -0.1603 -0.5386  1.8137
 5555TIP3    H238081   3.299   2.757  12.520 -2.2468 -2.8978 -0.1337
 5556TIP3   OH238082   1.122   1.897  11.412  0.2056  0.4044 -0.0756
 5556TIP3    H138083   1.078   1.956  11.350  0.4248  0.9040  0.2347
 5556TIP3    H238084   1.051   1.864  11.467  0.2553  1.6472  0.7866
 5557TIP3   OH238085   3.501   1.988   5.631  0.2326 -0.2508 -1.4415
 5557TIP3    H138086   3.577   1.938   5.660 -0.3685 -1.9901 -2.6776
 5557TIP3    H238087   3.533   2.036   5.554  0.4946  0.2914 -0.9948
 5558TIP3   OH238088   2.132   6.686   0.682 -0.3465 -0.7790 -0.0538
 5558TIP3    H138089   2.078   6.765   0.684  0.1380 -0.4518  0.1998
 5558TIP3    H238090   2.221   6.717   0.695 -0.0946 -1.3201 -0.4406
 5559TIP3   OH238091   6.190   3.788   5.002 -0.3982  0.2147  0.6456
 5559TIP3    H138092   6.188   3.808   5.096 -0.4194  0.3724  0.6117
 5559TIP3    H238093   6.178   3.872   4.959 -0.2939  0.1566  0.4998
 5560TIP3   OH238094   0.828   4.698  15.748 -0.1107  0.4583 -0.8301
 5560TIP3    H138095   0.921   4.695  15.770 -0.5902  0.8644  1.5124
 5560TIP3    H238096   0.811   4.791  15.731  0.4631  0.0788 -4.4694
 5561TIP3   OH238097   4.114   2.814   5.463 -0.1229  0.1541 -0.1169
 5561TIP3    H138098   4.111   2.875   5.390  0.3967  0.1977 -0.1061
 5561TIP3    H238099   4.162   2.860   5.531  1.0644 -0.5783 -0.4177
 5562TIP3   OH238100   3.181   1.762  15.185  0.2590 -0.3181  0.2149
 5562TIP3    H138101   3.090   1.743  15.161  0.0323  0.5538  0.3756
 5562TIP3    H238102   3.208   1.830  15.124 -0.0153  1.2452  1.7695
 5563TIP3   OH238103   1.517   1.151  15.570 -0.1434  0.2418 -0.5307
 5563TIP3    H138104   1.511   1.244  15.589 -0.7050  0.3821 -1.3679
 5563TIP3    H238105   1.513   1.109  15.656  0.0829  0.9844 -0.1516
 5564TIP3   OH238106   5.247   1.686  14.682  0.5133  0.2400  0.2646
 5564TIP3    H138107   5.169   1.631  14.679 -0.3592  1.4765 -0.4499
 5564TIP3    H238108   5.316   1.628  14.717 -0.5126 -1.0950  0.1536
 5565TIP3   OH238109   0.808   4.992   1.470  0.5862 -0.3085 -0.1366
 5565TIP3    H138110   0.873   5.062   1.478 -1.5850  1.7283  1.0968
 5565TIP3    H238111   0.751   5.003   1.547 -1.8077 -1.2989 -1.6273
 5566TIP3   OH238112   6.458   3.220  12.818  0.0825 -0.3570  0.2284
 5566TIP3    H138113   6.520   3.250  12.752 -1.0546  0.1673 -0.6443
 5566TIP3    H238114   6.383   3.279  12.809 -0.8332 -1.4051  0.7531
 5567TIP3   OH238115   0.947   5.256   0.165  0.5352  0.1933 -0.1061
 5567TIP3    H138116   1.022   5.269   0.222 -1.3671  0.7906  2.4449
 5567TIP3    H238117   0.935   5.161   0.163  1.0555  0.1240 -0.1696
 5568TIP3   OH238118   5.371   5.462  11.987  0.2943 -0.3263 -0.0596
 5568TIP3    H138119   5.362   5.548  12.026 -1.0814 -0.9411  1.0502
 5568TIP3    H238120   5.416   5.410  12.053  0.6994 -0.5971 -0.5365
 5569TIP3   OH238121   3.540   2.496  11.816  0.0435 -0.8268 -0.0161
 5569TIP3    H138122   3.622   2.447  11.808 -0.0105 -0.9730  0.3458
 5569TIP3    H238123   3.567   2.585  11.838  0.0583 -1.1806  1.5037
 5570TIP3   OH238124   3.435   6.130   6.808 -0.1622 -0.3728 -0.3498
 5570TIP3    H138125   3.393   6.131   6.722 -0.6511  0.2948 -0.1098
 5570TIP3    H238126   3.458   6.222   6.825  2.7032 -0.8503 -1.1003
 5571TIP3   OH238127   0.285   2.626  12.047  0.1202  0.3545  0.1603
 5571TIP3    H138128   0.374   2.593  12.037  0.1635  0.3613  0.4905
 5571TIP3    H238129   0.240   2.598  11.968  0.5620  0.8493 -0.2742
 5572TIP3   OH238130   3.471   3.417  17.270  0.1693 -0.5218  0.3912
 5572TIP3    H138131   3.505   3.327  17.269  0.9020 -0.2473  0.2848
 5572TIP3    H238132   3.483   3.448  17.180  1.3360  0.1937  0.7643
 5573TIP3   OH238133   6.421   6.511   4.418  0.0039 -0.2358 -0.5018
 5573TIP3    H138134   6.350   6.483   4.360 -1.0735  0.9483  0.1967
 5573TIP3    H238135   6.380   6.573   4.478  1.2549 -0.8473  1.0518
 5574TIP3   OH238136   1.627   1.379  14.961 -0.6097 -0.0907  0.3106
 5574TIP3    H138137   1.597   1.365  14.871 -1.7706  0.2026  0.6415
 5574TIP3    H238138   1.714   1.338  14.964 -0.6645 -0.3160 -0.8707
 5575TIP3   OH238139   3.921   0.732   5.263  0.0063  0.3859 -0.7896
 5575TIP3    H138140   3.962   0.682   5.192  1.4517  0.7459 -0.2319
 5575TIP3    H238141   3.906   0.667   5.332  1.4531  0.5801 -0.2491
 5576TIP3   OH238142   1.030   0.986   1.594 -0.2293  0.3430  0.0015
 5576TIP3    H138143   1.078   1.068   1.609 -0.4744  1.2209 -3.3555
 5576TIP3    H238144   0.939   1.013   1.589 -0.2268  0.1094 -2.1110
 5577TIP3   OH238145   1.393   4.851   2.231 -0.2040 -0.0680  0.5346
 5577TIP3    H138146   1.331   4.879   2.298 -0.9088  1.3214 -0.6625
 5577TIP3    H238147   1.375   4.757   2.220 -1.6691  0.1714  0.6620
 5578TIP3   OH238148   2.085   4.329  12.823  0.2174  0.0485 -0.6620
 5578TIP3    H138149   2.058   4.242  12.853  1.2366 -0.0020  0.1811
 5578TIP3    H238150   2.108   4.375  12.904 -3.3032  2.2410 -0.6779
 5579TIP3   OH238151   5.127   0.816   4.910 -0.4163  0.2803 -0.2829
 5579TIP3    H138152   5.210   0.852   4.943 -1.2497 -0.5241  3.0614
 5579TIP3    H238153   5.107   0.869   4.833  2.5215  1.3698 -0.4299
 5580TIP3   OH238154   3.269   4.218  16.886 -0.0077  0.3029  0.3063
 5580TIP3    H138155   3.280   4.298  16.937  1.3111  0.4874 -0.2152
 5580TIP3    H238156   3.322   4.153  16.932  1.9236  0.6919 -1.2217
 5581TIP3   OH238157   0.705   2.213   4.289  0.3910  0.1745 -0.7808
 5581TIP3    H138158   0.691   2.244   4.378  0.6011 -0.0137 -0.6782
 5581TIP3    H238159   0.793   2.174   4.292  0.9808  1.3927 -1.4079
 5582TIP3   OH238160   3.273   6.113  12.384 -0.1221  0.0653  0.1129
 5582TIP3    H138161   3.292   6.102  12.291  1.1555  0.0317  0.3514
 5582TIP3    H238162   3.301   6.202  12.404 -3.1007  1.1348 -0.1268
 5583TIP3   OH238163   5.162   0.405  15.745  0.4909  0.5591  0.6194
 5583TIP3    H138164   5.162   0.412  15.650  0.1937 -0.2806  0.5476
 5583TIP3    H238165   5.078   0.364  15.766  0.5314  0.7848  1.2465
 5584TIP3   OH238166   0.116   5.424  17.378 -0.3632  0.1758 -0.4434
 5584TIP3    H138167   0.162   5.424  17.294  0.8725  1.3437  0.1929
 5584TIP3    H238168   0.107   5.332  17.401  0.6179 -0.1095 -1.1668
 5585TIP3   OH238169   4.506   6.743  12.234 -0.1588  0.0068  0.7022
 5585TIP3    H138170   4.454   6.746  12.154 -1.9195 -1.4322  1.7109
 5585TIP3    H238171   4.552   6.827  12.236 -2.4032  1.3705 -0.3169
 5586TIP3   OH238172   1.108   5.523   0.311 -1.3213  0.0586 -0.0066
 5586TIP3    H138173   1.020   5.555   0.326 -0.6184  1.0399  2.5672
 5586TIP3    H238174   1.151   5.529   0.397  0.9545 -1.2923 -0.9523
 5587TIP3   OH238175   5.967   0.953   3.551  0.8240  0.2156 -0.0714
 5587TIP3    H138176   6.031   1.021   3.570  0.1677  0.9263 -0.3053
 5587TIP3    H238177   5.892   1.001   3.515  0.0175 -0.5458  0.5445
 5588TIP3   OH238178   1.789   2.149  16.150 -0.4059 -0.2745  0.0108
 5588TIP3    H138179   1.866   2.103  16.183  0.5866  0.8841 -0.5870
 5588TIP3    H238180   1.745   2.086  16.093 -1.0691 -1.6362  1.9502
 5589TIP3   OH238181   6.518   3.594   0.708  0.5266 -0.3114 -0.0588
 5589TIP3    H138182   6.597   3.550   0.676 -0.2046 -0.8464 -1.1591
 5589TIP3    H238183   6.534   3.687   0.690  1.6675 -0.1756  1.4112
 5590TIP3   OH238184   6.022   2.481  13.850  0.4104  0.0242 -0.8052
 5590TIP3    H138185   5.959   2.514  13.786  0.3420  0.4068 -0.5465
 5590TIP3    H238186   6.100   2.459  13.799  0.6071  0.9971 -0.9327
 5591TIP3   OH238187   3.794   4.091  10.834  0.2002 -0.0087 -0.1019
 5591TIP3    H138188   3.857   4.084  10.905  1.7815 -0.2232 -1.4650
 5591TIP3    H238189   3.710   4.103  10.877  1.2554  1.0199  1.7623
 5592TIP3   OH238190   4.309   0.314   2.774 -0.7513 -0.0054 -0.4091
 5592TIP3    H138191   4.316   0.408   2.759 -0.6338  0.7649  3.5141
 5592TIP3    H238192   4.216   0.300   2.791 -0.9856 -0.9157 -2.1804
 5593TIP3   OH238193   5.376   3.283   4.874  0.0199  0.5488 -0.3432
 5593TIP3    H138194   5.416   3.263   4.789 -1.0671  0.2505 -0.8133
 5593TIP3    H238195   5.373   3.198   4.919 -0.5176  0.4720 -0.5142
 5594TIP3   OH238196   4.678   3.456   6.807  0.7335 -0.3272 -0.6124
 5594TIP3    H138197   4.664   3.548   6.783  0.9428  0.5506  2.2098
 5594TIP3    H238198   4.768   3.438   6.781  1.6085  1.1888  1.1239
 5595TIP3   OH238199   6.273   0.408  15.080 -0.9469 -0.3216 -0.4579
 5595TIP3    H138200   6.256   0.459  15.159  3.0052 -0.0461  0.4019
 5595TIP3    H238201   6.286   0.474  15.012  0.9622 -0.2484 -0.0659
 5596TIP3   OH238202   4.628   3.834   2.031 -0.4720 -0.5963  0.3818
 5596TIP3    H138203   4.664   3.777   1.963 -2.4638 -2.3274  0.6711
 5596TIP3    H238204   4.635   3.782   2.111  0.8729  1.0103  1.3679
 5597TIP3   OH238205   4.875   4.715  16.891 -0.3024  0.1624 -0.5396
 5597TIP3    H138206   4.911   4.751  16.971  0.7086  0.2897 -1.0369
 5597TIP3    H238207   4.951   4.701  16.834 -0.8612 -0.9952 -1.0536
 5598TIP3   OH238208   5.985   5.291   3.025 -0.4409  0.7255  0.0233
 5598TIP3    H138209   6.046   5.330   3.088 -0.0862  0.4099 -0.1234
 5598TIP3    H238210   5.932   5.365   2.995 -1.7302  0.6419  1.8968
 5599TIP3   OH238211   3.663   1.278   6.195  0.0134 -0.1296  0.6118
 5599TIP3    H138212   3.679   1.276   6.289 -4.1896  1.3371  1.5711
 5599TIP3    H238213   3.682   1.188   6.166  1.2462 -0.6668  2.8272
 5600TIP3   OH238214   3.963   2.781   5.012 -0.7091 -0.6347  0.3030
 5600TIP3    H138215   3.900   2.769   4.941 -0.2329  1.9586 -0.6791
 5600TIP3    H238216   3.925   2.849   5.067  0.7056  0.2408  0.2641
 5601TIP3   OH238217   0.293   0.083  16.018 -0.1836  0.4132 -0.2553
 5601TIP3    H138218   0.265   0.162  16.063  1.8782  1.5497 -0.8389
 5601TIP3    H238219   0.379   0.063  16.057 -0.2345 -0.9783 -0.8051
 5602TIP3   OH238220   2.720   3.469   1.412  0.1113  0.3229  0.3267
 5602TIP3    H138221   2.794   3.458   1.472 -0.5133  0.7795  1.2002
 5602TIP3    H238222   2.748   3.538   1.352  0.6583  0.0144  0.2182
 5603TIP3   OH238223   0.593   1.574  15.480 -0.2020  0.2678  0.7945
 5603TIP3    H138224   0.531   1.604  15.547 -0.2953  0.0431  0.8084
 5603TIP3    H238225   0.567   1.621  15.401 -1.8077 -1.4452  0.2194
 5604TIP3   OH238226   5.726   0.430   5.105  0.6085  0.7499 -0.3239
 5604TIP3    H138227   5.651   0.392   5.060 -0.2491  1.0782  0.7724
 5604TIP3    H238228   5.688   0.479   5.178  1.7036  3.1103 -1.2165
 5605TIP3   OH238229   1.234   0.569  11.388  0.4854 -0.2617  0.4365
 5605TIP3    H138230   1.255   0.520  11.308 -0.9921 -0.3263  0.0657
 5605TIP3    H238231   1.316   0.613  11.410  0.5094  1.1996 -2.1475
 5606TIP3   OH238232   3.911   5.929   0.569 -0.2368 -0.4112  0.3203
 5606TIP3    H138233   3.881   5.857   0.624 -1.5149 -0.9274 -1.0035
 5606TIP3    H238234   3.875   6.007   0.611  1.4249 -0.4377  1.9466
 5607TIP3   OH238235   4.612   4.851   4.803  0.3350  0.3073  0.1286
 5607TIP3    H138236   4.610   4.945   4.784 -1.1760  0.3814  0.4567
 5607TIP3    H238237   4.520   4.824   4.796  0.4563 -0.7494  1.9280
 5608TIP3   OH238238   6.059   0.647   4.069  0.4872 -0.0508 -0.3948
 5608TIP3    H138239   6.082   0.564   4.028  0.9606  0.3413 -0.9368
 5608TIP3    H238240   5.968   0.663   4.042 -0.0750 -1.0387  0.8139
 5609TIP3   OH238241   6.744   2.665  15.145  0.8347  0.0639 -0.1967
 5609TIP3    H138242   6.663   2.702  15.181  1.3817  0.4480  0.6533
 5609TIP3    H238243   6.753   2.580  15.188  1.0864  0.1881 -0.0053
 5610TIP3   OH238244   0.439   6.289   2.701 -0.4906 -0.4302  0.2052
 5610TIP3    H138245   0.494   6.214   2.680  2.1017  1.1546  0.9029
 5610TIP3    H238246   0.475   6.360   2.649  0.4290  1.4900  3.1960
 5611TIP3   OH238247   0.881   1.019  15.001  0.5774 -0.6485  0.1071
 5611TIP3    H138248   0.845   1.016  15.090 -1.5867  1.8605 -0.5666
 5611TIP3    H238249   0.963   1.067  15.010 -1.5170  3.2477  0.3779
 5612TIP3   OH238250   1.360   4.397   5.539 -0.3209  0.1782  0.2873
 5612TIP3    H138251   1.451   4.382   5.564 -0.8203  0.1535  2.2019
 5612TIP3    H238252   1.335   4.479   5.582 -1.0080  0.5590 -0.7886
 5613TIP3   OH238253   0.243   2.918  12.679 -0.2523  0.6564 -0.5631
 5613TIP3    H138254   0.287   2.933  12.763  0.2846 -0.7339 -0.5748
 5613TIP3    H238255   0.167   2.976  12.681  0.1738  1.2101  0.5489
 5614TIP3   OH238256   0.023   2.160   0.738  0.0409 -0.6585  0.8832
 5614TIP3    H138257   0.112   2.129   0.755  0.0986 -1.2562 -0.4001
 5614TIP3    H238258  -0.033   2.106   0.794  0.4046 -0.9091  1.0053
 5615TIP3   OH238259   6.635   4.104   4.637 -0.4456  0.0362  1.2306
 5615TIP3    H138260   6.605   4.127   4.549 -0.5007  0.5147  1.3690
 5615TIP3    H238261   6.576   4.035   4.666  1.8297 -2.9030 -0.5665
 5616TIP3   OH238262   4.965   2.802   0.487  0.2184  0.8367  0.4651
 5616TIP3    H138263   5.001   2.770   0.569  1.1734  0.5719 -0.0425
 5616TIP3    H238264   5.030   2.863   0.454 -0.4038  1.3463  0.1558
 5617TIP3   OH238265   1.100   0.027   0.406 -0.3299  0.3940  0.3402
 5617TIP3    H138266   1.113   0.017   0.312  0.7109  1.3795  0.3590
 5617TIP3    H238267   1.047   0.107   0.414 -0.4775  0.2721  0.5882
 5618TIP3   OH238268   5.384   3.202  14.997 -0.2710  0.0673  0.5375
 5618TIP3    H138269   5.473   3.203  14.963 -0.5253  0.5707 -0.1574
 5618TIP3    H238270   5.350   3.115  14.975 -0.3034  0.2528 -0.1838
 5619TIP3   OH238271   5.596   1.799  13.994 -0.0170 -0.6287  0.5878
 5619TIP3    H138272   5.623   1.713  14.026  2.7984  0.2833  0.9655
 5619TIP3    H238273   5.588   1.853  14.073  2.9963  0.5992  0.1713
 5620TIP3   OH238274   5.856   2.681  12.181  0.8158  0.7955 -0.0613
 5620TIP3    H138275   5.821   2.770  12.183  1.1885  0.9350  0.5805
 5620TIP3    H238276   5.922   2.683  12.113 -0.7479  0.3862 -1.6801
 5621TIP3   OH238277   0.440   4.976   4.450 -0.0586 -0.0209 -0.2488
 5621TIP3    H138278   0.476   4.899   4.494  0.1676  0.6864  0.8493
 5621TIP3    H238279   0.496   5.049   4.478 -2.0032  1.0398  1.1649
 5622TIP3   OH238280   2.304   5.815   0.284  0.2300 -0.2063 -0.2027
 5622TIP3    H138281   2.309   5.753   0.357 -0.8315  0.3612  0.3730
 5622TIP3    H238282   2.225   5.866   0.301 -0.2896 -0.3513 -1.9811
 5623TIP3   OH238283   0.093   6.411  13.555  0.3300 -0.1575 -0.4097
 5623TIP3    H138284   0.001   6.392  13.569  0.2791  0.1810 -0.2667
 5623TIP3    H238285   0.094   6.472  13.481  0.3219  1.0259  0.5352
 5624TIP3   OH238286   3.838   6.113  14.795  0.0146  0.2849  0.6020
 5624TIP3    H138287   3.816   6.193  14.747 -0.7615  0.4494  1.2024
 5624TIP3    H238288   3.792   6.122  14.879 -0.0819 -0.7823  0.6784
 5625TIP3   OH238289   5.001   3.321  13.762 -0.4658 -0.0407  0.1105
 5625TIP3    H138290   4.923   3.343  13.711  0.0891  1.9627  0.0542
 5625TIP3    H238291   4.992   3.371  13.843  1.2814  1.1868 -0.3937
 5626TIP3   OH238292   4.235   4.923   1.140  0.6530  0.4901  0.2542
 5626TIP3    H138293   4.202   4.841   1.178  2.8189 -0.2154  0.7144
 5626TIP3    H238294   4.182   4.991   1.181 -1.3842 -0.6451 -0.3358
 5627TIP3   OH238295   0.262   3.682   3.412  1.1179 -0.6324 -0.1196
 5627TIP3    H138296   0.217   3.604   3.381 -0.7247 -0.1555  1.1659
 5627TIP3    H238297   0.289   3.660   3.502  0.8633  0.0831  0.1416
 5628TIP3   OH238298   6.450   0.562   3.709  0.4462 -0.2638  0.0109
 5628TIP3    H138299   6.512   0.505   3.754  0.6112  2.2422  3.3028
 5628TIP3    H238300   6.504   0.632   3.672  0.0232 -0.9743 -2.1305
 5629TIP3   OH238301   1.524   3.123  15.558  0.8530 -0.1755  0.1555
 5629TIP3    H138302   1.452   3.108  15.497  1.3602 -2.8910  0.1179
 5629TIP3    H238303   1.507   3.210  15.595 -0.7463  0.5342 -2.0736
 5630TIP3   OH238304   2.172   3.314   5.357 -0.0907 -0.0526  0.8528
 5630TIP3    H138305   2.077   3.302   5.361  0.2290 -3.8088  0.9226
 5630TIP3    H238306   2.194   3.297   5.265  0.5421  0.4361  0.9119
 5631TIP3   OH238307   3.125   2.982  14.328  0.5448  0.2905  0.4017
 5631TIP3    H138308   3.178   3.059  14.305 -0.2089  1.1427  1.3644
 5631TIP3    H238309   3.035   3.013  14.320  0.2312 -0.5441  0.6682
 5632TIP3   OH238310   1.061   3.276  13.933  0.1356  0.0274  0.5136
 5632TIP3    H138311   1.107   3.360  13.939 -0.8810  0.6782 -0.1750
 5632TIP3    H238312   1.012   3.283  13.850 -0.5750 -0.9290  0.8411
 5633TIP3   OH238313   2.952   3.629  14.236  0.0747 -0.0040 -0.2331
 5633TIP3    H138314   2.910   3.683  14.168  2.1079  0.3194 -1.3152
 5633TIP3    H238315   2.976   3.548  14.191 -0.0329 -0.4892  0.5601
 5634TIP3   OH238316   4.148   0.111  16.065  0.5333 -0.1226 -0.1888
 5634TIP3    H138317   4.192   0.028  16.083  0.6442  0.5600  3.6326
 5634TIP3    H238318   4.064   0.104  16.110 -0.4592  1.0360 -1.7545
 5635TIP3   OH238319   1.422   2.728  11.913  0.0739  0.5649 -0.6464
 5635TIP3    H138320   1.378   2.807  11.882  0.6530  0.8365 -0.7772
 5635TIP3    H238321   1.510   2.732  11.876  0.2972  0.1488 -0.1821
 5636TIP3   OH238322   5.253   4.920   1.430 -0.7537 -0.0296  0.1496
 5636TIP3    H138323   5.290   4.833   1.447 -1.6621 -0.2743  0.9547
 5636TIP3    H238324   5.289   4.944   1.345  1.6484 -0.0120  1.0891
 5637TIP3   OH238325   3.425   3.486   4.281  0.3355  0.1644 -0.0630
 5637TIP3    H138326   3.383   3.559   4.235 -0.7799 -0.8556 -0.7120
 5637TIP3    H238327   3.369   3.470   4.357  0.9001  0.3436  0.4030
 5638TIP3   OH238328   0.782   5.979   5.240  0.2730 -0.1419  0.2978
 5638TIP3    H138329   0.815   5.920   5.308  1.7052  0.4339  0.1344
 5638TIP3    H238330   0.708   6.023   5.282  0.8281 -0.1489  1.3261
 5639TIP3   OH238331   4.016   0.313  12.195 -0.0939 -0.6761 -0.7231
 5639TIP3    H138332   4.003   0.218  12.200 -1.2969 -0.5658 -1.6408
 5639TIP3    H238333   3.992   0.336  12.106 -0.7012  0.6345 -0.2325
 5640TIP3   OH238334   3.206   5.894  15.764 -0.2696  0.0690  0.3334
 5640TIP3    H138335   3.229   5.959  15.830 -0.9985 -0.5303  1.1968
 5640TIP3    H238336   3.250   5.814  15.793 -0.1122 -0.0595 -0.2329
 5641TIP3   OH238337   3.140   6.562   6.482  0.3138  0.6417 -0.4477
 5641TIP3    H138338   3.071   6.498   6.501 -0.1443  0.9321 -1.0596
 5641TIP3    H238339   3.220   6.522   6.514 -0.0201 -0.0798 -0.4944
 5642TIP3   OH238340   5.161   1.882  13.776 -0.6308  0.4654 -0.1824
 5642TIP3    H138341   5.132   1.884  13.685 -2.3939 -0.4636  0.2952
 5642TIP3    H238342   5.215   1.803  13.782 -1.6606 -0.2589 -0.1462
 5643TIP3   OH238343   5.807   0.272  15.554 -0.3355 -0.0506 -0.2321
 5643TIP3    H138344   5.858   0.258  15.634 -1.7347 -1.5282  0.4505
 5643TIP3    H238345   5.859   0.229  15.486 -0.2941 -0.9074  0.3204
 5644TIP3   OH238346   3.496   2.791  14.668 -0.3403 -0.1841 -0.4964
 5644TIP3    H138347   3.450   2.722  14.716  0.7084 -0.3798  0.2680
 5644TIP3    H238348   3.579   2.801  14.715 -0.9954  2.5490  0.2647
 5645TIP3   OH238349   5.798   2.921   3.215 -0.9156 -0.2794 -0.3613
 5645TIP3    H138350   5.854   2.908   3.138 -0.8119  1.2863 -0.5780
 5645TIP3    H238351   5.779   2.832   3.246  1.8793 -0.8838 -0.1123
 5646TIP3   OH238352   5.436   1.080   5.307  0.5065 -0.0939  0.8247
 5646TIP3    H138353   5.389   1.008   5.349  0.0321 -0.3066 -0.0507
 5646TIP3    H238354   5.513   1.093   5.362 -0.3856  0.0309  2.0911
 5647TIP3   OH238355   6.458   1.130   6.163  0.2536 -0.5715 -0.0695
 5647TIP3    H138356   6.379   1.176   6.190  0.3427 -0.4237 -0.0619
 5647TIP3    H238357   6.528   1.195   6.171  0.5847 -1.0401  1.1004
 5648TIP3   OH238358   0.985   1.580   4.861 -0.2132  0.3142 -0.3597
 5648TIP3    H138359   0.950   1.533   4.786 -3.3243  0.3007  0.9223
 5648TIP3    H238360   0.985   1.672   4.834 -1.0468  0.2792 -0.4989
 5649TIP3   OH238361   1.371   4.331  15.243  0.4162  0.1974 -0.6029
 5649TIP3    H138362   1.367   4.401  15.308 -0.2026 -0.1660 -0.2431
 5649TIP3    H238363   1.422   4.369  15.171  1.4358  0.4779  0.2352
 5650TIP3   OH238364   0.197   0.421   0.744  0.4686 -0.1338  0.0627
 5650TIP3    H138365   0.228   0.372   0.820 -1.3244 -3.0758 -0.8924
 5650TIP3    H238366   0.206   0.359   0.671 -0.5492  1.5250 -1.5559
 5651TIP3   OH238367   1.008   1.024  14.563 -0.2552  0.2400  0.0457
 5651TIP3    H138368   1.077   1.000  14.625 -0.7319 -2.2148 -0.2724
 5651TIP3    H238369   0.954   1.087  14.610  1.2191  0.9199  0.9093
 5652TIP3   OH238370   2.170   6.774   5.328 -0.0333  0.3582  0.1815
 5652TIP3    H138371   2.229   6.830   5.379 -1.6373  1.7252  0.6291
 5652TIP3    H238372   2.210   6.770   5.241  2.3475 -1.3746  1.2442
 5653TIP3   OH238373   4.391   0.310  15.916  0.3060 -0.3399  0.3792
 5653TIP3    H138374   4.301   0.337  15.898  0.8450  1.3633  0.0026
 5653TIP3    H238375   4.389   0.215  15.913 -1.7540 -0.4032  1.7246
 5654TIP3   OH238376   6.461   6.092  13.417  0.0056 -0.0380 -0.3406
 5654TIP3    H138377   6.518   6.131  13.483 -0.9083  1.0395 -0.1597
 5654TIP3    H238378   6.492   6.128  13.334  0.4422 -0.5164 -0.3877
 5655TIP3   OH238379   6.305   1.434   0.306 -0.4773 -0.5812 -0.4538
 5655TIP3    H138380   6.278   1.458   0.394  0.2344  1.8544 -0.8288
 5655TIP3    H238381   6.223   1.412   0.261 -0.9903 -0.5609  0.4583
 5656TIP3   OH238382   1.017   0.467   2.678 -0.1520 -0.7309 -0.5597
 5656TIP3    H138383   0.985   0.483   2.589 -0.3164 -0.2056 -0.4089
 5656TIP3    H238384   0.983   0.540   2.729  2.5572  0.7553 -0.7155
 5657TIP3   OH238385   3.586   1.406   4.396 -0.5363 -0.7710 -0.2424
 5657TIP3    H138386   3.676   1.403   4.362 -0.9693  0.1540 -1.5516
 5657TIP3    H238387   3.533   1.370   4.326 -1.2186 -1.1028  0.4383
 5658TIP3   OH238388   0.680   1.665   1.553  0.7860 -0.0886  0.2768
 5658TIP3    H138389   0.611   1.727   1.575  0.2948 -0.2913 -0.6477
 5658TIP3    H238390   0.760   1.702   1.591  0.1940  0.1975  1.2688
 5659TIP3   OH238391   6.062   5.238  11.385 -0.4561 -0.5759 -0.1582
 5659TIP3    H138392   6.067   5.142  11.387 -0.7053 -0.5858  0.0633
 5659TIP3    H238393   6.011   5.258  11.306  1.5911 -0.5332 -1.5418
 5660TIP3   OH238394   1.751   6.759  12.954 -0.1463  0.1077  0.1756
 5660TIP3    H138395   1.719   6.671  12.976  0.9778 -0.3630  0.0068
 5660TIP3    H238396   1.808   6.782  13.028  2.2861 -0.7661 -1.3079
 5661TIP3   OH238397   6.333   1.194  16.058 -0.3851 -0.2295  0.0658
 5661TIP3    H138398   6.283   1.275  16.047 -1.5910 -1.1312 -1.5003
 5661TIP3    H238399   6.299   1.156  16.139  0.3474  0.8861  0.9345
 5662TIP3   OH238400   5.027   6.180  12.719 -0.1122  0.5300  0.0451
 5662TIP3    H138401   4.996   6.263  12.756  1.0355  1.1923 -0.4230
 5662TIP3    H238402   4.974   6.168  12.640 -0.5418  0.6196  0.3137
 5663TIP3   OH238403   2.154   3.308   4.387 -0.2933  0.4423 -0.2795
 5663TIP3    H138404   2.238   3.353   4.382  0.0594 -0.1197  0.3996
 5663TIP3    H238405   2.124   3.302   4.296 -0.6090  2.4749 -0.3619
 5664TIP3   OH238406   6.772   1.331  15.456 -0.3252 -0.4719 -0.5638
 5664TIP3    H138407   6.684   1.336  15.419 -0.4799 -1.3171 -0.3348
 5664TIP3    H238408   6.794   1.238  15.453  0.8064 -0.2064 -1.1653
 5665TIP3   OH238409   3.241   3.621   6.434 -0.7482 -0.7388 -0.7401
 5665TIP3    H138410   3.324   3.661   6.409  0.3432 -1.0130  2.1345
 5665TIP3    H238411   3.200   3.685   6.492 -0.2932 -2.4928  1.6341
 5666TIP3   OH238412   2.915   1.304  14.441  0.5074  0.2551 -0.3132
 5666TIP3    H138413   2.938   1.277  14.529 -1.6184  0.2847  0.3171
 5666TIP3    H238414   2.929   1.227  14.387  2.6758  0.4889 -0.1667
 5667TIP3   OH238415   5.763   4.330  15.604 -0.3602 -0.6983  0.4788
 5667TIP3    H138416   5.849   4.291  15.624  1.0796  2.1319  0.3452
 5667TIP3    H238417   5.751   4.396  15.672 -0.4222  1.7629 -1.7707
 5668TIP3   OH238418   2.030   2.981  13.821  0.0880  0.8948  0.4372
 5668TIP3    H138419   1.943   2.955  13.792  0.4693 -1.4392  1.1886
 5668TIP3    H238420   2.090   2.928  13.768  1.0207  1.5245  0.8197
 5669TIP3   OH238421   2.439   6.700   2.975 -0.0714  0.4530 -0.0338
 5669TIP3    H138422   2.432   6.652   3.057 -0.8044  0.9945  0.2282
 5669TIP3    H238423   2.383   6.652   2.914 -1.1330  1.1753  0.3382
 5670TIP3   OH238424   1.482   3.430  11.127  0.1443 -0.2120 -0.2707
 5670TIP3    H138425   1.514   3.340  11.118  1.3807  0.2090 -0.2647
 5670TIP3    H238426   1.473   3.442  11.222 -2.3195 -1.0665 -0.3179
 5671TIP3   OH238427   6.416   5.141   4.116  0.3200  0.3101  0.5517
 5671TIP3    H138428   6.485   5.208   4.108  1.0925 -0.6874 -1.7769
 5671TIP3    H238429   6.336   5.185   4.089  0.4222  0.8716  1.1401
 5672TIP3   OH238430   0.193   1.499  12.819  0.6191 -0.0229 -0.1119
 5672TIP3    H138431   0.158   1.585  12.797  0.1416  0.1473  1.2246
 5672TIP3    H238432   0.119   1.452  12.858  1.1896 -0.6032  0.2873
 5673TIP3   OH238433   0.397   2.226  16.348 -0.9625  0.0765  0.3576
 5673TIP3    H138434   0.388   2.290  16.278 -3.0252 -0.3270  0.1932
 5673TIP3    H238435   0.491   2.213  16.356 -0.6333  0.0453 -2.4220
 5674TIP3   OH238436   2.734   2.314  11.258  0.6582  0.7574  0.6275
 5674TIP3    H138437   2.816   2.358  11.236 -0.0059  0.8768 -2.0185
 5674TIP3    H238438   2.673   2.341  11.189 -1.6951  0.7871  2.5539
 5675TIP3   OH238439   5.777   6.409   5.663  0.0321  0.5054  0.2375
 5675TIP3    H138440   5.778   6.341   5.596 -0.9377  0.1294  0.5903
 5675TIP3    H238441   5.833   6.478   5.627  1.6360 -0.7563  0.1894
 5676TIP3   OH238442   2.644   0.371   1.003 -0.4028  0.2168  0.1931
 5676TIP3    H138443   2.650   0.306   1.073 -0.4187 -0.7915 -0.7290
 5676TIP3    H238444   2.576   0.431   1.033  0.7442  0.8022  1.8287
 5677TIP3   OH238445   3.928   0.045   4.024 -0.5894  0.1353  0.3456
 5677TIP3    H138446   3.976   0.091   3.955 -0.6757 -0.7421 -0.3134
 5677TIP3    H238447   3.845   0.092   4.031 -0.6654  0.0951 -0.2979
 5678TIP3   OH238448   5.940   6.078  11.418 -0.5863  0.2171 -0.4925
 5678TIP3    H138449   6.030   6.098  11.392 -0.5493  0.3951 -0.2279
 5678TIP3    H238450   5.915   6.005  11.361 -0.4950  0.5810 -1.0099
 5679TIP3   OH238451   1.367   4.537  15.427 -0.8556 -0.0333  0.6878
 5679TIP3    H138452   1.374   4.632  15.416 -0.9692 -0.1218 -0.1563
 5679TIP3    H238453   1.273   4.522  15.442 -0.8393 -0.0174  0.8092
 5680TIP3   OH238454   1.974   5.770  15.774  0.3067  0.4112 -0.1654
 5680TIP3    H138455   2.057   5.739  15.809 -0.7648 -2.7192 -0.0903
 5680TIP3    H238456   1.917   5.777  15.851  0.5512  3.1619 -0.1161
 5681TIP3   OH238457   1.232   6.010   1.898  0.3136 -0.1635 -0.4644
 5681TIP3    H138458   1.148   6.054   1.914  0.7885  1.5980 -2.4087
 5681TIP3    H238459   1.282   6.025   1.978 -0.6937  0.0380  0.1531
 5682TIP3   OH238460   5.043   2.302  16.420  0.1483  0.5987 -0.5822
 5682TIP3    H138461   5.023   2.396  16.423 -1.1395  0.3463 -0.3822
 5682TIP3    H238462   5.046   2.275  16.511  0.7007  0.4848 -0.6355
 5683TIP3   OH238463   2.633   0.991  17.008  0.2728  0.3857 -0.0335
 5683TIP3    H138464   2.629   1.058  16.940  0.4835  1.1197  0.6652
 5683TIP3    H238465   2.643   0.909  16.959  1.2312  0.9647 -0.8642
 5684TIP3   OH238466   1.048   2.183   3.472  0.0185  1.1315  0.0907
 5684TIP3    H138467   1.088   2.211   3.555 -0.7378  0.5557  0.6676
 5684TIP3    H238468   0.983   2.118   3.498 -1.0539  1.7809 -0.8439
 5685TIP3   OH238469   2.781   0.848  12.672  0.5594 -0.1934  0.4122
 5685TIP3    H138470   2.688   0.854  12.649  0.8522 -1.1298 -1.0931
 5685TIP3    H238471   2.782   0.863  12.767 -0.7394  3.3804  0.0215
 5686TIP3   OH238472   2.150   4.166  15.506 -0.1365 -0.0568 -0.0672
 5686TIP3    H138473   2.069   4.191  15.461 -0.9700  0.0983  1.4488
 5686TIP3    H238474   2.120   4.126  15.588  1.3373  1.3900  1.2401
 5687TIP3   OH238475   3.293   2.122  12.209 -0.3185  0.2576 -0.0552
 5687TIP3    H138476   3.235   2.051  12.182  0.2709 -0.7687  1.2556
 5687TIP3    H238477   3.376   2.102  12.167 -0.5491  1.0218 -0.8985
 5688TIP3   OH238478   5.974   6.441  11.397  0.3406 -0.0226 -0.1033
 5688TIP3    H138479   6.045   6.379  11.414  0.5981 -0.0511 -1.1891
 5688TIP3    H238480   5.930   6.405  11.319 -1.6858 -0.7176  1.2724
 5689TIP3   OH238481   6.499   0.523   4.554 -0.1620  0.6404 -0.6318
 5689TIP3    H138482   6.466   0.539   4.466  0.8591  1.2208 -0.9260
 5689TIP3    H238483   6.437   0.568   4.611 -0.7511  0.3824 -1.0532
 5690TIP3   OH238484   4.443   4.263   3.694  0.2149  0.3156 -0.0203
 5690TIP3    H138485   4.523   4.314   3.709  1.6338 -2.0894  1.2380
 5690TIP3    H238486   4.430   4.215   3.776 -1.0007 -1.3323 -1.1244
 5691TIP3   OH238487   6.135   3.029   1.297 -0.6631 -0.0587 -0.6229
 5691TIP3    H138488   6.171   3.114   1.272 -1.2782  0.6335  0.7075
 5691TIP3    H238489   6.101   2.992   1.215 -0.0362  0.8018 -1.2883
 5692TIP3   OH238490   3.838   1.163  14.799 -0.2941 -0.2736  0.1577
 5692TIP3    H138491   3.805   1.072  14.800 -2.6357  0.5009  0.9889
 5692TIP3    H238492   3.807   1.200  14.881 -0.0478  1.5169 -0.5226
 5693TIP3   OH238493   4.716   4.897  17.231  0.0749  0.6011 -0.1177
 5693TIP3    H138494   4.797   4.852  17.209 -0.7044 -1.2686  0.6496
 5693TIP3    H238495   4.685   4.935  17.149  0.4171 -0.8624 -0.9342
 5694TIP3   OH238496   1.249   1.545   4.807 -0.0307  0.7794 -0.7232
 5694TIP3    H138497   1.163   1.538   4.849 -0.2243  2.0467 -0.8705
 5694TIP3    H238498   1.229   1.537   4.713  0.5881 -3.9509 -0.7000
 5695TIP3   OH238499   4.747   3.394  13.622 -0.0430 -0.4779  0.5346
 5695TIP3    H138500   4.672   3.438  13.582  1.3338  0.1787 -1.4885
 5695TIP3    H238501   4.709   3.322  13.672 -2.1127  0.8654  1.0399
 5696TIP3   OH238502   6.691   1.846   5.291 -0.4780  0.2913  0.1311
 5696TIP3    H138503   6.613   1.801   5.322 -0.2998  0.1335  0.3600
 5696TIP3    H238504   6.717   1.902   5.364  0.9889 -1.4250  1.0266
 5697TIP3   OH238505   5.614   1.346   0.802 -0.0922 -0.0370  0.3995
 5697TIP3    H138506   5.565   1.263   0.797  0.8644 -0.7967  2.5413
 5697TIP3    H238507   5.580   1.389   0.881 -0.7998  1.8202 -0.8555
 5698TIP3   OH238508   6.393   0.217  14.923 -0.5474  0.1702  0.4821
 5698TIP3    H138509   6.359   0.277  14.990  0.9138  1.9114 -0.2662
 5698TIP3    H238510   6.345   0.241  14.844  2.8869  3.5235 -0.9135
 5699TIP3   OH238511   0.465   4.351   6.502 -0.1906  0.1074  0.2531
 5699TIP3    H138512   0.503   4.263   6.493  0.7991  0.7410 -2.8906
 5699TIP3    H238513   0.492   4.380   6.589  1.8548 -1.6145  0.2747
 5700TIP3   OH238514   0.093   3.302  14.048 -0.0659  0.3374  0.3214
 5700TIP3    H138515   0.071   3.326  13.958 -0.1728 -1.4148 -0.1633
 5700TIP3    H238516   0.130   3.214  14.041  0.7507  0.5055  1.9078
 5701TIP3   OH238517   4.412   1.041   0.482  0.1155 -0.4765 -1.0461
 5701TIP3    H138518   4.378   1.003   0.401  3.3822 -1.1966 -2.2150
 5701TIP3    H238519   4.501   1.068   0.461 -0.2404  3.2855  1.1601
 5702TIP3   OH238520   1.834   2.989  16.821 -0.4908  0.0255  0.5945
 5702TIP3    H138521   1.785   3.071  16.828 -0.0681  0.2841  0.5417
 5702TIP3    H238522   1.769   2.924  16.793 -0.4913  0.6685 -0.9698
 5703TIP3   OH238523   4.324   6.278  16.918  0.9512  0.2970 -0.1653
 5703TIP3    H138524   4.254   6.284  16.853  1.5027  1.6874 -0.6623
 5703TIP3    H238525   4.381   6.208  16.887 -0.2525 -0.9314  0.3055
 5704TIP3   OH238526   4.997   4.755  11.603 -0.0983 -0.7015 -0.4413
 5704TIP3    H138527   4.947   4.816  11.548 -0.3247 -1.3789 -1.0033
 5704TIP3    H238528   4.931   4.696  11.639 -0.2874  1.0564  2.4184
 5705TIP3   OH238529   2.892   1.402   1.379  0.2281  0.7072  0.2031
 5705TIP3    H138530   2.966   1.391   1.319 -1.3046 -0.0615 -1.6674
 5705TIP3    H238531   2.930   1.393   1.466  2.1285 -1.0776 -0.7209
 5706TIP3   OH238532   1.476   0.813   0.062 -0.3103 -0.0161  0.3116
 5706TIP3    H138533   1.514   0.876   0.000 -0.7760 -0.8007 -0.8033
 5706TIP3    H238534   1.443   0.867   0.134 -1.6140  1.1280 -1.0863
 5707TIP3   OH238535   0.314   5.555  11.292 -0.2508  0.7751  0.8429
 5707TIP3    H138536   0.326   5.634  11.344  1.6223 -0.8673  3.1044
 5707TIP3    H238537   0.400   5.537  11.255 -0.7739  0.0801 -0.0692
 5708TIP3   OH238538   1.950   1.604  13.329  0.0815  0.7318  0.0244
 5708TIP3    H138539   2.021   1.568  13.382  0.2979 -0.4322 -1.0293
 5708TIP3    H238540   1.902   1.527  13.297  0.7237  1.3193 -2.5263
 5709TIP3   OH238541   1.720   1.289  15.736  0.0551  0.0614  0.3819
 5709TIP3    H138542   1.655   1.287  15.806 -0.3290  0.7941  0.0631
 5709TIP3    H238543   1.721   1.380  15.707 -0.7103 -0.4600 -1.4083
 5710TIP3   OH238544   4.220   3.910   5.252  0.6131  0.4403  0.6202
 5710TIP3    H138545   4.211   3.969   5.177  1.5286  1.0350  0.9685
 5710TIP3    H238546   4.214   3.822   5.214 -0.5073  0.7372  0.0667
 5711TIP3   OH238547   3.288   1.419   6.122  0.0998  0.2174 -0.3583
 5711TIP3    H138548   3.368   1.452   6.081  0.0671  0.3870 -0.2884
 5711TIP3    H238549   3.317   1.377   6.202 -0.0243  1.6956  0.4965
 5712TIP3   OH238550   0.355   5.249  14.554 -0.4353  0.2472  0.0260
 5712TIP3    H138551   0.344   5.216  14.465  1.9518 -2.0152  0.4496
 5712TIP3    H238552   0.266   5.258  14.588 -1.3462 -0.5659 -1.9711
 5713TIP3   OH238553   3.094   3.471   0.812  0.3632  0.2029 -0.2314
 5713TIP3    H138554   3.020   3.446   0.757 -1.1955  1.6780  1.1099
 5713TIP3    H238555   3.057   3.529   0.878  2.7862  1.2545  0.3114
 5714TIP3   OH238556   4.658   4.688   3.958  0.0286  0.2565 -0.2310
 5714TIP3    H138557   4.723   4.620   3.975 -0.6931 -0.6134 -0.8413
 5714TIP3    H238558   4.689   4.733   3.880  0.9110  1.1535  0.6231
 5715TIP3   OH238559   2.533   0.334   3.533  0.4659 -0.5950  0.5614
 5715TIP3    H138560   2.533   0.358   3.441  0.6033  0.2904  0.7888
 5715TIP3    H238561   2.625   0.329   3.557  0.4592  1.9664  1.3468
 5716TIP3   OH238562   1.733   3.529  15.632 -0.0549 -0.1615 -0.1749
 5716TIP3    H138563   1.759   3.592  15.699  1.5201  0.0240 -0.9129
 5716TIP3    H238564   1.810   3.473  15.621 -0.8478 -1.1806 -0.7096
 5717TIP3   OH238565   0.107   0.707   2.009 -0.3421 -0.3850 -0.4159
 5717TIP3    H138566   0.156   0.625   2.014  0.5449  0.0465 -1.5285
 5717TIP3    H238567   0.061   0.703   1.926  0.3748  0.5701 -0.8880
 5718TIP3   OH238568   4.805   6.029  12.791 -0.4113  0.2373 -0.0622
 5718TIP3    H138569   4.745   6.100  12.812 -0.9452  0.0272 -0.8324
 5718TIP3    H238570   4.892   6.070  12.795 -0.5710  0.4659  1.3470
 5719TIP3   OH238571   4.349   0.936  14.761  0.4918  0.3400  0.4570
 5719TIP3    H138572   4.264   0.917  14.722  0.8325  3.3997 -2.2274
 5719TIP3    H238573   4.337   1.021  14.803  2.1610  0.8224  0.0273
 5720TIP3   OH238574   2.220   6.453   5.761 -0.7426 -0.0944  0.1028
 5720TIP3    H138575   2.227   6.366   5.723  0.3382 -0.0526  0.1629
 5720TIP3    H238576   2.305   6.494   5.742 -1.9809  1.7616 -1.8426
 5721TIP3   OH238577   0.846   2.952  10.692  0.1044 -0.6432  0.3394
 5721TIP3    H138578   0.800   2.917  10.616  0.5861 -1.1473  0.2714
 5721TIP3    H238579   0.850   2.879  10.753  0.0601 -0.3520  0.6906
 5722TIP3   OH238580   6.516   4.552  14.490 -0.5011 -0.1873  0.8418
 5722TIP3    H138581   6.517   4.554  14.585  2.2631  0.4405  0.8991
 5722TIP3    H238582   6.603   4.584  14.464 -0.7240 -1.4048 -1.8536
 5723TIP3   OH238583   6.000   1.146   1.653  0.0145  0.6259  0.1071
 5723TIP3    H138584   6.048   1.226   1.631  0.4530 -0.3997 -3.3342
 5723TIP3    H238585   5.934   1.174   1.716  0.6934  3.5258 -0.3362
 5724TIP3   OH238586   5.051   1.290  12.258 -0.5369 -0.3703  0.1027
 5724TIP3    H138587   5.114   1.225  12.289 -1.4044 -0.6105  1.4508
 5724TIP3    H238588   5.025   1.338  12.337 -0.3145  1.2830 -0.7835
 5725TIP3   OH238589   3.454   3.366  12.323 -0.3456 -0.1869 -0.3211
 5725TIP3    H138590   3.438   3.290  12.379 -0.3317 -1.4676 -1.9627
 5725TIP3    H238591   3.533   3.406  12.359  0.3231 -1.6506 -0.0691
 5726TIP3   OH238592   3.848   2.694  13.378  0.3262 -0.1581  1.2806
 5726TIP3    H138593   3.898   2.729  13.452  0.0851 -1.8313  2.2772
 5726TIP3    H238594   3.763   2.670  13.415 -0.0351 -0.4363  0.3152
 5727TIP3   OH238595   2.496   2.187   5.198  0.2479 -0.1850 -0.1615
 5727TIP3    H138596   2.420   2.144   5.236  0.1685 -0.6776 -0.8642
 5727TIP3    H238597   2.561   2.189   5.268 -0.5579  0.6540  0.5937
 5728TIP3   OH238598   5.683   2.872   4.021 -0.0615  0.6041  0.0250
 5728TIP3    H138599   5.667   2.964   4.040  2.6097  0.9131  1.3216
 5728TIP3    H238600   5.777   2.860   4.039 -0.0945 -2.1285 -1.1204
 5729TIP3   OH238601   3.757   2.741  12.204  0.3094  0.0473  0.1748
 5729TIP3    H138602   3.848   2.744  12.233  0.7112 -1.1453 -0.8731
 5729TIP3    H238603   3.752   2.663  12.149 -1.1845  0.4602 -0.3175
 5730TIP3   OH238604   3.788   0.664   0.279  0.2908 -0.3107  0.0385
 5730TIP3    H138605   3.717   0.619   0.232  0.0588 -0.2434  0.3211
 5730TIP3    H238606   3.866   0.645   0.228 -0.1468  0.8291 -1.1059
 5731TIP3   OH238607   3.761   3.079  13.020 -0.2780 -0.0395  0.2523
 5731TIP3    H138608   3.752   2.990  13.055 -2.8669  0.4801  1.1807
 5731TIP3    H238609   3.684   3.126  13.054  1.0878  2.6221 -0.0470
 5732TIP3   OH238610   0.531   5.903   5.000  0.1139  0.4199 -0.2347
 5732TIP3    H138611   0.512   5.864   5.086  0.7129 -0.2981 -0.4159
 5732TIP3    H238612   0.626   5.892   4.990  0.0621  0.5956 -0.9491
 5733TIP3   OH238613   6.197   0.386   0.695  0.0871  0.2314  0.0017
 5733TIP3    H138614   6.274   0.441   0.711  0.6227 -0.3664 -0.4549
 5733TIP3    H238615   6.139   0.440   0.642  0.7341  0.2729 -0.6883
 5734TIP3   OH238616   1.824   3.104   0.060  0.0544  0.6927  0.7272
 5734TIP3    H138617   1.841   3.090  -0.033 -1.2353  0.6547  0.4787
 5734TIP3    H238618   1.805   3.017   0.094 -3.3523  1.1028  0.1627
 5735TIP3   OH238619   1.483   3.494   1.863 -0.3913  0.1571  0.5226
 5735TIP3    H138620   1.404   3.513   1.812  0.4177 -0.0618 -0.8735
 5735TIP3    H238621   1.472   3.543   1.944 -2.1304 -0.1940  0.5197
 5736TIP3   OH238622   5.998   0.179   4.242 -0.8202 -0.7361  0.3165
 5736TIP3    H138623   6.049   0.169   4.161 -0.2600 -1.7584  0.7791
 5736TIP3    H238624   5.960   0.266   4.235 -0.8662 -0.8420 -1.1038
 5737TIP3   OH238625   5.694   6.188   4.272  0.3019  0.4102 -0.3007
 5737TIP3    H138626   5.637   6.114   4.250  0.2222  0.1503  0.7493
 5737TIP3    H238627   5.703   6.236   4.190 -0.8315  0.0490 -0.6491
 5738TIP3   OH238628   1.701   0.263   5.557  0.2915  0.5081 -0.5422
 5738TIP3    H138629   1.625   0.288   5.505 -0.0964 -0.6164 -0.5444
 5738TIP3    H238630   1.670   0.191   5.612  0.9999  0.9217  0.4321
 5739TIP3   OH238631   2.520   2.347   6.074 -0.1427  0.8725  0.0135
 5739TIP3    H138632   2.447   2.302   6.118  0.9129  0.5157  1.4937
 5739TIP3    H238633   2.491   2.357   5.984 -1.4443 -0.5467  0.2251
 5740TIP3   OH238634   5.898   5.846   3.706  0.1470  0.0055  0.0973
 5740TIP3    H138635   5.875   5.756   3.683 -1.5217  0.5631 -0.5676
 5740TIP3    H238636   5.895   5.849   3.802 -2.1448 -0.1019  0.0611
 5741TIP3   OH238637   0.002   1.930  17.220  0.4723 -0.3763  0.5101
 5741TIP3    H138638   0.068   1.865  17.244  0.6735 -0.2943  0.1789
 5741TIP3    H238639   0.051   2.012  17.214  0.4338 -0.4045 -0.2469
 5742TIP3   OH238640   4.438   0.226   4.502  0.0472 -0.2315  0.4005
 5742TIP3    H138641   4.400   0.138   4.497  1.4456 -1.1488  3.4692
 5742TIP3    H238642   4.389   0.269   4.572  1.3883  0.3067  1.0336
 5743TIP3   OH238643   4.204   6.633  15.400 -0.0479  0.4369 -0.0097
 5743TIP3    H138644   4.155   6.698  15.351  0.2968  0.6616 -0.0584
 5743TIP3    H238645   4.215   6.672  15.487 -0.8717 -0.0623  0.3371
 5744TIP3   OH238646   1.893   1.332  11.175 -0.3847  0.2225  0.1645
 5744TIP3    H138647   1.964   1.376  11.129  0.5481 -0.1850  1.1617
 5744TIP3    H238648   1.931   1.308  11.260 -0.7700 -2.6066 -0.3544
 5745TIP3   OH238649   2.359   6.177   2.186 -0.2020  0.3543  0.3338
 5745TIP3    H138650   2.335   6.085   2.180 -0.8636  0.5071  0.5519
 5745TIP3    H238651   2.284   6.224   2.148  0.8852  0.7376 -1.4555
 5746TIP3   OH238652   0.378   2.383   2.877  0.2171 -0.1624  0.3904
 5746TIP3    H138653   0.414   2.460   2.920  1.2388 -0.4781  0.1455
 5746TIP3    H238654   0.358   2.412   2.788  1.4465 -0.3805  0.0213
 5747TIP3   OH238655   5.737   2.593  11.281 -0.2750 -0.4164 -0.1238
 5747TIP3    H138656   5.654   2.581  11.236  1.6730  0.6036 -4.6561
 5747TIP3    H238657   5.797   2.534  11.236  2.2111  1.6244  0.2563
 5748TIP3   OH238658   2.568   4.323   2.711  0.2839  0.0614  0.2232
 5748TIP3    H138659   2.583   4.231   2.735  0.2791  0.2736  1.0671
 5748TIP3    H238660   2.656   4.361   2.707  0.2308  0.2621  0.8855
 5749TIP3   OH238661   2.864   0.586  12.814  0.2942 -0.3317 -0.0161
 5749TIP3    H138662   2.938   0.625  12.767  1.8286 -2.2237  0.6800
 5749TIP3    H238663   2.788   0.605  12.759  0.9379  3.0768  0.0076
 5750TIP3   OH238664   6.031   1.378  12.655  0.0701 -0.4475  0.0322
 5750TIP3    H138665   6.037   1.285  12.634 -1.6976 -0.3236 -1.3324
 5750TIP3    H238666   5.937   1.396  12.658  0.3312  1.6903 -1.7824
 5751TIP3   OH238667   5.240   1.934  15.670  0.3852 -0.1024 -0.7705
 5751TIP3    H138668   5.266   1.951  15.580 -2.3651  0.7244 -1.5165
 5751TIP3    H238669   5.304   1.981  15.723 -0.1495  2.8037 -2.4747
 5752TIP3   OH238670   5.820   2.420   0.343 -0.1859  0.3093  0.0714
 5752TIP3    H138671   5.775   2.441   0.425  0.6852  0.2866  0.5707
 5752TIP3    H238672   5.761   2.450   0.274 -0.3140  1.6044  0.7264
 5753TIP3   OH238673   4.971   2.644   4.984  0.0356  0.0557  0.1254
 5753TIP3    H138674   5.049   2.646   4.928 -0.3610  0.3021 -0.4327
 5753TIP3    H238675   4.905   2.602   4.930  0.1239 -1.3571  1.0639
 5754TIP3   OH238676   4.894   4.378   3.049 -0.2867 -0.1365  0.1315
 5754TIP3    H138677   4.821   4.386   3.109  0.8056  2.3130  1.2883
 5754TIP3    H238678   4.960   4.437   3.084  1.3939 -0.5513 -2.1084
 5755TIP3   OH238679   5.204   5.485  16.261 -0.4397 -0.3150 -0.5049
 5755TIP3    H138680   5.295   5.458  16.259 -0.9446 -2.0844 -1.0066
 5755TIP3    H238681   5.207   5.580  16.248  1.3033 -0.3763 -0.7392
 5756TIP3   OH238682   1.646   5.797  13.691 -0.3059  0.1577  0.3148
 5756TIP3    H138683   1.611   5.867  13.636 -0.9504 -0.1907  0.2677
 5756TIP3    H238684   1.588   5.723  13.675  0.2023 -0.3052  0.5746
 5757TIP3   OH238685   4.041   1.602   4.141  0.0074 -0.2192 -0.2265
 5757TIP3    H138686   4.041   1.531   4.205  0.4123  1.2037  1.4108
 5757TIP3    H238687   3.984   1.669   4.179 -0.8022  0.1536 -1.9869
 5758TIP3   OH238688   3.729   0.923  12.418  0.2052 -0.1690 -0.6232
 5758TIP3    H138689   3.807   0.914  12.474 -0.5659  0.5891  0.6228
 5758TIP3    H238690   3.690   1.006  12.445 -1.3062 -0.7643 -0.8810
 5759TIP3   OH238691   5.760   5.193   4.725 -0.2493 -0.1351 -0.2600
 5759TIP3    H138692   5.808   5.165   4.647 -0.4164  1.2051 -0.8820
 5759TIP3    H238693   5.827   5.226   4.785 -0.2012 -0.3246 -0.2086
 5760TIP3   OH238694   6.161   5.016  17.357 -0.7493 -0.2259  0.2234
 5760TIP3    H138695   6.147   5.109  17.341 -0.5352 -0.0910  0.7964
 5760TIP3    H238696   6.204   4.984  17.278  1.4940  0.6997  0.9748
 5761TIP3   OH238697   5.760   3.677  14.134  0.5820  0.1439 -1.0236
 5761TIP3    H138698   5.700   3.628  14.079 -0.1177  1.5551 -1.5713
 5761TIP3    H238699   5.836   3.693  14.078  0.2098  0.8870 -1.3274
 5762TIP3   OH238700   4.693   1.506   2.781  0.0013  0.2301  0.2592
 5762TIP3    H138701   4.780   1.484   2.746  2.1338  1.8949  3.8445
 5762TIP3    H238702   4.654   1.421   2.803  0.9666 -0.5297 -0.8176
 5763TIP3   OH238703   0.589   2.752  13.759 -0.6202  0.2718  0.5751
 5763TIP3    H138704   0.670   2.705  13.741 -0.4336  0.5405  0.7044
 5763TIP3    H238705   0.536   2.689  13.809 -0.4574  0.1266  0.5678
 5764TIP3   OH238706   0.693   2.151   3.103 -0.1672  0.3629 -0.2399
 5764TIP3    H138707   0.667   2.155   3.195 -1.4887 -1.6631 -0.4839
 5764TIP3    H238708   0.610   2.150   3.055  0.4903 -0.0007 -1.3845
 5765TIP3   OH238709   1.217   1.991  14.769 -0.2011 -0.7856  0.3670
 5765TIP3    H138710   1.263   1.931  14.828  0.0874  0.2271  1.2116
 5765TIP3    H238711   1.128   1.993  14.803 -0.4722 -1.4818 -0.2691
 5766TIP3   OH238712   3.966   0.599  13.455 -0.4988 -0.1676 -0.2593
 5766TIP3    H138713   3.935   0.685  13.427  0.0273  0.0538 -0.1728
 5766TIP3    H238714   3.901   0.537  13.421 -0.7159  0.2373 -0.5778
 5767TIP3   OH238715   2.966   4.407  14.087  0.1228  0.0814  0.4116
 5767TIP3    H138716   2.969   4.458  14.167  0.8373  1.4039 -0.4337
 5767TIP3    H238717   3.051   4.420  14.046 -0.6853  0.5086 -1.2099
 5768TIP3   OH238718   0.420   3.104   4.816  0.3161 -0.4289 -0.1450
 5768TIP3    H138719   0.375   3.053   4.883  0.0880 -0.0455 -0.0016
 5768TIP3    H238720   0.454   3.039   4.755 -0.2715 -0.7319 -0.1559
 5769TIP3   OH238721   6.303   1.863   3.715 -0.1430  0.2993 -0.2776
 5769TIP3    H138722   6.291   1.922   3.789 -0.8129 -1.5438  1.1498
 5769TIP3    H238723   6.398   1.862   3.701  0.0852  0.0181  1.1417
 5770TIP3   OH238724   6.330   4.001  16.275 -0.1962  0.1450  0.4490
 5770TIP3    H138725   6.403   4.062  16.277 -0.7864  0.8943 -0.1689
 5770TIP3    H238726   6.345   3.942  16.349  1.2711 -0.0071  0.0476
 5771TIP3   OH238727   3.376   5.107  14.223 -0.1137  0.2263  0.1004
 5771TIP3    H138728   3.290   5.071  14.207 -0.4114 -0.4090  2.6300
 5771TIP3    H238729   3.429   5.032  14.250  0.5304  0.9471  0.9191
 5772TIP3   OH238730   3.181   5.725  11.198  0.2017  0.0168 -0.2972
 5772TIP3    H138731   3.096   5.681  11.191  0.5757 -0.7330 -0.2790
 5772TIP3    H238732   3.244   5.661  11.163  0.6517  0.9392 -1.2206
 5773TIP3   OH238733   4.361   1.759   0.230  0.3479 -0.0769  0.0362
 5773TIP3    H138734   4.322   1.689   0.283  0.1159 -0.0692 -0.1228
 5773TIP3    H238735   4.290   1.823   0.219 -0.7653 -1.6554 -3.2116
 5774TIP3   OH238736   2.430   0.719   5.628 -0.5600  0.0804  0.3787
 5774TIP3    H138737   2.488   0.730   5.703 -1.1267 -1.4862  1.0974
 5774TIP3    H238738   2.342   0.718   5.665 -0.8430 -0.7208 -0.2883
 5775TIP3   OH238739   0.891   1.693   2.230 -0.2331 -0.1988 -0.3020
 5775TIP3    H138740   0.919   1.716   2.318 -0.3698  0.6334 -0.4679
 5775TIP3    H238741   0.805   1.654   2.241 -0.8194  1.0806 -0.1700
 5776TIP3   OH238742   2.779   1.805   4.899 -0.0111 -0.2662  0.5681
 5776TIP3    H138743   2.742   1.786   4.813 -0.5668  0.8858  0.5243
 5776TIP3    H238744   2.707   1.846   4.947  0.8035  0.7637  0.9490
 5777TIP3   OH238745   3.510   4.632   5.133  0.2779 -0.1405 -0.0654
 5777TIP3    H138746   3.475   4.720   5.120 -0.7028 -0.5001  0.0966
 5777TIP3    H238747   3.552   4.635   5.219 -1.0446 -0.2312  0.5983
 5778TIP3   OH238748   0.777   1.613   3.856  0.6192  0.0645  0.3185
 5778TIP3    H138749   0.740   1.545   3.912  1.0598 -0.1112  0.4023
 5778TIP3    H238750   0.705   1.674   3.841  0.6667  0.4762  1.6256
 5779TIP3   OH238751   5.912   4.024   3.473 -0.3537  0.5909  0.3093
 5779TIP3    H138752   5.864   3.941   3.472  0.4383  0.0978  1.3594
 5779TIP3    H238753   5.880   4.068   3.552 -0.4417  1.0954 -0.0038
 5780TIP3   OH238754   3.547   2.817  16.625  0.4319  0.5326  0.3274
 5780TIP3    H138755   3.510   2.822  16.537  1.1861  0.5375  0.0014
 5780TIP3    H238756   3.471   2.817  16.684 -0.0488  1.3394 -0.2801
 5781TIP3   OH238757   1.637   5.929   3.061  0.3031 -0.5188 -0.0206
 5781TIP3    H138758   1.696   6.004   3.049 -0.5465  0.0156 -1.0752
 5781TIP3    H238759   1.651   5.902   3.151  2.2722 -0.5194 -0.2878
 5782TIP3   OH238760   4.525   6.047   4.721 -0.0392 -0.6745 -0.2828
 5782TIP3    H138761   4.454   5.985   4.735  0.9993 -1.9980 -0.6496
 5782TIP3    H238762   4.569   6.055   4.806 -1.1665  0.9143  0.2063
 5783TIP3   OH238763   5.315   1.758  16.881 -0.5857  0.1346 -0.1820
 5783TIP3    H138764   5.295   1.850  16.899  0.7608  0.3397  0.3968
 5783TIP3    H238765   5.411   1.754  16.878 -0.6078 -1.2967  0.1066
 5784TIP3   OH238766   4.621   3.492   0.730 -0.4551 -0.4841 -0.1071
 5784TIP3    H138767   4.654   3.513   0.643  0.3957 -1.0626  0.0629
 5784TIP3    H238768   4.543   3.546   0.740  0.5014  1.0224 -0.4646
 5785TIP3   OH238769   1.182   1.678   5.337 -0.3043 -0.1578  0.5417
 5785TIP3    H138770   1.273   1.699   5.361 -0.5797  1.5039  0.2676
 5785TIP3    H238771   1.175   1.584   5.351  0.6861  0.0740  3.2295
 5786TIP3   OH238772   1.054   3.275  11.198 -0.5409 -0.5299  0.1025
 5786TIP3    H138773   1.069   3.253  11.290 -1.6632  0.7498  0.6219
 5786TIP3    H238774   1.081   3.366  11.189  0.7727 -1.0071 -1.1769
 5787TIP3   OH238775   0.619   2.750  14.099  0.1868 -0.1452 -0.2082
 5787TIP3    H138776   0.551   2.685  14.117  0.5545 -1.1260 -2.1297
 5787TIP3    H238777   0.627   2.799  14.181 -1.7263 -1.0073  0.5567
 5788TIP3   OH238778   0.034   3.670   5.507  0.3824 -0.3715 -0.4361
 5788TIP3    H138779  -0.009   3.668   5.422  2.9255 -1.1079 -1.7723
 5788TIP3    H238780  -0.028   3.717   5.564 -1.6942 -0.5128 -2.4601
 5789TIP3   OH238781   1.832   4.342   5.856  0.1124 -0.4063  0.5201
 5789TIP3    H138782   1.870   4.262   5.893 -1.4228 -1.4010  0.0376
 5789TIP3    H238783   1.781   4.379   5.927  1.7002  0.7940  1.0895
 5790TIP3   OH238784   5.914   5.715   3.046 -0.3495  0.0108 -0.0089
 5790TIP3    H138785   5.982   5.649   3.059 -0.9472 -0.2798  1.9540
 5790TIP3    H238786   5.890   5.742   3.134 -0.0838  2.9295 -0.7150
 5791TIP3   OH238787   6.117   5.239  13.507 -0.0746 -0.5293 -0.7796
 5791TIP3    H138788   6.047   5.226  13.443 -1.1353 -0.5291  0.3481
 5791TIP3    H238789   6.120   5.333  13.521 -2.4332 -0.7075  1.8695
 5792TIP3   OH238790   3.402   2.365  17.097  0.4167 -0.1621  0.2854
 5792TIP3    H138791   3.390   2.378  17.003  0.4237  0.6517  0.3887
 5792TIP3    H238792   3.335   2.301  17.121  0.9371 -0.9880 -0.4088
 5793TIP3   OH238793   0.244   6.708  15.559  0.3932 -0.2641  0.7562
 5793TIP3    H138794   0.227   6.744  15.646  1.9155 -0.4584  1.1637
 5793TIP3    H238795   0.253   6.613  15.573 -0.5536 -0.4473  0.1849
 5794TIP3   OH238796   2.665   0.600  15.648 -0.2105  0.3300  0.0695
 5794TIP3    H138797   2.600   0.532  15.669  0.7774 -0.2578  1.3471
 5794TIP3    H238798   2.749   0.555  15.647  0.3921  1.3990  0.2442
 5795TIP3   OH238799   3.373   2.331   5.550 -0.6611  0.1968 -0.0522
 5795TIP3    H138800   3.416   2.369   5.627  0.9848 -1.0504 -0.3139
 5795TIP3    H238801   3.398   2.388   5.478  0.3152 -0.3372 -0.1472
 5796TIP3   OH238802   4.801   3.957  13.234 -0.6433 -0.1975  0.3313
 5796TIP3    H138803   4.754   3.878  13.260  0.0051 -0.9611 -0.7578
 5796TIP3    H238804   4.762   3.981  13.149 -2.8451  2.3338  1.8971
 5797TIP3   OH238805   4.077   3.231  12.711 -0.6904 -0.1486  0.0665
 5797TIP3    H138806   4.129   3.218  12.790  1.2842  1.3383 -0.8754
 5797TIP3    H238807   4.030   3.149  12.698  1.7203 -1.7567  0.8342
 5798TIP3   OH238808   0.679   0.926  15.603  0.2923  0.8909  0.8114
 5798TIP3    H138809   0.771   0.951  15.602  0.1513  1.4181  0.9285
 5798TIP3    H238810   0.634   0.997  15.649 -0.3798  1.3345 -0.4926
 5799TIP3   OH238811   4.950   0.390   5.660 -0.4178 -0.0629 -0.2590
 5799TIP3    H138812   4.964   0.424   5.572 -0.7515  0.7798 -0.0031
 5799TIP3    H238813   4.863   0.351   5.658 -1.8516  2.7883  0.4691
 5800TIP3   OH238814   5.283   4.188  12.197  0.6500  0.4327 -0.1888
 5800TIP3    H138815   5.246   4.111  12.154  1.9583 -0.2382 -0.1501
 5800TIP3    H238816   5.371   4.196  12.160  0.8350  1.4129  0.4309
 5801TIP3   OH238817   5.921   6.181  13.214 -0.0849  0.5895  0.0476
 5801TIP3    H138818   5.915   6.230  13.133 -0.0473  2.0087  0.8767
 5801TIP3    H238819   5.832   6.182  13.249  0.3576  2.1783  1.2394
 5802TIP3   OH238820   6.372   1.853   4.479 -0.4908  0.4846 -0.1794
 5802TIP3    H138821   6.303   1.853   4.413 -0.0596 -0.8647 -0.6635
 5802TIP3    H238822   6.432   1.923   4.452 -0.0977 -0.3252 -1.4792
 5803TIP3   OH238823   3.183   5.198   1.898 -0.2356 -0.7025 -0.0450
 5803TIP3    H138824   3.146   5.126   1.846  0.3135 -0.3913 -0.8816
 5803TIP3    H238825   3.235   5.248   1.836  0.1050 -0.0816  0.7269
 5804TIP3   OH238826   2.092   1.824   2.518  0.1308  0.1708  0.9143
 5804TIP3    H138827   2.083   1.780   2.602  1.6810  0.4219  1.2426
 5804TIP3    H238828   2.010   1.873   2.508 -1.2774 -2.0831  0.9054
 5805TIP3   OH238829   4.017   3.923  16.508 -0.4448 -0.1814  0.0120
 5805TIP3    H138830   3.962   3.872  16.449  1.2541 -0.3305 -1.5448
 5805TIP3    H238831   3.963   3.998  16.533 -1.2697 -0.1672 -1.6573
 5806TIP3   OH238832   3.104   5.658  17.300 -0.2075  0.2345 -0.4218
 5806TIP3    H138833   3.074   5.655  17.391  0.0001  2.7751 -0.2106
 5806TIP3    H238834   3.028   5.628  17.249 -0.4258 -0.9243  0.5324
 5807TIP3   OH238835   2.314   1.855   3.453  0.3387  0.5846  0.6507
 5807TIP3    H138836   2.315   1.950   3.459  0.2811  0.5608  1.1443
 5807TIP3    H238837   2.405   1.832   3.431  0.0080  0.8241 -1.1050
 5808TIP3   OH238838   6.765   1.642   2.981  0.2656  0.3631  0.4012
 5808TIP3    H138839   6.775   1.718   3.038  2.0461  0.0112  0.6248
 5808TIP3    H238840   6.814   1.665   2.902 -0.8084  0.1978 -0.3288
 5809TIP3   OH238841   6.705   5.502   5.979  0.2358  0.1068 -0.5256
 5809TIP3    H138842   6.735   5.529   6.066  1.6109 -2.0435 -0.2664
 5809TIP3    H238843   6.644   5.571   5.952 -0.9825  0.3341  2.5246
 5810TIP3   OH238844   6.543   1.605  13.619 -0.0550 -0.0226  0.5532
 5810TIP3    H138845   6.550   1.600  13.714  2.3177 -0.2304  0.4185
 5810TIP3    H238846   6.451   1.629  13.603 -0.7536 -0.9424  2.8285
 5811TIP3   OH238847   0.354   4.401  13.296 -0.3138 -0.3627  0.0580
 5811TIP3    H138848   0.369   4.307  13.303 -0.7924 -0.6298 -1.9967
 5811TIP3    H238849   0.442   4.438  13.287 -0.1219 -0.5938  0.8812
 5812TIP3   OH238850   5.028   1.921  15.308  0.0900 -0.1044 -0.1353
 5812TIP3    H138851   4.977   1.896  15.230 -1.4294  1.3445  0.3462
 5812TIP3    H238852   5.018   1.847  15.368 -0.2674 -0.4406 -0.6024
 5813TIP3   OH238853   6.080   4.926  11.409 -0.1423 -0.0641  0.0547
 5813TIP3    H138854   6.107   4.929  11.317  0.1837  1.6144  0.1817
 5813TIP3    H238855   6.019   4.853  11.414 -2.5242  1.6262 -2.1569
 5814TIP3   OH238856   5.583   4.768   5.782 -0.1637 -0.1409 -0.8647
 5814TIP3    H138857   5.590   4.855   5.742  1.3266  0.9909  1.6491
 5814TIP3    H238858   5.554   4.784   5.871  1.3617 -2.1032  0.0621
 5815TIP3   OH238859   0.567   2.856   0.876  0.1783 -0.4333  0.2882
 5815TIP3    H138860   0.532   2.928   0.824 -0.8524 -0.6431  0.6835
 5815TIP3    H238861   0.519   2.859   0.959  0.1667 -1.5291  0.3389
 5816TIP3   OH238862   6.264   0.852  11.236 -0.0990 -0.2607 -0.5353
 5816TIP3    H138863   6.334   0.892  11.186  0.7234 -0.5224  0.3706
 5816TIP3    H238864   6.228   0.785  11.178  0.5848 -0.3048 -0.9179
 5817TIP3   OH238865   6.685   4.322  14.423  0.1305 -0.5143 -0.0634
 5817TIP3    H138866   6.713   4.303  14.513 -0.5454  0.0425  0.2753
 5817TIP3    H238867   6.627   4.397  14.431 -0.0671 -0.5558 -0.9531
 5818TIP3   OH238868   4.506   3.959   4.851  0.3535  0.1024 -0.1632
 5818TIP3    H138869   4.512   3.870   4.885  1.6449  0.4637  0.6246
 5818TIP3    H238870   4.438   4.000   4.904 -1.2489 -0.7902 -1.4627
 5819TIP3   OH238871   4.762   5.347   2.991  0.1015  0.2582  0.1094
 5819TIP3    H138872   4.792   5.266   2.951  1.2779  0.4172  0.6227
 5819TIP3    H238873   4.667   5.340   2.993  0.1234 -0.5064 -1.0877
 5820TIP3   OH238874   4.019   6.056   2.908  0.0332 -0.8254 -0.1100
 5820TIP3    H138875   4.021   6.142   2.949 -0.4892 -0.0125 -1.7083
 5820TIP3    H238876   3.932   6.021   2.930 -1.0484  0.4452 -2.0567
 5821TIP3   OH238877   3.756   3.200   4.090 -0.3947  0.0850  0.3200
 5821TIP3    H138878   3.702   3.245   4.155 -1.7633 -0.8448 -0.1226
 5821TIP3    H238879   3.804   3.270   4.045 -1.0763  0.9257  0.8725
 5822TIP3   OH238880   4.686   0.911  15.331 -0.9049 -0.2527  0.0605
 5822TIP3    H138881   4.780   0.926  15.335 -0.5238 -2.4622  1.3976
 5822TIP3    H238882   4.653   0.946  15.414 -1.5090  1.6837 -0.9546
 5823TIP3   OH238883   3.514   6.588   4.339  0.8346  0.1751 -1.2634
 5823TIP3    H138884   3.600   6.579   4.297  1.3332  0.3461 -0.3007
 5823TIP3    H238885   3.513   6.520   4.407  0.3717  0.4495 -0.9924
 5824TIP3   OH238886   2.199   0.369  16.763  0.3349  0.2809 -0.1834
 5824TIP3    H138887   2.212   0.372  16.858  1.6636  0.7691 -0.3579
 5824TIP3    H238888   2.144   0.445  16.743  0.6610  0.6002  0.1169
 5825TIP3   OH238889   1.839   5.097   4.626  0.6993 -0.3453 -0.7877
 5825TIP3    H138890   1.771   5.145   4.673  1.6550 -0.2442  0.5740
 5825TIP3    H238891   1.798   5.070   4.544 -0.7511  0.2983 -0.3058
 5826TIP3   OH238892   1.147   6.377  16.302 -0.0024  0.2665  0.4608
 5826TIP3    H138893   1.242   6.389  16.298  0.1799 -0.9894  0.5650
 5826TIP3    H238894   1.131   6.344  16.390 -0.4851  0.1383  0.3283
 5827TIP3   OH238895   3.534   0.569  14.568 -0.0419  0.0560 -0.0026
 5827TIP3    H138896   3.533   0.506  14.496  0.9300  1.1544 -1.0377
 5827TIP3    H238897   3.462   0.543  14.624 -1.1991 -0.5193 -1.6672
 5828TIP3   OH238898   0.137   3.801  15.085  0.0832 -0.2675  0.1549
 5828TIP3    H138899   0.213   3.761  15.042  0.3184 -0.7754  1.0255
 5828TIP3    H238900   0.084   3.835  15.013  0.8563 -0.4015 -0.4942
 5829TIP3   OH238901   0.415   0.205  17.164  0.2808 -0.0727  0.2915
 5829TIP3    H138902   0.381   0.136  17.220  1.3947  0.2083  1.3680
 5829TIP3    H238903   0.498   0.230  17.205 -1.0714  3.4132  1.2453
 5830TIP3   OH238904   0.247   5.097   4.290 -0.1565 -0.0702  0.6819
 5830TIP3    H138905   0.318   5.053   4.337 -0.9521 -1.2392  0.8278
 5830TIP3    H238906   0.167   5.052   4.318 -1.1444  2.0284  1.4968
 5831TIP3   OH238907   6.606   1.638  15.388 -0.0251  0.1547  0.1051
 5831TIP3    H138908   6.621   1.579  15.314  0.6639  0.8944 -0.3561
 5831TIP3    H238909   6.511   1.650  15.390 -0.1209 -0.5036 -0.1538
 5832TIP3   OH238910   0.232   0.870   2.545 -0.1783 -0.0433 -0.9244
 5832TIP3    H138911   0.220   0.805   2.615  0.8813  0.9257  0.1868
 5832TIP3    H238912   0.143   0.889   2.515 -1.0975  2.2403  2.6972
 5833TIP3   OH238913   0.864   0.872  17.021  0.5853  0.1221 -0.0493
 5833TIP3    H138914   0.948   0.907  17.051  0.8816 -0.1011 -0.6031
 5833TIP3    H238915   0.799   0.935  17.051  0.8552 -0.1495  1.1656
 5834TIP3   OH238916   6.304   1.741   1.137 -0.1743  0.1088  0.3103
 5834TIP3    H138917   6.382   1.699   1.175  0.7304  1.3441 -0.1188
 5834TIP3    H238918   6.294   1.701   1.051  0.0773  0.0600  0.3037
 5835TIP3   OH238919   5.655   2.860  14.616  0.3494 -0.1663 -0.2591
 5835TIP3    H138920   5.716   2.822  14.552 -0.9436 -1.3153 -0.8383
 5835TIP3    H238921   5.655   2.798  14.688 -0.5097 -0.4392 -0.4873
 5836TIP3   OH238922   4.733   1.314  12.390 -0.5465  0.0780  0.0880
 5836TIP3    H138923   4.802   1.328  12.455 -0.9354  0.6188  0.3874
 5836TIP3    H238924   4.742   1.221  12.367  1.3275  0.4954 -1.0922
 5837TIP3   OH238925   4.127   0.145   5.528  0.5847 -0.3598 -0.3848
 5837TIP3    H138926   4.109   0.097   5.447 -0.9431 -0.1276 -0.2250
 5837TIP3    H238927   4.094   0.089   5.598 -0.1715  0.3994 -0.1115
 5838TIP3   OH238928   3.647   0.240   5.439  0.3725  0.1010 -0.0740
 5838TIP3    H138929   3.696   0.286   5.371 -0.5204 -0.7048 -1.2849
 5838TIP3    H238930   3.572   0.297   5.457 -0.3939 -0.5517 -1.1221
 5839TIP3   OH238931   2.100   1.113   1.573 -0.4473 -0.4162 -0.1924
 5839TIP3    H138932   2.095   1.040   1.634  0.4389  0.0030  0.4095
 5839TIP3    H238933   2.027   1.100   1.513 -0.4560 -1.6451  0.0644
 5840TIP3   OH238934   3.365   6.619  13.533 -0.2817  1.4295 -0.1495
 5840TIP3    H138935   3.274   6.649  13.526 -0.2907  1.1173 -1.8370
 5840TIP3    H238936   3.403   6.675  13.601 -1.6830  1.6733  0.4728
 5841TIP3   OH238937   6.160   0.329  12.340  0.3296  0.4337 -0.5761
 5841TIP3    H138938   6.106   0.393  12.293  1.7893  0.8446 -1.7714
 5841TIP3    H238939   6.227   0.382  12.383  0.5324 -0.1596 -0.1662
 5842TIP3   OH238940   2.200   3.740   5.600  0.0227 -0.1891 -0.0352
 5842TIP3    H138941   2.260   3.726   5.528 -0.9741 -0.6309 -0.8030
 5842TIP3    H238942   2.196   3.835   5.610  1.1206 -0.1584  0.2907
 5843TIP3   OH238943   3.936   5.239  13.950  0.0913 -0.1821 -0.0610
 5843TIP3    H138944   3.849   5.244  13.911 -1.2819  1.3240  2.8768
 5843TIP3    H238945   3.996   5.256  13.877 -2.0180 -1.1601 -2.1568
 5844TIP3   OH238946   1.506   5.885   1.884  0.5771  0.7243 -0.0756
 5844TIP3    H138947   1.418   5.903   1.849  1.2100  2.4099 -0.9165
 5844TIP3    H238948   1.512   5.789   1.885 -0.8175  0.5871 -1.1746
 5845TIP3   OH238949   6.132   0.969  13.667 -0.0740 -0.4343 -0.2797
 5845TIP3    H138950   6.100   0.905  13.731 -0.4911 -1.2309 -1.2631
 5845TIP3    H238951   6.113   1.054  13.707  1.6089 -0.8656  1.6092
 5846TIP3   OH238952   4.551   1.301   1.234 -0.3357 -0.8349 -0.2042
 5846TIP3    H138953   4.605   1.265   1.305 -0.1596  0.0158  0.1064
 5846TIP3    H238954   4.468   1.325   1.277  0.2828  1.0253  0.0491
 5847TIP3   OH238955   2.790   5.216  16.704 -0.4507 -0.4049  0.0689
 5847TIP3    H138956   2.789   5.122  16.690  0.3673 -0.2992 -0.8283
 5847TIP3    H238957   2.770   5.254  16.618 -1.5957  0.2372  0.6026
 5848TIP3   OH238958   6.667   4.932   2.118  0.5601  0.0308  0.4644
 5848TIP3    H138959   6.656   5.016   2.074  0.3540 -0.6379 -0.8094
 5848TIP3    H238960   6.577   4.900   2.131  0.6496 -1.4327 -1.9885
 5849TIP3   OH238961   6.708   5.012   0.523 -0.0661  0.5217  0.1890
 5849TIP3    H138962   6.747   5.066   0.455  0.6183  1.5932  1.3900
 5849TIP3    H238963   6.620   5.048   0.535  0.2132  1.0584  0.6441
 5850TIP3   OH238964   6.308   5.287  11.225 -0.0135 -0.0607  0.5237
 5850TIP3    H138965   6.367   5.279  11.150  0.4543 -2.2773  1.0573
 5850TIP3    H238966   6.245   5.216  11.214 -2.1758  1.7701  0.3904
 5851TIP3   OH238967   4.277   6.424   3.491 -0.3411  0.5515  0.4864
 5851TIP3    H138968   4.216   6.351   3.502 -0.1155  0.2773 -0.0515
 5851TIP3    H238969   4.343   6.391   3.430 -0.1990  1.1833  0.2963
 5852TIP3   OH238970   0.768   5.955  14.258  0.3702  0.2278 -0.1149
 5852TIP3    H138971   0.704   5.993  14.318 -2.2665 -1.1461 -1.8933
 5852TIP3    H238972   0.751   5.998  14.174  1.5562 -0.4202 -0.7151
 5853TIP3   OH238973   5.371   6.512  12.401  0.4881  0.2969  0.5569
 5853TIP3    H138974   5.466   6.511  12.416  0.5613  0.9164  0.1766
 5853TIP3    H238975   5.334   6.479  12.483  1.0915 -1.8717  0.0143
 5854TIP3   OH238976   3.685   3.429  11.570 -0.4097 -0.7238 -0.1106
 5854TIP3    H138977   3.735   3.492  11.517 -1.0628  0.7119  0.9142
 5854TIP3    H238978   3.718   3.440  11.659 -2.5518  0.3281  0.6106
 5855TIP3   OH238979   2.044   2.124   3.871 -0.3977 -0.4282  0.6364
 5855TIP3    H138980   2.030   2.208   3.913 -2.2069 -0.0988 -0.5317
 5855TIP3    H238981   1.966   2.110   3.818  0.4347 -2.2513 -0.2004
 5856TIP3   OH238982   2.195   6.161  15.444  0.2283  0.0833  0.4097
 5856TIP3    H138983   2.165   6.075  15.474  1.3926 -0.4910 -0.0055
 5856TIP3    H238984   2.212   6.210  15.524 -0.3949 -0.0865  0.6499
 5857TIP3   OH238985   2.306   3.730  15.228 -0.7195  0.1811  0.2263
 5857TIP3    H138986   2.384   3.786  15.232 -0.2398 -0.5170  0.8214
 5857TIP3    H238987   2.319   3.666  15.298 -0.9736 -1.0290 -0.8039
 5858TIP3   OH238988   0.242   1.171   5.246 -0.8811 -0.3226  0.3528
 5858TIP3    H138989   0.198   1.256   5.254 -0.1360  0.1243 -0.1626
 5858TIP3    H238990   0.200   1.116   5.312 -1.1578  0.5377  0.9126
 5859TIP3   OH238991   2.303   6.409  11.446 -0.2341 -0.4013  0.2031
 5859TIP3    H138992   2.275   6.453  11.527 -1.3051 -0.1427 -0.2944
 5859TIP3    H238993   2.276   6.468  11.376 -0.1081 -1.0385 -0.3924
 5860TIP3   OH238994   3.236   4.256  12.621  0.2344 -0.0719  0.5150
 5860TIP3    H138995   3.294   4.192  12.579  0.1116 -0.0202  0.2650
 5860TIP3    H238996   3.268   4.340  12.589 -0.1804 -0.0604  0.1265
 5861TIP3   OH238997   3.616   2.375   0.367  0.1906  0.2313 -0.2413
 5861TIP3    H138998   3.664   2.376   0.450  2.2402  4.1873 -1.2218
 5861TIP3    H238999   3.524   2.370   0.392  0.7891 -2.0798  1.9942
 5862TIP3   OH239000   4.133   2.011  12.452 -0.6346 -0.2004  0.0314
 5862TIP3    H139001   4.195   2.063  12.504  0.6273  0.2947 -1.8748
 5862TIP3    H239002   4.073   1.974  12.517  0.4289  0.9519  1.7628
 5863TIP3   OH239003   4.539   5.540  17.331  0.4781  0.4378 -0.5553
 5863TIP3    H139004   4.485   5.585  17.266 -2.0090 -0.0123  1.0786
 5863TIP3    H239005   4.526   5.589  17.411  1.5745 -0.4124  0.1728
 5864TIP3   OH239006   4.233   3.702  11.474  0.2344  0.3777 -0.2318
 5864TIP3    H139007   4.295   3.638  11.438  2.6437  2.0382  0.7191
 5864TIP3    H239008   4.248   3.781  11.422 -1.4116  0.7475 -0.2064
 5865TIP3   OH239009   2.821   6.138  13.557  0.2030 -0.3131 -0.1029
 5865TIP3    H139010   2.861   6.054  13.580  1.1168 -0.2503 -1.3154
 5865TIP3    H239011   2.827   6.141  13.461 -1.7204  0.2244 -0.2380
 5866TIP3   OH239012   3.839   0.723   3.280 -0.1457 -0.0160  0.0291
 5866TIP3    H139013   3.795   0.639   3.293 -1.5664  0.9043  1.7034
 5866TIP3    H239014   3.856   0.728   3.186 -1.9995 -1.2374 -0.4150
 5867TIP3   OH239015   2.354   0.323   6.499 -0.0741 -0.7097 -0.1014
 5867TIP3    H139016   2.277   0.370   6.464 -2.1049 -1.9975  2.3200
 5867TIP3    H239017   2.379   0.263   6.429  0.4843  1.5324 -1.9593
 5868TIP3   OH239018   3.084   2.247   3.134  0.2527  0.3920 -0.6632
 5868TIP3    H139019   3.009   2.287   3.177 -0.3874  0.0090 -1.4056
 5868TIP3    H239020   3.160   2.293   3.171 -0.3993  1.5246 -0.6854
 5869TIP3   OH239021   6.478   6.733   3.560  0.2769  0.1190 -0.3059
 5869TIP3    H139022   6.469   6.653   3.612 -0.3733 -0.7541 -1.6873
 5869TIP3    H239023   6.424   6.797   3.606  2.0531  0.2793  1.6942
 5870TIP3   OH239024   3.874   1.531  10.562  0.9973 -0.3484 -0.2136
 5870TIP3    H139025   3.835   1.477  10.631  1.8138 -0.5238  0.1252
 5870TIP3    H239026   3.859   1.621  10.590 -0.4106 -0.3783 -0.8003
 5871TIP3   OH239027   1.797   3.561   5.415  0.3262  0.0578  0.7988
 5871TIP3    H139028   1.794   3.518   5.501  2.8840  0.8010  1.3530
 5871TIP3    H239029   1.841   3.644   5.432 -2.1076  1.7624 -0.7167
 5872TIP3   OH239030   1.515   1.824   3.398  0.3517  0.2698  0.0670
 5872TIP3    H139031   1.584   1.801   3.335  0.3567  1.7746 -0.5104
 5872TIP3    H239032   1.562   1.854   3.475  0.3374 -0.2292  0.2740
 5873TIP3   OH239033   6.419   2.965   0.378 -0.0901  0.4455  0.2638
 5873TIP3    H139034   6.416   2.938   0.470  0.1381  0.8325  0.3854
 5873TIP3    H239035   6.383   2.890   0.330 -0.1575  0.2205  0.6626
 5874TIP3   OH239036   1.054   6.526   1.107 -0.4702 -0.3132 -0.7372
 5874TIP3    H139037   1.124   6.462   1.118  0.2501  0.5737 -0.0686
 5874TIP3    H239038   1.046   6.570   1.191 -1.6498 -0.1980 -0.8798
 5875TIP3   OH239039   3.295   2.153  14.187 -0.0588  0.4859  0.8337
 5875TIP3    H139040   3.272   2.118  14.101  1.5328  1.2695  0.0548
 5875TIP3    H239041   3.220   2.132  14.242 -0.1292 -2.1896 -0.1314
 5876TIP3   OH239042   6.019   1.097  15.987  0.3672 -0.7181 -0.1319
 5876TIP3    H139043   6.070   1.134  16.059  1.3798  0.0244 -1.1694
 5876TIP3    H239044   5.953   1.163  15.968  0.2257 -0.8247 -0.0077
 5877TIP3   OH239045   1.704   5.382   0.897  0.4116 -0.4168  0.0755
 5877TIP3    H139046   1.752   5.433   0.962  1.1371  0.8044 -1.3687
 5877TIP3    H239047   1.629   5.346   0.945  1.3313 -0.1728  1.7445
 5878TIP3   OH239048   5.040   5.126   1.744  0.2250  0.0581  0.3811
 5878TIP3    H139049   5.046   5.219   1.762  0.4158  0.0279  0.4751
 5878TIP3    H239050   5.083   5.115   1.659  0.6016 -0.0074  0.5758
 5879TIP3   OH239051   2.998   4.562   6.116  0.0005  0.4564 -0.0133
 5879TIP3    H139052   3.004   4.657   6.124  0.8363  0.3020  1.6912
 5879TIP3    H239053   3.077   4.529   6.158 -1.3195 -1.0510  1.4644
 5880TIP3   OH239054   3.807   6.579  13.126 -0.6169 -0.2752 -0.2669
 5880TIP3    H139055   3.901   6.573  13.110 -0.8157  0.0432 -1.6716
 5880TIP3    H239056   3.768   6.518  13.063 -1.4927  1.6363 -1.6712
 5881TIP3   OH239057   4.416   5.725   1.200 -0.2471 -0.7069  0.4590
 5881TIP3    H139058   4.498   5.762   1.167 -0.4707  0.3719  1.0852
 5881TIP3    H239059   4.412   5.638   1.160  0.1607  0.0254 -1.2652
 5882TIP3   OH239060   3.142   0.561   2.729 -0.4238  0.0173  0.3637
 5882TIP3    H139061   3.186   0.557   2.644 -1.1044 -0.4032  0.0256
 5882TIP3    H239062   3.146   0.654   2.753 -0.7742  0.2490 -0.4230
 5883TIP3   OH239063   1.238   5.610  14.403 -0.1222  0.4039 -0.1483
 5883TIP3    H139064   1.277   5.651  14.326  0.7044 -0.4470 -0.2074
 5883TIP3    H239065   1.169   5.553  14.368 -0.1795  0.5113 -0.2087
 5884TIP3   OH239066   5.908   4.413  13.813  0.0563 -0.2177 -0.2573
 5884TIP3    H139067   5.990   4.384  13.852 -0.7669 -1.2796  0.7887
 5884TIP3    H239068   5.843   4.398  13.882 -1.0934  0.1165 -1.2338
 5885TIP3   OH239069   2.784   1.121  16.546 -0.5073  0.7587  0.1151
 5885TIP3    H139070   2.849   1.060  16.581 -0.4804 -0.1144 -1.3950
 5885TIP3    H239071   2.831   1.204  16.539  0.1886  0.3527 -0.1445
 5886TIP3   OH239072   1.908   0.501  15.664  0.4315 -0.2781  0.0734
 5886TIP3    H139073   1.998   0.472  15.675  0.0336 -1.3918  0.5222
 5886TIP3    H239074   1.856   0.421  15.667 -0.3930  0.0231 -2.7994
 5887TIP3   OH239075   6.195   3.233   2.229  0.0069  0.3170  0.0912
 5887TIP3    H139076   6.230   3.195   2.149  0.2146  0.8352 -0.0639
 5887TIP3    H239077   6.139   3.304   2.199 -0.9373 -0.2976  0.3481
 5888TIP3   OH239078   1.648   0.476   0.101  0.4583 -0.0596  0.0051
 5888TIP3    H139079   1.597   0.530   0.160  0.8772 -0.1446  0.4498
 5888TIP3    H239080   1.587   0.408   0.072 -0.3717  1.1948 -1.3424
 5889TIP3   OH239081   5.526   3.589   3.685  0.5140  0.3757  0.1436
 5889TIP3    H139082   5.519   3.553   3.774  2.8194 -0.8598 -0.1025
 5889TIP3    H239083   5.620   3.590   3.666  0.1410  1.4340 -1.9727
 5890TIP3   OH239084   0.290   0.538  11.430  0.2059 -1.1331  0.2028
 5890TIP3    H139085   0.340   0.491  11.363  2.1544 -0.1615  0.8946
 5890TIP3    H239086   0.330   0.511  11.512 -0.7169 -0.6432  0.8226
 5891TIP3   OH239087   4.266   3.155   2.779  0.0931  1.0158  0.0963
 5891TIP3    H139088   4.174   3.146   2.802  0.0905  2.0249  0.5222
 5891TIP3    H239089   4.295   3.234   2.826  1.5409 -0.0809  1.1469
 5892TIP3   OH239090   6.659   2.438  11.339 -0.1300  0.4457  0.3388
 5892TIP3    H139091   6.708   2.459  11.259 -0.3519  1.9710  0.5745
 5892TIP3    H239092   6.726   2.405  11.399 -0.1041 -1.6426 -0.7530
 5893TIP3   OH239093   1.691   3.109  16.250  0.0744 -0.3013 -0.0894
 5893TIP3    H139094   1.620   3.124  16.312  0.6237 -1.1017  0.7599
 5893TIP3    H239095   1.716   3.017  16.264 -1.3081 -1.2445 -3.0799
 5894TIP3   OH239096   1.659   2.503  13.572  0.4610  0.0391  0.0028
 5894TIP3    H139097   1.735   2.450  13.597  1.2380 -0.0674 -2.3027
 5894TIP3    H239098   1.695   2.591  13.560  0.4776 -0.2002 -2.0140
 5895TIP3   OH239099   4.388   6.468   0.562  0.2342 -0.0717  0.3184
 5895TIP3    H139100   4.372   6.558   0.536  0.8693 -0.0248  0.0659
 5895TIP3    H239101   4.312   6.444   0.615 -0.5431  0.1968 -0.6441
 5896TIP3   OH239102   4.035   1.163  14.154  0.4522  0.0547 -0.2107
 5896TIP3    H139103   4.122   1.161  14.195 -0.0874  1.2766  1.0637
 5896TIP3    H239104   3.977   1.126  14.220  0.1988 -2.5243 -1.7518
 5897TIP3   OH239105   0.804   0.700  11.754 -0.2352  0.1391  0.6328
 5897TIP3    H139106   0.769   0.654  11.678  0.2644  0.8186 -0.0244
 5897TIP3    H239107   0.734   0.697  11.818 -0.0883 -1.8742  0.7641
 5898TIP3   OH239108   6.530   1.272   0.570  0.1197  0.4006  0.0811
 5898TIP3    H139109   6.451   1.224   0.593 -1.4612  3.0571  0.5996
 5898TIP3    H239110   6.504   1.364   0.572  2.5265  1.2778 -2.4639
 5899TIP3   OH239111   0.303   0.126  12.460  0.0745 -0.1945 -0.2851
 5899TIP3    H139112   0.365   0.053  12.453  0.5979  0.0274  1.4164
 5899TIP3    H239113   0.252   0.123  12.379  1.4165 -1.2091 -1.1297
 5900TIP3   OH239114   1.865   5.180  15.483 -0.0408  0.0010 -0.1919
 5900TIP3    H139115   1.883   5.200  15.575 -0.2467  0.9363 -0.3446
 5900TIP3    H239116   1.900   5.092  15.470 -1.3928 -0.8028  1.2001
 5901TIP3   OH239117   2.894   2.492  17.119  0.0383 -0.9490 -0.1449
 5901TIP3    H139118   2.807   2.454  17.130  0.6111 -2.1140  0.5587
 5901TIP3    H239119   2.889   2.578  17.162 -1.3190 -0.1011 -1.8844
 5902TIP3   OH239120   1.249   5.633  16.678 -0.1998 -0.1906  0.2921
 5902TIP3    H139121   1.286   5.624  16.591  0.0961 -0.8851  0.4817
 5902TIP3    H239122   1.186   5.705  16.670  0.3941  0.2789 -0.2928
 5903TIP3   OH239123   3.892   0.519   5.464  0.0233 -0.1434 -0.4081
 5903TIP3    H139124   3.951   0.483   5.531 -0.3849 -0.9603 -0.4779
 5903TIP3    H239125   3.891   0.453   5.395  1.1832  1.0939 -1.6823
 5904TIP3   OH239126   4.879   1.643   3.212  0.0028  0.2544 -0.6483
 5904TIP3    H139127   4.831   1.725   3.226  1.5022  0.8186  1.8402
 5904TIP3    H239128   4.970   1.669   3.202  0.5849 -1.0840  0.6732
 5905TIP3   OH239129   5.048   3.692  13.711  0.2082  0.3379 -0.7501
 5905TIP3    H139130   5.031   3.715  13.620 -0.1053 -0.9603 -1.0429
 5905TIP3    H239131   5.070   3.774  13.753 -1.4863  1.2744 -1.5796
 5906TIP3   OH239132   1.633   1.498   4.053  0.2094 -0.1126 -0.4155
 5906TIP3    H139133   1.647   1.476   4.145  1.3762 -0.4802 -0.6673
 5906TIP3    H239134   1.562   1.442   4.024  1.7326 -2.1230 -0.4826
 5907TIP3   OH239135   6.013   6.066   1.433 -0.5481 -0.2081  0.4725
 5907TIP3    H139136   6.012   6.160   1.415 -1.2575  0.0270  1.6558
 5907TIP3    H239137   6.004   6.059   1.528  2.5620 -1.4105  0.7919
 5908TIP3   OH239138   1.951   6.215   4.921 -0.2984 -0.8297  0.2954
 5908TIP3    H139139   1.886   6.273   4.962 -0.6007 -1.7371  1.1524
 5908TIP3    H239140   1.911   6.127   4.927 -0.6078 -0.9463 -2.4919
 5909TIP3   OH239141   5.211   5.229   4.001 -0.0382  0.1555  0.3619
 5909TIP3    H139142   5.147   5.287   4.044  1.4900  3.6805 -1.6842
 5909TIP3    H239143   5.273   5.207   4.070  0.0188  2.1004  1.0004
 5910TIP3   OH239144   4.259   2.161   4.561  0.5401  0.2249 -1.1577
 5910TIP3    H139145   4.337   2.195   4.516  1.2213  1.4492  0.8437
 5910TIP3    H239146   4.217   2.105   4.495  2.2126  0.8180 -2.8411
 5911TIP3   OH239147   6.247   1.888   4.811  0.0744  0.5535  0.0204
 5911TIP3    H139148   6.288   1.825   4.751  0.2225  1.0007 -0.3525
 5911TIP3    H239149   6.180   1.931   4.758 -0.3937  0.3308  0.4288
 5912TIP3   OH239150   3.565   1.471   6.059 -0.1619 -0.0423 -0.1485
 5912TIP3    H139151   3.624   1.538   6.093 -1.1310  1.3989 -1.1795
 5912TIP3    H239152   3.593   1.390   6.102  1.5454  0.8669  0.5540
 5913TIP3   OH239153   1.434   0.219  16.871 -0.4002  0.1812 -0.3862
 5913TIP3    H139154   1.454   0.134  16.910 -0.9241  0.7507  1.1829
 5913TIP3    H239155   1.516   0.245  16.829 -0.0970 -0.8730 -0.5000
 5914TIP3   OH239156   5.072   6.283   6.538 -0.3088 -0.0251  0.0266
 5914TIP3    H139157   4.996   6.316   6.584 -0.5360 -0.7401  0.1778
 5914TIP3    H239158   5.141   6.347   6.555  0.0744 -1.0133  2.6565
 5915TIP3   OH239159   3.527   4.439  11.503 -0.2585  0.2935 -0.4071
 5915TIP3    H139160   3.548   4.353  11.540 -3.2966 -0.7460 -0.7979
 5915TIP3    H239161   3.539   4.500  11.575  0.4857 -0.6613  0.3088
 5916TIP3   OH239162   6.105   1.190   3.610 -0.0076  0.0513 -0.1041
 5916TIP3    H139163   6.096   1.247   3.686 -0.4679 -1.2495  0.8472
 5916TIP3    H239164   6.158   1.241   3.548  0.7117  0.9917  1.2325
 5917TIP3   OH239165   0.665   4.249  14.323  0.3342 -0.3504  0.0491
 5917TIP3    H139166   0.674   4.338  14.290  1.3110 -1.5514 -3.3547
 5917TIP3    H239167   0.578   4.221  14.293  0.7179 -1.0534 -0.4564
 5918TIP3   OH239168   3.692   5.163  16.463  0.1168  0.1003  0.4278
 5918TIP3    H139169   3.646   5.111  16.530  0.0499  0.7703  0.9181
 5918TIP3    H239170   3.626   5.179  16.396 -0.0957  0.2610  0.6748
 5919TIP3   OH239171   2.197   2.625   2.640  0.3670  0.8802 -0.1501
 5919TIP3    H139172   2.194   2.720   2.628  0.1143  1.0474  1.1366
 5919TIP3    H239173   2.144   2.608   2.718  0.6472 -0.2858 -0.1880
 5920TIP3   OH239174   2.774   0.744   5.172  0.6606 -0.4200 -0.3204
 5920TIP3    H139175   2.684   0.766   5.146  0.0933 -0.2467  1.6215
 5920TIP3    H239176   2.802   0.819   5.225  1.6748 -0.8084 -0.2880
 5921TIP3   OH239177   0.361   5.292  11.571 -0.2521  0.4666 -0.6413
 5921TIP3    H139178   0.363   5.387  11.583  1.5486  0.5487 -1.3440
 5921TIP3    H239179   0.269   5.268  11.588 -1.0009  2.4627 -1.5372
 5922TIP3   OH239180   0.379   5.879  15.605  0.1682  0.0193  0.1932
 5922TIP3    H139181   0.391   5.968  15.572  1.1077 -0.2612 -0.2547
 5922TIP3    H239182   0.284   5.867  15.607  0.0288  1.0006  0.1947
 5923TIP3   OH239183   0.557   2.845  15.539 -0.0225 -0.6023 -0.0868
 5923TIP3    H139184   0.529   2.880  15.623  0.3100 -2.5641  0.8844
 5923TIP3    H239185   0.491   2.780  15.515  0.7626 -1.2763 -0.4921
 5924TIP3   OH239186   4.506   0.138  13.526 -0.1651  0.2482 -0.4262
 5924TIP3    H139187   4.584   0.167  13.574 -0.0218 -0.1083 -0.4442
 5924TIP3    H239188   4.444   0.113  13.594  0.1498 -0.5540 -0.4219
 5925TIP3   OH239189   5.402   4.374  16.449 -0.1780 -0.0948 -0.6390
 5925TIP3    H139190   5.333   4.349  16.388 -0.6087  0.8692 -0.5761
 5925TIP3    H239191   5.368   4.453  16.491  0.3796 -0.3911  0.3973
 5926TIP3   OH239192   2.781   2.964   3.301 -0.1475 -0.8074 -0.1800
 5926TIP3    H139193   2.853   2.917   3.344  0.8599  0.2465 -0.6516
 5926TIP3    H239194   2.720   2.985   3.371  1.1979  0.4017  0.6905
 5927TIP3   OH239195   5.523   5.889   1.999  0.1901  0.4311 -0.1061
 5927TIP3    H139196   5.494   5.957   2.059 -0.6571 -1.3583  1.5869
 5927TIP3    H239197   5.517   5.930   1.912 -1.0193  2.2495  0.7789
 5928TIP3   OH239198   6.561   5.443  14.394  0.1955 -0.1635 -0.5225
 5928TIP3    H139199   6.639   5.390  14.381  0.3491 -0.1816  0.3953
 5928TIP3    H239200   6.594   5.526  14.428 -0.1840 -0.2187 -0.0030
 5929TIP3   OH239201   6.409   2.005  15.002 -0.0012 -0.0105 -0.6102
 5929TIP3    H139202   6.375   2.079  15.051 -0.6847 -0.1847 -0.8159
 5929TIP3    H239203   6.400   1.931  15.062  0.4863  0.0306 -0.4824
 5930TIP3   OH239204   1.269   5.869   4.800  0.8178 -0.4208 -0.1700
 5930TIP3    H139205   1.218   5.920   4.737  1.1612 -0.0605 -0.1551
 5930TIP3    H239206   1.222   5.786   4.806  1.4342 -0.9174 -1.7849
 5931TIP3   OH239207   6.390   1.617  10.767 -0.6136  0.0848 -0.6723
 5931TIP3    H139208   6.435   1.547  10.720  0.4209  0.7607 -0.7336
 5931TIP3    H239209   6.306   1.626  10.723 -0.6519 -0.9252 -0.8346
 5932TIP3   OH239210   0.789   3.121   5.366 -0.0720  0.1995  0.0184
 5932TIP3    H139211   0.764   3.169   5.287 -0.0810 -1.6896 -1.1818
 5932TIP3    H239212   0.747   3.035   5.357  0.6606 -0.3721  1.6445
 5933TIP3   OH239213   0.995   0.765   4.091  0.0002 -0.1517 -0.0849
 5933TIP3    H139214   0.967   0.773   4.000  0.4445  1.3715 -0.1170
 5933TIP3    H239215   0.914   0.752   4.140 -0.6173  2.0447 -0.3972
 5934TIP3   OH239216   6.756   3.226  14.676  0.5470 -0.0728  0.0713
 5934TIP3    H139217   6.736   3.155  14.738 -0.5708  1.2283  1.2580
 5934TIP3    H239218   6.712   3.200  14.595 -1.1271 -0.0543  0.9366
 5935TIP3   OH239219   3.885   2.107  12.615 -0.6487  0.0710 -0.3202
 5935TIP3    H139220   3.815   2.157  12.657  0.1273 -0.4023  1.6174
 5935TIP3    H239221   3.929   2.171  12.559  0.0556  1.5095  1.7743
 5936TIP3   OH239222   6.497   4.487  13.201 -0.2222  1.0223 -0.0212
 5936TIP3    H139223   6.404   4.486  13.178 -0.8461  0.4465  2.2080
 5936TIP3    H239224   6.515   4.398  13.233  1.6629  0.5205 -2.1845
 5937TIP3   OH239225   2.421   1.552   0.311  0.1364  0.0536 -0.3189
 5937TIP3    H139226   2.336   1.511   0.300 -0.2150  0.9227 -0.9514
 5937TIP3    H239227   2.483   1.491   0.269 -0.3793  0.1979 -1.3014
 5938TIP3   OH239228   2.964   2.974   5.371 -0.1285  0.0196  0.2136
 5938TIP3    H139229   2.985   3.024   5.450 -0.1221 -1.1906  1.0131
 5938TIP3    H239230   2.916   2.897   5.404 -0.9371 -0.0427 -1.0525
 5939TIP3   OH239231   5.947   2.395  12.620  0.1239  0.3597 -0.1188
 5939TIP3    H139232   6.021   2.334  12.622  0.6761  1.0166  0.2011
 5939TIP3    H239233   5.916   2.393  12.530  0.4204 -0.0487 -0.2162
 5940TIP3   OH239234   5.646   2.450  14.125 -0.0791  0.2844 -0.2423
 5940TIP3    H139235   5.614   2.480  14.040 -0.2635  0.9851  0.0675
 5940TIP3    H239236   5.707   2.518  14.153  1.0713 -0.6366 -0.4475
 5941TIP3   OH239237   2.349   2.094   3.141 -0.7741 -0.0261 -0.2613
 5941TIP3    H139238   2.303   2.036   3.080 -0.1561  0.8408 -1.6003
 5941TIP3    H239239   2.432   2.050   3.156 -0.5578  0.1945 -0.7815
 5942TIP3   OH239240   5.155   1.626   3.088  0.6952 -0.1727 -0.2959
 5942TIP3    H139241   5.180   1.702   3.034 -0.5150 -0.0931 -0.7596
 5942TIP3    H239242   5.175   1.550   3.033  2.2427 -0.2355  0.3033
 5943TIP3   OH239243   2.638   5.875   0.988 -0.2241 -0.1193 -0.2876
 5943TIP3    H139244   2.606   5.956   1.028 -0.8211 -1.0029  1.1008
 5943TIP3    H239245   2.708   5.846   1.047  1.0928  0.1843 -1.6382
 5944TIP3   OH239246   4.613   5.611  14.336  0.1292  0.9107 -0.3703
 5944TIP3    H139247   4.595   5.557  14.259  0.2399 -0.6090  0.6224
 5944TIP3    H239248   4.529   5.616  14.381  0.3613  0.6542  0.0969
 5945TIP3   OH239249   2.601   1.029  15.529 -0.2345 -0.8156  0.4061
 5945TIP3    H139250   2.603   1.106  15.472 -1.0326 -1.2233 -0.1879
 5945TIP3    H239251   2.693   1.015  15.553  0.3617 -1.5422 -2.0450
 5946TIP3   OH239252   5.451   0.147  16.559  0.1162 -0.0137 -0.0735
 5946TIP3    H139253   5.405   0.067  16.537 -1.1689 -0.1458  2.6503
 5946TIP3    H239254   5.385   0.216  16.551  0.4164  0.3399  0.4225
 5947TIP3   OH239255   5.131   3.251   1.505 -0.0477  0.1446 -0.1052
 5947TIP3    H139256   5.198   3.205   1.455  1.6726  2.8713 -0.5072
 5947TIP3    H239257   5.133   3.209   1.592  1.2442 -0.6597 -0.5018
 5948TIP3   OH239258   1.834   0.616  15.920 -0.6718  0.1564 -0.6884
 5948TIP3    H139259   1.740   0.628  15.929 -0.6321  0.0052 -0.0064
 5948TIP3    H239260   1.844   0.548  15.854 -1.0295  0.4483 -1.0463
 5949TIP3   OH239261   5.967   5.903  13.981  0.2071 -0.5104 -0.3551
 5949TIP3    H139262   5.875   5.877  13.978  0.5768 -2.0456  0.6275
 5949TIP3    H239263   5.990   5.916  13.889 -1.0652  0.2557 -0.5976
 5950TIP3   OH239264   3.860   1.010   5.238 -0.0026  0.1309 -0.0014
 5950TIP3    H139265   3.820   0.998   5.324  0.2377 -1.0577 -0.0412
 5950TIP3    H239266   3.853   0.925   5.196  0.9001  0.3927 -0.7244
 5951TIP3   OH239267   4.879   1.537  11.598  0.0746 -0.1667 -0.0946
 5951TIP3    H139268   4.948   1.537  11.531  0.8532 -1.5507  0.6773
 5951TIP3    H239269   4.798   1.530  11.547  0.4996  1.0056 -0.9917
 5952TIP3   OH239270   4.720   3.821  14.830  0.5676 -0.6410  0.5644
 5952TIP3    H139271   4.815   3.834  14.832  0.4629  0.1398  1.8636
 5952TIP3    H239272   4.689   3.863  14.910 -1.0570  0.5056 -0.6165
 5953TIP3   OH239273   4.978   4.607   5.865  0.5554  0.6058  0.6808
 5953TIP3    H139274   5.020   4.692   5.858  1.1441  0.3167  0.5875
 5953TIP3    H239275   5.050   4.546   5.882  0.5685 -0.2698 -1.9288
 5954TIP3   OH239276   2.745   1.846   2.948  0.2242  0.7163 -0.4481
 5954TIP3    H139277   2.688   1.922   2.952 -0.0597  0.4524  0.8630
 5954TIP3    H239278   2.806   1.857   3.022  0.3679 -0.1732 -0.4250
 5955TIP3   OH239279   5.961   5.025   1.302 -0.3074  0.4131  0.4852
 5955TIP3    H139280   6.014   4.996   1.228  0.3955  2.3522  0.1673
 5955TIP3    H239281   5.903   4.951   1.320  1.4763 -1.2260 -0.1060
 5956TIP3   OH239282   0.942   0.501  16.731  0.1479  0.5514 -0.2471
 5956TIP3    H139283   0.964   0.580  16.780  1.0409  0.1373  0.0394
 5956TIP3    H239284   1.026   0.469  16.698  0.0617 -1.2397  1.1148
 5957TIP3   OH239285   4.597   0.788   3.964  0.2193 -0.5015  0.3796
 5957TIP3    H139286   4.607   0.694   3.952 -1.5263 -0.7808  0.8614
 5957TIP3    H239287   4.530   0.797   4.032 -0.7195  1.0545 -0.6704
 5958TIP3   OH239288   5.958   5.414   4.492  0.3111  0.6235 -0.6995
 5958TIP3    H139289   5.878   5.464   4.474  1.2189  2.3254 -0.2589
 5958TIP3    H239290   5.927   5.335   4.537 -1.0845  1.5077 -0.0342
 5959TIP3   OH239291   3.920   3.950   2.360  0.2427 -0.0769  0.5498
 5959TIP3    H139292   3.877   4.016   2.306 -0.7457 -0.6481  0.6205
 5959TIP3    H239293   4.013   3.967   2.348  0.0233  0.5739 -0.3700
 5960TIP3   OH239294   0.941   2.217   0.340  0.0028  0.1323  0.0739
 5960TIP3    H139295   0.855   2.189   0.308  0.2333 -0.8628  0.2778
 5960TIP3    H239296   0.974   2.141   0.387  1.4045  0.1792 -0.7985
 5961TIP3   OH239297   2.240   2.248   1.137 -0.4954 -0.0133  0.0431
 5961TIP3    H139298   2.261   2.267   1.229 -1.9258 -0.0712  0.4060
 5961TIP3    H239299   2.285   2.316   1.088  0.1999  0.0849  0.7843
 5962TIP3   OH239300   4.909   3.474   0.216  0.3559  0.2969  0.0234
 5962TIP3    H139301   5.004   3.463   0.205  0.0430 -2.8039 -0.2335
 5962TIP3    H239302   4.871   3.396   0.177 -2.3480  1.4131  0.2398
 5963TIP3   OH239303   4.931   3.917  16.323 -0.8142 -0.2421 -0.4084
 5963TIP3    H139304   4.999   3.979  16.347  0.7860 -1.9794 -0.1839
 5963TIP3    H239305   4.900   3.947  16.238 -2.5879  2.7772  1.1353
 5964TIP3   OH239306   5.398   0.133   2.782 -0.7366  0.7649  0.4895
 5964TIP3    H139307   5.370   0.042   2.788 -1.9803  1.1942  1.9096
 5964TIP3    H239308   5.323   0.183   2.815 -0.0578  2.3032 -0.2186
 5965TIP3   OH239309   0.601   3.957   0.383  0.1280  0.4238  0.1249
 5965TIP3    H139310   0.507   3.963   0.369  0.1298 -0.5071 -0.3452
 5965TIP3    H239311   0.613   3.883   0.442  0.6008  0.1534 -0.2985
 5966TIP3   OH239312   1.765   4.307  15.931  0.3406  0.2687 -0.1746
 5966TIP3    H139313   1.827   4.272  15.995  0.2213  0.6634  0.1630
 5966TIP3    H239314   1.712   4.369  15.981 -1.5902 -1.4077  0.0135
 5967TIP3   OH239315   4.244   5.068   2.787  0.2406 -0.1254  0.3423
 5967TIP3    H139316   4.148   5.066   2.793 -0.0785  0.5091 -2.7156
 5967TIP3    H239317   4.266   5.161   2.782  0.9425 -0.2830  0.3553
 5968TIP3   OH239318   2.482   4.143   1.094 -0.6105  0.9070 -0.2399
 5968TIP3    H139319   2.476   4.054   1.060 -1.8976  0.4051  1.2262
 5968TIP3    H239320   2.570   4.148   1.131  0.2919  1.0073 -2.2585
 5969TIP3   OH239321   2.791   3.580  12.304 -0.7565  0.1025  0.5834
 5969TIP3    H139322   2.784   3.523  12.381 -1.6110 -1.4198 -0.5577
 5969TIP3    H239323   2.809   3.520  12.232 -1.1945  1.3559 -0.6077
 5970TIP3   OH239324   0.467   3.354   1.886  0.6154 -1.0394 -0.2988
 5970TIP3    H139325   0.383   3.365   1.931  1.4109 -0.0049  0.9761
 5970TIP3    H239326   0.459   3.409   1.808 -0.2677 -1.7799 -0.7528
 5971TIP3   OH239327   3.365   4.003   2.493 -0.1519  0.1655  0.2871
 5971TIP3    H139328   3.392   4.067   2.558  1.1610  0.5246 -0.5679
 5971TIP3    H239329   3.313   4.052   2.430 -1.3125 -0.1566  0.9471
 5972TIP3   OH239330   5.000   1.326  11.765  0.0099 -0.2109 -0.1038
 5972TIP3    H139331   4.956   1.407  11.741  0.2260  0.4185  1.4889
 5972TIP3    H239332   5.044   1.298  11.684  3.4323  3.5059  0.1044
 5973TIP3   OH239333   6.602   1.871   3.118 -0.2483  0.3742  0.4620
 5973TIP3    H139334   6.517   1.872   3.074  0.0257 -2.0340 -0.2507
 5973TIP3    H239335   6.661   1.914   3.057 -0.6498  0.7378  0.3190
 5974TIP3   OH239336   6.302   3.748  13.765  0.3112  0.3119  0.6091
 5974TIP3    H139337   6.265   3.718  13.848  1.6667 -0.0359  1.1046
 5974TIP3    H239338   6.351   3.673  13.732 -1.1036  0.0639 -1.0861
 5975TIP3   OH239339   4.096   4.416   1.271 -0.2170  0.4378 -0.2543
 5975TIP3    H139340   4.171   4.417   1.330 -0.5419  2.2630  0.2088
 5975TIP3    H239341   4.111   4.342   1.213  0.5814 -0.8578  1.5281
 5976TIP3   OH239342   4.534   2.337  13.346  0.1046  0.6571  0.4450
 5976TIP3    H139343   4.609   2.303  13.297 -1.1865 -1.8660  0.0334
 5976TIP3    H239344   4.486   2.390  13.282  1.2061  1.8425  0.5654
 5977TIP3   OH239345   4.423   4.318  15.253  0.4646 -0.1824  0.0034
 5977TIP3    H139346   4.419   4.381  15.325  0.2347  1.2463 -1.2271
 5977TIP3    H239347   4.401   4.234  15.294 -1.7829  0.9106  1.2238
 5978TIP3   OH239348   6.775   1.731  12.414  0.2231 -0.7330  0.0958
 5978TIP3    H139349   6.766   1.647  12.459 -0.6271  0.7083  2.8464
 5978TIP3    H239350   6.857   1.767  12.448  0.3623 -0.2401 -0.7439
 5979TIP3   OH239351   2.223   2.693   5.018 -0.3020  0.5090  0.1126
 5979TIP3    H139352   2.301   2.745   5.037 -0.4437  0.9176 -0.3866
 5979TIP3    H239353   2.150   2.747   5.051 -0.2938 -0.6229  2.1474
 5980TIP3   OH239354   0.455   4.272   0.835  0.4314 -0.3802  0.8494
 5980TIP3    H139355   0.546   4.243   0.839  0.6925 -0.1515 -1.6577
 5980TIP3    H239356   0.432   4.265   0.742 -2.2224 -0.7377  1.4487
 5981TIP3   OH239357   5.642   3.629   3.331  0.0709  0.2531 -0.1135
 5981TIP3    H139358   5.694   3.549   3.329  0.0792 -0.0022  3.4787
 5981TIP3    H239359   5.551   3.600   3.325  0.0885 -0.0251  0.8546
 5982TIP3   OH239360   6.749   2.155  15.318 -0.1458 -0.6280 -0.4065
 5982TIP3    H139361   6.792   2.071  15.303  0.4629 -0.3357 -0.3482
 5982TIP3    H239362   6.688   2.139  15.389 -0.3264 -1.1198 -0.6712
 5983TIP3   OH239363   2.213   4.173   5.929  0.4775 -0.6996  0.3489
 5983TIP3    H139364   2.182   4.086   5.905 -1.5849  0.3596 -1.0926
 5983TIP3    H239365   2.231   4.166   6.023 -1.0942 -2.2847  0.5881
 5984TIP3   OH239366   2.322   2.999  12.520  0.1323  0.1851 -0.1122
 5984TIP3    H139367   2.250   2.985  12.459 -0.8349 -0.1365  1.0837
 5984TIP3    H239368   2.398   3.012  12.463 -0.9129  0.9241 -1.4033
 5985TIP3   OH239369   5.340   4.181   5.430  0.5122 -0.3665  0.0510
 5985TIP3    H139370   5.376   4.163   5.517 -1.0936 -1.8457  0.4608
 5985TIP3    H239371   5.256   4.223   5.447  0.7004  0.4059 -0.8411
 5986TIP3   OH239372   2.417   1.386   5.769 -0.6830 -0.0641  0.2736
 5986TIP3    H139373   2.419   1.295   5.742 -1.5578 -0.4965  1.5915
 5986TIP3    H239374   2.338   1.422   5.729 -0.8968 -0.1731  0.5902
 5987TIP3   OH239375   6.361   6.464   2.138 -0.3647  0.1085 -0.1551
 5987TIP3    H139376   6.445   6.479   2.096 -0.3905  0.1627 -0.1881
 5987TIP3    H239377   6.318   6.550   2.137 -0.0463  0.2869  0.6870
 5988TIP3   OH239378   5.447   2.168   5.773  0.2703 -0.0391 -0.2022
 5988TIP3    H139379   5.434   2.093   5.830  0.9209 -0.2929 -0.3749
 5988TIP3    H239380   5.531   2.205   5.801  0.8398 -0.4569 -1.2945
 5989TIP3   OH239381   4.005   1.684  16.873 -0.0500  0.1671 -0.1962
 5989TIP3    H139382   4.056   1.675  16.953  0.6925 -1.2045 -0.7788
 5989TIP3    H239383   3.929   1.736  16.898  0.5852  0.4748  1.1858
 5990TIP3   OH239384   0.371   1.742  13.687  0.6173  0.3380  0.3606
 5990TIP3    H139385   0.360   1.647  13.685  0.8629  0.2789  1.1531
 5990TIP3    H239386   0.447   1.755  13.744  0.3682  1.0245  0.5386
 5991TIP3   OH239387   5.905   2.699  17.049 -0.5158  0.0738  0.4557
 5991TIP3    H139388   5.854   2.619  17.059  1.8715 -1.3488  2.3125
 5991TIP3    H239389   5.919   2.707  16.955 -1.8488 -0.9421  0.1400
 5992TIP3   OH239390   2.063   0.250   0.314 -0.7155  0.1517 -0.4274
 5992TIP3    H139391   2.059   0.311   0.388  1.8518  1.3572 -1.1659
 5992TIP3    H239392   1.998   0.284   0.252 -0.3250  1.3458 -0.2244
 5993TIP3   OH239393   0.684   3.156   4.178 -0.7216 -0.0867  0.4193
 5993TIP3    H139394   0.725   3.111   4.252  0.2228 -2.4980 -1.4403
 5993TIP3    H239395   0.614   3.098   4.149 -2.3119  1.6940  0.5016
 5994TIP3   OH239396   5.801   5.622   4.318 -0.3390 -0.1927 -0.1057
 5994TIP3    H139397   5.818   5.716   4.310  1.0319 -0.3368  0.7354
 5994TIP3    H239398   5.744   5.615   4.394 -1.4880  0.0399 -0.9250
 5995TIP3   OH239399   1.985   2.873  17.358  0.1314  0.5429  0.9828
 5995TIP3    H139400   2.012   2.856  17.448  1.4381 -0.5687  0.4154
 5995TIP3    H239401   1.911   2.813  17.344 -1.9128  2.6390  2.1128
 5996TIP3   OH239402   6.729   6.193  15.907 -0.5002 -0.3916  0.0870
 5996TIP3    H139403   6.703   6.148  15.988 -0.0249 -3.2087 -1.2067
 5996TIP3    H239404   6.824   6.184  15.904 -0.4425  0.3138 -0.4510
 5997TIP3   OH239405   4.472   5.294   3.059 -0.2094  0.1210  0.1040
 5997TIP3    H139406   4.477   5.366   3.121  1.1354  0.9597 -0.9408
 5997TIP3    H239407   4.416   5.326   2.988 -0.7603 -0.3949  0.2922
 5998TIP3   OH239408   4.007   4.208  16.578  0.4146 -0.1876  0.9658
 5998TIP3    H139409   3.950   4.281  16.605 -0.6443  0.7149 -2.9534
 5998TIP3    H239410   4.083   4.215  16.635  0.7364  4.5638  0.4124
 5999TIP3   OH239411   4.140   2.859   2.003 -0.0318 -0.6047  0.2189
 5999TIP3    H139412   4.186   2.797   2.060 -1.9974 -2.6655 -0.2508
 5999TIP3    H239413   4.139   2.941   2.051 -0.0115 -1.7750  2.3315
 6000TIP3   OH239414   4.421   1.994   6.147 -0.0618  0.1078  0.5008
 6000TIP3    H139415   4.507   2.011   6.110 -0.0205 -0.5548  0.2769
 6000TIP3    H239416   4.359   2.038   6.088 -0.2451 -3.2523 -2.1198
 6001TIP3   OH239417   5.044   2.270  15.065  0.0349  0.3127  0.0977
 6001TIP3    H139418   5.107   2.294  15.133  0.5474  0.0553 -0.2798
 6001TIP3    H239419   5.097   2.260  14.986 -0.7328  2.0051 -0.6802
 6002TIP3   OH239420   0.493   5.297  16.321  0.5069  0.4752 -0.0393
 6002TIP3    H139421   0.456   5.247  16.394 -0.4924  0.6915 -0.3785
 6002TIP3    H239422   0.585   5.272  16.319  0.3104 -0.3635  0.6125
 6003TIP3   OH239423   5.559   2.371   5.311  0.0739  0.2883 -0.1449
 6003TIP3    H139424   5.622   2.349   5.380 -0.9784 -0.8921  0.4744
 6003TIP3    H239425   5.553   2.467   5.314 -1.0687  0.2302  2.4960
 6004TIP3   OH239426   3.103   5.671   6.117  0.3245  0.0333  0.2569
 6004TIP3    H139427   3.042   5.603   6.087 -1.6918  1.5857  0.6023
 6004TIP3    H239428   3.147   5.701   6.038 -0.3996 -0.1453 -0.2237
 6005TIP3   OH239429   3.630   0.068  15.701 -0.0920  0.4871 -0.4548
 6005TIP3    H139430   3.714   0.106  15.676 -0.8410  1.7256 -1.1889
 6005TIP3    H239431   3.623   0.085  15.795 -0.4883  2.4317 -0.7893
 6006TIP3   OH239432   6.551   3.473  12.654 -0.2015  0.1719  0.6158
 6006TIP3    H139433   6.552   3.568  12.663  3.3026  0.3041  0.4830
 6006TIP3    H239434   6.508   3.457  12.570  0.3772  1.7685 -0.0160
 6007TIP3   OH239435   2.662   2.016  17.184  0.2466 -0.1521  0.2266
 6007TIP3    H139436   2.730   1.950  17.173 -0.7348 -1.5222  1.9497
 6007TIP3    H239437   2.697   2.076  17.250  0.0795 -0.4363  0.5740
 6008TIP3   OH239438   5.468   5.341  16.882  0.4270  0.3443  0.5125
 6008TIP3    H139439   5.466   5.429  16.920 -0.8028  0.1367  0.9926
 6008TIP3    H239440   5.462   5.282  16.958 -1.7844 -0.0805  0.0803
 6009TIP3   OH239441   5.526   5.424  16.600  0.6719 -0.3248  0.4346
 6009TIP3    H139442   5.525   5.416  16.695  1.6229  0.9163  0.5754
 6009TIP3    H239443   5.597   5.486  16.582  1.1414 -1.2571 -1.1444
 6010TIP3   OH239444   3.855   1.337  11.502  0.5355 -0.1117  0.2097
 6010TIP3    H139445   3.785   1.290  11.457  0.3795 -0.7039  1.0565
 6010TIP3    H239446   3.930   1.330  11.442 -0.2048  0.8405 -0.8717
 6011TIP3   OH239447   4.187   3.690  12.051 -0.2110 -0.2567  0.1008
 6011TIP3    H139448   4.216   3.696  12.143 -0.9728 -0.7642  0.3867
 6011TIP3    H239449   4.144   3.773  12.034  1.4123  0.5360 -0.3489
 6012TIP3   OH239450   3.623   0.440  11.527 -0.0276  0.1106 -0.1918
 6012TIP3    H139451   3.718   0.429  11.530  0.0112 -0.5837 -2.3415
 6012TIP3    H239452   3.611   0.529  11.493 -0.1238 -0.0109 -0.4820
 6013TIP3   OH239453   1.996   3.925   3.014  0.1846 -0.4471  0.2424
 6013TIP3    H139454   1.910   3.901   3.047 -0.3037 -0.2316 -0.8151
 6013TIP3    H239455   2.056   3.911   3.087 -0.9815  1.0099  1.5372
 6014TIP3   OH239456   2.651   0.340  15.560  0.0360 -0.1569  0.2602
 6014TIP3    H139457   2.667   0.336  15.654 -1.6174  2.3909  0.7644
 6014TIP3    H239458   2.565   0.299  15.547 -0.1201  0.2347  0.0118
 6015TIP3   OH239459   3.700   2.064   5.374  0.2887 -0.5255  1.0464
 6015TIP3    H139460   3.711   2.149   5.417 -1.3656  0.1995  0.1557
 6015TIP3    H239461   3.788   2.039   5.346  0.6835  1.4513  0.3412
 6016TIP3   OH239462   4.526   0.759   6.837  0.4568  0.0555  0.1860
 6016TIP3    H139463   4.572   0.691   6.787 -0.3385 -0.1082 -0.3313
 6016TIP3    H239464   4.479   0.810   6.772 -1.8975 -1.1496  0.8531
 6017TIP3   OH239465   4.365   6.745   1.569 -0.4977  0.0174  0.7124
 6017TIP3    H139466   4.449   6.747   1.522 -0.9355 -1.0850 -0.1696
 6017TIP3    H239467   4.388   6.715   1.657 -0.1027 -1.6071  0.0932
 6018TIP3   OH239468   3.356   1.444   0.447 -0.6247  0.1296  0.3727
 6018TIP3    H139469   3.294   1.373   0.436 -1.2732  0.4826  1.5898
 6018TIP3    H239470   3.303   1.522   0.464  0.0194  1.1490 -1.8342
 6019TIP3   OH239471   2.922   6.108   4.157 -0.2681 -0.1664  0.0845
 6019TIP3    H139472   2.938   6.102   4.063 -1.3976 -1.5317 -0.0664
 6019TIP3    H239473   2.883   6.023   4.179 -0.2492  0.2324  1.7350
 6020TIP3   OH239474   2.236   2.267  15.747 -0.2228 -0.5153 -1.0170
 6020TIP3    H139475   2.274   2.203  15.687  2.0921 -0.0668 -0.1284
 6020TIP3    H239476   2.239   2.350  15.699 -2.2872 -0.8061 -1.7823
 6021TIP3   OH239477   5.853   0.145   0.908 -0.2745 -0.6699  0.6685
 6021TIP3    H139478   5.941   0.181   0.899 -0.3858 -0.7016 -0.7123
 6021TIP3    H239479   5.858   0.091   0.987  0.7891 -0.2325  0.9202
 6022TIP3   OH239480   3.085   6.664  15.257 -0.0835  0.4212 -0.1867
 6022TIP3    H139481   3.106   6.697  15.169 -2.1878  0.0735 -0.8696
 6022TIP3    H239482   3.087   6.742  15.313 -2.5453  1.3875 -1.3231
 6023TIP3   OH239483   0.474   3.539   2.643 -0.1950  0.1603  0.4188
 6023TIP3    H139484   0.474   3.628   2.606 -1.8455  0.5263  1.2098
 6023TIP3    H239485   0.508   3.550   2.732  0.6477 -0.1933  0.1481
 6024TIP3   OH239486   3.730   2.515   0.968  0.3866  0.2530  0.0522
 6024TIP3    H139487   3.654   2.487   0.917  2.0413  0.6685 -2.8242
 6024TIP3    H239488   3.788   2.558   0.905  3.4522 -0.8190  1.8830
 6025TIP3   OH239489   2.601   2.592   6.033  0.2250 -0.0202  0.0472
 6025TIP3    H139490   2.607   2.629   6.122 -1.6315  0.5562 -0.0145
 6025TIP3    H239491   2.586   2.499   6.047 -0.0060  0.0584  0.3529
 6026TIP3   OH239492   2.458   5.181  11.456 -0.1175  0.4829 -0.3084
 6026TIP3    H139493   2.429   5.200  11.367 -0.3205  0.9699 -0.1397
 6026TIP3    H239494   2.483   5.266  11.492 -1.1686  0.4712  0.5037
 6027TIP3   OH239495   6.194   4.544  15.384  0.6329 -0.3098 -0.2857
 6027TIP3    H139496   6.209   4.567  15.476  2.4651  0.3364 -0.7150
 6027TIP3    H239497   6.125   4.603  15.355  2.5923  2.1261 -0.3029
 6028TIP3   OH239498   5.540   6.271   0.493 -0.1264  1.0050  0.0930
 6028TIP3    H139499   5.622   6.320   0.494  0.1279  0.5981 -0.2481
 6028TIP3    H239500   5.539   6.224   0.576 -1.5155  3.3905  1.5498
 6029TIP3   OH239501   4.996   1.993   5.298 -0.5994 -0.4314  0.3397
 6029TIP3    H139502   4.917   2.040   5.323 -1.5521 -1.6776 -0.2482
 6029TIP3    H239503   5.044   1.982   5.380 -1.4239 -0.3791  0.8365
 6030TIP3   OH239504   2.768   4.888  13.113  0.2540  0.4800  0.4216
 6030TIP3    H139505   2.834   4.822  13.091  0.2496  0.7070 -0.2902
 6030TIP3    H239506   2.734   4.918  13.029 -0.4340  0.7012  0.7664
 6031TIP3   OH239507   2.222   6.163   5.974 -0.2943 -0.2841 -0.2297
 6031TIP3    H139508   2.177   6.166   5.890 -0.9097 -1.0687  0.0623
 6031TIP3    H239509   2.188   6.085   6.017 -0.1227  0.2015  0.8262
 6032TIP3   OH239510   5.515   4.370   1.880 -0.5228  0.1873 -0.0194
 6032TIP3    H139511   5.604   4.371   1.916 -0.2634  1.1577 -0.6587
 6032TIP3    H239512   5.517   4.300   1.815  0.1350  0.9893 -0.8890
 6033TIP3   OH239513   6.640   5.456   4.585 -0.1953  0.1774  0.3313
 6033TIP3    H139514   6.665   5.496   4.668 -0.1031 -0.7588  0.7625
 6033TIP3    H239515   6.674   5.367   4.590 -1.1042 -0.2209 -0.2687
 6034TIP3   OH239516   2.038   0.372  17.362 -0.2757 -0.5052 -0.0803
 6034TIP3    H139517   1.969   0.405  17.419  1.2387  1.3673  0.7634
 6034TIP3    H239518   2.116   0.371  17.417  0.5798 -1.7626 -1.2510
 6035TIP3   OH239519   4.465   5.579  11.849  0.5172 -0.0283  0.0917
 6035TIP3    H139520   4.525   5.597  11.777  0.1475  1.1054  0.0453
 6035TIP3    H239521   4.515   5.524  11.909  0.6157 -1.5779 -1.3233
 6036TIP3   OH239522   0.403   3.670   5.598 -0.0374  0.3450 -0.0215
 6036TIP3    H139523   0.353   3.603   5.553 -0.6637  1.3994 -0.9401
 6036TIP3    H239524   0.389   3.653   5.691 -0.4487 -0.5786 -0.2465
 6037TIP3   OH239525   5.780   3.894  16.979  0.1793 -0.2695  0.5521
 6037TIP3    H139526   5.690   3.861  16.983 -0.7872  2.0908  0.1244
 6037TIP3    H239527   5.801   3.917  17.070  0.1445 -0.3564  0.5812
 6038TIP3   OH239528   0.842   5.212  12.235  0.6869 -0.6896  0.1655
 6038TIP3    H139529   0.764   5.199  12.289  1.8401 -0.9722  1.8446
 6038TIP3    H239530   0.809   5.220  12.146 -1.2513 -0.7814  0.8380
 6039TIP3   OH239531   2.274   0.916   3.570 -0.6142 -0.1716  0.1129
 6039TIP3    H139532   2.299   0.933   3.479  1.3707  0.7716  0.7744
 6039TIP3    H239533   2.238   0.998   3.601 -1.9332 -0.6937  0.0045
 6040TIP3   OH239534   3.273   3.812   4.191 -0.1453  0.2932  0.2552
 6040TIP3    H139535   3.264   3.853   4.105 -1.8969  0.7374  0.6060
 6040TIP3    H239536   3.209   3.741   4.191  0.2484 -0.0779  0.9844
 6041TIP3   OH239537   2.747   0.599   4.220 -0.4062 -0.0384  0.2123
 6041TIP3    H139538   2.667   0.605   4.168 -0.9613  1.2404  1.1786
 6041TIP3    H239539   2.717   0.599   4.311  0.6722  0.1474  0.5823
 6042TIP3   OH239540   6.564   6.297  14.513 -0.3533 -0.0091 -0.1550
 6042TIP3    H139541   6.487   6.326  14.562 -0.2855  0.5234 -0.3527
 6042TIP3    H239542   6.634   6.291  14.578 -0.2711  0.6625 -0.1796
 6043TIP3   OH239543   3.184   1.127   1.570 -0.1724 -0.6904 -0.5726
 6043TIP3    H139544   3.140   1.186   1.508 -0.8410 -2.2358 -1.6406
 6043TIP3    H239545   3.154   1.040   1.545 -0.0014 -1.4285  1.5889
 6044TIP3   OH239546   1.068   6.256  11.330  0.1997  0.4465 -0.7285
 6044TIP3    H139547   1.148   6.267  11.278  0.4723  0.6609 -0.2714
 6044TIP3    H239548   1.098   6.262  11.421 -0.2139 -0.2912 -0.5366
 6045TIP3   OH239549   1.580   1.014   1.529 -0.0908 -0.2366 -0.4009
 6045TIP3    H139550   1.498   1.049   1.562  0.2990  0.1770  0.1550
 6045TIP3    H239551   1.581   1.039   1.437  0.2875  1.5023  0.0204
 6046TIP3   OH239552   1.838   4.173  13.136  0.6180 -0.0800 -0.9804
 6046TIP3    H139553   1.896   4.246  13.158 -1.9271  1.0934  2.8610
 6046TIP3    H239554   1.765   4.213  13.090 -0.3543 -0.2718  0.3375
 6047TIP3   OH239555   4.514   3.065   0.137 -0.2986 -0.2837  0.4832
 6047TIP3    H139556   4.528   3.044   0.229  3.0093  0.1297  0.2058
 6047TIP3    H239557   4.526   2.982   0.091  0.0618 -0.1245  0.2856
 6048TIP3   OH239558   4.297   4.149  16.131  0.2204 -0.1463  0.7356
 6048TIP3    H139559   4.393   4.145  16.137  0.4989  3.3312  0.6804
 6048TIP3    H239560   4.267   4.138  16.221  0.8174  0.3598  1.0097
 6049TIP3   OH239561   1.440   1.205   4.871  0.1688 -0.0128  0.1733
 6049TIP3    H139562   1.353   1.229   4.840  0.2051 -2.6664 -2.4278
 6049TIP3    H239563   1.425   1.164   4.956 -1.3114 -1.2705 -0.6392
 6050TIP3   OH239564   4.310   5.707  15.469 -0.3490 -0.6077 -0.1434
 6050TIP3    H139565   4.350   5.691  15.555  1.7061  0.3693 -0.8402
 6050TIP3    H239566   4.249   5.780  15.485  0.4458 -0.0388  0.4130
 6051TIP3   OH239567   2.638   0.437  11.436  0.0483 -0.1489 -0.0672
 6051TIP3    H139568   2.610   0.481  11.356 -2.7453 -0.8764  0.4167
 6051TIP3    H239569   2.693   0.365  11.406  0.4313  0.5932 -1.1909
 6052TIP3   OH239570   6.400   2.747  14.576  0.5103 -0.1089 -0.3562
 6052TIP3    H139571   6.377   2.763  14.667 -0.4618  1.3137 -0.8060
 6052TIP3    H239572   6.343   2.675  14.549  2.0637 -1.7626  0.6135
 6053TIP3   OH239573   1.234   2.348  17.096 -0.3173 -0.6105 -0.5038
 6053TIP3    H139574   1.149   2.379  17.126  0.3059  0.3711  0.3005
 6053TIP3    H239575   1.240   2.258  17.128 -0.9820 -0.6333 -0.4371
 6054TIP3   OH239576   5.517   3.325  12.411 -0.4240  0.7258 -0.7981
 6054TIP3    H139577   5.448   3.390  12.424 -2.6096 -1.0858 -2.6035
 6054TIP3    H239578   5.586   3.351  12.472 -2.8819  2.3133  1.5238
 6055TIP3   OH239579   3.006   1.122  15.030 -0.3229 -0.4882 -0.2339
 6055TIP3    H139580   3.024   1.030  15.053 -0.5560 -0.6771 -0.7698
 6055TIP3    H239581   3.061   1.137  14.952  0.2198  0.0348  0.2399
 6056TIP3   OH239582   2.795   4.848   0.914 -0.1224 -0.5153  0.5281
 6056TIP3    H139583   2.717   4.876   0.865  0.7390  0.4080 -0.3435
 6056TIP3    H239584   2.848   4.801   0.850  1.3746  1.3626  0.3333
 6057TIP3   OH239585   3.065   5.394  12.184  0.4534 -0.4406  0.0870
 6057TIP3    H139586   2.998   5.454  12.214 -0.2178 -0.9665 -0.3314
 6057TIP3    H239587   3.118   5.445  12.122 -0.3642 -0.3926 -0.5817
 6058TIP3   OH239588   3.692   3.508  12.392  0.3217  0.7423  0.3959
 6058TIP3    H139589   3.781   3.472  12.382  0.2161  0.5167  0.2635
 6058TIP3    H239590   3.698   3.562  12.471  0.8792  1.6755 -0.2724
 6059TIP3   OH239591   1.110   3.266   5.712  0.1292 -0.4781  0.2495
 6059TIP3    H139592   1.016   3.270   5.694  0.4347 -1.3120 -1.7344
 6059TIP3    H239593   1.127   3.345   5.764 -1.6379 -0.2657  0.5799
 6060TIP3   OH239594   1.575   1.210   5.224 -1.2126 -0.3046  0.2102
 6060TIP3    H139595   1.499   1.158   5.199 -0.8983 -0.8882  0.4299
 6060TIP3    H239596   1.649   1.149   5.217 -0.6525  0.4511 -0.7255
 6061TIP3   OH239597   3.696   6.445  16.696 -0.4892  0.1877  0.7596
 6061TIP3    H139598   3.724   6.404  16.614  0.8541  0.9623  0.8018
 6061TIP3    H239599   3.753   6.407  16.763 -0.6138  0.6150  1.1173
 6062TIP3   OH239600   4.822   2.554  16.337  0.1351  0.2748 -0.1091
 6062TIP3    H139601   4.900   2.577  16.387  0.1010 -0.4689  0.3028
 6062TIP3    H239602   4.751   2.600  16.381  0.2065  0.1864  0.1012
 6063TIP3   OH239603   1.102   5.904  11.493 -0.3298 -0.3314 -0.5173
 6063TIP3    H139604   1.178   5.949  11.529  0.3893 -2.9940  1.6313
 6063TIP3    H239605   1.100   5.930  11.401  1.3888  2.1001  0.0397
 6064TIP3   OH239606   2.759   0.449  16.498 -0.1198  0.2949  0.0464
 6064TIP3    H139607   2.801   0.431  16.414 -0.7391  1.8321 -0.6272
 6064TIP3    H239608   2.669   0.474  16.475 -1.2689 -2.1216  1.3840
 6065TIP3   OH239609   3.152   1.022   1.206  0.2191  0.3839 -0.3763
 6065TIP3    H139610   3.165   0.945   1.151 -0.4867 -0.2110  0.2640
 6065TIP3    H239611   3.057   1.032   1.212  0.1871 -0.5769  2.0316
 6066TIP3   OH239612   1.116   5.563  15.628 -0.8427  0.3357  0.0974
 6066TIP3    H139613   1.185   5.605  15.679 -1.8796  0.7414  1.2281
 6066TIP3    H239614   1.111   5.474  15.662  1.8495 -1.1192 -2.7956
 6067TIP3   OH239615   2.141   6.300  12.739 -0.0337  0.1190  0.2852
 6067TIP3    H139616   2.111   6.249  12.814 -0.0078  1.3035  1.1201
 6067TIP3    H239617   2.076   6.281  12.671 -0.2990 -0.6326  0.7305
 6068TIP3   OH239618   5.157   0.508   4.139  0.0457 -0.3075 -0.5072
 6068TIP3    H139619   5.204   0.584   4.172 -1.1253 -0.1745  0.9423
 6068TIP3    H239620   5.226   0.450   4.106  1.0891  0.5525  0.0980
 6069TIP3   OH239621   5.331   1.398  11.075  0.4352 -0.4576 -0.0448
 6069TIP3    H139622   5.300   1.386  10.985 -0.5551 -0.9488  0.3472
 6069TIP3    H239623   5.347   1.492  11.083 -1.6987 -0.0407 -0.0654
 6070TIP3   OH239624   5.093   4.881   0.721  0.2266 -0.2085 -0.2143
 6070TIP3    H139625   5.023   4.822   0.747 -0.1254  0.5312  0.5896
 6070TIP3    H239626   5.049   4.951   0.672  0.5686 -0.3477 -0.7339
 6071TIP3   OH239627   4.607   3.038   4.521 -0.5058  0.1093  0.4940
 6071TIP3    H139628   4.692   3.000   4.501 -0.1914 -0.5097  2.6422
 6071TIP3    H239629   4.552   3.018   4.445  0.6097 -1.6630  0.0964
 6072TIP3   OH239630   3.067   4.579   2.769 -0.4121 -0.2299 -0.1579
 6072TIP3    H139631   3.084   4.530   2.849  0.7970  0.2073 -0.1183
 6072TIP3    H239632   3.102   4.523   2.699 -0.1652  0.0092 -0.2295
 6073TIP3   OH239633   0.250   0.319   2.756 -0.2164 -0.4270 -0.3061
 6073TIP3    H139634   0.172   0.359   2.717 -0.9199 -0.6957  0.7986
 6073TIP3    H239635   0.270   0.374   2.832  1.3438  0.2924 -1.1898
 6074TIP3   OH239636   5.496   0.370  11.240  0.3492 -0.1831  0.0199
 6074TIP3    H139637   5.515   0.342  11.329 -0.7090  0.8635  0.6105
 6074TIP3    H239638   5.513   0.293  11.186  0.2336 -1.0763  1.2226
 6075TIP3   OH239639   2.474   2.513  12.781 -0.8685 -0.2484  0.0247
 6075TIP3    H139640   2.567   2.520  12.761 -0.7549 -3.1940 -1.0553
 6075TIP3    H239641   2.430   2.541  12.700 -1.0223  1.8431  0.7741
 6076TIP3   OH239642   5.276   5.109  16.762  0.5184  0.2517  0.1283
 6076TIP3    H139643   5.194   5.136  16.721  0.2194  0.1312  0.6283
 6076TIP3    H239644   5.309   5.188  16.804  1.1909  0.5487 -0.9243
 6077TIP3   OH239645   4.770   6.402   0.491  0.1908  0.0204 -0.4857
 6077TIP3    H139646   4.793   6.340   0.560  0.7856 -0.6880 -1.2981
 6077TIP3    H239647   4.853   6.425   0.450 -0.0578  1.1213 -0.4085
 6078TIP3   OH239648   3.067   3.765  17.253  0.0942  0.5307 -0.0999
 6078TIP3    H139649   3.067   3.854  17.217 -0.9167  0.3201 -0.6824
 6078TIP3    H239650   3.101   3.711  17.182  1.2689  0.5097  0.4597
 6079TIP3   OH239651   5.272   6.350   3.563 -0.5968  0.3514 -0.0262
 6079TIP3    H139652   5.295   6.442   3.572  0.7632  0.0264 -0.0514
 6079TIP3    H239653   5.195   6.340   3.619 -2.3024  2.0048 -1.8774
 6080TIP3   OH239654   5.320   1.538  14.409 -0.6922 -0.3199 -0.7617
 6080TIP3    H139655   5.401   1.496  14.439 -0.2812  1.2456  0.4447
 6080TIP3    H239656   5.342   1.631  14.404 -2.3847  0.1179 -0.5727
 6081TIP3   OH239657   2.597   6.206  12.276  0.5650 -0.1721  0.5059
 6081TIP3    H139658   2.534   6.275  12.255 -0.5093 -1.1788  0.2965
 6081TIP3    H239659   2.548   6.146  12.333  0.5316 -2.2189 -1.5372
 6082TIP3   OH239660   1.358   1.765  13.624 -0.1448  0.2170 -0.5862
 6082TIP3    H139661   1.359   1.703  13.551  1.2885 -0.5221  0.0129
 6082TIP3    H239662   1.373   1.711  13.701 -1.7372  0.9796  0.2978
 6083TIP3   OH239663   4.933   6.528   6.192 -0.2662 -0.0981 -0.2367
 6083TIP3    H139664   5.024   6.514   6.166  0.0780  2.1715 -0.4574
 6083TIP3    H239665   4.882   6.492   6.120  0.5226  0.1959 -0.9624
 6084TIP3   OH239666   5.653   0.356   0.591  0.0658 -0.5590  0.2123
 6084TIP3    H139667   5.629   0.285   0.651 -0.7830 -0.6250 -0.1955
 6084TIP3    H239668   5.640   0.319   0.504 -0.1371  0.0153 -0.0044
 6085TIP3   OH239669   1.985   6.034   4.552 -0.0151 -0.3284  0.4782
 6085TIP3    H139670   1.918   6.003   4.612 -1.5545  0.3373 -0.8269
 6085TIP3    H239671   2.055   6.065   4.609 -1.6837  0.8905  1.9716
 6086TIP3   OH239672   3.633   3.405   4.417 -0.0332 -0.3012 -0.0034
 6086TIP3    H139673   3.561   3.436   4.362 -0.5732 -0.2704  0.7026
 6086TIP3    H239674   3.606   3.317   4.445 -0.1869  0.0263  0.9204
 6087TIP3   OH239675   1.477   0.259  15.987  0.1573  0.2500  0.2590
 6087TIP3    H139676   1.455   0.173  15.952  0.3342  0.3455 -0.0842
 6087TIP3    H239677   1.422   0.267  16.065 -0.0058 -0.0903  0.1820
 6088TIP3   OH239678   0.558   3.456  10.877 -0.1610  0.4026  0.3194
 6088TIP3    H139679   0.609   3.458  10.958 -0.6975 -1.9188  0.7784
 6088TIP3    H239680   0.623   3.439  10.809 -0.0089 -0.1645  0.5977
 6089TIP3   OH239681   5.516   4.477  12.078  0.1258 -0.2877 -0.5457
 6089TIP3    H139682   5.522   4.487  11.983 -0.1394  0.5417 -0.4789
 6089TIP3    H239683   5.576   4.405  12.098 -1.2443 -1.7932 -1.5628
 6090TIP3   OH239684   4.154   1.524  11.626 -0.3718 -0.2869  0.2234
 6090TIP3    H139685   4.173   1.609  11.586  1.6815 -0.3369  0.9688
 6090TIP3    H239686   4.194   1.460  11.567 -0.2920 -0.6043  0.6141
 6091TIP3   OH239687   3.816   0.717  10.723  0.0518  0.1363 -0.1433
 6091TIP3    H139688   3.798   0.680  10.636  1.1081  0.9156 -0.7168
 6091TIP3    H239689   3.883   0.660  10.760 -2.1026 -1.6669  1.2311
 6092TIP3   OH239690   0.284   3.433   2.475 -0.6011  0.0366  0.0459
 6092TIP3    H139691   0.257   3.489   2.402 -1.1029  0.4421  0.5314
 6092TIP3    H239692   0.346   3.486   2.525  0.1414 -0.4323 -0.3670
 6093TIP3   OH239693   5.665   6.167  14.963  0.1520  0.0843 -0.1023
 6093TIP3    H139694   5.647   6.114  15.041 -0.0593  0.3180  0.0111
 6093TIP3    H239695   5.579   6.187  14.928  0.2593 -0.3537 -0.6269
 6094TIP3   OH239696   2.938   0.703  15.572 -0.8280  0.8123  0.1608
 6094TIP3    H139697   2.937   0.770  15.641 -1.5641 -0.1879  1.1585
 6094TIP3    H239698   2.856   0.654  15.585  0.8126 -1.8723  1.0545
 6095TIP3   OH239699   6.498   6.688  16.286  0.3754  0.2869 -0.3889
 6095TIP3    H139700   6.584   6.726  16.271  0.7483 -0.2457  0.3263
 6095TIP3    H239701   6.502   6.653  16.375  0.3120 -2.0223 -1.2138
 6096TIP3   OH239702   1.187   6.550   5.332  0.5126  0.2573 -0.3571
 6096TIP3    H139703   1.202   6.543   5.426  0.8480  0.8065 -0.3679
 6096TIP3    H239704   1.108   6.604   5.324  1.8727  2.3491 -0.4285
 6097TIP3   OH239705   0.905   3.843   2.878  0.4226  0.3745  0.4366
 6097TIP3    H139706   0.851   3.783   2.826  1.3977  0.7764 -1.1132
 6097TIP3    H239707   0.927   3.794   2.957 -0.7614 -0.4153  0.2929
 6098TIP3   OH239708   6.448   3.142   1.019  0.2743 -0.1235  0.5667
 6098TIP3    H139709   6.538   3.168   1.001  0.6379 -1.6468 -0.0020
 6098TIP3    H239710   6.402   3.157   0.936  0.1076  0.2461  0.7262
 6099TIP3   OH239711   6.118   2.664  15.462  0.3609 -0.2537 -0.3346
 6099TIP3    H139712   6.150   2.753  15.477 -1.1938 -0.1687  3.7082
 6099TIP3    H239713   6.086   2.664  15.372  1.4558  2.9000 -0.8352
 6100TIP3   OH239714   6.381   6.288   6.950 -0.0517 -0.6155  0.6110
 6100TIP3    H139715   6.341   6.201   6.957 -2.4987  0.4411  0.6998
 6100TIP3    H239716   6.311   6.343   6.915  0.9676  1.6240  1.9224
 6101TIP3   OH239717   5.657   0.764   0.621 -0.1521 -0.8188 -0.2413
 6101TIP3    H139718   5.682   0.770   0.528  1.3458 -0.5308  0.1544
 6101TIP3    H239719   5.652   0.856   0.649 -2.0301 -0.8494 -0.3702
 6102TIP3   OH239720   5.003   5.464  16.434  0.1995 -0.4100 -0.1261
 6102TIP3    H139721   5.065   5.445  16.364 -0.7229  0.9999 -1.3921
 6102TIP3    H239722   5.042   5.538  16.481  0.3261 -0.7103  0.2589
 6103TIP3   OH239723   5.396   4.718  17.047 -0.1130 -0.4484 -0.6390
 6103TIP3    H139724   5.393   4.776  16.971 -1.1795  0.5936  0.1540
 6103TIP3    H239725   5.379   4.775  17.121 -0.4010 -1.6530  0.2566
 6104TIP3   OH239726   0.046   0.394  10.750 -0.2426  0.7829  0.8571
 6104TIP3    H139727   0.027   0.349  10.832 -0.1216 -0.4872  0.2128
 6104TIP3    H239728  -0.024   0.369  10.691  1.0770 -0.4986 -0.2323
 6105TIP3   OH239729   0.869   2.338  14.637 -0.5443  0.1615  0.3634
 6105TIP3    H139730   0.918   2.311  14.715  1.4421  0.7943 -0.6163
 6105TIP3    H239731   0.913   2.296  14.564 -1.6715  0.5047 -0.5566
 6106TIP3   OH239732   4.060   2.219  13.914 -0.2505 -0.3400 -0.3335
 6106TIP3    H139733   4.136   2.244  13.863 -0.7841 -0.5371 -1.2508
 6106TIP3    H239734   4.009   2.162  13.856 -1.8225  0.9415 -0.2888
 6107TIP3   OH239735   6.572   4.301   2.858 -0.2395 -0.3681  0.0108
 6107TIP3    H139736   6.640   4.317   2.924  0.7462  0.3834 -1.1391
 6107TIP3    H239737   6.489   4.317   2.904  0.4308  0.3267  1.0059
 6108TIP3   OH239738   3.765   4.836  13.216 -0.5269  0.0934  0.5864
 6108TIP3    H139739   3.777   4.904  13.283 -2.1028 -0.6250  1.6264
 6108TIP3    H239740   3.712   4.769  13.258  0.3881 -1.4868 -0.6591
 6109TIP3   OH239741   5.152   4.174   1.325 -0.3228 -0.7431 -0.4308
 6109TIP3    H139742   5.151   4.267   1.350  1.1037 -1.2908  2.0774
 6109TIP3    H239743   5.060   4.150   1.319 -0.7149  0.7008 -0.5419
 6110TIP3   OH239744   0.587   4.294   3.112 -0.1332 -0.0002  0.5703
 6110TIP3    H139745   0.576   4.389   3.121  1.3902  0.2294  0.2792
 6110TIP3    H239746   0.617   4.265   3.198 -0.1819 -0.1563  0.5351
 6111TIP3   OH239747   3.499   6.693  14.577  0.1924 -0.2158  0.2081
 6111TIP3    H139748   3.468   6.686  14.487  0.6028  0.4520  0.0111
 6111TIP3    H239749   3.450   6.766  14.614  1.5870  0.9395 -0.1462
 6112TIP3   OH239750   5.444   1.479   1.817  0.5093 -0.6304 -0.5650
 6112TIP3    H139751   5.444   1.404   1.876  0.9380 -0.3358 -0.1822
 6112TIP3    H239752   5.359   1.521   1.831  0.5228 -0.6852 -0.3152
 6113TIP3   OH239753   4.073   5.914  15.261 -0.0660  0.7098 -0.0645
 6113TIP3    H139754   4.020   5.943  15.187  0.7879 -0.1709 -1.0647
 6113TIP3    H239755   4.145   5.865  15.221 -0.8876 -1.9222  1.4223
 6114TIP3   OH239756   6.181   4.946  11.145 -0.0190 -0.2642  0.3829
 6114TIP3    H139757   6.105   4.996  11.114  0.0904  1.0760  2.0762
 6114TIP3    H239758   6.224   4.915  11.066 -1.6071  0.0508 -0.6506
 6115TIP3   OH239759   5.604   3.045   3.376  0.3915 -0.0046  0.5319
 6115TIP3    H139760   5.653   3.019   3.298  0.2642  2.1391 -0.3193
 6115TIP3    H239761   5.514   3.017   3.358  0.4435  0.1107  0.0724
 6116TIP3   OH239762   2.947   3.227  15.590  0.0795 -0.3671  0.2137
 6116TIP3    H139763   2.897   3.250  15.512  0.6252  0.1795  0.0221
 6116TIP3    H239764   2.880   3.218  15.659 -0.2076  1.6420  0.2719
 6117TIP3   OH239765   0.406   5.782   0.239  0.0180  0.5825 -0.1417
 6117TIP3    H139766   0.361   5.738   0.312  1.2659  1.0084  0.9314
 6117TIP3    H239767   0.387   5.727   0.163 -0.6594 -0.3306  0.6553
 6118TIP3   OH239768   2.919   2.517   4.595 -0.0946  0.1149 -0.0273
 6118TIP3    H139769   2.963   2.602   4.609  1.1084 -0.2969 -1.0972
 6118TIP3    H239770   2.989   2.452   4.605 -0.1314 -0.5014 -2.9023
 6119TIP3   OH239771   1.383   2.963  11.527  0.0474  0.1314  0.3182
 6119TIP3    H139772   1.356   2.953  11.436  0.7244 -0.5488  0.1875
 6119TIP3    H239773   1.427   3.048  11.529 -0.5960  0.4735  0.1710
 6120TIP3   OH239774   0.190   3.836  11.532 -0.3073  0.6522 -0.0594
 6120TIP3    H139775   0.181   3.918  11.484  0.1139 -0.0667 -1.4260
 6120TIP3    H239776   0.105   3.824  11.575  0.0397  2.3980  1.1796
 6121TIP3   OH239777   6.514   6.385  15.900 -0.2013 -0.3066 -0.3572
 6121TIP3    H139778   6.600   6.356  15.928 -0.7902 -2.1077 -0.2659
 6121TIP3    H239779   6.456   6.311  15.918 -1.5130  0.3196 -1.7256
 6122TIP3   OH239780   2.392   0.541  13.294  0.2057 -0.4569  0.0575
 6122TIP3    H139781   2.308   0.575  13.265 -0.0926 -0.0283  1.3545
 6122TIP3    H239782   2.432   0.612  13.343  0.5562 -1.2260  0.9257
 6123TIP3   OH239783   5.428   4.659   2.847  0.1843 -0.2344 -0.5163
 6123TIP3    H139784   5.496   4.722   2.871 -0.6891  1.7260 -2.8944
 6123TIP3    H239785   5.383   4.641   2.930 -0.5081  3.5023  0.1117
 6124TIP3   OH239786   2.763   4.033  12.863  0.4418 -0.4351 -0.5198
 6124TIP3    H139787   2.835   4.054  12.804  0.1212  0.5647 -0.5758
 6124TIP3    H239788   2.688   4.020  12.805  0.0435  0.9116 -0.3337
 6125TIP3   OH239789   4.446   3.885  16.786  0.0231  0.4154  0.6582
 6125TIP3    H139790   4.371   3.894  16.728  1.1408  1.3783 -0.6752
 6125TIP3    H239791   4.512   3.945  16.751  1.0903  0.2973  2.3481
 6126TIP3   OH239792   4.076   1.598  15.253  0.1547  0.1227  0.3377
 6126TIP3    H139793   4.170   1.616  15.254  0.3248 -0.4694 -1.5701
 6126TIP3    H239794   4.036   1.681  15.278  1.1147  1.1387 -1.3293
 6127TIP3   OH239795   3.459   4.156  10.773  0.2897  0.0452 -0.6299
 6127TIP3    H139796   3.415   4.213  10.836 -0.9676 -0.6377 -0.8659
 6127TIP3    H239797   3.490   4.215  10.704 -2.6645  0.3051 -1.8550
 6128TIP3   OH239798   4.158   1.451  12.769 -0.0449 -0.1544  0.4779
 6128TIP3    H139799   4.216   1.441  12.845  1.0138  1.7829 -0.0153
 6128TIP3    H239800   4.181   1.379  12.711 -1.4026 -2.1351  2.2725
 6129TIP3   OH239801   3.399   3.779   1.856 -0.0071  0.4092 -0.7739
 6129TIP3    H139802   3.437   3.714   1.797  1.5338  1.2005 -0.6841
 6129TIP3    H239803   3.442   3.861   1.833  0.1584  0.8625  1.0241
 6130TIP3   OH239804   0.298   5.643   4.193  0.0179  0.3483 -0.8229
 6130TIP3    H139805   0.300   5.555   4.229 -2.1151 -0.0269 -1.4956
 6130TIP3    H239806   0.372   5.646   4.131  1.7776 -0.0141  1.1433
 6131TIP3   OH239807   4.125   2.181   1.656  0.4196 -0.3696  0.7071
 6131TIP3    H139808   4.068   2.200   1.582  1.2525  0.0719  0.1509
 6131TIP3    H239809   4.100   2.245   1.723 -0.3995 -0.8327  0.8450
 6132TIP3   OH239810   4.222   6.219   3.112 -0.0264 -0.2288 -0.3384
 6132TIP3    H139811   4.200   6.144   3.168 -0.7717 -1.2836 -1.9848
 6132TIP3    H239812   4.243   6.180   3.027  1.8233  1.2792 -0.6284
 6133TIP3   OH239813   0.002   5.349   5.769  0.1033  0.1191 -0.4422
 6133TIP3    H139814  -0.069   5.290   5.746 -0.1994 -0.0502  0.8361
 6133TIP3    H239815  -0.031   5.399   5.844  0.7362  1.1814 -0.8428
 6134TIP3   OH239816   5.957   3.762  11.732  0.3189  0.2225  0.4165
 6134TIP3    H139817   5.970   3.836  11.672 -0.5052  0.6480  0.7427
 6134TIP3    H239818   6.018   3.695  11.701 -0.3065  0.3076 -1.1058
 6135TIP3   OH239819   1.740   2.642   6.010 -0.4149 -0.1394 -0.3257
 6135TIP3    H139820   1.801   2.568   6.019  0.1507  0.0423 -2.2641
 6135TIP3    H239821   1.778   2.711   6.064  0.2110 -0.5702 -0.2053
 6136TIP3   OH239822   2.680   5.239  13.890 -0.1059  0.2162 -0.3576
 6136TIP3    H139823   2.740   5.225  13.963 -1.3133 -0.8623  0.4964
 6136TIP3    H239824   2.618   5.166  13.896 -0.8575  0.6809 -1.8442
 6137TIP3   OH239825   3.398   5.297   3.924  0.0461 -0.1376  0.4951
 6137TIP3    H139826   3.360   5.323   3.840  1.8959  2.3156  0.3071
 6137TIP3    H239827   3.324   5.295   3.985 -0.8643  1.3176 -0.5010
 6138TIP3   OH239828   1.027   0.124  11.027  0.1247 -0.0816  0.0470
 6138TIP3    H139829   1.003   0.040  10.986 -0.8701  0.8388 -1.3403
 6138TIP3    H239830   0.943   0.161  11.056 -0.2242  2.5657 -3.6396
 6139TIP3   OH239831   0.221   5.075  15.749  0.4541 -0.3781  0.7866
 6139TIP3    H139832   0.278   5.139  15.706  0.9552 -0.3609  1.4507
 6139TIP3    H239833   0.141   5.075  15.697  0.7796  0.1498  0.2699
 6140TIP3   OH239834   5.557   0.606  15.346  0.1716  0.0526 -0.4144
 6140TIP3    H139835   5.588   0.550  15.275  0.8481 -1.4563  0.9986
 6140TIP3    H239836   5.631   0.612  15.406 -1.2381 -1.1220  1.5557
 6141TIP3   OH239837   1.527   2.568   4.471  0.1094 -0.7128 -0.2215
 6141TIP3    H139838   1.534   2.528   4.557  0.1837 -2.7728 -1.1113
 6141TIP3    H239839   1.487   2.500   4.416  3.2114 -0.8240 -2.6181
 6142TIP3   OH239840   4.143   3.618  17.034  0.1155  0.4687 -0.0880
 6142TIP3    H139841   4.138   3.650  16.944  2.6105 -0.8157 -0.7758
 6142TIP3    H239842   4.226   3.570  17.038  0.8781  1.7580  3.3142
 6143TIP3   OH239843   0.521   0.949  17.336 -0.1213 -0.4946 -0.5829
 6143TIP3    H139844   0.488   1.011  17.271 -0.1988 -0.4258 -0.4782
 6143TIP3    H239845   0.468   0.965  17.414 -0.0359 -0.5843 -0.5066
 6144TIP3   OH239846   3.840   1.056  13.500 -0.1788 -0.4011 -0.5669
 6144TIP3    H139847   3.774   1.098  13.445  0.5965  0.0734 -1.1483
 6144TIP3    H239848   3.912   1.118  13.504 -0.4041 -0.1848  1.4302
 6145TIP3   OH239849   1.008   2.267   5.487 -0.4019 -0.5115 -0.1437
 6145TIP3    H139850   1.015   2.287   5.580 -2.3158 -1.2872  0.2030
 6145TIP3    H239851   1.024   2.350   5.443  2.9642 -0.5676  0.6857
 6146TIP3   OH239852   2.726   2.540  12.705  0.1970  0.2465 -0.0774
 6146TIP3    H139853   2.812   2.583  12.698 -0.2920  1.3763  0.6080
 6146TIP3    H239854   2.728   2.472  12.638  1.2954  0.8329 -0.6703
 6147TIP3   OH239855   5.367   3.409   5.986 -0.0875  0.3600 -0.0543
 6147TIP3    H139856   5.458   3.384   5.973 -0.5774 -1.8117  0.3558
 6147TIP3    H239857   5.318   3.328   5.974 -1.9577  1.4374 -0.0427
 6148TIP3   OH239858   2.490   5.667  13.713  0.3213 -0.1490  0.1413
 6148TIP3    H139859   2.541   5.588  13.728  0.1545 -0.1059  0.9908
 6148TIP3    H239860   2.519   5.728  13.781  0.3622  0.4834 -0.4254
 6149TIP3   OH239861   3.936   5.247  15.877  0.5628 -0.2063  0.3784
 6149TIP3    H139862   3.931   5.302  15.955  0.9513  0.7098 -0.2189
 6149TIP3    H239863   3.972   5.164  15.908  2.4675  0.7683  0.8766
 6150TIP3   OH239864   6.644   4.809  12.444  0.5627 -0.1139  0.1338
 6150TIP3    H139865   6.563   4.801  12.394  0.5245 -0.3916  0.2414
 6150TIP3    H239866   6.714   4.808  12.378  0.4738  0.2833  0.0284
 6151TIP3   OH239867   3.216   4.007  13.977 -0.4129  0.4394  0.0771
 6151TIP3    H139868   3.264   4.083  14.011 -0.5835  0.5899 -0.0132
 6151TIP3    H239869   3.157   3.983  14.048  1.2020 -1.0271  1.0040
 6152TIP3   OH239870   6.545   1.018  16.951 -0.0480 -0.8881  0.3429
 6152TIP3    H139871   6.454   1.045  16.964  0.5995  1.5715  0.3926
 6152TIP3    H239872   6.556   1.014  16.856 -0.2033 -1.2194  0.3374
 6153TIP3   OH239873   2.724   4.094  15.129 -0.0461  0.1850  0.1544
 6153TIP3    H139874   2.777   4.127  15.056  0.6375 -0.2702  0.4391
 6153TIP3    H239875   2.703   4.173  15.179 -0.5627  0.5101 -0.5491
 6154TIP3   OH239876   0.851   3.634  16.255 -0.3213 -0.2772  0.0363
 6154TIP3    H139877   0.767   3.641  16.302  0.0233  2.0623  0.4065
 6154TIP3    H239878   0.854   3.712  16.200  0.6775 -1.4408 -1.6399
 6155TIP3   OH239879   1.662   5.718  16.444 -0.3858  0.0217 -0.0380
 6155TIP3    H139880   1.714   5.660  16.501  0.2156 -0.3172 -0.9114
 6155TIP3    H239881   1.611   5.658  16.390 -1.5606  0.3523  0.6833
 6156TIP3   OH239882   5.188   6.707   0.300  0.2088 -0.9148  0.0781
 6156TIP3    H139883   5.199   6.673   0.211 -1.1922 -1.8839  0.2393
 6156TIP3    H239884   5.095   6.730   0.305  0.0430 -1.7804  1.5792
 6157TIP3   OH239885   3.476   3.991   0.442 -0.2054 -0.4440 -0.2250
 6157TIP3    H139886   3.534   4.051   0.396 -0.9367  0.6980  0.3183
 6157TIP3    H239887   3.533   3.919   0.469  1.2511  1.2471  1.4187
 6158TIP3   OH239888   0.071   5.441  14.871  0.3578 -0.1346 -0.3564
 6158TIP3    H139889   0.140   5.393  14.915 -0.2669 -2.3410 -1.6261
 6158TIP3    H239890   0.105   5.458  14.783  0.8203  2.4154  0.2555
 6159TIP3   OH239891   5.685   5.412  14.635 -0.8009 -0.0834 -0.5059
 6159TIP3    H139892   5.596   5.400  14.667 -1.4143  1.6747 -1.4850
 6159TIP3    H239893   5.730   5.332  14.662 -2.4829 -0.7165  0.5905
 6160TIP3   OH239894   2.686   4.636  12.293 -0.1045 -0.7193 -0.0762
 6160TIP3    H139895   2.621   4.596  12.351 -0.7601 -0.6895 -0.7835
 6160TIP3    H239896   2.735   4.695  12.350  0.2510 -1.7985  0.7729
 6161TIP3   OH239897   3.453   3.590  11.567 -0.0317  0.0746 -0.2934
 6161TIP3    H139898   3.490   3.596  11.654  1.5306 -2.5766 -0.6595
 6161TIP3    H239899   3.527   3.600  11.508 -0.7779  0.1406 -1.2548
 6162TIP3   OH239900   4.897   2.024  13.583  0.3533  0.5190  1.1648
 6162TIP3    H139901   4.952   1.945  13.586 -0.1092  0.1455  0.2019
 6162TIP3    H239902   4.811   1.992  13.611 -0.1931  0.3502 -0.6326
 6163TIP3   OH239903   3.234   4.559  14.967  0.0578  0.1267 -0.2182
 6163TIP3    H139904   3.305   4.514  14.921 -0.5862 -0.4028 -0.7213
 6163TIP3    H239905   3.268   4.575  15.054 -0.3094 -3.0972  0.6636
 6164TIP3   OH239906   0.044   3.854   2.202 -0.1470 -0.1200  0.0630
 6164TIP3    H139907   0.013   3.879   2.115 -0.1034 -2.9810 -0.8765
 6164TIP3    H239908  -0.030   3.810   2.242 -0.0575  0.8885  1.3925
 6165TIP3   OH239909   2.693   0.145   5.442 -0.0287 -0.0396  0.2703
 6165TIP3    H139910   2.677   0.082   5.513 -2.0584  0.6540  0.4688
 6165TIP3    H239911   2.686   0.094   5.362  0.0588 -0.3936  0.4869
 6166TIP3   OH239912   3.519   5.482   4.162 -0.3430 -0.0781  0.7181
 6166TIP3    H139913   3.492   5.501   4.252 -1.4053 -0.1911  0.4475
 6166TIP3    H239914   3.444   5.435   4.125  0.4239 -0.7939  0.0338
 6167TIP3   OH239915   0.395   1.278  12.880  0.4514 -0.2087 -0.2647
 6167TIP3    H139916   0.307   1.242  12.896  0.3450  0.2488  0.1792
 6167TIP3    H239917   0.379   1.364  12.841  0.6972  0.1217  0.3536
 6168TIP3   OH239918   6.635   1.098  13.109  0.1748  0.4537  0.5969
 6168TIP3    H139919   6.702   1.166  13.107  0.5878  0.0306 -0.2974
 6168TIP3    H239920   6.667   1.035  13.174  0.1360  0.7520  0.9105
 6169TIP3   OH239921   1.045   1.448   0.724  0.1157 -0.7174 -0.5320
 6169TIP3    H139922   1.037   1.397   0.805 -1.0834  0.5931  0.2084
 6169TIP3    H239923   0.978   1.410   0.666 -0.7440 -0.0444  0.0015
 6170TIP3   OH239924   0.327   5.316   3.700  0.1980  0.2739 -0.3958
 6170TIP3    H139925   0.326   5.400   3.746  0.4321 -0.4985  1.0833
 6170TIP3    H239926   0.246   5.315   3.649  0.8004  1.9272 -1.4823
 6171TIP3   OH239927   3.600   6.404   2.777 -0.4912 -0.1022 -0.0897
 6171TIP3    H139928   3.686   6.408   2.735 -0.1441  1.9201  0.7364
 6171TIP3    H239929   3.538   6.425   2.707 -0.1684  0.2995 -0.2553
 6172TIP3   OH239930   4.369   0.322   5.028  0.6691  0.4852 -0.2055
 6172TIP3    H139931   4.464   0.324   5.013  0.9109  2.6799  1.2460
 6172TIP3    H239932   4.345   0.413   5.046 -1.6878 -0.0600 -0.2219
 6173TIP3   OH239933   3.354   0.044   3.861 -0.1950  0.3413  0.1724
 6173TIP3    H139934   3.417   0.023   3.793  0.8540 -0.3497  1.3201
 6173TIP3    H239935   3.368  -0.022   3.929 -2.5725 -0.2074  0.2176
 6174TIP3   OH239936   1.589   2.434   4.012  0.1475  0.2985 -0.0940
 6174TIP3    H139937   1.629   2.433   4.099 -0.3387 -2.1745  0.1793
 6174TIP3    H239938   1.643   2.496   3.962  0.8494  1.2697  1.7452
 6175TIP3   OH239939   6.101   6.299  10.988  0.1182  0.0412  0.5681
 6175TIP3    H139940   6.170   6.348  10.945  0.4003 -0.6478  0.2263
 6175TIP3    H239941   6.088   6.222  10.933 -0.7416  0.0287  0.7647
 6176TIP3   OH239942   3.802   0.631  13.719 -0.0201 -0.5697  0.8332
 6176TIP3    H139943   3.837   0.576  13.648 -0.5466 -0.1884  0.2615
 6176TIP3    H239944   3.732   0.578  13.757 -3.4799  1.1078 -2.4197
 6177TIP3   OH239945   3.100   0.509  15.367 -0.4456  0.2072 -0.0899
 6177TIP3    H139946   3.175   0.466  15.327  0.7035  1.8062  0.2667
 6177TIP3    H239947   3.027   0.491  15.308  0.3920 -0.6501 -0.8868
 6178TIP3   OH239948   0.959   6.719   5.280 -0.4920 -0.1006 -0.1244
 6178TIP3    H139949   0.966   6.684   5.191 -1.2069 -1.8081  0.4512
 6178TIP3    H239950   0.867   6.709   5.302 -0.0205 -1.3682  1.4302
 6179TIP3   OH239951   0.628   2.668   3.973  0.9671  0.0214 -0.5906
 6179TIP3    H139952   0.641   2.585   3.926 -2.8538 -1.2320  0.2372
 6179TIP3    H239953   0.649   2.648   4.064 -0.4860 -0.2552 -0.2963
 6180TIP3   OH239954   6.487   3.132   0.174  0.7460 -0.3866  0.0505
 6180TIP3    H139955   6.485   3.083   0.091  2.3957 -1.3566  0.5248
 6180TIP3    H239956   6.466   3.066   0.240  1.6541 -0.1705  0.5767
 6181TIP3   OH239957   1.198   2.520  14.097  0.0879  0.4101  0.0671
 6181TIP3    H139958   1.157   2.606  14.086 -0.5088 -0.0139 -1.1803
 6181TIP3    H239959   1.139   2.459  14.051  1.0140 -0.5234  0.0865
 6182TIP3   OH239960   3.357   3.026   4.951 -0.3669 -0.8244  0.6392
 6182TIP3    H139961   3.291   2.958   4.961 -0.6927 -0.7162 -0.6352
 6182TIP3    H239962   3.308   3.108   4.959 -0.6081 -0.7294 -1.2550
 6183TIP3   OH239963   6.696   3.402   4.168 -0.3857 -0.0759 -0.4197
 6183TIP3    H139964   6.683   3.464   4.096 -1.7606  0.8999  0.6250
 6183TIP3    H239965   6.656   3.321   4.137 -2.4630  0.7907 -0.1825
 6184TIP3   OH239966   5.075   3.686  15.114  0.2327  0.1363 -0.4901
 6184TIP3    H139967   5.079   3.608  15.058 -0.0189 -0.4762  0.3254
 6184TIP3    H239968   5.161   3.727  15.105  0.1960  0.0408 -1.3152
 6185TIP3   OH239969   0.255   5.943  12.869 -0.7430 -0.4594 -0.0230
 6185TIP3    H139970   0.307   5.990  12.934 -0.7502  0.5740 -0.7382
 6185TIP3    H239971   0.198   5.886  12.921 -2.2987  1.8963  1.0665
 6186TIP3   OH239972   4.273   2.080  15.390  0.4547 -0.1645  0.3517
 6186TIP3    H139973   4.213   2.009  15.367  1.0761 -1.1097  1.5538
 6186TIP3    H239974   4.284   2.073  15.484  3.7522 -1.0873  0.0161
 6187TIP3   OH239975   3.448   5.259   5.540 -0.0095 -0.3266 -0.1651
 6187TIP3    H139976   3.455   5.352   5.520  0.8066  0.1174  1.9201
 6187TIP3    H239977   3.366   5.231   5.498 -1.1798  1.7313  0.6115
 6188TIP3   OH239978   1.871   3.346   5.780 -0.0632 -0.2325 -0.2444
 6188TIP3    H139979   1.857   3.302   5.696 -3.9896 -2.0703  1.1373
 6188TIP3    H239980   1.837   3.434   5.768  0.1847 -0.2170 -0.8249
 6189TIP3   OH239981   6.316   2.627  13.966  0.5558  0.3481  0.0216
 6189TIP3    H139982   6.257   2.631  14.041  1.5959 -1.4755  1.0226
 6189TIP3    H239983   6.391   2.574  13.997  1.9214  1.1581 -1.7054
 6190TIP3   OH239984   4.468   1.757  14.609 -0.5182  0.1258 -0.2930
 6190TIP3    H139985   4.383   1.758  14.652 -0.3663 -0.7682  0.0476
 6190TIP3    H239986   4.523   1.702  14.664 -0.2880 -0.9684 -1.5441
 6191TIP3   OH239987   2.757   6.069   2.248  0.8402 -0.1031  0.2133
 6191TIP3    H139988   2.816   5.994   2.237  1.0611 -0.1593  1.5018
 6191TIP3    H239989   2.804   6.127   2.309  0.5472  0.9570 -0.5337
 6192TIP3   OH239990   0.167   1.568  10.766 -0.0855  0.4582  0.2962
 6192TIP3    H139991   0.240   1.543  10.822  0.2975  1.0652  0.0798
 6192TIP3    H239992   0.159   1.496  10.704  3.9874  2.5931 -3.3027
 6193TIP3   OH239993   0.228   3.838  16.033  0.4544 -0.0382 -0.0653
 6193TIP3    H139994   0.168   3.763  16.044  0.3614 -0.2012 -1.4801
 6193TIP3    H239995   0.176   3.914  16.060 -0.2399 -0.2387 -0.7842
 6194TIP3   OH239996   6.157   3.463  16.011 -0.1890  0.4968 -0.0759
 6194TIP3    H139997   6.117   3.530  16.067  1.6101  3.5251 -2.1514
 6194TIP3    H239998   6.246   3.454  16.045 -0.2620 -0.5513 -0.1266
 6195TIP3   OH239999   4.581   1.203   3.925  0.0255 -0.1959  0.3910
 6195TIP3    H140000   4.640   1.156   3.984  0.9050 -1.5095 -1.4344
 6195TIP3    H240001   4.634   1.275   3.891 -0.5328  0.6597  1.2625
 6196TIP3   OH240002   2.201   4.431   4.954  0.6120 -0.3075 -0.0084
 6196TIP3    H140003   2.110   4.437   4.926  0.2600 -1.7855  0.7183
 6196TIP3    H240004   2.202   4.358   5.016  1.9096  0.9801  1.5498
 6197TIP3   OH240005   4.653   0.934  14.180 -0.1006  0.8402 -0.1827
 6197TIP3    H140006   4.668   1.012  14.127  0.0597 -0.2359 -1.7753
 6197TIP3    H240007   4.677   0.861  14.123 -3.1312 -0.5599  0.1356
 6198TIP3   OH240008   5.311   2.145   3.961 -0.4616 -0.5470  0.2376
 6198TIP3    H140009   5.265   2.223   3.993 -0.7910 -1.1178  1.1848
 6198TIP3    H240010   5.376   2.179   3.900  0.2439  0.5844  1.5841
 6199TIP3   OH240011   5.553   6.305   1.650  0.2476  0.2443 -0.1870
 6199TIP3    H140012   5.644   6.334   1.643 -0.1691  1.9738  0.8696
 6199TIP3    H240013   5.502   6.377   1.613 -0.6969 -1.0724 -1.5790
 6200TIP3   OH240014   1.778   2.898  13.742 -0.6274 -0.4933 -0.0610
 6200TIP3    H140015   1.736   2.827  13.791 -1.1775 -0.4718 -0.4921
 6200TIP3    H240016   1.799   2.859  13.657  0.1765 -0.4842  0.1240
 6201TIP3   OH240017   2.531   0.100  12.405 -0.9607 -0.2714  0.7078
 6201TIP3    H140018   2.608   0.112  12.348 -0.9132 -1.2079  0.5565
 6201TIP3    H240019   2.527   0.180  12.457  1.3063 -0.9629  2.1162
 6202TIP3   OH240020   5.045   0.382   3.899 -0.2701 -0.4327 -0.3686
 6202TIP3    H140021   5.052   0.384   3.804 -0.5871 -4.6553 -0.6796
 6202TIP3    H240022   5.048   0.289   3.921 -2.2065  0.2416  3.6146
 6203TIP3   OH240023   3.986   5.883  13.166 -0.3962  0.1765  0.2114
 6203TIP3    H140024   3.909   5.910  13.216  0.1256  1.1072  0.5229
 6203TIP3    H240025   3.965   5.907  13.075 -0.9442 -0.6384  0.1097
 6204TIP3   OH240026   0.038   6.193   6.138  0.4139 -0.4035 -0.0506
 6204TIP3    H140027   0.040   6.122   6.073 -0.5067 -1.2876  0.8350
 6204TIP3    H240028  -0.008   6.155   6.213 -2.2132  1.8196 -0.3710
 6205TIP3   OH240029   3.586   4.780   4.399  0.6637 -0.3454 -0.9403
 6205TIP3    H140030   3.600   4.701   4.346 -1.0047 -2.7311  1.8594
 6205TIP3    H240031   3.491   4.788   4.406  0.8142  0.6694  0.5058
 6206TIP3   OH240032   1.192   4.875  17.215  0.7025  0.6599 -0.1568
 6206TIP3    H140033   1.263   4.939  17.218 -1.5535  3.3289  0.1428
 6206TIP3    H240034   1.140   4.893  17.293 -1.4846  0.3143 -1.4489
 6207TIP3   OH240035   4.306   2.406   5.184 -0.4468  0.1816 -0.8018
 6207TIP3    H140036   4.230   2.461   5.164 -1.1603 -0.3744  0.3096
 6207TIP3    H240037   4.370   2.467   5.222 -0.7494  0.4672 -0.7406
 6208TIP3   OH240038   3.300   3.744   4.658 -0.1929  0.2343  0.5753
 6208TIP3    H140039   3.317   3.814   4.594  2.0259  0.2411  1.1273
 6208TIP3    H240040   3.343   3.774   4.738  0.1683 -1.4328  1.0229
 6209TIP3   OH240041   3.616   2.480   5.777  0.1619  0.2848 -0.1641
 6209TIP3    H140042   3.525   2.484   5.806  0.1133  1.3461 -0.4491
 6209TIP3    H240043   3.636   2.386   5.774 -0.9020  0.0474 -0.0587
 6210TIP3   OH240044   4.863   0.384   2.008 -0.4278  0.0262  0.1465
 6210TIP3    H140045   4.907   0.359   2.089  1.6133  2.0296 -0.2340
 6210TIP3    H240046   4.862   0.480   2.009 -0.4413  0.1163 -2.0966
 6211TIP3   OH240047   4.416   2.344  15.694 -0.6887  0.5818  0.0572
 6211TIP3    H140048   4.418   2.320  15.602 -1.2957 -0.6718  0.3414
 6211TIP3    H240049   4.326   2.371  15.710 -0.7236  0.2737  0.3950
 6212TIP3   OH240050   6.702   5.745  14.087  0.2514 -0.2225 -0.4236
 6212TIP3    H140051   6.754   5.763  14.165 -0.8495  0.2077  0.2416
 6212TIP3    H240052   6.623   5.701  14.121  0.3531 -1.2286 -1.4407
 6213TIP3   OH240053   3.807   6.239  11.611 -0.5028 -0.5278  0.1926
 6213TIP3    H140054   3.854   6.157  11.593  2.0539  1.2796 -2.3117
 6213TIP3    H240055   3.870   6.293  11.659 -0.8279  1.1348 -1.1345
 6214TIP3   OH240056   3.304   0.476   3.374 -0.1140  0.1283  0.2946
 6214TIP3    H140057   3.230   0.436   3.420 -0.4680 -0.3059 -0.6310
 6214TIP3    H240058   3.362   0.402   3.353 -0.0406  0.3030 -0.1106
 6215TIP3   OH240059   6.399   3.970   3.735 -0.5748  0.7154 -0.4633
 6215TIP3    H140060   6.351   3.906   3.683 -0.1098 -0.9775  1.0803
 6215TIP3    H240061   6.490   3.942   3.729 -0.1987  1.9465 -0.7101
 6216TIP3   OH240062   3.389   5.759  16.305  0.0356  0.1732 -0.3225
 6216TIP3    H140063   3.462   5.813  16.336  2.3265 -1.9221 -1.6925
 6216TIP3    H240064   3.365   5.705  16.380  1.2413 -0.4705 -0.3857
 6217TIP3   OH240065   4.768   3.247   3.385  0.1225 -0.5330  0.7105
 6217TIP3    H140066   4.689   3.287   3.347  1.2538  0.4605 -0.6762
 6217TIP3    H240067   4.838   3.310   3.367  1.5464 -2.1245  0.4565
 6218TIP3   OH240068   6.516   4.450  11.850 -0.0816 -0.4417  0.3966
 6218TIP3    H140069   6.447   4.388  11.872  0.0258 -0.7503 -0.1173
 6218TIP3    H240070   6.541   4.428  11.761 -0.2520  0.5450  0.0897
 6219TIP3   OH240071   0.199   2.188  15.939 -0.0409 -0.2401  0.0857
 6219TIP3    H140072   0.247   2.137  16.004  0.5239 -1.2816 -1.1019
 6219TIP3    H240073   0.111   2.150  15.939 -0.6256  1.0096  1.5472
 6220TIP3   OH240074   1.556   0.095   0.788 -0.6161  0.2579 -0.0306
 6220TIP3    H140075   1.588   0.015   0.747 -0.7941 -0.2598  0.8067
 6220TIP3    H240076   1.499   0.064   0.859 -0.9809  1.1340  0.0701
 6221TIP3   OH240077   4.220   5.759  15.044 -0.2223  0.4997 -0.2698
 6221TIP3    H140078   4.154   5.817  15.006  0.6389  1.0625 -0.9364
 6221TIP3    H240079   4.282   5.744  14.973  0.1531 -0.3477  0.2353
 6222TIP3   OH240080   0.221   2.034  15.149 -0.4058  0.0345  0.0395
 6222TIP3    H140081   0.237   2.128  15.143  1.5227 -0.2660 -0.1796
 6222TIP3    H240082   0.305   1.997  15.174 -1.0804 -1.6666 -0.0865
 6223TIP3   OH240083   4.010   5.628  16.444 -0.2087  0.5958  0.3711
 6223TIP3    H140084   3.989   5.662  16.357  1.6986  1.8575  0.3329
 6223TIP3    H240085   3.926   5.621  16.488 -0.9891  2.3396 -0.7385
 6224TIP3   OH240086   0.486   5.117   6.331  0.6040 -0.3792  0.2913
 6224TIP3    H140087   0.414   5.054   6.338 -0.4495  0.7815  0.1750
 6224TIP3    H240088   0.444   5.199   6.306  2.0301  0.2228 -0.2088
 6225TIP3   OH240089   6.393   6.308   0.976  0.5962 -0.1694  0.6669
 6225TIP3    H140090   6.365   6.217   0.969  1.9128 -0.4963 -0.8582
 6225TIP3    H240091   6.420   6.332   0.888  1.0902  1.4481  1.2152
 6226TIP3   OH240092   3.511   4.002  14.149 -0.0889  0.7111  0.2196
 6226TIP3    H140093   3.493   3.908  14.157  1.1249  0.2463 -1.7348
 6226TIP3    H240094   3.501   4.036  14.238 -1.2054 -1.1331  0.8594
 6227TIP3   OH240095   4.307   2.118   3.792  0.0672 -0.7489  0.1222
 6227TIP3    H140096   4.294   2.135   3.886  1.6586 -1.4591  0.5086
 6227TIP3    H240097   4.222   2.135   3.753  0.0711  2.6519  1.2127
 6228TIP3   OH240098   1.592   6.500   5.948  0.3444  0.5985 -0.5480
 6228TIP3    H140099   1.500   6.473   5.951  0.8282 -1.1506  0.4756
 6228TIP3    H240100   1.598   6.572   6.011  0.2969 -1.7825  2.4527
 6229TIP3   OH240101   4.981   1.567  14.110  0.5407  0.4052 -0.3054
 6229TIP3    H140102   4.892   1.531  14.114 -0.4000  2.5983 -0.3429
 6229TIP3    H240103   4.991   1.615  14.192  1.7609  0.1088 -0.2600
 6230TIP3   OH240104   4.525   5.780  15.285 -0.4103  0.0188  0.5863
 6230TIP3    H140105   4.441   5.758  15.326 -0.8772  0.9080  0.1240
 6230TIP3    H240106   4.548   5.866  15.320  0.2074 -0.1187  0.5437
 6231TIP3   OH240107   0.188   1.962   3.375  0.3558 -0.4686  0.2752
 6231TIP3    H140108   0.195   1.987   3.467  0.7106  0.4884  0.0053
 6231TIP3    H240109   0.128   2.027   3.337  2.5074  1.0137 -0.7805
 6232TIP3   OH240110   6.105   5.639  12.251  0.2801 -0.3144  0.6883
 6232TIP3    H140111   6.128   5.723  12.212  0.6696 -0.5909  0.3189
 6232TIP3    H240112   6.021   5.616  12.211  0.7708 -0.6882 -0.1342
 6233TIP3   OH240113   4.074   2.855   1.495 -0.3023  0.0452 -0.6730
 6233TIP3    H140114   4.055   2.806   1.575 -1.1626  1.6726  0.1682
 6233TIP3    H240115   4.159   2.822   1.467  2.1218  2.2518  3.2400
 6234TIP3   OH240116   4.197   1.664   3.900  0.0489 -0.3837  0.2647
 6234TIP3    H140117   4.132   1.651   3.969  0.0590 -1.3475  0.1149
 6234TIP3    H240118   4.193   1.757   3.880 -2.0923 -0.5698 -0.5173
 6235TIP3   OH240119   3.082   5.825   3.509  0.0539  0.3230  0.1260
 6235TIP3    H140120   3.042   5.778   3.582 -1.6948  0.9225 -0.3884
 6235TIP3    H240121   3.126   5.757   3.457  1.2213 -0.1165  1.6397
 6236TIP3   OH240122   1.949   4.802  15.843  0.4192 -0.1174 -0.6258
 6236TIP3    H140123   1.937   4.726  15.900 -0.8784 -0.1985 -0.9971
 6236TIP3    H240124   1.961   4.876  15.904 -4.3760  0.4361 -0.0157
 6237TIP3   OH240125   5.200   3.779  16.309 -0.2398  0.0378 -0.2897
 6237TIP3    H140126   5.252   3.703  16.336 -1.0721 -0.7615 -0.8535
 6237TIP3    H240127   5.200   3.837  16.385 -0.8368 -1.2271  0.7173
 6238TIP3   OH240128   2.211   2.818  17.108 -0.1093 -0.9756 -0.3438
 6238TIP3    H140129   2.264   2.887  17.069 -0.0834 -0.6802  0.1976
 6238TIP3    H240130   2.150   2.793  17.039 -1.8926  1.4200  0.2003
 6239TIP3   OH240131   1.887   3.863  13.205 -0.1769 -0.1176  0.3623
 6239TIP3    H140132   1.806   3.841  13.159  1.3339  0.9645 -3.1234
 6239TIP3    H240133   1.878   3.955  13.229 -0.0602 -0.0529  0.1586
 6240TIP3   OH240134   5.582   3.305   3.414 -0.1530  0.3864 -0.0904
 6240TIP3    H140135   5.606   3.341   3.500  1.9333  1.2427 -0.9582
 6240TIP3    H240136   5.589   3.211   3.425  0.5362  0.5041  0.5745
 6241TIP3   OH240137   3.800   1.097  17.083  0.3024 -0.8272 -0.4732
 6241TIP3    H140138   3.889   1.090  17.049  0.6162  1.7525 -0.4035
 6241TIP3    H240139   3.787   1.017  17.134  2.5406 -1.3197 -0.5814
 6242TIP3   OH240140   0.792   2.986  14.258  0.0198  0.4052 -0.4224
 6242TIP3    H140141   0.879   3.009  14.227 -0.5373  2.4728 -0.6031
 6242TIP3    H240142   0.798   2.991  14.354  0.0775  0.6351 -0.4382
 6243TIP3   OH240143   3.488   2.859  15.798 -0.1418 -0.2982 -0.4014
 6243TIP3    H140144   3.489   2.954  15.800  0.3106 -0.3187  0.6569
 6243TIP3    H240145   3.561   2.835  15.741 -1.0131 -0.0085 -1.6885
 6244TIP3   OH240146   5.302   2.640   6.106  0.2406  0.3885 -0.3256
 6244TIP3    H140147   5.258   2.721   6.083  2.1178  1.5037 -0.1958
 6244TIP3    H240148   5.371   2.630   6.040  1.7548  0.3796  1.1740
 6245TIP3   OH240149   4.026   4.019   0.731 -0.0682 -0.1165  0.4004
 6245TIP3    H140150   4.118   4.032   0.705 -0.5179 -1.3070 -2.1176
 6245TIP3    H240151   3.994   4.107   0.750  1.1113  0.5710 -0.5803
 6246TIP3   OH240152   2.376   5.268   1.420  0.7407  0.6438  0.6012
 6246TIP3    H140153   2.306   5.223   1.467  1.8433 -0.8236  0.9080
 6246TIP3    H240154   2.346   5.270   1.329  0.3646 -0.1020  0.7011
 6247TIP3   OH240155   3.005   0.454  12.532  0.3065  0.1732  0.5408
 6247TIP3    H140156   3.075   0.470  12.469 -0.6077  2.5199 -0.0017
 6247TIP3    H240157   3.029   0.507  12.608 -0.3559  0.1918  0.7421
 6248TIP3   OH240158   3.004   2.681  13.631 -0.5814  0.3252  0.2078
 6248TIP3    H140159   3.080   2.639  13.671 -2.2613 -1.4220  1.7851
 6248TIP3    H240160   2.956   2.609  13.589 -2.4502  0.9731  1.1246
 6249TIP3   OH240161   1.270   0.028  11.624  0.2044 -0.7867 -0.4968
 6249TIP3    H140162   1.233   0.117  11.620  0.8622 -0.5062 -0.5259
 6249TIP3    H240163   1.364   0.042  11.637  0.2082 -1.4910  0.3456
 6250TIP3   OH240164   1.937   4.349  14.407  0.0863  0.5410 -0.1839
 6250TIP3    H140165   1.943   4.323  14.315  0.4233  0.1124 -0.0402
 6250TIP3    H240166   2.017   4.398  14.424  1.4575 -1.8670  0.6666
 6251TIP3   OH240167   1.848   0.110   0.003 -0.3343  0.1147  0.0514
 6251TIP3    H140168   1.771   0.112  -0.054 -0.4263 -1.5219  0.0638
 6251TIP3    H240169   1.920   0.082  -0.054 -0.2904 -0.8715  0.5711
 6252TIP3   OH240170   1.766   3.574   5.890 -0.2994 -0.6036  0.4186
 6252TIP3    H140171   1.759   3.667   5.911  0.7057 -0.2861 -0.5487
 6252TIP3    H240172   1.832   3.540   5.950  1.6307  0.0236 -1.2399
 6253TIP3   OH240173   2.966   0.949   5.799 -0.0722  0.0527  0.5331
 6253TIP3    H140174   2.886   0.975   5.752  1.1242 -1.1349 -2.4251
 6253TIP3    H240175   3.023   1.025   5.793 -0.7181  0.7043  2.1613
 6254TIP3   OH240176   6.105   1.790  12.734 -0.5060  0.0110  0.0681
 6254TIP3    H140177   6.184   1.843  12.744 -0.3138 -0.0222 -1.1317
 6254TIP3    H240178   6.126   1.708  12.779  0.0139  0.1343  0.0587
 6255TIP3   OH240179   2.739   1.523  14.323 -0.3916 -0.4923 -0.4649
 6255TIP3    H140180   2.800   1.453  14.345 -1.0587 -0.9842 -0.1222
 6255TIP3    H240181   2.698   1.495  14.241  0.8525  0.5198 -1.4728
 6256TIP3   OH240182   5.072   4.462   2.246  0.2059  0.2934  0.2031
 6256TIP3    H140183   5.004   4.492   2.186  1.6859 -1.1100 -2.3297
 6256TIP3    H240184   5.084   4.536   2.306 -2.5960  1.0678 -0.0114
 6257TIP3   OH240185   0.817   4.141   0.443 -0.3054  0.0164  0.4552
 6257TIP3    H140186   0.773   4.219   0.479  0.3010  1.2677 -1.3591
 6257TIP3    H240187   0.748   4.075   0.438 -1.2229  0.9315  0.6229
 6258TIP3   OH240188   3.217   6.117  12.109  0.5212  0.8128 -0.0457
 6258TIP3    H140189   3.309   6.139  12.092  0.3682  1.2897 -0.2840
 6258TIP3    H240190   3.168   6.195  12.081  0.1682  1.2402  1.6244
 6259TIP3   OH240191   0.397   0.178   4.345 -0.2069 -1.0268 -0.1910
 6259TIP3    H140192   0.425   0.262   4.381 -0.1531 -1.8289  1.8039
 6259TIP3    H240193   0.355   0.134   4.419 -2.0565 -1.9669 -1.7247
 6260TIP3   OH240194   2.275   2.419   5.055 -0.0554 -0.0377  0.8159
 6260TIP3    H140195   2.207   2.407   5.121 -0.5931  1.1268  0.5029
 6260TIP3    H240196   2.258   2.506   5.019  0.7067 -0.3313 -0.3096
 6261TIP3   OH240197   0.482   3.665   1.441  0.5562 -0.5629  0.7523
 6261TIP3    H140198   0.463   3.758   1.429 -2.9394 -0.7487  3.2301
 6261TIP3    H240199   0.411   3.620   1.395  2.1724 -2.1096 -0.3974
 6262TIP3   OH240200   5.855   5.072  14.447  0.3935  0.4140  0.8150
 6262TIP3    H140201   5.768   5.110  14.431  1.1826  1.3820 -1.6522
 6262TIP3    H240202   5.897   5.133  14.507  0.0624  0.9897  0.4647
 6263TIP3   OH240203   2.211   3.567   4.077  0.5538  0.7576 -0.4907
 6263TIP3    H140204   2.272   3.609   4.017 -0.7740  2.1225 -0.9369
 6263TIP3    H240205   2.152   3.637   4.105 -0.5661 -0.4239  0.2404
 6264TIP3   OH240206   2.178   3.503  15.975  0.4626 -0.2855  0.8280
 6264TIP3    H140207   2.173   3.410  15.952  2.9897 -0.5376  1.0026
 6264TIP3    H240208   2.122   3.512  16.052 -1.0803 -1.2949 -0.1357
 6265TIP3   OH240209   4.214   1.590  13.975 -0.3649 -1.1443  0.3329
 6265TIP3    H140210   4.306   1.594  13.948 -0.8129 -0.1835 -1.1647
 6265TIP3    H240211   4.167   1.641  13.909 -1.8119 -0.4152  1.8543
 6266TIP3   OH240212   5.030   5.482  15.138 -0.5944 -0.5135  0.1904
 6266TIP3    H140213   4.979   5.562  15.127  1.0750  0.6913  0.7715
 6266TIP3    H240214   5.009   5.451  15.227 -3.3398 -2.3518 -0.9700
 6267TIP3   OH240215   2.504   3.450   6.147 -0.2354  0.2484 -0.3399
 6267TIP3    H140216   2.502   3.526   6.206 -1.7233  1.9162 -2.3650
 6267TIP3    H240217   2.427   3.399   6.172  1.4975 -1.4517  1.9259
 6268TIP3   OH240218   1.755   4.330   4.039  0.2034  0.6685  0.0605
 6268TIP3    H140219   1.785   4.259   3.982 -3.4298  0.5676 -2.0170
 6268TIP3    H240220   1.697   4.286   4.102  1.3987  1.2830  1.6560
 6269TIP3   OH240221   1.618   1.748   6.337 -0.3681  0.5601  0.4790
 6269TIP3    H140222   1.557   1.679   6.362  0.2911 -0.5431 -0.8203
 6269TIP3    H240223   1.600   1.762   6.244  0.2151  1.4134  0.4908
 6270TIP3   OH240224   3.537   3.583  11.195  0.7326  0.2058  0.6231
 6270TIP3    H140225   3.598   3.604  11.124  0.5954  1.9146  0.9790
 6270TIP3    H240226   3.553   3.651  11.261 -1.4844  0.6395  0.7702
 6271TIP3   OH240227   3.054   2.193  14.586 -0.3664 -0.2916  0.3993
 6271TIP3    H140228   3.123   2.162  14.645 -1.3839  0.2065  1.9109
 6271TIP3    H240229   2.972   2.163  14.626 -1.1658  1.2373 -0.0078
 6272TIP3   OH240230   2.579   5.175   0.065  0.0049 -0.4833  0.5144
 6272TIP3    H140231   2.530   5.098   0.095 -0.3861 -0.4213  0.0460
 6272TIP3    H240232   2.599   5.157  -0.026 -0.4883  0.1648  0.2742
 6273TIP3   OH240233   5.064   3.697  12.068  0.0891  0.2429 -0.3820
 6273TIP3    H140234   5.005   3.622  12.076  0.3540  0.0035 -0.6500
 6273TIP3    H240235   5.126   3.672  12.000 -0.7293  1.3241 -1.5781
 6274TIP3   OH240236   1.707   4.695   1.748  0.3369  0.0903  0.2916
 6274TIP3    H140237   1.736   4.785   1.730 -0.1508  0.0697 -0.6106
 6274TIP3    H240238   1.674   4.663   1.665  0.4148 -0.9024  0.6360
 6275TIP3   OH240239   6.489   5.781  14.289  0.5276  0.2393  0.9394
 6275TIP3    H140240   6.486   5.696  14.246 -1.6707  0.7306 -0.0339
 6275TIP3    H240241   6.527   5.764  14.375  0.6747 -1.6119  0.5355
 6276TIP3   OH240242   4.257   5.687   1.731 -0.0704  0.0533 -0.1125
 6276TIP3    H140243   4.238   5.692   1.825 -0.1789  1.2657 -0.1850
 6276TIP3    H240244   4.179   5.725   1.689 -0.1392 -0.7270 -0.7147
 6277TIP3   OH240245   3.603   4.462  14.636 -0.2360  0.1876 -0.5095
 6277TIP3    H140246   3.535   4.396  14.627  0.3243 -0.7391  1.5954
 6277TIP3    H240247   3.683   4.418  14.607 -0.1894  0.6094 -1.0308
 6278TIP3   OH240248   6.165   0.877   4.895 -0.5094 -0.6411  0.5544
 6278TIP3    H140249   6.075   0.846   4.882 -1.5178  2.4509 -0.7569
 6278TIP3    H240250   6.169   0.902   4.987 -1.1755 -0.3778  0.5218
 6279TIP3   OH240251   2.918   5.689  11.992  0.1568  0.5748  0.5134
 6279TIP3    H140252   2.968   5.770  12.009  0.4688  0.2213  1.3635
 6279TIP3    H240253   2.983   5.628  11.958  0.0607  0.4809  0.5015
 6280TIP3   OH240254   0.961   3.053   5.094  0.6258 -0.3825  0.4386
 6280TIP3    H140255   0.964   3.036   5.000  0.5174 -2.4951  0.7479
 6280TIP3    H240256   0.868   3.068   5.113  0.3918 -1.6676  0.4186
 6281TIP3   OH240257   0.098   6.623  14.013 -0.7029  0.7721 -0.8632
 6281TIP3    H140258   0.041   6.605  13.938 -0.0816 -1.3091 -0.8767
 6281TIP3    H240259   0.186   6.604  13.982 -0.3379  0.7826  0.1269
 6282TIP3   OH240260   6.489   5.600  17.074 -0.8567 -0.4185  0.3320
 6282TIP3    H140261   6.529   5.685  17.056 -1.7091  0.3424  1.7619
 6282TIP3    H240262   6.551   5.555  17.131 -1.4263  0.2369  1.5024
 6283TIP3   OH240263   0.790   0.338   5.064 -0.0777  0.2340 -0.0476
 6283TIP3    H140264   0.805   0.421   5.018  0.0761  0.5922  0.6309
 6283TIP3    H240265   0.766   0.277   4.995  0.1870  0.7471 -0.6124
 6284TIP3   OH240266   0.226   3.049  13.848  0.4360 -0.1677  0.3043
 6284TIP3    H140267   0.166   2.975  13.849  0.4927 -0.2113  1.4221
 6284TIP3    H240268   0.310   3.013  13.877 -0.1350  0.7776  3.5391
 6285TIP3   OH240269   6.279   1.856   1.860  0.6519 -0.1517 -0.0114
 6285TIP3    H140270   6.262   1.795   1.788  1.0246 -1.1882  0.7551
 6285TIP3    H240271   6.314   1.801   1.930  0.4176  0.8623  0.9197
 6286TIP3   OH240272   6.418   6.723   5.005  0.2690 -0.3582  0.8322
 6286TIP3    H140273   6.423   6.770   4.922  0.8627 -3.6617 -1.1941
 6286TIP3    H240274   6.327   6.731   5.032 -0.8504 -2.0110 -2.0572
 6287TIP3   OH240275   5.503   4.115   5.969 -0.5258  0.5338  0.2443
 6287TIP3    H140276   5.589   4.132   5.932 -0.8116  0.2406 -0.5914
 6287TIP3    H240277   5.515   4.120   6.064  0.0917  1.9860  0.1117
 6288TIP3   OH240278   5.644   1.798   3.947 -0.1891 -0.6117 -0.2828
 6288TIP3    H140279   5.655   1.881   3.994  0.3136 -0.6475 -0.3380
 6288TIP3    H240280   5.700   1.736   3.993 -0.0086 -0.7462 -0.6828
 6289TIP3   OH240281   3.920   3.681   2.485  0.1283  0.0923 -0.1181
 6289TIP3    H140282   3.964   3.743   2.543 -0.5961 -0.5810  1.1963
 6289TIP3    H240283   3.895   3.733   2.408  0.1003  1.2687  0.6672
 6290TIP3   OH240284   5.935   5.387   0.432 -0.6453  0.0250  0.1367
 6290TIP3    H140285   5.975   5.416   0.514 -0.7765 -0.8219  0.5048
 6290TIP3    H240286   5.841   5.390   0.449 -0.6435 -1.7855  0.5993
 6291TIP3   OH240287   3.705   2.635  11.482 -0.9499 -0.0888  0.2571
 6291TIP3    H140288   3.775   2.580  11.447 -1.1434 -0.4239  0.3910
 6291TIP3    H240289   3.733   2.658  11.570 -0.6097  0.4907 -0.0009
 6292TIP3   OH240290   4.936   5.207  12.913  0.1413 -0.1772  0.3714
 6292TIP3    H140291   4.954   5.292  12.953  2.2631 -0.9888  1.3122
 6292TIP3    H240292   4.906   5.229  12.825  2.4953  1.5925 -0.1191
 6293TIP3   OH240293   2.071   6.078   5.438 -0.1200  1.0201  0.1427
 6293TIP3    H140294   2.036   6.005   5.387 -0.8442  1.5939 -0.2036
 6293TIP3    H240295   2.152   6.102   5.394 -1.1432  2.0457 -1.2956
 6294TIP3   OH240296   0.828   3.339  12.720 -0.5339 -0.3128  0.0225
 6294TIP3    H140297   0.828   3.333  12.816 -2.2920  0.3095  0.1004
 6294TIP3    H240298   0.814   3.249  12.691  1.9272 -0.8438  0.2320
 6295TIP3   OH240299   2.976   4.569   1.038  0.1789 -0.5898  0.2794
 6295TIP3    H140300   2.961   4.523   0.955 -1.0574  1.5247 -0.7383
 6295TIP3    H240301   2.894   4.558   1.086  0.3070 -0.4283  0.5353
 6296TIP3   OH240302   3.984   4.738  12.521 -0.5651  0.2032 -0.2302
 6296TIP3    H140303   3.934   4.819  12.509 -0.4073  0.1942 -1.0078
 6296TIP3    H240304   3.917   4.669  12.529 -0.7028  0.1136 -1.8231
 6297TIP3   OH240305   6.642   6.634  13.497  0.6440  0.2783 -0.2154
 6297TIP3    H140306   6.593   6.552  13.505  0.5483  0.4691  1.4257
 6297TIP3    H240307   6.718   6.611  13.444 -0.1919 -0.4765 -1.1388
 6298TIP3   OH240308   3.785   1.185   3.796 -0.1313  0.6638 -0.1680
 6298TIP3    H140309   3.808   1.193   3.888  0.9408 -0.8296 -0.2643
 6298TIP3    H240310   3.707   1.129   3.796  0.5809 -0.3454 -0.2144
 6299TIP3   OH240311   0.979   3.795   3.799 -0.2887 -1.0102 -0.3733
 6299TIP3    H140312   0.978   3.889   3.813  0.9482 -1.2518  1.6642
 6299TIP3    H240313   1.010   3.784   3.709  1.0838  0.4923 -0.1134
 6300TIP3   OH240314   4.677   0.501  13.148 -0.0226 -0.3635 -0.5652
 6300TIP3    H140315   4.717   0.442  13.212  2.8156 -0.8635 -2.6279
 6300TIP3    H240316   4.591   0.462  13.130 -0.6470 -0.5553  2.3298
 6301TIP3   OH240317   3.872   5.729  10.571 -0.1513 -0.4213  0.3746
 6301TIP3    H140318   3.965   5.734  10.590 -0.2684 -0.9370  1.1234
 6301TIP3    H240319   3.831   5.780  10.641 -0.4015  0.2437 -0.2452
 6302TIP3   OH240320   3.398   4.273  14.628  0.6748  0.2779  0.0053
 6302TIP3    H140321   3.303   4.284  14.629  0.7663  1.2098 -0.3898
 6302TIP3    H240322   3.413   4.200  14.568  0.3567  1.9558 -2.2215
 6303TIP3   OH240323   6.454   1.350   6.430 -0.5675 -0.4550 -0.2227
 6303TIP3    H140324   6.506   1.415   6.383  1.2224 -1.0432  0.8420
 6303TIP3    H240325   6.504   1.332   6.509 -1.7729 -2.0302  0.2341
 6304TIP3   OH240326   5.192   4.320  12.611 -0.5603 -0.5095  0.5869
 6304TIP3    H140327   5.189   4.354  12.521  1.1000 -2.3868 -0.2468
 6304TIP3    H240328   5.213   4.397  12.664  1.8261  0.1044 -1.0726
 6305TIP3   OH240329   3.633   5.832   3.903  0.1449  0.0527 -0.0314
 6305TIP3    H140330   3.604   5.745   3.873 -1.3940  1.5528 -3.3541
 6305TIP3    H240331   3.553   5.881   3.917  0.9434  1.7573 -1.0394
 6306TIP3   OH240332   2.752   3.420   0.390  0.4316  0.0117  0.4550
 6306TIP3    H140333   2.751   3.485   0.320 -1.3316  1.1803  1.4736
 6306TIP3    H240334   2.692   3.352   0.361  1.0217 -0.3685  0.1041
 6307TIP3   OH240335   1.530   2.064   5.141 -0.4150  0.1818  0.2541
 6307TIP3    H140336   1.516   2.155   5.114  2.6899  0.4509 -0.9004
 6307TIP3    H240337   1.488   2.012   5.072 -1.5777  0.6976  0.5435
 6308TIP3   OH240338   2.863   4.252   0.059 -0.2429  0.1670  0.0426
 6308TIP3    H140339   2.860   4.182   0.124 -0.3519 -0.3553 -0.5254
 6308TIP3    H240340   2.955   4.259   0.035 -0.2603  0.0840 -0.0478
 6309TIP3   OH240341   5.711   4.167   4.577  0.3765  0.2015  0.2819
 6309TIP3    H140342   5.801   4.152   4.607  0.4993 -2.0033 -0.9890
 6309TIP3    H240343   5.680   4.239   4.632  1.8462 -1.0689  2.9893
 6310TIP3   OH240344   0.066   1.209   4.152  0.0657  0.2584 -0.2008
 6310TIP3    H140345   0.155   1.207   4.117 -0.1993  1.5548 -1.0491
 6310TIP3    H240346   0.010   1.207   4.075 -0.5739  1.5423  0.1885
 6311TIP3   OH240347   6.319   3.346   4.475 -0.2121  0.0507  0.1184
 6311TIP3    H140348   6.317   3.337   4.380 -0.1919 -2.5197  0.2848
 6311TIP3    H240349   6.227   3.338   4.501 -0.1798  0.3679  0.3234
 6312TIP3   OH240350   4.280   1.913  14.024 -0.1217 -0.6106  0.6342
 6312TIP3    H140351   4.322   1.836  13.986  0.6651 -0.1788  0.6121
 6312TIP3    H240352   4.341   1.985  14.006 -1.2554  0.1872 -0.1410
 6313TIP3   OH240353   0.134   1.192   3.457 -0.1601 -0.2318  0.6674
 6313TIP3    H140354   0.156   1.105   3.493 -0.6857 -0.4464  0.4790
 6313TIP3    H240355   0.076   1.173   3.384  0.7250  0.2117 -0.1751
 6314TIP3   OH240356   3.597   5.330   5.770  0.7057  0.5171 -0.4068
 6314TIP3    H140357   3.620   5.251   5.819 -1.2185 -0.0094 -0.2627
 6314TIP3    H240358   3.532   5.300   5.706  0.5651  1.8353 -0.9139
 6315TIP3   OH240359   3.694   0.795  15.634  0.6981 -0.7922  0.6162
 6315TIP3    H140360   3.752   0.774  15.561  0.0304  0.5607 -0.3443
 6315TIP3    H240361   3.749   0.846  15.694  0.7446 -0.1861  0.0804
 6316TIP3   OH240362   5.642   1.822   6.271  0.3115 -0.2989  0.1773
 6316TIP3    H140363   5.596   1.815   6.188  1.4617  0.9248 -0.5821
 6316TIP3    H240364   5.714   1.759   6.264  0.0774 -0.6046  0.4802
 6317TIP3   OH240365   0.121   4.702  16.673  0.2777 -0.0805  0.3384
 6317TIP3    H140366   0.109   4.777  16.730 -1.0801 -0.1452  0.1792
 6317TIP3    H240367   0.101   4.735  16.585 -0.4729 -0.6271  0.2867
 6318TIP3   OH240368   3.159   3.797  11.207  0.1546 -0.1665 -0.0940
 6318TIP3    H140369   3.080   3.824  11.254  0.1128 -2.4775  1.3422
 6318TIP3    H240370   3.128   3.772  11.120 -0.4181  0.4748 -0.0797
 6319TIP3   OH240371   5.599   0.395   2.862  0.3730 -0.5122 -0.1477
 6319TIP3    H140372   5.537   0.334   2.903 -0.0513  0.2553  0.3895
 6319TIP3    H240373   5.544   0.464   2.826  0.8772 -0.1913 -0.3118
 6320TIP3   OH240374   0.527   5.638  15.322  0.0171  0.4322 -0.1130
 6320TIP3    H140375   0.442   5.636  15.366  0.3524  0.8633  0.5706
 6320TIP3    H240376   0.528   5.558  15.270 -0.2345 -0.3131  0.9839
 6321TIP3   OH240377   3.031   6.636   0.842  0.4465  0.3578 -0.5278
 6321TIP3    H140378   2.990   6.606   0.761  1.0166  1.2012 -1.1428
 6321TIP3    H240379   3.106   6.688   0.813  2.4970 -1.7925  0.5503
 6322TIP3   OH240380   2.624   4.191   1.498 -0.0493  0.8926 -0.2418
 6322TIP3    H140381   2.614   4.276   1.454  1.4901  1.9636  1.3122
 6322TIP3    H240382   2.535   4.163   1.516 -0.7801  0.2506 -4.1250
 6323TIP3   OH240383   1.324   0.281   1.439  0.4323 -0.0965  0.2557
 6323TIP3    H140384   1.276   0.300   1.519 -0.8415 -0.2564 -0.4444
 6323TIP3    H240385   1.409   0.249   1.469  0.0964  0.1487  1.5263
 6324TIP3   OH240386   0.681   5.307   0.880 -0.0166  0.4453  0.1622
 6324TIP3    H140387   0.745   5.245   0.916 -0.0094  2.0635  3.2778
 6324TIP3    H240388   0.596   5.265   0.895 -0.0276  1.1772  2.4678
 6325TIP3   OH240389   2.104   4.492  11.714 -0.5565 -0.0846 -0.2093
 6325TIP3    H140390   2.049   4.479  11.637  0.4353 -2.1777 -0.6349
 6325TIP3    H240391   2.131   4.404  11.739  1.1448  0.7470  1.0674
 6326TIP3   OH240392   4.628   2.035  13.411 -0.2490 -0.1680 -0.1736
 6326TIP3    H140393   4.677   1.980  13.472  0.0226  1.0155  0.7107
 6326TIP3    H240394   4.696   2.077  13.357 -0.2171  1.4868  1.0630
 6327TIP3   OH240395   0.905   6.378  17.079 -0.1238  0.2576  0.0402
 6327TIP3    H140396   0.982   6.325  17.057  0.5648 -0.7540  4.0181
 6327TIP3    H240397   0.831   6.320  17.063  0.3029 -0.3686  0.3028
 6328TIP3   OH240398   3.611   5.463   6.069  0.4925 -0.0612  0.0900
 6328TIP3    H140399   3.640   5.450   6.159  0.9683 -0.3528 -0.1014
 6328TIP3    H240400   3.532   5.516   6.076  0.1946 -0.5798  0.7173
 6329TIP3   OH240401   2.711   6.495  12.246  0.2613 -0.1646  0.0510
 6329TIP3    H140402   2.795   6.507  12.290  1.0701  0.3619 -1.5714
 6329TIP3    H240403   2.723   6.416  12.192 -0.7487 -0.8694  0.8030
 6330TIP3   OH240404   1.357   3.674  17.266  0.0386  0.2341  0.4834
 6330TIP3    H140405   1.291   3.650  17.331 -0.4329  0.0436 -0.0588
 6330TIP3    H240406   1.312   3.734  17.206 -0.0371 -0.8869 -0.6284
 6331TIP3   OH240407   1.177   5.616   3.095 -0.2000  0.2368  0.4207
 6331TIP3    H140408   1.173   5.529   3.057 -1.5760  0.9842 -1.2694
 6331TIP3    H240409   1.241   5.663   3.041 -1.1131  0.8967 -0.1106
 6332TIP3   OH240410   1.771   1.016   5.301 -0.0652  0.0404  0.6515
 6332TIP3    H140411   1.697   0.956   5.309 -1.3221  1.2334 -1.1101
 6332TIP3    H240412   1.782   1.052   5.389 -0.7763 -1.0829  1.2184
 6333TIP3   OH240413   3.971   6.599   6.742  1.0056  0.1240 -0.3144
 6333TIP3    H140414   3.916   6.595   6.664 -0.1522 -1.9663  0.5154
 6333TIP3    H240415   4.054   6.635   6.712  0.1930  0.5076 -2.2395
 6334TIP3   OH240416   4.275   3.489   0.277 -0.2459  0.3996  0.2470
 6334TIP3    H140417   4.228   3.553   0.330 -0.7933  0.3919 -0.2222
 6334TIP3    H240418   4.219   3.475   0.201 -0.0618 -0.5223  0.2725
 6335TIP3   OH240419   2.440   5.243   5.590  0.0855 -0.1992  0.6669
 6335TIP3    H140420   2.368   5.187   5.560 -1.0038  0.7193  1.4833
 6335TIP3    H240421   2.398   5.308   5.646  1.3859  1.1484  0.1417
 6336TIP3   OH240422   1.288   6.362  11.139  0.0639 -0.1016  0.4676
 6336TIP3    H140423   1.248   6.449  11.137 -0.7695 -0.4678  0.5829
 6336TIP3    H240424   1.382   6.378  11.142  0.0662  0.7745 -2.2585
 6337TIP3   OH240425   4.128   0.360  15.860  0.7292  0.2839 -0.2997
 6337TIP3    H140426   4.079   0.338  15.939  2.1673  0.6421  0.7483
 6337TIP3    H240427   4.075   0.426  15.816  1.1953  2.2433  1.8773
 6338TIP3   OH240428   0.883   2.976   0.621 -0.0940  0.1081  0.1863
 6338TIP3    H140429   0.832   2.924   0.559  0.3512  1.5067 -1.4357
 6338TIP3    H240430   0.958   3.007   0.570  1.1532 -0.0106  1.8889
 6339TIP3   OH240431   4.664   6.275  12.884 -0.9110  0.2754 -0.2463
 6339TIP3    H140432   4.646   6.247  12.974  0.1902 -0.0621 -0.1237
 6339TIP3    H240433   4.624   6.362  12.878  0.8268  1.2355  1.2537
 6340TIP3   OH240434   0.126   1.180  12.607  0.3066  0.2637 -0.3448
 6340TIP3    H140435   0.178   1.250  12.569 -0.0475  0.2106 -0.9374
 6340TIP3    H240436   0.100   1.126  12.533 -1.3975  0.8118 -0.1852
 6341TIP3   OH240437   0.199   0.762  11.737 -0.1760  0.2390 -0.1985
 6341TIP3    H140438   0.149   0.768  11.656 -2.3599 -0.4397  1.0024
 6341TIP3    H240439   0.198   0.669  11.760  0.8910  0.3424  0.3220
 6342TIP3   OH240440   5.858   5.142   3.368  0.5472 -0.0787 -0.0092
 6342TIP3    H140441   5.894   5.054   3.378  1.5421  0.4934  2.0602
 6342TIP3    H240442   5.932   5.200   3.386 -0.2797  1.1866 -0.5630
 6343TIP3   OH240443   1.161   3.839   5.512  0.7496 -0.2334  0.2776
 6343TIP3    H140444   1.103   3.900   5.467 -1.6899 -0.9082  2.2838
 6343TIP3    H240445   1.207   3.793   5.442 -1.9700 -0.4430 -1.5148
 6344TIP3   OH240446   2.665   0.534   0.552  0.1284  0.0571 -0.4320
 6344TIP3    H140447   2.632   0.482   0.625 -0.6489  0.8162 -0.2217
 6344TIP3    H240448   2.607   0.511   0.478  1.5450 -1.4852 -1.1237
 6345TIP3   OH240449   0.959   1.051   1.259 -0.8820  0.6072 -0.1416
 6345TIP3    H140450   0.988   0.967   1.294 -0.1380  0.6135 -0.7250
 6345TIP3    H240451   0.976   1.114   1.330  0.3737  0.5791 -0.3972
 6346TIP3   OH240452   5.098   1.178  11.482  0.1463  0.1825  0.3007
 6346TIP3    H140453   5.086   1.235  11.406 -1.2164  0.9664  1.0492
 6346TIP3    H240454   5.183   1.136  11.468  1.1316  2.2670 -0.3755
 6347TIP3   OH240455   2.243   4.782  13.493  0.5859  0.4410 -0.9301
 6347TIP3    H140456   2.287   4.867  13.497  0.7162  0.4205 -1.6733
 6347TIP3    H240457   2.158   4.796  13.534  0.6503  0.9060 -0.9560
 6348TIP3   OH240458   4.511   1.006   5.818 -0.1048 -0.4857 -0.3547
 6348TIP3    H140459   4.599   0.970   5.804  0.1751  0.1540 -0.2901
 6348TIP3    H240460   4.525   1.080   5.878 -0.5113  0.3934 -1.3224
 6349TIP3   OH240461   0.921   3.062   5.898  0.2330  0.1680  0.4388
 6349TIP3    H140462   0.901   3.132   5.960 -0.0794 -1.2053  1.9505
 6349TIP3    H240463   0.875   2.985   5.932  0.2396 -0.7014 -1.3855
 6350TIP3   OH240464   2.820   6.496   4.012  0.2561  0.0413  0.0609
 6350TIP3    H140465   2.792   6.500   3.920 -0.5200 -0.1107  0.2791
 6350TIP3    H240466   2.802   6.584   4.046  2.6073  0.8075 -0.4758
 6351TIP3   OH240467   0.593   1.977  12.488  0.0683  0.0595  0.0553
 6351TIP3    H140468   0.604   1.882  12.482 -0.6955 -0.1096  1.1407
 6351TIP3    H240469   0.675   2.012  12.452  1.6574 -1.0521  2.3044
 6352TIP3   OH240470   4.123   3.594   4.440 -0.4337  0.3650 -0.5898
 6352TIP3    H140471   4.046   3.635   4.481 -1.5290 -0.5712 -1.6238
 6352TIP3    H240472   4.100   3.502   4.432  0.1129  0.3418 -2.4018
 6353TIP3   OH240473   5.428   5.484   0.044 -0.3035 -0.0127 -0.1393
 6353TIP3    H140474   5.362   5.443  -0.012 -0.0577 -1.7661  0.7833
 6353TIP3    H240475   5.405   5.577   0.043 -0.9673 -0.1284 -2.2184
 6354TIP3   OH240476   1.119   4.681   2.122  0.3536 -0.1276  0.2473
 6354TIP3    H140477   1.048   4.744   2.137  0.9693  0.2837  1.5315
 6354TIP3    H240478   1.182   4.728   2.068 -0.3283 -0.5095 -0.9413
 6355TIP3   OH240479   5.203   6.002  13.802 -0.1105 -0.1851 -0.2112
 6355TIP3    H140480   5.155   6.032  13.726 -0.9395 -0.2220  0.2827
 6355TIP3    H240481   5.186   5.908  13.806  0.8788 -0.3971 -0.6329
 6356TIP3   OH240482   1.358   3.498  16.461  0.0579  0.5385  0.2722
 6356TIP3    H140483   1.284   3.558  16.448  0.6116  1.5516  1.5876
 6356TIP3    H240484   1.365   3.488  16.556  2.4076  1.5203  0.2764
 6357TIP3   OH240485   4.746   3.556  12.582 -0.3999 -0.0284  0.3659
 6357TIP3    H140486   4.813   3.514  12.529 -0.1800 -0.1435  0.7361
 6357TIP3    H240487   4.754   3.649  12.561 -1.2317 -0.1980 -0.8526
 6358TIP3   OH240488   0.386   5.998  13.665  0.5279 -0.3778 -0.3680
 6358TIP3    H140489   0.331   5.921  13.651  3.2775 -2.4962 -0.3147
 6358TIP3    H240490   0.338   6.070  13.623 -1.9597 -2.1484 -0.7699
 6359TIP3   OH240491   2.724   6.497  16.830 -0.3236 -0.0791  0.2605
 6359TIP3    H140492   2.781   6.575  16.833 -0.1957 -0.1484 -0.2955
 6359TIP3    H240493   2.761   6.438  16.895 -1.5613  1.0859  2.0987
 6360TIP3   OH240494   5.031   0.620   0.879 -0.4852  0.0876 -0.1413
 6360TIP3    H140495   5.018   0.650   0.969  1.3244  2.1145 -0.4747
 6360TIP3    H240496   4.962   0.663   0.829 -0.2390  0.6306 -0.0209
 6361TIP3   OH240497   4.959   5.049  12.322 -0.1113  0.8990 -0.2578
 6361TIP3    H140498   4.914   5.134  12.318  1.1602  1.7616  1.7883
 6361TIP3    H240499   5.049   5.069  12.298  1.1653  1.0440  3.9463
 6362TIP3   OH240500   4.098   3.561   3.096 -0.2689 -0.0447 -0.0178
 6362TIP3    H140501   4.105   3.539   3.189 -0.4021 -0.8918 -0.1953
 6362TIP3    H240502   4.095   3.476   3.052  2.3399  0.2787 -1.0184
 6363TIP3   OH240503   3.811   1.101   1.959 -0.1748 -0.1687 -0.9422
 6363TIP3    H140504   3.805   1.022   1.906  0.0208 -0.3885 -0.6465
 6363TIP3    H240505   3.803   1.070   2.049  0.3351  0.0885 -0.7986
 6364TIP3   OH240506   0.082   4.611   2.320 -0.4548 -0.3788 -0.0759
 6364TIP3    H140507   0.000   4.643   2.358 -0.0663  2.6980 -1.5003
 6364TIP3    H240508   0.059   4.587   2.230  0.0815  0.0638 -0.3412
 6365TIP3   OH240509   4.140   4.791   3.638 -0.4363  0.0648 -0.4172
 6365TIP3    H140510   4.076   4.764   3.571  1.1079 -0.0722 -1.9220
 6365TIP3    H240511   4.153   4.884   3.623 -0.4069  0.1272 -0.0097
 6366TIP3   OH240512   4.303   4.081  14.793 -0.4026 -0.2578  0.1856
 6366TIP3    H140513   4.275   4.141  14.862 -0.9414  0.2600 -0.4605
 6366TIP3    H240514   4.276   4.125  14.712  1.9210  0.0778 -0.4765
 6367TIP3   OH240515   6.098   0.119  12.670 -0.5199 -0.0543  0.1644
 6367TIP3    H140516   6.067   0.104  12.581 -0.8726  1.0833  0.0830
 6367TIP3    H240517   6.118   0.213  12.673  0.1295 -0.2091  1.0866
 6368TIP3   OH240518   0.438   0.569   0.505  0.1949  0.2119 -0.1545
 6368TIP3    H140519   0.473   0.596   0.590 -1.4009 -0.0928  0.6481
 6368TIP3    H240520   0.513   0.532   0.459  1.2008  0.8001  0.9389
 6369TIP3   OH240521   0.354   5.840   1.998  0.1919  0.1766  0.7888
 6369TIP3    H140522   0.345   5.787   1.919 -0.1865 -0.4710  1.2498
 6369TIP3    H240523   0.279   5.899   1.998  0.1022  0.0610  0.7512
 6370TIP3   OH240524   2.888   1.236  15.787 -0.1099  0.1686 -0.0635
 6370TIP3    H140525   2.976   1.198  15.789  0.7017  1.9622 -0.2612
 6370TIP3    H240526   2.898   1.319  15.742 -1.9920  0.2721 -0.3945
 6371TIP3   OH240527   3.660   0.403   2.535 -0.0518 -0.5600  0.0840
 6371TIP3    H140528   3.608   0.363   2.465  0.7869  1.6503 -1.9513
 6371TIP3    H240529   3.640   0.497   2.530  0.5540 -0.2246  2.4200
 6372TIP3   OH240530   4.298   3.838  11.703  0.0282 -0.1819  0.0052
 6372TIP3    H140531   4.269   3.790  11.625 -2.3969  0.2578  0.5659
 6372TIP3    H240532   4.342   3.916  11.668  0.8745 -1.0356 -0.8998
 6373TIP3   OH240533   6.696   6.486   0.345  0.0623  0.0229  0.0149
 6373TIP3    H140534   6.626   6.423   0.329  0.4616 -0.2340 -0.7831
 6373TIP3    H240535   6.767   6.458   0.287 -0.5142  2.4411 -2.0276
 6374TIP3   OH240536   2.674   2.386   6.292 -0.1403 -0.0279 -0.0261
 6374TIP3    H140537   2.630   2.354   6.213  2.7040 -0.9883 -1.3732
 6374TIP3    H240538   2.652   2.479   6.296 -1.3023 -0.2200 -1.2649
 6375TIP3   OH240539   1.844   3.946  13.943 -0.2670 -0.2481 -0.0597
 6375TIP3    H140540   1.749   3.956  13.938 -0.0661  1.4731 -1.6846
 6375TIP3    H240541   1.865   3.882  13.875 -0.2954 -0.8573  0.5071
 6376TIP3   OH240542   6.452   4.970   5.696 -0.5485  0.2064 -0.0995
 6376TIP3    H140543   6.514   5.021   5.643 -2.7749  1.4916 -1.6540
 6376TIP3    H240544   6.410   4.912   5.634 -0.6221 -0.9697  1.0155
 6377TIP3   OH240545   5.515   5.884  10.665 -0.7701  0.7594  0.0688
 6377TIP3    H140546   5.558   5.958  10.708 -0.1938  1.1045 -1.0717
 6377TIP3    H240547   5.429   5.918  10.640  0.5264  2.1130 -3.1307
 6378TIP3   OH240548   6.727   0.227   4.381 -0.1209 -0.3102 -0.7651
 6378TIP3    H140549   6.799   0.257   4.436  1.0800 -1.6410 -1.5482
 6378TIP3    H240550   6.678   0.167   4.437  0.0448 -0.2809 -0.5861
 6379TIP3   OH240551   2.925   4.603  13.841 -0.7675 -0.6485  0.3347
 6379TIP3    H140552   2.853   4.564  13.890  0.3952 -1.3485  1.5452
 6379TIP3    H240553   2.972   4.656  13.906  1.1983 -2.1172  0.2092
 6380TIP3   OH240554   0.160   4.221   3.867 -0.7006  0.1294 -0.4669
 6380TIP3    H140555   0.165   4.316   3.857  1.1020  0.0737 -0.4086
 6380TIP3    H240556   0.225   4.186   3.806  1.1683 -0.8556  1.9280
 6381TIP3   OH240557   4.249   3.317   5.835 -0.1919 -0.1164  0.4133
 6381TIP3    H140558   4.277   3.383   5.898  1.1670  0.1859 -0.4596
 6381TIP3    H240559   4.159   3.340   5.815 -0.9518 -0.6906  2.7950
 6382TIP3   OH240560   3.476   1.262   3.613  0.2531  0.7274 -0.0564
 6382TIP3    H140561   3.533   1.261   3.536 -1.1194  1.3544 -1.1238
 6382TIP3    H240562   3.520   1.320   3.675  1.1215  0.6264 -0.5641
 6383TIP3   OH240563   0.516   5.332   3.109  0.3972  0.5283  0.1701
 6383TIP3    H140564   0.483   5.336   3.199  1.1189  0.8508  0.4334
 6383TIP3    H240565   0.610   5.320   3.119  0.4554  0.3331 -0.5531
 6384TIP3   OH240566   3.355   1.762   1.122  0.4929 -0.0604  0.4300
 6384TIP3    H140567   3.371   1.842   1.072 -1.1866  0.2353  0.3037
 6384TIP3    H240568   3.298   1.710   1.066  0.0397 -0.5093  1.2807
 6385TIP3   OH240569   2.595   5.795  12.595  0.4841 -0.1784  0.7278
 6385TIP3    H140570   2.650   5.722  12.570  0.3888  0.1012 -0.3641
 6385TIP3    H240571   2.626   5.821  12.681  0.6830 -1.3362  1.0157
 6386TIP3   OH240572   0.320   2.343  11.854 -0.0561 -0.2129  0.2315
 6386TIP3    H140573   0.275   2.423  11.828 -1.4013 -1.3467 -1.0873
 6386TIP3    H240574   0.373   2.319  11.778  0.7136 -0.3363  0.7952
 6387TIP3   OH240575   0.048   6.567   4.143  0.8472 -0.0295 -0.3963
 6387TIP3    H140576   0.081   6.634   4.083 -0.6816  0.9660 -0.1757
 6387TIP3    H240577  -0.030   6.606   4.182  1.6234 -0.7426  2.0535
 6388TIP3   OH240578   4.872   3.723   1.586 -0.3150  0.8358  0.7988
 6388TIP3    H140579   4.903   3.800   1.537 -1.3188  1.2208  0.7572
 6388TIP3    H240580   4.931   3.652   1.558  0.4285  1.5146  0.6074
 6389TIP3   OH240581   3.652   0.886  12.878  0.5427 -0.3672 -0.1737
 6389TIP3    H140582   3.593   0.829  12.830  1.8753 -2.2371  0.2692
 6389TIP3    H240583   3.679   0.952  12.815  1.4209 -2.1339 -1.7355
 6390TIP3   OH240584   0.485   0.023   1.654  0.1533 -0.0292  0.4726
 6390TIP3    H140585   0.409   0.016   1.596  0.6419 -2.3224  0.0332
 6390TIP3    H240586   0.459  -0.023   1.734  0.4270  0.8211  1.0667
 6391TIP3   OH240587   4.397   0.922   2.564 -0.6135 -0.3525  0.5333
 6391TIP3    H140588   4.325   0.861   2.580 -0.4787 -0.1772  2.0259
 6391TIP3    H240589   4.359   1.008   2.580  0.0720 -0.3012  2.1541
 6392TIP3   OH240590   3.784   3.079  15.797 -0.1165  0.1204 -0.6210
 6392TIP3    H140591   3.697   3.080  15.835 -0.5217  0.0645 -1.5308
 6392TIP3    H240592   3.787   3.155  15.740  0.5979  0.3856 -0.2504
 6393TIP3   OH240593   2.556   4.017  12.674  0.4149  0.1081  0.5367
 6393TIP3    H140594   2.465   4.036  12.653  0.5000 -1.0079 -0.9559
 6393TIP3    H240595   2.595   3.988  12.592  2.1126  0.4855  1.1605
 6394TIP3   OH240596   3.182   6.754   6.287 -0.1814  0.4382  0.2096
 6394TIP3    H140597   3.272   6.724   6.279 -0.2057  0.6764 -1.0163
 6394TIP3    H240598   3.144   6.698   6.355  0.6083 -0.3175  0.0387
 6395TIP3   OH240599   0.399   4.534  14.395  0.4004  0.0181 -0.5280
 6395TIP3    H140600   0.472   4.596  14.398 -0.1161  0.6387 -0.6503
 6395TIP3    H240601   0.349   4.560  14.319 -1.4730  1.3486  1.0588
 6396TIP3   OH240602   1.499   5.820  14.355 -0.3474  0.0856  0.2763
 6396TIP3    H140603   1.439   5.755  14.319  0.2961 -0.4946  0.2401
 6396TIP3    H240604   1.442   5.891  14.385 -1.0747 -0.6321  0.6265
 6397TIP3   OH240605   2.212   0.446  10.918  0.4885 -0.1678  0.3548
 6397TIP3    H140606   2.163   0.384  10.865  0.8767 -0.7767  0.6987
 6397TIP3    H240607   2.198   0.416  11.008  0.1351  0.6355  0.5793
 6398TIP3   OH240608   3.979   6.573  15.870 -0.1519 -0.3790 -0.4355
 6398TIP3    H140609   4.038   6.581  15.945 -0.2665  1.5410 -0.5139
 6398TIP3    H240610   3.920   6.648  15.877 -0.8214 -0.7273 -1.8953
 6399TIP3   OH240611   1.141   5.949  11.219  0.6340 -0.2968  0.1607
 6399TIP3    H140612   1.159   5.893  11.143 -0.6768 -0.9738  0.3167
 6399TIP3    H240613   1.226   5.982  11.246  1.1433 -0.1718 -1.5067
 6400TIP3   OH240614   6.664   4.463   4.875 -0.8271  0.0235 -0.1038
 6400TIP3    H140615   6.708   4.414   4.807  0.9222  1.9665 -0.4668
 6400TIP3    H240616   6.625   4.396   4.932  0.6361 -1.7230 -1.0627
 6401TIP3   OH240617   0.996   5.813  15.532  0.0645  0.0756  0.1283
 6401TIP3    H140618   1.006   5.718  15.547 -0.6102  0.0499  0.4708
 6401TIP3    H240619   0.981   5.849  15.620 -0.6986  0.3608 -0.1132
 6402TIP3   OH240620   6.644   3.506   2.956  0.1271 -0.0976  0.1489
 6402TIP3    H140621   6.557   3.482   2.923  0.2541 -1.3194  0.6393
 6402TIP3    H240622   6.704   3.478   2.888  0.0832  2.3592 -1.0139
 6403TIP3   OH240623   3.490   4.998  13.427  0.3662 -0.4168 -0.0481
 6403TIP3    H140624   3.502   4.993  13.332  1.6564 -1.4127  0.1450
 6403TIP3    H240625   3.407   4.955  13.443 -0.2530  0.4577 -0.7838
 6404TIP3   OH240626   0.244   0.727   4.196 -0.1994 -0.2969  0.3642
 6404TIP3    H140627   0.202   0.810   4.218  1.0977  0.1513  1.2759
 6404TIP3    H240628   0.185   0.687   4.132 -0.2603  1.8908 -1.0919
 6405TIP3   OH240629   5.916   5.030  17.136 -0.1041 -0.2988  0.3471
 6405TIP3    H140630   5.982   4.963  17.156 -0.1423 -0.1304  1.0494
 6405TIP3    H240631   5.966   5.112  17.132 -0.3010 -0.1429  1.0790
 6406TIP3   OH240632   2.315   6.488  14.308  0.1719 -0.7146  0.5897
 6406TIP3    H140633   2.338   6.395  14.296  0.7965 -0.4283 -0.4921
 6406TIP3    H240634   2.229   6.485  14.349 -0.7643 -1.7801 -1.3110
 6407TIP3   OH240635   5.442   3.734   5.302  0.1742  0.0891 -0.2683
 6407TIP3    H140636   5.374   3.790   5.265 -0.7294 -0.9948 -0.3226
 6407TIP3    H240637   5.425   3.735   5.397 -0.3286 -0.6692 -0.3394
 6408TIP3   OH240638   0.568   4.830  17.044  0.3742  0.3573 -0.0251
 6408TIP3    H140639   0.523   4.746  17.046 -1.6827  1.3579  2.7898
 6408TIP3    H240640   0.656   4.812  17.074  0.2685 -0.9020 -0.4084
 6409TIP3   OH240641   6.038   5.793   1.670  0.0684 -0.3073  0.0045
 6409TIP3    H140642   6.017   5.852   1.742  0.5009 -0.6692  0.4433
 6409TIP3    H240643   6.017   5.706   1.703 -0.1858 -0.4368 -0.4861
 6410TIP3   OH240644   6.528   3.319   4.640 -0.2162 -0.0150 -0.3017
 6410TIP3    H140645   6.536   3.410   4.671 -0.7134 -0.3114  0.7558
 6410TIP3    H240646   6.463   3.323   4.570 -2.5741  0.0510  1.7411
 6411TIP3   OH240647   3.279   2.282  13.675  0.3235 -0.1801  0.0475
 6411TIP3    H140648   3.328   2.244  13.749  0.7215  0.0552 -0.0927
 6411TIP3    H240649   3.224   2.210  13.643  1.0040 -0.6149 -0.1587
 6412TIP3   OH240650   1.878   6.316  15.980 -0.0094 -0.3352  0.3281
 6412TIP3    H140651   1.819   6.386  15.953 -0.6774 -0.7192  0.7558
 6412TIP3    H240652   1.892   6.265  15.900  1.0125  0.6513 -0.1390
 6413TIP3   OH240653   6.308   4.004   4.621 -0.2058  0.2108  0.1196
 6413TIP3    H140654   6.324   3.952   4.542 -0.0211  0.3188  0.0867
 6413TIP3    H240655   6.368   3.967   4.686 -0.8897 -0.3780  0.4287
 6414TIP3   OH240656   6.433   4.077  11.234  0.0811 -0.6995  0.1809
 6414TIP3    H140657   6.495   4.034  11.293 -0.1734 -1.2066  0.0818
 6414TIP3    H240658   6.458   4.046  11.147  1.5350  1.3299 -0.1986
 6415TIP3   OH240659   6.167   2.203  13.586  0.0097 -0.8124  0.3057
 6415TIP3    H140660   6.200   2.241  13.668 -1.5958  0.1135  0.5825
 6415TIP3    H240661   6.208   2.117  13.581  0.1218 -0.9138  2.1196
 6416TIP3   OH240662   4.015   0.920  16.241 -0.1567  0.0149  0.2059
 6416TIP3    H140663   4.041   0.845  16.295 -0.1246 -0.2731 -0.2011
 6416TIP3    H240664   3.932   0.894  16.203 -0.0352  0.0965 -0.1152
 6417TIP3   OH240665   4.186   1.813  11.929 -0.6790  0.3336 -0.0436
 6417TIP3    H140666   4.227   1.807  12.016 -0.8461  0.5303  0.0495
 6417TIP3    H240667   4.258   1.799  11.868 -0.5711  0.1292  0.1259
 6418TIP3   OH240668   1.288   4.354  13.005  0.1126  0.1447  0.2203
 6418TIP3    H140669   1.355   4.353  13.074 -0.6895 -1.0161  1.0183
 6418TIP3    H240670   1.232   4.280  13.025 -0.0436 -0.3518 -1.8179
 6419TIP3   OH240671   1.217   6.337   1.176 -1.1772  0.2616  0.3424
 6419TIP3    H140672   1.225   6.243   1.160 -0.6774  0.4163 -0.3496
 6419TIP3    H240673   1.286   6.356   1.239  0.2808  0.5607 -1.2702
 6420TIP3   OH240674   2.180   6.399   1.124 -0.3324  0.1950  0.3528
 6420TIP3    H140675   2.244   6.374   1.190  1.2690  1.1061 -0.8027
 6420TIP3    H240676   2.207   6.487   1.095 -1.6469  0.2920 -0.7038
 6421TIP3   OH240677   0.451   4.836  10.471  0.2230 -0.9329  0.1028
 6421TIP3    H140678   0.544   4.853  10.458 -0.2339  1.0305 -1.0042
 6421TIP3    H240679   0.434   4.755  10.422  1.7722 -2.8162  2.4261
 6422TIP3   OH240680   6.329   6.543  16.067  0.1593 -0.1861 -0.0855
 6422TIP3    H140681   6.384   6.484  16.015 -0.0692 -0.2445 -0.2636
 6422TIP3    H240682   6.390   6.586  16.127  0.1374 -1.6421  1.0327
 6423TIP3   OH240683   4.931   6.747   5.445 -0.2685  0.1094 -0.0270
 6423TIP3    H140684   5.026   6.753   5.458 -0.4893  0.4165  1.6456
 6423TIP3    H240685   4.901   6.687   5.513 -1.2204 -0.4433 -0.9051
 6424TIP3   OH240686   4.352   2.836  14.758  0.5955 -0.3647 -0.0783
 6424TIP3    H140687   4.301   2.828  14.839  0.2391  0.9413 -0.1509
 6424TIP3    H240688   4.440   2.805  14.782  0.1379 -1.3382  0.4151
 6425TIP3   OH240689   3.986   1.987  15.764 -0.2751 -0.3348 -0.6797
 6425TIP3    H140690   3.924   1.982  15.691 -0.3244 -2.0432 -0.5589
 6425TIP3    H240691   4.066   1.947  15.731  0.4853  0.9880 -0.5196
 6426TIP3   OH240692   6.051   6.157  11.968  0.2690  0.4948  0.0827
 6426TIP3    H140693   6.135   6.203  11.967 -0.6886  2.3629 -1.9173
 6426TIP3    H240694   5.996   6.210  12.026  0.5657 -1.0460  1.8623
 6427TIP3   OH240695   5.534   3.254  11.669  0.2679 -0.5034 -0.3024
 6427TIP3    H140696   5.456   3.198  11.674 -0.3355  0.3301 -0.1655
 6427TIP3    H240697   5.570   3.237  11.582 -0.9213  0.1867 -0.9656
 6428TIP3   OH240698   0.737   6.292  14.746 -0.2747 -0.2406 -0.4884
 6428TIP3    H140699   0.719   6.322  14.657  1.1096  2.0276 -0.0780
 6428TIP3    H240700   0.832   6.299  14.756 -0.4082 -0.2771  1.2237
 6429TIP3   OH240701   0.825   1.168  14.243 -0.6237  0.3570  0.5747
 6429TIP3    H140702   0.886   1.094  14.241 -0.0712  0.7655 -2.3440
 6429TIP3    H240703   0.739   1.129  14.253 -0.3633 -0.7661 -1.1906
 6430TIP3   OH240704   3.888   0.359   1.465 -0.0948 -0.0737  0.7576
 6430TIP3    H140705   3.891   0.357   1.561  2.5447 -0.5254  0.7302
 6430TIP3    H240706   3.935   0.439   1.441 -1.1023  0.2614 -0.1801
 6431TIP3   OH240707   0.565   5.230   0.542  0.1997 -0.0039  0.0868
 6431TIP3    H140708   0.652   5.205   0.510  0.5528  2.4548 -1.0913
 6431TIP3    H240709   0.507   5.215   0.467 -0.4461 -1.4845  0.8182
 6432TIP3   OH240710   6.398   1.673  16.353 -0.3056  0.5071 -0.1309
 6432TIP3    H140711   6.340   1.659  16.278  1.4970 -0.2541 -1.4548
 6432TIP3    H240712   6.340   1.672  16.429 -2.0645  0.2174 -1.4263
 6433TIP3   OH240713   4.054   6.694   3.231  0.0723 -0.1158  0.6945
 6433TIP3    H140714   4.103   6.736   3.161  0.4874 -2.6557 -0.6616
 6433TIP3    H240715   4.115   6.690   3.304  0.7756 -0.3473  0.1007
 6434TIP3   OH240716   2.690   6.669   1.485  0.1967  0.0268 -0.7040
 6434TIP3    H140717   2.631   6.594   1.497 -0.9248  0.9701 -0.1162
 6434TIP3    H240718   2.635   6.737   1.448  1.3327  0.4160 -1.7300
 6435TIP3   OH240719   3.434   2.536   3.001 -0.0680 -0.3879 -0.3103
 6435TIP3    H140720   3.401   2.602   2.940  1.0871 -1.6216 -2.3902
 6435TIP3    H240721   3.493   2.583   3.059  0.2357  0.5242 -1.3284
 6436TIP3   OH240722   0.672   1.829  16.670  0.2556 -0.5443 -0.1341
 6436TIP3    H140723   0.685   1.770  16.744 -1.3760 -0.5213  0.2179
 6436TIP3    H240724   0.610   1.782  16.613  1.5445 -0.6037 -1.5511
 6437TIP3   OH240725   4.077   0.531  15.253  0.3409  0.4964  0.2991
 6437TIP3    H140726   4.167   0.505  15.269  0.1037  0.9850  2.9362
 6437TIP3    H240727   4.046   0.472  15.184  1.9514 -1.2876  1.0157
 6438TIP3   OH240728   5.795   5.203  13.737 -0.5516  0.2362  0.1136
 6438TIP3    H140729   5.838   5.288  13.739  0.0531 -0.0737  0.8477
 6438TIP3    H240730   5.866   5.140  13.754 -1.2050 -0.3181  0.8528
 6439TIP3   OH240731   3.661   1.299   4.841  0.2538  0.1058  0.0316
 6439TIP3    H140732   3.634   1.277   4.752 -1.1320 -0.4466  0.5671
 6439TIP3    H240733   3.584   1.339   4.880  0.8142  0.2377  1.0290
 6440TIP3   OH240734   5.804   5.585  15.950  0.0927  0.2747 -0.2090
 6440TIP3    H140735   5.720   5.631  15.952 -0.0293  0.0744 -0.6707
 6440TIP3    H240736   5.813   5.555  15.859 -0.6940 -2.2214  0.4627
 6441TIP3   OH240737   4.045   0.319  17.333 -0.0846  0.1722 -0.0092
 6441TIP3    H140738   4.104   0.246  17.350 -0.8850 -0.0671  2.1305
 6441TIP3    H240739   4.089   0.395  17.371  0.5373  0.7674 -1.8208
 6442TIP3   OH240740   5.415   0.911   3.687  0.3402  0.0151  0.4197
 6442TIP3    H140741   5.385   0.835   3.638  0.2532  0.2487  0.1072
 6442TIP3    H240742   5.499   0.884   3.724 -0.2803 -0.6693  1.3641
 6443TIP3   OH240743   2.034   1.299   3.224 -0.0503 -0.5469  0.3828
 6443TIP3    H140744   1.977   1.351   3.167 -3.2357 -4.1563 -0.1399
 6443TIP3    H240745   2.014   1.328   3.313  0.6639  1.1793  0.0196
 6444TIP3   OH240746   2.507   6.185  15.896 -0.6622 -0.1076  0.4960
 6444TIP3    H140747   2.481   6.264  15.848 -1.6998  0.1842  1.4951
 6444TIP3    H240748   2.601   6.195  15.910 -0.1543 -0.5454 -2.0743
 6445TIP3   OH240749   3.590   4.366  13.233 -0.0651 -0.3955  0.4307
 6445TIP3    H140750   3.520   4.389  13.172  0.4022 -0.8718 -0.3035
 6445TIP3    H240751   3.553   4.382  13.319 -1.5488 -1.8814  0.1285
 6446TIP3   OH240752   6.125   3.877  11.114  0.1707  0.3210 -0.4059
 6446TIP3    H140753   6.049   3.907  11.063  0.7098  1.2195 -0.7053
 6446TIP3    H240754   6.153   3.954  11.163  0.2055 -0.3071  0.5914
 6447TIP3   OH240755   3.525   2.828   0.201  0.4062 -0.7488 -0.3891
 6447TIP3    H140756   3.462   2.760   0.178 -1.4865  1.1445 -1.0446
 6447TIP3    H240757   3.480   2.883   0.265  1.6849  0.2338 -0.2796
 6448TIP3   OH240758   2.535   1.137  14.140  0.0681  0.2845 -0.3449
 6448TIP3    H140759   2.614   1.092  14.109 -0.4041 -1.6713  1.1249
 6448TIP3    H240760   2.469   1.120  14.073  0.4562  0.6572 -0.8368
 6449TIP3   OH240761   2.820   0.188   0.289  0.5548 -0.2059 -0.4795
 6449TIP3    H140762   2.728   0.162   0.292  0.6586 -0.4793  1.2092
 6449TIP3    H240763   2.843   0.206   0.380  2.5244 -1.3497 -0.7012
 6450TIP3   OH240764   3.208   1.686   2.267 -0.5312 -0.5720 -0.4942
 6450TIP3    H140765   3.155   1.712   2.192 -1.4748 -3.5016 -0.9647
 6450TIP3    H240766   3.248   1.603   2.241  1.9184  0.0310  1.0026
 6451TIP3   OH240767   3.909   6.199  13.173  0.5377  0.2828 -0.4062
 6451TIP3    H140768   3.905   6.163  13.085 -0.0403 -0.2435 -0.1739
 6451TIP3    H240769   3.849   6.144  13.224  1.4314  0.1149  0.4833
 6452TIP3   OH240770   5.887   0.110   3.559  0.4982  0.1887 -0.8310
 6452TIP3    H140771   5.931   0.195   3.554 -0.2048  0.6660  0.5646
 6452TIP3    H240772   5.794   0.131   3.562  0.3480 -0.5781  0.3403
 6453TIP3   OH240773   0.392   4.296   0.141 -0.3466  0.4173  0.2461
 6453TIP3    H140774   0.303   4.307   0.110 -0.6699 -1.1582  0.5331
 6453TIP3    H240775   0.413   4.204   0.124  0.6385  0.3493  1.6354
 6454TIP3   OH240776   3.516   3.045   2.020 -0.3489 -0.0136  0.0223
 6454TIP3    H140777   3.495   3.050   1.927 -0.6465 -0.1792  0.0806
 6454TIP3    H240778   3.477   2.963   2.049  0.7915 -0.5701  0.0224
 6455TIP3   OH240779   4.221   0.811   4.539 -0.1012 -0.0641 -0.7542
 6455TIP3    H140780   4.277   0.888   4.527  0.4753 -0.0814  1.5308
 6455TIP3    H240781   4.133   0.848   4.551  0.0558  0.2016 -0.3994
 6456TIP3   OH240782   4.131   6.564   2.851 -0.0136  0.0712 -0.1611
 6456TIP3    H140783   4.213   6.610   2.871  0.3245 -0.5052 -0.2041
 6456TIP3    H240784   4.128   6.561   2.756 -0.2332  0.3460 -0.1648
 6457TIP3   OH240785   3.293   3.966   6.769 -0.2352  0.5463 -0.1506
 6457TIP3    H140786   3.273   4.040   6.712 -0.5545 -1.4613 -2.8046
 6457TIP3    H240787   3.389   3.959   6.767 -0.3082 -0.5555 -1.9697
 6458TIP3   OH240788   6.538   2.707  11.084  0.2453  0.0227 -0.4794
 6458TIP3    H140789   6.474   2.641  11.060  0.2825 -1.1909  2.3139
 6458TIP3    H240790   6.617   2.658  11.107  0.6051  1.0835  0.7041
 6459TIP3   OH240791   0.656   1.104   5.516  0.3674  0.2484 -0.1870
 6459TIP3    H140792   0.660   1.081   5.423  1.0786 -1.8117  0.3153
 6459TIP3    H240793   0.578   1.159   5.524 -0.0284 -0.0220 -1.8926
 6460TIP3   OH240794   1.576   4.678  10.556  0.2449 -0.2021  0.4245
 6460TIP3    H140795   1.605   4.760  10.595  1.7816 -1.3145  1.7951
 6460TIP3    H240796   1.609   4.611  10.616 -0.6690 -1.8338 -0.8258
 6461TIP3   OH240797   0.233   1.235   1.338 -0.7109  0.8164  0.4775
 6461TIP3    H140798   0.197   1.321   1.360 -0.6061  1.1467 -0.6118
 6461TIP3    H240799   0.278   1.248   1.255 -0.8619 -0.3381  0.1989
 6462TIP3   OH240800   5.109   3.265  14.204  0.2168  0.2846 -0.1310
 6462TIP3    H140801   5.161   3.212  14.263  0.7140  0.4274 -0.4375
 6462TIP3    H240802   5.107   3.216  14.122 -0.2794  0.1955 -0.0692
 6463TIP3   OH240803   2.795   3.356   5.821 -0.2138 -0.0765 -0.2022
 6463TIP3    H140804   2.707   3.360   5.859  0.2460 -0.3751  0.9068
 6463TIP3    H240805   2.780   3.328   5.731 -1.2963  0.3644 -0.1773
 6464TIP3   OH240806   5.688   0.088  14.969 -0.6245  0.4095  0.1765
 6464TIP3    H140807   5.783   0.089  14.958 -0.6982  0.4387 -0.4606
 6464TIP3    H240808   5.672   0.156  15.035 -0.1279 -0.2592  1.0168
 6465TIP3   OH240809   1.806   6.525  17.140  0.1885 -0.5408 -0.3355
 6465TIP3    H140810   1.774   6.566  17.060  0.5223  0.4569  0.0237
 6465TIP3    H240811   1.890   6.568  17.157  0.3332 -1.0574  0.3059
 6466TIP3   OH240812   2.845   3.935   0.305  0.2271 -0.6410 -0.1921
 6466TIP3    H140813   2.894   4.017   0.303  0.7769 -0.9618 -0.2566
 6466TIP3    H240814   2.755   3.961   0.319  0.6386 -0.1371  1.7788
 6467TIP3   OH240815   5.659   4.276  12.258  0.1321  0.0379 -1.2298
 6467TIP3    H140816   5.672   4.181  12.256  1.7651  0.2133 -0.7388
 6467TIP3    H240817   5.610   4.291  12.339  1.5649 -0.2487 -0.2708
 6468TIP3   OH240818   0.629   0.106   5.852 -0.3955  0.1620 -0.8937
 6468TIP3    H140819   0.684   0.032   5.828  0.6405 -0.2650  2.3149
 6468TIP3    H240820   0.544   0.068   5.873  0.2613 -0.2974  1.1866
 6469TIP3   OH240821   2.082   4.960   2.376  1.2151  0.3828 -0.0762
 6469TIP3    H140822   2.076   4.865   2.374  1.0474  0.4012 -0.9144
 6469TIP3    H240823   2.006   4.990   2.327  1.4537  0.9351 -0.1172
 6470TIP3   OH240824   1.234   2.312  16.708 -0.4214  0.1539  0.0429
 6470TIP3    H140825   1.235   2.220  16.734  0.0447  0.7826  2.4473
 6470TIP3    H240826   1.311   2.322  16.652 -0.1141 -0.7577  0.2941
 6471TIP3   OH240827   4.029   2.109   1.245 -0.3928  0.4686 -0.2932
 6471TIP3    H140828   4.024   2.154   1.160  0.7118  1.3072  0.0620
 6471TIP3    H240829   4.039   2.180   1.309 -1.3022 -0.1514  0.5546
 6472TIP3   OH240830   1.310   3.199   5.998  0.0999 -0.0948  0.0593
 6472TIP3    H140831   1.227   3.194   6.045  0.1010 -1.2375 -0.0366
 6472TIP3    H240832   1.357   3.119   6.022 -1.1403 -2.3810 -4.1012
 6473TIP3   OH240833   5.779   5.985   2.405 -0.1201 -0.0029  0.4218
 6473TIP3    H140834   5.832   6.047   2.456 -0.6345  0.1329  0.8007
 6473TIP3    H240835   5.821   5.900   2.421  0.1172  0.1335  0.5368
 6474TIP3   OH240836   5.392   1.413  13.063  0.3032  0.2765 -0.1028
 6474TIP3    H140837   5.337   1.447  13.134  1.4000  2.7381 -0.3092
 6474TIP3    H240838   5.434   1.335  13.100  0.5101  1.2469  1.8519
 6475TIP3   OH240839   6.639   3.808  15.210  0.0435 -1.0889 -0.0454
 6475TIP3    H140840   6.629   3.713  15.201 -1.5603 -0.8378 -1.4692
 6475TIP3    H240841   6.700   3.833  15.141 -1.7158 -0.8042 -1.5872
 6476TIP3   OH240842   5.395   2.156  11.453  0.0406  0.0119  0.0931
 6476TIP3    H140843   5.422   2.067  11.429  1.8744  0.7011 -0.6294
 6476TIP3    H240844   5.346   2.188  11.378 -0.8924 -0.4788  0.4818
 6477TIP3   OH240845   5.524   2.803   4.545  0.2578  0.6552 -0.1242
 6477TIP3    H140846   5.609   2.814   4.587 -0.1185  1.5996  0.4157
 6477TIP3    H240847   5.465   2.862   4.593 -1.5944 -2.5748  1.9782
 6478TIP3   OH240848   5.617   5.631   1.310 -0.1844 -0.0787 -0.1061
 6478TIP3    H140849   5.537   5.682   1.327  0.2932  1.2427 -1.5986
 6478TIP3    H240850   5.623   5.571   1.384 -0.9630  1.8205  1.6001
 6479TIP3   OH240851   1.227   2.699  14.379  0.0653  0.0541 -0.5851
 6479TIP3    H140852   1.189   2.682  14.293 -1.5491 -0.2835  0.1642
 6479TIP3    H240853   1.161   2.668  14.441  0.8738  0.9715  0.7851
 6480TIP3   OH240854   3.559   4.329   4.288  0.1730  0.8376 -0.5107
 6480TIP3    H140855   3.534   4.364   4.374  0.3985 -0.5003  0.1359
 6480TIP3    H240856   3.510   4.247   4.281  1.9987 -0.3217 -0.5400
 6481TIP3   OH240857   4.763   2.336   1.366  0.5372 -0.6898 -0.3435
 6481TIP3    H140858   4.745   2.267   1.302  0.3952 -0.4072 -0.6122
 6481TIP3    H240859   4.680   2.350   1.411  1.2427 -2.7978  1.8383
 6482TIP3   OH240860   2.204   6.372  13.902 -0.4891 -0.0485 -1.0389
 6482TIP3    H140861   2.180   6.395  13.812  0.2222 -0.9533 -1.4749
 6482TIP3    H240862   2.120   6.358  13.946 -0.8622  1.0249 -1.3841
 6483TIP3   OH240863   3.795   3.758  10.680  0.5151  0.0498  0.5022
 6483TIP3    H140864   3.858   3.825  10.656  0.6949 -0.0677  0.6420
 6483TIP3    H240865   3.848   3.686  10.715  0.3684 -0.3821 -0.1422
 6484TIP3   OH240866   1.409   2.943  16.454 -0.3361 -0.0408  0.3941
 6484TIP3    H140867   1.364   2.859  16.456  0.3022 -0.3843  1.9601
 6484TIP3    H240868   1.358   2.997  16.393 -0.4156 -1.7150 -1.0930
 6485TIP3   OH240869   0.821   5.260  12.605 -0.4629  0.3611  0.0882
 6485TIP3    H140870   0.851   5.342  12.567 -0.5085 -0.4996 -1.9531
 6485TIP3    H240871   0.901   5.215  12.631 -0.4244  0.9129  0.9640
 6486TIP3   OH240872   5.135   2.226  13.210 -0.4860 -0.3715  0.1094
 6486TIP3    H140873   5.220   2.249  13.247 -0.6138  1.1763 -0.4969
 6486TIP3    H240874   5.156   2.173  13.132 -0.0952 -0.2898  0.1562
 6487TIP3   OH240875   1.476   3.545  16.220 -0.5740  0.2598 -0.0488
 6487TIP3    H140876   1.401   3.511  16.172 -1.2993  0.5746  0.8294
 6487TIP3    H240877   1.448   3.545  16.312  1.1554 -1.3960  0.5461
 6488TIP3   OH240878   0.365   2.925  16.597 -0.1448 -0.3064  0.5936
 6488TIP3    H140879   0.356   2.867  16.521 -0.3893 -1.1668  1.2626
 6488TIP3    H240880   0.460   2.927  16.613  0.0316  0.8560 -0.4530
 6489TIP3   OH240881   1.595   2.085   0.577  0.4481  0.4251  0.1367
 6489TIP3    H140882   1.532   2.119   0.641 -1.9509 -0.2830 -1.6715
 6489TIP3    H240883   1.559   2.000   0.551  3.0709 -0.7949  0.1736
 6490TIP3   OH240884   2.417   2.125   3.413  0.2877 -0.8649 -0.5284
 6490TIP3    H140885   2.399   2.159   3.326 -1.0718  1.2899  0.5164
 6490TIP3    H240886   2.459   2.197   3.459  0.5220 -1.7815  0.7548
 6491TIP3   OH240887   0.501   3.359  16.095 -0.2548 -0.4640 -0.1797
 6491TIP3    H140888   0.437   3.335  16.028 -0.4938  1.1872 -0.5677
 6491TIP3    H240889   0.467   3.439  16.134  0.8598 -0.3468  0.5977
 6492TIP3   OH240890   6.333   6.676   5.953 -0.1029  0.1706  0.1963
 6492TIP3    H140891   6.393   6.628   5.896 -1.9202 -1.7464 -0.2589
 6492TIP3    H240892   6.386   6.744   5.993  2.3146 -1.3421 -0.2491
 6493TIP3   OH240893   2.571   0.172  14.242 -0.1925  0.0391  0.0361
 6493TIP3    H140894   2.501   0.143  14.300  0.6146  0.0699  1.0606
 6493TIP3    H240895   2.555   0.125  14.160 -1.1194 -0.3235  0.4062
 6494TIP3   OH240896   5.408   3.247  15.678 -0.1163  1.1297 -0.7136
 6494TIP3    H140897   5.441   3.240  15.767 -1.2119  0.0838 -0.3602
 6494TIP3    H240898   5.314   3.262  15.688 -0.1790  1.4948 -1.6921
 6495TIP3   OH240899   1.087   1.308  15.971  0.2180 -0.1190  0.4594
 6495TIP3    H140900   1.141   1.255  15.912 -0.0040  0.8803 -0.6714
 6495TIP3    H240901   1.002   1.313  15.927 -0.1325  0.1452  1.1596
 6496TIP3   OH240902   3.999   2.174  16.705  0.0904 -0.5913 -0.2846
 6496TIP3    H140903   3.939   2.144  16.637 -0.6692  2.4381 -1.1399
 6496TIP3    H240904   4.076   2.206  16.657  0.2922 -0.0147  0.3980
 6497TIP3   OH240905   1.089   3.517  14.884 -0.0205  0.1447 -0.0098
 6497TIP3    H140906   1.146   3.512  14.960 -0.7663  0.3701  0.5703
 6497TIP3    H240907   1.001   3.503  14.918 -0.5628  1.9801 -0.5593
 6498TIP3   OH240908   0.700   1.574  10.981  0.7648  0.7291 -0.1567
 6498TIP3    H140909   0.728   1.483  10.970 -1.8284 -0.0288 -1.2648
 6498TIP3    H240910   0.658   1.596  10.898  2.2310  3.3477 -0.3072
 6499TIP3   OH240911   4.989   0.098  16.164  0.3978  0.3608 -0.4459
 6499TIP3    H140912   5.079   0.083  16.192  1.2204  0.6393 -2.6792
 6499TIP3    H240913   4.972   0.027  16.101 -0.6628  0.7456 -0.6123
 6500TIP3   OH240914   1.184   5.624   4.853  0.1228 -0.1807 -0.3335
 6500TIP3    H140915   1.201   5.596   4.944 -0.3180  2.3422  0.5874
 6500TIP3    H240916   1.092   5.603   4.838  0.9436 -3.6786 -1.4768
 6501TIP3   OH240917   1.870   5.959   4.986  0.2878  0.1768  0.1111
 6501TIP3    H140918   1.946   5.902   4.973 -0.8247 -1.3976  0.0850
 6501TIP3    H240919   1.875   5.985   5.078  1.0191  0.3546  0.0267
 6502TIP3   OH240920   6.432   4.633   0.592  0.0671  0.3146 -0.4055
 6502TIP3    H140921   6.431   4.631   0.496 -2.4747  0.1729 -0.4617
 6502TIP3    H240922   6.353   4.682   0.615 -0.6650 -1.6035  1.5889
 6503TIP3   OH240923   0.895   6.125  17.372 -0.2731 -0.0125  0.5159
 6503TIP3    H140924   0.935   6.104  17.287 -0.6137  1.1257  0.0530
 6503TIP3    H240925   0.807   6.154  17.350  0.6889  3.6309  0.8519
 6504TIP3   OH240926   2.526   1.217  11.911  0.5129  0.3358 -0.0245
 6504TIP3    H140927   2.608   1.264  11.896 -0.0034  1.1138 -0.4863
 6504TIP3    H240928   2.529   1.144  11.849  1.3240 -0.2684  0.7055
 6505TIP3   OH240929   5.540   5.397   5.043 -0.5386 -0.2632 -0.1109
 6505TIP3    H140930   5.540   5.308   5.079 -2.4551 -0.3314 -0.1980
 6505TIP3    H240931   5.448   5.421   5.037 -0.0736  1.6057 -0.4480
 6506TIP3   OH240932   5.435   3.150   4.644  0.4140  0.0849  0.0500
 6506TIP3    H140933   5.503   3.092   4.677  0.1492  0.1245  0.6986
 6506TIP3    H240934   5.358   3.093   4.633  0.2442  0.2449  0.3826
 6507TIP3   OH240935   2.710   5.184  13.050  0.0362  0.2434 -0.1290
 6507TIP3    H140936   2.768   5.164  12.977 -0.2451 -0.3386 -0.2018
 6507TIP3    H240937   2.734   5.121  13.118 -2.5501 -2.1684 -1.2632
 6508TIP3   OH240938   3.128   5.470   1.969  0.3120 -0.5585 -0.1142
 6508TIP3    H140939   3.088   5.384   1.980  2.0153 -1.4802 -0.6870
 6508TIP3    H240940   3.222   5.452   1.969  0.7033  1.3309 -0.1025
 6509TIP3   OH240941   3.841   0.039  15.155 -0.4782  0.1798  0.3801
 6509TIP3    H140942   3.800   0.064  15.237  0.0520  1.5388  0.2452
 6509TIP3    H240943   3.935   0.046  15.171 -0.3696  0.6886 -0.3965
 6510TIP3   OH240944   3.296   4.371  13.092  0.2177  0.2948 -0.0406
 6510TIP3    H140945   3.272   4.307  13.159  1.9602  0.6485  0.9710
 6510TIP3    H240946   3.253   4.339  13.012 -4.2033  1.2815  1.6420
 6511TIP3   OH240947   1.576   5.153   2.653  0.2786  0.7919  0.3364
 6511TIP3    H140948   1.635   5.146   2.728  2.5174  0.1106 -1.3723
 6511TIP3    H240949   1.602   5.081   2.595 -1.4383  1.2274 -1.0691
 6512TIP3   OH240950   5.085   2.612  16.426  0.4592  0.1101 -0.1566
 6512TIP3    H140951   5.111   2.578  16.512 -0.9805 -0.8599 -0.0706
 6512TIP3    H240952   5.164   2.603  16.373  0.2549 -3.4230 -0.1244
 6513TIP3   OH240953   4.901   0.549   1.451  0.6647  0.0200  0.1914
 6513TIP3    H140954   4.883   0.479   1.388 -0.7652  0.6934 -0.2055
 6513TIP3    H240955   4.859   0.519   1.532 -0.9786  0.8836 -0.2945
 6514TIP3   OH240956   6.198   4.678   6.058 -0.2785  0.1688  0.1609
 6514TIP3    H140957   6.288   4.691   6.087 -0.3725  3.7771 -0.6746
 6514TIP3    H240958   6.145   4.712   6.129 -0.9036  0.1538 -0.2929
 6515TIP3   OH240959   0.330   6.512   3.653  0.2191  0.3053  0.4157
 6515TIP3    H140960   0.342   6.556   3.737 -0.3020  1.4332 -0.0921
 6515TIP3    H240961   0.363   6.574   3.588 -1.8491  0.5939 -0.4328
 6516TIP3   OH240962   1.970   5.277   1.421 -0.1920 -0.2599  0.0946
 6516TIP3    H140963   2.040   5.216   1.444  0.5861  0.4050 -0.4823
 6516TIP3    H240964   1.999   5.319   1.340 -0.3665  1.4135  0.8643
 6517TIP3   OH240965   6.363   6.081  14.624  0.3422 -0.1135  0.3731
 6517TIP3    H140966   6.413   6.089  14.705  0.7932 -0.4891  0.1371
 6517TIP3    H240967   6.429   6.064  14.556  0.6170  4.6257 -0.9194
 6518TIP3   OH240968   4.258   0.814   4.877 -0.2408  0.1615  0.2445
 6518TIP3    H140969   4.299   0.838   4.960 -0.5602 -0.9093  0.7318
 6518TIP3    H240970   4.207   0.891   4.852  0.8878  0.9703  0.3730
 6519TIP3   OH240971   4.683   5.693   3.112 -0.4676 -0.3136  0.0933
 6519TIP3    H140972   4.678   5.766   3.173  1.4152 -1.5014  1.7994
 6519TIP3    H240973   4.770   5.701   3.073  0.0693 -1.9807  0.8489
 6520TIP3   OH240974   0.388   1.622  15.654 -0.3843 -1.0275  0.0465
 6520TIP3    H140975   0.354   1.711  15.658  0.2563 -0.6589 -1.7846
 6520TIP3    H240976   0.310   1.566  15.662 -0.8810 -0.3064  0.3287
 6521TIP3   OH240977   0.325   0.832   0.762  0.1414 -0.2229  0.0423
 6521TIP3    H140978   0.390   0.765   0.784  0.8908  0.9759  1.7772
 6521TIP3    H240979   0.307   0.875   0.845 -3.4197 -0.8956 -0.2371
 6522TIP3   OH240980   5.837   0.697   3.267 -0.0157 -0.4257  0.0864
 6522TIP3    H140981   5.904   0.640   3.230  0.9505 -0.9096  2.4268
 6522TIP3    H240982   5.872   0.785   3.258 -0.2256 -0.4359 -0.9511
 6523TIP3   OH240983   0.530   0.606   1.640  0.1828 -0.6467 -0.1175
 6523TIP3    H140984   0.612   0.607   1.690  0.0911  0.3591  0.0292
 6523TIP3    H240985   0.463   0.584   1.704  0.2191 -0.5336 -0.0393
 6524TIP3   OH240986   4.661   2.003   0.264 -0.2231  0.1674  0.3580
 6524TIP3    H140987   4.659   1.925   0.319 -0.7419 -0.0017  0.1076
 6524TIP3    H240988   4.700   1.974   0.181  0.6950  0.4559  0.6820
 6525TIP3   OH240989   3.885   1.511  16.705 -0.1048 -0.2399  0.3320
 6525TIP3    H140990   3.957   1.559  16.745 -0.7097 -0.2615  1.4943
 6525TIP3    H240991   3.808   1.538  16.755 -0.4000 -2.7851  1.3739
 6526TIP3   OH240992   4.008   0.755   1.776  0.2579 -0.0720  0.0030
 6526TIP3    H140993   3.913   0.760   1.792  0.0317 -2.6699 -0.1194
 6526TIP3    H240994   4.017   0.763   1.681  0.0940 -0.4039 -0.0424
 6527TIP3   OH240995   4.342   2.394  16.301  0.4948 -0.1908  0.2354
 6527TIP3    H140996   4.421   2.438  16.270 -0.0595  1.1148  0.5984
 6527TIP3    H240997   4.275   2.463  16.301 -1.3031 -1.7641 -2.3902
 6528TIP3   OH240998   5.307   4.354  15.048  0.4059 -0.5953  0.3550
 6528TIP3    H140999   5.336   4.429  14.995  0.2131 -0.5245  0.3502
 6528TIP3    H241000   5.259   4.393  15.121  2.1657 -0.5755  1.5819
 6529TIP3   OH241001   3.974   1.481   3.304 -0.3968  0.2591 -0.0326
 6529TIP3    H141002   3.918   1.508   3.232  0.7844 -1.9333 -1.9039
 6529TIP3    H241003   3.993   1.562   3.351  0.5285  2.2489 -3.4684
 6530TIP3   OH241004   5.249   3.222  14.617  0.2508 -0.0705  0.5442
 6530TIP3    H141005   5.311   3.149  14.621 -0.3173 -0.5206  2.1183
 6530TIP3    H241006   5.168   3.183  14.587 -0.2451 -0.2753  2.0533
 6531TIP3   OH241007   0.337   5.155  16.856  0.7116  0.8340 -0.0121
 6531TIP3    H141008   0.429   5.142  16.880  1.0594  0.7385 -1.3544
 6531TIP3    H241009   0.288   5.109  16.924  1.7145 -0.7867 -0.3451
 6532TIP3   OH241010   6.434   2.928  12.185  0.3778 -0.3569  0.0475
 6532TIP3    H141011   6.441   2.923  12.280 -0.1921 -0.7597  0.0732
 6532TIP3    H241012   6.346   2.963  12.169  0.9712  1.0505 -0.3147
 6533TIP3   OH241013   4.523   4.687  16.473 -0.4881  0.3612  0.3027
 6533TIP3    H141014   4.577   4.670  16.550 -1.1222 -0.3680  0.6021
 6533TIP3    H241015   4.585   4.688  16.400 -0.0097  0.0210  0.6986
 6534TIP3   OH241016   1.115   2.455  12.299 -0.0195  0.4984 -0.0838
 6534TIP3    H141017   1.053   2.527  12.293 -0.7689  0.0046  1.1614
 6534TIP3    H241018   1.062   2.381  12.329  0.9900 -0.1885  0.0523
 6535TIP3   OH241019   0.488   1.324   5.535  0.6776 -0.0759 -0.4719
 6535TIP3    H141020   0.411   1.271   5.555  1.2268 -2.4209 -3.7329
 6535TIP3    H241021   0.500   1.379   5.613 -2.2222 -2.0127  1.5643
 6536TIP3   OH241022   1.712   4.533   3.171  0.0808  0.0956  0.0749
 6536TIP3    H141023   1.617   4.545   3.176  0.3535  2.7095  0.4058
 6536TIP3    H241024   1.745   4.564   3.255  1.3227  0.5918 -0.5662
 6537TIP3   OH241025   2.085   6.062   1.773  0.3213  0.0860  0.3725
 6537TIP3    H141026   2.075   6.006   1.696  1.1787  0.5405 -0.0905
 6537TIP3    H241027   2.160   6.118   1.752 -0.9048  1.8969  0.4964
 6538TIP3   OH241028   0.928   0.398  11.219 -0.0906 -0.8601 -0.5673
 6538TIP3    H141029   0.837   0.423  11.202 -0.5619 -0.8478  1.6699
 6538TIP3    H241030   0.979   0.450  11.157 -1.4631  1.0252 -0.2168
 6539TIP3   OH241031   3.671   0.154  11.411  0.1276  0.0091 -0.3873
 6539TIP3    H141032   3.695   0.241  11.440 -0.4599 -0.0352  0.2604
 6539TIP3    H241033   3.682   0.099  11.489 -1.7470 -0.0591 -0.1075
 6540TIP3   OH241034   2.310   1.483  14.488 -0.1268 -0.3448 -0.4987
 6540TIP3    H141035   2.251   1.434  14.546  0.5307 -1.1441 -0.4902
 6540TIP3    H241036   2.379   1.421  14.465 -0.5695 -0.1931 -2.4658
 6541TIP3   OH241037   0.987   4.498   0.878  1.1011  0.0809  0.5648
 6541TIP3    H141038   0.975   4.590   0.853  2.5563 -0.0569 -0.7612
 6541TIP3    H241039   1.025   4.503   0.966  1.4429  0.7595  0.3910
 6542TIP3   OH241040   2.360   4.597   1.285  0.4834  0.4562 -0.1657
 6542TIP3    H141041   2.329   4.615   1.374 -0.0943 -1.1999  0.0083
 6542TIP3    H241042   2.282   4.603   1.230  0.3753 -0.7838 -0.1813
 6543TIP3   OH241043   1.674   5.108  16.414  0.2525  0.0035  0.0728
 6543TIP3    H141044   1.691   5.177  16.477 -1.3275 -0.4162  0.9956
 6543TIP3    H241045   1.662   5.029  16.467  1.1038 -0.8167 -0.9007
 6544TIP3   OH241046   2.620   4.490   1.954  0.5807  0.6569 -0.3262
 6544TIP3    H141047   2.652   4.572   1.917  1.0597  0.4291 -0.4235
 6544TIP3    H241048   2.585   4.442   1.879 -0.1547  0.9763 -0.1948
 6545TIP3   OH241049   5.115   2.522  16.748 -0.0042  0.4762 -0.4041
 6545TIP3    H141050   5.141   2.574  16.825  0.4427  1.5519 -1.2469
 6545TIP3    H241051   5.183   2.455  16.740 -0.1926  0.1990  0.2835
 6546TIP3   OH241052   5.302   1.547  17.237  0.1026 -0.5657  0.5438
 6546TIP3    H141053   5.319   1.584  17.324 -0.1261  0.0025  0.3492
 6546TIP3    H241054   5.235   1.604  17.199  0.5502 -0.5114 -0.1968
 6547TIP3   OH241055   1.129   0.909  15.641 -0.2852  0.0850  0.3864
 6547TIP3    H141056   1.052   0.889  15.694 -0.5574 -1.7896 -0.6320
 6547TIP3    H241057   1.118   0.856  15.562  2.0007 -0.1776  0.1828
 6548TIP3   OH241058   0.275   0.414  13.207  0.8567  0.2171 -0.0877
 6548TIP3    H141059   0.218   0.446  13.137  0.1359  0.0592  0.4168
 6548TIP3    H241060   0.309   0.493  13.248  1.1248  0.3115 -0.4779
 6549TIP3   OH241061   0.581   6.550   4.830  0.4586  0.7807  0.2796
 6549TIP3    H141062   0.632   6.585   4.758 -1.0727  2.6091  0.0213
 6549TIP3    H241063   0.556   6.462   4.802  0.6967  1.1073 -0.9915
 6550TIP3   OH241064   4.169   6.195  14.826 -0.3573 -0.1712  0.3754
 6550TIP3    H141065   4.169   6.120  14.767 -2.2290 -0.5779  0.8233
 6550TIP3    H241066   4.122   6.264  14.778  0.3759  0.3485  0.3963
 6551TIP3   OH241067   6.206   1.322   6.028 -0.0783  0.2563  0.0153
 6551TIP3    H141068   6.152   1.309   6.106  0.7959  1.3830  0.8437
 6551TIP3    H241069   6.144   1.319   5.955 -1.3423  1.8719  0.9600
 6552TIP3   OH241070   1.150   6.316   2.855 -0.7794  0.3067  0.1870
 6552TIP3    H141071   1.090   6.337   2.926 -0.7802  0.8622  0.0281
 6552TIP3    H241072   1.223   6.271   2.897 -1.8435 -1.4460  0.2300
 6553TIP3   OH241073   0.885   4.811  12.646  0.0410 -0.2199 -0.2482
 6553TIP3    H141074   0.918   4.882  12.701  1.4674  0.6299 -2.1117
 6553TIP3    H241075   0.933   4.734  12.676  1.2675  0.3575 -0.6809
 6554TIP3   OH241076   3.741   4.236   1.666 -0.1853  0.4280  0.1685
 6554TIP3    H141077   3.808   4.178   1.700 -0.3992  0.3110  0.3888
 6554TIP3    H241078   3.764   4.249   1.574 -1.3425 -1.7378 -0.4831
 6555TIP3   OH241079   2.625   2.577   1.612 -0.2288  0.1882 -0.2173
 6555TIP3    H141080   2.670   2.612   1.689  0.3659 -1.4079  0.1940
 6555TIP3    H241081   2.557   2.642   1.593 -1.8863 -0.3985  3.0077
 6556TIP3   OH241082   0.083   4.084  16.098 -0.3102  0.1206 -0.4728
 6556TIP3    H141083   0.079   4.159  16.040  0.2795 -0.5782 -1.4609
 6556TIP3    H241084   0.155   4.103  16.158 -0.3489  0.4691 -0.5401
 6557TIP3   OH241085   6.702   0.650   4.694  0.4006  0.1389 -0.0075
 6557TIP3    H141086   6.645   0.596   4.640  0.9338  0.1569 -0.5990
 6557TIP3    H241087   6.772   0.678   4.635  0.7267  0.5668  0.5677
 6558TIP3   OH241088   6.072   2.837  15.193  0.2135 -0.0254 -0.1871
 6558TIP3    H141089   5.996   2.841  15.135  0.3110 -0.0146 -0.3152
 6558TIP3    H241090   6.038   2.866  15.278  0.8371  3.7328 -1.0246
 6559TIP3   OH241091   4.116   1.139   4.046  0.1175  0.5012  0.7311
 6559TIP3    H141092   4.190   1.104   4.096  0.4733  1.1223  0.6392
 6559TIP3    H241093   4.156   1.193   3.978 -0.3284 -0.6810 -0.5292
 6560TIP3   OH241094   1.677   2.954   3.126  0.3236  0.0366  0.3604
 6560TIP3    H141095   1.647   3.044   3.110  2.0297  0.3472 -1.4718
 6560TIP3    H241096   1.773   2.960   3.123  0.4612 -1.9246 -0.2986
 6561TIP3   OH241097   6.149   5.373  12.328  0.2020 -0.2560 -0.1006
 6561TIP3    H141098   6.107   5.454  12.297 -1.4880 -0.5712  1.2072
 6561TIP3    H241099   6.076   5.319  12.360  1.5146 -1.2928  1.2795
 6562TIP3   OH241100   1.594   4.399   1.679  0.0848 -0.4549 -0.1765
 6562TIP3    H141101   1.660   4.380   1.746  1.0472 -2.2713 -1.5683
 6562TIP3    H241102   1.624   4.481   1.640  0.0568  0.1055  0.9334
 6563TIP3   OH241103   4.029   2.744  13.561  0.7782 -0.0763 -0.1190
 6563TIP3    H141104   4.087   2.820  13.572 -0.1321  0.4051  1.7391
 6563TIP3    H241105   4.016   2.710  13.650 -3.0280  0.8245 -0.1375
 6564TIP3   OH241106   1.750   5.663  16.074  0.2053 -0.3231  0.2687
 6564TIP3    H141107   1.770   5.754  16.096  0.0858 -0.7927  2.5920
 6564TIP3    H241108   1.684   5.668  16.005  0.8549  1.3239 -0.2626
 6565TIP3   OH241109   2.058   3.056  15.737  0.3213 -0.1252 -0.1005
 6565TIP3    H141110   2.084   3.071  15.646 -1.1897 -1.0136 -0.7182
 6565TIP3    H241111   1.966   3.084  15.740  0.9951  2.2821  1.8011
 6566TIP3   OH241112   4.132   5.723   3.529 -0.0554  0.0479 -0.6442
 6566TIP3    H141113   4.207   5.663   3.538 -0.1041  0.0347 -0.3365
 6566TIP3    H241114   4.065   5.671   3.484 -1.3974 -1.2983  2.6291
 6567TIP3   OH241115   4.035   1.168  16.941 -0.7424  0.5053 -0.1592
 6567TIP3    H141116   4.044   1.190  16.848 -0.9069 -2.0122 -0.8638
 6567TIP3    H241117   4.085   1.087  16.951  0.0211  1.1902  2.1870
 6568TIP3   OH241118   4.870   5.839  11.926 -0.1701  0.2368 -0.3110
 6568TIP3    H141119   4.786   5.878  11.948 -0.1350 -0.6494  1.6182
 6568TIP3    H241120   4.933   5.884  11.983 -0.1117 -2.3563  1.8882
 6569TIP3   OH241121   3.183   5.641  14.404 -0.7240  0.6840 -0.5910
 6569TIP3    H141122   3.163   5.712  14.465 -1.0640  0.9249 -0.9806
 6569TIP3    H241123   3.150   5.562  14.447 -1.6074  0.9422 -0.7719
 6570TIP3   OH241124   0.693   1.275  11.383  0.6741  0.3272  0.3116
 6570TIP3    H141125   0.718   1.257  11.292  1.0671  0.1867  0.4452
 6570TIP3    H241126   0.718   1.197  11.431 -0.5086 -0.0224  0.3711
 6571TIP3   OH241127   5.624   4.390   4.697 -0.0980 -0.5444 -0.1087
 6571TIP3    H141128   5.629   4.428   4.785 -0.4593 -1.9261  0.5485
 6571TIP3    H241129   5.533   4.403   4.670  0.0510  0.0182 -0.3571
 6572TIP3   OH241130   4.233   0.812  11.707 -0.5586 -0.6236 -0.1731
 6572TIP3    H141131   4.173   0.836  11.637  1.3023 -2.5604 -2.6110
 6572TIP3    H241132   4.285   0.740  11.671  1.2095 -1.0585  2.8666
 6573TIP3   OH241133   3.663   0.740   1.406  0.0094  0.1055  0.2000
 6573TIP3    H141134   3.627   0.827   1.423  0.5163  0.2192  0.7057
 6573TIP3    H241135   3.639   0.722   1.315  1.0921  1.3657 -0.3615
 6574TIP3   OH241136   2.364   4.075   1.615 -0.7576 -0.3973 -0.2287
 6574TIP3    H141137   2.288   4.124   1.582  0.1408  2.2633  1.3898
 6574TIP3    H241138   2.345   4.061   1.708 -0.5854 -2.4962 -0.4549
 6575TIP3   OH241139   6.177   0.793  15.477 -0.4657  0.2484 -0.2577
 6575TIP3    H141140   6.124   0.762  15.550 -0.0358 -0.1085 -0.0918
 6575TIP3    H241141   6.223   0.869  15.511 -2.0884  1.5676 -0.8874
 6576TIP3   OH241142   3.134   2.545  14.246  0.2444  0.7532  0.0217
 6576TIP3    H141143   3.074   2.508  14.311  0.0362  0.8429 -0.1206
 6576TIP3    H241144   3.200   2.589  14.299  0.0348  0.8891  0.1737
 6577TIP3   OH241145   1.752   1.045   4.632  0.0892 -0.2987  0.1304
 6577TIP3    H141146   1.800   0.962   4.636 -0.7682 -0.7910  0.5732
 6577TIP3    H241147   1.666   1.024   4.669  0.0239  0.9095  0.7100
 6578TIP3   OH241148   0.545   6.639   0.484  0.3400 -0.3214 -0.0951
 6578TIP3    H141149   0.521   6.662   0.574 -0.5077 -0.7864 -0.1951
 6578TIP3    H241150   0.618   6.698   0.464 -0.6671  1.0986  0.2505
 6579TIP3   OH241151   0.045   2.665  13.444 -0.0815  0.0369  0.2781
 6579TIP3    H141152   0.105   2.682  13.372  0.2212  1.9601  0.9320
 6579TIP3    H241153   0.040   2.569  13.449  1.5954 -0.1563 -0.8707
 6580TIP3   OH241154   4.876   0.013  14.131  0.0185 -0.0586  0.1231
 6580TIP3    H141155   4.870   0.108  14.144 -0.2651  0.3030 -2.2233
 6580TIP3    H241156   4.819  -0.024  14.198 -0.3143  1.4557  0.7205
 6581TIP3   OH241157   3.576   1.241   2.905 -0.0587 -0.3422 -0.3014
 6581TIP3    H141158   3.535   1.172   2.957  1.8999 -1.8953 -0.6781
 6581TIP3    H241159   3.574   1.318   2.962 -0.5347 -1.2412  0.9462
 6582TIP3   OH241160   3.571   1.447  15.043 -0.6745  0.1334  0.4288
 6582TIP3    H141161   3.514   1.374  15.069 -0.1084 -0.8537 -1.0052
 6582TIP3    H241162   3.529   1.484  14.966 -0.8630  1.2391  1.0478
 6583TIP3   OH241163   3.772   0.225   4.579 -0.1451  0.2497  0.5038
 6583TIP3    H141164   3.753   0.231   4.485 -1.0483  1.3472  0.7355
 6583TIP3    H241165   3.866   0.211   4.584 -0.1224 -0.0792 -0.5708
 6584TIP3   OH241166   0.677   5.067   3.301  0.6761 -0.3423 -0.8228
 6584TIP3    H141167   0.693   5.078   3.208  1.7855 -0.9767 -0.7288
 6584TIP3    H241168   0.703   4.976   3.319 -1.0951 -0.7569 -0.2062
 6585TIP3   OH241169   6.752   5.549  15.254 -0.1839 -0.2938 -0.0091
 6585TIP3    H141170   6.814   5.580  15.188 -0.7870 -0.0067 -0.4439
 6585TIP3    H241171   6.782   5.590  15.336  0.4651 -0.5203 -0.1301
 6586TIP3   OH241172   1.059   4.296  16.362  0.4664  0.8170 -0.2554
 6586TIP3    H141173   0.989   4.357  16.387  0.2095  0.1362  0.7683
 6586TIP3    H241174   1.126   4.351  16.322  0.8955  2.0177  1.9658
 6587TIP3   OH241175   0.801   6.334  12.114  0.5062  0.2282 -1.0740
 6587TIP3    H141176   0.863   6.261  12.110  0.3141  0.0230 -0.4654
 6587TIP3    H241177   0.758   6.334  12.029 -0.8066 -1.5461 -0.4717
 6588TIP3   OH241178   0.334   4.580  12.012  0.1124 -0.0049  0.1937
 6588TIP3    H141179   0.372   4.517  12.073 -0.9679 -0.2114  0.6812
 6588TIP3    H241180   0.296   4.648  12.068 -1.5701 -0.5814 -0.1690
 6589TIP3   OH241181   6.180   1.553  12.781 -0.0926  0.0060  0.1918
 6589TIP3    H141182   6.275   1.547  12.769  0.0948  3.6220 -1.6021
 6589TIP3    H241183   6.145   1.480  12.731  1.6613 -2.8324  2.7679
 6590TIP3   OH241184   1.460   0.087   4.653  0.1590 -0.4064  0.6668
 6590TIP3    H141185   1.444   0.122   4.741  0.5394  0.9642  0.2188
 6590TIP3    H241186   1.386   0.118   4.601  1.0399  0.7299  0.0135
 6591TIP3   OH241187   1.151   2.298  15.506 -0.1476  0.4041 -0.3456
 6591TIP3    H141188   1.093   2.298  15.582  1.0765  0.1885  0.6048
 6591TIP3    H241189   1.102   2.248  15.440 -0.9206 -0.0300  0.5295
 6592TIP3   OH241190   1.465   3.302   5.776 -0.1702  0.1841 -1.1025
 6592TIP3    H141191   1.391   3.264   5.823 -1.3012  0.8145 -2.3041
 6592TIP3    H241192   1.518   3.344   5.845 -2.1699  1.7326 -0.4062
 6593TIP3   OH241193   0.089   6.366   2.690  0.0295  0.1268  0.5612
 6593TIP3    H141194   0.140   6.429   2.739  0.5205 -2.1926  3.2810
 6593TIP3    H241195   0.006   6.359   2.738 -1.7097  1.5336 -1.9963
 6594TIP3   OH241196   4.311   4.179  12.661  0.2601 -0.1950  0.2169
 6594TIP3    H141197   4.290   4.089  12.636 -1.0480 -0.5788  2.3883
 6594TIP3    H241198   4.236   4.231  12.630  0.4757 -0.0439 -0.0501
 6595TIP3   OH241199   5.966   3.831   1.283  0.6307  0.6500  0.3421
 6595TIP3    H141200   5.947   3.738   1.294  0.5068  0.5924 -0.3804
 6595TIP3    H241201   5.930   3.854   1.198 -1.5170  1.9440  1.5002
 6596TIP3   OH241202   6.366   3.315   5.195 -0.0796 -0.8592 -0.5884
 6596TIP3    H141203   6.455   3.348   5.185  0.1336 -1.4383 -0.6511
 6596TIP3    H241204   6.377   3.220   5.208 -0.6374 -0.8124  0.2972
 6597TIP3   OH241205   1.489   4.837   4.806 -0.3700 -0.4575 -0.2203
 6597TIP3    H141206   1.583   4.853   4.816 -0.7948  2.1645  0.3293
 6597TIP3    H241207   1.464   4.789   4.885  0.3189 -0.1256  0.2117
 6598TIP3   OH241208   2.213   2.945  16.476 -0.2650  0.1239 -0.6791
 6598TIP3    H141209   2.184   3.032  16.506 -0.5875 -0.3819  0.5311
 6598TIP3    H241210   2.269   2.913  16.546 -2.5757 -1.9115  0.3907
 6599TIP3   OH241211   3.706   4.062  14.715  0.1042  0.6743 -0.7641
 6599TIP3    H141212   3.672   3.972  14.718 -1.8564  1.3404 -1.1971
 6599TIP3    H241213   3.770   4.066  14.785 -0.4117 -0.8286 -0.1598
 6600TIP3   OH241214   3.482   0.009   2.412  0.2603  0.1772  0.2913
 6600TIP3    H141215   3.561  -0.041   2.393 -0.6939 -1.5993  0.7093
 6600TIP3    H241216   3.431   0.003   2.331  0.3952  1.0001  0.1436
 6601TIP3   OH241217   0.402   6.294   6.085 -0.6360  0.1819 -0.1300
 6601TIP3    H141218   0.410   6.230   6.156 -0.9449  1.2352  0.8755
 6601TIP3    H241219   0.490   6.328   6.072 -0.5840  0.0067 -0.2402
 6602TIP3   OH241220   2.066   1.782  16.793 -0.0349  0.2170  0.1789
 6602TIP3    H141221   2.035   1.759  16.705  0.6267  0.7072 -0.1979
 6602TIP3    H241222   2.155   1.815  16.779  0.9832 -1.8873  1.3190
 6603TIP3   OH241223   4.430   3.699   0.685  0.0721 -0.2703  0.1683
 6603TIP3    H141224   4.343   3.736   0.672  0.3926  0.3986 -0.1715
 6603TIP3    H241225   4.487   3.754   0.631  0.7974 -0.2656  0.9190
 6604TIP3   OH241226   4.531   2.828   3.199 -0.1079 -0.3373 -0.2819
 6604TIP3    H141227   4.445   2.868   3.195  1.4173  3.2715 -2.8025
 6604TIP3    H241228   4.592   2.902   3.209  2.7797 -2.5644  0.1179
 6605TIP3   OH241229   2.385   0.269   4.764 -0.4398 -0.4267 -0.0956
 6605TIP3    H141230   2.343   0.201   4.816 -1.8281  0.7061  0.3265
 6605TIP3    H241231   2.395   0.342   4.824  1.7421 -0.4717 -0.3223
 6606TIP3   OH241232   5.783   3.973   1.977  0.1946  0.0312 -0.3590
 6606TIP3    H141233   5.790   3.957   2.071  3.6646  0.2354 -0.4483
 6606TIP3    H241234   5.826   4.057   1.964  2.8841 -1.5115 -2.4240
 6607TIP3   OH241235   4.818   0.958   1.481  0.3982 -0.4542  0.1554
 6607TIP3    H141236   4.786   0.906   1.554 -0.1440 -1.2084 -0.6112
 6607TIP3    H241237   4.896   0.911   1.450 -0.3269 -1.0548 -0.7978
 6608TIP3   OH241238   0.888   0.072  15.191 -0.3277 -0.2686  0.3467
 6608TIP3    H141239   0.921  -0.008  15.233  0.4377  0.2720  0.7820
 6608TIP3    H241240   0.861   0.128  15.263  2.4356  1.3098  0.2679
 6609TIP3   OH241241   3.304   5.907   2.758 -0.4460 -0.0041 -0.6792
 6609TIP3    H141242   3.267   5.988   2.793 -3.3234 -1.2046 -0.6790
 6609TIP3    H241243   3.350   5.867   2.832  1.5186  1.8227 -0.8338
 6610TIP3   OH241244   0.339   6.096   0.110  0.4084  0.1641 -0.3008
 6610TIP3    H141245   0.411   6.154   0.136  1.1441 -0.8319 -0.0542
 6610TIP3    H241246   0.333   6.031   0.181 -1.8067  1.1323  0.4837
 6611TIP3   OH241247   2.517   1.567  12.813 -0.5276  0.5434  0.3548
 6611TIP3    H141248   2.464   1.588  12.736  2.4437  0.4720 -1.9082
 6611TIP3    H241249   2.495   1.635  12.877 -0.8298  2.5614 -1.7768
 6612TIP3   OH241250   2.283   6.764   5.600  0.0683 -0.2111 -0.6518
 6612TIP3    H141251   2.355   6.727   5.652  0.7056  1.4213 -0.2802
 6612TIP3    H241252   2.258   6.695   5.540  3.0592 -0.3560 -1.9071
 6613TIP3   OH241253   1.338   5.006  14.578 -0.0166  0.2632  0.0868
 6613TIP3    H141254   1.404   4.965  14.635 -0.5178 -0.3295  0.2493
 6613TIP3    H241255   1.336   5.098  14.606  0.2184  0.1254  0.5731
 6614TIP3   OH241256   1.265   2.002  12.936  0.1960 -0.4779 -0.1145
 6614TIP3    H141257   1.260   2.048  12.852  2.6216  1.2942  0.6071
 6614TIP3    H241258   1.354   1.968  12.940  0.0388 -0.7919  1.6262
 6615TIP3   OH241259   1.058   5.138  12.667 -0.1229 -0.6096 -0.6543
 6615TIP3    H141260   1.043   5.093  12.750 -0.7691  0.3773 -0.2263
 6615TIP3    H241261   1.144   5.180  12.677 -1.2775  1.6316  0.5277
 6616TIP3   OH241262   6.052   3.601   2.802  0.1266  0.6169 -0.3694
 6616TIP3    H141263   5.988   3.581   2.870  2.1085  1.7600  1.9402
 6616TIP3    H241264   6.069   3.516   2.761  0.6613 -0.6110  2.2112
 6617TIP3   OH241265   2.391   3.498  16.499  0.1060 -0.0100  0.0263
 6617TIP3    H141266   2.382   3.578  16.446  2.7661  0.0267 -0.4895
 6617TIP3    H241267   2.401   3.428  16.435  0.5945 -0.3558  0.4807
 6618TIP3   OH241268   4.331   5.829  14.796  0.6000  0.3022  0.1253
 6618TIP3    H141269   4.314   5.810  14.704 -0.3134  1.9145 -0.0875
 6618TIP3    H241270   4.421   5.863  14.798  0.5603  0.4256 -0.2047
 6619TIP3   OH241271   0.084   4.584  15.948  0.0701  0.1880  0.1296
 6619TIP3    H141272   0.019   4.572  16.017  0.6447 -0.3004  0.5963
 6619TIP3    H241273   0.119   4.672  15.964  0.9753 -0.3310  1.1507
 6620TIP3   OH241274   0.620   0.661   2.958 -0.3465  0.5587  0.1080
 6620TIP3    H141275   0.572   0.646   3.039 -2.2867 -0.7709 -1.1842
 6620TIP3    H241276   0.596   0.750   2.931  0.2929  0.9950  0.9452
 6621TIP3   OH241277   0.082   6.567   5.781  0.1051 -0.1455  0.0420
 6621TIP3    H141278   0.120   6.513   5.850 -2.3766 -1.1471  0.7274
 6621TIP3    H241279   0.027   6.630   5.827  0.6677  1.0702 -0.9079
 6622TIP3   OH241280   6.399   1.561   5.119 -0.4048 -0.0013  0.0462
 6622TIP3    H141281   6.487   1.535   5.093 -1.0772 -3.2209  0.5487
 6622TIP3    H241282   6.345   1.541   5.043 -0.7283  2.3427 -0.4138
 6623TIP3   OH241283   3.501   1.614   2.526 -0.0520 -0.5432  0.1111
 6623TIP3    H141284   3.483   1.523   2.505  2.5816 -1.2020  0.3314
 6623TIP3    H241285   3.596   1.617   2.540  0.1452  2.4739 -1.1505
 6624TIP3   OH241286   5.220   1.113   4.491 -0.3584 -0.1674 -0.5105
 6624TIP3    H141287   5.222   1.109   4.395 -1.2627  0.1238 -0.5470
 6624TIP3    H241288   5.292   1.171   4.514 -0.6042  0.3591 -1.0519
 6625TIP3   OH241289   4.839   2.519  11.972 -0.3431  0.1639 -0.0422
 6625TIP3    H141290   4.848   2.560  12.058  0.3368 -1.2102  0.5755
 6625TIP3    H241291   4.909   2.455  11.969 -0.3015  0.2486 -1.6807
 6626TIP3   OH241292   1.813   3.660   0.486  0.3754 -0.1791  0.0774
 6626TIP3    H141293   1.883   3.719   0.516 -0.9040  0.5278  1.8289
 6626TIP3    H241294   1.751   3.717   0.441 -0.5252 -0.2879  1.1548
 6627TIP3   OH241295   6.056   4.548   1.282 -0.4101 -0.1353 -0.6777
 6627TIP3    H141296   6.057   4.616   1.350 -3.2012 -0.5427 -0.1305
 6627TIP3    H241297   6.143   4.508   1.288  0.6636  2.1458  0.2278
 6628TIP3   OH241298   2.925   1.886   5.466  0.4971 -0.2492 -0.4881
 6628TIP3    H141299   2.877   1.835   5.401 -1.0507 -0.4692  0.7861
 6628TIP3    H241300   2.897   1.850   5.550  1.8999  0.5204  0.3408
 6629TIP3   OH241301   4.621   5.915  13.559 -0.4579 -0.6779 -0.1673
 6629TIP3    H141302   4.706   5.872  13.561 -0.2506 -0.3055 -0.6653
 6629TIP3    H241303   4.596   5.924  13.651 -0.6208 -2.0713 -0.0504
 6630TIP3   OH241304   4.195   2.893   0.543  0.2669  0.0277  0.4452
 6630TIP3    H141305   4.173   2.895   0.636 -1.7014  1.1131  0.0076
 6630TIP3    H241306   4.228   2.981   0.524  0.6721 -0.1900  0.0915
 6631TIP3   OH241307   3.695   4.913  14.687 -0.0316  0.2955  0.3734
 6631TIP3    H141308   3.620   4.971  14.675 -0.6812 -0.8935 -1.8537
 6631TIP3    H241309   3.771   4.967  14.662 -0.4124  0.7603  0.2070
 6632TIP3   OH241310   2.808   4.600  12.561 -0.2398 -0.2512 -0.0623
 6632TIP3    H141311   2.856   4.574  12.639 -0.0636  0.1673 -0.0269
 6632TIP3    H241312   2.742   4.532  12.549  0.4896 -0.9416 -0.2270
 6633TIP3   OH241313   2.916   2.042   0.726 -0.1021 -0.6666 -0.1983
 6633TIP3    H141314   2.894   1.952   0.749 -0.5034 -0.9853 -1.7054
 6633TIP3    H241315   3.011   2.043   0.719 -0.0893 -0.9487 -0.0695
 6634TIP3   OH241316   4.431   5.031   3.412 -0.7302 -0.1605 -0.3553
 6634TIP3    H141317   4.455   5.000   3.499  2.1451  0.5358 -0.8036
 6634TIP3    H241318   4.426   5.127   3.422  0.4775  0.0008 -1.0869
 6635TIP3   OH241319   6.185   1.074  16.789  0.7244 -0.1084  0.3393
 6635TIP3    H141320   6.097   1.064  16.751  0.8114  0.5690 -0.0478
 6635TIP3    H241321   6.227   1.141  16.736  1.1049  0.3471  1.2007
 6636TIP3   OH241322   4.519   3.372   3.305  0.2922  0.2185  0.1202
 6636TIP3    H141323   4.439   3.325   3.282  0.8870 -0.8710  0.2013
 6636TIP3    H241324   4.500   3.411   3.390 -0.2771  0.2754 -0.0278
 6637TIP3   OH241325   3.386   5.670   2.592  0.1984  0.2514 -0.1140
 6637TIP3    H141326   3.385   5.733   2.663  0.3950  1.7726 -1.3938
 6637TIP3    H241327   3.476   5.675   2.557  0.7338 -1.9775  0.7691
 6638TIP3   OH241328   4.969   1.270   1.413  0.0201  0.2733  0.0290
 6638TIP3    H141329   5.004   1.358   1.431  0.1552  0.8168 -2.5094
 6638TIP3    H241330   5.033   1.211   1.453  0.2121  1.3164  1.3228
 6639TIP3   OH241331   0.390   2.795   1.428  0.0084 -0.7516 -0.7204
 6639TIP3    H141332   0.339   2.853   1.372 -2.0451 -1.3199  0.4606
 6639TIP3    H241333   0.369   2.707   1.397 -2.2977 -1.1644  1.7053
 6640TIP3   OH241334   3.236   5.442   0.233  0.0690  0.4466  0.1204
 6640TIP3    H141335   3.178   5.505   0.192 -1.0138 -0.4079  0.3010
 6640TIP3    H241336   3.178   5.375   0.270  1.1468 -0.3481  0.4499
 6641TIP3   OH241337   3.903   4.421  12.760  0.1428 -0.1319 -0.1082
 6641TIP3    H141338   3.947   4.370  12.692  0.6710 -0.5932  0.5660
 6641TIP3    H241339   3.972   4.444  12.822 -0.3559  0.1535  0.3522
 6642TIP3   OH241340   4.584   3.214   6.803 -0.2285 -0.1225  0.5806
 6642TIP3    H141341   4.621   3.302   6.807 -1.4111  0.3824  0.6851
 6642TIP3    H241342   4.644   3.165   6.746 -0.2161  1.0581 -0.4468
 6643TIP3   OH241343   0.934   6.708  13.089 -0.2052 -0.0555  0.3730
 6643TIP3    H141344   1.017   6.731  13.130 -1.2351  0.4222  2.3327
 6643TIP3    H241345   0.879   6.678  13.161 -2.1367  0.8226 -0.6361
 6644TIP3   OH241346   4.961   1.535  13.470 -0.6364  0.2388  0.1105
 6644TIP3    H141347   4.958   1.568  13.380 -0.1158 -0.2773 -0.0934
 6644TIP3    H241348   4.870   1.510  13.489 -0.2895 -2.4939 -1.3421
 6645TIP3   OH241349   6.182   1.409  11.453 -0.3560  0.2473  0.1486
 6645TIP3    H141350   6.226   1.325  11.467 -1.2981 -0.1663  0.6633
 6645TIP3    H241351   6.145   1.402  11.364 -0.7980 -0.0543  0.3533
 6646TIP3   OH241352   5.267   2.720   3.513 -0.0049  0.1941 -0.2251
 6646TIP3    H141353   5.254   2.730   3.419  0.8056 -0.6501 -0.4378
 6646TIP3    H241354   5.179   2.704   3.548 -0.3014  0.4888 -0.8324
 6647TIP3   OH241355   4.220   4.882   2.539 -0.3958 -0.0166 -0.2203
 6647TIP3    H141356   4.213   4.786   2.537 -0.7819 -0.0176  0.5335
 6647TIP3    H241357   4.307   4.899   2.575 -0.3719 -0.0879 -0.2439
 6648TIP3   OH241358   4.495   1.299  15.868  0.1248  0.6183  0.7779
 6648TIP3    H141359   4.456   1.332  15.787 -0.0938  0.5642  0.8604
 6648TIP3    H241360   4.589   1.319  15.859  0.3375 -0.6920 -0.1303
 6649TIP3   OH241361   5.334   5.831   3.712  0.3507 -0.3782 -1.1294
 6649TIP3    H141362   5.342   5.807   3.804 -0.2131  0.0030 -0.9771
 6649TIP3    H241363   5.340   5.926   3.711 -1.0500 -0.2715 -1.3220
 6650TIP3   OH241364   3.103   4.462   3.067 -0.2161  0.0339  0.6762
 6650TIP3    H141365   3.052   4.387   3.037 -0.9270  0.3993  0.9359
 6650TIP3    H241366   3.184   4.425   3.102  0.5159 -0.4322 -1.3669
 6651TIP3   OH241367   2.268   4.529   0.893 -0.6955 -0.0892  0.1729
 6651TIP3    H141368   2.226   4.449   0.861  0.4678 -0.2089 -1.1563
 6651TIP3    H241369   2.360   4.505   0.905 -0.7612  0.4488  2.0312
 6652TIP3   OH241370   6.265   1.886  14.597  0.2106  0.3020  0.4403
 6652TIP3    H141371   6.206   1.961  14.600  0.6709  0.6408  2.0780
 6652TIP3    H241372   6.347   1.919  14.634 -0.2461 -1.5254  3.3740
 6653TIP3   OH241373   3.545   4.776  12.432  0.1538  0.1672 -0.3756
 6653TIP3    H141374   3.615   4.821  12.384  0.7055 -0.2086  0.0545
 6653TIP3    H241375   3.574   4.777  12.523 -1.0895  1.2537  0.0319
 6654TIP3   OH241376   4.591   6.077  13.164  0.4112  0.3151  0.3224
 6654TIP3    H141377   4.517   6.051  13.219 -1.0373  1.1240 -1.1477
 6654TIP3    H241378   4.584   6.021  13.086  1.6677  0.0653  0.3574
 6655TIP3   OH241379   1.453   1.147   5.896 -0.4027  0.3633  0.1181
 6655TIP3    H141380   1.544   1.172   5.910 -0.4728  0.1708  0.9897
 6655TIP3    H241381   1.409   1.228   5.873  0.3084  0.1789 -2.1820
 6656TIP3   OH241382   6.098   5.265   0.018  0.2172  0.5680 -0.5113
 6656TIP3    H141383   6.008   5.281  -0.011  0.3702  1.6540 -0.4340
 6656TIP3    H241384   6.088   5.229   0.106 -0.1681 -0.2454 -0.8788
 6657TIP3   OH241385   1.874   0.802   4.640  0.5043 -0.1407  0.4593
 6657TIP3    H141386   1.962   0.770   4.617 -0.4923 -2.2722 -0.7129
 6657TIP3    H241387   1.839   0.736   4.699 -0.2708  0.7918  1.0732
 6658TIP3   OH241388   3.540   0.215  15.428 -0.0386  0.1058  0.0574
 6658TIP3    H141389   3.600   0.141  15.426 -0.9512 -0.7231  1.3254
 6658TIP3    H241390   3.593   0.290  15.401  1.1908 -0.8277 -0.2085
 6659TIP3   OH241391   6.328   4.685   0.085  0.3128 -0.4638 -0.2565
 6659TIP3    H141392   6.360   4.599   0.110  1.1306 -0.4661 -1.2645
 6659TIP3    H241393   6.233   4.674   0.076  0.4497 -1.3377 -0.6802
 6660TIP3   OH241394   5.402   1.349  13.359  0.5857 -0.1315  0.9142
 6660TIP3    H141395   5.382   1.300  13.438 -0.4041  0.5491  1.1054
 6660TIP3    H241396   5.463   1.294  13.311  0.0620 -1.2107  1.4669
 6661TIP3   OH241397   6.434   0.305   5.998  0.6740  0.1331  0.2513
 6661TIP3    H141398   6.504   0.347   6.048 -0.3425  0.2806  1.6142
 6661TIP3    H241399   6.441   0.212   6.020  1.6091 -0.1473 -1.1179
 6662TIP3   OH241400   6.734   4.671  11.107  0.1913  0.2061 -0.2154
 6662TIP3    H141401   6.719   4.661  11.013  1.7937 -0.5290 -0.4188
 6662TIP3    H241402   6.659   4.723  11.138 -1.0376 -0.6346 -1.6526
 6663TIP3   OH241403   5.659   0.984  13.057  0.0751 -0.2338  0.6446
 6663TIP3    H141404   5.669   0.891  13.035  1.8568  0.2533 -0.7891
 6663TIP3    H241405   5.748   1.016  13.068 -0.1515  2.2074 -3.0018
 6664TIP3   OH241406   1.310   5.669  12.502 -0.1867 -0.5865 -0.2297
 6664TIP3    H141407   1.299   5.721  12.582  0.2558  0.2381 -0.6884
 6664TIP3    H241408   1.403   5.679  12.479 -0.4491 -0.2545 -1.2103
 6665TIP3   OH241409   2.878   6.733  13.128 -0.2797  0.6157 -0.2474
 6665TIP3    H141410   2.836   6.708  13.210 -2.4374  2.0021 -0.8502
 6665TIP3    H241411   2.910   6.822  13.142  1.4271  0.0417 -0.2197
 6666TIP3   OH241412   2.255   5.987   4.727  0.0864 -0.0905  0.3333
 6666TIP3    H141413   2.329   5.962   4.673  0.3677  1.0000  0.1813
 6666TIP3    H241414   2.247   6.082   4.715 -1.6352 -0.2362 -0.0445
 6667TIP3   OH241415   3.550   3.351  11.349  0.5873 -0.7762 -0.0915
 6667TIP3    H141416   3.604   3.376  11.425 -1.5098  0.7537  0.9841
 6667TIP3    H241417   3.536   3.433  11.302  0.6713 -1.4768 -1.3639
 6668TIP3   OH241418   2.483   0.369  12.497 -0.2497 -0.4618  0.7177
 6668TIP3    H141419   2.532   0.386  12.577 -0.7432  1.7711  0.5918
 6668TIP3    H241420   2.391   0.375  12.523 -0.4518 -1.2893  0.2672
 6669TIP3   OH241421   0.139   0.233  11.498  0.5132  0.0350  0.1487
 6669TIP3    H141422   0.213   0.204  11.553 -0.1353  1.2775  1.7747
 6669TIP3    H241423   0.085   0.155  11.488  0.4198 -0.1392  1.7138
 6670TIP3   OH241424   2.691   1.430  16.065  0.1089  0.2204 -0.3215
 6670TIP3    H141425   2.762   1.366  16.072 -0.3358 -0.2480 -0.0161
 6670TIP3    H241426   2.629   1.405  16.134 -0.6356  0.2623 -0.9571
 6671TIP3   OH241427   6.489   5.251   0.012  0.2661  0.2534 -0.5307
 6671TIP3    H141428   6.544   5.208  -0.053 -0.6866 -1.1337 -0.4823
 6671TIP3    H241429   6.423   5.297  -0.040  1.0607  1.3820 -0.5738
 6672TIP3   OH241430   0.524   4.340  11.720 -0.1979 -0.6826 -0.4581
 6672TIP3    H141431   0.593   4.398  11.688 -0.3915  0.4406  1.0143
 6672TIP3    H241432   0.526   4.352  11.815 -3.5138  0.7231 -0.4482
 6673TIP3   OH241433   0.633   1.798  14.204 -0.0167 -0.4993  0.7282
 6673TIP3    H141434   0.719   1.775  14.170 -0.1395 -0.0453  0.0846
 6673TIP3    H241435   0.638   1.892  14.221 -0.1467 -0.6080  1.4300
 6674TIP3   OH241436   4.218   5.169   3.576  0.4188  0.0595  0.2751
 6674TIP3    H141437   4.279   5.100   3.603 -0.5830 -0.9852 -0.0459
 6674TIP3    H241438   4.267   5.251   3.588  1.2465 -0.6184  1.7334
 6675TIP3   OH241439   0.106   3.882  13.462  0.2124 -0.0215  0.8970
 6675TIP3    H141440   0.107   3.842  13.375  0.3056  0.8171  0.4946
 6675TIP3    H241441   0.117   3.809  13.523  0.3724 -0.5950  0.1922
 6676TIP3   OH241442   1.241   1.998  14.497  0.4641 -0.2853 -0.0279
 6676TIP3    H141443   1.248   2.030  14.587 -2.1622  0.2573  0.0673
 6676TIP3    H241444   1.246   1.903  14.505 -0.4344 -0.2838  0.8200
 6677TIP3   OH241445   6.121   3.863   5.280  0.6076  0.1180  0.0684
 6677TIP3    H141446   6.172   3.793   5.319 -0.3929 -1.0003 -0.5464
 6677TIP3    H241447   6.048   3.877   5.340  1.9638  2.2285  1.3267
 6678TIP3   OH241448   2.233   4.764   0.509  0.5352  0.0882 -0.1863
 6678TIP3    H141449   2.147   4.733   0.537  0.6870  0.0902  0.2910
 6678TIP3    H241450   2.223   4.784   0.416  0.2524 -0.7408 -0.3422
 6679TIP3   OH241451   0.128   0.012  12.659 -0.1674  0.1890  0.4616
 6679TIP3    H141452   0.176   0.056  12.589 -2.1181  1.2892 -0.2540
 6679TIP3    H241453   0.186  -0.059  12.686  1.7367  1.2900 -0.4997
 6680TIP3   OH241454   0.854   5.105   0.502 -0.9148 -0.0051 -0.4585
 6680TIP3    H141455   0.926   5.044   0.511 -2.0087 -1.5296 -1.5916
 6680TIP3    H241456   0.891   5.179   0.452  0.2551  0.0177  0.4093
 6681TIP3   OH241457   4.623   5.993  11.967  0.6011  0.7399  0.0698
 6681TIP3    H141458   4.580   6.056  12.025  1.7212  0.0719  1.7067
 6681TIP3    H241459   4.555   5.928  11.947  0.3967  0.5511  1.3101
 6682TIP3   OH241460   2.023   4.300  16.057  0.4590 -0.0038 -0.7574
 6682TIP3    H141461   2.067   4.339  15.981  0.3783 -0.6798 -1.1628
 6682TIP3    H241462   2.071   4.218  16.073  1.1569  0.6289  0.5904
 6683TIP3   OH241463   0.949   1.904  17.052 -0.7231  0.3077 -0.0115
 6683TIP3    H141464   0.930   1.898  17.145  0.2724  0.6356  0.2313
 6683TIP3    H241465   0.906   1.985  17.024  0.1352  0.9590  0.4880
 6684TIP3   OH241466   2.332   3.917   4.477  0.3334  0.1097 -0.8200
 6684TIP3    H141467   2.404   3.959   4.525  1.4198  0.9300 -3.0319
 6684TIP3    H241468   2.273   3.885   4.546  0.8463  2.8184  1.0485
 6685TIP3   OH241469   1.163   4.575  14.510  0.2596  0.3486  0.7103
 6685TIP3    H141470   1.252   4.596  14.481  0.9692  0.2841  2.6778
 6685TIP3    H241471   1.107   4.626  14.452  1.5424  0.0319 -0.8904
 6686TIP3   OH241472   0.757   5.496  13.698  0.0887 -0.3054 -0.4040
 6686TIP3    H141473   0.812   5.423  13.669  1.3858  0.9675 -1.3226
 6686TIP3    H241474   0.667   5.467  13.684  0.6079 -1.2345 -2.0220
 6687TIP3   OH241475   2.086   3.171   5.832  0.0513 -0.1344  0.4476
 6687TIP3    H141476   2.100   3.139   5.921 -2.6867 -1.6511  0.4165
 6687TIP3    H241477   2.024   3.243   5.842  0.8154  0.6203 -0.1332
 6688TIP3   OH241478   4.540   4.909  13.132  0.2311  0.6282  0.0011
 6688TIP3    H141479   4.479   4.879  13.065  0.6987  0.6570 -0.4350
 6688TIP3    H241480   4.555   5.002  13.111  2.4053  0.0216 -1.4334
 6689TIP3   OH241481   5.902   4.931   0.050 -0.1661 -0.5047  0.2869
 6689TIP3    H141482   5.908   4.916   0.144 -0.4015  0.1125  0.4028
 6689TIP3    H241483   5.990   4.961   0.025  0.0282 -1.1072  0.2221
 6690TIP3   OH241484   4.024   3.478  11.878 -0.3756 -0.0004 -0.0645
 6690TIP3    H141485   3.978   3.561  11.873 -0.7315 -0.2681 -1.5645
 6690TIP3    H241486   4.113   3.497  11.849 -1.1232 -0.5836 -3.0333
 6691TIP3   OH241487   5.584   5.282   2.508 -0.1086  0.5979 -0.2989
 6691TIP3    H141488   5.602   5.242   2.422 -0.6036  1.3554 -0.7669
 6691TIP3    H241489   5.594   5.376   2.493  1.4618  0.6545  0.8832
 6692TIP3   OH241490   6.300   4.513  11.479 -0.5619  0.3010  0.0780
 6692TIP3    H141491   6.343   4.461  11.412 -0.3078 -0.1656  0.5950
 6692TIP3    H241492   6.348   4.494  11.560 -1.7186 -0.2495  0.6742
 6693TIP3   OH241493   0.522   2.790  12.627 -0.2290  0.4803  0.2886
 6693TIP3    H141494   0.548   2.745  12.547  0.8322  1.1048  0.2549
 6693TIP3    H241495   0.451   2.848  12.600  0.2555  0.8353 -0.2603
 6694TIP3   OH241496   6.661   0.332   6.576 -0.4294 -0.6234  0.1224
 6694TIP3    H141497   6.642   0.398   6.643 -0.0958 -0.8852  0.4737
 6694TIP3    H241498   6.700   0.382   6.504 -2.3718 -0.0642 -0.6133
 6695TIP3   OH241499   3.080   5.285   3.027  0.0092  0.1233 -0.7781
 6695TIP3    H141500   3.156   5.304   2.972 -0.1771 -0.9485 -1.4332
 6695TIP3    H241501   3.010   5.262   2.965 -0.8021  0.8895 -0.1786
 6696TIP3   OH241502   6.491   3.181  16.775 -0.5691 -0.3799  0.4674
 6696TIP3    H141503   6.566   3.212  16.725 -0.4238 -0.1670  0.8145
 6696TIP3    H241504   6.508   3.210  16.865  0.3070 -2.7120  1.1421
 6697TIP3   OH241505   3.342   3.956  13.139  0.8591 -0.4326 -0.2386
 6697TIP3    H141506   3.273   3.894  13.113  0.7848 -0.5580  0.2386
 6697TIP3    H241507   3.421   3.902  13.146  0.7052 -0.5643  0.5959
 6698TIP3   OH241508   0.186   4.813  11.217 -0.4004 -0.0944 -0.3645
 6698TIP3    H141509   0.186   4.830  11.312 -0.1816 -0.3930 -0.3104
 6698TIP3    H241510   0.103   4.770  11.200  0.1919 -1.3918 -0.0616
 6699TIP3   OH241511   0.629   6.603  10.751 -0.6450 -0.1769  0.0822
 6699TIP3    H141512   0.672   6.520  10.770 -0.5427 -0.1412  0.0112
 6699TIP3    H241513   0.549   6.602  10.804 -0.4785 -0.1774  0.3356
 6700TIP3   OH241514   1.044   1.919  10.917  0.7517 -0.0068 -0.0023
 6700TIP3    H141515   1.080   2.003  10.946 -0.7242  0.8852 -0.6565
 6700TIP3    H241516   1.009   1.936  10.830 -2.2299 -0.4556  0.9799
 6701TIP3   OH241517   5.046   0.350  13.408  0.1897 -0.7063 -0.4765
 6701TIP3    H141518   5.050   0.301  13.490 -0.0225 -0.7884 -0.5134
 6701TIP3    H241519   4.962   0.396  13.412  1.0731  0.9517  0.2826
 6702TIP3   OH241520   3.815   6.314  10.967 -0.1999  0.2377 -0.1782
 6702TIP3    H141521   3.749   6.257  11.006 -1.0221  0.0065 -1.8092
 6702TIP3    H241522   3.765   6.386  10.928  0.8606  2.6199  2.5457
 6703TIP3   OH241523   1.612   4.937  10.665  0.0342 -0.1380 -0.1570
 6703TIP3    H141524   1.556   5.009  10.635  0.9663  0.7462  0.1635
 6703TIP3    H241525   1.685   4.980  10.710  0.1226 -1.3231  0.9066
 6704TIP3   OH241526   2.691   3.609  13.485 -0.1892  0.5161 -0.3038
 6704TIP3    H141527   2.667   3.677  13.547 -0.4576 -0.7249  1.0109
 6704TIP3    H241528   2.621   3.543  13.493  0.8475 -0.6368 -0.3721
 6705TIP3   OH241529   1.086   5.760  11.018  0.2118 -0.1106 -0.8805
 6705TIP3    H141530   1.030   5.752  10.941  0.3119  1.5584 -1.1603
 6705TIP3    H241531   1.046   5.702  11.083 -0.4004 -0.8297 -1.8755
 6706TIP3   OH241532   4.317   3.229  15.250  0.1724 -0.2363 -0.0362
 6706TIP3    H141533   4.358   3.171  15.314  0.4053 -1.0982 -0.9246
 6706TIP3    H241534   4.359   3.314  15.263  1.9072 -0.9655 -0.5803
 6707TIP3   OH241535   4.669   2.667  11.802  0.5833 -0.4329 -0.3210
 6707TIP3    H141536   4.615   2.592  11.774  1.4693 -0.9461 -0.6808
 6707TIP3    H241537   4.726   2.631  11.870 -0.8288  0.5582  1.4833
 6708TIP3   OH241538   6.136   4.048  16.802 -0.2975 -0.3587 -0.2552
 6708TIP3    H141539   6.109   4.021  16.890 -0.4500  0.2979 -0.0951
 6708TIP3    H241540   6.225   4.014  16.793 -1.0835 -2.4404 -0.7450
 6709TIP3   OH241541   3.626   0.655   1.152 -0.4707  0.2589  0.4375
 6709TIP3    H141542   3.575   0.581   1.118  0.7939 -0.7616  0.6676
 6709TIP3    H241543   3.611   0.725   1.089  0.1548 -0.9327 -1.1000
 6710TIP3   OH241544   6.588   3.992  11.432 -0.2802 -0.2987  0.2192
 6710TIP3    H141545   6.653   4.038  11.485 -0.4564  2.7438 -1.9776
 6710TIP3    H241546   6.618   3.901  11.432  1.9918  0.3582  2.1144
 6711TIP3   OH241547   5.414   6.621   4.895  0.4944 -0.2241  0.1999
 6711TIP3    H141548   5.496   6.573   4.905 -0.0362 -1.9055 -2.3744
 6711TIP3    H241549   5.434   6.710   4.922  3.1485 -0.6277 -0.2314
 6712TIP3   OH241550   1.769   3.952   0.124 -0.3181 -0.0883 -0.1955
 6712TIP3    H141551   1.847   3.974   0.073  0.0195 -0.8224 -0.0019
 6712TIP3    H241552   1.754   3.859   0.107 -0.1820 -0.3553  1.0571
 6713TIP3   OH241553   2.417   5.183  11.155  0.0083 -0.2788 -0.2826
 6713TIP3    H141554   2.335   5.133  11.161  0.6015 -1.1269  2.8351
 6713TIP3    H241555   2.485   5.116  11.157  0.8038  0.4973 -0.9804
 6714TIP3   OH241556   4.201   5.188  14.037  0.1310 -0.3265  0.6514
 6714TIP3    H141557   4.177   5.280  14.033  2.1772  0.2416  0.4336
 6714TIP3    H241558   4.206   5.168  14.130  1.1497  0.2004  0.7117
 6715TIP3   OH241559   4.820   4.117   5.307 -0.0745  0.2083 -0.1946
 6715TIP3    H141560   4.779   4.039   5.270 -0.0809  0.5058 -0.8265
 6715TIP3    H241561   4.914   4.104   5.295 -0.0154 -0.1780  0.6608
 6716TIP3   OH241562   6.269   6.434   4.869 -0.1698  0.4429 -0.0465
 6716TIP3    H141563   6.343   6.452   4.811 -1.6824  2.4313 -1.4842
 6716TIP3    H241564   6.242   6.345   4.846 -0.5917  1.0926 -2.3518
 6717TIP3   OH241565   3.847   2.318   5.189  0.2651 -0.3619  0.0556
 6717TIP3    H141566   3.914   2.371   5.145 -0.2908 -1.6305 -2.5215
 6717TIP3    H241567   3.868   2.325   5.282  3.0693  0.4968 -0.5502
 6718TIP3   OH241568   3.089   6.381  11.166 -0.0978 -0.9046 -0.7253
 6718TIP3    H141569   3.162   6.332  11.128  0.2289 -0.3640 -0.7985
 6718TIP3    H241570   3.122   6.470  11.177 -0.2629 -0.9839  0.5899
 6719TIP3   OH241571   4.970   0.949   0.723  0.0375  0.5094  0.1846
 6719TIP3    H141572   4.948   0.980   0.636  3.7642 -2.3606 -2.0690
 6719TIP3    H241573   4.889   0.911   0.757 -1.0439 -0.3174 -3.0376
 6720TIP3   OH241574   6.146   4.179  11.549 -0.3343 -0.7784  0.1046
 6720TIP3    H141575   6.158   4.205  11.458  0.9072  0.6323  0.6254
 6720TIP3    H241576   6.235   4.167  11.582 -0.7912 -2.1313  0.9157
 6721TIP3   OH241577   0.717   1.299  13.348 -0.3656  0.0151 -0.1028
 6721TIP3    H141578   0.808   1.315  13.374  0.0004 -0.6876 -0.8891
 6721TIP3    H241579   0.688   1.382  13.309  0.3884 -0.1514 -1.0658
 6722TIP3   OH241580   3.809   2.426  14.938 -0.0186 -0.2949  0.0813
 6722TIP3    H141581   3.868   2.378  14.880 -0.0684 -0.8744  0.5048
 6722TIP3    H241582   3.734   2.367  14.950 -1.6138  1.1643 -1.9657
 6723TIP3   OH241583   1.865   6.181  13.164  0.3822  0.6076 -0.2714
 6723TIP3    H141584   1.903   6.095  13.182 -1.7061  0.1039  2.3217
 6723TIP3    H241585   1.922   6.243  13.210  0.5472  0.3617 -0.1438
 6724TIP3   OH241586   2.762   6.455   2.814 -0.4535  0.0891 -0.2480
 6724TIP3    H141587   2.718   6.538   2.794 -1.1802 -0.2616 -0.1427
 6724TIP3    H241588   2.848   6.481   2.847  0.2430  0.7457 -2.3773
 6725TIP3   OH241589   5.632   1.698  16.622 -0.5236  0.6134  0.0847
 6725TIP3    H141590   5.624   1.613  16.577 -3.1992 -0.2207  1.9014
 6725TIP3    H241591   5.717   1.694  16.664 -0.0212 -0.5865 -0.9654
 6726TIP3   OH241592   6.065   3.015   2.440  0.4087 -0.2399 -0.1259
 6726TIP3    H141593   5.971   3.036   2.442  0.2678 -0.5889 -1.8018
 6726TIP3    H241594   6.100   3.069   2.370  1.1930 -1.1198 -0.4299
 6727TIP3   OH241595   4.803   4.482  13.144 -0.0006  0.1515 -0.1406
 6727TIP3    H141596   4.726   4.528  13.112  1.3888  2.7389 -0.0200
 6727TIP3    H241597   4.819   4.413  13.080 -0.7713  1.4034 -1.7402
 6728TIP3   OH241598   4.722   2.964   4.072  0.1113 -0.0594  0.0117
 6728TIP3    H141599   4.813   2.952   4.101  0.8255  0.1611 -1.9285
 6728TIP3    H241600   4.670   2.957   4.151  1.8989  0.7323  1.3339
 6729TIP3   OH241601   0.974   3.474   4.485 -0.0509  0.9131 -0.2710
 6729TIP3    H141602   1.000   3.505   4.398 -0.2621  2.7540  0.2875
 6729TIP3    H241603   1.040   3.407   4.506 -0.1668  0.2241 -1.9408
 6730TIP3   OH241604   4.785   0.836  16.668  0.1213 -0.1945  0.2243
 6730TIP3    H141605   4.842   0.913  16.681  1.4938 -1.2693  0.8329
 6730TIP3    H241606   4.813   0.801  16.584 -1.0092  0.3520 -0.4044
 6731TIP3   OH241607   6.329   2.346   0.407  0.1393 -0.5954  0.0639
 6731TIP3    H141608   6.365   2.267   0.448 -1.6615 -0.4283  2.1046
 6731TIP3    H241609   6.269   2.382   0.471  0.5419  2.2398 -1.0049
 6732TIP3   OH241610   5.458   0.382   5.165  0.3587 -0.0891  0.3425
 6732TIP3    H141611   5.496   0.415   5.246  0.8999  1.2707 -0.4232
 6732TIP3    H241612   5.368   0.359   5.188  1.0562 -1.5692  1.7500
 6733TIP3   OH241613   2.001   3.341  17.166 -0.3505 -0.3035  0.3237
 6733TIP3    H141614   2.008   3.363  17.074  0.6832 -2.2889 -0.1485
 6733TIP3    H241615   1.989   3.246  17.167  2.1332 -0.7146  2.2257
 6734TIP3   OH241616   0.728   5.741   0.597  0.1513  0.2915 -1.2954
 6734TIP3    H141617   0.742   5.655   0.637  3.2001  1.2970  0.0867
 6734TIP3    H241618   0.647   5.773   0.636 -0.5982 -1.6022 -1.2230
 6735TIP3   OH241619   0.252   6.217  17.171 -0.0783 -0.2777 -0.2164
 6735TIP3    H141620   0.180   6.272  17.202 -1.9827 -2.4996 -0.4179
 6735TIP3    H241621   0.260   6.148  17.237  1.4230 -0.4772 -0.5619
 6736TIP3   OH241622   5.534   3.068  16.699 -0.3670  0.2368 -0.7968
 6736TIP3    H141623   5.542   3.097  16.789 -1.1223 -0.2154 -0.5716
 6736TIP3    H241624   5.440   3.051  16.687 -0.2153 -0.1757 -1.5137
 6737TIP3   OH241625   0.002   3.106  17.034  0.0648 -0.5895  0.6161
 6737TIP3    H141626   0.067   3.109  17.104 -0.9023  1.5064  1.5070
 6737TIP3    H241627  -0.026   3.197  17.024 -1.5901 -1.2155 -0.8363
 6738TIP3   OH241628   2.699   1.217  13.849 -0.0336 -0.9712  0.5581
 6738TIP3    H141629   2.716   1.273  13.774  0.2728 -0.8038  0.7514
 6738TIP3    H241630   2.765   1.243  13.914 -0.5000 -0.8906  1.0039
 6739TIP3   OH241631   5.204   1.022   1.220  0.6286  0.3016 -0.0679
 6739TIP3    H141632   5.186   1.048   1.310 -1.1621 -1.9674  0.3331
 6739TIP3    H241633   5.118   1.004   1.182  1.4342 -0.2059 -1.7765
 6740TIP3   OH241634   2.636   6.355   0.265 -0.4887  0.0524 -0.4601
 6740TIP3    H141635   2.619   6.285   0.202  0.8811 -0.2775 -0.4780
 6740TIP3    H241636   2.549   6.376   0.300 -1.2686  0.0999 -2.2789
 6741TIP3   OH241637   1.770   3.958  10.826  0.1711  0.0003 -0.0385
 6741TIP3    H141638   1.718   4.015  10.883  3.6323  0.8622  2.6283
 6741TIP3    H241639   1.716   3.946  10.748 -3.4159  1.6590  1.9480
 6742TIP3   OH241640   3.700   6.729  11.593  0.2504  0.6309 -0.3766
 6742TIP3    H141641   3.662   6.642  11.606  0.2736  0.9350  2.2472
 6742TIP3    H241642   3.792   6.718  11.614  0.3213  1.2306 -0.3709
 6743TIP3   OH241643   2.154   5.731  16.142 -0.6918  1.0026  0.3889
 6743TIP3    H141644   2.174   5.799  16.207  1.6927 -0.2188  1.0607
 6743TIP3    H241645   2.200   5.760  16.063  1.0610 -0.1301  0.9216
 6744TIP3   OH241646   2.804   3.125   0.013 -0.4764 -0.3985 -0.4121
 6744TIP3    H141647   2.855   3.113   0.094 -0.7799  0.4998 -0.0787
 6744TIP3    H241648   2.861   3.090  -0.056  1.9939  3.1629 -0.4867
 6745TIP3   OH241649   4.844   1.100  11.563 -0.3638  0.1737  0.1390
 6745TIP3    H141650   4.810   1.062  11.482  0.9795 -2.4676  0.6916
 6745TIP3    H241651   4.926   1.142  11.537 -0.2779 -0.0749  0.0048
 6746TIP3   OH241652   2.149   4.713  15.676  0.2361 -0.4423  0.4311
 6746TIP3    H141653   2.116   4.628  15.645 -0.2611  0.2919 -1.1134
 6746TIP3    H241654   2.074   4.753  15.721  0.1289 -0.3444  0.1669
 6747TIP3   OH241655   4.165   0.761   0.854 -0.3734 -0.0418 -0.1086
 6747TIP3    H141656   4.187   0.668   0.856  1.4379  0.3548  2.0569
 6747TIP3    H241657   4.233   0.801   0.800 -0.6995  0.1580 -0.3817
 6748TIP3   OH241658   0.652   0.711  14.821  0.7401  0.0838 -0.2431
 6748TIP3    H141659   0.710   0.732  14.747 -0.5399 -2.6115 -2.1980
 6748TIP3    H241660   0.564   0.714  14.783 -0.1127  0.4373  1.6908
 6749TIP3   OH241661   1.432   4.310   1.472 -0.2691 -0.4284 -1.3005
 6749TIP3    H141662   1.502   4.256   1.436  0.5381 -0.8389  0.7937
 6749TIP3    H241663   1.474   4.365   1.538 -1.6117  0.5970 -1.2489
 6750TIP3   OH241664   5.637   0.993   4.072  0.1191  0.0315  0.2464
 6750TIP3    H141665   5.608   1.075   4.034 -2.2624 -0.5757  0.5755
 6750TIP3    H241666   5.696   1.018   4.143  0.2867  1.3976 -0.3602
 6751TIP3   OH241667   5.179   4.105  13.627 -0.0173  0.1211 -0.1032
 6751TIP3    H141668   5.225   4.076  13.548 -1.5771  2.0590 -1.8596
 6751TIP3    H241669   5.161   4.197  13.611  0.0796  0.7203  2.8211
 6752TIP3   OH241670   3.481   3.775   6.369  0.4721  1.1679 -0.2442
 6752TIP3    H141671   3.566   3.761   6.410 -0.2243  0.9761  1.1889
 6752TIP3    H241672   3.459   3.865   6.391  1.1596  1.8871 -2.2972
 6753TIP3   OH241673   1.912   0.029   1.868 -0.1746 -0.3750 -0.0582
 6753TIP3    H141674   1.945  -0.046   1.917  0.1142  0.3109  0.8145
 6753TIP3    H241675   1.945   0.106   1.915  0.2614  0.3100 -1.4201
 6754TIP3   OH241676   5.578   3.860  15.846  0.3754  0.4597  0.0867
 6754TIP3    H141677   5.669   3.862  15.877  1.1027 -3.1300 -1.3927
 6754TIP3    H241678   5.533   3.801  15.906  0.2937 -1.6553 -1.9324
 6755TIP3   OH241679   5.036   3.988   5.239 -0.9162  0.3375 -0.3139
 6755TIP3    H141680   4.989   3.915   5.199 -2.0638 -0.1002  1.6774
 6755TIP3    H241681   5.083   3.949   5.313 -0.7527  1.4502  0.1953
 6756TIP3   OH241682   1.177   4.564  13.121  0.7164  0.6155 -0.3166
 6756TIP3    H141683   1.219   4.497  13.068 -1.1174 -0.2330 -0.7756
 6756TIP3    H241684   1.219   4.557  13.207  1.7608  0.1004 -0.8505
 6757TIP3   OH241685   2.971   4.217   0.303  0.4855  0.3709 -0.4326
 6757TIP3    H141686   3.017   4.283   0.252 -0.6863  1.3384 -0.2945
 6757TIP3    H241687   2.934   4.265   0.377 -0.3804 -0.4299 -0.3135
 6758TIP3   OH241688   2.386   4.193  17.373 -0.5350 -0.0862  0.6275
 6758TIP3    H141689   2.466   4.222  17.418 -1.1959 -1.5279  2.9009
 6758TIP3    H241690   2.315   4.212  17.434 -1.8338  0.1055 -0.8689
 6759TIP3   OH241691   1.082   1.738   1.920 -0.3086 -0.4216  0.3295
 6759TIP3    H141692   1.134   1.758   1.998 -0.7767  0.0727  0.5169
 6759TIP3    H241693   0.992   1.755   1.946 -0.5225 -0.8127 -0.1463
 6760TIP3   OH241694   3.137   3.879  16.191 -0.0175  0.4895 -0.0396
 6760TIP3    H141695   3.067   3.923  16.239  0.8575  2.1602 -0.1925
 6760TIP3    H241696   3.178   3.821  16.256  1.3027  2.8787  1.4114
 6761TIP3   OH241697   2.777   3.529  16.465 -0.2149  0.5170 -0.7514
 6761TIP3    H141698   2.721   3.561  16.536  0.2730  0.3976 -0.3033
 6761TIP3    H241699   2.717   3.481  16.407 -0.3590 -0.9936  0.5580
 6762TIP3   OH241700   1.496   0.049   5.194 -0.4183 -0.1007 -0.3862
 6762TIP3    H141701   1.555   0.124   5.196 -0.1366 -0.3161  1.1477
 6762TIP3    H241702   1.461   0.045   5.283 -0.5515 -1.6880 -0.4820
 6763TIP3   OH241703   3.152   1.269   0.332 -0.1584  0.3182  0.1380
 6763TIP3    H141704   3.122   1.178   0.336 -0.1701  0.3730  2.3026
 6763TIP3    H241705   3.080   1.320   0.370 -0.7414  1.4548 -2.2932
 6764TIP3   OH241706   0.066   0.737  16.752 -0.1350 -0.2608 -0.4645
 6764TIP3    H141707   0.115   0.819  16.759  0.3729 -0.6027  0.0702
 6764TIP3    H241708   0.021   0.743  16.668  0.7889  0.0873 -0.9498
 6765TIP3   OH241709   5.811   0.396   4.083  0.2085 -0.0809 -0.3811
 6765TIP3    H141710   5.804   0.480   4.037  0.5488  0.0111 -0.2678
 6765TIP3    H241711   5.748   0.403   4.155  0.1293  0.0208 -0.4592
 6766TIP3   OH241712   1.311   5.389  14.036 -0.0414  0.3330  0.5744
 6766TIP3    H141713   1.347   5.373  14.123 -2.5563 -0.4907  1.5490
 6766TIP3    H241714   1.335   5.311  13.985 -1.2747 -0.6959  1.5152
 6767TIP3   OH241715   2.532   3.394  12.194  0.5554  0.5924 -0.0304
 6767TIP3    H141716   2.508   3.437  12.112  1.2947  2.1799  0.5497
 6767TIP3    H241717   2.626   3.375  12.185  0.3127 -0.6530 -0.1484
 6768TIP3   OH241718   0.341   3.574  16.214 -0.3207 -0.4638  0.6563
 6768TIP3    H141719   0.304   3.656  16.181  1.4411 -0.8540 -2.8160
 6768TIP3    H241720   0.267   3.514  16.220 -0.9646 -0.0725 -2.0599
 6769TIP3   OH241721   0.144   3.805   1.855 -0.3678  0.1348  0.1910
 6769TIP3    H141722   0.233   3.787   1.825 -0.3751  1.4447 -0.6657
 6769TIP3    H241723   0.095   3.825   1.776 -1.2655  0.1435  0.7279
 6770TIP3   OH241724   2.482   3.572   3.408 -0.6224  0.0493 -0.2253
 6770TIP3    H141725   2.396   3.533   3.425 -0.6585  0.6910  1.1893
 6770TIP3    H241726   2.500   3.625   3.486  1.3699 -0.6305 -0.1793
 6771TIP3   OH241727   3.906   1.444  14.222 -0.1413  0.7226  0.2671
 6771TIP3    H141728   3.880   1.352  14.213 -0.6597  0.9444 -0.7260
 6771TIP3    H241729   3.996   1.441  14.252  0.1981 -0.1300 -0.7896
 6772TIP3   OH241730   4.842   2.504  12.735  0.2364 -0.5828  0.2989
 6772TIP3    H141731   4.857   2.520  12.828 -0.7638 -1.5874  0.6579
 6772TIP3    H241732   4.926   2.473  12.702  0.5107 -0.5498  0.9505
 6773TIP3   OH241733   1.036   3.073  13.105 -0.0419  1.0576 -0.4372
 6773TIP3    H141734   1.069   2.986  13.081 -2.5164  0.4472 -1.9530
 6773TIP3    H241735   1.066   3.085  13.196 -0.3929 -1.8021  0.1795
 6774TIP3   OH241736   6.442   1.991  15.733 -0.4242 -0.0602 -0.2544
 6774TIP3    H141737   6.460   2.053  15.804  0.7991 -0.0868 -0.5201
 6774TIP3    H241738   6.359   2.021  15.696 -1.4840 -0.5008  1.6571
 6775TIP3   OH241739   0.065   0.656  13.257 -0.0965 -0.1545 -0.0647
 6775TIP3    H141740   0.068   0.570  13.216 -0.0910 -0.2087  0.0483
 6775TIP3    H241741   0.136   0.654  13.321 -2.1303 -1.2931  2.3483
 6776TIP3   OH241742   1.222   5.863   1.639 -0.0715 -0.1756  0.0830
 6776TIP3    H141743   1.192   5.891   1.725  0.8360  0.9737  0.0452
 6776TIP3    H241744   1.261   5.777   1.653  1.2797  0.5689  1.0777
 6777TIP3   OH241745   0.176   0.830  15.192  0.0682  1.0113  0.2683
 6777TIP3    H141746   0.151   0.883  15.116  1.2359  2.5410  0.9101
 6777TIP3    H241747   0.244   0.881  15.236  0.8016 -0.7473  1.2769
 6778TIP3   OH241748   6.417   5.624  13.093  0.0896 -0.3447 -0.5971
 6778TIP3    H141749   6.433   5.716  13.071 -1.7985  0.1182 -0.2031
 6778TIP3    H241750   6.338   5.625  13.146 -0.3430 -2.2800 -1.1249
 6779TIP3   OH241751   5.347   3.962  13.338 -0.1208  0.3457 -0.3573
 6779TIP3    H141752   5.360   3.904  13.262  0.0311  1.5529 -1.2830
 6779TIP3    H241753   5.255   3.948  13.362 -0.5898  0.9758 -1.6722
 6780TIP3   OH241754   4.268   0.418   1.076  0.6187  0.2246  0.1814
 6780TIP3    H141755   4.217   0.337   1.088  1.4506 -0.2672  0.4794
 6780TIP3    H241756   4.347   0.404   1.128  0.2385  1.7210  1.2242
 6781TIP3   OH241757   6.158   1.500  14.511 -0.3886  0.4748  0.0390
 6781TIP3    H141758   6.077   1.480  14.464 -0.0855  1.3830 -0.8999
 6781TIP3    H241759   6.209   1.419  14.506 -1.4624 -0.3313  1.2055
 6782TIP3   OH241760   1.512   4.065   5.448 -0.5975  0.4204  0.2111
 6782TIP3    H141761   1.551   4.093   5.531 -0.2890 -0.3260  0.3262
 6782TIP3    H241762   1.554   3.981   5.429 -1.0873  0.3099 -0.4089
 6783TIP3   OH241763   2.756   1.580  13.390 -0.2816  0.1484 -0.1844
 6783TIP3    H141764   2.670   1.539  13.384 -0.1308 -0.4070  1.1300
 6783TIP3    H241765   2.771   1.617  13.303 -2.7319  2.0517  0.0927
 6784TIP3   OH241766   4.677   1.528  11.406  0.4092  0.0271  0.3208
 6784TIP3    H141767   4.690   1.437  11.381  0.7083  0.2333 -0.2861
 6784TIP3    H241768   4.686   1.577  11.324 -1.3845  0.4595  0.3285
 6785TIP3   OH241769   4.102   5.835  15.848 -0.6461  0.0278  0.2618
 6785TIP3    H141770   4.133   5.810  15.935 -0.1345 -1.0862 -0.2271
 6785TIP3    H241771   4.006   5.831  15.856 -0.6701  1.5273  1.2049
 6786TIP3   OH241772   1.453   5.854   5.442 -0.9161  0.5374 -0.9709
 6786TIP3    H141773   1.467   5.860   5.537 -1.0867  0.4745 -0.9419
 6786TIP3    H241774   1.538   5.824   5.408 -0.2360  2.4027 -1.0473
 6787TIP3   OH241775   1.725   2.058  15.588 -0.4924  0.5956 -0.0872
 6787TIP3    H141776   1.741   2.140  15.635 -1.4268  1.3609 -1.0410
 6787TIP3    H241777   1.772   1.991  15.638 -0.0442  1.6495  0.9347
 6788TIP3   OH241778   5.447   3.813   0.976 -0.3238  0.7225 -0.2742
 6788TIP3    H141779   5.508   3.748   0.942 -1.6737 -0.7414 -0.0055
 6788TIP3    H241780   5.471   3.822   1.069 -1.6202 -1.2835  0.3322
 6789TIP3   OH241781   4.593   3.668  11.358 -0.0668 -0.1088  0.1273
 6789TIP3    H141782   4.613   3.749  11.312 -1.4367  0.9881  1.3680
 6789TIP3    H241783   4.527   3.625  11.303 -0.8676  0.6464  0.4811
 6790TIP3   OH241784   1.625   2.671   3.107  0.7848  0.3981  0.6065
 6790TIP3    H141785   1.704   2.639   3.062  0.4921 -1.0815  1.0776
 6790TIP3    H241786   1.629   2.766   3.097  1.3312  0.2069 -1.5337
 6791TIP3   OH241787   6.275   6.152  15.977 -0.8531 -0.4198 -0.0059
 6791TIP3    H141788   6.242   6.214  16.042  0.2018  0.2287 -0.0741
 6791TIP3    H241789   6.255   6.066  16.014 -1.4070 -0.0513  0.5692
 6792TIP3   OH241790   1.728   6.560  11.569  0.0447  0.3275  0.5273
 6792TIP3    H141791   1.815   6.519  11.560  0.2595  1.0321 -0.9285
 6792TIP3    H241792   1.703   6.582  11.480 -0.4874  2.4890  1.1515
 6793TIP3   OH241793   5.245   4.636   0.049  0.9466 -0.6424 -0.1177
 6793TIP3    H141794   5.256   4.719   0.002 -0.8569  0.0871  0.6393
 6793TIP3    H241795   5.271   4.656   0.139 -0.7059 -0.4954  0.3590
 6794TIP3   OH241796   0.019   2.099  10.825  0.1388  0.4380  0.3704
 6794TIP3    H141797  -0.050   2.151  10.866 -0.6405 -1.8086  2.0865
 6794TIP3    H241798  -0.001   2.103  10.732 -3.5723 -1.6621  0.8810
 6795TIP3   OH241799   1.362   2.392   3.873  0.1762 -0.4540 -0.0550
 6795TIP3    H141800   1.382   2.415   3.782 -0.0996 -1.7550 -0.4652
 6795TIP3    H241801   1.443   2.410   3.921  0.8419 -1.2737 -0.8514
 6796TIP3   OH241802   2.511   1.427  15.848  0.0552  0.3049 -0.4582
 6796TIP3    H141803   2.592   1.403  15.895  0.8066 -0.5826 -2.1342
 6796TIP3    H241804   2.540   1.482  15.776 -0.8964  0.3366 -0.8306
 6797TIP3   OH241805   0.658   3.542  14.727  0.3172  0.1383  0.2152
 6797TIP3    H141806   0.607   3.583  14.797 -2.1563 -3.3556  0.7725
 6797TIP3    H241807   0.742   3.521  14.768 -0.2425  0.1776  1.4411
 6798TIP3   OH241808   0.417   4.310   3.661  0.3048 -0.3596  0.0072
 6798TIP3    H141809   0.387   4.278   3.576  1.3236  1.1609 -0.9705
 6798TIP3    H241810   0.406   4.405   3.657  0.5926 -0.2362  1.4936
 6799TIP3   OH241811   4.669   4.974   2.813  0.3544 -0.2874  0.4418
 6799TIP3    H141812   4.579   4.986   2.845 -0.2027 -1.8190 -0.4488
 6799TIP3    H241813   4.709   4.916   2.877 -0.5567 -2.8066 -1.1039
 6800TIP3   OH241814   5.521   6.468  13.925  0.4072  1.0406 -0.1657
 6800TIP3    H141815   5.437   6.513  13.936  0.2489  0.9380 -0.8805
 6800TIP3    H241816   5.556   6.459  14.014 -2.2610 -2.6094  0.7670
 6801TIP3   OH241817   6.359   2.544  13.091  0.0442 -0.6278  0.0170
 6801TIP3    H141818   6.338   2.552  12.998 -0.4352 -1.1839  0.0702
 6801TIP3    H241819   6.441   2.495  13.093 -0.6159 -1.7711 -0.0833
 6802TIP3   OH241820   1.050   5.378   1.970  0.5460  0.1539  0.1822
 6802TIP3    H141821   0.972   5.434   1.971  0.0195 -0.5687 -0.0129
 6802TIP3    H241822   1.070   5.364   2.063 -0.0175 -0.2912  0.2392
 6803TIP3   OH241823   5.743   1.277   6.792 -0.1927 -0.2856  0.0909
 6803TIP3    H141824   5.801   1.227   6.849 -1.4169 -1.3950  0.4341
 6803TIP3    H241825   5.801   1.324   6.733  1.0403 -1.1486  0.5769
 6804TIP3   OH241826   6.624   5.830   3.673  0.3175  0.4562 -0.1902
 6804TIP3    H141827   6.601   5.922   3.665 -1.5791  0.0804  0.5086
 6804TIP3    H241828   6.587   5.802   3.757  1.4614 -0.7745 -0.0594
 6805TIP3   OH241829   0.738   2.215  13.075 -0.4596  0.2324 -0.4697
 6805TIP3    H141830   0.729   2.125  13.043  1.3708  0.5530 -2.0663
 6805TIP3    H241831   0.764   2.205  13.166  0.9583 -0.9367 -0.9570
 6806TIP3   OH241832   0.328   5.640   3.472 -0.0843 -0.3459 -0.0573
 6806TIP3    H141833   0.308   5.621   3.564 -0.9987 -1.3369 -0.4435
 6806TIP3    H241834   0.244   5.665   3.433  0.5623  1.7508 -0.2779
 6807TIP3   OH241835   1.790   3.894   1.406 -0.1424  0.6565  0.4603
 6807TIP3    H141836   1.759   3.879   1.495 -0.6014 -0.9857  0.0373
 6807TIP3    H241837   1.882   3.867   1.408 -0.2496  0.2785  0.3549
 6808TIP3   OH241838   3.260   3.610   2.176  0.0543 -0.3720  0.7158
 6808TIP3    H141839   3.249   3.601   2.271  0.7618 -1.4662  0.7105
 6808TIP3    H241840   3.314   3.535   2.151  0.3803  0.2339 -0.4675
 6809TIP3   OH241841   2.991   0.995  13.151  0.1501 -0.0512  0.4798
 6809TIP3    H141842   2.908   0.956  13.177  0.5290 -0.5387  0.9841
 6809TIP3    H241843   3.037   1.010  13.234 -0.1641  1.8952  0.3377
 6810TIP3   OH241844   5.369   3.967  16.786  0.6421  0.4798  0.2762
 6810TIP3    H141845   5.371   4.055  16.749 -0.7158  0.0888 -0.8211
 6810TIP3    H241846   5.328   3.978  16.872  1.8686  1.1024  0.8039
 6811TIP3   OH241847   3.983   5.962   3.511 -0.0609 -0.1111 -0.2879
 6811TIP3    H141848   3.937   5.961   3.595  1.3907 -0.1340  0.5543
 6811TIP3    H241849   4.049   5.893   3.520 -0.4544 -0.7100 -1.8010
 6812TIP3   OH241850   5.831   2.375   2.399 -0.5983  0.5410 -0.4385
 6812TIP3    H141851   5.798   2.444   2.341  0.4803  2.6602  1.3282
 6812TIP3    H241852   5.844   2.419   2.484 -1.4539 -2.2327  1.2813
 6813TIP3   OH241853   4.717   6.439   2.833  0.0838 -1.0025 -0.3882
 6813TIP3    H141854   4.778   6.426   2.906 -0.5421 -0.9408  0.1578
 6813TIP3    H241855   4.662   6.360   2.834 -0.6366 -0.5054 -0.0942
 6814TIP3   OH241856   6.391   4.363   0.437  0.6323 -0.6170  0.3400
 6814TIP3    H141857   6.309   4.340   0.393  0.4994  0.2944  0.0855
 6814TIP3    H241858   6.365   4.394   0.523  0.7325 -0.5471  0.3457
 6815TIP3   OH241859   6.606   4.196  12.849 -0.1245 -0.2514 -0.6400
 6815TIP3    H141860   6.681   4.151  12.887 -0.9154 -0.5519  0.6162
 6815TIP3    H241861   6.620   4.288  12.871 -1.0712 -0.5398  1.3075
 6816TIP3   OH241862   0.192   6.196   5.720 -0.4118  0.0383  0.1287
 6816TIP3    H141863   0.137   6.208   5.642  0.5933 -0.7327 -0.7263
 6816TIP3    H241864   0.133   6.157   5.785 -1.4416  1.3528  0.0259
 6817TIP3   OH241865   6.242   4.565  15.647  0.2208  0.1779 -0.7081
 6817TIP3    H141866   6.244   4.630  15.718  1.4384  0.8956 -1.3640
 6817TIP3    H241867   6.165   4.512  15.665 -0.0001  0.9215  0.6461
 6818TIP3   OH241868   4.998   5.190  14.415 -0.1050  0.1802 -0.0916
 6818TIP3    H141869   4.978   5.236  14.497  1.3895  0.4033  0.1645
 6818TIP3    H241870   5.052   5.116  14.441 -0.2066 -0.1535 -0.8086
 6819TIP3   OH241871   1.501   2.737  12.412  0.2677 -0.0791 -0.5512
 6819TIP3    H141872   1.413   2.715  12.442  0.6103 -1.1444 -0.2976
 6819TIP3    H241873   1.525   2.666  12.352  0.8942  0.2877 -0.7432
 6820TIP3   OH241874   6.651   2.879  13.603 -0.0680 -0.1531  0.1829
 6820TIP3    H141875   6.603   2.813  13.652  2.6128 -2.4439 -0.0413
 6820TIP3    H241876   6.674   2.836  13.520  0.3303  1.6652 -0.7092
 6821TIP3   OH241877   1.425   5.330  16.139  0.1937  0.0327 -0.0542
 6821TIP3    H141878   1.451   5.241  16.164  0.1238 -0.0389 -0.2353
 6821TIP3    H241879   1.356   5.352  16.202 -0.6841 -0.5288 -0.7901
 6822TIP3   OH241880   2.947   2.018   2.089  0.1909 -0.2787 -0.5713
 6822TIP3    H141881   2.988   2.073   2.022 -1.2532  1.1000 -0.3837
 6822TIP3    H241882   2.909   2.080   2.151 -0.7533 -1.4975  0.1123
 6823TIP3   OH241883   4.076   0.005   4.925  0.4073  0.2356  0.0100
 6823TIP3    H141884   4.035  -0.053   4.989  1.0417  1.1531  1.3065
 6823TIP3    H241885   4.015   0.078   4.917  0.5150  0.3088 -0.1317
 6824TIP3   OH241886   3.742   3.642   5.081 -0.7353  0.0505 -0.0504
 6824TIP3    H141887   3.814   3.684   5.128  0.0471 -2.0001  0.7091
 6824TIP3    H241888   3.785   3.578   5.024 -1.6931  2.0333 -3.2758
 6825TIP3   OH241889   0.949   0.163  16.217 -0.3844  0.4762 -0.4244
 6825TIP3    H141890   0.931   0.070  16.201 -1.5726  0.8959 -1.6767
 6825TIP3    H241891   0.958   0.168  16.312  1.9689 -1.2720 -0.4521
 6826TIP3   OH241892   5.548   3.200   0.519 -0.3818 -0.0286  0.1508
 6826TIP3    H141893   5.552   3.296   0.510 -0.8532  0.0192  0.4170
 6826TIP3    H241894   5.628   3.178   0.568 -1.3929  0.4907  2.1563
 6827TIP3   OH241895   3.577   4.277   4.944  0.7866 -0.2774 -0.0498
 6827TIP3    H141896   3.504   4.229   4.983  2.5173 -1.7736  1.4810
 6827TIP3    H241897   3.538   4.361   4.919 -1.6316 -1.3004 -0.0523
 6828TIP3   OH241898   1.383   5.604   1.073 -0.4924 -0.1133  0.5796
 6828TIP3    H141899   1.355   5.560   1.154 -1.2254  0.5978  0.7191
 6828TIP3    H241900   1.454   5.662   1.101  0.5574 -1.2712  0.3752
 6829TIP3   OH241901   2.629   1.347   1.310  0.1668 -0.0486  0.3198
 6829TIP3    H141902   2.713   1.386   1.333 -0.3775  0.1741  2.0832
 6829TIP3    H241903   2.630   1.343   1.214  3.0558 -2.0436  0.2970
 6830TIP3   OH241904   1.013   3.889   0.022  0.5070 -0.4167  0.2878
 6830TIP3    H141905   1.084   3.914  -0.037  1.2427 -0.8572  0.9785
 6830TIP3    H241906   0.998   3.967   0.076  0.4344 -0.3136  0.1214
 6831TIP3   OH241907   3.132   0.061   1.085  0.0454 -0.3649  0.7811
 6831TIP3    H141908   3.188   0.064   1.007 -2.0086  0.1970 -0.7534
 6831TIP3    H241909   3.100  -0.029   1.088 -1.8580  0.1905 -0.5981
 6832TIP3   OH241910   0.491   4.123  16.769 -0.2486 -0.9192  0.5286
 6832TIP3    H141911   0.418   4.066  16.745  0.7957 -1.5354 -1.3475
 6832TIP3    H241912   0.484   4.131  16.864 -2.2063 -1.6867  0.5046
 6833TIP3   OH241913   6.082   5.236   5.744  0.0599 -0.2598  0.5178
 6833TIP3    H141914   6.167   5.224   5.701  0.0201  0.6633  0.1609
 6833TIP3    H241915   6.019   5.242   5.672 -0.3950 -1.4512  0.7931
 6834TIP3   OH241916   3.298   6.290  11.041  0.2779  0.1605 -0.5897
 6834TIP3    H141917   3.278   6.281  10.948 -0.8449 -0.7946 -0.2854
 6834TIP3    H241918   3.389   6.318  11.044  0.5725 -0.5869 -1.9541
 6835TIP3   OH241919   2.892   1.806   1.767  0.2064  0.0640 -0.3809
 6835TIP3    H141920   2.818   1.744   1.762  0.9789 -0.8347 -1.2266
 6835TIP3    H241921   2.954   1.774   1.701  1.3040  0.8736  0.2259
 6836TIP3   OH241922   5.074   1.843   5.093 -0.1515  0.2906 -0.0256
 6836TIP3    H141923   5.041   1.869   5.179 -2.1337 -1.2054 -0.2574
 6836TIP3    H241924   5.144   1.780   5.112 -1.0885 -0.6166  0.5436
 6837TIP3   OH241925   0.482   4.619  16.597  0.0653  0.2205  0.5919
 6837TIP3    H141926   0.522   4.532  16.609  1.2830  0.5635 -0.6836
 6837TIP3    H241927   0.483   4.633  16.503 -2.4843  0.5833  0.5530
 6838TIP3   OH241928   5.324   3.679   6.023 -0.0605  0.7110 -0.0055
 6838TIP3    H141929   5.351   3.679   6.114  0.9219  2.3297 -0.2551
 6838TIP3    H241930   5.307   3.587   6.003  1.1582  0.1400  1.3902
 6839TIP3   OH241931   1.529   6.250  16.730  0.7316  0.5469  0.3422
 6839TIP3    H141932   1.475   6.260  16.652 -0.9942  0.9582  1.5458
 6839TIP3    H241933   1.510   6.327  16.784  2.0309  0.3748  1.1110
 6840TIP3   OH241934   0.969   2.469  16.863 -0.3949 -0.0253 -0.6818
 6840TIP3    H141935   0.989   2.562  16.876 -1.2181  0.1704 -0.7432
 6840TIP3    H241936   0.982   2.430  16.949 -0.2094  0.1786 -0.6150
 6841TIP3   OH241937   4.064   6.744   1.617  0.4290 -0.1846  0.0693
 6841TIP3    H141938   4.154   6.777   1.625 -0.3265  2.4462 -1.0373
 6841TIP3    H241939   4.071   6.668   1.560  1.9580 -0.0143 -0.0105
 6842TIP3   OH241940   2.971   0.543  15.978  0.2228  0.2621  0.2145
 6842TIP3    H141941   3.038   0.593  16.025 -0.5366  0.8301  0.7124
 6842TIP3    H241942   2.983   0.453  16.007  0.9074  0.3210  0.1318
 6843TIP3   OH241943   4.199   1.171  13.281 -0.4180  0.3130 -0.2404
 6843TIP3    H141944   4.186   1.136  13.369 -0.1205 -0.0736 -0.3456
 6843TIP3    H241945   4.249   1.103  13.235 -1.5841 -0.0344 -1.0624
 6844TIP3   OH241946   1.215   0.265   4.947 -0.1394 -0.8309  0.4456
 6844TIP3    H141947   1.167   0.307   5.018 -0.3193 -1.9720  1.0297
 6844TIP3    H241948   1.165   0.287   4.868  0.0187  0.3817  0.6745
 6845TIP3   OH241949   5.052   5.578  14.296  0.2855 -0.1769 -0.2604
 6845TIP3    H141950   4.985   5.575  14.228  1.2635 -1.6538 -1.2182
 6845TIP3    H241951   5.046   5.666  14.332 -2.2114 -0.2664 -0.2454
 6846TIP3   OH241952   4.415   2.786   2.662 -0.2450  0.6583 -0.0117
 6846TIP3    H141953   4.352   2.769   2.732 -0.4580  2.0647  0.1710
 6846TIP3    H241954   4.447   2.700   2.637  0.5873  0.1485  2.4867
 6847TIP3   OH241955   0.890   3.301   3.412  0.4409  0.1178  0.4127
 6847TIP3    H141956   0.894   3.269   3.502 -1.3654  1.8259  1.1819
 6847TIP3    H241957   0.879   3.222   3.359 -2.7347 -0.7705  2.1089
 6848TIP3   OH241958   6.310   5.302  14.870 -0.0562 -0.2142  0.4141
 6848TIP3    H141959   6.395   5.338  14.846  0.1809 -0.4788  0.8373
 6848TIP3    H241960   6.325   5.261  14.956  0.4815 -4.0363 -1.2766
 6849TIP3   OH241961   1.590   5.253  11.021 -0.4382  0.5766 -0.5673
 6849TIP3    H141962   1.627   5.297  11.098  1.1457 -0.2899 -0.7925
 6849TIP3    H241963   1.650   5.276  10.950  1.3399 -2.9951 -0.4374
 6850TIP3   OH241964   2.831   3.761  16.892  0.1686 -0.0861 -0.1539
 6850TIP3    H141965   2.914   3.749  16.938 -0.8236 -2.0756  1.2611
 6850TIP3    H241966   2.787   3.831  16.941  1.0382  1.0749 -0.9981
 6851TIP3   OH241967   1.709   2.294  13.313  0.0263  0.3102  0.2521
 6851TIP3    H141968   1.617   2.313  13.328 -0.5243 -0.2872 -1.9868
 6851TIP3    H241969   1.752   2.379  13.314 -0.6316  0.6382  0.8133
 6852TIP3   OH241970   4.426   3.979  12.353  0.6600  0.2105  0.3336
 6852TIP3    H141971   4.478   3.973  12.273  1.9377  0.2124  1.1375
 6852TIP3    H241972   4.410   4.072  12.364 -1.1464  0.1069 -0.8878
 6853TIP3   OH241973   2.426   2.461   0.073 -0.1787 -0.0290 -0.2795
 6853TIP3    H141974   2.484   2.386   0.061 -0.7353 -0.4230 -0.5453
 6853TIP3    H241975   2.485   2.536   0.079  0.5307 -0.6759  2.0455
 6854TIP3   OH241976   1.310   2.163  11.773  0.8718  0.3829 -0.7350
 6854TIP3    H141977   1.404   2.181  11.780  0.8382  0.9949 -1.7825
 6854TIP3    H241978   1.291   2.110  11.851  1.9528  0.7643 -0.1829
 6855TIP3   OH241979   5.519   0.375  11.495 -0.1947  0.0554 -0.2859
 6855TIP3    H141980   5.473   0.363  11.578  0.3387  2.9072  0.5395
 6855TIP3    H241981   5.554   0.464  11.500  0.8596 -0.1025 -3.1055
 6856TIP3   OH241982   0.917   2.557  14.884 -0.3949 -0.9326  0.0463
 6856TIP3    H141983   0.939   2.465  14.872 -0.9770 -1.4998  2.6751
 6856TIP3    H241984   0.859   2.558  14.960 -2.1070  1.4205 -1.1487
 6857TIP3   OH241985   1.906   0.773  14.976 -0.0479  0.2353 -0.7267
 6857TIP3    H141986   1.905   0.705  14.909 -1.0263  0.9692 -1.4874
 6857TIP3    H241987   1.823   0.819  14.965 -0.4230  0.1308  1.2589
 6858TIP3   OH241988   4.740   0.142   3.812 -0.2882 -0.1345 -0.2458
 6858TIP3    H141989   4.804   0.070   3.811  0.7514  0.7569 -0.7545
 6858TIP3    H241990   4.746   0.178   3.901  1.8585  1.5482 -0.9751
 6859TIP3   OH241991   1.338   0.620  16.985 -0.1904 -0.4741 -0.3829
 6859TIP3    H141992   1.259   0.582  16.947  0.4420 -2.4201  0.1665
 6859TIP3    H241993   1.309   0.662  17.066 -0.4200 -2.9348  0.8874
 6860TIP3   OH241994   3.865   1.693  15.448  0.2385  0.3149 -0.6012
 6860TIP3    H141995   3.921   1.749  15.395  1.2054  0.4271  0.5089
 6860TIP3    H241996   3.794   1.669  15.389 -0.0663  2.4574 -1.2074
 6861TIP3   OH241997   1.074   2.717   5.568 -0.2274  0.2132 -0.4116
 6861TIP3    H141998   1.049   2.643   5.512  0.4600 -0.8818  0.6678
 6861TIP3    H241999   0.999   2.729   5.626  0.1130 -0.4262  0.1779
 6862TIP3   OH242000   0.706   3.495   5.697  0.0996  0.3366  0.0133
 6862TIP3    H142001   0.768   3.563   5.721  1.7925 -1.0765 -0.1570
 6862TIP3    H242002   0.756   3.433   5.645 -1.8472 -0.1144 -1.4545
 6863TIP3   OH242003   2.113   2.181  14.890  0.7961 -0.5409  0.0742
 6863TIP3    H142004   2.078   2.122  14.956 -3.2204  0.2805 -1.0758
 6863TIP3    H242005   2.080   2.146  14.807  1.7963  1.0298 -1.0317
 6864TIP3   OH242006   3.190   0.557   2.444  0.7108  0.1219  0.7962
 6864TIP3    H142007   3.143   0.509   2.376  0.3460  0.9561  0.4543
 6864TIP3    H242008   3.282   0.536   2.429  0.5840 -0.1671  0.4157
 6865TIP3   OH242009   5.296   5.762   4.405  0.4136  0.8336 -0.4210
 6865TIP3    H142010   5.323   5.683   4.357  0.1837  0.7709 -0.4501
 6865TIP3    H242011   5.272   5.825   4.337 -0.7599  0.4454 -0.3928
 6866TIP3   OH242012   4.525   6.016  16.918 -0.2960 -0.3235 -0.2848
 6866TIP3    H142013   4.462   6.024  16.846  0.3145 -1.9582 -1.0476
 6866TIP3    H242014   4.578   5.940  16.895  2.2768  1.2430  0.1156
 6867TIP3   OH242015   4.298   5.481   0.707 -0.3793 -0.4365 -0.4078
 6867TIP3    H142016   4.345   5.400   0.689 -0.2656 -0.4548 -0.0386
 6867TIP3    H242017   4.316   5.536   0.631  0.3822 -0.3808 -0.2039
 6868TIP3   OH242018   3.092   6.103   3.898 -0.1865 -0.1598 -0.1224
 6868TIP3    H142019   3.046   6.143   3.825 -2.4323 -1.3397  0.5735
 6868TIP3    H242020   3.134   6.025   3.861 -0.4747 -0.2063 -0.3485
 6869TIP3   OH242021   0.312   0.784   3.013  0.4593 -0.1816  0.0342
 6869TIP3    H142022   0.338   0.830   3.093  0.4801 -1.6125  0.8732
 6869TIP3    H242023   0.323   0.849   2.943  0.6629  1.0183  1.1550
 6870TIP3   OH242024   2.967   6.268  14.568  0.2936  0.3638 -0.1675
 6870TIP3    H142025   3.040   6.216  14.534  0.4404  0.4950 -0.0575
 6870TIP3    H242026   3.004   6.356  14.577  0.0643  0.4722 -0.3000
 6871TIP3   OH242027   2.507   5.748  16.403 -0.0388  0.3587  0.0638
 6871TIP3    H142028   2.587   5.738  16.350  0.6669  0.4172  1.0864
 6871TIP3    H242029   2.534   5.803  16.477 -1.1452  0.7415  0.2011
 6872TIP3   OH242030   5.750   6.498  16.187  0.3367  0.0718 -0.1114
 6872TIP3    H142031   5.824   6.557  16.203  1.1547 -0.4736 -1.6604
 6872TIP3    H242032   5.776   6.448  16.110 -1.8244  0.1139 -0.9185
 6873TIP3   OH242033   4.209   1.647   1.737 -0.4586  0.4725 -0.6871
 6873TIP3    H142034   4.262   1.568   1.735 -0.8195  0.2189 -0.4023
 6873TIP3    H242035   4.121   1.617   1.715 -1.2118  0.2736  2.1874
 6874TIP3   OH242036   6.638   5.233  14.132  0.4528  0.0016  0.2781
 6874TIP3    H142037   6.637   5.270  14.044 -1.3833 -1.5840 -0.4405
 6874TIP3    H242038   6.689   5.296  14.184  2.5380  0.4252 -2.0901
 6875TIP3   OH242039   2.591   6.101  16.145 -0.4080  0.9718 -0.6074
 6875TIP3    H142040   2.683   6.127  16.147 -0.4430  1.0815 -0.4578
 6875TIP3    H242041   2.550   6.164  16.085  0.0554 -0.4774 -2.5684
 6876TIP3   OH242042   5.384   4.809   0.776 -0.6279 -0.1059  0.1721
 6876TIP3    H142043   5.374   4.763   0.859 -1.5394  1.0307  0.7237
 6876TIP3    H242044   5.307   4.866   0.770 -0.4699 -0.0026 -1.3529
 6877TIP3   OH242045   4.184   6.705  12.469  0.1706 -0.3689 -0.0440
 6877TIP3    H142046   4.250   6.637  12.459  0.3492 -0.5172  1.8575
 6877TIP3    H242047   4.229   6.786  12.444  0.8619 -0.5586  0.5721
 6878TIP3   OH242048   2.654   5.886  12.850 -0.8050  0.5596 -0.1880
 6878TIP3    H142049   2.636   5.846  12.935  1.0827 -1.0359 -0.4602
 6878TIP3    H242050   2.745   5.916  12.856 -0.7453  0.7148 -1.5169
 6879TIP3   OH242051   3.294   4.409   1.833  0.8301  0.4377  0.1016
 6879TIP3    H142052   3.388   4.391   1.840  0.3432 -2.1020  1.2407
 6879TIP3    H242053   3.254   4.324   1.817 -1.2780  1.5442 -1.0622
 6880TIP3   OH242054   1.487   2.854   1.881  0.3319 -0.4388  0.1410
 6880TIP3    H142055   1.506   2.762   1.860  1.8868 -0.1236  0.0320
 6880TIP3    H242056   1.572   2.891   1.903 -0.0821  1.2757 -0.9561
 6881TIP3   OH242057   1.052   2.302  16.393 -0.0070  0.1644  0.0241
 6881TIP3    H142058   1.144   2.275  16.392  0.0013  0.1865  0.2833
 6881TIP3    H242059   1.004   2.224  16.420 -0.0864  0.0878 -0.3327
 6882TIP3   OH242060   6.586   3.053  13.051 -0.1021  0.1657  0.3314
 6882TIP3    H142061   6.532   3.091  12.982  0.7295 -0.9235 -0.9664
 6882TIP3    H242062   6.528   2.989  13.094 -0.4717  0.5104  0.3605
 6883TIP3   OH242063   0.326   0.993   1.464  0.3067  0.1306 -0.0528
 6883TIP3    H142064   0.288   1.068   1.419 -0.8840 -0.2690  0.2503
 6883TIP3    H242065   0.417   1.019   1.483 -0.5386  2.1578  1.5700
 6884TIP3   OH242066   2.245   0.106   4.950  0.3141 -0.5030  0.2138
 6884TIP3    H142067   2.223   0.019   4.919 -0.5956  0.5762 -2.4151
 6884TIP3    H242068   2.306   0.091   5.023 -1.4561 -3.3213  1.2562
 6885TIP3   OH242069   0.069   1.797   4.033  0.0862 -0.0699  0.5898
 6885TIP3    H142070   0.071   1.781   4.127 -0.2886 -0.7636  0.4853
 6885TIP3    H242071  -0.021   1.777   4.007  0.2660 -0.1860  0.0399
 6886TIP3   OH242072   2.577   5.390   1.225  0.3747  0.2486  0.4120
 6886TIP3    H142073   2.570   5.464   1.165 -0.0766  0.0694  0.2406
 6886TIP3    H242074   2.540   5.316   1.177 -0.9730  0.3312  1.2891
 6887TIP3   OH242075   5.340   3.119  13.499 -0.4602  0.1397  0.6048
 6887TIP3    H142076   5.352   3.123  13.404 -0.5253  0.2852  0.6024
 6887TIP3    H242077   5.397   3.048  13.528 -0.5976 -0.0434  0.4307
 6888TIP3   OH242078   3.567   4.979   5.544 -0.7341 -0.0432 -0.1771
 6888TIP3    H142079   3.652   5.011   5.512  0.0643 -1.3900  0.5152
 6888TIP3    H242080   3.515   5.058   5.557  0.6379  0.8654  0.0138
 6889TIP3   OH242081   1.408   5.746  10.569  0.2948 -0.2383  0.2381
 6889TIP3    H142082   1.377   5.817  10.625  0.5622 -0.7357  1.0299
 6889TIP3    H242083   1.331   5.691  10.556  0.0322  0.3052 -0.5585
 6890TIP3   OH242084   5.217   0.598   6.077 -0.3813  0.9807 -0.1794
 6890TIP3    H142085   5.218   0.510   6.115 -0.8160  1.7240  1.6192
 6890TIP3    H242086   5.193   0.583   5.985  1.1651 -0.9152 -0.3582
 6891TIP3   OH242087   5.906   1.338   3.369 -0.5257 -0.4386  0.2164
 6891TIP3    H142088   5.849   1.411   3.343 -0.3374 -0.4344 -0.1928
 6891TIP3    H242089   5.953   1.315   3.289 -0.0045 -0.4878  0.5329
 6892TIP3   OH242090   3.226   4.502   4.212 -0.0378 -0.4525  0.1335
 6892TIP3    H142091   3.208   4.432   4.275  0.3559 -1.7287 -1.1280
 6892TIP3    H242092   3.292   4.465   4.153 -0.6551  0.5557 -1.2403
 6893TIP3   OH242093   0.985   5.049   3.578 -0.8481  0.5384 -0.1140
 6893TIP3    H142094   1.007   5.090   3.495  2.7378 -0.3188  0.2472
 6893TIP3    H242095   1.010   5.114   3.645 -0.1737 -0.1353  0.3151
 6894TIP3   OH242096   4.067   3.059   5.310  0.1566 -0.4188 -0.3515
 6894TIP3    H142097   4.059   3.153   5.328 -1.0203 -0.6586  0.4206
 6894TIP3    H242098   3.984   3.035   5.269 -0.0846 -1.3906  0.6662
 6895TIP3   OH242099   6.261   3.007  16.990  0.3907 -0.3143  0.2653
 6895TIP3    H142100   6.323   2.935  16.999  1.3093  0.4890  0.4858
 6895TIP3    H242101   6.252   3.019  16.895 -0.3352 -1.1808  0.2090
 6896TIP3   OH242102   6.693   0.692  15.924  0.0586 -0.1024  0.1153
 6896TIP3    H142103   6.655   0.619  15.973  0.6738 -0.6949 -0.2694
 6896TIP3    H242104   6.706   0.657  15.835 -1.2578  1.0203 -0.5556
 6897TIP3   OH242105   5.776   0.471   0.223  0.0324 -0.6135 -0.0287
 6897TIP3    H142106   5.820   0.544   0.267 -1.7291  0.6430 -0.2367
 6897TIP3    H242107   5.825   0.459   0.142 -0.2685  1.1053 -0.5114
 6898TIP3   OH242108   6.312   1.123   4.369  0.1220  0.5047 -0.2450
 6898TIP3    H142109   6.339   1.041   4.412  0.1446  1.0247  0.7686
 6898TIP3    H242110   6.352   1.119   4.282 -0.8575 -1.0940 -0.6543
 6899TIP3   OH242111   1.158   3.693  16.356  0.5658 -0.2598  0.7680
 6899TIP3    H142112   1.226   3.717  16.293  0.8250  0.8839  1.4587
 6899TIP3    H242113   1.077   3.724  16.317  0.5553 -0.7711  0.3784
 6900TIP3   OH242114   2.675   0.454   1.755 -0.1160  0.0018  0.1667
 6900TIP3    H142115   2.760   0.487   1.783  1.2392 -1.3525 -2.1495
 6900TIP3    H242116   2.625   0.532   1.733  1.6288  0.7474 -1.3753
 6901TIP3   OH242117   4.874   1.901  12.092 -0.1871 -0.6130 -0.4380
 6901TIP3    H142118   4.870   1.978  12.150  2.2457  0.8771 -2.0676
 6901TIP3    H242119   4.796   1.908  12.038  0.0391  0.8492 -0.6394
 6902TIP3   OH242120   4.028   4.838  15.666  0.5917  0.0099  0.1944
 6902TIP3    H142121   4.086   4.785  15.611  0.0567 -0.8875  0.4754
 6902TIP3    H242122   3.953   4.858  15.609  0.7385  0.3646  0.1258
 6903TIP3   OH242123   6.656   6.549  15.501 -0.2225 -0.0426  0.4972
 6903TIP3    H142124   6.604   6.470  15.515  0.9117 -1.0113 -0.5183
 6903TIP3    H242125   6.661   6.590  15.588 -0.4918 -1.3096  1.1302
 6904TIP3   OH242126   4.614   5.655  15.708  0.4347 -0.3677  0.2596
 6904TIP3    H142127   4.533   5.604  15.719  1.0153 -0.8140  3.6308
 6904TIP3    H242128   4.682   5.599  15.745  1.7169  1.3763  0.6650
 6905TIP3   OH242129   5.353   5.197   2.797  0.8344  0.0520 -0.5559
 6905TIP3    H142130   5.317   5.121   2.751  1.6190 -0.2341 -0.7036
 6905TIP3    H242131   5.296   5.269   2.771  0.3778 -0.3891 -0.8054
 6906TIP3   OH242132   4.956   4.796   6.107  0.0590  0.2609  0.7500
 6906TIP3    H142133   4.976   4.732   6.039  1.4722  1.0256  0.3921
 6906TIP3    H242134   4.905   4.748   6.172  3.9755 -2.3066  2.3189
 6907TIP3   OH242135   2.994   4.975   4.082 -0.2528 -0.3475  0.9655
 6907TIP3    H142136   3.001   5.054   4.028  2.6572  0.0859  1.8337
 6907TIP3    H242137   3.026   4.905   4.026 -2.4588 -0.9445  0.3355
 6908TIP3   OH242138   4.663   5.069  16.945 -0.4232 -0.2414 -0.2452
 6908TIP3    H142139   4.571   5.053  16.961 -0.5385 -0.0272 -0.6791
 6908TIP3    H242140   4.677   5.161  16.968 -0.0070 -0.6314  1.1616
 6909TIP3   OH242141   2.552   2.185  14.453 -0.0356 -0.3975 -0.2853
 6909TIP3    H142142   2.603   2.146  14.382  1.0172 -0.3438  0.4130
 6909TIP3    H242143   2.473   2.132  14.457 -0.5732  0.1976 -2.1248
 6910TIP3   OH242144   3.042   5.527   4.390 -0.3384 -0.4008  0.9106
 6910TIP3    H142145   3.069   5.500   4.302  1.2406 -0.9244  1.5095
 6910TIP3    H242146   3.067   5.619   4.395 -1.9023  0.0944  0.2988
 6911TIP3   OH242147   1.674   0.772   3.691  0.2755 -0.1030  0.7300
 6911TIP3    H142148   1.663   0.689   3.645 -0.2378  1.1055 -1.4683
 6911TIP3    H242149   1.695   0.747   3.781  1.7467 -2.6153 -0.2139
 6912TIP3   OH242150   0.343   1.657   1.772 -0.5358 -0.1954 -0.1676
 6912TIP3    H142151   0.401   1.584   1.749 -1.1919 -0.2861 -1.7034
 6912TIP3    H242152   0.346   1.714   1.695 -1.0292  0.7521  0.4957
 6913TIP3   OH242153   0.969   4.683   3.204 -0.0472  0.2726 -0.1037
 6913TIP3    H142154   0.975   4.591   3.230 -0.4163  0.2420 -0.1327
 6913TIP3    H242155   1.057   4.717   3.220 -0.2775  0.2900  1.3252
 6914TIP3   OH242156   1.394   2.603  13.896  0.8427 -0.7204  0.2794
 6914TIP3    H142157   1.312   2.581  13.851  0.7235  1.8519 -0.9541
 6914TIP3    H242158   1.367   2.623  13.985 -0.5184  2.7380 -0.7052
 6915TIP3   OH242159   1.784   1.062   5.872  0.3018  0.1710  0.3491
 6915TIP3    H142160   1.829   1.081   5.789 -0.9277  2.0087  0.0659
 6915TIP3    H242161   1.821   1.124   5.934 -0.2540  0.1850  0.6715
 6916TIP3   OH242162   2.987   4.865   1.121 -0.0053 -0.0427 -0.0197
 6916TIP3    H142163   2.941   4.852   1.038 -0.4930  0.1490  0.2210
 6916TIP3    H242164   3.045   4.789   1.128 -0.2976 -0.2958 -0.3096
 6917TIP3   OH242165   0.460   4.671  14.759  0.1400  0.3484 -0.2333
 6917TIP3    H142166   0.404   4.708  14.690 -1.4117 -1.4643 -0.0376
 6917TIP3    H242167   0.526   4.620  14.712  1.1411  1.7589 -0.4324
 6918TIP3   OH242168   4.513   2.694  17.000  0.2646  0.0244  0.1140
 6918TIP3    H142169   4.503   2.632  16.928  0.5260  0.8782 -0.6735
 6918TIP3    H242170   4.522   2.638  17.078 -2.0759 -0.9202 -0.1836
 6919TIP3   OH242171   3.229   3.503  14.397 -0.5589  0.6473 -0.4147
 6919TIP3    H142172   3.320   3.476  14.386 -0.2808  1.7992 -1.1583
 6919TIP3    H242173   3.180   3.421  14.400  0.3331  0.0283 -1.6645
 6920TIP3   OH242174   3.507   4.148  12.931 -0.2044 -0.5759  0.3704
 6920TIP3    H142175   3.431   4.174  12.982 -0.4063 -0.4030 -0.0130
 6920TIP3    H242176   3.572   4.123  12.996 -0.2934  0.0971  0.7315
 6921TIP3   OH242177   1.856   2.180  13.838  0.3977  0.1563 -0.8235
 6921TIP3    H142178   1.884   2.141  13.921 -0.3724 -0.9920 -1.0901
 6921TIP3    H242179   1.850   2.107  13.778  3.2783  1.2333 -2.6172
 6922TIP3   OH242180   0.179   4.142   2.854 -0.1991  0.0664 -0.0947
 6922TIP3    H142181   0.226   4.150   2.938 -0.0602 -0.0563 -0.1593
 6922TIP3    H242182   0.244   4.168   2.788 -0.0087 -0.7325 -0.2396
 6923TIP3   OH242183   6.229   5.708  13.255 -0.6822 -0.6539 -0.7094
 6923TIP3    H142184   6.244   5.801  13.235 -1.2022 -0.4255 -0.0660
 6923TIP3    H242185   6.138   5.693  13.231 -0.5039 -1.0878 -1.1216
 6924TIP3   OH242186   2.482   0.855  11.644  0.2170  0.3761  0.7559
 6924TIP3    H142187   2.532   0.837  11.565  0.3803  0.8032  0.7589
 6924TIP3    H242188   2.530   0.925  11.687  0.0232  0.2759  1.1363
 6925TIP3   OH242189   2.947   6.376   4.523 -0.2511 -0.1312  0.3027
 6925TIP3    H142190   2.987   6.340   4.443  0.2930 -1.1227  1.0038
 6925TIP3    H242191   2.863   6.331   4.531 -0.9251  0.9424 -0.4114
 6926TIP3   OH242192   3.327   0.403   0.215  0.2869 -0.3287  0.4488
 6926TIP3    H142193   3.390   0.468   0.183 -0.1427  0.5421  1.3142
 6926TIP3    H242194   3.336   0.329   0.154 -0.8431  1.4057 -1.9755
 6927TIP3   OH242195   3.890   2.058   3.364  0.2706  0.3650  0.0121
 6927TIP3    H142196   3.846   2.023   3.286 -1.9402  0.0103  1.3443
 6927TIP3    H242197   3.977   2.083   3.333  0.2452 -1.8034 -2.0662
 6928TIP3   OH242198   5.865   2.807   0.378 -0.3324 -0.1261  0.7467
 6928TIP3    H142199   5.856   2.727   0.325 -0.2468 -0.4060  1.1517
 6928TIP3    H242200   5.959   2.818   0.389 -0.3208  0.3088  0.2850
 6929TIP3   OH242201   1.653   0.158  13.252  0.3813  0.4562 -0.1187
 6929TIP3    H142202   1.602   0.156  13.171  0.6092  0.1933 -0.2596
 6929TIP3    H242203   1.744   0.148  13.223  0.2955 -2.5059  0.3187
 6930TIP3   OH242204   2.487   0.397   3.218  0.1367  0.8018  0.0112
 6930TIP3    H142205   2.578   0.367   3.208 -0.1670 -0.0534 -0.2894
 6930TIP3    H242206   2.434   0.319   3.201 -0.6427  1.1590  0.7452
 6931TIP3   OH242207   1.843   0.245   4.281 -0.2101  0.5088  0.3048
 6931TIP3    H142208   1.770   0.203   4.235 -0.9929  2.4562 -0.3451
 6931TIP3    H242209   1.900   0.173   4.307 -0.7558 -0.8447 -1.9684
 6932TIP3   OH242210   3.049   4.875   3.079  0.4961 -0.3450  0.1004
 6932TIP3    H142211   3.031   4.786   3.052  3.3710 -1.4555  1.3906
 6932TIP3    H242212   2.964   4.910   3.105 -0.7706 -2.5628 -0.7959
 6933TIP3   OH242213   6.614   5.780  12.690 -0.1678 -0.3754  0.3139
 6933TIP3    H142214   6.627   5.843  12.761 -1.3379  0.2443  0.0209
 6933TIP3    H242215   6.552   5.717  12.725  0.6746 -1.1402  0.4576
 6934TIP3   OH242216   5.328   2.381  15.491 -0.1312 -0.9419 -0.1296
 6934TIP3    H142217   5.293   2.304  15.446 -0.8066 -0.9726  0.4473
 6934TIP3    H242218   5.423   2.378  15.473  0.0087 -2.4858  0.7537
 6935TIP3   OH242219   2.930   2.495   1.838  0.4629 -0.7286 -0.6613
 6935TIP3    H142220   2.852   2.549   1.850  1.0842  0.3841 -1.4353
 6935TIP3    H242221   2.976   2.536   1.764  1.3705 -1.8401 -0.7353
 6936TIP3   OH242222   5.158   6.648   2.703  0.4340 -0.3293  0.0548
 6936TIP3    H142223   5.177   6.741   2.689  1.1475 -0.4075  0.4392
 6936TIP3    H242224   5.072   6.634   2.662  0.4903  0.4122 -0.3283
 6937TIP3   OH242225   2.986   1.683   4.339 -0.1473  0.3191  0.0914
 6937TIP3    H142226   2.891   1.681   4.353 -0.0603 -0.6359  0.6486
 6937TIP3    H242227   3.009   1.592   4.321  0.8442  0.3020  1.3136
 6938TIP3   OH242228   6.467   0.625  12.999 -0.1875  0.1442 -0.5502
 6938TIP3    H142229   6.390   0.669  12.962 -0.4868  0.3417  0.2809
 6938TIP3    H242230   6.490   0.677  13.075  0.7902  0.0866 -0.7983
 6939TIP3   OH242231   0.145   6.485   0.155 -0.3650  0.4680  0.2906
 6939TIP3    H142232   0.129   6.442   0.071  0.8907 -0.2166  0.3793
 6939TIP3    H242233   0.203   6.426   0.201 -0.8588  0.9490  1.5680
 6940TIP3   OH242234   6.760   1.453  13.543 -0.3259 -0.3071  0.0755
 6940TIP3    H142235   6.740   1.435  13.451  0.8543 -0.2389 -0.2112
 6940TIP3    H242236   6.679   1.490  13.578 -0.0506  2.1778 -1.6220
 6941TIP3   OH242237   2.074   5.575  13.223 -0.0747 -0.0523  0.7846
 6941TIP3    H142238   1.991   5.539  13.191  0.1542 -1.7507  1.9566
 6941TIP3    H242239   2.131   5.576  13.146 -0.8904  0.2387  0.1743
 6942TIP3   OH242240   6.146   2.082  13.025 -0.4127 -0.3314  0.0576
 6942TIP3    H142241   6.082   2.093  12.955  1.6957  1.3648 -1.7875
 6942TIP3    H242242   6.180   2.170  13.040  0.9086 -1.0367  1.5226
 6943TIP3   OH242243   2.604   1.459  10.874  0.3225 -0.2768 -0.5679
 6943TIP3    H142244   2.538   1.394  10.897 -0.8611  0.9311 -0.4405
 6943TIP3    H242245   2.577   1.539  10.920  2.4883 -0.0170  0.3857
 6944TIP3   OH242246   2.183   1.654  13.628 -0.5495 -0.1506 -0.4446
 6944TIP3    H142247   2.184   1.736  13.578 -0.0967 -0.2341 -0.5830
 6944TIP3    H242248   2.220   1.677  13.713 -2.1665  0.1908  0.2004
 6945TIP3   OH242249   6.346   2.524   1.207  0.3803 -0.0045 -0.1960
 6945TIP3    H142250   6.320   2.537   1.116 -0.3189  0.8653  0.1080
 6945TIP3    H242251   6.313   2.602   1.253 -0.7083 -1.1645  1.0873
 6946TIP3   OH242252   1.409   4.548   0.206  0.6396 -0.2741  0.2689
 6946TIP3    H142253   1.451   4.617   0.257 -2.3235  2.1371 -0.2731
 6946TIP3    H242254   1.318   4.546   0.237  0.2143 -2.8528 -0.8734
 6947TIP3   OH242255   4.342   0.850  15.204  0.1449 -0.0335 -0.2239
 6947TIP3    H142256   4.275   0.918  15.195 -0.6595 -0.8431 -0.6733
 6947TIP3    H242257   4.332   0.797  15.124 -0.8277 -2.0032  1.1241
 6948TIP3   OH242258   1.923   2.959   5.020  0.1211 -0.3722  0.6622
 6948TIP3    H142259   1.879   3.029   5.069 -0.4871 -0.1469 -0.1769
 6948TIP3    H242260   1.911   2.881   5.073 -1.0569 -0.2534  0.5939
 6949TIP3   OH242261   6.255   0.548   5.938  0.1080  0.8175 -0.3155
 6949TIP3    H142262   6.285   0.591   5.858  0.8917  1.0590  0.0956
 6949TIP3    H242263   6.325   0.487   5.960 -0.3445  0.3669 -0.1006
 6950TIP3   OH242264   2.269   2.037  17.015 -0.8015 -0.4423  0.1271
 6950TIP3    H142265   2.228   2.071  17.094 -0.6122 -0.5734  0.2824
 6950TIP3    H242266   2.264   1.942  17.025  0.8384 -0.4931  0.8404
 6951TIP3   OH242267   0.687   4.841   3.834  0.1256  0.3025 -0.0494
 6951TIP3    H142268   0.597   4.866   3.816 -0.3767 -2.5979 -2.3429
 6951TIP3    H242269   0.682   4.777   3.904  0.5290  0.8255  0.4677
 6952TIP3   OH242270   0.361   6.159   3.201 -0.6558 -0.1942 -0.1664
 6952TIP3    H142271   0.343   6.204   3.284  0.4286  0.8132 -0.4446
 6952TIP3    H242272   0.299   6.199   3.139 -0.9179 -0.3741 -0.0236
 6953TIP3   OH242273   0.298   0.317  12.004  0.2242 -0.0433  0.1459
 6953TIP3    H142274   0.208   0.341  12.026  0.2001  0.4802 -0.4712
 6953TIP3    H242275   0.289   0.259  11.928  0.3962 -0.1601  0.2140
 6954TIP3   OH242276   3.176   0.800  14.328 -0.3787 -0.4684 -0.3742
 6954TIP3    H142277   3.188   0.742  14.403  0.6099  0.6664  0.3854
 6954TIP3    H242278   3.263   0.809  14.290  0.1285  2.5826  1.1646
 6955TIP3   OH242279   5.149   4.247   4.661 -0.4135  0.5686 -0.5608
 6955TIP3    H142280   5.131   4.310   4.591 -1.3657  1.9884  0.8781
 6955TIP3    H242281   5.243   4.233   4.657 -0.2095  1.8762 -1.1165
 6956TIP3   OH242282   1.057   6.311  12.519  0.0841  0.6826 -0.4350
 6956TIP3    H142283   1.141   6.357  12.520  0.4973  0.0899  2.3586
 6956TIP3    H242284   0.994   6.374  12.554 -0.3426  0.6413 -1.1113
 6957TIP3   OH242285   2.802   2.715   4.328 -0.3705 -0.0445  0.3171
 6957TIP3    H142286   2.816   2.757   4.413  2.0386 -1.2927  0.6232
 6957TIP3    H242287   2.732   2.651   4.346  0.9697 -1.1981  1.7705
 6958TIP3   OH242288   5.081   6.723   4.052 -0.2983  0.2503 -0.5021
 6958TIP3    H142289   5.084   6.800   4.109  1.3466 -0.1206 -0.0279
 6958TIP3    H242290   5.083   6.648   4.113  1.6706 -0.1553 -0.9997
 6959TIP3   OH242291   2.752   1.789   0.807 -0.1154  0.1122  0.3221
 6959TIP3    H142292   2.684   1.723   0.790 -2.5974  2.9522 -1.9493
 6959TIP3    H242293   2.776   1.775   0.898 -1.7505 -2.8148  0.4250
 6960TIP3   OH242294   4.946   1.944  16.683 -0.4519 -0.3758 -0.5889
 6960TIP3    H142295   4.980   1.920  16.597  0.6896 -1.2229  0.0776
 6960TIP3    H242296   4.987   2.029  16.702 -0.3033 -0.4325 -0.6578
 6961TIP3   OH242297   0.513   1.027  11.473 -0.1289 -0.3252 -0.2779
 6961TIP3    H142298   0.465   0.960  11.424  0.9107 -0.5537 -1.0202
 6961TIP3    H242299   0.505   1.001  11.564 -2.2456  0.1911 -0.2520
 6962TIP3   OH242300   4.284   1.719   1.079  0.1760 -0.1235  0.0820
 6962TIP3    H142301   4.353   1.779   1.107  0.0688 -0.5231  1.2907
 6962TIP3    H242302   4.320   1.673   1.003  0.9155  0.2567  0.2025
 6963TIP3   OH242303   4.600   2.493   4.120 -0.3789 -0.0828  0.5889
 6963TIP3    H142304   4.591   2.556   4.048  0.2593 -1.3994 -0.6930
 6963TIP3    H242305   4.523   2.437   4.114 -0.6117  0.1464  1.3097
 6964TIP3   OH242306   1.704   2.932  12.343 -0.3542  0.1436  0.9934
 6964TIP3    H142307   1.702   2.905  12.251  0.9439 -2.1284  1.5761
 6964TIP3    H242308   1.652   2.867  12.389 -1.4294  1.5534  1.8703
 6965TIP3   OH242309   5.361   6.074  12.893 -0.0580 -0.5202 -0.3662
 6965TIP3    H142310   5.369   5.996  12.838  0.1485 -0.5358 -0.3145
 6965TIP3    H242311   5.362   6.039  12.983  0.4750 -0.4239 -0.3307
 6966TIP3   OH242312   5.010   0.893   5.163  0.2577  1.1923 -0.1939
 6966TIP3    H142313   4.925   0.886   5.121 -0.5318 -1.4708  1.5931
 6966TIP3    H242314   5.073   0.862   5.098 -0.4278  1.0174 -0.7739
 6967TIP3   OH242315   4.391   0.130   5.596  0.5461 -0.3461 -0.1168
 6967TIP3    H142316   4.296   0.124   5.587  0.6658  0.2050 -2.0789
 6967TIP3    H242317   4.412   0.069   5.667 -1.6260  2.2470  3.0353
 6968TIP3   OH242318   3.932   4.356   3.330 -0.0111  0.2014 -0.3604
 6968TIP3    H142319   3.941   4.367   3.424  0.9763  1.6428 -0.5904
 6968TIP3    H242320   3.987   4.279   3.310 -0.0007  0.0607  0.1978
 6969TIP3   OH242321   3.243   1.952  16.422 -0.7473 -0.0224 -0.0160
 6969TIP3    H142322   3.261   1.858  16.420  1.7872  0.3699  0.8541
 6969TIP3    H242323   3.152   1.958  16.454 -1.2662 -2.1567 -0.9141
 6970TIP3   OH242324   0.067   3.940  13.874 -0.3545 -0.0727  0.6434
 6970TIP3    H142325   0.037   4.024  13.839 -1.4819 -0.7208 -0.0380
 6970TIP3    H242326   0.079   3.885  13.796  0.2004 -0.5968  1.0947
 6971TIP3   OH242327   0.680   5.020  15.386  0.0314 -0.2231 -0.1021
 6971TIP3    H142328   0.657   5.028  15.294 -0.4939 -0.5290 -0.0012
 6971TIP3    H242329   0.639   4.938  15.414 -0.9091  0.5067  0.7351
 6972TIP3   OH242330   1.146   3.660  11.877  0.0784  0.8014 -0.0067
 6972TIP3    H142331   1.241   3.670  11.867  0.1017 -0.0620 -0.7151
 6972TIP3    H242332   1.118   3.742  11.918  1.0801  1.2036 -0.0971
 6973TIP3   OH242333   4.117   5.491  13.458 -0.1378  0.2036 -0.7383
 6973TIP3    H142334   4.065   5.545  13.517 -0.4613 -0.0065 -0.8293
 6973TIP3    H242335   4.189   5.458  13.513 -0.3640  0.1115 -0.4946
 6974TIP3   OH242336   0.903   2.290   1.007  0.2086 -0.2756  0.3177
 6974TIP3    H142337   0.815   2.322   1.026  1.1181  1.4470  1.9256
 6974TIP3    H242338   0.946   2.362   0.961  0.6162 -1.3542 -1.0680
 6975TIP3   OH242339   1.090   2.371  14.816 -0.2170 -0.0403  0.2731
 6975TIP3    H142340   1.156   2.343  14.753 -0.1208  1.2492 -0.2389
 6975TIP3    H242341   1.098   2.309  14.889  1.1330 -0.2751 -0.0504
 6976TIP3   OH242342   4.552   1.398   1.542 -0.1482  0.2416  0.3292
 6976TIP3    H142343   4.631   1.379   1.492  0.5294  1.5680  0.8452
 6976TIP3    H242344   4.481   1.356   1.493  0.5606  0.9985 -1.4038
 6977TIP3   OH242345   3.795   1.038  14.289  0.3326  0.2556  0.5732
 6977TIP3    H142346   3.838   1.078  14.364 -1.0164  0.6943  1.1535
 6977TIP3    H242347   3.830   0.949  14.285  1.1614  0.5532  1.0986
 6978TIP3   OH242348   1.325   2.317  14.659  0.1379 -0.2347  0.2893
 6978TIP3    H142349   1.366   2.251  14.715 -0.2653  0.2636  1.1977
 6978TIP3    H242350   1.386   2.328  14.586  1.6377  0.4765  1.5989
 6979TIP3   OH242351   0.950   0.315   5.812 -0.0943  0.3737  0.1996
 6979TIP3    H142352   1.008   0.387   5.788 -0.4169  0.5629 -0.0295
 6979TIP3    H242353   1.008   0.244   5.838  0.2353  0.5892  0.0496
 6980TIP3   OH242354   3.324   2.730   4.921  0.0825 -0.4795  0.5080
 6980TIP3    H142355   3.281   2.767   4.844 -0.4193  0.6346  1.2876
 6980TIP3    H242356   3.255   2.681   4.966  0.0232 -0.0414  0.9105
 6981TIP3   OH242357   1.913   2.022  12.883 -0.0195  0.0231  0.5493
 6981TIP3    H142358   1.852   2.063  12.823 -0.4411 -0.0420  0.9271
 6981TIP3    H242359   1.995   2.070  12.871 -0.3252  0.5390  0.5112
 6982TIP3   OH242360   1.940   6.644   0.396  0.3300 -0.7070  0.0972
 6982TIP3    H142361   1.900   6.699   0.464 -0.0178 -0.0276 -0.6453
 6982TIP3    H242362   1.872   6.635   0.329  1.2040 -0.0393 -0.9048
 6983TIP3   OH242363   4.990   1.318   1.113 -0.2359 -0.0965  1.1370
 6983TIP3    H142364   4.964   1.289   1.201  0.6587  0.7967  1.7251
 6983TIP3    H242365   5.029   1.240   1.073  2.2148  0.1932  2.7215
 6984TIP3   OH242366   1.861   4.786   2.209  0.1597  0.6863  0.3186
 6984TIP3    H142367   1.783   4.764   2.158  1.8493 -1.1768 -1.7240
 6984TIP3    H242368   1.846   4.746   2.294 -1.0099  0.1373 -0.1156
 6985TIP3   OH242369   1.967   5.600   5.832 -0.3687 -0.1119  0.1111
 6985TIP3    H142370   2.040   5.659   5.849 -0.2871 -0.3881  0.7464
 6985TIP3    H242371   1.892   5.643   5.874 -0.6837  0.4272 -0.9842
 6986TIP3   OH242372   3.161   2.171  12.451 -0.0268 -0.2980 -0.5566
 6986TIP3    H142373   3.218   2.240  12.485 -0.9365  0.1062  0.1943
 6986TIP3    H242374   3.197   2.151  12.365  0.9554  0.2878 -0.2968
 6987TIP3   OH242375   3.513   1.501   3.725  0.0675  0.3379  0.7530
 6987TIP3    H142376   3.541   1.592   3.721  0.8289  0.1407  1.3196
 6987TIP3    H242377   3.455   1.490   3.649  1.5794  0.7685 -0.5123
 6988TIP3   OH242378   6.697   4.797  16.088 -0.1110 -0.4370 -0.4147
 6988TIP3    H142379   6.650   4.847  16.021 -1.2049 -1.0910 -0.1708
 6988TIP3    H242380   6.746   4.862  16.137 -0.4215  0.2240 -0.9622
 6989TIP3   OH242381   3.267   4.684  12.758 -0.3238  0.2597  0.8517
 6989TIP3    H142382   3.277   4.746  12.686  0.5557 -0.7545  0.0593
 6989TIP3    H242383   3.287   4.598  12.719  0.1070 -0.3259  2.2736
 6990TIP3   OH242384   5.093   0.399   3.607 -0.1639 -0.2482 -0.8071
 6990TIP3    H142385   5.045   0.317   3.593  0.0924 -0.3794 -0.9339
 6990TIP3    H242386   5.119   0.426   3.519  1.2210 -0.9267 -0.6226
 6991TIP3   OH242387   5.189   3.541   4.234 -0.1702 -0.0631 -0.3735
 6991TIP3    H142388   5.215   3.603   4.166 -1.5596  0.3688 -0.5310
 6991TIP3    H242389   5.179   3.594   4.312 -0.6192 -0.2157 -0.3270
 6992TIP3   OH242390   4.560   0.046  11.162  0.0963  0.3440  0.0906
 6992TIP3    H142391   4.597   0.045  11.073 -0.1947  0.4280 -0.0313
 6992TIP3    H242392   4.595  -0.034  11.202 -0.6353 -0.2712 -0.4589
 6993TIP3   OH242393   0.991   0.577  15.212 -0.0684 -0.4483 -0.1763
 6993TIP3    H142394   0.973   0.523  15.289  0.0039 -0.6392 -0.2904
 6993TIP3    H242395   1.086   0.571  15.200  0.0749  0.5079  0.3911
 6994TIP3   OH242396   5.025   5.520   2.029  0.1244  0.3910  0.2266
 6994TIP3    H142397   5.021   5.531   2.124  1.4942  0.7715  0.2561
 6994TIP3    H242398   5.054   5.430   2.017  0.1334  0.4019  0.1666
 6995TIP3   OH242399   5.215   2.744   4.201 -0.1505  0.3312  0.1580
 6995TIP3    H142400   5.269   2.808   4.248  1.2471  0.9377 -2.0923
 6995TIP3    H242401   5.242   2.659   4.236  1.2629  0.7241  0.0610
 6996TIP3   OH242402   2.407   4.841  16.404  0.4238  0.1453 -0.4039
 6996TIP3    H142403   2.475   4.784  16.369  1.5595  1.9738 -1.3161
 6996TIP3    H242404   2.398   4.814  16.496  0.8969 -1.4744 -0.8021
 6997TIP3   OH242405   5.773   5.879   2.092  0.6005 -0.4718  0.1386
 6997TIP3    H142406   5.683   5.858   2.066  0.6440 -1.2129  0.5581
 6997TIP3    H242407   5.763   5.939   2.166  0.4517 -0.5095  0.1500
 6998TIP3   OH242408   3.203   3.271  14.105 -0.3066  0.0647 -0.4555
 6998TIP3    H142409   3.210   3.313  14.020  1.1340  2.1478  0.5952
 6998TIP3    H242410   3.117   3.298  14.138 -1.1926 -1.3561 -1.4783
 6999TIP3   OH242411   0.612   6.549   3.296  0.5128  0.4425 -0.4374
 6999TIP3    H142412   0.622   6.612   3.225  3.4460  0.9374  0.3094
 6999TIP3    H242413   0.556   6.593   3.360 -4.1040 -0.8059 -3.1100
 7000TIP3   OH242414   4.401   4.106   5.388  0.1025  0.4319 -0.2202
 7000TIP3    H142415   4.428   4.057   5.465  0.5549  2.2946  0.8737
 7000TIP3    H242416   4.343   4.047   5.341  2.2269 -1.9230 -0.1178
 7001TIP3   OH242417   2.205   3.374   3.829 -0.3683 -0.0703 -0.4206
 7001TIP3    H142418   2.117   3.376   3.867  0.7254 -0.3393  2.2804
 7001TIP3    H242419   2.219   3.464   3.799 -1.6533 -0.0963 -1.2105
 7002TIP3   OH242420   5.742   3.809   3.500 -0.9717 -0.0578  0.1166
 7002TIP3    H142421   5.678   3.756   3.453  0.2723 -1.4795 -0.0798
 7002TIP3    H242422   5.781   3.748   3.563 -0.4915  1.0180  0.8856
 7003TIP3   OH242423   5.018   0.115   4.268  0.0770 -0.0985 -0.6923
 7003TIP3    H142424   5.012   0.208   4.292  0.4144 -0.6812  1.8712
 7003TIP3    H242425   5.060   0.073   4.343  0.1043 -2.3234 -1.8738
 7004TIP3   OH242426   0.588   3.414   4.209 -0.2352 -0.1841  0.0373
 7004TIP3    H142427   0.622   3.449   4.291  1.4322  1.4355 -1.2790
 7004TIP3    H242428   0.610   3.321   4.212  1.8030  0.2709  0.4956
 7005TIP3   OH242429   3.774   0.208  17.265  0.0281  0.0532 -0.6024
 7005TIP3    H142430   3.794   0.125  17.309  0.4446  0.6979  0.4574
 7005TIP3    H242431   3.860   0.245  17.245 -0.1473  0.4735 -0.5806
 7006TIP3   OH242432   1.738   5.454   0.476 -0.2560  0.2851 -0.2691
 7006TIP3    H142433   1.787   5.402   0.412  1.1067  0.8956  0.2482
 7006TIP3    H242434   1.752   5.409   0.559 -0.3692  0.5940 -0.0803
 7007TIP3   OH242435   5.078   1.440  16.319 -0.0249 -0.0033  0.4431
 7007TIP3    H142436   5.098   1.497  16.244 -0.1077 -0.1950  0.2728
 7007TIP3    H242437   5.162   1.401  16.342 -0.0394 -0.1189  0.3030
 7008TIP3   OH242438   2.850   0.152   2.565  0.3755  0.1642  0.6820
 7008TIP3    H142439   2.945   0.144   2.561  0.2858 -1.2279  0.8518
 7008TIP3    H242440   2.817   0.070   2.528 -0.7222 -0.2475  2.4313
 7009TIP3   OH242441   5.680   5.760  13.579 -0.2971  0.0570  0.2253
 7009TIP3    H142442   5.695   5.669  13.606 -0.2425 -0.0095 -0.0263
 7009TIP3    H242443   5.587   5.774  13.593 -0.4022 -0.1920 -0.1951
 7010TIP3   OH242444   0.927   4.860  16.162  0.2652 -0.4248  0.5497
 7010TIP3    H142445   0.983   4.787  16.189 -0.4885 -0.8471  0.9886
 7010TIP3    H242446   0.965   4.889  16.078  2.3905  0.6488  1.7873
 7011TIP3   OH242447   4.284   0.464  14.825 -0.3333 -0.4041 -0.2941
 7011TIP3    H142448   4.294   0.474  14.919 -0.0074 -1.0423 -0.2602
 7011TIP3    H242449   4.189   0.464  14.811 -0.3957 -0.9714  0.1081
 7012TIP3   OH242450   0.672   3.983   2.106  0.1257  0.1134  0.0338
 7012TIP3    H142451   0.673   3.929   2.185  0.1830 -1.8996 -1.2836
 7012TIP3    H242452   0.759   4.024   2.104  1.0076 -1.6783 -0.1662
 7013TIP3   OH242453   4.276   6.271  12.153  0.4209 -0.1907  0.8097
 7013TIP3    H142454   4.371   6.280  12.147  0.5135  0.5541  2.6638
 7013TIP3    H242455   4.261   6.242  12.243 -1.0787 -1.0969  0.2938
 7014TIP3   OH242456   6.231   1.520   4.905 -0.5563 -0.9372  0.3694
 7014TIP3    H142457   6.233   1.583   4.832 -0.3558 -1.4149 -0.0388
 7014TIP3    H242458   6.160   1.460   4.883 -1.4215 -0.2849  1.2549
 7015TIP3   OH242459   3.078   6.281   4.306  0.9299 -0.1456  0.2436
 7015TIP3    H142460   3.160   6.240   4.332  0.3482 -0.8568  1.0146
 7015TIP3    H242461   3.030   6.211   4.261  1.1438  0.5432 -1.0966
 7016TIP3   OH242462   4.180   4.079   4.280 -0.0351  0.2841  0.9092
 7016TIP3    H142463   4.123   4.129   4.339  0.5357 -0.2809  1.9661
 7016TIP3    H242464   4.245   4.143   4.250 -0.1713  0.5119  1.1020
 7017TIP3   OH242465   1.222   6.770  14.467  0.3353  0.6715  0.3957
 7017TIP3    H142466   1.317   6.778  14.458  0.7211 -0.1977  2.7945
 7017TIP3    H242467   1.199   6.695  14.413  1.2664  0.0428  0.8278
 7018TIP3   OH242468   5.919   2.180   5.115 -0.3846 -0.0511 -0.3688
 7018TIP3    H142469   5.994   2.196   5.059  0.2047  1.0312  0.6789
 7018TIP3    H242470   5.860   2.127   5.062  2.0064 -2.8298 -0.5050
 7019TIP3   OH242471   2.855   6.641   4.665  0.5638 -0.0202  0.0376
 7019TIP3    H142472   2.893   6.580   4.602 -0.1234  0.0340 -0.4434
 7019TIP3    H242473   2.777   6.675   4.621  0.5131  0.6170  0.6097
 7020TIP3   OH242474   1.297   6.219   4.336  0.0662  0.0885 -0.4067
 7020TIP3    H142475   1.321   6.150   4.274 -1.8485  0.2430 -1.3776
 7020TIP3    H242476   1.318   6.300   4.291  0.8840  0.1798  0.1225
 7021TIP3   OH242477   6.383   1.570   2.044 -0.2797 -0.1282  0.4193
 7021TIP3    H142478   6.328   1.528   2.110 -1.7996 -0.2560 -0.8816
 7021TIP3    H242479   6.430   1.499   2.002  0.2461 -0.1002  0.9401
 7022TIP3   OH242480   5.852   3.498   0.683 -0.2459  0.1106 -0.5698
 7022TIP3    H142481   5.837   3.408   0.713  0.9924 -0.5945 -1.9052
 7022TIP3    H242482   5.900   3.539   0.755 -0.2966 -0.4948 -0.1773
 7023TIP3   OH242483   6.400   1.742  16.001  0.3042 -0.1321  0.1176
 7023TIP3    H142484   6.322   1.687  16.013  0.5712 -0.7766 -0.9728
 7023TIP3    H242485   6.381   1.821  16.051 -0.0502 -1.2283  1.8036
 7024TIP3   OH242486   6.088   1.410   1.598 -0.4828  0.1792 -0.1838
 7024TIP3    H142487   6.176   1.406   1.563 -0.0654  0.4721  0.8023
 7024TIP3    H242488   6.037   1.453   1.529  0.4188  1.2086 -0.2414
 7025TIP3   OH242489   3.283   6.624   4.732 -0.0878  0.3795  0.6046
 7025TIP3    H142490   3.272   6.622   4.637  0.8660 -0.0086  0.4894
 7025TIP3    H242491   3.298   6.717   4.753  0.6553  0.3435  0.2497
 7026TIP3   OH242492   4.614   3.811  16.208 -0.2393 -0.2040 -0.7691
 7026TIP3    H142493   4.698   3.815  16.162  0.7928 -2.0257  0.7963
 7026TIP3    H242494   4.620   3.732  16.263 -1.1885  2.0119  2.8428
 7027TIP3   OH242495   5.408   6.564   2.035 -0.8755  0.0241 -0.1827
 7027TIP3    H142496   5.441   6.474   2.039  0.9261  0.5610 -1.6292
 7027TIP3    H242497   5.364   6.577   2.119  0.3151 -1.6330  0.7605
 7028TIP3   OH242498   5.359   2.134   4.486 -0.1487  0.3077  0.3924
 7028TIP3    H142499   5.308   2.182   4.551  0.0460  0.3984  0.4780
 7028TIP3    H242500   5.358   2.190   4.408 -2.5002 -0.8837 -0.5557
 7029TIP3   OH242501   2.386   5.375  13.750  0.1976  0.6406 -0.1823
 7029TIP3    H142502   2.480   5.394  13.755  0.7503 -1.5725 -1.0015
 7029TIP3    H242503   2.377   5.290  13.794 -0.8552 -0.7443 -2.8789
 7030TIP3   OH242504   3.914   3.935   5.155  0.3141  0.5409 -0.0619
 7030TIP3    H142505   3.871   4.006   5.203 -2.8960 -0.2012 -1.5658
 7030TIP3    H242506   3.906   3.859   5.213 -3.0300 -0.2144 -1.2728
 7031TIP3   OH242507   5.233   6.420  11.915  0.2387  0.2184 -0.3402
 7031TIP3    H142508   5.280   6.443  11.995 -1.0616  3.0759 -0.2727
 7031TIP3    H242509   5.249   6.327  11.904  0.9406 -0.1647  2.9194
 7032TIP3   OH242510   1.783   5.219   3.429  0.1717 -0.4818 -0.1342
 7032TIP3    H142511   1.778   5.252   3.518  0.2174 -0.5189 -0.1181
 7032TIP3    H242512   1.700   5.245   3.389 -0.0070 -0.7954  0.0320
 7033TIP3   OH242513   4.628   5.262  11.802  0.1615 -0.3179 -0.2262
 7033TIP3    H142514   4.642   5.168  11.818  1.2798 -0.1226  0.0660
 7033TIP3    H242515   4.636   5.272  11.708  1.5778 -0.3112 -0.1279
 7034TIP3   OH242516   5.923   2.441  11.143 -0.3980 -0.2766 -0.4859
 7034TIP3    H142517   5.944   2.507  11.077 -4.4782  0.5523 -1.2162
 7034TIP3    H242518   5.930   2.358  11.095 -0.0308  0.0212 -0.9691
 7035TIP3   OH242519   3.415   5.824  10.932 -0.0895  0.0050 -0.4563
 7035TIP3    H142520   3.329   5.786  10.912  0.0257 -1.4891  1.6541
 7035TIP3    H242521   3.478   5.756  10.908  0.4634  0.6825 -0.9869
 7036TIP3   OH242522   1.025   6.015  15.359 -0.5910  0.4469  0.4521
 7036TIP3    H142523   0.995   5.979  15.442 -0.8599  0.8236  0.5170
 7036TIP3    H242524   1.117   5.987  15.354 -1.1369 -1.3860 -0.1305
 7037TIP3   OH242525   4.806   4.645   1.165 -0.2304 -0.1465  0.0617
 7037TIP3    H142526   4.746   4.609   1.230  0.4581 -2.6634 -0.5739
 7037TIP3    H242527   4.879   4.679   1.216 -0.9658  0.4942  0.7051
 7038TIP3   OH242528   4.120   6.525  16.123 -0.3313 -0.3575  0.6942
 7038TIP3    H142529   4.122   6.558  16.212 -1.2245 -0.4948  0.7764
 7038TIP3    H242530   4.088   6.435  16.131 -0.1509 -0.4634  0.2664
 7039TIP3   OH242531   4.237   1.664  12.521  0.3590  0.3749 -0.2678
 7039TIP3    H142532   4.187   1.634  12.597  0.2685  0.3680 -0.3292
 7039TIP3    H242533   4.294   1.734  12.556 -3.4442  4.3249 -1.0724
 7040TIP3   OH242534   3.455   3.352  12.883 -0.1746 -0.1640 -0.1327
 7040TIP3    H142535   3.505   3.295  12.942 -0.9720 -1.0382 -0.2719
 7040TIP3    H242536   3.377   3.377  12.934 -1.8127 -2.4075 -1.3396
 7041TIP3   OH242537   3.691   5.071   5.847 -0.5863 -0.4129  0.0080
 7041TIP3    H142538   3.704   5.088   5.941 -2.4151 -2.0959  0.6292
 7041TIP3    H242539   3.771   5.025   5.821 -0.9747 -1.9391  1.3272
 7042TIP3   OH242540   2.531   1.930  16.263 -0.2059 -0.2130 -0.2381
 7042TIP3    H142541   2.584   1.865  16.310 -0.3336  0.0490  0.2823
 7042TIP3    H242542   2.535   2.008  16.318 -1.0054 -0.1423 -0.2675
 7043TIP3   OH242543   5.804   0.547   0.696 -0.4022  0.0519  0.4286
 7043TIP3    H142544   5.743   0.480   0.665  0.6009 -0.9298  0.5033
 7043TIP3    H242545   5.755   0.629   0.691 -2.1365 -0.8434  1.6250
 7044TIP3   OH242546   5.432   4.086   3.867 -0.3679 -0.4281  0.0108
 7044TIP3    H142547   5.513   4.066   3.822 -1.0112 -0.1633 -1.3241
 7044TIP3    H242548   5.437   4.039   3.950  0.0692 -2.4672 -1.1183
 7045TIP3   OH242549   4.507   5.104   5.337  0.4305  0.7903 -0.2633
 7045TIP3    H142550   4.565   5.106   5.261 -0.8047 -1.9812 -1.4330
 7045TIP3    H242551   4.499   5.011   5.358 -0.6280  1.3622  2.2153
 7046TIP3   OH242552   2.605   0.819  16.137  0.2146  0.0503  0.3589
 7046TIP3    H142553   2.631   0.758  16.069 -0.7498 -0.3355  0.3182
 7046TIP3    H242554   2.664   0.800  16.210 -0.2287 -1.1219  0.4403
 7047TIP3   OH242555   5.562   1.215  16.450  0.0071  0.2115  0.5257
 7047TIP3    H142556   5.650   1.243  16.424  0.1941  0.4352  1.3640
 7047TIP3    H242557   5.575   1.171  16.534 -0.6436 -0.0532  0.4925
 7048TIP3   OH242558   0.693   5.270  12.004 -0.0970  0.3506  0.7731
 7048TIP3    H142559   0.740   5.244  11.924  0.3868 -1.0344  1.4714
 7048TIP3    H242560   0.631   5.336  11.975  0.3420  0.1593 -0.6876
 7049TIP3   OH242561   2.333   3.777  11.566 -0.0433  0.0016  0.0828
 7049TIP3    H142562   2.265   3.843  11.555 -1.1624 -1.2106 -0.5579
 7049TIP3    H242563   2.378   3.774  11.481  1.1867  1.1464  0.6517
 7050TIP3   OH242564   4.372   2.825   4.704 -0.3991 -0.2470 -0.1311
 7050TIP3    H142565   4.361   2.920   4.703  1.7033  0.0896  0.8362
 7050TIP3    H242566   4.289   2.791   4.738 -1.3534  1.1895 -0.9368
 7051TIP3   OH242567   6.264   0.002   2.472  0.5760  0.3015 -0.6249
 7051TIP3    H142568   6.344   0.008   2.524  0.3044  2.0706 -0.3487
 7051TIP3    H242569   6.193   0.004   2.537  0.2481 -2.7835 -0.7438
 7052TIP3   OH242570   5.427   0.711  12.051 -0.2790  0.4470 -0.2913
 7052TIP3    H142571   5.369   0.771  12.097 -1.5803 -0.7503 -0.3155
 7052TIP3    H242572   5.440   0.638  12.112  0.3416  0.2054 -0.6987
 7053TIP3   OH242573   1.918   3.347  14.750  0.2949  0.2126  0.4642
 7053TIP3    H142574   2.013   3.354  14.741  0.6438 -0.6378  2.9101
 7053TIP3    H242575   1.889   3.437  14.765  0.4914  0.6625 -1.4763
 7054TIP3   OH242576   4.524   4.858  14.475  0.0718  0.1580 -0.1185
 7054TIP3    H142577   4.450   4.813  14.517  1.3691 -0.0965  2.0168
 7054TIP3    H242578   4.505   4.851  14.381 -1.6093 -1.6468  0.2714
 7055TIP3   OH242579   3.641   4.243   0.009 -0.1311  0.3729 -0.1938
 7055TIP3    H142580   3.721   4.255  -0.042  0.3478  1.1193  0.6983
 7055TIP3    H242581   3.633   4.324   0.060 -0.1401 -0.6611  1.5116
 7056TIP3   OH242582   1.120   0.095  15.740 -0.1847  0.0066 -0.4535
 7056TIP3    H142583   1.062   0.044  15.684  0.0521 -1.7373  0.8187
 7056TIP3    H242584   1.062   0.152  15.790 -0.6229 -0.2649 -0.6511
 7057TIP3   OH242585   0.732   3.239  15.104  0.5569  0.0209 -0.0658
 7057TIP3    H142586   0.703   3.188  15.180 -2.2932 -1.3997 -1.9326
 7057TIP3    H242587   0.743   3.174  15.035  0.7406  1.5305 -1.5121
 7058TIP3   OH242588   1.283   5.028  16.031  0.5178  0.6117 -0.3660
 7058TIP3    H142589   1.339   4.951  16.023 -0.9506 -0.5132 -0.3044
 7058TIP3    H242590   1.272   5.041  16.125 -1.7642 -1.1147 -0.2984
 7059TIP3   OH242591   1.614   2.701  16.048  0.2723 -0.2353  0.2298
 7059TIP3    H142592   1.633   2.665  16.135 -1.9812  0.3361  1.0293
 7059TIP3    H242593   1.523   2.731  16.053  0.8080  2.0581 -1.5815
 7060TIP3   OH242594   0.344   3.733  12.375 -0.2935  0.6553 -0.0538
 7060TIP3    H142595   0.368   3.646  12.406 -0.9360  0.5442  0.1527
 7060TIP3    H242596   0.344   3.788  12.454  0.6485  0.9737 -0.2635
 7061TIP3   OH242597   3.494   0.541  15.516 -0.3848 -0.7980 -0.5290
 7061TIP3    H142598   3.588   0.541  15.533 -0.3702 -1.8727 -0.5623
 7061TIP3    H242599   3.464   0.456  15.547 -1.5024 -0.1326  0.2749
 7062TIP3   OH242600   2.695   5.847  14.488  0.0159  0.1408  0.0116
 7062TIP3    H142601   2.782   5.815  14.513 -0.4912 -0.4185  1.1347
 7062TIP3    H242602   2.676   5.801  14.406  0.7398  0.2159 -0.2094
 7063TIP3   OH242603   6.046   6.756  16.069 -0.2990  0.2022 -0.0147
 7063TIP3    H142604   5.957   6.776  16.040 -0.4907 -0.1780  0.2979
 7063TIP3    H242605   6.036   6.731  16.161  0.2184  0.7712  0.2001
 7064TIP3   OH242606   3.205   4.599  15.750 -0.1891  0.6588 -0.0159
 7064TIP3    H142607   3.284   4.547  15.734  0.2703  0.8547  1.4306
 7064TIP3    H242608   3.237   4.676  15.797 -1.0068  1.7290 -1.1623
 7065TIP3   OH242609   2.611   4.327  13.131  0.1243  0.7871  0.1153
 7065TIP3    H142610   2.517   4.335  13.115  0.0120  0.1742  0.4075
 7065TIP3    H242611   2.646   4.415  13.118 -0.5597  1.1138  0.4332
 7066TIP3   OH242612   1.730   2.590   2.652  0.0823  0.4699 -0.6345
 7066TIP3    H142613   1.750   2.639   2.732  0.8517  1.4107 -1.3780
 7066TIP3    H242614   1.642   2.556   2.667 -0.7658  2.6081 -0.2956
 7067TIP3   OH242615   3.839   5.714   3.071 -0.3378 -0.2634  0.2281
 7067TIP3    H142616   3.859   5.703   2.978  0.4231  0.3665  0.3040
 7067TIP3    H242617   3.796   5.632   3.096 -0.1110 -0.6366 -0.5637
 7068TIP3   OH242618   4.661   1.034   4.179  0.3121  0.2394 -0.3409
 7068TIP3    H142619   4.739   1.008   4.129 -0.5227  0.3639 -1.7444
 7068TIP3    H242620   4.629   0.952   4.218 -0.6467 -0.4022 -2.3688
 7069TIP3   OH242621   2.756   2.078  14.292  1.0506 -0.2530  0.0461
 7069TIP3    H142622   2.712   2.143  14.236 -0.6942 -0.4376  1.1473
 7069TIP3    H242623   2.848   2.106  14.292  0.9964  0.1931 -2.2757
 7070TIP3   OH242624   0.673   3.489   2.328 -0.3198 -0.3241 -0.5227
 7070TIP3    H142625   0.650   3.443   2.248 -2.0333  1.2091 -0.9858
 7070TIP3    H242626   0.630   3.441   2.398 -0.4504 -0.5566 -0.7637
 7071TIP3   OH242627   5.860   0.911  16.088 -0.0031  0.1258 -0.1362
 7071TIP3    H142628   5.896   0.827  16.062  0.5308 -0.0411  1.0751
 7071TIP3    H242629   5.919   0.976  16.051  1.1754 -0.1282  1.2108
 7072TIP3   OH242630   2.155   2.085   1.912  0.1723  0.0793  0.0277
 7072TIP3    H142631   2.218   2.127   1.853  0.5862  1.1961  1.2274
 7072TIP3    H242632   2.208   2.032   1.971 -0.2428 -1.0516 -0.5911
 7073TIP3   OH242633   6.611   0.770   3.615  0.3817  0.2947  0.4349
 7073TIP3    H142634   6.676   0.736   3.553 -0.6709 -0.2336 -0.4230
 7073TIP3    H242635   6.585   0.855   3.579  0.5322  0.4616  0.7211
 7074TIP3   OH242636   4.183   1.756   5.530  0.0778  0.2962  0.0541
 7074TIP3    H142637   4.227   1.697   5.591  0.2373  0.7182  0.3530
 7074TIP3    H242638   4.253   1.813   5.497 -0.2569  1.0529  0.6257
 7075TIP3   OH242639   1.733   5.145   1.529  0.1821  0.1355  0.0495
 7075TIP3    H142640   1.700   5.232   1.547  1.8656  0.9726 -0.6330
 7075TIP3    H242641   1.795   5.157   1.457 -2.1833 -2.1796 -2.6342
 7076TIP3   OH242642   1.835   2.617   4.008  0.3811  0.1340  0.0540
 7076TIP3    H142643   1.928   2.594   4.003  0.4393  0.4107 -0.1902
 7076TIP3    H242644   1.822   2.643   4.099  0.5126 -0.0356  0.1219
 7077TIP3   OH242645   5.448   0.512   7.209  0.2286 -0.2082 -0.0035
 7077TIP3    H142646   5.537   0.531   7.239 -0.3988  0.9965  1.2092
 7077TIP3    H242647   5.442   0.554   7.124  1.1886 -1.3764 -0.6870
 7078TIP3   OH242648   1.405   4.181  13.984  0.0461 -0.2629  0.3167
 7078TIP3    H142649   1.340   4.173  13.914  1.5119 -1.2029 -0.9970
 7078TIP3    H242650   1.397   4.272  14.013  0.0408  0.4628 -1.7670
 7079TIP3   OH242651   5.844   0.848   5.615 -0.6643  0.4621  0.0370
 7079TIP3    H142652   5.760   0.812   5.585 -0.5410  0.6337 -0.5289
 7079TIP3    H242653   5.885   0.881   5.535 -0.4953  1.2847  0.4507
 7080TIP3   OH242654   6.275   2.149   5.244  0.1843 -0.6006  0.2986
 7080TIP3    H142655   6.291   2.091   5.170  2.2673 -0.0113  0.2366
 7080TIP3    H242656   6.326   2.111   5.316  0.8531  0.6139  0.4999
 7081TIP3   OH242657   2.967   2.280  14.986  0.3333 -0.0042  0.1276
 7081TIP3    H142658   3.031   2.350  14.976  0.4748  0.0986  1.5577
 7081TIP3    H242659   2.889   2.312  14.943 -0.2914  1.9772  2.5036
 7082TIP3   OH242660   0.036   1.735   3.444 -0.1539  0.6975 -0.0951
 7082TIP3    H142661   0.113   1.790   3.431 -0.6718  1.6420  0.7126
 7082TIP3    H242662   0.068   1.645   3.433  0.8069  1.1229 -0.9287
 7083TIP3   OH242663   4.163   1.288   2.350 -0.1859 -0.5186  0.1282
 7083TIP3    H142664   4.189   1.372   2.310 -1.4075 -0.4273 -0.5460
 7083TIP3    H242665   4.116   1.242   2.280 -2.9470 -0.1044  1.5452
 7084TIP3   OH242666   1.847   6.056  16.909  0.4962  0.1773  0.1600
 7084TIP3    H142667   1.761   6.014  16.909  0.4090  0.2518  1.9726
 7084TIP3    H242668   1.833   6.139  16.955  1.5799  0.0507  0.7412
 7085TIP3   OH242669   5.982   0.636  11.943 -0.3329 -0.4361 -0.0757
 7085TIP3    H142670   6.020   0.552  11.919  0.5231 -0.1315  0.1932
 7085TIP3    H242671   6.008   0.695  11.872 -0.2197 -0.2052  0.1557
 7086TIP3   OH242672   5.779   4.751   0.301  0.2481  0.0866 -0.0293
 7086TIP3    H142673   5.752   4.800   0.224  0.8293 -1.1910 -1.0976
 7086TIP3    H242674   5.781   4.815   0.372 -0.3667  1.2783 -1.0635
 7087TIP3   OH242675   5.077   0.833  16.236 -0.2996  0.4665  0.1345
 7087TIP3    H142676   5.066   0.771  16.307  0.9149  1.1271  0.9402
 7087TIP3    H242677   5.171   0.829  16.215 -0.7748 -0.4199 -2.1020
 7088TIP3   OH242678   4.104   0.588   1.322  0.1050 -0.2077  0.3856
 7088TIP3    H142679   4.053   0.630   1.392  1.4252  1.4813  0.3862
 7088TIP3    H242680   4.044   0.585   1.248  0.1143  2.3129  0.1952
 7089TIP3   OH242681   3.393   3.611   3.939  0.0639 -0.8080 -0.2256
 7089TIP3    H142682   3.440   3.692   3.958 -0.5487 -0.5084  0.0539
 7089TIP3    H242683   3.441   3.571   3.867  0.0535  0.0859 -0.7425
 7090TIP3   OH242684   4.898   2.178   6.212  0.0341 -0.3363  0.3287
 7090TIP3    H142685   4.981   2.152   6.172 -0.1639 -1.5188  0.6486
 7090TIP3    H242686   4.923   2.240   6.280  0.7209 -1.0820  0.7784
 7091TIP3   OH242687   2.024   0.983   3.850  0.0498  0.6292 -0.1867
 7091TIP3    H142688   2.098   0.923   3.846 -0.1578  0.2134  1.3676
 7091TIP3    H242689   2.032   1.025   3.936  0.3911  3.1158 -1.3666
 7092TIP3   OH242690   6.006   5.311  14.510 -0.2977 -0.4303  0.2444
 7092TIP3    H142691   6.030   5.387  14.562  0.2986 -0.0175 -0.6227
 7092TIP3    H242692   5.990   5.345  14.423  0.6918 -1.3947 -0.3335
 7093TIP3   OH242693   0.300   6.581   4.790 -0.5776  0.1845  0.2560
 7093TIP3    H142694   0.391   6.586   4.819  0.0016 -3.4125 -0.4762
 7093TIP3    H242695   0.269   6.496   4.822 -3.4485  0.9693 -0.1832
 7094TIP3   OH242696   4.014   2.838  15.604  0.1571  0.6552 -0.4904
 7094TIP3    H142697   3.990   2.778  15.532 -1.1415  1.0440 -0.4130
 7094TIP3    H242698   3.946   2.906  15.601  1.2588  1.7944 -0.1769
 7095TIP3   OH242699   5.016   0.959   2.068  0.1487 -0.5707 -0.4708
 7095TIP3    H142700   5.010   0.994   1.980 -0.5022 -1.5978 -0.8553
 7095TIP3    H242701   4.972   1.023   2.123 -0.4002 -0.4425 -1.0511
 7096TIP3   OH242702   4.378   0.949   1.042  0.2631 -0.4772 -0.3466
 7096TIP3    H142703   4.336   0.866   1.065 -0.4534  0.3580  1.5625
 7096TIP3    H242704   4.319   1.016   1.077  0.2613  0.9088 -2.7811
 7097TIP3   OH242705   3.859   1.976  12.026  0.5379  0.6032 -0.1235
 7097TIP3    H142706   3.787   1.950  11.968  1.0046  1.8155 -1.3086
 7097TIP3    H242707   3.931   1.998  11.966  1.6550  0.1328  1.0059
 7098TIP3   OH242708   2.889   2.703  14.135  0.4025  0.0958  0.0582
 7098TIP3    H142709   2.863   2.745  14.217 -0.1426 -2.4817  1.2960
 7098TIP3    H242710   2.976   2.668  14.153 -0.2187 -1.5410  0.0031
 7099TIP3   OH242711   1.658   2.338   1.661  0.8036 -0.1928 -0.3042
 7099TIP3    H142712   1.718   2.277   1.705  0.6534 -1.1478 -1.3654
 7099TIP3    H242713   1.577   2.331   1.710  1.1218  0.0049  0.2584
 7100TIP3   OH242714   3.380   1.497   3.488  0.1106 -0.0306 -0.1009
 7100TIP3    H142715   3.324   1.433   3.444  1.2017 -0.6727 -0.5916
 7100TIP3    H242716   3.392   1.567   3.424  0.0350  0.0119 -0.0689
 7101TIP3   OH242717   2.635   2.367   1.214  0.0659  0.8620 -0.0629
 7101TIP3    H142718   2.648   2.294   1.274 -2.4245 -1.0056 -1.5974
 7101TIP3    H242719   2.632   2.444   1.271  1.8212 -0.2846  1.7105
 7102TIP3   OH242720   1.465   0.361   5.434  0.3921 -0.0800 -0.7028
 7102TIP3    H142721   1.439   0.433   5.492  1.7228  1.8679 -2.3455
 7102TIP3    H242722   1.382   0.319   5.409 -0.2970 -0.0716  1.4348
 7103TIP3   OH242723   2.577   5.278   2.826  0.2638  0.1905 -0.1789
 7103TIP3    H142724   2.553   5.193   2.790 -0.3461 -1.0082  2.7075
 7103TIP3    H242725   2.495   5.311   2.863  0.3177  2.4621 -1.8782
 7104TIP3   OH242726   2.881   6.397  15.606 -0.3683  0.3496 -0.0629
 7104TIP3    H142727   2.963   6.360  15.573 -0.8170 -1.1959  0.4515
 7104TIP3    H242728   2.841   6.325  15.656 -0.3756  2.1239  2.7016
 7105TIP3   OH242729   2.196   4.468   1.784 -0.2055 -0.0300  0.3700
 7105TIP3    H142730   2.103   4.492   1.793  0.0637  0.7254  1.3061
 7105TIP3    H242731   2.199   4.376   1.809 -0.7126 -0.0780  0.2739
 7106TIP3   OH242732   3.245   2.182   0.767 -0.7845  0.6357  0.2500
 7106TIP3    H142733   3.199   2.261   0.739 -1.3163  0.4097  0.4812
 7106TIP3    H242734   3.337   2.207   0.769 -0.9471  1.2364  0.2726
 7107TIP3   OH242735   3.539   6.241  16.054 -0.1081 -0.3734 -0.4766
 7107TIP3    H142736   3.593   6.197  16.120 -0.7167 -1.2309 -0.5302
 7107TIP3    H242737   3.579   6.216  15.970 -0.8525 -1.3995 -0.5379
 7108TIP3   OH242738   2.945   4.981   5.506 -0.3272 -0.6007  0.4130
 7108TIP3    H142739   2.947   5.035   5.586 -0.9688 -0.0098  0.0382
 7108TIP3    H242740   2.887   4.909   5.528 -0.0725 -0.7336  0.6614
 7109TIP3   OH242741   5.854   5.845   0.551  0.0563 -0.1505  0.1976
 7109TIP3    H142742   5.883   5.931   0.579 -0.8462 -0.2767  1.6668
 7109TIP3    H242743   5.930   5.788   0.562  0.7360  0.5090 -1.0612
 7110TIP3   OH242744   4.858   0.667  17.208  0.0257  0.5648  0.6785
 7110TIP3    H142745   4.884   0.722  17.133 -0.4014  0.7671  0.6758
 7110TIP3    H242746   4.766   0.689  17.223 -0.3489 -0.6438  0.2544
 7111TIP3   OH242747   4.828   2.325  11.579  0.2568 -0.2914 -0.3362
 7111TIP3    H142748   4.767   2.252  11.591  0.7874 -0.6765  0.0704
 7111TIP3    H242749   4.826   2.372  11.662 -0.0142  0.1103 -0.5667
 7112TIP3   OH242750   2.261   0.904  13.031 -0.4088 -0.0508 -0.0513
 7112TIP3    H142751   2.330   0.950  13.079 -1.0461  0.8010  0.0957
 7112TIP3    H242752   2.281   0.918  12.939 -0.3013  0.0664 -0.0098
 7113TIP3   OH242753   2.632   5.668  13.073  0.1324 -0.4484  0.2748
 7113TIP3    H142754   2.598   5.597  13.018  1.4127 -0.4678 -0.5267
 7113TIP3    H242755   2.570   5.673  13.147 -1.3510 -0.7444 -0.8995
 7114TIP3   OH242756   5.982   0.324  17.100 -0.3911 -0.0469  0.4607
 7114TIP3    H142757   5.893   0.334  17.065 -0.0805  0.7092 -0.1336
 7114TIP3    H242758   5.994   0.229  17.106 -0.0412 -0.3011 -2.6734
 7115TIP3   OH242759   1.491   1.051  10.754  0.3618  0.0417  0.4446
 7115TIP3    H142760   1.457   0.987  10.691  0.2820 -0.1157  0.6464
 7115TIP3    H242761   1.443   1.131  10.735  0.7009  0.1342 -0.0326
 7116TIP3   OH242762   6.398   2.968   1.517  0.2296  0.0417  0.5203
 7116TIP3    H142763   6.306   2.964   1.492  0.4080 -0.5601 -0.0875
 7116TIP3    H242764   6.439   3.024   1.451  0.4839 -0.5656  0.1461
 7117TIP3   OH242765   0.338   6.454  10.301 -0.2788 -0.0279  0.0203
 7117TIP3    H142766   0.273   6.501  10.353  1.5154  0.6607  1.8091
 7117TIP3    H242767   0.422   6.479  10.340  0.9485 -2.4491 -0.8574
 7118TIP3   OH242768   5.575   4.453   3.618  0.5323  0.0900 -0.2552
 7118TIP3    H142769   5.513   4.520   3.646 -2.8117 -2.4158 -0.9818
 7118TIP3    H242770   5.623   4.494   3.546 -1.0068  1.8673 -0.3565
 7119TIP3   OH242771   6.380   6.542   6.659 -0.0271 -1.2093  0.1788
 7119TIP3    H142772   6.361   6.455   6.695 -2.2932 -2.0141 -2.5944
 7119TIP3    H242773   6.306   6.596   6.687  1.1065 -0.2574  1.4489
 7120TIP3   OH242774   1.271   2.300   4.476  0.1140 -0.5395  0.9483
 7120TIP3    H142775   1.275   2.377   4.418  0.6893 -0.9295  0.4489
 7120TIP3    H242776   1.179   2.274   4.475  0.4867 -2.1876 -2.0402
 7121TIP3   OH242777   4.427   3.507  15.127  0.1935  0.2079 -0.3383
 7121TIP3    H142778   4.356   3.543  15.181  0.0952 -1.4178  0.6730
 7121TIP3    H242779   4.386   3.485  15.044 -0.4684 -0.6024  0.1927
 7122TIP3   OH242780   6.413   1.148   5.907 -0.5619  0.0804  0.4015
 7122TIP3    H142781   6.341   1.210   5.911  0.4913  1.2933  1.4908
 7122TIP3    H242782   6.415   1.109   5.995  0.3570  0.3747  0.5174
 7123TIP3   OH242783   3.047   4.760  13.195 -0.3946 -0.4166  0.1288
 7123TIP3    H142784   3.094   4.829  13.148 -2.1055  0.6370 -0.1276
 7123TIP3    H242785   3.015   4.702  13.126 -2.9099  1.1321 -0.1125
 7124TIP3   OH242786   2.188   4.230   1.943 -0.1390 -0.4355  0.9208
 7124TIP3    H142787   2.226   4.150   1.906  1.3247  0.3762  0.5864
 7124TIP3    H242788   2.182   4.212   2.037  2.5285 -0.0902  1.2225
 7125TIP3   OH242789   3.964   0.690  11.116 -0.1736 -0.0998  0.0341
 7125TIP3    H142790   3.995   0.681  11.026  0.0015 -2.8554  0.2917
 7125TIP3    H242791   3.871   0.664  11.113 -0.2416  0.0512  0.6019
 7126TIP3   OH242792   5.638   3.200  14.900 -0.0222  0.6073  0.6425
 7126TIP3    H142793   5.703   3.225  14.966  0.6640  0.2745  0.1063
 7126TIP3    H242794   5.689   3.162  14.829 -0.9729 -1.7469  1.1328
 7127TIP3   OH242795   1.179   6.714   2.352  0.2470 -0.7278  0.1305
 7127TIP3    H142796   1.164   6.696   2.259  0.0652  1.0744 -0.2290
 7127TIP3    H242797   1.092   6.716   2.391  0.1437  0.7091 -0.1284
 7128TIP3   OH242798   5.498   1.555   5.075  0.5413  0.0884  0.2233
 7128TIP3    H142799   5.419   1.531   5.027  1.5859  0.7891 -1.9717
 7128TIP3    H242800   5.506   1.649   5.063  1.7956  0.0079  0.2814
 7129TIP3   OH242801   4.069   0.804   4.118  0.0815  0.3346  0.1656
 7129TIP3    H142802   4.055   0.857   4.196  0.2920  0.3267  0.2095
 7129TIP3    H242803   4.067   0.714   4.149 -1.2034  0.2681 -0.0515
 7130TIP3   OH242804   0.110   5.843  16.888  0.0474 -0.5912 -0.1752
 7130TIP3    H142805   0.195   5.887  16.881 -0.4313  0.2569 -0.8660
 7130TIP3    H242806   0.083   5.860  16.979  0.6406 -0.9420  0.0764
 7131TIP3   OH242807   1.237   6.008  12.250 -0.1199  0.1357 -0.5006
 7131TIP3    H142808   1.332   6.018  12.243  0.0477 -1.5877 -1.1439
 7131TIP3    H242809   1.222   5.914  12.243 -1.8374  0.3066  0.3015
 7132TIP3   OH242810   1.159   3.774  17.094  0.4900  0.1539  0.4217
 7132TIP3    H142811   1.094   3.713  17.127  0.6901 -0.4369 -0.2356
 7132TIP3    H242812   1.110   3.855  17.078 -0.4761 -0.7218 -1.5290
 7133TIP3   OH242813   3.621   4.609   2.692 -0.6738 -0.2078 -0.1583
 7133TIP3    H142814   3.579   4.674   2.636  0.7398  0.6912 -0.2396
 7133TIP3    H242815   3.673   4.555   2.632 -0.7445 -0.5208  0.0615
 7134TIP3   OH242816   5.984   1.144   5.080 -0.4840 -0.5818  0.6237
 7134TIP3    H142817   5.893   1.154   5.053 -0.0624  1.1083 -0.3725
 7134TIP3    H242818   5.980   1.110   5.169 -2.0631 -1.1638  0.3568
 7135TIP3   OH242819   3.427   6.500   6.043  0.5395  0.1436 -0.0533
 7135TIP3    H142820   3.351   6.490   6.101  1.2417  2.8781  1.5440
 7135TIP3    H242821   3.478   6.421   6.056 -0.6535 -0.4838  1.0275
 7136TIP3   OH242822   6.089   1.247  13.699 -0.2173  0.6031  0.3716
 7136TIP3    H142823   6.052   1.286  13.620 -0.9379  2.6540  1.6505
 7136TIP3    H242824   6.181   1.275  13.699  0.6925 -2.0070 -1.2585
 7137TIP3   OH242825   3.022   4.779  13.463  0.2089  0.3827 -0.0589
 7137TIP3    H142826   3.036   4.687  13.485 -1.3876 -0.3635 -1.9130
 7137TIP3    H242827   2.996   4.779  13.371  0.0239  2.6805 -0.0749
 7138TIP3   OH242828   3.020   4.609   4.604 -0.0362 -0.2120 -0.4818
 7138TIP3    H142829   2.927   4.596   4.583 -0.2384 -1.8526  1.2099
 7138TIP3    H242830   3.040   4.541   4.667  1.8472  1.2898  0.6459
 7139TIP3   OH242831   0.207   4.409  16.286  1.0329 -0.8633  0.0146
 7139TIP3    H142832   0.117   4.380  16.275  1.7345 -2.8434 -1.0328
 7139TIP3    H242833   0.202   4.505  16.282 -0.6376 -0.9546 -3.4894
 7140TIP3   OH242834   3.005   0.421  13.823  0.2140 -0.0116 -0.1079
 7140TIP3    H142835   2.930   0.430  13.880  0.5221 -1.6480  0.6159
 7140TIP3    H242836   3.010   0.504  13.776 -0.3718  1.1732  1.8326
 7141TIP3   OH242837   4.198   5.026  11.873 -0.0317 -0.2726  1.1314
 7141TIP3    H142838   4.168   5.023  11.964  0.5063  0.8793  1.3623
 7141TIP3    H242839   4.268   5.091  11.873 -0.3699  0.1123 -0.2184
 7142TIP3   OH242840   5.161   0.548   5.769  0.4339 -0.1288  0.0492
 7142TIP3    H142841   5.093   0.485   5.746  0.6673 -0.0289 -0.9544
 7142TIP3    H242842   5.224   0.543   5.697  0.9259  0.5844  0.4130
 7143TIP3   OH242843   5.749   6.320   1.200 -0.7885  0.0380 -0.3347
 7143TIP3    H142844   5.807   6.355   1.268  0.8106  0.1755 -1.7282
 7143TIP3    H242845   5.665   6.364   1.215 -0.0389  1.2013  0.6101
 7144TIP3   OH242846   1.959   4.436   5.316  0.6285 -0.3559 -0.6008
 7144TIP3    H142847   1.974   4.370   5.384  0.5729  1.7376  1.5699
 7144TIP3    H242848   1.866   4.457   5.323  0.8447  0.6314 -0.5907
 7145TIP3   OH242849   0.411   0.805   5.376  0.0904 -0.0942  0.0609
 7145TIP3    H142850   0.428   0.732   5.316  0.4695 -1.0109  1.2501
 7145TIP3    H242851   0.317   0.801   5.393  0.0804 -0.1864 -0.0154
 7146TIP3   OH242852   2.746   5.156  11.963 -0.2722  0.3876  0.0114
 7146TIP3    H142853   2.823   5.102  11.984 -1.9810 -2.3017 -0.2103
 7146TIP3    H242854   2.695   5.102  11.902 -2.5378  1.9065  0.4485
 7147TIP3   OH242855   2.181   3.494   0.194 -0.5648  0.0748 -0.5180
 7147TIP3    H142856   2.215   3.495   0.105  0.7286 -1.0658 -0.0817
 7147TIP3    H242857   2.140   3.407   0.203  1.5954 -0.8906  0.7450
 7148TIP3   OH242858   0.830   4.571   4.456 -0.0140  0.2537  1.0442
 7148TIP3    H142859   0.787   4.595   4.374  0.9058 -0.3851  0.3512
 7148TIP3    H242860   0.804   4.481   4.471  1.4821 -0.3378  0.3111
 7149TIP3   OH242861   4.525   6.072  12.286 -0.0805 -0.0367  0.3429
 7149TIP3    H142862   4.521   6.085  12.381  1.1695 -1.2997  0.6020
 7149TIP3    H242863   4.514   5.978  12.274 -1.4369  0.2334 -0.8909
 7150TIP3   OH242864   0.547   4.728  14.239 -0.1699  0.5053 -1.0036
 7150TIP3    H142865   0.479   4.673  14.202 -0.1647 -0.4121  0.2898
 7150TIP3    H242866   0.500   4.794  14.290 -0.1209  0.5822 -1.0565
 7151TIP3   OH242867   6.047   2.367   5.642  0.4063  0.4285 -0.1448
 7151TIP3    H142868   6.119   2.316   5.605  0.9155  0.4641  0.7833
 7151TIP3    H242869   5.992   2.301   5.685 -0.6263  0.2751 -1.5909
 7152TIP3   OH242870   0.363   6.082  14.346  0.0193 -0.4993  0.1366
 7152TIP3    H142871   0.273   6.091  14.379  0.1592  0.1561  0.3505
 7152TIP3    H242872   0.418   6.104  14.421  0.3531 -0.5373 -0.0998
 7153TIP3   OH242873   3.073   5.425   0.915  0.2252  0.0366 -0.1226
 7153TIP3    H142874   3.003   5.450   0.855  0.5813 -0.2546 -0.6633
 7153TIP3    H242875   3.035   5.439   1.002 -0.1306  0.9052 -0.4036
 7154TIP3   OH242876   0.200   0.465   0.423 -0.1248  0.2457  0.2643
 7154TIP3    H142877   0.279   0.505   0.462 -0.7161  0.1502  1.6176
 7154TIP3    H242878   0.164   0.534   0.368  0.2491  0.7122  0.5886
 7155TIP3   OH242879   3.186   1.999  13.953 -0.2013  0.0483 -0.2198
 7155TIP3    H142880   3.132   2.067  13.913  0.8299  1.2377  0.3018
 7155TIP3    H242881   3.128   1.924  13.962 -1.1774  0.6122 -1.5061
 7156TIP3   OH242882   2.573   1.388  15.027 -0.1707  0.6315 -0.3914
 7156TIP3    H142883   2.485   1.396  15.062  1.0477  1.5175  2.7770
 7156TIP3    H242884   2.615   1.472  15.046  2.0858 -0.6208  0.5176
 7157TIP3   OH242885   0.447   0.153   1.323  0.0479  0.1139  0.1161
 7157TIP3    H142886   0.493   0.143   1.406  1.2324  1.1569 -0.3752
 7157TIP3    H242887   0.408   0.240   1.327 -0.7644 -0.2351 -0.0189
 7158TIP3   OH242888   1.289   1.094   3.300  0.3661  0.3291  0.8260
 7158TIP3    H142889   1.316   1.050   3.219 -0.0647 -0.3126  1.0241
 7158TIP3    H242890   1.304   1.187   3.283  0.4406  0.1825  0.0688
 7159TIP3   OH242891   5.440   4.206  16.670 -0.6255 -0.1667  0.3651
 7159TIP3    H142892   5.424   4.227  16.578  0.4217  0.2639  0.2621
 7159TIP3    H242893   5.528   4.240  16.687 -0.2785 -1.4041  1.1683
 7160TIP3   OH242894   6.463   2.642   4.145 -0.1764 -0.0248 -0.3358
 7160TIP3    H142895   6.401   2.573   4.170 -1.7082  1.4163  0.1039
 7160TIP3    H242896   6.533   2.636   4.210 -1.4979  0.3044  1.2125
 7161TIP3   OH242897   3.325   5.817  15.100  0.4209  0.0571  0.2292
 7161TIP3    H142898   3.387   5.889  15.112 -0.3099  0.7491 -0.0718
 7161TIP3    H242899   3.240   5.854  15.124 -0.3771  0.1006 -2.4139
 7162TIP3   OH242900   4.772   1.572  15.283  0.0883  0.4037  0.2642
 7162TIP3    H142901   4.695   1.584  15.227  0.6406 -1.1936 -0.9177
 7162TIP3    H242902   4.841   1.624  15.240 -0.3487  2.1018  1.5012
 7163TIP3   OH242903   2.973   2.558  15.870  0.3971 -0.0536  0.4492
 7163TIP3    H142904   2.948   2.584  15.781 -1.0606 -0.0038  0.8485
 7163TIP3    H242905   2.893   2.521  15.907  1.3088 -1.2377  1.3287
 7164TIP3   OH242906   6.650   6.155  17.323  0.0064  0.4757 -0.2213
 7164TIP3    H142907   6.640   6.088  17.390  2.4552 -0.3027 -0.5562
 7164TIP3    H242908   6.566   6.201  17.323 -0.5055 -0.2974  2.4648
 7165TIP3   OH242909   4.238   1.272   0.501  0.4078  0.2023  0.2399
 7165TIP3    H142910   4.313   1.213   0.501  0.5326  0.3592  0.4574
 7165TIP3    H242911   4.162   1.215   0.493  0.5093 -0.0122  0.7839
 7166TIP3   OH242912   5.058   0.812   0.040  0.1274  0.5532 -0.6004
 7166TIP3    H142913   5.032   0.884   0.097 -0.6146 -1.1399  1.3123
 7166TIP3    H242914   4.984   0.752   0.041  1.8054 -1.6491  0.2661
 7167TIP3   OH242915   1.806   1.339   0.970 -0.0125 -0.2634  0.3129
 7167TIP3    H142916   1.872   1.329   0.902  1.3514  2.6644  1.0303
 7167TIP3    H242917   1.738   1.393   0.930  0.7760  1.4351  1.1600
 7168TIP3   OH242918   5.052   5.228   0.792  0.0787 -0.0081  0.1137
 7168TIP3    H142919   5.113   5.153   0.791  1.7777  1.3047 -0.7529
 7168TIP3    H242920   5.061   5.266   0.705 -1.1160  0.9469  0.3914
 7169TIP3   OH242921   1.784   4.110  17.091 -0.3309 -0.0737  0.4086
 7169TIP3    H142922   1.876   4.086  17.080 -0.3785  0.2557 -0.9398
 7169TIP3    H242923   1.778   4.143  17.181  0.7763 -0.4504  0.6348
 7170TIP3   OH242924   0.917   2.492   0.398 -0.1935 -0.3925  0.2195
 7170TIP3    H142925   0.931   2.398   0.382  0.0942 -0.7094  2.1453
 7170TIP3    H242926   0.822   2.503   0.399 -0.2265 -0.5676 -0.4294
 7171TIP3   OH242927   1.762   2.218  14.716  0.6238 -0.1963 -0.1069
 7171TIP3    H142928   1.838   2.168  14.687  1.5315  1.1557 -0.1519
 7171TIP3    H242929   1.713   2.158  14.772  1.9142 -0.9809  0.2114
 7172TIP3   OH242930   1.231   1.894   2.668 -0.4258 -0.2178  0.2581
 7172TIP3    H142931   1.320   1.890   2.631 -0.8374  2.1070 -1.2534
 7172TIP3    H242932   1.244   1.884   2.762  1.0491 -3.1742 -0.1448
 7173TIP3   OH242933   5.452   0.869   6.022 -0.4159 -0.1205 -0.2984
 7173TIP3    H142934   5.453   0.964   6.008  1.8345  0.0448  0.5874
 7173TIP3    H242935   5.544   0.844   6.029 -0.9742 -2.2391  0.4328
 7174TIP3   OH242936   3.658   4.890   1.779  0.2454 -0.3200 -0.8252
 7174TIP3    H142937   3.713   4.960   1.742 -3.0814  1.8822 -2.0220
 7174TIP3    H242938   3.645   4.915   1.870  0.3240 -0.2359 -0.8372
 7175TIP3   OH242939   4.365   2.471   4.369 -0.7035 -0.4032  0.4709
 7175TIP3    H142940   4.424   2.422   4.426 -1.4956 -0.2889  1.4075
 7175TIP3    H242941   4.333   2.407   4.306 -0.0185 -0.5818  0.2899
 7176TIP3   OH242942   0.264   5.972  11.302  0.0995  0.0967 -0.5130
 7176TIP3    H142943   0.290   6.064  11.295  0.4190  0.0903  0.4792
 7176TIP3    H242944   0.174   5.976  11.335 -0.5221  0.0676 -2.0691
 7177TIP3   OH242945   4.938   2.281  11.341  0.0258  0.1494 -0.4419
 7177TIP3    H142946   4.997   2.355  11.325  2.6537 -1.3487  1.5477
 7177TIP3    H242947   4.893   2.303  11.422 -0.1730  0.1382 -0.5487
 7178TIP3   OH242948   1.892   4.207  15.359  0.1264 -0.0965  0.5658
 7178TIP3    H142949   1.856   4.134  15.410 -1.1275 -0.7006 -1.1014
 7178TIP3    H242950   1.914   4.168  15.274  3.6630  0.5228  1.0477
 7179TIP3   OH242951   3.500   4.008   2.955 -0.4947 -0.1932 -0.4458
 7179TIP3    H142952   3.410   3.978   2.965 -0.4439  0.2784  2.1614
 7179TIP3    H242953   3.526   4.036   3.043  2.1784 -0.2205 -1.1366
 7180TIP3   OH242954   5.705   3.665   5.239 -0.3317 -0.3635  0.3573
 7180TIP3    H142955   5.738   3.723   5.170 -2.4556 -0.5032 -0.8553
 7180TIP3    H242956   5.616   3.696   5.256  0.2166 -0.1601  3.3057
 7181TIP3   OH242957   5.821   4.680   5.652 -0.1325  1.0542  0.0867
 7181TIP3    H142958   5.757   4.678   5.722  0.1719 -0.8665  0.3846
 7181TIP3    H242959   5.783   4.626   5.582  0.2151  1.6926 -0.6144
 7182TIP3   OH242960   1.185   0.818   1.770  0.2122  0.1212  0.5385
 7182TIP3    H142961   1.130   0.781   1.839  0.8187  0.4002  1.1822
 7182TIP3    H242962   1.124   0.868   1.715 -0.8263 -2.6052 -0.9800
 7183TIP3   OH242963   3.280   0.818  14.876 -0.0819  0.3549 -0.1980
 7183TIP3    H142964   3.281   0.818  14.971 -0.1788  0.1381 -0.1964
 7183TIP3    H242965   3.240   0.901  14.852 -0.7343  0.0954 -0.0358
 7184TIP3   OH242966   6.048   1.063   0.291  0.1932 -0.3205  0.5965
 7184TIP3    H142967   6.100   1.059   0.211 -0.6072  0.9293 -0.0217
 7184TIP3    H242968   6.055   0.975   0.328  1.0581 -0.7618 -0.5278
 7185TIP3   OH242969   0.166   1.558  16.394 -0.6327  0.1713  0.3969
 7185TIP3    H142970   0.223   1.572  16.319 -1.3019  0.6235 -0.0425
 7185TIP3    H242971   0.082   1.534  16.355 -1.2704  1.4126  0.9464
 7186TIP3   OH242972   0.299   2.950  14.650 -0.5070  0.1098 -0.3512
 7186TIP3    H142973   0.378   2.926  14.699  0.9585  2.5911 -1.2754
 7186TIP3    H242974   0.330   2.960  14.560 -1.9350  0.9454 -0.7694
 7187TIP3   OH242975   2.885   2.501   2.145  0.2689 -0.3833  0.3333
 7187TIP3    H142976   2.919   2.524   2.058  0.2723  1.2157  0.7364
 7187TIP3    H242977   2.874   2.406   2.141 -3.3466 -0.0874 -2.7487
 7188TIP3   OH242978   0.534   4.972   0.904  0.1048  0.0892 -0.0727
 7188TIP3    H142979   0.547   5.025   0.982  0.9249 -0.9544  0.5236
 7188TIP3    H242980   0.486   4.896   0.934 -0.1454 -0.0162 -0.7197
 7189TIP3   OH242981   5.887   5.556   1.795 -0.0885 -0.3108 -0.0377
 7189TIP3    H142982   5.913   5.571   1.886 -0.5077  1.9321 -0.2355
 7189TIP3    H242983   5.825   5.483   1.800 -0.0779 -0.2509  1.4696
 7190TIP3   OH242984   4.726   0.725  13.450 -0.0997 -0.2918  0.3672
 7190TIP3    H142985   4.792   0.783  13.489 -3.6084  3.4001  1.5577
 7190TIP3    H242986   4.750   0.638  13.480  2.2755  1.2773  3.6880
 7191TIP3   OH242987   4.992   6.644  16.027 -0.2478 -0.0005 -0.3397
 7191TIP3    H142988   5.083   6.615  16.019 -0.9555 -2.2213 -1.0208
 7191TIP3    H242989   4.955   6.630  15.940 -1.3221  0.6719 -0.0047
 7192TIP3   OH242990   5.560   4.794   3.685 -0.0176 -0.2105 -0.3603
 7192TIP3    H142991   5.564   4.849   3.608 -0.8383  0.2614 -0.0863
 7192TIP3    H242992   5.650   4.766   3.701  0.3488  0.7474 -0.7225
 7193TIP3   OH242993   2.899   5.687  12.978  0.9091 -0.4220 -0.2280
 7193TIP3    H142994   2.903   5.767  12.926  0.7704 -1.5451 -2.0303
 7193TIP3    H242995   2.823   5.700  13.035  1.2454  0.9601 -0.0547
 7194TIP3   OH242996   2.089   2.845  14.648  0.0530 -0.2752  0.3398
 7194TIP3    H142997   2.138   2.766  14.674 -0.1043  0.0018  1.5198
 7194TIP3    H242998   2.084   2.839  14.553  0.3269 -1.5297  0.3814
 7195TIP3   OH242999   5.611   0.369  14.864 -0.2454  0.2109 -0.0418
 7195TIP3    H143000   5.524   0.329  14.858  0.4864 -1.3634 -0.7269
 7195TIP3    H243001   5.651   0.350  14.780  1.1425 -0.0056  0.6499
 7196TIP3   OH243002   1.722   5.132  15.885  0.4344  0.0169  0.6879
 7196TIP3    H143003   1.710   5.109  15.977 -2.8446 -0.4258  0.2459
 7196TIP3    H243004   1.662   5.204  15.870  2.2621  1.3397 -0.7462
 7197TIP3   OH243005   2.504   1.360   5.081 -0.1792  0.6454  0.1246
 7197TIP3    H143006   2.474   1.306   5.154  0.3871  2.2225  1.5677
 7197TIP3    H243007   2.495   1.450   5.111 -2.4492  1.5437 -2.7411
 7198TIP3   OH243008   0.448   4.136   5.436  0.2061  0.2554  0.2870
 7198TIP3    H143009   0.486   4.063   5.485  2.6784  0.9060 -0.4714
 7198TIP3    H243010   0.369   4.159   5.485  0.1035 -1.9975  1.3251
 7199TIP3   OH243011   4.106   2.285  17.355 -0.6879  0.3869  0.0719
 7199TIP3    H143012   4.035   2.340  17.389 -0.5514  0.6452 -0.0560
 7199TIP3    H243013   4.150   2.340  17.291 -1.1883 -0.2279 -0.8186
 7200TIP3   OH243014   1.751   6.396  16.722  0.0873  0.4046 -0.2773
 7200TIP3    H143015   1.673   6.340  16.721 -0.1551  0.7298 -1.7639
 7200TIP3    H243016   1.772   6.409  16.630  0.7847  1.8743  0.0655
 7201TIP3   OH243017   2.866   2.351   2.497 -0.3164  0.4773 -0.4344
 7201TIP3    H143018   2.933   2.420   2.497 -0.9479  1.1481  1.2777
 7201TIP3    H243019   2.896   2.290   2.565 -0.8638  0.1934 -0.4480
 7202TIP3   OH243020   4.413   4.111  15.674 -0.0813 -0.3133  0.2997
 7202TIP3    H143021   4.397   4.050  15.746  0.3130 -2.1386 -1.0822
 7202TIP3    H243022   4.506   4.100  15.655  0.5017  2.2567  1.2942
 7203TIP3   OH243023   4.516   6.004   5.706 -0.6163 -0.2322  0.4245
 7203TIP3    H143024   4.544   6.031   5.618  1.5500 -1.5586  0.6357
 7203TIP3    H243025   4.488   5.913   5.695  1.2285 -0.9688  1.3210
 7204TIP3   OH243026   5.878   2.911  14.429 -0.0414 -0.3196  0.3858
 7204TIP3    H143027   5.894   2.982  14.367  0.7164 -0.9160 -0.1192
 7204TIP3    H243028   5.946   2.847  14.410 -1.7775 -2.0163 -0.3915
 7205TIP3   OH243029   0.375   6.302  13.851  0.0983 -0.0657  0.4427
 7205TIP3    H143030   0.364   6.227  13.793  0.5520 -1.6182  2.2793
 7205TIP3    H243031   0.359   6.268  13.939 -1.7686  2.4601  1.1931
 7206TIP3   OH243032   2.461   4.440   4.835 -0.2255  0.0529  0.4186
 7206TIP3    H143033   2.429   4.516   4.786  0.8275  1.0766  1.2720
 7206TIP3    H243034   2.386   4.413   4.889 -0.0914  1.6491  1.4752
 7207TIP3   OH243035   1.402   1.349  13.137 -0.3167  0.1065 -0.0642
 7207TIP3    H143036   1.434   1.352  13.047  0.4492  1.1809  0.2259
 7207TIP3    H243037   1.331   1.413  13.140  0.1862  0.6586  0.2788
 7208TIP3   OH243038   0.729   0.564  16.096 -0.5764  0.5772  0.1716
 7208TIP3    H143039   0.640   0.599  16.085 -1.0886  0.3491  2.9584
 7208TIP3    H243040   0.786   0.635  16.066 -1.6665  1.1825 -0.5608
 7209TIP3   OH243041   6.675   4.307   5.430 -0.8923  0.5688  0.5561
 7209TIP3    H143042   6.643   4.395   5.408 -0.0962  1.0709  1.2876
 7209TIP3    H243043   6.659   4.255   5.352  1.0012  2.0271 -0.9074
 7210TIP3   OH243044   0.726   4.079   5.233  0.3583 -0.5086 -0.1040
 7210TIP3    H143045   0.685   4.141   5.293 -2.2446 -2.9741  0.8924
 7210TIP3    H243046   0.673   4.085   5.153  0.6116 -0.8363 -0.2989
 7211TIP3   OH243047   1.539   6.300   4.020  0.1153 -0.1026 -0.7291
 7211TIP3    H143048   1.511   6.316   3.930  2.5821  0.2688 -1.4911
 7211TIP3    H243049   1.601   6.370   4.039  0.9737 -1.1896  0.6500
 7212TIP3   OH243050   4.287   5.617  16.029 -0.5015  0.7673 -0.0964
 7212TIP3    H143051   4.367   5.646  16.074  1.3584 -0.8454 -2.1694
 7212TIP3    H243052   4.277   5.526  16.054  0.6850 -0.2279 -2.9025
 7213TIP3   OH243053   1.917   2.382  16.250 -0.5231 -0.4934  0.0662
 7213TIP3    H143054   1.869   2.317  16.198  2.0706 -2.4889 -0.0358
 7213TIP3    H243055   1.967   2.432  16.185 -0.7727  0.1174  0.3349
 7214TIP3   OH243056   2.636   4.936   5.031  0.6842 -0.0083  0.4803
 7214TIP3    H143057   2.589   4.869   4.981  0.1273  0.9382 -0.3106
 7214TIP3    H243058   2.587   4.945   5.112  1.2064 -1.0866  0.9319
 7215TIP3   OH243059   3.969   5.348  16.162  0.0327 -0.1882  0.0292
 7215TIP3    H143060   3.977   5.443  16.154 -2.0328  0.0576  0.4581
 7215TIP3    H243061   3.964   5.333  16.256  0.1064 -0.7196 -0.0498
 7216TIP3   OH243062   6.172   2.951  14.660  0.1409  0.0962  0.2390
 7216TIP3    H143063   6.095   2.913  14.702  0.1089 -0.5768 -0.4223
 7216TIP3    H243064   6.206   3.013  14.725  0.3402 -1.2254  1.4397
 7217TIP3   OH243065   2.802   4.030   2.262  0.6467 -0.4760  0.1736
 7217TIP3    H143066   2.840   4.037   2.175  0.4720 -0.2393  0.1163
 7217TIP3    H243067   2.733   4.096   2.264  0.9973 -0.1043  0.6718
 7218TIP3   OH243068   1.341   1.184  14.832  0.5933 -0.0038 -0.0170
 7218TIP3    H143069   1.309   1.235  14.758 -0.6369 -1.1142 -0.2792
 7218TIP3    H243070   1.396   1.116  14.793 -0.8178 -1.1802 -0.0496
 7219TIP3   OH243071   4.268   5.170  14.330 -0.0507 -0.5317  0.1150
 7219TIP3    H143072   4.288   5.261  14.350 -0.1954 -0.3505 -0.5336
 7219TIP3    H243073   4.266   5.126  14.415 -3.2168  0.7050  0.7864
 7220TIP3   OH243074   0.835   1.179  13.928 -0.0134  0.1249  0.1866
 7220TIP3    H143075   0.922   1.210  13.901  0.3268 -0.8035  0.1718
 7220TIP3    H243076   0.835   1.189  14.023 -0.3692  1.2993  0.0728
 7221TIP3   OH243077   6.133   2.148   0.856 -0.4182 -0.3634  0.0533
 7221TIP3    H143078   6.224   2.122   0.842  0.3987  2.1350  0.2449
 7221TIP3    H243079   6.088   2.067   0.879  1.8430 -1.5924  0.3986
 7222TIP3   OH243080   2.392   2.699   1.076 -0.9321  0.3027  0.2707
 7222TIP3    H143081   2.354   2.764   1.134  1.8560  1.2098  1.2748
 7222TIP3    H243082   2.442   2.750   1.012 -2.1424 -0.7653 -1.6206
 7223TIP3   OH243083   6.190   3.628   4.322 -0.1087  0.5664  0.3643
 7223TIP3    H143084   6.132   3.661   4.253  1.5644  1.0391 -0.8875
 7223TIP3    H243085   6.230   3.550   4.284 -2.3787 -1.8128  2.4786
 7224TIP3   OH243086   4.238   0.363   3.728  0.5563 -0.3694 -0.3386
 7224TIP3    H143087   4.314   0.364   3.670 -0.1244  0.0557 -1.2545
 7224TIP3    H243088   4.236   0.451   3.766 -0.4032  0.1931 -1.6032
 7225TIP3   OH243089   4.541   6.210   6.025 -0.1379  0.2671 -0.0209
 7225TIP3    H143090   4.464   6.232   6.078 -0.0670  1.5215 -0.4033
 7225TIP3    H243091   4.534   6.116   6.010 -3.2976  0.7655 -2.6891
 7226TIP3   OH243092   1.940   2.783  16.185 -0.3236  0.4583 -0.4262
 7226TIP3    H143093   1.891   2.752  16.109 -1.3540 -0.4825  0.5908
 7226TIP3    H243094   1.873   2.814  16.246  0.3342 -0.5734  0.8695
 7227TIP3   OH243095   3.757   2.595  13.078  1.1195  0.3802  0.4740
 7227TIP3    H143096   3.768   2.679  13.122  2.1781 -0.1791  1.3461
 7227TIP3    H243097   3.762   2.530  13.148 -2.7982 -0.3504  0.2764
 7228TIP3   OH243098   3.354   2.734   0.751  0.3295 -0.0085 -0.2651
 7228TIP3    H143099   3.421   2.785   0.797 -0.1296  0.5382 -0.1872
 7228TIP3    H243100   3.279   2.736   0.810  0.6209 -1.6485  0.2088
 7229TIP3   OH243101   0.535   2.195  12.704  0.2076  0.2403 -0.3836
 7229TIP3    H143102   0.579   2.182  12.620 -2.5598  2.2596 -2.3340
 7229TIP3    H243103   0.518   2.107  12.737  2.1986 -0.5844 -1.3758
 7230TIP3   OH243104   0.511   5.685   2.885 -0.3506  0.4291 -0.0068
 7230TIP3    H143105   0.509   5.670   2.979 -2.0033 -1.9760 -0.3428
 7230TIP3    H243106   0.567   5.762   2.874  1.3779 -0.3019  2.7761
 7231TIP3   OH243107   6.590   3.186   1.556 -0.3436  0.3328 -0.0326
 7231TIP3    H143108   6.681   3.189   1.528 -0.9179 -2.0891 -2.6974
 7231TIP3    H243109   6.593   3.171   1.650  1.9718  0.5267 -0.0288
 7232TIP3   OH243110   1.995   0.365   2.215 -0.1291  0.0880 -0.4962
 7232TIP3    H143111   1.928   0.420   2.257 -0.1432  1.0231 -1.6898
 7232TIP3    H243112   2.013   0.409   2.132  0.5300 -1.2370 -1.0791
 7233TIP3   OH243113   2.321   0.626  12.885  0.0550 -0.0479  0.1224
 7233TIP3    H143114   2.268   0.684  12.940 -1.2871 -0.1191 -1.0534
 7233TIP3    H243115   2.397   0.680  12.861 -0.4516  0.7300  0.2305
 7234TIP3   OH243116   2.712   3.873   4.551  0.2223 -1.1430  0.3243
 7234TIP3    H143117   2.766   3.880   4.630  1.3017  2.8936 -0.5394
 7234TIP3    H243118   2.629   3.914   4.574 -0.0405 -1.3573 -0.2047
 7235TIP3   OH243119   0.181   2.440   5.054  0.3495  0.0409  0.2496
 7235TIP3    H143120   0.264   2.480   5.079  0.6501 -1.4473  1.8256
 7235TIP3    H243121   0.115   2.483   5.109  0.5721 -1.0577  1.4156
 7236TIP3   OH243122   4.000   1.498   5.020  0.3833  0.0119  1.0203
 7236TIP3    H143123   4.067   1.462   5.078  0.7812  0.4519  0.8379
 7236TIP3    H243124   3.926   1.518   5.077  0.5730 -0.0551  1.2886
 7237TIP3   OH243125   5.819   6.174  14.119 -0.6131 -0.4374  0.4901
 7237TIP3    H143126   5.877   6.217  14.056  2.1513 -2.1044  1.6833
 7237TIP3    H243127   5.769   6.111  14.067  0.4097 -0.6294 -0.3082
 7238TIP3   OH243128   4.071   5.983  14.677 -0.6602  0.1223 -0.3223
 7238TIP3    H143129   4.114   5.931  14.745  0.2561  1.2093 -0.0212
 7238TIP3    H243130   3.989   6.012  14.717 -0.7891 -0.4091 -0.1995
 7239TIP3   OH243131   6.413   0.639   2.994 -0.2594 -0.9388  0.3825
 7239TIP3    H143132   6.448   0.556   3.029 -1.6982 -1.1899  1.3007
 7239TIP3    H243133   6.353   0.670   3.062 -0.8921  0.0944 -0.6200
 7240TIP3   OH243134   2.643   3.709  15.401  0.0213 -0.4517  0.3099
 7240TIP3    H143135   2.616   3.618  15.415 -0.8308  0.1028  2.5332
 7240TIP3    H243136   2.723   3.718  15.451 -0.5857  0.3593  1.1468
 7241TIP3   OH243137   5.291   0.707  13.162  0.3807  0.0650 -0.3629
 7241TIP3    H143138   5.369   0.740  13.206 -0.3596  0.4654  0.6880
 7241TIP3    H243139   5.224   0.704  13.231 -0.6474  0.1325 -1.3280
 7242TIP3   OH243140   3.599   5.188   5.275 -0.0599  0.3313 -0.6632
 7242TIP3    H143141   3.671   5.221   5.329 -0.0312 -0.3627 -0.2562
 7242TIP3    H243142   3.528   5.250   5.289 -0.2674 -0.1887  0.7054
 7243TIP3   OH243143   2.664   2.178   4.331 -0.2848 -0.6988 -0.6716
 7243TIP3    H143144   2.584   2.222   4.305 -0.2673 -0.6288 -0.6089
 7243TIP3    H243145   2.729   2.206   4.266 -0.8670 -2.6692 -2.1814
 7244TIP3   OH243146   0.348   2.140  12.070  0.1604  0.7297  0.3890
 7244TIP3    H143147   0.365   2.222  12.022  0.0970 -0.6568 -2.2030
 7244TIP3    H243148   0.398   2.148  12.151  2.5170  2.1501 -1.0961
 7245TIP3   OH243149   1.823   4.856  15.109 -0.2850  0.3456  0.2847
 7245TIP3    H143150   1.795   4.891  15.024  1.9471  0.6685 -0.3705
 7245TIP3    H243151   1.802   4.762  15.103  2.8060 -0.3539 -2.0551
 7246TIP3   OH243152   2.215   5.746   5.877  0.0984  0.5645  0.0063
 7246TIP3    H143153   2.271   5.797   5.935 -1.7154  0.8223  1.6353
 7246TIP3    H243154   2.154   5.810   5.841  0.5354  0.2247 -1.4195
 7247TIP3   OH243155   3.619   6.718   3.700  0.2914  0.0872  0.6490
 7247TIP3    H143156   3.637   6.626   3.682  1.6673  0.3380  0.6453
 7247TIP3    H243157   3.636   6.763   3.618 -0.8067  0.3063  0.5273
 7248TIP3   OH243158   4.991   5.967   3.235  0.0935  0.9486  0.5836
 7248TIP3    H143159   4.958   5.942   3.321  1.8239 -1.1871  0.7036
 7248TIP3    H243160   4.922   6.022   3.198 -1.9685 -0.4254  2.1702
 7249TIP3   OH243161   3.676   3.381  13.527  0.2677 -0.1424  0.9047
 7249TIP3    H143162   3.700   3.461  13.574  1.5531  0.9985 -1.4757
 7249TIP3    H243163   3.611   3.410  13.462 -0.5655 -1.4108  1.1289
 7250TIP3   OH243164   4.666   0.198  12.179  0.4789  0.0976  0.6781
 7250TIP3    H143165   4.653   0.269  12.242  1.0532  1.3481 -0.5802
 7250TIP3    H243166   4.761   0.187  12.175  0.5929  1.5016 -1.5254
 7251TIP3   OH243167   4.168   0.604   6.237 -0.4060  0.0307  0.3098
 7251TIP3    H143168   4.214   0.596   6.154 -0.7024 -2.2642  0.3160
 7251TIP3    H243169   4.237   0.626   6.300  0.0644  0.2856 -0.2842
 7252TIP3   OH243170   2.703   2.168   0.350  0.3203  0.2384 -0.5201
 7252TIP3    H143171   2.675   2.220   0.274  0.7963 -0.0214 -0.8827
 7252TIP3    H243172   2.623   2.128   0.382  0.2598 -0.5127 -1.5478
 7253TIP3   OH243173   2.854   1.272  12.912 -0.1666 -0.3224  0.0126
 7253TIP3    H143174   2.881   1.282  13.003 -0.0635 -2.1402  0.2100
 7253TIP3    H243175   2.934   1.245  12.866 -0.2945  0.2503 -0.5568
 7254TIP3   OH243176   0.275   2.213  11.141 -0.3384  0.2598 -0.5742
 7254TIP3    H143177   0.357   2.245  11.179 -0.9928  0.2518  0.9098
 7254TIP3    H243178   0.240   2.288  11.092  0.8642  0.0564 -1.7933
 7255TIP3   OH243179   3.397   3.428  14.792  0.2140 -0.1989  0.0098
 7255TIP3    H143180   3.318   3.430  14.737 -0.0312 -1.3606  0.2822
 7255TIP3    H243181   3.466   3.397  14.733 -0.3063 -2.6646  0.5883
 7256TIP3   OH243182   2.593   5.574   3.935  0.2665 -0.0818  0.5465
 7256TIP3    H143183   2.668   5.542   3.985  0.4084 -1.3536 -0.4132
 7256TIP3    H243184   2.630   5.604   3.852  0.3314  4.0196  1.8368
 7257TIP3   OH243185   2.320   2.888   0.344 -0.3932  0.0513  0.6871
 7257TIP3    H143186   2.233   2.850   0.332 -0.7269  0.6823  1.0714
 7257TIP3    H243187   2.355   2.846   0.422 -0.8265  0.6465  1.2034
 7258TIP3   OH243188   3.294   1.668  14.385  0.0928  0.4240  0.6505
 7258TIP3    H143189   3.386   1.651  14.365 -0.1976  1.0501 -1.5191
 7258TIP3    H243190   3.260   1.584  14.413  0.6612 -0.5960 -1.4956
 7259TIP3   OH243191   1.132   0.149  15.082 -0.5933 -0.0573  0.2742
 7259TIP3    H143192   1.113   0.227  15.030 -2.0713 -0.7575 -0.3142
 7259TIP3    H243193   1.046   0.120  15.113  0.0300 -0.9100  1.2950
 7260TIP3   OH243194   2.999   6.655   5.353 -0.5880  0.6087  0.0167
 7260TIP3    H143195   3.006   6.588   5.421  1.6715  0.7839  0.0325
 7260TIP3    H243196   3.034   6.613   5.274  0.4030  1.5735 -0.0863
 7261TIP3   OH243197   3.155   3.617  15.332 -0.1460  0.5521 -0.4707
 7261TIP3    H143198   3.196   3.533  15.356 -1.3962 -0.4905 -1.7973
 7261TIP3    H243199   3.228   3.677  15.321  0.8990 -0.7171 -0.7478
 7262TIP3   OH243200   6.697   6.685   2.759  0.4547 -0.4528 -1.0232
 7262TIP3    H143201   6.682   6.600   2.801  2.3249  0.5481  2.0147
 7262TIP3    H243202   6.611   6.726   2.757 -0.2926 -1.9670 -1.5250
 7263TIP3   OH243203   2.383   6.771   4.560 -0.5363  0.0311  0.3592
 7263TIP3    H143204   2.379   6.725   4.476  0.5370 -1.3532  1.0198
 7263TIP3    H243205   2.292   6.790   4.581 -1.0578 -1.9271  0.0899
 7264TIP3   OH243206   6.054   4.548  12.682  0.2401  0.0468  0.6582
 7264TIP3    H143207   5.983   4.487  12.702 -0.5050  0.5768 -0.3050
 7264TIP3    H243208   6.011   4.633  12.672  0.9818  0.3447 -0.1313
 7265TIP3   OH243209   5.638   3.774  13.779 -0.1472  0.2766 -0.7092
 7265TIP3    H143210   5.656   3.868  13.785 -1.2953  0.5649 -1.3998
 7265TIP3    H243211   5.544   3.769  13.762 -0.3396 -1.0602  0.5836
 7266TIP3   OH243212   0.019   2.710  14.205 -0.2429  0.0931 -0.2375
 7266TIP3    H143213  -0.071   2.690  14.231 -0.6782  0.6025 -1.2813
 7266TIP3    H243214   0.046   2.637  14.150 -0.3898  0.4188 -0.7515
 7267TIP3   OH243215   6.216   1.394  15.431 -0.3744  0.8448  0.1731
 7267TIP3    H143216   6.142   1.444  15.398 -2.4427 -1.4870  0.9812
 7267TIP3    H243217   6.179   1.336  15.498  2.2763 -0.1063  0.9734
 7268TIP3   OH243218   4.701   5.559  13.866 -0.0997  0.3750 -0.0189
 7268TIP3    H143219   4.742   5.644  13.882  1.0894 -0.0250 -0.8221
 7268TIP3    H243220   4.771   5.504  13.831 -0.7960 -1.0011  0.6437
 7269TIP3   OH243221   2.947   2.648   5.979 -0.6492 -0.3677 -0.1588
 7269TIP3    H143222   2.913   2.586   6.043  0.8376 -1.5246 -0.4366
 7269TIP3    H243223   3.016   2.696   6.025 -0.3831 -0.3754 -0.5434
 7270TIP3   OH243224   0.339   6.548  10.875  0.1348 -0.0605  0.0862
 7270TIP3    H143225   0.355   6.461  10.912  0.3815  0.4420  1.2148
 7270TIP3    H243226   0.246   6.564  10.889  0.2377  0.1490  0.5495
 7271TIP3   OH243227   3.770   4.783   4.136 -0.8929 -0.3264 -0.2195
 7271TIP3    H143228   3.851   4.786   4.188 -1.1945  0.9617  0.2053
 7271TIP3    H243229   3.736   4.694   4.150 -0.0454 -0.5747  0.3559
 7272TIP3   OH243230   4.594   2.489   0.246 -0.1082 -0.6234 -0.0408
 7272TIP3    H143231   4.605   2.422   0.314  1.0635 -0.3033  0.1078
 7272TIP3    H243232   4.676   2.538   0.247 -0.3784 -0.1128 -1.1573
 7273TIP3   OH243233   2.883   1.579  16.309 -0.8423 -0.0741 -0.1483
 7273TIP3    H143234   2.834   1.621  16.239 -0.9677 -1.0659 -0.6745
 7273TIP3    H243235   2.932   1.509  16.266 -2.6597 -2.1908  1.0213
 7274TIP3   OH243236   2.397   0.513   1.616 -1.0588  0.4606 -0.5295
 7274TIP3    H143237   2.433   0.588   1.664  0.6220 -0.7280  0.1701
 7274TIP3    H243238   2.309   0.501   1.652  0.0916 -0.3024  2.2451
 7275TIP3   OH243239   2.139   4.197   0.154 -0.5130 -0.1631  0.0188
 7275TIP3    H143240   2.097   4.143   0.088  1.0011  0.1747 -1.2833
 7275TIP3    H243241   2.076   4.199   0.227 -2.5301 -0.0370 -1.6245
 7276TIP3   OH243242   5.505   4.762   4.413 -0.0828 -0.3890  0.2022
 7276TIP3    H143243   5.487   4.853   4.387  2.1881  0.4690  1.3004
 7276TIP3    H243244   5.511   4.766   4.509  3.5347 -0.8264  0.1579
 7277TIP3   OH243245   5.072   0.426  13.798  0.7039  0.1736  0.4711
 7277TIP3    H143246   5.060   0.342  13.755  2.2625 -0.4950  1.2693
 7277TIP3    H243247   5.113   0.481  13.731 -0.7157  0.4910 -0.1956
 7278TIP3   OH243248   1.842   6.379  15.282  0.1783  0.0324  0.1704
 7278TIP3    H143249   1.794   6.347  15.205  1.3735 -2.4751  0.3510
 7278TIP3    H243250   1.934   6.358  15.263  0.7523  1.3057  1.3986
 7279TIP3   OH243251   1.855   2.050   5.469  0.0480 -0.9272 -0.3206
 7279TIP3    H143252   1.851   2.123   5.407 -0.6722 -1.0182 -0.3989
 7279TIP3    H243253   1.802   2.080   5.543 -0.1455 -1.3174 -0.3007
 7280TIP3   OH243254   4.493   1.052  16.399  0.0484  0.8622  0.2282
 7280TIP3    H143255   4.426   1.063  16.332 -1.4811  2.0754  1.8603
 7280TIP3    H243256   4.563   1.003  16.356 -2.4597 -1.8082 -1.1617
 7281TIP3   OH243257   1.590   2.276  11.799  0.1451 -0.1375  0.2454
 7281TIP3    H143258   1.623   2.285  11.709 -0.0036  1.3388  0.3140
 7281TIP3    H243259   1.600   2.364  11.837 -0.1142 -0.6566  1.5648
 7282TIP3   OH243260   3.796   6.033   3.071  0.1040 -0.2367  0.2056
 7282TIP3    H143261   3.711   5.992   3.086 -0.7133  1.0979 -0.5414
 7282TIP3    H243262   3.790   6.117   3.116  0.1936  0.8048 -1.6253
 7283TIP3   OH243263   0.825   6.617  11.869 -0.7055  0.2225  0.4517
 7283TIP3    H143264   0.760   6.687  11.866 -1.0622 -0.1225  0.1075
 7283TIP3    H243265   0.809   6.566  11.790 -0.5345 -0.3268  0.7693
 7284TIP3   OH243266   5.225   0.524  16.193  0.3319 -0.5765  0.4169
 7284TIP3    H143267   5.269   0.484  16.268 -0.9647  0.0957  1.5874
 7284TIP3    H243268   5.268   0.610  16.184  0.2768 -0.5290  0.5969
 7285TIP3   OH243269   2.291   2.492  16.327 -0.0005 -0.4762  0.9590
 7285TIP3    H143270   2.255   2.428  16.265  0.2742 -2.0335  2.3287
 7285TIP3    H243271   2.223   2.558  16.335 -0.2942 -0.5642 -0.5243
 7286TIP3   OH243272   5.002   1.454  12.456 -0.3102 -0.2214 -0.0050
 7286TIP3    H143273   5.008   1.479  12.548  0.5093 -1.3315  0.2686
 7286TIP3    H243274   5.044   1.525  12.409 -2.8767  1.5786  0.2082
 7287TIP3   OH243275   6.107   1.320   4.064  0.4366  0.5838  0.1400
 7287TIP3    H143276   6.071   1.300   4.150 -0.5540  0.9304 -0.1771
 7287TIP3    H243277   6.108   1.236   4.018  0.9837  0.3953  0.4897
 7288TIP3   OH243278   3.328   2.724   3.500  0.4113 -0.1812  0.3170
 7288TIP3    H143279   3.298   2.787   3.565  1.0495 -0.3739  0.8059
 7288TIP3    H243280   3.341   2.775   3.420 -1.2963 -0.1119  0.0584
 7289TIP3   OH243281   4.702   3.983  13.817  0.3740 -0.0660 -0.4636
 7289TIP3    H143282   4.661   4.064  13.785  1.5189  0.7431  0.0526
 7289TIP3    H243283   4.661   3.968  13.902 -0.0138 -0.1766 -0.6641
 7290TIP3   OH243284   4.336   0.113  16.760 -0.3859 -0.1091 -0.2083
 7290TIP3    H143285   4.348   0.105  16.665  0.8505  1.8386 -0.2752
 7290TIP3    H243286   4.307   0.204  16.772 -2.2759 -0.8343  1.1652
 7291TIP3   OH243287   3.665   6.449  13.554 -0.1215 -0.4989  0.5758
 7291TIP3    H143288   3.712   6.421  13.475  1.0576  0.3829  0.9324
 7291TIP3    H243289   3.574   6.424  13.538  0.4773 -2.3826 -0.0923
 7292TIP3   OH243290   3.139   2.717  16.776  0.2163 -0.4655  0.1489
 7292TIP3    H143291   3.141   2.648  16.843  0.7803 -1.3166 -0.7089
 7292TIP3    H243292   3.168   2.673  16.697  0.9594  0.8694 -0.3436
 7293TIP3   OH243293   1.016   5.030   5.547 -0.1548  0.1024  0.0915
 7293TIP3    H143294   0.954   5.034   5.474 -0.1552 -0.3678  0.0642
 7293TIP3    H243295   0.962   5.029   5.626 -0.1336  1.6483  0.1491
 7294TIP3   OH243296   4.881   5.540   2.780  0.6165 -0.4217 -0.4077
 7294TIP3    H143297   4.795   5.520   2.818 -0.2755  2.0992 -0.9355
 7294TIP3    H243298   4.875   5.508   2.690  0.4160 -0.7014 -0.2977
 7295TIP3   OH243299   0.756   5.165   3.037 -0.7071 -0.3613  0.5531
 7295TIP3    H143300   0.739   5.180   2.944 -0.5055 -2.7227  0.0662
 7295TIP3    H243301   0.843   5.201   3.052 -0.6761 -0.0986 -0.2199
 7296TIP3   OH243302   1.504   0.534   2.331 -0.3803 -0.0790 -0.4479
 7296TIP3    H143303   1.450   0.461   2.301  0.1623 -0.4995 -0.3956
 7296TIP3    H243304   1.520   0.586   2.252  2.0463 -1.8105 -1.2070
 7297TIP3   OH243305   0.822   3.359   4.032  0.2565  0.2895 -0.1150
 7297TIP3    H143306   0.792   3.269   4.046  1.7867 -0.3063 -0.4805
 7297TIP3    H243307   0.742   3.411   4.031 -0.9445 -1.4412 -2.7842
 7298TIP3   OH243308   1.808   1.262  16.241  0.3585 -0.7271  0.1987
 7298TIP3    H143309   1.763   1.178  16.257  0.4261 -0.8830 -0.4084
 7298TIP3    H243310   1.849   1.283  16.325 -0.6133 -0.7208  0.6870
 7299TIP3   OH243311   0.579   1.900  15.606  0.2013  0.9953  0.4908
 7299TIP3    H143312   0.635   1.944  15.669  0.1070  0.0543  1.2527
 7299TIP3    H243313   0.577   1.809  15.635 -0.6554  0.7495 -0.2923
 7300TIP3   OH243314   4.910   5.558   1.054 -0.2497 -0.3886 -0.2600
 7300TIP3    H143315   4.968   5.482   1.061  0.1039 -0.2125 -1.1059
 7300TIP3    H243316   4.850   5.550   1.127  1.3299 -0.1731  1.1298
 7301TIP3   OH243317   1.840   4.928   0.745  0.4386 -0.6062 -0.2043
 7301TIP3    H143318   1.871   4.979   0.670  0.4272 -0.5292 -0.1572
 7301TIP3    H243319   1.897   4.852   0.748  0.5747 -0.5041 -0.1648
 7302TIP3   OH243320   2.802   1.115   2.478 -0.2486  0.1733  0.7118
 7302TIP3    H143321   2.891   1.102   2.444  0.8447  1.4593  2.8830
 7302TIP3    H243322   2.766   1.027   2.486  0.1210 -0.2843 -1.8340
 7303TIP3   OH243323   1.967   4.436  17.160 -0.5485  0.6174  0.0116
 7303TIP3    H143324   1.985   4.456  17.068  0.5381 -1.4755 -0.2854
 7303TIP3    H243325   2.046   4.465  17.206 -0.2187 -0.2212 -0.0163
 7304TIP3   OH243326   5.325   4.137  11.476 -0.5354  0.0578 -0.3934
 7304TIP3    H143327   5.312   4.182  11.393 -2.2452 -0.3412 -0.3798
 7304TIP3    H243328   5.238   4.105  11.500  0.2686 -1.5369  0.5764
 7305TIP3   OH243329   6.243   6.597  15.123  0.5609 -0.1814 -0.6165
 7305TIP3    H143330   6.236   6.502  15.120 -2.7712 -0.0815  0.1243
 7305TIP3    H243331   6.286   6.616  15.207  1.2764 -0.9796 -0.7861
 7306TIP3   OH243332   2.427   2.681  16.116  0.0130  0.4300 -0.5360
 7306TIP3    H143333   2.452   2.748  16.179  0.5903  1.1405 -1.4904
 7306TIP3    H243334   2.397   2.607  16.170 -0.5830  1.4159  0.5275
 7307TIP3   OH243335   0.255   3.512  12.177 -0.2918 -0.3148  0.0830
 7307TIP3    H143336   0.195   3.586  12.178  0.6377  0.4651  0.2942
 7307TIP3    H243337   0.212   3.445  12.229 -0.5383  0.5978  1.0848
 7308TIP3   OH243338   3.345   6.769   5.189  0.7610 -0.5050  0.2157
 7308TIP3    H143339   3.401   6.782   5.266 -0.5144  1.4532  0.8970
 7308TIP3    H243340   3.395   6.806   5.116  1.6136 -1.5890  0.2302
 7309TIP3   OH243341   5.862   0.560   5.461  0.1327  0.0925 -0.1986
 7309TIP3    H143342   5.911   0.478   5.464 -0.3526 -0.4261 -3.2416
 7309TIP3    H243343   5.925   0.625   5.430 -0.5719 -0.2352 -2.5214
 7310TIP3   OH243344   6.265   1.401  17.060 -0.2134  0.2107  0.1922
 7310TIP3    H143345   6.282   1.406  16.966  2.1380  0.4877  0.5770
 7310TIP3    H243346   6.251   1.491  17.087 -2.6855 -0.0091 -0.1157
 7311TIP3   OH243347   3.871   5.647   2.785  0.1755 -0.8557  0.1527
 7311TIP3    H143348   3.952   5.694   2.765  0.6592 -0.6469  2.2897
 7311TIP3    H243349   3.804   5.691   2.733  1.2803 -0.4057 -0.9288
 7312TIP3   OH243350   5.195   0.124   1.424  0.4668  0.4208 -0.1083
 7312TIP3    H143351   5.196   0.115   1.519 -0.8914 -4.0713 -0.2976
 7312TIP3    H243352   5.116   0.078   1.397  1.3064  0.7315 -3.4933
 7313TIP3   OH243353   0.596   2.487   2.617  0.3489 -0.0545  0.0826
 7313TIP3    H143354   0.534   2.433   2.568 -0.7289 -0.0602  1.3896
 7313TIP3    H243355   0.655   2.522   2.551 -0.9994 -0.1180 -1.2007
 7314TIP3   OH243356   5.535   4.913  11.888 -0.1233  0.2700  0.4006
 7314TIP3    H143357   5.537   5.002  11.922  1.2536  0.4094 -0.0183
 7314TIP3    H243358   5.600   4.911  11.818  0.2995 -1.2098  0.7885
 7315TIP3   OH243359   4.908   5.855   1.080  0.5980  0.5377 -0.2950
 7315TIP3    H143360   4.943   5.784   1.026  2.4222  1.8632 -0.9423
 7315TIP3    H243361   4.951   5.934   1.047  1.6777  1.4664  2.9703
 7316TIP3   OH243362   4.641   1.976   0.939 -0.4077 -0.6541  0.3768
 7316TIP3    H143363   4.574   1.941   0.997 -2.3604  3.5551  1.0357
 7316TIP3    H243364   4.596   1.992   0.856  0.4680 -0.1445 -0.0192
 7317TIP3   OH243365   2.437   5.010   4.191  0.3301 -0.1670  0.0644
 7317TIP3    H143366   2.458   4.971   4.106  2.9194 -1.4531  1.1729
 7317TIP3    H243367   2.464   5.101   4.183  0.5203 -0.2675 -0.5113
 7318TIP3   OH243368   1.145   0.689   6.502 -0.1165 -0.2033 -0.4392
 7318TIP3    H143369   1.114   0.771   6.541 -0.8688  0.3908 -2.1812
 7318TIP3    H243370   1.070   0.631   6.506 -0.6105  0.2743 -2.0430
 7319TIP3   OH243371   5.879   0.337  17.371  0.1129  0.2477 -0.1820
 7319TIP3    H143372   5.946   0.274  17.347 -0.7859 -0.7064 -0.2865
 7319TIP3    H243373   5.821   0.340  17.295 -1.1549 -0.5977  0.7155
 7320TIP3   OH243374   4.640   5.389   1.643 -0.1438  0.0580  0.0294
 7320TIP3    H143375   4.607   5.461   1.697  1.5784  1.0741 -0.2225
 7320TIP3    H243376   4.606   5.407   1.555  1.1926  1.2082 -0.2726
 7321TIP3   OH243377   4.762   2.730   0.312  0.4414 -0.3792  0.1896
 7321TIP3    H143378   4.790   2.731   0.220 -0.0531 -3.7764 -0.0944
 7321TIP3    H243379   4.844   2.727   0.361  0.6901 -0.0187 -0.1922
 7322TIP3   OH243380   1.577   2.351  14.548  0.2551  0.1512  0.4328
 7322TIP3    H143381   1.642   2.290  14.583  0.2188 -0.3347 -0.3102
 7322TIP3    H243382   1.619   2.390  14.472  0.5843  1.6959  1.3750
 7323TIP3   OH243383   0.012   4.699   5.856 -0.0520  0.0178  0.5120
 7323TIP3    H143384   0.003   4.639   5.783 -0.9738 -0.6771  1.1707
 7323TIP3    H243385   0.057   4.649   5.924  0.3010  0.4764  0.6254
 7324TIP3   OH243386   2.963   3.011  11.753  0.4160 -0.1869  0.1945
 7324TIP3    H143387   2.961   2.926  11.709  1.5283 -0.1183 -0.0311
 7324TIP3    H243388   2.990   3.073  11.685  0.6478  0.1712  0.6097
 7325TIP3   OH243389   2.716   6.202  12.687 -0.0588 -0.1343  0.9296
 7325TIP3    H143390   2.720   6.176  12.779 -1.3453  0.2045  1.0927
 7325TIP3    H243391   2.635   6.164  12.654  0.3350 -0.1591 -0.0421
 7326TIP3   OH243392   3.315   0.760  16.351 -0.1704 -0.0401  0.6171
 7326TIP3    H143393   3.309   0.815  16.429 -0.4597  0.5983  0.1577
 7326TIP3    H243394   3.403   0.723  16.354  0.3212  1.0710  0.5408
 7327TIP3   OH243395   5.498   2.623   5.897  0.2201  0.1034 -0.2201
 7327TIP3    H143396   5.525   2.589   5.812  0.4260  2.0190 -0.9742
 7327TIP3    H243397   5.562   2.589   5.959 -1.0349 -2.9446 -0.4188
 7328TIP3   OH243398   4.301   3.441  12.773 -0.4774  0.2606  0.5237
 7328TIP3    H143399   4.227   3.384  12.756  0.3541  0.0725 -3.5380
 7328TIP3    H243400   4.377   3.382  12.776  0.1272  0.8568 -1.5058
 7329TIP3   OH243401   0.440   0.031   0.866 -0.2847 -0.2408  0.3745
 7329TIP3    H143402   0.533   0.052   0.875 -0.3006 -0.7859  2.1855
 7329TIP3    H243403   0.433  -0.059   0.898 -1.0807 -1.1031 -2.0448
 7330TIP3   OH243404   4.038   3.674   1.604 -0.3203 -0.5950 -0.3129
 7330TIP3    H143405   4.032   3.768   1.588  0.9461 -0.5921 -0.8463
 7330TIP3    H243406   4.126   3.650   1.576  0.5672 -1.3553  2.7873
 7331TIP3   OH243407   1.671   2.644   5.717 -0.4016 -0.4250  0.2523
 7331TIP3    H143408   1.662   2.666   5.809  1.2605  1.9690 -0.0758
 7331TIP3    H243409   1.762   2.617   5.706 -0.8572 -1.7907 -0.5332
 7332TIP3   OH243410   6.235   1.857   5.301 -0.1448 -0.4602 -0.3636
 7332TIP3    H143411   6.293   1.864   5.225 -0.6942 -0.1652 -0.7647
 7332TIP3    H243412   6.184   1.938   5.300  1.6268  0.8053  1.8330
 7333TIP3   OH243413   2.131   1.120   2.881  0.1743  0.6151  0.2702
 7333TIP3    H143414   2.044   1.111   2.840  0.3587  0.1751 -0.0293
 7333TIP3    H243415   2.190   1.141   2.808  0.3709  0.6236  0.4323
 7334TIP3   OH243416   4.667   2.927  12.472 -0.1116 -0.7172  0.1429
 7334TIP3    H143417   4.608   2.922  12.548 -1.4404  0.5124 -0.7699
 7334TIP3    H243418   4.702   2.838  12.464  1.2432 -0.5931  3.0584
 7335TIP3   OH243419   1.237   0.438   2.475 -0.6799  0.7512  0.2830
 7335TIP3    H143420   1.158   0.482   2.509 -1.0371 -0.0926  0.5643
 7335TIP3    H243421   1.306   0.463   2.536 -0.9755  0.5588  0.7025
 7336TIP3   OH243422   4.492   1.239  15.404  0.5637 -0.1432 -0.1116
 7336TIP3    H143423   4.458   1.277  15.485 -0.7317  0.8393 -1.0698
 7336TIP3    H243424   4.587   1.232  15.419  0.4668  0.8366  1.1575
 7337TIP3   OH243425   5.945   5.859   3.969 -0.1668 -0.3710  0.0562
 7337TIP3    H143426   6.016   5.923   3.967  0.9163 -1.5029 -2.7872
 7337TIP3    H243427   5.989   5.775   3.976 -1.4422 -0.9641  1.3998
 7338TIP3   OH243428   1.904   0.643   5.750 -0.4219  0.3200  0.2032
 7338TIP3    H143429   1.878   0.723   5.704  1.3032  1.2729  0.7948
 7338TIP3    H243430   1.934   0.672   5.836 -1.7346 -1.2233  1.2489
 7339TIP3   OH243431   6.556   2.340  13.317  0.6569  0.2757 -0.5719
 7339TIP3    H143432   6.599   2.257  13.335  0.3360  0.4009  0.9498
 7339TIP3    H243433   6.463   2.321  13.324  0.4288  0.2038 -2.9606
 7340TIP3   OH243434   4.623   6.304   3.413 -1.3819  0.0764  0.7480
 7340TIP3    H143435   4.551   6.295   3.350 -0.0583  1.8399 -1.1178
 7340TIP3    H243436   4.662   6.389   3.393  1.1772 -0.7807  1.7610
 7341TIP3   OH243437   4.118   3.318   0.726  0.3347  0.2183  0.5411
 7341TIP3    H143438   4.084   3.374   0.797  1.5790  0.2468  1.1373
 7341TIP3    H243439   4.186   3.371   0.685 -1.1283  0.6778 -1.4886
 7342TIP3   OH243440   3.760   4.364  12.235  0.3256  0.0366  0.0829
 7342TIP3    H143441   3.843   4.329  12.266  0.0197 -0.0751  0.8162
 7342TIP3    H243442   3.734   4.307  12.163 -0.5573 -1.8118  1.7641
 7343TIP3   OH243443   6.583   5.253   0.271  0.6069  0.0684 -0.1126
 7343TIP3    H143444   6.543   5.247   0.184  0.6407  0.7863 -0.1863
 7343TIP3    H243445   6.511   5.278   0.329  0.7225  0.2849 -0.0593
 7344TIP3   OH243446   4.734   4.306   2.584  0.3479  0.2161 -0.2469
 7344TIP3    H143447   4.688   4.243   2.529 -1.3980  0.7786  0.4721
 7344TIP3    H243448   4.818   4.265   2.603  0.0549 -0.9898 -1.4210
 7345TIP3   OH243449   3.994   4.609  14.785 -0.2424 -0.1384  0.3930
 7345TIP3    H143450   3.987   4.616  14.690 -1.2864 -1.1895  0.3821
 7345TIP3    H243451   3.918   4.657  14.819  0.3355  0.5679  0.7289
 7346TIP3   OH243452   5.876   6.378  11.125 -0.6558  0.1934  0.0111
 7346TIP3    H143453   5.951   6.340  11.080 -0.5547  0.1256  0.2415
 7346TIP3    H243454   5.800   6.347  11.075 -0.5083  0.6130 -0.4820
 7347TIP3   OH243455   2.555   3.137  15.012 -0.1127  0.3758 -0.4023
 7347TIP3    H143456   2.511   3.093  15.084  0.0730  0.1150 -0.4443
 7347TIP3    H243457   2.592   3.216  15.051 -1.9708  1.4439 -0.7056
 7348TIP3   OH243458   0.891   0.462   2.069 -0.1746  0.6768  0.1766
 7348TIP3    H143459   0.814   0.462   2.126 -0.3128 -0.4340  0.0154
 7348TIP3    H243460   0.965   0.449   2.128 -0.3190 -0.4962  0.1203
 7349TIP3   OH243461   1.189   3.674  12.907 -0.1538  0.0738 -0.2352
 7349TIP3    H143462   1.258   3.670  12.841 -0.0344 -1.7281 -0.0564
 7349TIP3    H243463   1.200   3.594  12.958 -2.3935 -0.3166 -0.2502
 7350TIP3   OH243464   4.576   5.253  12.212 -0.0380 -0.0705 -0.5295
 7350TIP3    H143465   4.559   5.164  12.183  1.3613 -0.0467 -1.5394
 7350TIP3    H243466   4.519   5.266  12.287 -1.4646 -1.2461 -1.3679
 7351TIP3   OH243467   5.714   3.692  15.644 -0.2559 -0.4472  0.0558
 7351TIP3    H143468   5.800   3.653  15.661  0.1036  0.7577  1.2356
 7351TIP3    H243469   5.721   3.781  15.678 -1.9477 -0.2860  0.0845
 7352TIP3   OH243470   4.038   0.877   5.643 -0.0853 -0.3666 -0.0049
 7352TIP3    H143471   4.081   0.956   5.611  1.9740 -1.3285  0.1583
 7352TIP3    H243472   4.056   0.811   5.575 -1.3248 -0.8227  0.0938
 7353TIP3   OH243473   0.908   5.694  12.713 -0.7986  0.0626 -0.4884
 7353TIP3    H143474   0.825   5.680  12.667 -0.7605  0.2329 -0.6105
 7353TIP3    H243475   0.961   5.745  12.652 -0.2709 -0.8040 -0.7840
 7354TIP3   OH243476   6.087   1.630   4.328 -0.2717 -0.1602 -0.1002
 7354TIP3    H143477   6.014   1.581   4.366  0.2485 -1.0270 -0.2039
 7354TIP3    H243478   6.163   1.604   4.380  0.1221  0.0668 -0.5579
 7355TIP3   OH243479   4.306   4.265   0.146 -0.0080  0.5438 -0.0353
 7355TIP3    H143480   4.314   4.359   0.160  0.8201  0.5176 -0.2933
 7355TIP3    H243481   4.268   4.257   0.058 -0.2237  0.6338  0.0486
 7356TIP3   OH243482   2.662   5.470  13.720 -0.1297  0.7965  0.5050
 7356TIP3    H143483   2.718   5.442  13.792  0.2901  2.5705  0.9099
 7356TIP3    H243484   2.714   5.535  13.672 -0.2202 -0.6252 -1.6818
 7357TIP3   OH243485   4.410   5.105  16.975  0.4620  0.1302  0.3926
 7357TIP3    H143486   4.377   5.130  17.062  0.9617  1.0039  0.3391
 7357TIP3    H243487   4.407   5.185  16.924  1.1892 -0.1299 -0.0744
 7358TIP3   OH243488   3.549   5.375  13.400  0.2390 -0.3745  0.3644
 7358TIP3    H143489   3.520   5.459  13.435 -1.3813  0.4104 -2.4877
 7358TIP3    H243490   3.633   5.395  13.358  0.4396 -0.4587  0.7281
 7359TIP3   OH243491   5.620   3.070  12.425  1.0733 -0.3028  0.7476
 7359TIP3    H143492   5.538   3.108  12.456 -1.2553 -3.6085 -0.6497
 7359TIP3    H243493   5.648   3.127  12.353 -2.3984 -1.1407 -1.4990
 7360TIP3   OH243494   0.283   6.348   4.912  0.4033 -0.1538  0.4610
 7360TIP3    H143495   0.356   6.360   4.973 -0.4834  2.8621  1.0995
 7360TIP3    H243496   0.207   6.334   4.969  0.1791 -1.6991 -0.1606
 7361TIP3   OH243497   1.022   1.087   3.428  0.2898  0.2468 -0.0371
 7361TIP3    H143498   1.040   1.152   3.496  0.2417  1.4150 -1.1176
 7361TIP3    H243499   1.101   1.084   3.375 -0.6075  1.3355 -1.5137
 7362TIP3   OH243500   1.421   1.359  11.117 -0.2443  0.0496 -0.3174
 7362TIP3    H143501   1.491   1.378  11.179 -0.5080 -1.5293  0.5286
 7362TIP3    H243502   1.466   1.346  11.033  0.3719 -0.0913  0.0322
 7363TIP3   OH243503   1.728   3.978  11.859 -0.1471 -0.0609 -0.3211
 7363TIP3    H143504   1.798   3.927  11.899 -0.0347 -0.2633 -0.7687
 7363TIP3    H243505   1.649   3.951  11.905  0.1530  0.6584  0.6425
 7364TIP3   OH243506   4.431   5.131  13.553 -0.6514  0.8232  0.4294
 7364TIP3    H143507   4.417   5.117  13.647  1.1796  1.9406  0.9129
 7364TIP3    H243508   4.481   5.055  13.525 -0.8350  0.6933  0.4543
 7365TIP3   OH243509   1.138   3.964   2.220 -0.4823  0.1255 -0.0632
 7365TIP3    H143510   1.076   4.015   2.167 -0.2957  0.0266 -0.3788
 7365TIP3    H243511   1.120   3.991   2.310 -0.3722  0.7680 -0.2286
 7366TIP3   OH243512   5.997   5.233  15.324 -0.2005  0.4499 -0.3936
 7366TIP3    H143513   6.005   5.215  15.417 -0.5410  0.3205 -0.3900
 7366TIP3    H243514   6.087   5.248  15.295  0.0707 -0.8392 -0.3081
 7367TIP3   OH243515   1.496   4.782  10.324  0.4503 -0.0431 -0.1021
 7367TIP3    H143516   1.512   4.741  10.409  2.0133  0.4098 -0.1352
 7367TIP3    H243517   1.538   4.867  10.330 -1.8999  1.2110 -0.3810
 7368TIP3   OH243518   2.036   4.988   5.631 -0.2005 -0.2192  0.0132
 7368TIP3    H143519   1.975   4.937   5.578 -0.7841  0.1397  0.3350
 7368TIP3    H243520   2.045   4.939   5.712 -1.0085  0.3319  0.4512
 7369TIP3   OH243521   4.376   1.201  12.970  0.1739 -0.1841 -0.6723
 7369TIP3    H143522   4.436   1.260  12.924  1.0635 -0.9572 -0.5349
 7369TIP3    H243523   4.407   1.203  13.061 -0.6999  0.2483 -0.3684
 7370TIP3   OH243524   5.595   4.951  13.030  0.3283 -0.0873  0.1195
 7370TIP3    H143525   5.537   4.939  12.956  1.6747  0.6221 -1.0955
 7370TIP3    H243526   5.638   4.866  13.040 -0.2917 -0.3664  0.5048
 7371TIP3   OH243527   1.735   3.916   2.270 -0.3442 -0.4787 -0.0357
 7371TIP3    H143528   1.794   3.849   2.236  0.4291  0.1757 -0.0330
 7371TIP3    H243529   1.769   3.998   2.233 -0.4557  0.0639  1.0296
 7372TIP3   OH243530   5.130   3.323   3.420 -0.3595 -0.0555 -0.1463
 7372TIP3    H143531   5.068   3.326   3.492  0.6551 -0.7544  0.7773
 7372TIP3    H243532   5.188   3.398   3.435 -0.5425  0.1950 -0.6326
 7373TIP3   OH243533   1.588   4.893  11.823  0.6793 -0.1695 -0.3789
 7373TIP3    H143534   1.631   4.971  11.788  1.0218 -0.3391 -0.3368
 7373TIP3    H243535   1.653   4.854  11.880  0.2048 -0.0201  0.2745
 7374TIP3   OH243536   3.200   5.026   0.345 -0.1150 -0.3642  0.0643
 7374TIP3    H143537   3.242   5.045   0.429 -0.8092  1.1380  0.0967
 7374TIP3    H243538   3.121   4.976   0.369  0.7946 -1.8636  0.1059
 7375TIP3   OH243539   3.762   4.448   2.024  0.4545  0.0584 -0.0840
 7375TIP3    H143540   3.761   4.526   2.080 -0.8226  1.0549 -1.4345
 7375TIP3    H243541   3.835   4.463   1.964 -0.6556  0.9119 -1.2518
 7376TIP3   OH243542   5.243   4.363   1.671  0.1796 -0.1133  0.2356
 7376TIP3    H143543   5.248   4.419   1.749  0.2700  1.1066 -0.6149
 7376TIP3    H243544   5.199   4.284   1.701 -0.0682  0.4616  1.4547
 7377TIP3   OH243545   1.684   4.894   1.394  0.3384 -0.4525 -0.4112
 7377TIP3    H143546   1.753   4.906   1.329  0.6225  0.8580  0.1098
 7377TIP3    H243547   1.698   4.964   1.458 -1.0091 -0.6279  0.1133
 7378TIP3   OH243548   2.758   5.745   0.291  0.5526 -0.1930  0.1062
 7378TIP3    H143549   2.669   5.735   0.258  1.0246 -0.4581 -1.1314
 7378TIP3    H243550   2.792   5.656   0.294  1.2535  0.0274 -0.8318
 7379TIP3   OH243551   4.351   4.411   1.394  0.8479 -0.1058 -0.2255
 7379TIP3    H143552   4.296   4.449   1.462 -0.0266  0.1564 -1.0576
 7379TIP3    H243553   4.385   4.486   1.345  1.6392 -0.2832  0.0318
 7380TIP3   OH243554   4.985   5.742   1.704 -0.3543  0.1135  0.6537
 7380TIP3    H143555   5.076   5.758   1.677  0.3715 -0.9816  2.2979
 7380TIP3    H243556   4.985   5.755   1.798 -1.9540  0.2281  0.6644
 7381TIP3   OH243557   1.649   2.722  13.880  0.4948  0.2959 -0.2490
 7381TIP3    H143558   1.562   2.688  13.861 -0.4867  0.6650  2.9513
 7381TIP3    H243559   1.706   2.646  13.880 -0.4432 -0.4348  0.5478
 7382TIP3   OH243560   4.722   0.678  15.734  0.2806  0.7929 -0.7197
 7382TIP3    H143561   4.747   0.696  15.825  1.7025  0.0057 -0.9174
 7382TIP3    H243562   4.634   0.641  15.740  1.5382 -2.3501  0.7357
 7383TIP3   OH243563   2.909   0.283   5.247  0.5146 -0.3992  0.2723
 7383TIP3    H143564   2.935   0.191   5.235 -0.7018 -0.4786 -2.7988
 7383TIP3    H243565   2.815   0.278   5.264  0.9127  0.2279  3.0440
 7384TIP3   OH243566   4.065   1.175  16.184 -0.0238  0.3743  0.1225
 7384TIP3    H143567   4.030   1.089  16.208 -0.8198  0.9996  1.2891
 7384TIP3    H243568   4.160   1.162  16.181 -0.1058 -0.4481  0.6691
 7385TIP3   OH243569   6.528   4.519   1.233 -0.3544  0.0861  0.3434
 7385TIP3    H143570   6.569   4.440   1.268  1.3313  0.9838  0.4942
 7385TIP3    H243571   6.589   4.551   1.167 -0.4317  1.8582  1.0682
 7386TIP3   OH243572   6.186   5.298   1.559 -0.1319  0.3842  0.0901
 7386TIP3    H143573   6.091   5.291   1.562 -0.0729 -1.3426 -0.8541
 7386TIP3    H243574   6.216   5.247   1.634  0.0621  1.1655  0.5559
 7387TIP3   OH243575   5.817   1.516  16.145 -0.6884  0.5563 -0.6187
 7387TIP3    H143576   5.839   1.542  16.056  0.1445 -1.0353 -0.9110
 7387TIP3    H243577   5.733   1.560  16.163 -0.3030  1.8129 -1.7369
 7388TIP3   OH243578   6.334   2.852   2.643  1.0190  0.3640  0.7544
 7388TIP3    H143579   6.346   2.921   2.578 -1.5545  1.3056  1.1470
 7388TIP3    H243580   6.421   2.839   2.681  1.7754  2.7827  0.0466
 7389TIP3   OH243581   6.363   0.553   1.283  0.4792  1.3935  0.3741
 7389TIP3    H143582   6.388   0.519   1.369 -0.8250 -0.2197  0.1720
 7389TIP3    H243583   6.410   0.498   1.221 -2.8299 -1.3578  0.0036
 7390TIP3   OH243584   0.247   3.604   2.262  0.1958 -0.3677 -0.1351
 7390TIP3    H143585   0.180   3.671   2.275  1.2736  0.5629  0.9584
 7390TIP3    H243586   0.327   3.654   2.243  0.9003 -1.3767  0.0966
 7391TIP3   OH243587   5.275   1.173  17.342 -0.5312 -0.1753 -0.8222
 7391TIP3    H143588   5.276   1.110  17.414  1.5707 -0.2885 -0.9007
 7391TIP3    H243589   5.215   1.242  17.372  0.8733  0.1701  1.4077
 7392TIP3   OH243590   1.250   5.172   0.889  0.0753  0.0202 -0.1620
 7392TIP3    H143591   1.169   5.126   0.911  0.4366 -0.0932  1.0240
 7392TIP3    H243592   1.224   5.238   0.825 -0.6648 -1.0421 -1.0026
 7393TIP3   OH243593   6.238   0.426  13.311  0.6284 -0.2240  0.3850
 7393TIP3    H143594   6.175   0.444  13.381 -2.2459 -0.1404 -2.0104
 7393TIP3    H243595   6.264   0.335  13.325 -1.1502 -0.7256  0.7258
 7394TIP3   OH243596   1.484   1.985   1.608 -0.3189 -0.7378  0.7333
 7394TIP3    H143597   1.546   1.922   1.572 -1.1875 -1.2672  0.1093
 7394TIP3    H243598   1.411   1.931   1.639  0.3286 -0.3023  3.2089
 7395TIP3   OH243599   5.243   0.103  11.491 -0.1785 -0.2577  0.4273
 7395TIP3    H143600   5.272   0.030  11.436  1.5704  0.7328 -0.0348
 7395TIP3    H243601   5.170   0.142  11.443 -0.1016 -0.7418 -0.0974
 7396TIP3   OH243602   4.638   6.360  13.700  0.2482 -0.2470 -0.1191
 7396TIP3    H143603   4.644   6.304  13.623  1.2581 -0.3662  0.0253
 7396TIP3    H243604   4.549   6.348  13.732 -0.0556 -0.5109 -1.0259
 7397TIP3   OH243605   3.529   0.143   0.450  0.1953  0.6364  0.3151
 7397TIP3    H143606   3.518   0.110   0.361 -0.7699  0.6485  0.4269
 7397TIP3    H243607   3.487   0.078   0.506  0.4853  0.8093  0.7433
 7398TIP3   OH243608   5.271   4.740   5.327 -0.0916  0.1209  0.1403
 7398TIP3    H143609   5.293   4.772   5.240  1.2873  0.1867  0.4836
 7398TIP3    H243610   5.255   4.819   5.378  0.9334  0.1939  0.3843
 7399TIP3   OH243611   2.277   0.343   0.120  0.4214  0.0031 -0.0749
 7399TIP3    H143612   2.266   0.248   0.113  1.5238 -0.0955 -0.8052
 7399TIP3    H243613   2.300   0.358   0.211 -1.5529 -0.1997  0.5016
 7400TIP3   OH243614   5.569   5.035   5.676  0.7817 -0.3228 -0.3461
 7400TIP3    H143615   5.645   5.064   5.726  0.9214 -3.0712  1.2232
 7400TIP3    H243616   5.495   5.046   5.735 -0.0090  1.5843 -1.5859
 7401TIP3   OH243617   3.557   0.808   3.550 -0.0739 -0.0292 -0.3495
 7401TIP3    H143618   3.496   0.838   3.617  0.5419 -0.8602  0.6266
 7401TIP3    H243619   3.623   0.877   3.545 -1.3184  1.1172 -1.7810
 7402TIP3   OH243620   6.182   6.764   4.359  0.2575 -0.1416 -0.0427
 7402TIP3    H143621   6.105   6.821   4.354  0.6607  0.5102  0.9150
 7402TIP3    H243622   6.246   6.814   4.408  1.7194 -0.2345 -1.7521
 7403TIP3   OH243623   4.570   4.092  14.891 -0.2738  0.7236 -0.7147
 7403TIP3    H143624   4.585   4.035  14.967 -0.8490  1.5648  0.0519
 7403TIP3    H243625   4.494   4.053  14.847  1.2127 -0.8689 -1.9803
 7404TIP3   OH243626   0.361   0.061   3.000 -0.3143 -0.2319  0.0469
 7404TIP3    H143627   0.280   0.096   3.037 -0.2642 -0.1934  0.1204
 7404TIP3    H243628   0.393   0.000   3.066 -0.3796 -0.3871 -0.0631
 7405TIP3   OH243629   1.173   3.212  12.618  0.0748  0.4154 -0.1240
 7405TIP3    H143630   1.148   3.210  12.525 -1.1454  2.9171  0.0573
 7405TIP3    H243631   1.091   3.228  12.664  0.4852 -1.8969  1.5551
 7406TIP3   OH243632   5.199   0.096  10.948  0.0628  0.0400  0.5384
 7406TIP3    H143633   5.231   0.061  10.865  0.8949  1.3992  0.2497
 7406TIP3    H243634   5.273   0.086  11.008 -0.3117 -0.3348  0.9450
 7407TIP3   OH243635   3.297   5.939  13.420  0.0819  0.0292 -0.2216
 7407TIP3    H143636   3.257   5.976  13.341  1.1042 -1.5423 -1.5354
 7407TIP3    H243637   3.367   6.001  13.442 -0.2267  0.4945 -0.5073
 7408TIP3   OH243638   2.599   5.393  11.524 -0.1952  0.3506 -0.0750
 7408TIP3    H143639   2.589   5.379  11.618 -0.7738  0.1878 -0.1578
 7408TIP3    H243640   2.682   5.348  11.502 -0.3793 -0.1586  0.2454
 7409TIP3   OH243641   5.361   2.737  13.586 -0.0458  0.2430  0.4973
 7409TIP3    H143642   5.271   2.717  13.562 -0.2448  1.1394  0.4539
 7409TIP3    H243643   5.354   2.786  13.668  0.5710 -1.9438  1.9455
 7410TIP3   OH243644   1.017   1.780  13.819 -0.3553  0.0970  0.4993
 7410TIP3    H143645   1.098   1.821  13.848 -0.5051  0.4303  0.4462
 7410TIP3    H243646   1.044   1.723  13.746 -0.0936 -0.1878  0.8140
 7411TIP3   OH243647   1.457   6.323   0.298 -0.0992  0.0576 -0.0500
 7411TIP3    H143648   1.363   6.340   0.303 -0.0109  0.7600 -0.5857
 7411TIP3    H243649   1.493   6.366   0.376 -0.1872  0.0607 -0.0101
 7412TIP3   OH243650   6.708   2.923  10.546  0.3222 -0.0441  0.1631
 7412TIP3    H143651   6.619   2.957  10.545  0.6498  0.9366  1.5205
 7412TIP3    H243652   6.704   2.848  10.605  0.3924 -0.0076  0.2144
 7413TIP3   OH243653   2.412   0.278  13.223  0.0761 -0.4739  0.1610
 7413TIP3    H143654   2.349   0.272  13.150 -0.0911 -0.7607  0.3301
 7413TIP3    H243655   2.407   0.370  13.250 -1.8955 -0.9461  1.6004
 7414TIP3   OH243656   1.183   6.147   5.277  0.1378  0.2781 -0.2516
 7414TIP3    H143657   1.277   6.156   5.265  1.1916 -5.5777  0.3313
 7414TIP3    H243658   1.144   6.170   5.193  1.9708  2.6517 -0.5438
 7415TIP3   OH243659   6.501   3.319  11.382  0.1004 -0.6667 -0.3955
 7415TIP3    H143660   6.573   3.257  11.390  0.7780  0.0676 -0.6077
 7415TIP3    H243661   6.444   3.281  11.316  0.0565 -1.4792  0.0996
 7416TIP3   OH243662   4.358   3.473  11.314  0.0321  0.1693  0.3206
 7416TIP3    H143663   4.349   3.441  11.404 -1.5575  1.5163  0.6877
 7416TIP3    H243664   4.406   3.403  11.269 -1.2486 -1.6550  1.6188
 7417TIP3   OH243665   1.400   1.578  14.741 -0.2141  0.1448 -0.4295
 7417TIP3    H143666   1.399   1.538  14.829  0.8644  1.6300  0.2880
 7417TIP3    H243667   1.451   1.517  14.688 -3.9769 -2.8216 -1.1534
 7418TIP3   OH243668   1.164   1.778   5.823 -0.3236 -0.1605 -0.1915
 7418TIP3    H143669   1.193   1.776   5.914 -0.5023  3.4657  0.1174
 7418TIP3    H243670   1.245   1.780   5.772 -0.1777  0.0429  0.0466
 7419TIP3   OH243671   2.863   6.769  11.128  0.0374 -0.0243 -0.0296
 7419TIP3    H143672   2.925   6.772  11.201 -0.9803  1.2258  0.8448
 7419TIP3    H243673   2.887   6.843  11.073 -0.2299  0.0435 -0.0580
 7420TIP3   OH243674   1.180   0.158  12.879  0.0982 -0.0888 -0.2388
 7420TIP3    H143675   1.129   0.234  12.906 -0.1727 -0.2313 -0.3451
 7420TIP3    H243676   1.138   0.128  12.798 -0.3159 -0.8497  0.2399
 7421TIP3   OH243677   4.302   5.853  14.523  0.0142  0.1263  0.1497
 7421TIP3    H143678   4.374   5.911  14.495 -0.2856 -0.1244 -1.2191
 7421TIP3    H243679   4.223   5.896  14.490 -0.2588 -0.7540 -0.3748
 7422TIP3   OH243680   3.735   3.771   1.920  0.6338 -0.6245  0.3341
 7422TIP3    H143681   3.684   3.777   1.839  0.6115 -1.1582  0.2991
 7422TIP3    H243682   3.684   3.819   1.984  0.0588 -1.1708  0.3077
 7423TIP3   OH243683   2.677   3.118   4.304 -0.2929  0.4037  0.1769
 7423TIP3    H143684   2.698   3.066   4.382  0.8274 -0.0287 -0.3904
 7423TIP3    H243685   2.750   3.101   4.244 -0.6315  1.5258 -0.5718
 7424TIP3   OH243686   0.297   1.257   1.728  0.2415 -0.9067 -0.1258
 7424TIP3    H143687   0.381   1.291   1.698  0.1429  0.0746  0.6499
 7424TIP3    H243688   0.232   1.306   1.679  0.1087 -0.9205  0.0349
 7425TIP3   OH243689   5.193   3.197   0.306  0.4097 -0.0732  0.9034
 7425TIP3    H143690   5.200   3.290   0.287  1.7831  0.0252  1.7577
 7425TIP3    H243691   5.137   3.162   0.236  1.3271  1.0760 -0.4559
 7426TIP3   OH243692   5.544   1.521  17.079  0.3772  0.1684 -0.4446
 7426TIP3    H143693   5.461   1.527  17.126  1.1448  0.1615  0.9616
 7426TIP3    H243694   5.552   1.428  17.058 -0.1884  0.2416 -1.0197
 7427TIP3   OH243695   1.887   3.232   1.192 -0.3761 -0.7468  0.1076
 7427TIP3    H143696   1.873   3.259   1.283 -0.8587 -0.6739  0.0151
 7427TIP3    H243697   1.972   3.189   1.192 -0.9760 -1.9857  0.8735
 7428TIP3   OH243698   6.515   4.704  16.444 -0.0720 -0.2786 -0.2490
 7428TIP3    H143699   6.449   4.685  16.378 -1.6812  0.9946  0.9018
 7428TIP3    H243700   6.500   4.638  16.512 -0.4647  0.2544  0.1957
 7429TIP3   OH243701   4.117   4.158   3.309 -0.1414 -0.0366 -0.7114
 7429TIP3    H143702   4.211   4.167   3.324 -0.0754 -0.7770 -0.6442
 7429TIP3    H243703   4.110   4.107   3.228 -0.4920  1.0270 -1.3697
 7430TIP3   OH243704   0.056   0.571   4.028  0.3983  0.0235  0.0889
 7430TIP3    H143705   0.030   0.532   4.112  1.1215 -1.8392 -0.5147
 7430TIP3    H243706  -0.018   0.626   4.004 -0.1401  0.0150  1.5824
 7431TIP3   OH243707   0.415   2.354   5.551 -0.4602  0.0520 -0.6036
 7431TIP3    H143708   0.502   2.355   5.510  0.8104 -0.7721  1.8587
 7431TIP3    H243709   0.391   2.261   5.554 -0.6336  0.1179  0.2504
 7432TIP3   OH243710   1.505   2.036   1.866 -0.3045  0.5416 -0.0655
 7432TIP3    H143711   1.470   2.029   1.777 -1.5066 -0.1630  0.4422
 7432TIP3    H243712   1.588   2.083   1.856 -2.4219  4.4737 -1.0872
 7433TIP3   OH243713   5.783   3.562   2.572  0.2772 -0.3343 -0.0390
 7433TIP3    H143714   5.715   3.559   2.505  1.1672  0.1027 -0.9880
 7433TIP3    H243715   5.736   3.549   2.655 -1.0141  0.4173 -0.6215
 7434TIP3   OH243716   4.585   0.706   6.158 -0.2216 -0.4823 -0.2611
 7434TIP3    H143717   4.617   0.753   6.234  0.5019 -1.1438 -0.1443
 7434TIP3    H243718   4.661   0.700   6.100 -0.3721 -1.2630 -0.3884
 7435TIP3   OH243719   5.984   5.053  12.744 -0.6125  0.6994 -0.2220
 7435TIP3    H143720   5.889   5.045  12.756 -0.5479  0.2494  0.0212
 7435TIP3    H243721   6.021   4.985  12.800 -0.2094 -0.2059 -1.5460
 7436TIP3   OH243722   0.782   4.420   5.153 -0.6742  0.2576  0.2456
 7436TIP3    H143723   0.874   4.395   5.140 -0.8359 -0.2623  0.0664
 7436TIP3    H243724   0.749   4.355   5.216 -1.1522 -0.0857 -0.3586
 7437TIP3   OH243725   1.955   3.374  16.119 -0.0020  0.0121  0.7479
 7437TIP3    H143726   1.903   3.452  16.143  0.8009  0.1916  2.0395
 7437TIP3    H243727   1.926   3.307  16.181  2.1646  0.4896  2.3970
 7438TIP3   OH243728   2.671   6.746   5.627  0.4875  0.0827 -0.0603
 7438TIP3    H143729   2.744   6.686   5.642  1.3903  1.4880  1.5511
 7438TIP3    H243730   2.595   6.699   5.662  1.1037 -0.3171  0.7921
 7439TIP3   OH243731   3.486   3.151  15.863  0.5329 -0.0924 -0.4810
 7439TIP3    H143732   3.517   3.151  15.953 -1.5413 -1.4034  0.2941
 7439TIP3    H243733   3.404   3.199  15.865  1.2141  1.2477 -2.0137
 7440TIP3   OH243734   5.375   2.876   3.249  0.4897 -0.4620  0.3898
 7440TIP3    H143735   5.304   2.816   3.225  0.4945 -0.3823  0.1740
 7440TIP3    H243736   5.404   2.914   3.166 -0.2353  0.6491  0.6165
 7441TIP3   OH243737   3.598   3.260  14.654 -0.5365 -0.2756  0.2762
 7441TIP3    H143738   3.687   3.285  14.681  0.0806  0.0068 -1.8485
 7441TIP3    H243739   3.611   3.187  14.594 -1.5386  1.0965 -1.6988
 7442TIP3   OH243740   1.802   2.068   4.972  0.1361 -0.0269 -0.4815
 7442TIP3    H143741   1.819   2.156   4.939  2.7542  0.5302  1.9446
 7442TIP3    H243742   1.736   2.080   5.040 -0.3767 -0.1349 -0.9571
 7443TIP3   OH243743   2.612   2.238  17.009 -0.0232  0.2871  0.0257
 7443TIP3    H143744   2.605   2.316  17.064  2.9620  0.8322 -0.2030
 7443TIP3    H243745   2.610   2.165  17.070 -2.5011  0.4721  0.2690
 7444TIP3   OH243746   4.502   3.997  11.522 -0.6527  0.4576 -0.8219
 7444TIP3    H143747   4.557   3.920  11.504  1.0335  1.3207  0.4149
 7444TIP3    H243748   4.529   4.061  11.456 -0.7685  0.6058 -0.7236
 7445TIP3   OH243749   4.624   3.587   2.682  0.3434  0.5151 -1.1084
 7445TIP3    H143750   4.709   3.625   2.659  0.3085  0.8139 -0.7441
 7445TIP3    H243751   4.634   3.560   2.774 -0.0484  0.8145 -0.9749
 7446TIP3   OH243752   3.092   3.743   4.835  0.0230  0.7610 -0.1074
 7446TIP3    H143753   3.155   3.723   4.766  1.7799  0.3117  1.5479
 7446TIP3    H243754   3.018   3.684   4.817  1.3393 -0.8590 -0.4115
 7447TIP3   OH243755   0.679   5.659   1.811  0.3248 -0.2147  0.1599
 7447TIP3    H143756   0.599   5.694   1.850 -0.6287  1.2540 -2.8126
 7447TIP3    H243757   0.728   5.623   1.885 -1.4414  2.0102  2.5951
 7448TIP3   OH243758   0.909   1.834   4.810  0.4911  0.1543  0.0999
 7448TIP3    H143759   0.846   1.862   4.877 -0.5593 -0.2352 -0.6845
 7448TIP3    H243760   0.912   1.907   4.749 -0.7781 -0.5913 -0.9259
 7449TIP3   OH243761   4.152   6.770  15.640  0.8714  0.3893  0.0141
 7449TIP3    H143762   4.218   6.838  15.634  0.7947  0.4303 -0.4146
 7449TIP3    H243763   4.141   6.754  15.734  0.8680  0.9871  0.1154
 7450TIP3   OH243764   2.613   0.343   4.036 -0.3980  0.4228 -0.6364
 7450TIP3    H143765   2.602   0.435   4.010  0.2741  0.8082  0.3828
 7450TIP3    H243766   2.526   0.318   4.070 -0.1357  1.2702  0.7836
 7451TIP3   OH243767   4.856   6.461   4.073  0.0092  0.0528 -0.0819
 7451TIP3    H143768   4.884   6.518   4.145 -3.4261  0.3412  1.2256
 7451TIP3    H243769   4.833   6.378   4.115  1.9251 -1.2904 -1.5314
 7452TIP3   OH243770   5.282   2.017   0.601 -0.1965 -0.8617 -0.1404
 7452TIP3    H143771   5.296   2.110   0.587  1.7765 -1.4450 -2.8016
 7452TIP3    H243772   5.333   1.996   0.679  0.0363  0.1144 -0.0212
 7453TIP3   OH243773   1.159   5.197   3.367  0.0344  0.1389 -0.3154
 7453TIP3    H143774   1.199   5.254   3.302  0.5668  0.0741 -0.0540
 7453TIP3    H243775   1.233   5.162   3.417 -0.4213  1.3566  1.3089
 7454TIP3   OH243776   4.039   1.229   2.621  0.3241 -0.1254 -0.2236
 7454TIP3    H143777   3.972   1.265   2.680  1.6248  0.0701  1.2100
 7454TIP3    H243778   4.056   1.299   2.558 -0.3962  0.0446 -0.2316
 7455TIP3   OH243779   5.154   3.912   6.011  0.1929  0.1588  0.0860
 7455TIP3    H143780   5.125   3.920   5.920  1.0548  0.7230 -0.1512
 7455TIP3    H243781   5.211   3.836   6.012 -0.1903 -0.1310  0.2624
 7456TIP3   OH243782   3.276   4.465  12.162  0.5810 -0.0822 -0.4532
 7456TIP3    H143783   3.283   4.559  12.144  1.1874 -0.1921 -0.7941
 7456TIP3    H243784   3.212   4.433  12.099 -1.1340  0.4343  0.9247
 7457TIP3   OH243785   1.713   3.216  14.583  0.0001 -0.3224  0.8090
 7457TIP3    H143786   1.761   3.145  14.540  0.5130  1.2704 -1.4387
 7457TIP3    H243787   1.781   3.264  14.632 -0.2049 -0.8737  1.6549
 7458TIP3   OH243788   4.985   6.656   6.408  0.3324  0.0265 -0.1451
 7458TIP3    H143789   4.963   6.613   6.325 -1.6004  1.9237 -0.7146
 7458TIP3    H243790   4.902   6.689   6.440  1.4490  1.7757  1.1284
 7459TIP3   OH243791   3.036   4.140   4.392 -0.3842 -0.7414  0.4879
 7459TIP3    H143792   2.969   4.208   4.396 -0.0070  0.0057 -2.8394
 7459TIP3    H243793   2.999   4.072   4.337  1.3392 -0.5247 -1.0422
 7460TIP3   OH243794   1.100   2.518  16.534 -0.4094  0.3662 -0.4823
 7460TIP3    H143795   1.100   2.451  16.602  2.0426  0.2975 -0.4670
 7460TIP3    H243796   1.064   2.474  16.457  2.9020 -1.7007 -1.0361
 7461TIP3   OH243797   6.078   4.534   2.632 -0.2398  0.1047  0.3035
 7461TIP3    H143798   6.096   4.591   2.706 -1.1693 -0.6202  1.1091
 7461TIP3    H243799   6.098   4.446   2.663 -1.8792 -0.3538  0.1399
 7462TIP3   OH243800   3.904   0.065   2.287  0.4411 -0.8774  0.4353
 7462TIP3    H143801   3.916   0.058   2.193  0.0010  1.3156  0.1668
 7462TIP3    H243802   3.991   0.085   2.321  0.3473 -0.2282  0.3068
 7463TIP3   OH243803   6.641   1.049   3.588  0.3605 -0.4363  0.2186
 7463TIP3    H143804   6.646   1.041   3.683  1.0663  1.3901  0.3792
 7463TIP3    H243805   6.633   1.143   3.572 -0.9132 -0.7846 -1.5043
 7464TIP3   OH243806   0.065   3.139  12.681 -0.0564 -0.0428 -0.2557
 7464TIP3    H143807  -0.027   3.137  12.653 -0.5258  0.4013  1.1750
 7464TIP3    H243808   0.061   3.121  12.775  1.3142  0.2470 -0.1320
 7465TIP3   OH243809   0.390   2.762   5.429  0.2368  0.0572  0.4135
 7465TIP3    H143810   0.484   2.744   5.424  0.1921  0.0543 -0.6205
 7465TIP3    H243811   0.378   2.841   5.377 -0.7599 -1.6681 -2.1706
 7466TIP3   OH243812   2.756   2.335   2.808  0.1252  0.2650  0.4047
 7466TIP3    H143813   2.826   2.372   2.754 -0.0022 -0.8694 -0.5850
 7466TIP3    H243814   2.765   2.240   2.797 -2.2434  0.0926 -0.6839
 7467TIP3   OH243815   0.574   6.333   3.053  0.3666  0.1864  0.3511
 7467TIP3    H143816   0.558   6.404   2.991 -0.5994  2.5422  3.0904
 7467TIP3    H243817   0.496   6.278   3.047 -0.1184  0.8895  0.1099
 7468TIP3   OH243818   3.638   6.736  15.391  0.1275  0.3638  0.4289
 7468TIP3    H143819   3.634   6.672  15.320 -2.0132  0.5876  0.2647
 7468TIP3    H243820   3.648   6.684  15.470 -3.4290 -0.4750  0.4961
 7469TIP3   OH243821   3.402   4.350  11.810 -0.4755 -0.8183  0.4682
 7469TIP3    H143822   3.443   4.430  11.845  1.5398  0.0504 -3.3229
 7469TIP3    H243823   3.463   4.280  11.833  0.2333 -0.4402 -0.1813
 7470TIP3   OH243824   4.047   0.036  11.504  0.3110  0.1551 -0.1083
 7470TIP3    H143825   4.071  -0.006  11.586 -0.6570  0.7814  0.5258
 7470TIP3    H243826   4.088   0.123  11.508 -0.9028  0.7320  0.3922
 7471TIP3   OH243827   2.314   1.557  16.903 -0.1915  0.4280  0.7127
 7471TIP3    H143828   2.256   1.632  16.915 -0.4604  0.7868 -2.0473
 7471TIP3    H243829   2.397   1.595  16.874  0.5304 -0.2378  1.8249
 7472TIP3   OH243830   6.090   5.645   3.961 -0.3318  0.7609  0.1969
 7472TIP3    H143831   6.143   5.622   4.038  1.8547  2.1877 -0.7765
 7472TIP3    H243832   6.068   5.561   3.921 -1.1575  0.0039  2.0945
 7473TIP3   OH243833   6.620   4.674   2.442  0.3222  0.0895 -0.3681
 7473TIP3    H143834   6.536   4.691   2.399 -0.1769  3.8696  1.6358
 7473TIP3    H243835   6.597   4.658   2.534  1.6991 -1.2436 -0.2184
 7474TIP3   OH243836   5.780   0.287   1.291  0.2790 -0.3342  0.3345
 7474TIP3    H143837   5.767   0.302   1.198  0.2642  0.8831  0.5169
 7474TIP3    H243838   5.722   0.350   1.334  1.2226 -0.0091  1.1597
 7475TIP3   OH243839   1.589   6.657   4.827 -0.4839 -0.5979  0.0693
 7475TIP3    H143840   1.622   6.713   4.897 -0.2969 -0.3805 -0.1886
 7475TIP3    H243841   1.537   6.716   4.772  0.0864 -0.5719 -0.4536
 7476TIP3   OH243842   0.834   1.359   0.542  0.5475  0.1768  0.0770
 7476TIP3    H143843   0.791   1.418   0.479  0.4280 -0.1178 -0.1196
 7476TIP3    H243844   0.783   1.369   0.623 -0.6509 -1.0530 -0.4849
 7477TIP3   OH243845   2.324   3.537  15.439  0.3465 -0.2837 -0.2026
 7477TIP3    H143846   2.304   3.475  15.369  1.9340 -2.6274  1.2465
 7477TIP3    H243847   2.242   3.547  15.487 -0.2049 -0.3816 -1.1169
 7478TIP3   OH243848   0.581   1.286   1.195  0.1215 -0.2975 -0.1517
 7478TIP3    H143849   0.621   1.238   1.268  0.4517 -2.9577 -1.9440
 7478TIP3    H243850   0.533   1.220   1.146 -1.9643  1.8285 -1.1587
 7479TIP3   OH243851   2.787   5.965   6.377 -0.1664  0.2872 -0.6651
 7479TIP3    H143852   2.760   6.057   6.370  0.3413  0.4578 -0.4299
 7479TIP3    H243853   2.723   5.917   6.325  0.0446  0.8624 -1.4630
 7480TIP3   OH243854   3.155   5.107   6.296  0.2350  0.3659  0.3766
 7480TIP3    H143855   3.161   5.105   6.200 -0.6440  0.0814  0.3233
 7480TIP3    H243856   3.132   5.017   6.320 -4.5775  1.3493  0.4572
 7481TIP3   OH243857   1.417   3.834  16.435 -0.6224  0.7023  0.1873
 7481TIP3    H143858   1.326   3.832  16.406 -0.7338  1.0438  0.5125
 7481TIP3    H243859   1.415   3.799  16.524 -0.4598  0.8704  0.2583
 7482TIP3   OH243860   3.960   2.628   5.345 -0.5229 -0.1411 -0.3469
 7482TIP3    H143861   3.868   2.651   5.356 -0.1307  0.8908  1.0639
 7482TIP3    H243862   4.008   2.699   5.387  0.8716 -1.5353  0.5441
 7483TIP3   OH243863   4.889   1.216   0.651  0.5889 -0.4343 -0.1580
 7483TIP3    H143864   4.834   1.261   0.587  0.6261  1.4763  1.0983
 7483TIP3    H243865   4.831   1.196   0.724  1.4153  1.3367  1.0543
 7484TIP3   OH243866   5.160   2.480  11.601  0.0720  0.1496  0.3197
 7484TIP3    H143867   5.127   2.562  11.638  1.6421  0.1630  1.8523
 7484TIP3    H243868   5.104   2.412  11.639 -0.2617  0.3905  0.2648
 7485TIP3   OH243869   5.914   2.327   3.934 -0.3489 -0.7937  0.1433
 7485TIP3    H143870   5.949   2.239   3.920  0.4278 -0.4317 -0.2714
 7485TIP3    H243871   5.884   2.355   3.848 -0.9714 -0.8020  0.3539
 7486TIP3   OH243872   4.932   1.491   2.647 -0.0624  0.0795  0.4503
 7486TIP3    H143873   4.880   1.557   2.601 -0.3236 -0.5761 -0.2238
 7486TIP3    H243874   4.997   1.462   2.582 -0.3175 -0.7266  0.5406
 7487TIP3   OH243875   6.138   4.912  14.306  0.1022  0.0645  0.0738
 7487TIP3    H143876   6.230   4.888  14.297  0.4004  0.9692  0.6676
 7487TIP3    H243877   6.099   4.887  14.222  0.3490 -2.5270  0.6296
 7488TIP3   OH243878   1.354   4.016  13.653 -0.3066 -0.4909 -0.1325
 7488TIP3    H143879   1.300   3.951  13.700 -0.8718  1.1524  1.6273
 7488TIP3    H243880   1.295   4.089  13.638  0.6490  0.1349 -0.9307
 7489TIP3   OH243881   1.297   6.068   0.202  0.7355  0.1760 -0.3523
 7489TIP3    H143882   1.316   5.984   0.242  0.7679  0.5810  0.4885
 7489TIP3    H243883   1.338   6.133   0.259 -1.8096  0.9740  0.7091
 7490TIP3   OH243884   3.492   0.850  17.290 -0.0177  0.5586  0.1578
 7490TIP3    H143885   3.581   0.882  17.306 -0.3239  1.3585  0.2761
 7490TIP3    H243886   3.435   0.924  17.311 -0.6385  0.5452 -1.3407
 7491TIP3   OH243887   0.510   1.331  14.508 -0.3359  0.3852  0.1887
 7491TIP3    H143888   0.455   1.262  14.471  0.4713  0.5838 -1.4843
 7491TIP3    H243889   0.462   1.412  14.492  0.7724  0.6750 -2.1939
 7492TIP3   OH243890   0.509   1.709  15.230  0.2566 -0.0745  0.3078
 7492TIP3    H143891   0.418   1.706  15.262  0.3535  0.0846  0.6030
 7492TIP3    H243892   0.524   1.801  15.208  0.5786  0.0340  0.9527
 7493TIP3   OH243893   5.817   5.411  16.847 -0.4708 -0.6765  0.1532
 7493TIP3    H143894   5.772   5.343  16.897  0.5516 -1.2026  0.3813
 7493TIP3    H243895   5.880   5.449  16.909  0.6701 -1.1896 -0.6378
 7494TIP3   OH243896   4.170   4.031   2.324 -0.4954 -0.3474 -0.3546
 7494TIP3    H143897   4.235   3.961   2.332  0.6182  0.6476 -0.3558
 7494TIP3    H243898   4.181   4.063   2.235 -0.7795  0.0371 -0.2520
 7495TIP3   OH243899   1.972   1.110   2.652  0.2535 -0.3405  0.3398
 7495TIP3    H143900   2.031   1.076   2.585  1.2686  1.9613 -0.0497
 7495TIP3    H243901   1.889   1.126   2.605  0.8557  0.9440 -0.3528
 7496TIP3   OH243902   4.107   2.948   0.843  0.4506 -0.6636  0.1496
 7496TIP3    H143903   4.044   2.949   0.916 -0.5481 -3.7564 -0.5264
 7496TIP3    H243904   4.188   2.916   0.883  0.9979  1.0710  0.5360
 7497TIP3   OH243905   3.269   6.631   4.468 -0.1058  0.2704  0.1786
 7497TIP3    H143906   3.195   6.605   4.412  0.9515  2.9113 -2.7494
 7497TIP3    H243907   3.346   6.600   4.421  0.7997 -0.8173  2.2567
 7498TIP3   OH243908   3.587   0.245  15.048  0.3977 -0.8672 -0.2145
 7498TIP3    H143909   3.544   0.168  15.086  1.1550 -0.3593  1.7814
 7498TIP3    H243910   3.521   0.314  15.053  0.9960 -0.3770  1.8170
 7499TIP3   OH243911   2.143   1.137   3.662 -0.7110 -0.2445 -0.3201
 7499TIP3    H143912   2.120   1.230   3.662 -0.6094 -0.1843  1.3557
 7499TIP3    H243913   2.087   1.099   3.730  0.6380 -1.0130  0.4008
 7500TIP3   OH243914   2.416   4.381  14.593 -0.0009 -0.0730  0.2128
 7500TIP3    H143915   2.407   4.320  14.520  1.4293  0.9413 -0.8657
 7500TIP3    H243916   2.348   4.355  14.655 -1.5230 -0.7136 -1.6531
 7501TIP3   OH243917   1.829   6.185  13.521  0.3486  0.4683  0.0410
 7501TIP3    H143918   1.834   6.270  13.478 -0.9705 -0.6459 -2.5783
 7501TIP3    H243919   1.797   6.204  13.609  0.5874  2.6889 -0.2900
 7502TIP3   OH243920   2.327   2.263  16.518  0.3968 -0.2286 -0.1825
 7502TIP3    H143921   2.337   2.278  16.612 -2.0842 -0.6298  0.2046
 7502TIP3    H243922   2.290   2.345  16.485  0.7777 -0.2727 -0.7344
 7503TIP3   OH243923   1.872   5.487  15.197 -0.5415  0.6609 -0.7160
 7503TIP3    H143924   1.826   5.426  15.139  1.6225  0.3618 -2.2674
 7503TIP3    H243925   1.955   5.442  15.215 -0.6848  1.2774  1.7261
 7504TIP3   OH243926   1.440   2.894  14.794  0.1750 -0.5993  0.2803
 7504TIP3    H143927   1.522   2.901  14.744  0.5596 -1.0944  0.8322
 7504TIP3    H243928   1.467   2.867  14.881 -0.5176  0.0567  0.7083
 7505TIP3   OH243929   5.881   0.152   2.436 -0.0143 -0.0079 -0.0341
 7505TIP3    H143930   5.818   0.193   2.496 -0.2560 -0.1527 -0.1857
 7505TIP3    H243931   5.950   0.216   2.427  0.4441 -0.3157  1.0627
 7506TIP3   OH243932   2.856   1.058  16.138 -0.1567  0.2737  0.4183
 7506TIP3    H143933   2.817   0.996  16.200 -1.1230 -0.8870 -1.2706
 7506TIP3    H243934   2.945   1.026  16.125 -0.4332 -0.3826  0.0771
 7507TIP3   OH243935   3.296   0.607   1.137  0.2518 -0.1673  0.3063
 7507TIP3    H143936   3.292   0.635   1.229  0.8502 -1.6667  0.8273
 7507TIP3    H243937   3.242   0.670   1.090  0.0172  0.6934  1.6739
 7508TIP3   OH243938   0.555   6.203   1.954  0.1351 -0.3648 -0.4798
 7508TIP3    H143939   0.595   6.285   1.982  0.6949 -0.9946  0.6209
 7508TIP3    H243940   0.488   6.230   1.891  1.0488  0.8420 -0.9745
 7509TIP3   OH243941   1.172   6.562  12.823  0.1072  0.4834 -0.6428
 7509TIP3    H143942   1.240   6.626  12.843  2.6405 -2.2028  0.0869
 7509TIP3    H243943   1.193   6.531  12.735  0.0219 -0.5067 -0.3382
 7510TIP3   OH243944   1.366   1.288   3.617  0.4383 -0.1061  0.4152
 7510TIP3    H143945   1.285   1.308   3.569  0.5263  1.4920  0.8741
 7510TIP3    H243946   1.424   1.250   3.551 -0.4585 -0.6965 -0.0598
 7511TIP3   OH243947   5.142   3.348   5.735 -0.0882  1.0424  0.2694
 7511TIP3    H143948   5.084   3.291   5.685 -0.3674  1.4791  0.0874
 7511TIP3    H243949   5.126   3.324   5.826  1.5346 -0.8347  0.1296
 7512TIP3   OH243950   1.870   2.191   4.297  0.3420 -0.0471  0.1273
 7512TIP3    H143951   1.783   2.229   4.313  1.1256  1.0478  2.0439
 7512TIP3    H243952   1.855   2.097   4.304 -0.4527  0.1773  1.8882
 7513TIP3   OH243953   4.603   3.432   2.945  0.9225 -0.8558  0.1249
 7513TIP3    H143954   4.661   3.375   2.894  0.4101 -0.2778 -1.1436
 7513TIP3    H243955   4.659   3.468   3.014  1.7531 -1.2951 -0.3099
 7514TIP3   OH243956   6.399   0.412   1.744 -0.3808  0.0262  0.0474
 7514TIP3    H143957   6.417   0.402   1.650 -0.3700  0.2573  0.0261
 7514TIP3    H243958   6.314   0.455   1.748  0.5650  1.9827  0.1160
 7515TIP3   OH243959   6.069   1.229  14.223  0.4369  0.4728 -0.0631
 7515TIP3    H143960   6.038   1.158  14.280  4.4059 -1.2011  0.3896
 7515TIP3    H243961   6.047   1.200  14.134 -1.2050  0.5299  0.3056
 7516TIP3   OH243962   2.062   6.234   3.310 -0.3312 -0.0780  0.2326
 7516TIP3    H143963   2.023   6.306   3.360 -2.0162 -0.3552 -0.6312
 7516TIP3    H243964   2.068   6.268   3.220  0.6894 -0.3398  0.1919
 7517TIP3   OH243965   5.133   6.080  16.776  0.0626 -0.2591 -0.5365
 7517TIP3    H143966   5.076   6.063  16.701 -2.9160 -1.6614  1.8397
 7517TIP3    H243967   5.125   6.001  16.830  0.7513  1.3452  2.0539
 7518TIP3   OH243968   4.149   4.941  12.424 -0.9163  0.2350 -0.2383
 7518TIP3    H143969   4.215   4.889  12.379  1.5415  2.0471  1.0163
 7518TIP3    H243970   4.108   4.880  12.485 -1.2616 -1.2132 -1.8511
 7519TIP3   OH243971   5.837   5.357  12.671  0.2519 -0.1360  0.2558
 7519TIP3    H143972   5.823   5.325  12.760  2.1040 -2.0115 -0.0441
 7519TIP3    H243973   5.927   5.390  12.670  0.8895 -1.7225 -1.2763
 7520TIP3   OH243974   2.783   1.431   4.240  0.5967 -0.2605  0.3453
 7520TIP3    H143975   2.789   1.465   4.151 -0.3017  0.1050  0.4112
 7520TIP3    H243976   2.717   1.361   4.234  0.7700 -0.4523  0.6565
 7521TIP3   OH243977   5.394   4.840   2.596 -0.9046 -1.1480 -0.3381
 7521TIP3    H143978   5.321   4.873   2.543 -0.8175  1.0758  0.7944
 7521TIP3    H243979   5.352   4.794   2.668 -1.3615  1.3367  1.0960
 7522TIP3   OH243980   3.229   5.920   3.764  0.0590 -0.3423  0.5347
 7522TIP3    H143981   3.277   5.847   3.803  1.5611  0.1040 -0.4221
 7522TIP3    H243982   3.233   5.904   3.670  0.6302  1.1033  0.2969
 7523TIP3   OH243983   1.065   3.018   4.517  0.2682 -0.1812  0.2563
 7523TIP3    H143984   1.070   3.014   4.613 -0.7572 -2.0744  0.2812
 7523TIP3    H243985   0.973   3.032   4.498 -0.2065 -3.4749 -0.4218
 7524TIP3   OH243986   1.646   0.068  15.388 -0.2111  0.3081  0.4704
 7524TIP3    H143987   1.585   0.049  15.460 -0.7241  0.7578  0.1634
 7524TIP3    H243988   1.643  -0.010  15.333  0.7667 -0.3601  1.3215
 7525TIP3   OH243989   5.740   0.783  12.298 -0.6627  0.9988 -0.5780
 7525TIP3    H143990   5.795   0.807  12.373  1.3082 -1.1755 -1.2093
 7525TIP3    H243991   5.651   0.789  12.332  0.1634 -1.8008  2.6661
 7526TIP3   OH243992   4.895   5.517   2.298 -0.3415  0.3521  0.2828
 7526TIP3    H143993   4.831   5.588   2.287 -1.2771 -0.4471  0.3748
 7526TIP3    H243994   4.850   5.440   2.263  1.4021  0.1476 -1.7024
 7527TIP3   OH243995   1.644   4.802  15.805 -0.0191 -0.2319  0.5399
 7527TIP3    H143996   1.725   4.843  15.837 -0.8966  1.4596  0.7067
 7527TIP3    H243997   1.670   4.712  15.784  1.8315  0.1705  0.8736
 7528TIP3   OH243998   2.900   3.536   0.594  0.0772 -0.1447 -0.6913
 7528TIP3    H143999   2.875   3.480   0.520 -0.3269  1.1589 -1.5804
 7528TIP3    H244000   2.835   3.607   0.594  0.2021 -0.0016  0.7959
 7529TIP3   OH244001   0.045   1.659   0.425  0.2399  0.3176  0.3889
 7529TIP3    H144002   0.040   1.750   0.398 -0.5522 -0.0791 -0.8819
 7529TIP3    H244003  -0.046   1.631   0.434  0.4555 -0.5442  0.0308
 7530TIP3   OH244004   4.797   2.026  14.761 -0.0912 -0.4757  0.5584
 7530TIP3    H144005   4.725   2.090  14.757 -0.5635 -1.0748 -2.5895
 7530TIP3    H244006   4.764   1.958  14.820 -1.9462 -0.5134 -0.4405
 7531TIP3   OH244007   1.700   1.194  11.446 -0.2406  0.3241  0.0052
 7531TIP3    H144008   1.669   1.265  11.390 -2.4962 -0.5851  0.0192
 7531TIP3    H244009   1.779   1.163  11.402 -0.0558  1.8227 -0.8129
 7532TIP3   OH244010   0.582   0.411  13.914  0.0192  0.1575 -0.4465
 7532TIP3    H144011   0.604   0.318  13.923  0.8847  0.4124  0.3267
 7532TIP3    H244012   0.488   0.416  13.932  0.0748 -0.5004  0.0689
 7533TIP3   OH244013   3.261   0.638  15.653  0.0045 -0.4275  0.2724
 7533TIP3    H144014   3.269   0.701  15.725  0.0222 -2.0665  1.7461
 7533TIP3    H244015   3.350   0.627  15.621  0.2758 -0.9958  1.1810
 7534TIP3   OH244016   2.898   5.803   5.990  0.2731  0.2006  0.1585
 7534TIP3    H144017   2.891   5.715   5.952  2.5205 -0.4939  1.1841
 7534TIP3    H244018   2.808   5.828   6.008 -0.5887 -1.0154 -2.0309
 7535TIP3   OH244019   2.809   4.780   3.511  0.2977  0.2509 -0.2701
 7535TIP3    H144020   2.904   4.787   3.507  0.3870 -0.9720 -0.8374
 7535TIP3    H244021   2.783   4.838   3.582  1.7280 -1.4579  1.7831
 7536TIP3   OH244022   5.970   0.934   0.912  0.0499  0.4135 -0.4819
 7536TIP3    H144023   5.887   0.950   0.956 -0.3104 -0.5046 -0.7894
 7536TIP3    H244024   5.981   1.008   0.852  0.3532  1.4631  0.8183
 7537TIP3   OH244025   5.345   5.837   0.481  0.5744  0.0242  0.1067
 7537TIP3    H144026   5.394   5.913   0.449 -0.1386  0.7912  0.7708
 7537TIP3    H244027   5.337   5.853   0.575 -0.3455 -0.4324  0.1111
 7538TIP3   OH244028   1.350   5.570  12.888 -0.2663 -0.3674  0.0231
 7538TIP3    H144029   1.288   5.628  12.934  1.1042 -1.0364  2.9376
 7538TIP3    H244030   1.424   5.627  12.867 -0.8649 -0.0755 -1.4845
 7539TIP3   OH244031   3.694   4.623   4.659 -0.1821  0.5134  0.6755
 7539TIP3    H144032   3.784   4.644   4.635  0.7799 -2.8493  0.7945
 7539TIP3    H244033   3.644   4.702   4.638  2.4383  1.7519 -1.4508
 7540TIP3   OH244034   1.487   4.035  12.994  0.6237  0.0519  0.2112
 7540TIP3    H144035   1.546   3.986  13.051  2.6434  3.9566  1.8859
 7540TIP3    H244036   1.500   4.126  13.019 -1.5270  1.7040 -3.7771
 7541TIP3   OH244037   2.126   3.109   1.528  0.4742  0.4256 -0.3839
 7541TIP3    H144038   2.206   3.145   1.490 -0.6511  0.6177 -2.7676
 7541TIP3    H244039   2.126   3.017   1.503 -0.5823  0.6913 -1.4911
 7542TIP3   OH244040   0.594   3.082   0.385  0.3578  0.1235  0.2739
 7542TIP3    H144041   0.552   3.056   0.467 -0.1068 -1.9212 -0.5582
 7542TIP3    H244042   0.684   3.102   0.409 -0.0658  0.6611  1.4535
 7543TIP3   OH244043   0.348   0.415   1.446  0.0006  0.2724  0.0314
 7543TIP3    H144044   0.320   0.500   1.480 -1.0489 -0.3651  0.8325
 7543TIP3    H244045   0.337   0.355   1.520  0.1209 -0.6816 -0.7022
 7544TIP3   OH244046   0.369   3.451  16.696  0.2182  0.2174  0.0530
 7544TIP3    H144047   0.419   3.470  16.616 -1.3477 -0.4548 -1.1345
 7544TIP3    H244048   0.413   3.376  16.735  0.4504 -0.0466 -0.6979
 7545TIP3   OH244049   2.320   3.959  16.420  0.0834 -0.3980  0.1122
 7545TIP3    H144050   2.353   3.873  16.393  0.9051 -0.6257  1.6921
 7545TIP3    H244051   2.398   4.014  16.428 -0.4255  0.4724 -0.7609
 7546TIP3   OH244052   1.907   2.937   2.478 -0.2761  0.1525  0.3641
 7546TIP3    H144053   1.814   2.955   2.469 -0.2273 -0.1575 -1.1290
 7546TIP3    H244054   1.939   3.001   2.541 -1.2759  1.0836 -0.0490
 7547TIP3   OH244055   1.856   2.327   4.602 -0.2603 -0.7832  0.2489
 7547TIP3    H144056   1.796   2.398   4.580 -0.1978 -0.7538  0.1747
 7547TIP3    H244057   1.828   2.298   4.689 -0.5861 -0.9876  0.0739
 7548TIP3   OH244058   2.908   5.189   1.551  0.1457 -0.3304 -0.6284
 7548TIP3    H144059   2.822   5.186   1.509 -0.1071  0.5099 -0.1975
 7548TIP3    H244060   2.909   5.114   1.610 -0.3998 -0.1825 -0.4296
 7549TIP3   OH244061   3.633   6.651   0.364 -0.2231  0.1531 -0.2483
 7549TIP3    H144062   3.596   6.667   0.450  0.4707  1.5713 -0.1805
 7549TIP3    H244063   3.587   6.712   0.306  0.1953  0.1153 -0.6319
 7550TIP3   OH244064   4.706   1.562  16.906  1.2789 -0.5262 -0.0996
 7550TIP3    H144065   4.705   1.631  16.840  4.3853 -1.0941 -0.8960
 7550TIP3    H244066   4.734   1.605  16.986  1.8272 -0.5841 -0.2547
 7551TIP3   OH244067   0.660   6.364  13.914  0.4977  0.2346  0.3288
 7551TIP3    H144068   0.569   6.340  13.897  0.4332 -0.4067  1.4610
 7551TIP3    H244069   0.699   6.374  13.828 -0.4482 -0.2883 -0.1741
 7552TIP3   OH244070   4.150   3.497   3.661 -0.3250 -0.1613 -0.2976
 7552TIP3    H144071   4.145   3.445   3.740  0.4717 -1.0169 -0.7908
 7552TIP3    H244072   4.144   3.588   3.691  0.0274 -0.4716  0.7388
 7553TIP3   OH244073   5.247   5.188   2.414  0.2894  0.4263  0.3509
 7553TIP3    H144074   5.237   5.160   2.505  2.4331  0.3881  0.6298
 7553TIP3    H244075   5.204   5.121   2.362  1.9432 -1.3849  1.2007
 7554TIP3   OH244076   2.493   0.430   1.380 -0.0696 -0.4034  0.0003
 7554TIP3    H144077   2.458   0.447   1.468 -1.4115  0.3972 -0.6507
 7554TIP3    H244078   2.416   0.434   1.323  0.5204 -2.4897 -1.0465
 7555TIP3   OH244079   5.463   6.737   5.470  0.1215  0.2300 -0.2254
 7555TIP3    H144080   5.484   6.806   5.533 -1.6801 -0.2548  0.9835
 7555TIP3    H244081   5.482   6.775   5.385  0.8086  1.5848  0.4960
 7556TIP3   OH244082   1.731   1.668   0.421  0.2414  0.0377  0.0485
 7556TIP3    H144083   1.720   1.618   0.340  3.3725  0.9933 -1.0836
 7556TIP3    H244084   1.701   1.608   0.490  0.9751 -2.2331 -1.5045
 7557TIP3   OH244085   2.292   3.614   6.335  0.0226  0.4707 -0.0137
 7557TIP3    H144086   2.226   3.662   6.385 -2.3665 -0.3110 -2.2338
 7557TIP3    H244087   2.316   3.540   6.391 -0.0029  1.4712  1.3557
 7558TIP3   OH244088   0.785   2.381   4.075 -0.0580  0.0361 -0.5620
 7558TIP3    H144089   0.838   2.398   4.153 -0.3986  0.6588 -0.4557
 7558TIP3    H244090   0.695   2.393   4.104 -0.1235  2.4985 -1.5343
 7559TIP3   OH244091   1.141   3.911  12.483  0.0225  0.3530  0.0373
 7559TIP3    H144092   1.202   3.983  12.470  0.3278  0.6324  2.4790
 7559TIP3    H244093   1.197   3.835  12.497 -0.2700  0.0263 -0.5083
 7560TIP3   OH244094   3.541   3.341   1.852  0.4822  0.2125  0.2158
 7560TIP3    H144095   3.633   3.317   1.864  0.5085  0.4058  0.4118
 7560TIP3    H244096   3.497   3.308   1.931  0.3429 -0.0697  0.0248
 7561TIP3   OH244097   6.668   4.831  16.788 -0.0170  0.5407 -0.2089
 7561TIP3    H144098   6.578   4.809  16.764 -0.3080 -0.8985  1.9491
 7561TIP3    H244099   6.685   4.914  16.743 -2.8695  1.5272  0.3239
 7562TIP3   OH244100   1.061   1.417   3.126  0.0868  0.0238  0.0841
 7562TIP3    H144101   1.093   1.393   3.039  0.5616  0.8022  0.0244
 7562TIP3    H244102   0.998   1.349   3.149  1.0448 -0.9999 -0.2396
 7563TIP3   OH244103   4.277   0.675  15.627  0.0839  0.2990 -0.4550
 7563TIP3    H144104   4.223   0.597  15.617  0.7863 -0.4880  1.4768
 7563TIP3    H244105   4.322   0.685  15.543 -1.2072 -0.4215 -1.2635
 7564TIP3   OH244106   0.281   3.462  10.900 -0.4962 -0.0549  0.1567
 7564TIP3    H144107   0.375   3.481  10.898 -0.7380  1.1420 -0.4824
 7564TIP3    H244108   0.276   3.374  10.938  0.7477  0.6916  2.2356
 7565TIP3   OH244109   5.843   1.355  14.989  0.0460 -1.0714  0.3810
 7565TIP3    H144110   5.883   1.392  14.910 -1.6683  1.7272  0.6802
 7565TIP3    H244111   5.893   1.275  15.007  4.5251  1.3307 -0.0499
 7566TIP3   OH244112   1.389   6.751   3.838 -0.2706  0.0761  0.0217
 7566TIP3    H144113   1.355   6.662   3.847 -1.4536  0.2668 -1.8899
 7566TIP3    H244114   1.475   6.739   3.797 -1.2118 -0.2055 -2.0418
 7567TIP3   OH244115   0.834   3.398  10.727  0.4196 -0.2488  0.1698
 7567TIP3    H144116   0.778   3.444  10.664  0.2294  0.0333  0.5398
 7567TIP3    H244117   0.869   3.323  10.678 -0.9119 -0.8882  0.1471
 7568TIP3   OH244118   4.387   1.321   5.384  0.1124 -0.3205  0.6870
 7568TIP3    H144119   4.422   1.339   5.472  0.5924  0.5450  0.3326
 7568TIP3    H244120   4.465   1.317   5.328 -0.2411 -0.1121  0.1727
 7569TIP3   OH244121   1.775   1.508  13.898 -0.1635 -0.2273 -0.5450
 7569TIP3    H144122   1.712   1.553  13.842  0.1059  1.0061  0.1137
 7569TIP3    H244123   1.818   1.446  13.839  0.0694  0.9905 -1.7257
 7570TIP3   OH244124   4.069   4.071  15.672 -0.4903  0.1521  0.6827
 7570TIP3    H144125   4.040   4.159  15.697 -0.1353  0.8844 -1.3122
 7570TIP3    H244126   4.147   4.056  15.725 -0.0690  1.4033  0.4473
 7571TIP3   OH244127   0.319   3.738  14.860 -0.6542  0.3284 -0.2201
 7571TIP3    H144128   0.371   3.723  14.781 -1.0434  1.5648 -0.7379
 7571TIP3    H244129   0.366   3.691  14.929 -0.2429 -0.6666 -1.1524
 7572TIP3   OH244130   4.326   1.080  16.167 -0.1685 -0.2689 -0.3378
 7572TIP3    H144131   4.335   1.040  16.081 -0.8547 -0.4859 -0.3176
 7572TIP3    H244132   4.374   1.162  16.161  2.5867 -1.7293  0.0728
 7573TIP3   OH244133   5.301   5.117  13.503 -0.1747 -0.5866  0.2432
 7573TIP3    H144134   5.383   5.080  13.533 -0.6685 -0.9000  1.2417
 7573TIP3    H244135   5.260   5.047  13.452  0.6019 -0.0976 -1.1206
 7574TIP3   OH244136   6.144   0.894   4.189 -0.2010 -0.2276 -0.2747
 7574TIP3    H144137   6.219   0.850   4.230 -0.5314 -2.1993 -1.6475
 7574TIP3    H244138   6.094   0.824   4.148 -1.2075  1.3586 -1.9323
 7575TIP3   OH244139   6.341   4.378   2.521  0.0324  0.0213 -0.4823
 7575TIP3    H144140   6.253   4.388   2.559  0.1339  1.4405 -0.5375
 7575TIP3    H244141   6.333   4.306   2.459 -1.4450  0.9223 -1.4129
 7576TIP3   OH244142   3.223   5.392  12.397 -0.4495 -0.5771 -0.0339
 7576TIP3    H144143   3.187   5.450  12.330 -1.2643  0.0249  0.8932
 7576TIP3    H244144   3.150   5.375  12.455 -0.0828 -2.1319  0.0106
 7577TIP3   OH244145   2.220   0.197   4.301 -0.4537  0.1192  0.0382
 7577TIP3    H144146   2.292   0.255   4.276 -1.2884  1.9554  1.6794
 7577TIP3    H244147   2.199   0.150   4.220  2.1016 -0.0009 -0.6664
 7578TIP3   OH244148   2.801   3.627  16.047 -0.1267  0.2139 -0.0392
 7578TIP3    H144149   2.774   3.620  15.956 -0.8704 -0.9058  0.2424
 7578TIP3    H244150   2.786   3.719  16.070 -3.4192 -0.2174 -0.0235
 7579TIP3   OH244151   2.681   3.938  14.714 -0.2111  0.0235  0.4323
 7579TIP3    H144152   2.590   3.968  14.707  0.5929  2.6210 -0.0368
 7579TIP3    H244153   2.730   3.996  14.655  1.8475 -0.8584  1.1846
 7580TIP3   OH244154   3.849   5.087  12.214  0.5328 -0.5751 -0.9352
 7580TIP3    H144155   3.782   5.028  12.179  0.2266  0.0105 -1.3741
 7580TIP3    H244156   3.814   5.175  12.197  1.6618 -0.2403 -1.7122
 7581TIP3   OH244157   0.249   3.330   4.787 -0.5971  0.2329 -0.3057
 7581TIP3    H144158   0.303   3.251   4.788 -2.1205 -0.9253 -2.2530
 7581TIP3    H244159   0.250   3.361   4.878  0.3033 -1.8380  0.4476
 7582TIP3   OH244160   2.339   3.346  15.018 -0.0239  0.8433  0.3506
 7582TIP3    H144161   2.344   3.275  14.955 -1.4170  0.3175  0.8011
 7582TIP3    H244162   2.407   3.408  14.990  1.5989 -0.8775  0.2613
 7583TIP3   OH244163   0.121   1.145   6.160 -0.1835  0.1916  0.2942
 7583TIP3    H144164   0.114   1.233   6.195  2.2834  0.4921  0.1697
 7583TIP3    H244165   0.115   1.087   6.236  1.5701  0.6637  0.8243
 7584TIP3   OH244166   6.114   2.807  14.436  0.8437 -0.5175 -0.1663
 7584TIP3    H144167   6.196   2.768  14.404  0.0421 -1.5051 -1.1257
 7584TIP3    H244168   6.137   2.847  14.519  2.1968 -1.2010 -0.1793
 7585TIP3   OH244169   3.778   0.923   3.471 -0.0655 -0.2896 -0.3908
 7585TIP3    H144170   3.792   1.005   3.425  3.4702 -0.9334 -0.8167
 7585TIP3    H244171   3.808   0.856   3.410 -0.6535 -1.6870  0.7962
 7586TIP3   OH244172   2.356   5.980  13.044  1.2373 -0.1179  0.0028
 7586TIP3    H144173   2.381   5.920  13.114 -0.3940  1.1260  1.7436
 7586TIP3    H244174   2.308   6.050  13.088 -0.2797  0.4791 -2.4123
 7587TIP3   OH244175   4.385   3.530  17.025 -0.7010  0.9116 -0.0675
 7587TIP3    H144176   4.411   3.615  17.060  1.6052  0.8415 -1.4379
 7587TIP3    H244177   4.449   3.511  16.957 -1.5687 -1.6204 -0.2862
 7588TIP3   OH244178   2.686   1.259   0.340 -0.2179 -0.0216 -0.8457
 7588TIP3    H144179   2.664   1.234   0.429 -0.1701  1.6154 -0.3396
 7588TIP3    H244180   2.602   1.270   0.296 -0.2826  0.6531 -0.5583
 7589TIP3   OH244181   3.872   5.814  15.449 -0.3935 -0.4027  0.0027
 7589TIP3    H144182   3.954   5.779  15.416 -0.4430 -1.1513  0.6357
 7589TIP3    H244183   3.817   5.825  15.371 -0.0406 -0.8525 -0.3131
 7590TIP3   OH244184   2.855   2.462   0.167 -0.0542 -0.2156 -0.0232
 7590TIP3    H144185   2.781   2.514   0.198  0.1656  0.5223 -0.7043
 7590TIP3    H244186   2.814   2.386   0.125 -0.6472  1.5531 -2.9754
 7591TIP3   OH244187   0.170   4.326  12.364 -0.2301 -0.0847 -0.0440
 7591TIP3    H144188   0.257   4.297  12.390  0.6189  1.2716 -1.1991
 7591TIP3    H244189   0.186   4.404  12.310 -2.1907  0.5636  0.2339
 7592TIP3   OH244190   5.361   2.085  16.627  0.0508  0.1321  0.2663
 7592TIP3    H144191   5.455   2.084  16.646  0.1599  0.2958 -0.2450
 7592TIP3    H244192   5.340   1.995  16.605  0.4828  0.4038 -1.4267
 7593TIP3   OH244193   0.594   3.581   2.913  0.0781  0.4401  0.1577
 7593TIP3    H144194   0.518   3.524   2.926 -1.5437  1.8602 -2.2643
 7593TIP3    H244195   0.657   3.526   2.867 -0.9595  0.1748 -1.0133
 7594TIP3   OH244196   3.506   4.429  16.021 -0.3201  0.8691 -0.3023
 7594TIP3    H144197   3.428   4.474  16.053  0.8894  2.9363 -0.0812
 7594TIP3    H244198   3.575   4.453  16.084  0.8208  0.3000 -1.2925
 7595TIP3   OH244199   2.645   1.927  11.957 -0.7161  0.7878  0.3226
 7595TIP3    H144200   2.665   1.993  11.890 -0.7963  1.6814  1.1500
 7595TIP3    H244201   2.559   1.951  11.989 -0.5303  0.5777  0.9895
 7596TIP3   OH244202   3.143   1.980   5.767 -0.2069 -0.2653 -0.1965
 7596TIP3    H144203   3.145   1.936   5.852 -1.8361 -0.5264 -0.2768
 7596TIP3    H244204   3.161   1.912   5.703  1.6129  0.0387 -0.0581
 7597TIP3   OH244205   6.290   1.823   0.631  0.2959  0.5258  0.2483
 7597TIP3    H144206   6.271   1.813   0.537  1.4693 -0.0115  0.0460
 7597TIP3    H244207   6.370   1.772   0.644  0.0918  0.5155  1.5709
 7598TIP3   OH244208   5.419   5.067  13.909  0.0249 -0.2618  0.4274
 7598TIP3    H144209   5.481   5.003  13.874 -0.7261 -1.4292  1.1855
 7598TIP3    H244210   5.333   5.030  13.893 -0.4058  0.2128  1.5218
 7599TIP3   OH244211   4.638   3.558  17.322  0.1447 -0.0486 -0.1488
 7599TIP3    H144212   4.666   3.620  17.254  0.9426  0.7598  0.8764
 7599TIP3    H244213   4.573   3.503  17.279 -0.9078  1.7498 -1.0196
 7600TIP3   OH244214   3.841   2.865   2.026  0.6334  0.1201  0.0968
 7600TIP3    H144215   3.827   2.882   2.120  0.5347  0.0624  0.0931
 7600TIP3    H244216   3.936   2.869   2.015  0.7793 -1.5687  0.5303
 7601TIP3   OH244217   2.761   0.143   0.596  0.4565 -0.0940  0.1255
 7601TIP3    H144218   2.854   0.139   0.617  0.7510  0.0804 -1.0654
 7601TIP3    H244219   2.746   0.065   0.541  0.0415  0.1998 -0.1855
 7602TIP3   OH244220   5.516   2.821  14.327 -0.7418 -0.5985 -0.2589
 7602TIP3    H144221   5.569   2.766  14.385 -0.3319 -0.7052 -0.7237
 7602TIP3    H244222   5.428   2.784  14.333 -0.4439 -1.4126 -0.6692
 7603TIP3   OH244223   6.494   6.151   4.120  0.8517 -0.4416  0.0343
 7603TIP3    H144224   6.458   6.230   4.080  0.6971 -0.7416 -0.4340
 7603TIP3    H244225   6.564   6.182   4.177  2.2588 -0.1169 -1.7897
 7604TIP3   OH244226   5.217   2.251   3.378 -0.1935  0.2076 -0.0772
 7604TIP3    H144227   5.275   2.234   3.452  1.6373  0.8543 -1.3112
 7604TIP3    H244228   5.201   2.165   3.340 -0.4665 -0.0265  0.5507
 7605TIP3   OH244229   1.498   4.354   3.020  0.8218  0.2653 -0.2015
 7605TIP3    H144230   1.556   4.294   3.067 -1.3358 -2.1597 -0.4164
 7605TIP3    H244231   1.421   4.363   3.077  0.0990  0.9647 -1.2456
 7606TIP3   OH244232   6.081   3.998  14.004 -0.5416 -0.6465  0.0898
 7606TIP3    H144233   6.029   4.002  14.084  0.5149 -0.6855  0.7992
 7606TIP3    H244234   6.156   3.944  14.027  0.3763  0.3041 -0.5588
 7607TIP3   OH244235   6.210   6.141   5.111 -0.2545  0.3978 -0.0137
 7607TIP3    H144236   6.247   6.207   5.169 -0.0621 -0.2296  0.5885
 7607TIP3    H244237   6.118   6.134   5.138 -0.1931  0.1864  0.1430
 7608TIP3   OH244238   2.852   3.166   1.403  0.1423 -0.0189  0.4038
 7608TIP3    H144239   2.788   3.113   1.355 -0.4193  0.4078  0.6682
 7608TIP3    H244240   2.904   3.209   1.335  1.0717 -1.4312  0.1746
 7609TIP3   OH244241   5.586   1.965  14.907  0.1547 -0.1632  0.5274
 7609TIP3    H144242   5.554   2.010  14.828  2.3591  0.5544 -0.0288
 7609TIP3    H244243   5.532   1.886  14.913 -0.1449 -0.1860 -1.6628
 7610TIP3   OH244244   2.772   4.268   4.438 -0.3429  0.1490  0.4568
 7610TIP3    H144245   2.770   4.332   4.509 -0.3344  0.5571  0.0922
 7610TIP3    H244246   2.716   4.306   4.370 -0.2383 -0.1749  0.1878
 7611TIP3   OH244247   3.988   4.003  10.667  0.0608 -0.5353 -0.5403
 7611TIP3    H144248   4.056   4.066  10.688 -0.0139 -0.2366 -1.1699
 7611TIP3    H244249   3.913   4.030  10.720  0.5181 -1.0683  0.4160
 7612TIP3   OH244250   4.173   6.297  14.113 -0.2070 -0.2965 -0.3105
 7612TIP3    H144251   4.228   6.234  14.067  0.6792  1.2115 -1.4212
 7612TIP3    H244252   4.088   6.291  14.069 -1.4906 -3.5053  2.1942
 7613TIP3   OH244253   2.085   4.223   4.610  0.5777 -0.1520  0.2578
 7613TIP3    H144254   2.011   4.212   4.550  0.9318 -0.9574 -0.0479
 7613TIP3    H244255   2.159   4.242   4.553  1.1731 -2.1246  0.2838
 7614TIP3   OH244256   0.899   2.087  16.482  0.2230 -0.7952  0.1001
 7614TIP3    H144257   0.862   2.008  16.442  0.0165 -0.2006 -0.8885
 7614TIP3    H244258   0.827   2.123  16.535  0.4516 -1.4950  0.9195
 7615TIP3   OH244259   5.926   4.532   0.405 -0.3821  0.2760  0.2624
 7615TIP3    H144260   5.892   4.479   0.333  0.5585 -1.0869  0.7736
 7615TIP3    H244261   5.881   4.616   0.397 -1.7090 -0.4970 -0.7583
 7616TIP3   OH244262   5.729   4.533   3.372 -0.1118  0.6120 -0.0406
 7616TIP3    H144263   5.795   4.483   3.420 -1.1265  0.7616  1.5524
 7616TIP3    H244264   5.705   4.475   3.299  0.9326  0.0754  0.0161
 7617TIP3   OH244265   5.653   3.072  16.455 -0.6893 -0.1309  0.1910
 7617TIP3    H144266   5.598   3.086  16.533  0.7289 -1.1365  1.4392
 7617TIP3    H244267   5.668   3.161  16.421 -2.8552  0.1814 -0.0748
 7618TIP3   OH244268   2.683   0.202  16.237  0.2736  0.0323  0.0951
 7618TIP3    H144269   2.722   0.199  16.150  2.4646  2.1823  0.8904
 7618TIP3    H244270   2.688   0.112  16.269  0.9201 -0.4840 -1.3703
 7619TIP3   OH244271   3.849   3.680   0.304 -0.1973  0.2537 -0.5314
 7619TIP3    H144272   3.810   3.623   0.371 -2.6976 -0.1218 -2.1709
 7619TIP3    H244273   3.780   3.743   0.284  1.9478  2.9767  0.0872
 7620TIP3   OH244274   3.115   6.137  11.502 -0.6358  1.2730  0.6789
 7620TIP3    H144275   3.136   6.049  11.472 -0.2783  0.5990  2.8000
 7620TIP3    H244276   3.189   6.191  11.473  0.9648  0.1469  2.5077
 7621TIP3   OH244277   6.168   0.369  12.703 -0.1872  0.5564  0.8833
 7621TIP3    H144278   6.220   0.409  12.634 -1.1747  0.9875  0.3771
 7621TIP3    H244279   6.217   0.388  12.784  0.1507  1.4270  0.4834
 7622TIP3   OH244280   6.273   5.492   5.782  0.5817  0.3779  0.5314
 7622TIP3    H144281   6.228   5.424   5.731  2.1494 -1.3489  1.3227
 7622TIP3    H244282   6.203   5.549   5.813 -0.8399 -1.0724  0.1117
 7623TIP3   OH244283   3.110   4.473   0.627  0.1573 -0.6943  0.1609
 7623TIP3    H144284   3.026   4.476   0.580  0.1948  0.7152  0.1481
 7623TIP3    H244285   3.136   4.381   0.623 -2.1109 -1.4771  1.4586
 7624TIP3   OH244286   4.718   1.420   3.817 -0.1444 -0.2495  0.1228
 7624TIP3    H144287   4.780   1.417   3.890  1.0894  1.2746 -0.8080
 7624TIP3    H244288   4.672   1.503   3.827  1.7073  1.1681 -2.0470
 7625TIP3   OH244289   5.804   1.441  13.203 -0.6913  0.7002  0.1138
 7625TIP3    H144290   5.853   1.471  13.126  1.8155 -0.6722  1.0692
 7625TIP3    H244291   5.784   1.522  13.251 -0.8953  1.4378 -1.1646
 7626TIP3   OH244292   5.780   5.300   5.710  0.0502 -0.3324 -0.2907
 7626TIP3    H144293   5.800   5.257   5.627 -0.6768  1.3744 -1.4180
 7626TIP3    H244294   5.827   5.383   5.705 -0.8839  0.2586  0.5225
 7627TIP3   OH244295   1.451   4.734   0.427 -0.6633  0.1676 -0.2356
 7627TIP3    H144296   1.415   4.806   0.375  1.6882 -0.0749 -2.4152
 7627TIP3    H244297   1.526   4.773   0.472 -1.0749 -0.2885  0.8813
 7628TIP3   OH244298   4.326   3.804  14.335  0.3231  0.0218  0.5488
 7628TIP3    H144299   4.390   3.768  14.395  0.5348 -2.5033 -1.0381
 7628TIP3    H244300   4.318   3.738  14.266 -0.7544  2.2200 -1.5888
 7629TIP3   OH244301   1.585   1.016   3.721 -0.3906 -0.8672  0.2396
 7629TIP3    H144302   1.515   0.993   3.783  0.2948 -0.3691  1.2235
 7629TIP3    H244303   1.620   0.932   3.692 -0.8204 -1.1092  0.4109
 7630TIP3   OH244304   6.706   0.125  16.262 -0.6689  0.3349  0.2272
 7630TIP3    H144305   6.621   0.158  16.291 -1.0166  1.8465 -2.2329
 7630TIP3    H244306   6.769   0.192  16.290 -0.7562  0.8303 -0.7063
 7631TIP3   OH244307   4.678   3.174  17.036 -0.2249 -0.7787  0.0638
 7631TIP3    H144308   4.672   3.079  17.027 -1.4832 -0.7264  0.1609
 7631TIP3    H244309   4.690   3.189  17.129  1.3172 -0.8772 -0.0975
 7632TIP3   OH244310   5.531   2.801  10.784  0.0345  0.2076  0.4543
 7632TIP3    H144311   5.487   2.727  10.742  0.3053  1.1114 -1.5310
 7632TIP3    H244312   5.592   2.760  10.846 -1.3377 -1.1338  0.9915
 7633TIP3   OH244313   0.302   3.836  15.313  0.4053  0.5687  0.5019
 7633TIP3    H144314   0.371   3.901  15.297  1.1634 -0.7614 -2.4013
 7633TIP3    H244315   0.240   3.850  15.241 -0.1828 -0.9150  0.6831
 7634TIP3   OH244316   6.532   1.187  13.544  0.1375  0.2288 -0.7089
 7634TIP3    H144317   6.622   1.153  13.533  1.1217  2.1114  0.9237
 7634TIP3    H244318   6.504   1.209  13.455  1.2406 -0.5156 -1.2707
 7635TIP3   OH244319   0.368   5.288  15.388 -0.3871 -0.1578  0.2986
 7635TIP3    H144320   0.324   5.203  15.390 -1.4535  0.3110 -1.1364
 7635TIP3    H244321   0.444   5.278  15.445 -0.3785 -2.1344 -0.0043
 7636TIP3   OH244322   2.779   0.139  16.547 -0.4972 -0.8938 -0.2478
 7636TIP3    H144323   2.759   0.230  16.529  1.5721 -0.6787 -1.8282
 7636TIP3    H244324   2.730   0.119  16.627  0.8799  2.3114  1.5910
 7637TIP3   OH244325   1.042   4.441  13.688 -0.4780  0.6539  0.2525
 7637TIP3    H144326   1.020   4.522  13.734 -0.1613  0.6587  0.3969
 7637TIP3    H244327   0.961   4.390  13.690 -0.1319  0.1194  1.9167
 7638TIP3   OH244328   5.680   0.277   2.594  0.0891  0.0062 -0.6561
 7638TIP3    H144329   5.705   0.367   2.571  0.5393 -0.7135 -3.3739
 7638TIP3    H244330   5.584   0.278   2.593 -0.0496  1.1630  2.7843
 7639TIP3   OH244331   5.337   2.783   5.123 -0.2692  0.9337  0.7735
 7639TIP3    H144332   5.309   2.789   5.215  0.3005 -0.7871  1.0921
 7639TIP3    H244333   5.420   2.736   5.126  0.1588  1.5528 -0.5784
 7640TIP3   OH244334   5.166   2.905   2.799 -0.1835 -0.9341  0.1814
 7640TIP3    H144335   5.149   2.994   2.768  1.7101 -0.7454 -0.4545
 7640TIP3    H244336   5.090   2.883   2.853 -1.1693  0.6686 -0.4959
 7641TIP3   OH244337   4.195   0.047  17.061  0.0469 -0.5678  0.0243
 7641TIP3    H144338   4.143   0.103  17.004  0.2939  0.0206  0.3602
 7641TIP3    H244339   4.146   0.044  17.143  1.2415  1.2419  0.8722
 7642TIP3   OH244340   1.985   2.284   1.219 -0.4688 -0.1424 -0.3227
 7642TIP3    H144341   1.925   2.267   1.291 -2.8486  1.4440 -1.8020
 7642TIP3    H244342   2.053   2.217   1.229 -1.4945 -0.9174  2.4617
 7643TIP3   OH244343   5.155   0.580  13.590 -0.1775 -0.1660  0.0081
 7643TIP3    H144344   5.132   0.586  13.497 -0.9203 -4.2820 -0.2435
 7643TIP3    H244345   5.226   0.643  13.601 -0.8501  1.2920 -3.0343
 7644TIP3   OH244346   1.898   1.620   2.135 -0.4271  0.2624 -0.1713
 7644TIP3    H144347   1.948   1.561   2.078 -1.5114 -0.9152  0.0419
 7644TIP3    H244348   1.964   1.678   2.174  0.7536 -1.1165 -0.0277
 7645TIP3   OH244349   1.694   2.944   3.486 -0.2757  0.1943  0.0608
 7645TIP3    H144350   1.683   2.929   3.580  0.3000 -0.0062  0.1020
 7645TIP3    H244351   1.678   2.859   3.446  0.4726  0.0324  0.0745
 7646TIP3   OH244352   4.750   6.770   3.151  0.2824  0.3212 -0.1394
 7646TIP3    H144353   4.845   6.772   3.137  0.3658  0.7708  0.4616
 7646TIP3    H244354   4.739   6.728   3.236 -0.1455 -1.0992 -0.8783
 7647TIP3   OH244355   4.014   4.587  12.284  0.5571 -0.3339 -0.1893
 7647TIP3    H144356   4.020   4.646  12.359 -1.7511  0.3966 -0.4885
 7647TIP3    H244357   3.935   4.534  12.301 -1.1161  1.0700 -2.8281
 7648TIP3   OH244358   5.773   5.163  13.066  0.1473  0.6013 -0.1937
 7648TIP3    H144359   5.709   5.234  13.062  1.6077  1.9981  0.0103
 7648TIP3    H244360   5.721   5.085  13.083 -1.2807  2.0686  2.9745
 7649TIP3   OH244361   2.841   6.295  12.933 -0.2256  0.3526  0.2513
 7649TIP3    H144362   2.783   6.263  13.002  1.3316  0.0715  1.4868
 7649TIP3    H244363   2.840   6.390  12.943 -1.2786  0.4354 -0.4447
 7650TIP3   OH244364   5.648   3.153   4.978  0.3048 -0.0188  0.0534
 7650TIP3    H144365   5.586   3.147   5.051  1.0076 -2.3289  0.5386
 7650TIP3    H244366   5.722   3.202   5.014  0.3981 -0.6341  0.7259
 7651TIP3   OH244367   5.596   3.884   3.190 -0.5379  0.3052 -0.4690
 7651TIP3    H144368   5.642   3.801   3.209 -0.3213  0.1357 -1.6784
 7651TIP3    H244369   5.534   3.893   3.262 -0.9669 -1.2061 -0.6090
 7652TIP3   OH244370   6.062   5.124  15.574  0.5144 -0.2932 -0.7787
 7652TIP3    H144371   6.102   5.058  15.631  2.3176  1.0963 -0.3649
 7652TIP3    H244372   5.970   5.126  15.601  1.1841 -0.1067  1.6876
 7653TIP3   OH244373   6.124   0.606   4.360 -0.4215  0.1315  0.2017
 7653TIP3    H144374   6.055   0.576   4.419  0.0928  0.3369  0.9231
 7653TIP3    H244375   6.082   0.612   4.274 -1.1630 -0.2383  0.5325
 7654TIP3   OH244376   2.726   5.124  10.728 -0.4640 -0.2807 -0.1599
 7654TIP3    H144377   2.807   5.174  10.745 -0.9957  1.1398 -1.5543
 7654TIP3    H244378   2.710   5.136  10.635 -2.6569  0.0519  0.2094
 7655TIP3   OH244379   2.678   3.810  14.953 -0.2625 -0.2141  0.2340
 7655TIP3    H144380   2.648   3.866  15.025 -2.3906 -1.2835  0.2650
 7655TIP3    H244381   2.696   3.870  14.881 -1.5778  0.5991  0.5562
 7656TIP3   OH244382   6.487   5.963   1.859  0.2496  0.5340  0.0793
 7656TIP3    H144383   6.484   5.883   1.808  0.8399 -0.1448  1.0824
 7656TIP3    H244384   6.395   5.986   1.874  0.0680  0.6405 -1.0911
 7657TIP3   OH244385   1.497   2.556  16.272 -0.2869  0.1994 -0.1164
 7657TIP3    H144386   1.546   2.475  16.283 -1.4961 -0.4742  0.5866
 7657TIP3    H244387   1.440   2.540  16.196 -0.7300  0.2677  0.1951
 7658TIP3   OH244388   3.774   3.669  12.597 -0.3926 -0.0780 -0.2206
 7658TIP3    H144389   3.789   3.612  12.673  0.2344  0.4939  0.0919
 7658TIP3    H244390   3.861   3.697  12.571 -0.7657  2.1667  0.7220
 7659TIP3   OH244391   6.575   4.437  12.320  0.4345  0.2222 -0.4287
 7659TIP3    H144392   6.558   4.478  12.234 -2.2688  0.5157  0.1442
 7659TIP3    H244393   6.562   4.508  12.383  2.6112  0.0579  0.2643
 7660TIP3   OH244394   5.067   1.643  12.197  0.1110  0.6326 -0.2160
 7660TIP3    H144395   5.032   1.628  12.110 -2.7431  0.3561  0.8765
 7660TIP3    H244396   5.151   1.687  12.182 -0.2742  0.5674 -3.0576
 7661TIP3   OH244397   6.496   1.568   1.185  0.1039  0.4655  0.0961
 7661TIP3    H144398   6.461   1.529   1.265 -0.4092  0.9090  0.1010
 7661TIP3    H244399   6.588   1.584   1.204  0.7224 -2.1102 -0.4432
 7662TIP3   OH244400   1.298   3.586   0.302  0.3626  0.1125 -0.0758
 7662TIP3    H144401   1.285   3.583   0.208  0.5004 -0.0278 -0.0911
 7662TIP3    H244402   1.286   3.496   0.331  0.9350  0.0406 -0.0458
 7663TIP3   OH244403   6.335   2.662  12.512 -0.0841  0.4767  0.0493
 7663TIP3    H144404   6.335   2.609  12.433  0.4155  0.3467  0.1364
 7663TIP3    H244405   6.330   2.752  12.480  2.7302  0.6097 -0.2812
 7664TIP3   OH244406   1.054   5.205   2.411  0.0519 -0.2178 -0.4095
 7664TIP3    H144407   0.963   5.216   2.438  0.1057  1.4056 -0.8242
 7664TIP3    H244408   1.063   5.111   2.395 -1.0345 -0.6697  1.3916
 7665TIP3   OH244409   4.303   2.082  15.649 -0.1258 -0.1745  0.0275
 7665TIP3    H144410   4.333   2.004  15.694  0.2258 -1.4369 -2.2375
 7665TIP3    H244411   4.260   2.134  15.717 -0.3056 -2.2791  1.6249
 7666TIP3   OH244412   3.664   1.160  12.628 -0.8028  0.0316 -0.4465
 7666TIP3    H144413   3.737   1.169  12.690 -1.4269 -0.0262  0.3217
 7666TIP3    H244414   3.654   1.248  12.590  0.3416 -0.2169 -1.3598
 7667TIP3   OH244415   4.394   1.871   2.484 -0.2480  0.0876  0.0143
 7667TIP3    H144416   4.435   1.819   2.415  1.2934  2.2359 -0.8048
 7667TIP3    H244417   4.429   1.835   2.565 -0.5263 -1.1946 -0.4118
 7668TIP3   OH244418   1.276   0.024  15.363 -0.5031  0.1803  0.4869
 7668TIP3    H144419   1.262   0.119  15.372 -0.8889  0.3208 -1.3257
 7668TIP3    H244420   1.345   0.016  15.297  0.5588 -0.8113  1.6455
 7669TIP3   OH244421   0.981   3.696   2.118 -0.0427  0.3658  0.2563
 7669TIP3    H144422   1.060   3.684   2.065  0.7735 -2.4271  1.8821
 7669TIP3    H244423   0.914   3.645   2.072 -0.2142  0.6034  0.2410
 7670TIP3   OH244424   0.976   0.815   0.910 -0.0651  0.0090 -0.6847
 7670TIP3    H144425   0.950   0.742   0.966 -0.5607  0.4817 -0.2820
 7670TIP3    H244426   0.917   0.809   0.834  0.4184 -0.4655 -1.0281
 7671TIP3   OH244427   4.233   0.887  12.996 -0.0327 -0.0371 -0.1054
 7671TIP3    H144428   4.183   0.808  13.016  1.1364 -0.8293 -0.1780
 7671TIP3    H244429   4.309   0.855  12.947  2.0116  0.7093  2.3672
 7672TIP3   OH244430   4.684   3.911  17.205  0.4062 -0.3254 -0.0115
 7672TIP3    H144431   4.609   3.870  17.161  0.1207  1.2810 -1.1093
 7672TIP3    H244432   4.651   3.997  17.233  0.9630 -0.7823  2.2659
 7673TIP3   OH244433   0.800   0.073  11.234 -0.2442 -0.0488  0.0688
 7673TIP3    H144434   0.733   0.007  11.253 -0.2857  0.0217  0.1667
 7673TIP3    H244435   0.850   0.081  11.315 -0.3221  0.1361  0.0994
 7674TIP3   OH244436   2.561   1.586   1.563 -0.1510 -0.0375  0.0609
 7674TIP3    H144437   2.576   1.608   1.471  0.3498  0.4826  0.2609
 7674TIP3    H244438   2.471   1.614   1.579 -0.1896  0.0118 -0.2281
 7675TIP3   OH244439   2.982   1.024  14.541 -0.0864  0.0866  0.2193
 7675TIP3    H144440   2.993   0.931  14.559  0.2953 -0.3202 -1.8837
 7675TIP3    H244441   2.888   1.035  14.526  0.2106 -0.7424 -2.9950
 7676TIP3   OH244442   4.774   4.826  13.213  1.0271  0.0829  0.5053
 7676TIP3    H144443   4.684   4.857  13.202  1.4601  1.7427  1.3195
 7676TIP3    H244444   4.798   4.792  13.126  0.4890  2.1039 -0.5112
 7677TIP3   OH244445   3.487   5.266   0.331 -0.0290 -0.9360  0.5948
 7677TIP3    H144446   3.508   5.216   0.410  1.8617  0.5619  1.1128
 7677TIP3    H244447   3.414   5.322   0.357  0.3824 -0.6730  1.1937
 7678TIP3   OH244448   4.359   5.271  11.861 -0.6806 -0.3930  0.0935
 7678TIP3    H144449   4.454   5.273  11.851 -0.7822 -0.1155 -1.0258
 7678TIP3    H244450   4.340   5.340  11.925 -0.1980  0.3103 -0.4988
 7679TIP3   OH244451   0.243   5.050  11.793 -0.2732  0.1509  0.3822
 7679TIP3    H144452   0.323   5.085  11.752 -0.2501  0.6657  0.8505
 7679TIP3    H244453   0.210   5.123  11.845  0.6481 -0.9923  2.6778
 7680TIP3   OH244454   0.383   5.822   2.441 -0.1417 -0.6220 -0.1687
 7680TIP3    H144455   0.323   5.895   2.456 -1.3804 -1.7334  0.5293
 7680TIP3    H244456   0.349   5.778   2.363  0.8864 -0.2060 -0.8804
 7681TIP3   OH244457   4.673   2.794  16.373 -0.1403 -0.0249 -0.5334
 7681TIP3    H144458   4.695   2.887  16.371  1.9758 -0.4721 -0.9575
 7681TIP3    H244459   4.684   2.765  16.283 -1.7756 -0.5198 -0.6036
 7682TIP3   OH244460   0.529   1.341  16.976  1.1554 -0.3541  0.0599
 7682TIP3    H144461   0.512   1.396  17.052  0.1620  1.7954 -1.6101
 7682TIP3    H244462   0.601   1.384  16.931 -0.1704  0.1580 -1.7131
 7683TIP3   OH244463   3.373   2.532   2.534  0.8007 -0.0059 -0.4609
 7683TIP3    H144464   3.355   2.614   2.580 -1.2894 -1.9992  2.6568
 7683TIP3    H244465   3.363   2.554   2.441  3.4199  3.8682 -0.0436
 7684TIP3   OH244466   4.791   1.134  17.002 -0.3446  0.6562  0.6893
 7684TIP3    H144467   4.764   1.192  16.931  0.2066  0.3625  0.2343
 7684TIP3    H244468   4.881   1.110  16.981 -0.3287  0.2035  1.2476
 7685TIP3   OH244469   5.325   1.332  16.367  0.1465  0.4200 -0.6005
 7685TIP3    H144470   5.291   1.270  16.302 -1.8345 -0.3648  1.0862
 7685TIP3    H244471   5.398   1.285  16.408 -0.0029  0.0434 -0.7586
 7686TIP3   OH244472   3.719   5.385  17.000 -0.1387  0.0751  0.8462
 7686TIP3    H144473   3.672   5.469  17.001 -0.1150  0.0926  0.4702
 7686TIP3    H244474   3.812   5.410  17.004 -0.1678  0.0204  2.5323
 7687TIP3   OH244475   0.023   4.899  10.888  0.0782 -0.1908  0.0509
 7687TIP3    H144476   0.024   4.912  10.983  0.0919  0.2630 -0.0073
 7687TIP3    H244477  -0.025   4.975  10.854 -0.0969 -0.4497 -0.2909
 7688TIP3   OH244478   2.580   4.355   0.118  0.1539 -0.6718  0.7200
 7688TIP3    H144479   2.642   4.288   0.147 -1.0262 -1.9538  0.3272
 7688TIP3    H244480   2.507   4.349   0.179 -1.0902 -1.4910 -0.7834
 7689TIP3   OH244481   6.165   3.413  16.758 -0.0400 -0.1517  0.6046
 7689TIP3    H144482   6.172   3.389  16.850 -0.9528 -2.2902  0.1518
 7689TIP3    H244483   6.183   3.333  16.710  1.4815  1.1437 -1.1610
 7690TIP3   OH244484   0.336   2.039   5.654 -0.3452 -0.6555  0.1518
 7690TIP3    H144485   0.384   1.980   5.595  0.7800  0.0592  0.3176
 7690TIP3    H244486   0.368   2.016   5.741 -1.9796 -1.6848  0.5267
 7691TIP3   OH244487   1.297   1.891  11.675  0.4033  0.3196  0.0255
 7691TIP3    H144488   1.245   1.884  11.756  1.1945 -0.3222  0.4935
 7691TIP3    H244489   1.302   1.985  11.659  0.8471  0.5066  1.1397
 7692TIP3   OH244490   1.004   5.519  11.205 -0.1187 -0.3009  0.7275
 7692TIP3    H144491   1.064   5.470  11.149  0.4338 -0.4602  1.4510
 7692TIP3    H244492   0.920   5.515  11.158  0.0686 -1.3838  0.4507
 7693TIP3   OH244493   6.128   0.016   2.948  0.1132 -0.0598 -0.0385
 7693TIP3    H144494   6.058   0.042   3.008 -0.5381  0.0828 -0.8334
 7693TIP3    H244495   6.103  -0.072   2.920  0.7875 -0.4053  0.4367
 7694TIP3   OH244496   6.468   3.532  11.123 -0.0727 -0.0307  0.6282
 7694TIP3    H144497   6.470   3.461  11.186 -1.7780 -0.2748  0.4491
 7694TIP3    H244498   6.413   3.500  11.052  0.1719  0.9959 -0.0492
 7695TIP3   OH244499   3.418   0.571  13.308 -0.0721 -0.0695 -0.8610
 7695TIP3    H144500   3.329   0.553  13.276 -0.2531  0.1464 -0.4770
 7695TIP3    H244501   3.453   0.484  13.330  0.1261 -0.2426 -1.8238
 7696TIP3   OH244502   5.386   6.702  15.705  0.2803  0.3564 -0.1287
 7696TIP3    H144503   5.381   6.634  15.773 -0.7010  0.1293 -0.4144
 7696TIP3    H244504   5.330   6.773  15.738 -0.3255  0.1810 -0.7637
 7697TIP3   OH244505   1.070   3.216  16.891  0.1287  0.2592 -0.4043
 7697TIP3    H144506   1.145   3.182  16.940 -1.3226  0.5624  2.2023
 7697TIP3    H244507   1.073   3.311  16.904 -0.7885  0.2606 -0.0832
 7698TIP3   OH244508   3.423   3.221   4.125 -0.4477  0.5566 -0.1636
 7698TIP3    H144509   3.408   3.316   4.128 -0.5358  0.5648 -0.6468
 7698TIP3    H244510   3.495   3.211   4.063 -1.2636  0.2251 -1.0806
 7699TIP3   OH244511   0.653   4.164  12.551 -0.3308  0.2091 -0.3513
 7699TIP3    H144512   0.735   4.148  12.597 -1.2362  0.1325  1.3082
 7699TIP3    H244513   0.662   4.117  12.468  1.0988 -0.1920  0.0087
 7700TIP3   OH244514   5.138   6.345  15.910  0.0164 -0.0943 -0.2247
 7700TIP3    H144515   5.129   6.331  15.816  0.8334 -0.5059 -0.2502
 7700TIP3    H244516   5.165   6.436  15.919 -1.8432  0.5142 -0.2643
 7701TIP3   OH244517   4.377   5.655   0.506 -0.0900  0.3265  0.5090
 7701TIP3    H144518   4.309   5.670   0.441 -1.3508 -0.6394  1.5626
 7701TIP3    H244519   4.405   5.743   0.531 -1.7021  0.7811  0.8084
 7702TIP3   OH244520   2.152   3.484  14.704 -0.6073 -0.3391  0.2546
 7702TIP3    H144521   2.155   3.519  14.615 -0.0201 -1.9875 -0.4078
 7702TIP3    H244522   2.142   3.562  14.759 -0.2014  0.7938 -1.1862
 7703TIP3   OH244523   1.351   0.401  14.990 -0.0809 -0.4394 -0.1613
 7703TIP3    H144524   1.262   0.366  14.987  0.8394 -3.1774  0.9706
 7703TIP3    H244525   1.387   0.384  14.903 -0.7152  1.0023 -0.7382
 7704TIP3   OH244526   3.870   2.931   4.079 -0.8968 -0.3907 -0.6113
 7704TIP3    H144527   3.855   2.898   3.990  1.0361  1.8513 -1.9103
 7704TIP3    H244528   3.832   3.019   4.078  1.5149  0.7435 -0.2105
 7705TIP3   OH244529   5.287   3.460   3.623 -0.3058  0.2510 -0.1698
 7705TIP3    H144530   5.220   3.528   3.625  0.1325  0.7723 -1.6052
 7705TIP3    H244531   5.370   3.506   3.637  0.1156  0.2649 -2.2704
 7706TIP3   OH244532   6.401   1.853   0.084 -0.2964 -0.5730  0.2396
 7706TIP3    H144533   6.474   1.891   0.035  0.5537 -1.5271  0.7239
 7706TIP3    H244534   6.360   1.927   0.127 -0.8097  0.2379 -1.5536
 7707TIP3   OH244535   2.982   4.787   1.921  0.1533  0.9176  0.6860
 7707TIP3    H144536   3.043   4.748   1.858 -1.8923  0.8212 -1.3400
 7707TIP3    H244537   3.037   4.807   1.997  2.1314 -1.7901  0.1136
 7708TIP3   OH244538   2.909   5.774   3.954  0.4290  0.4983 -0.1213
 7708TIP3    H144539   2.853   5.830   3.901  1.0646  1.1192 -0.1470
 7708TIP3    H244540   2.913   5.817   4.040  1.3648  0.8013 -0.3063
 7709TIP3   OH244541   1.339   3.143  15.830 -0.1381  0.6525  0.3387
 7709TIP3    H144542   1.419   3.144  15.883  1.0586 -0.8952 -1.3290
 7709TIP3    H244543   1.325   3.051  15.811 -1.0647  1.0947 -1.2392
 7710TIP3   OH244544   0.883   4.473  12.563  0.7050  0.4673  0.3738
 7710TIP3    H144545   0.889   4.396  12.507  1.1244  0.4173  0.4805
 7710TIP3    H244546   0.790   4.494  12.566  0.3421 -1.1646  1.8581
 7711TIP3   OH244547   4.365   3.837   2.327 -0.7390 -0.2753 -0.4746
 7711TIP3    H144548   4.414   3.870   2.402 -0.9423  1.8247 -1.2091
 7711TIP3    H244549   4.332   3.752   2.355 -0.3903  0.2356  1.6232
 7712TIP3   OH244550   6.254   1.098   0.075  0.1639 -0.0817 -0.1130
 7712TIP3    H144551   6.309   1.137   0.007  1.6208 -1.3157  0.2696
 7712TIP3    H244552   6.307   1.104   0.154 -0.8903  0.0018  0.6023
 7713TIP3   OH244553   6.314   2.300  14.574 -0.1021 -0.3706 -0.3335
 7713TIP3    H144554   6.354   2.295  14.661  0.4434 -0.1738 -0.5659
 7713TIP3    H244555   6.367   2.241  14.520 -0.2430 -0.2535 -0.6022
 7714TIP3   OH244556   3.906   0.604   1.133 -0.5063  0.1435 -0.0431
 7714TIP3    H144557   3.924   0.548   1.057 -1.1786 -0.0311 -0.0737
 7714TIP3    H244558   3.811   0.604   1.142 -0.7145  2.7374 -1.1621
 7715TIP3   OH244559   3.412   0.869  14.221 -0.1491  0.3179 -0.5095
 7715TIP3    H144560   3.450   0.898  14.304 -0.1094  0.1856 -0.4808
 7715TIP3    H244561   3.488   0.849  14.166 -0.1387  1.7640 -1.0774
 7716TIP3   OH244562   4.668   6.280  14.294  0.1668 -0.0205  0.6488
 7716TIP3    H144563   4.592   6.302  14.240  1.4286  1.7694 -0.5012
 7716TIP3    H244564   4.649   6.319  14.380 -0.4989 -0.1535  0.5619
 7717TIP3   OH244565   5.052   5.319  15.781 -0.0129  0.3327  0.0668
 7717TIP3    H144566   5.036   5.247  15.720  2.6002 -0.6115  0.3710
 7717TIP3    H244567   5.014   5.289  15.863 -2.3742  1.0504 -0.6692
 7718TIP3   OH244568   3.450   4.050   6.390  1.1318  0.7476 -0.2592
 7718TIP3    H144569   3.464   4.077   6.481  1.9397 -0.4623 -0.0071
 7718TIP3    H244570   3.404   4.124   6.350 -1.4736  0.3408  1.7463
 7719TIP3   OH244571   6.339   1.978   0.953 -0.4245 -0.3361  0.1539
 7719TIP3    H144572   6.343   1.917   1.026  0.1131 -0.9575 -0.3840
 7719TIP3    H244573   6.430   1.985   0.923 -0.8013 -1.0397 -1.2167
 7720TIP3   OH244574   5.266   3.088  13.006  0.1076 -0.1012 -0.4249
 7720TIP3    H144575   5.275   3.177  12.971  2.0211 -0.8669 -2.0905
 7720TIP3    H244576   5.297   3.032  12.935  1.2197 -1.9478  1.4351
 7721TIP3   OH244577   3.306   0.213   0.036 -0.2572  0.1454  0.5579
 7721TIP3    H144578   3.348   0.232  -0.048  0.1826  0.8445  0.9196
 7721TIP3    H244579   3.213   0.228   0.020 -0.1295  0.7401  0.3046
 7722TIP3   OH244580   5.953   0.943   1.267  0.1128 -0.0852  0.5691
 7722TIP3    H144581   5.988   0.854   1.278  1.2342 -0.3105 -3.2206
 7722TIP3    H244582   6.020   1.000   1.305  1.4980 -0.8004 -0.6683
 7723TIP3   OH244583   3.980   3.238  13.126 -0.3118 -0.2108 -0.3535
 7723TIP3    H144584   4.016   3.165  13.074 -0.7419 -1.4840  1.0515
 7723TIP3    H244585   3.893   3.207  13.152 -0.3921  0.7048  0.4909
 7724TIP3   OH244586   1.198   1.996   3.684 -0.0812 -0.3876  0.5080
 7724TIP3    H144587   1.160   1.954   3.606 -0.3732 -0.1322  0.5094
 7724TIP3    H244588   1.122   2.018   3.738  0.2009 -2.5175  1.8982
 7725TIP3   OH244589   1.185   2.154   4.869  0.3508 -0.1102  0.0681
 7725TIP3    H144590   1.216   2.064   4.883 -1.7353 -0.8871 -0.0119
 7725TIP3    H244591   1.248   2.191   4.807  0.1453 -2.2097 -1.5422
 7726TIP3   OH244592   1.935   4.889   0.282 -0.1074 -0.7626  0.7105
 7726TIP3    H144593   2.018   4.934   0.296 -0.2189 -0.9193  1.9859
 7726TIP3    H244594   1.873   4.958   0.259  0.1805 -0.5312  0.6253
 7727TIP3   OH244595   2.243   3.156  16.650 -0.3026  0.5592  0.9451
 7727TIP3    H144596   2.217   3.077  16.698 -0.4743  0.7102  1.1021
 7727TIP3    H244597   2.336   3.165  16.668  0.5288 -1.4147 -1.6431
 7728TIP3   OH244598   2.237   4.195   5.088 -0.2206 -0.6230  0.3361
 7728TIP3    H144599   2.200   4.116   5.126 -1.5341 -1.3400 -2.1779
 7728TIP3    H244600   2.323   4.204   5.129 -0.0316 -3.3242  0.7108
 7729TIP3   OH244601   5.054   0.169  12.969  0.3069 -0.0703 -0.4886
 7729TIP3    H144602   5.083   0.206  13.053  0.3254 -2.4965  0.6874
 7729TIP3    H244603   4.992   0.233  12.934  1.4908  1.7640  0.5693
 7730TIP3   OH244604   6.466   0.128   2.025 -0.0558  0.6155  0.3095
 7730TIP3    H144605   6.510   0.055   1.981 -1.9773 -1.7457  2.0342
 7730TIP3    H244606   6.377   0.127   1.991 -0.7854  0.5417  2.0926
 7731TIP3   OH244607   4.162   3.363   1.519 -0.1946  0.0699  0.1489
 7731TIP3    H144608   4.095   3.371   1.451 -0.1711 -0.1277  0.1002
 7731TIP3    H244609   4.205   3.279   1.500  0.0303  0.1684  0.2119
 7732TIP3   OH244610   0.775   5.603   3.093  0.8080  0.1401 -0.8066
 7732TIP3    H144611   0.784   5.536   3.161  1.8287  0.1571 -0.9016
 7732TIP3    H244612   0.766   5.685   3.142  2.2699  0.2413 -0.6644
 7733TIP3   OH244613   0.206   0.480   4.844  0.1472  0.5098 -0.0286
 7733TIP3    H144614   0.206   0.543   4.772  1.1116 -0.1319 -0.6062
 7733TIP3    H244615   0.288   0.432   4.834  0.3450  0.4625  1.5426
 7734TIP3   OH244616   5.671   6.758   1.293  0.2513  0.0790 -0.2322
 7734TIP3    H144617   5.725   6.820   1.243 -1.0746 -0.3632 -2.3351
 7734TIP3    H244618   5.612   6.814   1.343  2.1420  0.5506  1.6335
 7735TIP3   OH244619   3.336   2.561   6.094 -0.4578 -0.1560  0.5565
 7735TIP3    H144620   3.276   2.636   6.092 -2.3226 -1.4940  2.5118
 7735TIP3    H244621   3.423   2.601   6.096 -1.2934  1.8966 -0.6272
 7736TIP3   OH244622   6.503   2.401  14.305 -0.3714  0.4755  0.7534
 7736TIP3    H144623   6.585   2.361  14.335 -0.6481  1.6300  3.3628
 7736TIP3    H244624   6.447   2.327  14.284  0.5183 -0.4156  1.3912
 7737TIP3   OH244625   1.409   0.881   3.521  0.2472 -0.7477 -0.3011
 7737TIP3    H144626   1.495   0.855   3.487 -0.4661  0.5258 -3.4222
 7737TIP3    H244627   1.352   0.881   3.444 -1.4705  2.8623  0.7731
 7738TIP3   OH244628   5.252   1.489  14.146 -0.7674  0.6738 -0.0111
 7738TIP3    H144629   5.166   1.521  14.121 -0.2999  1.3081 -0.8406
 7738TIP3    H244630   5.261   1.514  14.238 -1.5322  0.4446  0.1292
 7739TIP3   OH244631   3.817   5.877  14.337  0.1631 -0.1766 -0.7446
 7739TIP3    H144632   3.817   5.821  14.260 -1.7635 -0.5906 -0.4994
 7739TIP3    H244633   3.906   5.912  14.342  0.5972 -0.9276 -2.5599
 7740TIP3   OH244634   2.790   1.170  17.120 -0.5185  0.1244  0.0485
 7740TIP3    H144635   2.754   1.245  17.073 -0.1994 -0.9182 -1.9816
 7740TIP3    H244636   2.732   1.098  17.097  0.2673 -0.6381  0.4102
 7741TIP3   OH244637   2.564   1.105   1.799 -0.0004  0.3977  0.4673
 7741TIP3    H144638   2.533   1.180   1.749 -1.2364  0.9827  2.0228
 7741TIP3    H244639   2.528   1.029   1.753  0.0016  0.8407 -0.2768
 7742TIP3   OH244640   1.626   0.061   5.731 -0.1167 -0.6739 -0.0674
 7742TIP3    H144641   1.565   0.000   5.774  1.1183 -1.1256  1.1329
 7742TIP3    H244642   1.699   0.005   5.704 -0.5556 -0.2854 -2.2488
 7743TIP3   OH244643   3.167   2.850  14.574 -0.1960 -0.6325 -0.2888
 7743TIP3    H144644   3.161   2.864  14.480 -0.7512 -0.0331 -0.1652
 7743TIP3    H244645   3.195   2.934  14.610  0.3051 -0.9411  0.0543
 7744TIP3   OH244646   1.712   2.455   0.757 -0.3928 -0.1368 -0.4817
 7744TIP3    H144647   1.754   2.422   0.837  2.6927  0.8981 -1.5197
 7744TIP3    H244648   1.716   2.381   0.696  0.3764  0.0944 -0.7189
 7745TIP3   OH244649   2.220   2.066   4.096  0.6299 -0.3854 -0.2231
 7745TIP3    H144650   2.299   2.029   4.057  0.5208 -1.2476  0.3520
 7745TIP3    H244651   2.158   2.073   4.022  1.4111  0.8300 -0.7897
 7746TIP3   OH244652   1.252   3.472   0.691  0.5884 -0.2675 -0.0154
 7746TIP3    H144653   1.345   3.453   0.692  0.6096 -0.6559 -2.9120
 7746TIP3    H244654   1.211   3.391   0.662 -0.5187  0.3695 -0.2797
 7747TIP3   OH244655   6.389   3.975  14.745 -0.1155 -0.3040  0.8018
 7747TIP3    H144656   6.429   3.977  14.832 -1.0097 -2.6945  1.3484
 7747TIP3    H244657   6.460   3.948  14.686  0.0970 -0.3209  1.0657
 7748TIP3   OH244658   1.530   2.591  14.401  0.4873 -0.0479 -0.2842
 7748TIP3    H144659   1.471   2.666  14.387  0.4950  0.6494  2.6444
 7748TIP3    H244660   1.485   2.517  14.360 -2.0259  0.6670  0.9650
 7749TIP3   OH244661   6.038   5.119   0.572 -0.2082  0.0144  0.1834
 7749TIP3    H144662   6.074   5.086   0.654  0.6100  1.6917  0.5530
 7749TIP3    H244663   6.024   5.213   0.588 -1.8158  0.0153 -0.9960
 7750TIP3   OH244664   2.094   5.470  14.552 -0.2165  0.8597 -0.2508
 7750TIP3    H144665   2.050   5.546  14.590 -1.5376  0.3869 -0.7848
 7750TIP3    H244666   2.054   5.395  14.596  0.3446  0.4307 -0.4635
 7751TIP3   OH244667   2.846   6.713   2.384 -0.4571  0.6430 -0.2020
 7751TIP3    H144668   2.832   6.748   2.296 -1.4746 -1.0226 -0.7367
 7751TIP3    H244669   2.886   6.628   2.370 -0.7417  0.3062  0.9402
 7752TIP3   OH244670   0.067   3.093   4.849  0.4473  0.0828  0.0871
 7752TIP3    H144671   0.131   3.151   4.890  2.2222 -1.0501 -0.9516
 7752TIP3    H244672   0.118   3.017   4.823 -1.2287 -0.6032 -1.3309
 7753TIP3   OH244673   0.075   2.966  16.369  0.0055 -0.0425  0.2668
 7753TIP3    H144674   0.154   3.020  16.373 -0.0637  0.1326 -0.4625
 7753TIP3    H244675   0.099   2.884  16.411  0.9588 -0.4446 -1.0022
 7754TIP3   OH244676   2.835   1.410   2.527 -0.4480  0.3794 -0.3392
 7754TIP3    H144677   2.767   1.345   2.507  1.1673 -2.2308  1.9342
 7754TIP3    H244678   2.802   1.456   2.604 -0.4640  0.4171 -0.3689
 7755TIP3   OH244679   5.555   4.500  11.793  0.0951  0.5628 -0.4559
 7755TIP3    H144680   5.634   4.531  11.747  0.1625 -0.8461 -1.3478
 7755TIP3    H244681   5.578   4.412  11.822 -0.8602  0.4768  0.0400
 7756TIP3   OH244682   3.380   1.283  14.253  0.0872  0.5729  0.5682
 7756TIP3    H144683   3.455   1.239  14.213  1.4889  1.5272  2.0036
 7756TIP3    H244684   3.320   1.213  14.275  1.6154 -0.5085  1.5071
 7757TIP3   OH244685   3.309   5.431  15.590 -0.2329 -0.3035 -0.2807
 7757TIP3    H144686   3.233   5.383  15.622 -0.3422  0.5633  0.8444
 7757TIP3    H244687   3.358   5.368  15.537  0.0967 -1.9328  1.8338
 7758TIP3   OH244688   3.192   2.962   3.570  1.0544  0.5389 -0.0465
 7758TIP3    H144689   3.119   3.025   3.576  0.7203  0.0869  0.8330
 7758TIP3    H244690   3.261   3.001   3.624  0.4971 -0.2816  1.3225
 7759TIP3   OH244691   1.959   2.410  16.914  0.0351 -0.5298  0.3797
 7759TIP3    H144692   1.979   2.334  16.969 -1.1284 -0.8186  0.4371
 7759TIP3    H244693   2.036   2.420  16.858  0.6359 -1.1210  1.0763
 7760TIP3   OH244694   6.586   6.594  15.029  0.1608  0.0733  0.1333
 7760TIP3    H144695   6.670   6.613  14.986  0.3267  1.8520  1.1649
 7760TIP3    H244696   6.587   6.499  15.041  0.4289 -0.4229 -3.0297
 7761TIP3   OH244697   6.156   3.866   0.693  0.3257  0.2561  0.0177
 7761TIP3    H144698   6.109   3.895   0.615  1.0813 -1.8493 -1.3231
 7761TIP3    H244699   6.248   3.877   0.670  0.6163 -1.9936 -0.1613
 7762TIP3   OH244700   0.221   0.952   0.964  0.8281 -0.1143  0.3678
 7762TIP3    H144701   0.165   0.984   0.893  0.4739 -0.3700  0.5263
 7762TIP3    H244702   0.177   0.983   1.044  0.6825 -0.6779  0.5074
 7763TIP3   OH244703   3.983   4.248  16.308  0.1567 -0.1880  0.4637
 7763TIP3    H144704   3.993   4.154  16.296 -0.5905 -0.2101 -0.0477
 7763TIP3    H244705   3.974   4.260  16.402 -1.0088 -0.7564  0.4332
 7764TIP3   OH244706   1.156   4.707  16.658  0.3187  0.2708 -0.2939
 7764TIP3    H144707   1.177   4.657  16.737  1.5782  0.6621 -0.3594
 7764TIP3    H244708   1.061   4.719  16.662  0.2212 -0.6504  0.5947
 7765TIP3   OH244709   6.612   2.153  12.493  0.3095 -0.3010 -0.1231
 7765TIP3    H144710   6.619   2.073  12.441  0.3792 -0.8208  0.6771
 7765TIP3    H244711   6.681   2.209  12.460  2.4020 -1.8114  1.4365
 7766TIP3   OH244712   2.701   1.602  11.888  0.1266 -0.0508 -0.0771
 7766TIP3    H144713   2.713   1.647  11.971  0.9711  0.5623 -0.5166
 7766TIP3    H244714   2.720   1.510  11.907 -0.9545 -0.1339  0.6726
 7767TIP3   OH244715   0.503   6.558   2.853  0.3776  0.2182 -0.1425
 7767TIP3    H144716   0.527   6.590   2.766  0.2855 -0.8265 -0.5738
 7767TIP3    H244717   0.407   6.566   2.855  0.2615 -0.8550 -0.6138
 7768TIP3   OH244718   5.182   1.205  16.139  0.1861  1.0137 -0.5346
 7768TIP3    H144719   5.249   1.182  16.075 -1.2277  0.3464 -1.8412
 7768TIP3    H244720   5.121   1.130  16.138 -0.7108  1.7047  0.4020
 7769TIP3   OH244721   2.409   6.466   5.172 -0.6559  0.2586  0.6328
 7769TIP3    H144722   2.455   6.494   5.251 -0.9432 -2.2096  1.7614
 7769TIP3    H244723   2.317   6.486   5.188 -0.7557 -0.5193  1.1026
 7770TIP3   OH244724   4.939   0.985  15.130 -0.1183  0.3884 -0.1860
 7770TIP3    H144725   4.892   0.943  15.058  2.2437 -1.4504 -0.8058
 7770TIP3    H244726   4.988   0.914  15.171  0.0573  1.7339  2.0750
 7771TIP3   OH244727   4.312   6.487   2.170 -0.1959  0.9546 -0.1818
 7771TIP3    H144728   4.357   6.552   2.224  1.4785 -0.1860 -0.1441
 7771TIP3    H244729   4.330   6.514   2.080  0.2381  0.7164 -0.1665
 7772TIP3   OH244730   0.351   4.595  15.000  0.6802 -0.0339  0.1170
 7772TIP3    H144731   0.407   4.621  14.927 -0.1200  0.4349 -0.3529
 7772TIP3    H244732   0.329   4.677  15.044 -0.1279 -0.1355 -0.0792
 7773TIP3   OH244733   1.367   0.783   1.568  0.2229 -0.0250 -0.3133
 7773TIP3    H144734   1.292   0.758   1.621  0.2094 -0.0269 -0.3335
 7773TIP3    H244735   1.359   0.878   1.559 -0.8432 -0.2436 -1.9502
 7774TIP3   OH244736   1.955   0.152  16.140  0.0636  0.5121 -0.4708
 7774TIP3    H144737   2.038   0.187  16.106  0.3463  1.1306  0.8012
 7774TIP3    H244738   1.898   0.228  16.146 -1.0628 -0.0970 -2.5198
 7775TIP3   OH244739   4.004   1.912   3.022 -0.4996 -0.0257  0.0950
 7775TIP3    H144740   4.028   2.004   3.011  0.7127 -0.4010 -0.5989
 7775TIP3    H244741   3.913   1.908   2.995 -0.1067  0.7008 -1.4547
 7776TIP3   OH244742   5.221   0.564   4.488 -0.3084 -0.2328  0.1828
 7776TIP3    H144743   5.226   0.549   4.582  1.0832  0.1240  0.2017
 7776TIP3    H244744   5.294   0.513   4.452 -1.5285 -1.3204 -0.8522
 7777TIP3   OH244745   1.977   0.167  11.241 -0.7020 -0.1104 -0.5829
 7777TIP3    H144746   2.043   0.235  11.228  0.4238 -1.1417 -0.4430
 7777TIP3    H244747   1.961   0.133  11.153 -1.5613  0.5760 -0.7075
 7778TIP3   OH244748   3.132   3.412   1.735  0.1893 -0.7300 -0.5650
 7778TIP3    H144749   3.150   3.471   1.808  0.3839 -0.9422 -0.4431
 7778TIP3    H244750   3.213   3.363   1.722 -0.0129 -1.0643 -0.5815
 7779TIP3   OH244751   5.658   3.405  16.928  0.2573  0.2025 -0.3269
 7779TIP3    H144752   5.617   3.319  16.916  0.2568  0.1930 -0.2548
 7779TIP3    H244753   5.645   3.449  16.843 -0.2663  0.3513 -0.1764
 7780TIP3   OH244754   4.894   5.074   2.528  0.0715 -0.6736  0.2079
 7780TIP3    H144755   4.886   5.076   2.433 -2.8950  1.0271  0.3880
 7780TIP3    H244756   4.807   5.097   2.560  1.5436  1.1882  3.3230
 7781TIP3   OH244757   6.250   0.586  12.140 -0.1578  0.1164 -0.2900
 7781TIP3    H144758   6.183   0.519  12.156 -1.1563  1.2847  0.6376
 7781TIP3    H244759   6.211   0.667  12.172  1.2303  1.0637 -0.8926
 7782TIP3   OH244760   1.572   2.472   2.891  0.0896 -0.1570  0.0301
 7782TIP3    H144761   1.492   2.517   2.916 -0.3039 -0.9093  0.1241
 7782TIP3    H244762   1.601   2.428   2.970 -0.8033 -2.0004 -0.6111
 7783TIP3   OH244763   5.894   2.227  15.057 -0.3091 -0.1888  0.5070
 7783TIP3    H144764   5.872   2.139  15.028 -0.0603  0.2670 -1.1263
 7783TIP3    H244765   5.987   2.222  15.079 -0.2812 -0.3104  0.3582
 7784TIP3   OH244766   5.335   6.684  14.668  0.6208  0.2645 -0.8768
 7784TIP3    H144767   5.348   6.605  14.617 -0.9234 -1.3150  0.9995
 7784TIP3    H244768   5.421   6.706  14.701  0.9540 -1.1799 -0.7135
 7785TIP3   OH244769   2.254   4.269  11.753 -0.1144  0.1567 -0.7420
 7785TIP3    H144770   2.250   4.241  11.661 -0.2213 -0.0176 -0.6850
 7785TIP3    H244771   2.263   4.187  11.802 -0.2843  0.2348 -0.5818
 7786TIP3   OH244772   2.516   1.182  11.620  0.3417 -0.1681 -0.4121
 7786TIP3    H144773   2.552   1.128  11.550  1.6107 -0.2273  0.2737
 7786TIP3    H244774   2.576   1.255  11.628  0.4156 -0.3483  0.8632
 7787TIP3   OH244775   0.375   5.866   3.104  0.4813  0.2164 -0.1434
 7787TIP3    H144776   0.427   5.815   3.165 -1.2987 -0.0393  1.2478
 7787TIP3    H244777   0.403   5.957   3.117  0.3949  0.1147  0.7924
 7788TIP3   OH244778   1.281   3.962  14.207  0.2456  0.3000 -0.1781
 7788TIP3    H144779   1.260   3.919  14.290 -0.0483 -1.1708 -0.9793
 7788TIP3    H244780   1.375   3.950  14.197  0.1250 -0.4290 -0.5245
 7789TIP3   OH244781   2.673   0.724   3.109  0.7878 -0.2559  0.2706
 7789TIP3    H144782   2.717   0.767   3.036  0.0546 -1.3986 -0.8755
 7789TIP3    H244783   2.591   0.772   3.119  1.6952  1.1199  1.6411
 7790TIP3   OH244784   2.063   1.982  14.387  0.3431  0.0307 -0.0754
 7790TIP3    H144785   2.035   1.926  14.315  0.7594 -0.2711 -0.0101
 7790TIP3    H244786   2.059   2.071  14.351 -0.2911 -0.0453 -0.1891
 7791TIP3   OH244787   0.925   4.631   0.069 -0.2690 -0.0660  0.4269
 7791TIP3    H144788   0.873   4.593   0.140 -0.3380  1.6340  1.3547
 7791TIP3    H244789   1.014   4.600   0.085 -0.3313  0.0854  1.1181
 7792TIP3   OH244790   5.971   1.262  13.325 -0.0869  0.9730 -0.3605
 7792TIP3    H144791   5.923   1.327  13.273 -0.8123  0.1752 -0.7224
 7792TIP3    H244792   6.060   1.296  13.330 -0.6417  2.4275  0.2005
 7793TIP3   OH244793   2.433   4.575  14.165  0.1220 -0.4227 -0.1859
 7793TIP3    H144794   2.423   4.482  14.143 -0.8218 -0.3816  0.0324
 7793TIP3    H244795   2.345   4.603  14.190  0.1835  0.8049 -1.2816
 7794TIP3   OH244796   2.703   0.998   0.902  0.1013  0.2771  0.0641
 7794TIP3    H144797   2.697   0.996   0.807 -1.1896 -0.3947  0.1296
 7794TIP3    H244798   2.768   0.932   0.924  0.1099  0.1494 -0.3405
 7795TIP3   OH244799   2.628   3.742   5.932 -0.1308  0.3471  0.4040
 7795TIP3    H144800   2.552   3.686   5.945 -0.0296  0.1432  0.1300
 7795TIP3    H244801   2.702   3.690   5.965 -0.0597  0.3910  0.3157
 7796TIP3   OH244802   1.572   0.634  15.902 -0.0876  0.2509 -0.4240
 7796TIP3    H144803   1.516   0.623  15.825  0.4272  0.6616 -0.8612
 7796TIP3    H244804   1.511   0.638  15.975 -0.7135  1.7046 -0.9814
 7797TIP3   OH244805   3.353   0.016  14.023 -0.1332  0.3570 -0.4898
 7797TIP3    H144806   3.366  -0.062  13.969  2.1667 -0.1201  0.6028
 7797TIP3    H244807   3.273  -0.002  14.072 -0.1766 -0.8967 -0.9828
 7798TIP3   OH244808   0.553   4.990  15.705  0.1073  0.0639  0.2347
 7798TIP3    H144809   0.641   4.980  15.740 -0.1010  1.3650  1.2345
 7798TIP3    H244810   0.554   4.942  15.623  0.9831 -2.1190  1.4259
 7799TIP3   OH244811   5.359   2.574   0.300  0.2557 -0.6047  0.1577
 7799TIP3    H144812   5.285   2.514   0.311  2.2990 -3.3473 -0.2019
 7799TIP3    H244813   5.415   2.531   0.236  1.2179  2.3983 -1.1583
 7800TIP3   OH244814   2.453   6.249  13.285 -0.5313  0.0236 -0.1544
 7800TIP3    H144815   2.501   6.215  13.209 -0.7229  0.6527 -0.5700
 7800TIP3    H244816   2.434   6.172  13.338  0.8719 -0.2609 -0.0151
 7801TIP3   OH244817   4.914   6.670  14.829  0.0288 -0.7871 -0.6772
 7801TIP3    H144818   4.916   6.604  14.898  0.4902  1.5531  1.7297
 7801TIP3    H244819   4.821   6.682  14.810 -0.3474  0.2620  1.4556
 7802TIP3   OH244820   2.221   6.180  13.167  0.2935 -0.3301  0.5937
 7802TIP3    H144821   2.250   6.268  13.191  0.0588 -0.6001  1.9384
 7802TIP3    H244822   2.196   6.140  13.250 -0.5909 -1.3127 -0.1240
 7803TIP3   OH244823   6.226   0.302  16.670 -0.2978 -0.2777  0.4530
 7803TIP3    H144824   6.265   0.220  16.699 -0.4307 -0.8871 -0.9853
 7803TIP3    H244825   6.280   0.370  16.711 -1.0995 -1.0274  2.8599
 7804TIP3   OH244826   5.662   2.147   2.136  0.1051  0.5515  0.1062
 7804TIP3    H144827   5.668   2.190   2.051 -0.1986  3.2459  1.3112
 7804TIP3    H244828   5.687   2.056   2.120  0.2947  1.0275 -2.7705
 7805TIP3   OH244829   4.982   1.233   5.861  0.1370 -0.1728  0.2857
 7805TIP3    H144830   5.021   1.302   5.807 -1.7446  0.8379  0.1274
 7805TIP3    H244831   5.010   1.253   5.950 -0.2776  0.7485  0.2224
 7806TIP3   OH244832   3.965   0.787  15.168  0.0625  0.3765 -0.5411
 7806TIP3    H144833   3.989   0.698  15.191 -0.0279  0.5224  0.1160
 7806TIP3    H244834   4.009   0.842  15.233  0.7781  0.8713 -1.3987
 7807TIP3   OH244835   3.657   4.176   3.134 -0.5068  0.2412  0.5259
 7807TIP3    H144836   3.727   4.160   3.070 -0.7137 -0.5979  0.5014
 7807TIP3    H244837   3.701   4.173   3.219 -0.2712  1.1329  0.4457
 7808TIP3   OH244838   2.134   6.238   4.718  0.2912 -0.5422  0.0592
 7808TIP3    H144839   2.091   6.297   4.656  0.8992  0.6606  0.7360
 7808TIP3    H244840   2.068   6.224   4.787  0.2235 -0.4763  0.0077
 7809TIP3   OH244841   0.544   4.690   5.882 -0.0277  0.4975  0.7497
 7809TIP3    H144842   0.523   4.659   5.970  2.4212 -0.3772  1.0853
 7809TIP3    H244843   0.623   4.741   5.892 -0.4100  1.4470 -0.7991
 7810TIP3   OH244844   3.194   3.780   2.536  0.3148 -0.7623  0.2471
 7810TIP3    H144845   3.099   3.793   2.535  0.3362 -0.2544  1.9056
 7810TIP3    H244846   3.230   3.863   2.504  0.2164 -1.3430 -1.4869
 7811TIP3   OH244847   4.327   1.161   4.835  0.2390 -0.0447  0.1283
 7811TIP3    H144848   4.384   1.162   4.913  1.5763  0.2123 -0.8141
 7811TIP3    H244849   4.385   1.136   4.764 -1.4981 -2.8372 -0.4424
 7812TIP3   OH244850   4.300   2.540  13.735 -0.3625  0.2882  0.1665
 7812TIP3    H144851   4.205   2.547  13.747 -0.2673  1.2730  0.4053
 7812TIP3    H244852   4.337   2.574  13.817  0.1949 -1.2410  0.5764
 7813TIP3   OH244853   1.370   1.539  14.014 -0.6737 -1.1839 -0.0318
 7813TIP3    H144854   1.407   1.627  14.004  1.3775 -1.7308  1.9864
 7813TIP3    H244855   1.354   1.510  13.924  0.2892  0.5661 -0.8237
 7814TIP3   OH244856   0.456   4.544   0.600  0.7064  0.7282 -0.2680
 7814TIP3    H144857   0.476   4.579   0.513 -0.3826  0.0758 -0.7930
 7814TIP3    H244858   0.364   4.519   0.596  1.1401 -1.1912  0.4218
 7815TIP3   OH244859   2.189   3.829  10.950 -0.1380 -0.0313 -0.0475
 7815TIP3    H144860   2.171   3.920  10.974 -1.6291 -0.5956  1.1660
 7815TIP3    H244861   2.189   3.829  10.854 -1.9400  0.9574 -0.1005
 7816TIP3   OH244862   0.448   5.453  15.090 -0.0499 -0.0112  0.4604
 7816TIP3    H144863   0.362   5.411  15.093  0.1936 -0.5713 -0.3517
 7816TIP3    H244864   0.460   5.478  14.999  0.3755  0.6457  0.6902
 7817TIP3   OH244865   0.924   1.475  13.914  0.3673 -0.2065 -0.0846
 7817TIP3    H144866   0.998   1.417  13.894 -0.7641 -1.3792 -1.0240
 7817TIP3    H244867   0.896   1.448  14.002  1.1165  0.3396  0.3342
 7818TIP3   OH244868   0.025   3.691  15.478  1.0734 -0.6771 -0.3662
 7818TIP3    H144869   0.044   3.747  15.403 -0.3659 -1.0616 -1.0418
 7818TIP3    H244870   0.051   3.603  15.451  1.6708 -0.6444  0.0525
 7819TIP3   OH244871   1.877   1.422  14.788  0.6105  0.3271 -0.5719
 7819TIP3    H144872   1.833   1.377  14.716  0.3133 -0.1032 -0.1253
 7819TIP3    H244873   1.819   1.496  14.810 -0.3343 -0.7031  0.5564
 7820TIP3   OH244874   4.283   6.070   6.561  0.2932 -1.1354  0.4059
 7820TIP3    H144875   4.197   6.097   6.592 -0.0585  0.1812 -1.5590
 7820TIP3    H244876   4.264   6.010   6.488  0.9288  0.4968 -1.1967
 7821TIP3   OH244877   0.587   2.010  16.475 -0.4887  0.1311  0.1851
 7821TIP3    H144878   0.564   2.078  16.539 -0.7171  0.7755 -0.5730
 7821TIP3    H244879   0.593   1.930  16.527  0.1803  0.7917  1.1610
 7822TIP3   OH244880   2.398   4.364  12.872  0.0281 -0.1071 -0.1511
 7822TIP3    H144881   2.356   4.370  12.786 -0.3497 -1.8239 -0.1176
 7822TIP3    H244882   2.491   4.363  12.853 -0.0609 -0.8069 -0.5806
 7823TIP3   OH244883   1.107   6.558   0.204  0.5963 -0.2713 -0.3261
 7823TIP3    H144884   1.115   6.642   0.160 -0.7769  0.4904  0.7855
 7823TIP3    H244885   1.046   6.508   0.149  1.6252 -0.6729 -1.1336
 7824TIP3   OH244886   6.441   5.508   0.407 -0.0159 -0.0251  0.0241
 7824TIP3    H144887   6.426   5.559   0.327  0.1449  0.5494  0.3539
 7824TIP3    H244888   6.356   5.507   0.451  0.3447  1.3636  0.8153
 7825TIP3   OH244889   6.079   6.428  15.879 -0.0129  0.0974 -0.3776
 7825TIP3    H144890   6.140   6.426  15.806 -2.0379  2.1026 -2.2696
 7825TIP3    H244891   6.134   6.445  15.956  2.1122 -1.5680 -1.4365
 7826TIP3   OH244892   4.437   5.970   5.964 -0.1785 -0.5262  1.0564
 7826TIP3    H144893   4.345   5.995   5.954  0.2297  1.3261  1.5378
 7826TIP3    H244894   4.473   5.973   5.876  0.0832  1.7409  1.1759
 7827TIP3   OH244895   1.499   1.545  13.458 -0.2288 -0.1918 -0.4085
 7827TIP3    H144896   1.542   1.551  13.372 -2.1464 -0.8612 -1.4907
 7827TIP3    H244897   1.570   1.556  13.521  1.2269  0.5387 -2.0703
 7828TIP3   OH244898   4.411   5.825  11.936  0.6093  0.1054 -0.2259
 7828TIP3    H144899   4.429   5.736  11.905 -0.0807 -0.5391  1.1533
 7828TIP3    H244900   4.318   5.837  11.919  0.8138  0.8026 -0.9245
 7829TIP3   OH244901   3.254   0.662   4.901 -0.2689 -0.9660  0.3487
 7829TIP3    H144902   3.337   0.710   4.904  1.3383 -3.5329  2.5781
 7829TIP3    H244903   3.198   0.706   4.965 -0.6022  0.6065 -0.9574
 7830TIP3   OH244904   5.854   1.496  14.088 -0.0398 -0.1260  0.1712
 7830TIP3    H144905   5.879   1.409  14.120 -0.8965 -1.1398 -1.7814
 7830TIP3    H244906   5.760   1.490  14.071  0.3566  0.2665 -2.5728
 7831TIP3   OH244907   5.211   6.681   5.572  0.3964  0.8161 -0.1047
 7831TIP3    H144908   5.289   6.673   5.518 -0.8365  1.6039 -2.1141
 7831TIP3    H244909   5.211   6.772   5.602  0.9771  0.4325  1.1434
 7832TIP3   OH244910   1.761   1.879   2.965 -0.4980 -0.0829  0.0585
 7832TIP3    H144911   1.772   1.870   3.060  0.1881  0.9111  0.0880
 7832TIP3    H244912   1.720   1.796   2.938 -2.1422  0.2316  1.4175
 7833TIP3   OH244913   5.540   2.666  13.392 -0.4821 -0.0148  0.1078
 7833TIP3    H144914   5.498   2.602  13.335 -1.4836 -0.3874  1.2226
 7833TIP3    H244915   5.488   2.664  13.472  2.1463 -1.0607  1.8798
 7834TIP3   OH244916   4.785   6.030  17.242 -0.3264  0.2728 -0.7851
 7834TIP3    H144917   4.865   5.977  17.233 -0.7928 -0.5077 -0.4841
 7834TIP3    H244918   4.774   6.071  17.156 -0.8314 -1.4368 -1.5886
 7835TIP3   OH244919   1.085   2.521   2.840  0.2205 -0.3679  0.0830
 7835TIP3    H144920   1.087   2.433   2.803 -0.0485  0.2201 -1.3798
 7835TIP3    H244921   1.175   2.535   2.871  0.6998 -0.5557 -1.1541
 7836TIP3   OH244922   0.657   4.792  13.929 -0.3626  0.0004 -0.3966
 7836TIP3    H144923   0.582   4.852  13.937 -0.9550 -0.7113 -0.5403
 7836TIP3    H244924   0.685   4.776  14.019 -0.0338  0.6823 -0.3662
 7837TIP3   OH244925   5.164   2.000   5.500 -0.3292 -0.0339 -0.0401
 7837TIP3    H144926   5.255   2.029   5.491 -0.3302  0.3501  1.1067
 7837TIP3    H244927   5.129   2.052   5.572 -1.0143 -1.2602  0.5451
 7838TIP3   OH244928   6.557   1.652   2.269 -0.1152 -0.0136 -0.3202
 7838TIP3    H144929   6.500   1.591   2.316 -0.4586  0.2671 -0.3656
 7838TIP3    H244930   6.517   1.660   2.183  1.5105 -1.9297 -1.3278
 7839TIP3   OH244931   3.284   1.247   2.059 -0.0376 -0.4077  0.1947
 7839TIP3    H144932   3.224   1.204   1.998  0.7156 -0.1384 -0.7561
 7839TIP3    H244933   3.365   1.197   2.053  0.5991  0.6416 -0.3441
 7840TIP3   OH244934   5.581   1.495   2.647 -0.4945  0.1502 -0.0228
 7840TIP3    H144935   5.537   1.548   2.713 -0.3288 -0.6019  0.6955
 7840TIP3    H244936   5.630   1.430   2.696 -1.8460 -1.6108 -0.9051
 7841TIP3   OH244937   0.304   6.080   2.432  0.1370  0.7991  0.0007
 7841TIP3    H144938   0.360   6.097   2.356  0.1098 -0.7705 -0.4030
 7841TIP3    H244939   0.264   6.165   2.451  2.9292  2.1309  0.5689
 7842TIP3   OH244940   2.981   4.568  14.348  0.3246 -0.2470  0.4443
 7842TIP3    H144941   2.949   4.552  14.437 -0.4487 -2.3976 -0.1640
 7842TIP3    H244942   2.923   4.635  14.313  0.9276  0.9666  1.6868
 7843TIP3   OH244943   3.608   5.897   0.475 -0.2433 -0.6140  0.1305
 7843TIP3    H144944   3.588   5.903   0.568 -0.8639  0.1160 -0.0426
 7843TIP3    H244945   3.703   5.910   0.470 -0.1502 -1.0546  0.6889
 7844TIP3   OH244946   0.484   1.971  15.940  0.3861  0.2589 -0.0825
 7844TIP3    H144947   0.544   1.996  15.870 -0.0039 -0.8743 -0.8569
 7844TIP3    H244948   0.537   1.975  16.020  1.3899 -0.2977 -0.6947
 7845TIP3   OH244949   5.879   1.821  13.014 -0.3763  0.5353  0.0137
 7845TIP3    H144950   5.797   1.848  13.056 -0.6229  1.6794 -1.1534
 7845TIP3    H244951   5.944   1.828  13.084 -1.0520  0.7987  0.6377
 7846TIP3   OH244952   1.581   4.482  14.677  0.5976 -0.5252  0.5562
 7846TIP3    H144953   1.613   4.571  14.694 -1.1270  0.1709  0.3702
 7846TIP3    H244954   1.610   4.463  14.587  1.0160 -0.1798  0.6135
 7847TIP3   OH244955   3.563   2.326   4.908  0.0598  0.0474 -0.6811
 7847TIP3    H144956   3.572   2.332   5.003  0.0369 -1.6304 -0.5542
 7847TIP3    H244957   3.626   2.260   4.881  0.1933  0.6344 -1.8713
 7848TIP3   OH244958   2.682   1.455   0.691  0.0127  0.5888  0.3938
 7848TIP3    H144959   2.704   1.444   0.784 -0.5824  1.3755  0.6310
 7848TIP3    H244960   2.695   1.368   0.654 -2.0703 -0.3643  1.7113
 7849TIP3   OH244961   3.655   4.666  13.872  0.4091  0.1039  0.0094
 7849TIP3    H144962   3.651   4.613  13.793 -1.2925 -0.6355  0.5491
 7849TIP3    H244963   3.740   4.710  13.868 -0.0848  0.9566 -2.7775
 7850TIP3   OH244964   1.936   5.548  16.234  0.2485 -0.1571 -0.2275
 7850TIP3    H144965   2.019   5.595  16.225 -0.1754  0.9065  1.0889
 7850TIP3    H244966   1.875   5.597  16.179  0.3525 -0.6112 -0.7560
 7851TIP3   OH244967   4.600   2.018  17.112 -0.4379 -0.3353  0.5884
 7851TIP3    H144968   4.650   2.098  17.095  0.5951 -0.9038  0.8803
 7851TIP3    H244969   4.585   2.018  17.207 -0.8633 -0.2430  0.5224
 7852TIP3   OH244970   1.647   4.753   5.194 -0.6484  0.4370  0.0283
 7852TIP3    H144971   1.639   4.694   5.118 -1.2525 -0.4831  0.7809
 7852TIP3    H244972   1.685   4.698   5.263 -0.7111  1.0804  0.5807
 7853TIP3   OH244973   2.501   4.604   4.475 -0.7221 -0.0776  0.1417
 7853TIP3    H144974   2.512   4.510   4.467 -1.9560 -0.1767 -0.6583
 7853TIP3    H244975   2.496   4.620   4.570 -0.0086 -0.7357  0.2946
 7854TIP3   OH244976   5.535   0.775  13.316 -0.1172 -0.1918  0.2814
 7854TIP3    H144977   5.550   0.859  13.361 -0.2011  0.0668 -0.1669
 7854TIP3    H244978   5.592   0.779  13.239  0.9061 -1.1244  0.9589
 7855TIP3   OH244979   1.096   2.062   1.067 -0.1812 -0.2620  0.1836
 7855TIP3    H144980   1.099   2.155   1.047 -0.7089 -0.3161 -0.1582
 7855TIP3    H244981   1.172   2.047   1.124 -0.0531  0.3567  0.1782
 7856TIP3   OH244982   1.872   3.446   6.126 -0.2168 -0.4471  0.3913
 7856TIP3    H144983   1.883   3.511   6.196  0.2657 -0.5789  0.4436
 7856TIP3    H244984   1.928   3.372   6.153  1.3158  0.1589 -0.9448
 7857TIP3   OH244985   5.309   5.421   3.120  0.0730  0.8695 -0.6591
 7857TIP3    H144986   5.357   5.501   3.095  0.6207  0.4083 -1.1090
 7857TIP3    H244987   5.224   5.429   3.076  0.1429  1.1845 -0.7386
 7858TIP3   OH244988   1.939   3.771   6.166  0.9116 -0.0671  0.5679
 7858TIP3    H144989   1.888   3.728   6.235 -0.3705 -0.4248 -0.5552
 7858TIP3    H244990   2.008   3.707   6.144 -1.5631 -2.2023 -1.7863
 7859TIP3   OH244991   4.093   6.351  12.374 -0.0019 -0.1202  0.1203
 7859TIP3    H144992   4.133   6.267  12.395 -1.1961 -0.5962  0.6099
 7859TIP3    H244993   4.154   6.417  12.410  0.2618 -0.8142  0.9859
 7860TIP3   OH244994   2.902   6.013  12.900  0.2423  0.1033  0.5447
 7860TIP3    H144995   2.897   6.107  12.916  1.8050  0.3691 -0.4066
 7860TIP3    H244996   2.984   6.000  12.853 -0.3830 -1.6311 -0.1542
 7861TIP3   OH244997   1.510   5.052   0.422 -0.0750  0.3714 -0.6711
 7861TIP3    H144998   1.493   5.146   0.430  0.1559  0.3048  0.7941
 7861TIP3    H244999   1.424   5.012   0.412 -0.4822  0.4788  1.8684
 7862TIP3   OH245000   1.767   4.707  14.249  0.4715 -0.0937 -0.3787
 7862TIP3    H145001   1.708   4.782  14.240  2.8775  2.0256  0.5725
 7862TIP3    H245002   1.750   4.674  14.338 -1.6277 -1.7444 -1.2894
 7863TIP3   OH245003   4.313   2.893  12.132 -0.6829 -0.2161  0.0784
 7863TIP3    H145004   4.304   2.986  12.154 -1.4528 -0.9053  3.0957
 7863TIP3    H245005   4.275   2.886  12.044 -0.8611  2.2513 -0.1215
 7864TIP3   OH245006   0.612   5.466   3.701 -0.1744  0.6727  0.1250
 7864TIP3    H145007   0.562   5.404   3.648 -1.5360  1.2262  0.7124
 7864TIP3    H245008   0.633   5.537   3.640  0.3191  0.2198 -0.2412
 7865TIP3   OH245009   3.976   1.535  17.217  0.2390  0.0144 -0.6883
 7865TIP3    H145010   3.992   1.441  17.221  2.2668  0.2670 -1.2948
 7865TIP3    H245011   4.044   1.573  17.273  0.6042  1.1826 -1.8656
 7866TIP3   OH245012   6.016   6.775  14.569 -0.3675  0.3629 -0.2273
 7866TIP3    H145013   5.980   6.852  14.614  0.4852  0.6590 -0.0222
 7866TIP3    H245014   5.989   6.785  14.478 -0.6100  0.6967 -0.1198
 7867TIP3   OH245015   6.622   6.615   6.535 -0.0222 -0.4416  0.2488
 7867TIP3    H145016   6.543   6.575   6.571 -0.6116 -1.1299 -1.6763
 7867TIP3    H245017   6.685   6.616   6.607 -1.2494 -1.3839  1.3603
 7868TIP3   OH245018   6.680   1.392   4.312  0.6211 -0.4201 -0.0341
 7868TIP3    H145019   6.683   1.333   4.387  1.6660  1.8518  1.8540
 7868TIP3    H245020   6.741   1.353   4.249 -0.8273 -2.7760 -0.1023
 7869TIP3   OH245021   2.080   5.688   3.501 -0.2524  0.4343  0.3830
 7869TIP3    H145022   2.016   5.709   3.433 -0.2252 -0.8595 -0.0720
 7869TIP3    H245023   2.047   5.608   3.541  1.0414 -0.2164  0.1932
 7870TIP3   OH245024   2.349   2.253   1.387  0.8351 -0.0732 -0.2015
 7870TIP3    H145025   2.433   2.208   1.385  1.1207  0.4367  0.2296
 7870TIP3    H245026   2.362   2.327   1.446 -0.7429 -1.6667  2.3067
 7871TIP3   OH245027   3.044   0.312   3.512  0.0700 -0.3043 -0.4884
 7871TIP3    H145028   3.051   0.286   3.420 -0.0082  0.7413 -0.7987
 7871TIP3    H245029   2.951   0.307   3.532  0.2032 -1.6307 -0.1244
 7872TIP3   OH245030   0.139   3.916   3.608  0.5404  0.0823 -1.0427
 7872TIP3    H145031   0.148   4.006   3.577 -0.2839  0.2004 -0.9544
 7872TIP3    H245032   0.177   3.863   3.539  2.6352  0.5810 -0.3409
 7873TIP3   OH245033   3.979   6.273   0.115 -0.6973  0.2038 -0.0209
 7873TIP3    H145034   4.066   6.238   0.131 -0.1436  1.5315 -0.0072
 7873TIP3    H245035   3.994   6.350   0.059 -2.0067 -0.5365 -1.4777
 7874TIP3   OH245036   4.444   0.673  11.346 -0.2325 -0.1013  0.3871
 7874TIP3    H145037   4.419   0.592  11.301 -0.8262  0.3785 -0.1760
 7874TIP3    H245038   4.438   0.653  11.439 -1.7599 -0.3055  0.2628
 7875TIP3   OH245039   4.392   1.818  13.562  0.6531 -0.5273  0.1531
 7875TIP3    H145040   4.314   1.873  13.569  0.8313 -0.3173  0.5322
 7875TIP3    H245041   4.360   1.736  13.527 -0.0589 -1.0760  1.9448
 7876TIP3   OH245042   1.082   0.112  12.633  0.0205  0.3232 -0.6445
 7876TIP3    H145043   1.135   0.037  12.605 -1.1377 -0.3378 -1.1356
 7876TIP3    H245044   1.023   0.129  12.560 -0.9540  0.5504  0.1710
 7877TIP3   OH245045   0.488   6.337   4.197  0.4960 -0.3583  0.2038
 7877TIP3    H145046   0.511   6.324   4.105 -1.3118 -0.3792 -0.2726
 7877TIP3    H245047   0.393   6.330   4.199  0.3063  1.8399  1.7016
 7878TIP3   OH245048   6.295   1.196  11.935  0.1847  0.4989  0.2618
 7878TIP3    H145049   6.216   1.194  11.989  0.3845 -0.9002  0.5222
 7878TIP3    H245050   6.308   1.106  11.907  1.5555  0.7490  0.0180
 7879TIP3   OH245051   0.311   0.604  15.353 -0.0016 -0.1759  0.0733
 7879TIP3    H145052   0.238   0.576  15.409  1.4368  0.6789  2.5574
 7879TIP3    H245053   0.368   0.655  15.411  1.4126  1.2032 -2.3362
 7880TIP3   OH245054   2.040   2.474  14.462  0.2577 -0.1784 -0.3764
 7880TIP3    H145055   1.989   2.520  14.528  0.3030  0.5712 -0.8500
 7880TIP3    H245056   2.066   2.542  14.399 -0.2327 -0.9467 -1.4486
 7881TIP3   OH245057   2.273   2.448  15.534  0.2628 -0.1508 -0.3952
 7881TIP3    H145058   2.346   2.413  15.483 -0.9311  0.5688 -2.7250
 7881TIP3    H245059   2.209   2.476  15.468 -1.4037  0.7860  1.5286
 7882TIP3   OH245060   2.800   0.260  14.936  0.0902  0.3505 -0.0616
 7882TIP3    H145061   2.801   0.164  14.941 -0.2500  0.2925 -0.9477
 7882TIP3    H245062   2.850   0.280  14.856  2.1526  1.0261  1.3252
 7883TIP3   OH245063   2.493   5.000  16.763  0.1593  0.3756  0.1537
 7883TIP3    H145064   2.454   4.913  16.752  2.6858 -0.9302  0.8404
 7883TIP3    H245065   2.508   5.030  16.673 -1.3042  0.4182 -0.1007
 7884TIP3   OH245066   5.714   3.941  13.526 -0.3211 -0.1460 -0.0824
 7884TIP3    H145067   5.662   3.867  13.557  0.6961 -0.8514  0.0188
 7884TIP3    H245068   5.794   3.938  13.580  0.1488  0.4460 -0.7279
 7885TIP3   OH245069   4.842   3.518   4.406  0.3780  0.4640 -1.2502
 7885TIP3    H145070   4.793   3.598   4.422 -0.2706 -0.2308  0.5185
 7885TIP3    H245071   4.872   3.491   4.492  0.0089 -1.5511 -1.7008
 7886TIP3   OH245072   4.889   6.350   1.802 -0.2721 -0.1309 -0.4985
 7886TIP3    H145073   4.908   6.256   1.792 -0.0808 -0.1842  0.3079
 7886TIP3    H245074   4.936   6.376   1.880  0.5862  0.9120 -1.3292
 7887TIP3   OH245075   0.592   2.618  17.054  0.6292 -0.2891 -0.0194
 7887TIP3    H145076   0.586   2.618  16.958  0.3747 -0.0443 -0.0054
 7887TIP3    H245077   0.504   2.592  17.083  0.7865 -0.6475  0.1467
 7888TIP3   OH245078   4.501   2.901   4.240 -0.2832 -0.2371 -0.0685
 7888TIP3    H145079   4.461   2.857   4.315 -0.8985  1.0470  0.3850
 7888TIP3    H245080   4.450   2.871   4.164 -1.5956  0.7350  0.4024
 7889TIP3   OH245081   1.009   1.983   5.080 -0.3056  0.4525 -0.5140
 7889TIP3    H145082   1.048   2.042   5.144  0.5061  0.6095 -1.1361
 7889TIP3    H245083   1.083   1.946   5.032 -0.8817  0.1487 -1.1984
 7890TIP3   OH245084   5.505   0.579  12.279 -0.3336 -0.1309 -0.2815
 7890TIP3    H145085   5.494   0.641  12.351 -0.8225 -0.3907 -0.1280
 7890TIP3    H245086   5.586   0.532  12.300 -0.4384 -0.1589  0.0711
 7891TIP3   OH245087   5.645   4.793  12.112  0.3116  0.1523  0.0477
 7891TIP3    H145088   5.615   4.829  12.029  0.0001 -1.6921 -0.6747
 7891TIP3    H245089   5.587   4.718  12.128  1.5578 -0.6494  0.9752
 7892TIP3   OH245090   2.239   0.808  15.586 -0.5586  0.1914 -0.1750
 7892TIP3    H145091   2.271   0.820  15.675  1.5701  2.0781 -1.0946
 7892TIP3    H245092   2.280   0.727  15.556  1.3248  1.1693 -0.4156
 7893TIP3   OH245093   2.050   5.365   1.189 -0.2718  0.2492 -0.5218
 7893TIP3    H145094   2.129   5.402   1.150 -0.2964  0.8078 -0.0575
 7893TIP3    H245095   2.015   5.306   1.122  0.5492 -0.0234 -0.7157
 7894TIP3   OH245096   5.618   4.976   2.621  0.0242  0.1272  0.0063
 7894TIP3    H145097   5.553   4.921   2.578 -0.5469  2.0193 -1.7341
 7894TIP3    H245098   5.586   5.065   2.608  2.0229  1.0071  0.7348
 7895TIP3   OH245099   1.643   1.639  16.071  0.2400 -0.3423 -0.0941
 7895TIP3    H145100   1.663   1.683  16.153  1.4593 -0.1940 -0.4576
 7895TIP3    H245101   1.550   1.659  16.055  0.1685  0.1669  0.9045
 7896TIP3   OH245102   5.456   4.363   1.498  0.3575  0.4364  0.2361
 7896TIP3    H145103   5.528   4.337   1.555 -0.4030 -1.3837  0.4419
 7896TIP3    H245104   5.380   4.367   1.557 -0.2100 -0.3075 -0.4375
 7897TIP3   OH245105   1.384   5.417   5.634 -0.2099 -0.1466  0.6290
 7897TIP3    H145106   1.407   5.440   5.544  1.6386  0.1893  1.1354
 7897TIP3    H245107   1.337   5.493   5.668 -0.0778  0.1113  0.2390
 7898TIP3   OH245108   2.243   2.676   1.830  0.6098  0.1722  0.6190
 7898TIP3    H145109   2.272   2.592   1.794  1.9752  0.5738  0.7383
 7898TIP3    H245110   2.200   2.653   1.913 -0.5841 -0.5475 -0.1742
 7899TIP3   OH245111   1.399   3.895   2.565  0.0954 -0.5504 -0.0590
 7899TIP3    H145112   1.305   3.908   2.576  0.0875  0.2594 -0.9720
 7899TIP3    H245113   1.428   3.860   2.650 -0.6863  1.1786  0.9710
 7900TIP3   OH245114   1.550   0.482   4.168 -0.4164  0.1867 -0.1961
 7900TIP3    H145115   1.497   0.561   4.176 -0.7118  0.0543 -0.8115
 7900TIP3    H245116   1.486   0.412   4.154 -0.0570  0.1354 -1.7409
 7901TIP3   OH245117   4.478   4.074   2.189 -0.7665 -0.3475 -0.2906
 7901TIP3    H145118   4.571   4.096   2.192 -1.2505  1.9006  0.0768
 7901TIP3    H245119   4.472   3.988   2.231  1.3472 -1.5300 -2.1774
 7902TIP3   OH245120   5.122   6.051   4.845 -0.0462 -0.3155 -0.2497
 7902TIP3    H145121   5.071   6.112   4.792  0.4624  0.1564 -0.2069
 7902TIP3    H245122   5.200   6.101   4.870 -0.3694 -0.4583  1.1128
 7903TIP3   OH245123   2.472   4.099  17.127  0.3324  0.0882  0.3499
 7903TIP3    H145124   2.421   4.128  17.203 -0.6863 -0.0957 -0.2394
 7903TIP3    H245125   2.412   4.109  17.053  0.7894 -1.1821 -0.2196
 7904TIP3   OH245126   0.161   6.570  11.436 -0.4478 -0.2833 -0.0944
 7904TIP3    H145127   0.065   6.566  11.430 -0.4700 -1.8521  0.9046
 7904TIP3    H245128   0.191   6.527  11.356 -0.6545 -3.5200  1.4263
 7905TIP3   OH245129   2.062   4.965   6.452  0.6018  0.7350 -0.0673
 7905TIP3    H145130   2.130   4.915   6.408  2.3520  1.4212  1.7163
 7905TIP3    H245131   1.998   4.986   6.383  1.7058 -0.7261 -1.5867
 7906TIP3   OH245132   3.720   3.601   2.816 -0.6432  0.5312  0.3670
 7906TIP3    H145133   3.632   3.566   2.807 -0.5491  0.3673  0.0414
 7906TIP3    H245134   3.714   3.689   2.779 -0.2805 -0.1080 -1.3336
 7907TIP3   OH245135   3.447   3.256   1.359  0.0797  0.3771 -0.3749
 7907TIP3    H145136   3.490   3.190   1.304 -3.0955 -3.0069  0.8118
 7907TIP3    H245137   3.491   3.249   1.444  0.5867  0.7328 -0.6058
 7908TIP3   OH245138   3.025   0.203   1.534 -0.2984 -0.4125  0.0096
 7908TIP3    H145139   3.040   0.176   1.443 -0.4879 -1.6857  0.3387
 7908TIP3    H245140   2.930   0.209   1.542 -0.2530  1.0237 -0.2217
 7909TIP3   OH245141   0.089   5.744  16.415  0.1637  0.3445  0.4488
 7909TIP3    H145142   0.147   5.763  16.488  0.2055  0.6158  0.3463
 7909TIP3    H245143   0.145   5.700  16.351  0.4000  1.1350  0.1029
 7910TIP3   OH245144   0.910   3.709  13.933 -0.1503  0.1085  0.2247
 7910TIP3    H145145   0.848   3.637  13.944 -0.1779  0.3889  2.3349
 7910TIP3    H245146   0.981   3.672  13.880 -1.2522 -0.7441 -0.7021
 7911TIP3   OH245147   4.155   0.476   1.628 -0.3670  0.1440 -0.6238
 7911TIP3    H145148   4.200   0.560   1.619 -0.4828  0.2545 -0.2064
 7911TIP3    H245149   4.225   0.412   1.640 -0.3450  0.5422  1.8048
 7912TIP3   OH245150   3.496   2.515   3.540 -0.1278 -0.2525 -0.3982
 7912TIP3    H145151   3.444   2.595   3.533  1.2156  0.6320 -0.6258
 7912TIP3    H245152   3.439   2.453   3.584 -0.5801  1.4059  1.4755
 7913TIP3   OH245153   2.807   2.815   0.092 -0.5184  0.0520  0.0706
 7913TIP3    H145154   2.784   2.885   0.153 -1.4049 -0.4706  0.3609
 7913TIP3    H245155   2.893   2.784   0.122  1.1557  2.6605 -1.5927
 7914TIP3   OH245156   0.196   2.606   6.385  0.2778 -0.0893  0.3986
 7914TIP3    H145157   0.203   2.691   6.342  3.3362  0.7262  2.2152
 7914TIP3    H245158   0.164   2.627   6.473 -2.0950 -1.2754 -0.1013
 7915TIP3   OH245159   2.974   2.299   4.927 -0.9604  0.2357 -0.0136
 7915TIP3    H145160   2.888   2.291   4.885  0.2897  2.6432 -3.4942
 7915TIP3    H245161   3.016   2.215   4.911 -2.0336 -0.3721  0.2268
 7916TIP3   OH245162   0.070   5.800  14.897 -0.0257 -0.4157  0.4899
 7916TIP3    H145163  -0.000   5.759  14.846  0.5367  0.7115 -1.2917
 7916TIP3    H245164   0.144   5.740  14.889  0.6203  0.5756 -1.6356
 7917TIP3   OH245165   0.668   2.204   2.047 -0.1572 -0.5450  0.2291
 7917TIP3    H145166   0.718   2.196   2.129 -1.4024 -1.4352  0.9510
 7917TIP3    H245167   0.725   2.165   1.980  1.7745  2.0806  0.2118
 7918TIP3   OH245168   1.700   1.273   3.718 -0.0283 -0.0068 -0.2574
 7918TIP3    H145169   1.627   1.212   3.700 -0.0757 -0.1099  0.2647
 7918TIP3    H245170   1.692   1.340   3.650 -1.7194  0.9827  0.8309
 7919TIP3   OH245171   2.649   2.056   3.135 -0.1368  0.5714 -0.5318
 7919TIP3    H145172   2.658   2.050   3.230  0.1094  1.6574 -0.4790
 7919TIP3    H245173   2.739   2.060   3.103 -0.2290  0.4940 -0.7985
 7920TIP3   OH245174   5.877   0.580  14.295  0.3487 -0.1696 -0.2957
 7920TIP3    H145175   5.932   0.633  14.354  1.2652  0.8278 -1.9717
 7920TIP3    H245176   5.924   0.497  14.288  0.7957  0.0854 -0.4225
 7921TIP3   OH245177   5.372   4.620  14.992 -0.1305 -0.3791 -0.5142
 7921TIP3    H145178   5.465   4.632  15.012 -0.4756 -0.8151  1.5636
 7921TIP3    H245179   5.343   4.705  14.959  0.2755  0.8937  2.1098
 7922TIP3   OH245180   4.989   0.300  11.526  0.1799  0.3790 -0.3284
 7922TIP3    H145181   5.007   0.262  11.439 -0.1637 -1.8395  0.5001
 7922TIP3    H245182   5.073   0.298  11.571 -0.0806 -0.7202  0.1594
 7923TIP3   OH245183   6.692   1.599  11.829 -0.2814  0.2843 -0.3513
 7923TIP3    H145184   6.649   1.684  11.839  0.6832  0.5841  2.0099
 7923TIP3    H245185   6.757   1.597  11.899  1.7348 -1.2339 -2.1285
 7924TIP3   OH245186   4.902   5.578  11.478 -0.0672  0.3331  0.4699
 7924TIP3    H145187   4.943   5.638  11.416 -0.3232  0.5311  0.4893
 7924TIP3    H245188   4.911   5.621  11.563 -0.1997  0.3198  0.4921
 7925TIP3   OH245189   0.740   6.213  13.644  1.0371 -0.2432 -0.1491
 7925TIP3    H145190   0.800   6.139  13.651  0.8870 -0.1791  2.8005
 7925TIP3    H245191   0.663   6.187  13.694 -1.0994  0.0777 -3.0090
 7926TIP3   OH245192   6.167   4.589  14.221  0.3234 -0.2071 -0.1262
 7926TIP3    H145193   6.200   4.505  14.252  1.1788  0.5703  1.1604
 7926TIP3    H245194   6.234   4.653  14.247 -1.0449  1.0901  0.3539
 7927TIP3   OH245195   1.685   3.575   0.808 -0.2707 -0.1125 -0.0663
 7927TIP3    H145196   1.623   3.566   0.736 -0.2914  0.5935 -0.1466
 7927TIP3    H245197   1.771   3.574   0.766 -0.2064 -1.3630  0.0720
 7928TIP3   OH245198   4.785   0.325  17.343 -0.0771 -0.0810  0.6189
 7928TIP3    H145199   4.846   0.321  17.270  0.1832 -1.6079  0.8906
 7928TIP3    H245200   4.835   0.365  17.414 -0.3665  1.5154 -0.0336
 7929TIP3   OH245201   4.851   1.686   2.482 -0.8269 -0.2358 -0.6527
 7929TIP3    H145202   4.770   1.723   2.447 -1.5217 -0.5791  0.5194
 7929TIP3    H245203   4.883   1.754   2.542  0.3926  0.3875 -1.9653
 7930TIP3   OH245204   5.316   3.576  17.157 -1.0094 -0.6987  0.6028
 7930TIP3    H145205   5.254   3.631  17.205  0.5717  0.5236  1.3703
 7930TIP3    H245206   5.341   3.508  17.220  0.4657  0.4433  1.3284
 7931TIP3   OH245207   0.287   6.009   1.053 -0.1113 -0.4881  0.3874
 7931TIP3    H145208   0.380   6.003   1.030  0.1303  1.4587  0.6648
 7931TIP3    H245209   0.245   6.045   0.975 -0.7092 -1.7260  0.1321
 7932TIP3   OH245210   4.404   5.709   6.126  0.3732 -0.4420  0.3149
 7932TIP3    H145211   4.425   5.745   6.212  0.6158  0.6814 -0.1953
 7932TIP3    H245212   4.471   5.746   6.068 -1.6674  1.4882 -0.9656
 7933TIP3   OH245213   0.318   2.524  17.008 -0.4089 -0.5966 -0.4037
 7933TIP3    H145214   0.318   2.618  16.990  0.4572 -0.1999  1.4291
 7933TIP3    H245215   0.262   2.486  16.940 -0.0415  1.1203 -1.7237
 7934TIP3   OH245216   3.864   5.746  10.282 -0.2718 -0.2144 -0.2568
 7934TIP3    H145217   3.843   5.745  10.375 -0.0616  1.4527 -0.1628
 7934TIP3    H245218   3.958   5.730  10.278 -0.4583 -1.3585 -0.2658
 7935TIP3   OH245219   1.764   0.162   4.866  0.4778  0.0655  0.2028
 7935TIP3    H145220   1.711   0.231   4.905 -0.0047 -0.2974  0.2038
 7935TIP3    H245221   1.791   0.198   4.781  0.9738  0.5949  0.5794
 7936TIP3   OH245222   4.052   2.177  14.561  0.4469 -0.0815 -0.6626
 7936TIP3    H145223   4.109   2.105  14.585  1.3404  0.3597 -1.4023
 7936TIP3    H245224   4.110   2.251  14.545 -0.4016  0.6398 -0.5434
 7937TIP3   OH245225   2.413   5.274  10.443 -0.3363  0.8670  0.6475
 7937TIP3    H145226   2.437   5.362  10.416  0.0031  0.4354 -0.4946
 7937TIP3    H245227   2.321   5.265  10.417 -0.9693  1.5251  2.4808
 7938TIP3   OH245228   0.611   6.573  15.976  0.5520 -0.3342  0.3096
 7938TIP3    H145229   0.624   6.481  15.953 -0.4809 -0.1332 -1.2418
 7938TIP3    H245230   0.593   6.616  15.892  1.0609  1.3045  0.9981
 7939TIP3   OH245231   5.621   2.240   0.131 -0.3683  0.5556  0.0002
 7939TIP3    H145232   5.675   2.318   0.144 -0.6579  0.6434  0.7638
 7939TIP3    H245233   5.544   2.255   0.187 -0.4130 -0.2879  0.1786
 7940TIP3   OH245234   6.326   6.545  11.665 -0.2613 -0.3027 -0.0881
 7940TIP3    H145235   6.350   6.547  11.572  0.4790 -2.3072  0.0084
 7940TIP3    H245236   6.401   6.584  11.710  1.0545 -2.6324 -0.1157
 7941TIP3   OH245237   0.797   4.821   5.912  0.6344  0.0298 -0.8957
 7941TIP3    H145238   0.830   4.882   5.978  3.1802 -1.2115 -0.9172
 7941TIP3    H245239   0.865   4.755   5.904 -1.8773 -2.7299 -1.0978
 7942TIP3   OH245240   2.455   5.208  13.113  0.0587  0.0509 -0.0857
 7942TIP3    H145241   2.405   5.220  13.033  0.6117 -0.4620 -0.5147
 7942TIP3    H245242   2.547   5.218  13.087  0.2778 -0.6644  0.3693
 7943TIP3   OH245243   5.772   6.176   5.837 -0.1990  0.2429 -0.4853
 7943TIP3    H145244   5.761   6.245   5.773 -0.0565 -0.1244 -0.9118
 7943TIP3    H245245   5.791   6.221   5.919  0.6202  0.6863 -0.9072
 7944TIP3   OH245246   2.376   4.143  11.368  0.0795 -0.2479  0.0843
 7944TIP3    H145247   2.387   4.147  11.273  2.0149 -0.3673  0.2477
 7944TIP3    H245248   2.314   4.072  11.382 -2.1599  1.3548 -1.1532
 7945TIP3   OH245249   3.693   2.792  14.051 -0.2066  0.4396 -0.0965
 7945TIP3    H145250   3.671   2.874  14.005 -1.9122 -0.4870 -1.0128
 7945TIP3    H245251   3.618   2.735  14.036  1.0869 -1.4326  0.2486
 7946TIP3   OH245252   4.527   4.801   5.330 -0.1841  0.3142 -0.6900
 7946TIP3    H145253   4.613   4.762   5.313  0.3975  1.4248 -0.4120
 7946TIP3    H245254   4.478   4.734   5.376  1.9664  1.0090  2.9891
 7947TIP3   OH245255   3.070   5.974   5.856 -0.1022 -0.1669 -0.4296
 7947TIP3    H145256   3.007   5.931   5.915 -0.4210  0.2979 -0.4263
 7947TIP3    H245257   3.150   5.922   5.865 -0.9988 -1.9049 -1.8461
 7948TIP3   OH245258   3.939   1.274  16.402 -0.1129 -0.2411 -0.4218
 7948TIP3    H145259   3.871   1.223  16.357 -0.4286 -0.1316 -0.0676
 7948TIP3    H245260   4.018   1.260  16.348 -0.4925 -0.0814 -1.0317
 7949TIP3   OH245261   5.390   1.671   2.047  0.6971 -0.3978 -0.0580
 7949TIP3    H145262   5.410   1.729   2.120 -0.6135 -1.7491  1.4249
 7949TIP3    H245263   5.476   1.649   2.010  1.4070  0.0487  1.2605
 7950TIP3   OH245264   1.384   4.104  14.880  0.0337  0.0754  0.4514
 7950TIP3    H145265   1.332   4.031  14.847  0.1287 -0.9619  2.5052
 7950TIP3    H245266   1.356   4.179  14.827 -0.2427 -1.3608 -1.5266
 7951TIP3   OH245267   2.693   4.299  14.422 -0.3985 -0.2050 -0.2092
 7951TIP3    H145268   2.710   4.380  14.373  0.8094  0.3158  1.0280
 7951TIP3    H245269   2.600   4.282  14.408 -0.9405  1.9976  0.3586
 7952TIP3   OH245270   0.853   2.659  11.595  0.5897 -0.2950 -0.6225
 7952TIP3    H145271   0.783   2.676  11.532 -0.2248  1.2899  0.6396
 7952TIP3    H245272   0.924   2.717  11.569  1.2105 -1.4155 -1.5015
 7953TIP3   OH245273   3.096   2.401  10.908 -0.1462  0.2599 -0.8587
 7953TIP3    H145274   3.001   2.408  10.899 -0.2756  0.3651  0.3752
 7953TIP3    H245275   3.116   2.310  10.885 -0.7273 -0.1269  0.1006
 7954TIP3   OH245276   1.129   4.757  11.888 -0.2220 -0.1722  0.3929
 7954TIP3    H145277   1.206   4.803  11.855  0.0006  0.1094  1.2773
 7954TIP3    H245278   1.095   4.709  11.813 -1.0857  2.2520 -0.8474
 7955TIP3   OH245279   1.581   3.771   6.345 -0.2796 -0.0553  0.4574
 7955TIP3    H145280   1.604   3.678   6.341  0.0981 -0.0415  1.8850
 7955TIP3    H245281   1.486   3.772   6.358  0.0374 -0.3702  3.4495
 7956TIP3   OH245282   5.975   6.153   1.738 -0.4083 -0.7378  0.1635
 7956TIP3    H145283   5.916   6.227   1.722 -0.6421 -0.9067  0.2505
 7956TIP3    H245284   5.992   6.156   1.832  0.7702  0.1057 -0.0463
 7957TIP3   OH245285   3.946   1.652   6.375 -0.3181 -0.7490  0.3231
 7957TIP3    H145286   4.009   1.586   6.405 -0.2015 -0.8534 -0.1429
 7957TIP3    H245287   3.870   1.641   6.433  0.4042 -0.0605  1.4411
 7958TIP3   OH245288   6.203   3.142  16.610 -0.3984 -0.4867  0.5849
 7958TIP3    H145289   6.254   3.086  16.669 -0.1858 -0.9846 -0.0666
 7958TIP3    H245290   6.233   3.118  16.522  1.3765  2.1939  0.3466
 7959TIP3   OH245291   6.210   4.242  14.967 -0.3497 -0.1978 -0.0329
 7959TIP3    H145292   6.292   4.273  15.004 -0.3333 -0.1120 -0.1415
 7959TIP3    H245293   6.223   4.246  14.872 -1.2503  1.9367 -0.1302
 7960TIP3   OH245294   0.754   4.248  14.803 -0.2493  0.0200  0.0880
 7960TIP3    H145295   0.711   4.164  14.791 -1.8896  0.7484  0.6786
 7960TIP3    H245296   0.841   4.236  14.763 -0.0605 -2.2405  1.0562
 7961TIP3   OH245297   5.854   4.721  14.829 -0.1902 -0.3012 -0.2020
 7961TIP3    H145298   5.859   4.693  14.738 -0.0591  0.2206 -0.3584
 7961TIP3    H245299   5.915   4.794  14.835 -0.7980  0.1944  0.1069
 7962TIP3   OH245300   6.614   2.063   6.196 -0.6120 -0.3635 -0.0976
 7962TIP3    H145301   6.529   2.107   6.205 -0.3308  0.0652  0.5805
 7962TIP3    H245302   6.652   2.067   6.284 -1.1723 -3.2109  0.3878
 7963TIP3   OH245303   2.062   3.496  16.435  0.4098 -0.7199 -0.2788
 7963TIP3    H145304   2.124   3.426  16.416 -0.0505 -0.5940 -2.6668
 7963TIP3    H245305   1.977   3.453  16.437  0.2454 -0.4142 -0.5033
 7964TIP3   OH245306   5.342   3.395  14.818  0.4331  0.1796  0.1971
 7964TIP3    H145307   5.293   3.339  14.758 -0.1096 -0.6000  1.3288
 7964TIP3    H245308   5.346   3.345  14.899 -1.0960  2.2312  1.6427
 7965TIP3   OH245309   1.503   0.457  14.114 -0.4433 -0.2076 -0.1004
 7965TIP3    H145310   1.462   0.416  14.039  0.0167 -0.8594 -0.0010
 7965TIP3    H245311   1.583   0.497  14.080 -0.2475 -0.4809  0.0317
 7966TIP3   OH245312   3.298   4.831  12.543 -0.5530 -0.0446 -0.0277
 7966TIP3    H145313   3.385   4.804  12.514  0.1399  1.9563 -0.0051
 7966TIP3    H245314   3.287   4.919  12.507 -2.0141  0.2760  1.0903
 7967TIP3   OH245315   0.353   0.889   6.586 -0.1686  0.0178  0.3660
 7967TIP3    H145316   0.389   0.974   6.615 -0.2165  0.1608  0.0090
 7967TIP3    H245317   0.343   0.899   6.491  1.0588 -0.8385  0.1209
 7968TIP3   OH245318   0.829   0.818   3.861  0.3062  0.1934  0.1541
 7968TIP3    H145319   0.762   0.755   3.888 -0.1609 -0.3701 -2.1141
 7968TIP3    H245320   0.794   0.903   3.887 -1.1190 -0.1337 -0.5934
 7969TIP3   OH245321   4.045   3.972   2.850  0.2343  0.5960 -0.1661
 7969TIP3    H145322   4.096   3.891   2.849  1.1675  1.1312  1.0150
 7969TIP3    H245323   4.048   4.004   2.760  1.6135  0.3758 -0.2197
 7970TIP3   OH245324   4.866   1.528  14.427 -0.1264  0.2181 -0.2026
 7970TIP3    H145325   4.835   1.607  14.383  0.4136  0.7268  0.3038
 7970TIP3    H245326   4.794   1.466  14.419 -1.2066  1.2904  0.7497
 7971TIP3   OH245327   3.362   5.322   5.935  0.5183 -0.0462  0.6968
 7971TIP3    H145328   3.455   5.319   5.914  0.2515  0.3402 -0.6826
 7971TIP3    H245329   3.341   5.415   5.941  0.5252 -0.1295  2.6435
 7972TIP3   OH245330   1.087   2.400   3.659 -0.3569  0.8290 -0.1438
 7972TIP3    H145331   0.997   2.428   3.670 -0.4416  0.2835  0.6740
 7972TIP3    H245332   1.140   2.475   3.686 -0.5484  1.5263 -1.6507
 7973TIP3   OH245333   6.073   6.480   0.656 -0.2479  0.1472  0.2055
 7973TIP3    H145334   6.062   6.386   0.675  0.3124 -0.0399 -0.3723
 7973TIP3    H245335   6.096   6.483   0.564  0.0429  0.8404  0.2993
 7974TIP3   OH245336   0.269   4.847  14.894 -0.4456 -0.2597 -0.0143
 7974TIP3    H145337   0.186   4.841  14.942 -0.8366  1.1742 -0.4589
 7974TIP3    H245338   0.255   4.797  14.814 -0.8280 -0.1540 -0.0125
 7975TIP3   OH245339   0.133   1.732   0.737 -0.0028 -0.0591  0.0027
 7975TIP3    H145340   0.182   1.814   0.744  1.2625 -0.5824 -2.0106
 7975TIP3    H245341   0.065   1.749   0.673 -0.7581 -0.1295  0.7773
 7976TIP3   OH245342   1.297   3.440   6.208 -0.0703 -0.1611  0.0698
 7976TIP3    H145343   1.386   3.469   6.229  1.2588 -2.0436 -2.3508
 7976TIP3    H245344   1.293   3.351   6.244 -1.0066 -0.0783  0.1747
 7977TIP3   OH245345   5.487   6.243   2.250  0.0667  0.4006 -0.2513
 7977TIP3    H145346   5.428   6.178   2.211  0.8185 -0.4954  0.0571
 7977TIP3    H245347   5.431   6.318   2.269 -0.4276  0.7136 -2.6183
 7978TIP3   OH245348   1.447   1.126  16.131 -0.0808 -0.2098 -0.5094
 7978TIP3    H145349   1.486   1.203  16.171 -1.7307 -1.1679  3.3085
 7978TIP3    H245350   1.354   1.147  16.121 -0.2629 -1.1441 -0.9242
 7979TIP3   OH245351   5.710   4.768  16.414  0.2748 -0.1959  0.0531
 7979TIP3    H145352   5.663   4.784  16.496  0.7751  1.4703  0.0418
 7979TIP3    H245353   5.686   4.842  16.358  3.3900  1.1249  0.2763
 7980TIP3   OH245354   1.626   6.332  11.763 -0.1472 -0.1635 -0.2680
 7980TIP3    H145355   1.608   6.418  11.726  1.4961  0.4286  0.2061
 7980TIP3    H245356   1.721   6.321  11.754  0.0141 -0.9229  1.7427
 7981TIP3   OH245357   3.493   1.873  16.129  0.5455  1.2701 -0.0266
 7981TIP3    H145358   3.480   1.836  16.217  0.0988 -0.6762 -0.8543
 7981TIP3    H245359   3.484   1.798  16.070  1.6081  2.3899 -1.6953
 7982TIP3   OH245360   2.292   4.864   1.086 -0.4444  0.1942  0.7784
 7982TIP3    H145361   2.364   4.801   1.079 -0.0558  0.4493  2.2374
 7982TIP3    H245362   2.299   4.917   1.007 -0.3078 -1.0893 -0.1014
 7983TIP3   OH245363   5.303   3.308   1.888  0.4249 -0.4224 -0.1329
 7983TIP3    H145364   5.348   3.392   1.894 -3.3051  2.0213 -2.1155
 7983TIP3    H245365   5.262   3.297   1.974 -1.7207  1.6634 -0.7764
 7984TIP3   OH245366   6.615   3.914  14.604 -0.1592  0.0362 -0.1772
 7984TIP3    H145367   6.665   3.833  14.595  2.5125  1.2503  2.0787
 7984TIP3    H245368   6.620   3.956  14.518  1.0968 -0.7877 -0.5198
 7985TIP3   OH245369   0.693   4.614  15.963  0.5557 -0.4210  0.4564
 7985TIP3    H145370   0.628   4.681  15.983 -1.0757 -2.1413  1.2490
 7985TIP3    H245371   0.747   4.652  15.894 -0.2079  1.7384  0.9907
 7986TIP3   OH245372   5.808   1.156   2.238  0.1373  0.3486  0.1282
 7986TIP3    H145373   5.839   1.243   2.215 -0.2314  0.3475 -0.3929
 7986TIP3    H245374   5.887   1.102   2.242  0.4242  0.8039  0.9535
 7987TIP3   OH245375   6.664   1.319   5.437 -0.0204  0.2454 -0.2955
 7987TIP3    H145376   6.719   1.319   5.359  0.4128  1.5346 -0.0024
 7987TIP3    H245377   6.635   1.409   5.447  0.6556  0.3081  1.5328
 7988TIP3   OH245378   2.631   4.784  11.747 -0.3287  0.2290  0.0775
 7988TIP3    H145379   2.624   4.874  11.715  1.2417  0.8658  1.3762
 7988TIP3    H245380   2.646   4.793  11.841  0.5668 -1.3612  0.1178
 7989TIP3   OH245381   5.696   1.694  13.265 -0.0840 -0.1628 -0.2404
 7989TIP3    H145382   5.648   1.718  13.186 -0.6984 -1.0829 -0.1717
 7989TIP3    H245383   5.628   1.667  13.327  0.4522 -0.4330  0.2445
 7990TIP3   OH245384   4.944   3.420   2.546  0.4557  0.6817 -0.1742
 7990TIP3    H145385   4.895   3.502   2.538 -0.9893 -0.0556  0.7080
 7990TIP3    H245386   4.988   3.427   2.631 -1.3918 -0.2674  0.9474
 7991TIP3   OH245387   1.647   6.536  15.962 -0.4867 -0.1026  0.3631
 7991TIP3    H145388   1.686   6.620  15.986 -1.7672  0.8243 -0.6175
 7991TIP3    H245389   1.552   6.551  15.968 -0.9026 -0.3436 -3.0539
 7992TIP3   OH245390   4.480   3.353  14.695 -0.4511  0.3674 -0.2165
 7992TIP3    H145391   4.467   3.268  14.654  1.2229 -2.0357  3.6578
 7992TIP3    H245392   4.546   3.396  14.641  0.0570 -1.5900 -1.2408
 7993TIP3   OH245393   4.400   1.682   2.098  0.0469 -0.1192 -0.1950
 7993TIP3    H145394   4.470   1.687   2.033 -0.1627 -0.0612 -0.4175
 7993TIP3    H245395   4.349   1.762   2.085 -0.5432 -0.5495 -0.5929
 7994TIP3   OH245396   1.229   6.196   0.463 -0.1683  0.0021 -0.1721
 7994TIP3    H145397   1.252   6.282   0.499 -0.6888  0.2126 -0.3298
 7994TIP3    H245398   1.142   6.209   0.425  0.0285 -0.4283 -0.7800
 7995TIP3   OH245399   0.220   2.785  11.469  0.2160  0.2268  0.1244
 7995TIP3    H145400   0.158   2.725  11.510  0.1810 -0.6867 -1.1901
 7995TIP3    H245401   0.206   2.773  11.375 -0.7881  3.3435 -0.2476
 7996TIP3   OH245402   5.742   6.271  11.371  0.1536  0.0322  0.2772
 7996TIP3    H145403   5.760   6.296  11.280 -0.9709 -0.1606 -0.0127
 7996TIP3    H245404   5.819   6.221  11.398  0.5516  0.1923 -0.5297
 7997TIP3   OH245405   2.794   5.417  15.623  0.0299  0.4006  0.0009
 7997TIP3    H145406   2.701   5.402  15.639 -0.4370  2.4855 -0.3541
 7997TIP3    H245407   2.829   5.443  15.709  0.0801  0.4810 -0.0433
 7998TIP3   OH245408   5.804   4.789  13.351 -0.3612 -0.3012 -0.3172
 7998TIP3    H145409   5.784   4.824  13.264 -0.5211  0.5757  0.0632
 7998TIP3    H245410   5.893   4.757  13.344  0.1969  1.1875 -0.3840
 7999TIP3   OH245411   2.976   1.640  17.044 -0.2059 -0.1052 -0.1383
 7999TIP3    H145412   3.063   1.662  17.076 -0.4420  0.9880 -0.2073
 7999TIP3    H245413   2.986   1.553  17.005  0.8262 -0.0274 -0.0707
 8000TIP3   OH245414   3.986   2.197  11.375 -0.4075  0.5959 -0.0509
 8000TIP3    H145415   3.914   2.181  11.315  0.0810 -0.9193 -0.2645
 8000TIP3    H245416   4.051   2.244  11.323 -0.1903 -0.2755 -0.5739
 8001TIP3   OH245417   0.639   4.567   3.948 -0.8756  0.4203 -0.3724
 8001TIP3    H145418   0.598   4.544   4.032  1.1816 -2.5431 -0.0063
 8001TIP3    H245419   0.730   4.589   3.972 -0.1797 -0.7530 -1.7869
 8002TIP3   OH245420   1.472   4.229  13.187  0.0721 -0.1130 -0.1069
 8002TIP3    H145421   1.414   4.165  13.228  0.0143 -0.4299 -0.6746
 8002TIP3    H245422   1.521   4.267  13.260 -1.3893  0.7263  0.4812
 8003TIP3   OH245423   5.089   5.363   1.045  0.3133 -0.1336  0.3020
 8003TIP3    H145424   5.076   5.332   0.956 -0.6001 -0.9732  0.7136
 8003TIP3    H245425   5.086   5.284   1.099  1.0910  0.3383  1.0582
 8004TIP3   OH245426   0.139   4.741   2.751 -0.0047  0.3113 -0.9458
 8004TIP3    H145427   0.195   4.782   2.684  0.1676 -0.2492 -1.1438
 8004TIP3    H245428   0.125   4.652   2.720  1.0657 -0.3504  0.3704
 8005TIP3   OH245429   0.040   0.714  11.164 -0.3628 -0.1285  0.0795
 8005TIP3    H145430  -0.022   0.735  11.094 -0.1646  0.8723  0.1895
 8005TIP3    H245431   0.089   0.795  11.178  0.1173 -0.5386  0.8629
 8006TIP3   OH245432   3.024   0.988   3.351 -0.3319  0.1898  0.1039
 8006TIP3    H145433   2.992   1.027   3.270  0.8806 -0.0923 -0.5381
 8006TIP3    H245434   3.082   0.917   3.323  1.0625  0.8465  1.1742
 8007TIP3   OH245435   0.663   0.279  11.376 -0.1273  0.2985  0.0373
 8007TIP3    H145436   0.706   0.217  11.316  0.1296  1.2068 -0.7417
 8007TIP3    H245437   0.620   0.342  11.319 -1.1108  0.3589  0.8230
 8008TIP3   OH245438   4.252   5.122   5.601 -0.0999  0.1118  0.0209
 8008TIP3    H145439   4.334   5.153   5.642 -0.0225  0.7226 -0.5824
 8008TIP3    H245440   4.274   5.036   5.565  0.4234  0.4860 -0.5704
 8009TIP3   OH245441   5.592   4.627   0.727 -0.0831 -0.1931  0.2677
 8009TIP3    H145442   5.676   4.665   0.752  0.3964 -0.9243 -0.1941
 8009TIP3    H245443   5.534   4.703   0.715  0.3273  0.2934  1.1742
 8010TIP3   OH245444   4.368   4.913  12.901  0.3264 -0.3425  0.4455
 8010TIP3    H145445   4.400   4.988  12.853 -2.2162  0.6938  0.1981
 8010TIP3    H245446   4.332   4.855  12.834 -2.9752  0.9794  0.8573
 8011TIP3   OH245447   4.330   0.479  14.261 -0.2908 -0.1197  0.6915
 8011TIP3    H145448   4.399   0.481  14.328 -0.3098 -1.2319  0.7467
 8011TIP3    H245449   4.312   0.572  14.245  4.0425  0.5442 -2.2340
 8012TIP3   OH245450   5.517   4.121  11.939 -0.2052  0.2506  0.1174
 8012TIP3    H145451   5.501   4.142  11.847  1.0751 -0.6730 -0.3508
 8012TIP3    H245452   5.598   4.166  11.961 -0.1148 -0.1199  0.5726
 8013TIP3   OH245453   5.954   3.060  12.840 -0.3476 -0.4810  0.4070
 8013TIP3    H145454   5.925   3.130  12.781 -1.3597 -1.1169  0.1235
 8013TIP3    H245455   5.927   3.090  12.927  0.6556  0.2046  0.4978
 8014TIP3   OH245456   2.875   5.878   5.150 -0.0271 -0.2503 -0.2353
 8014TIP3    H145457   2.959   5.835   5.136  0.3249  0.7248 -1.2463
 8014TIP3    H245458   2.811   5.818   5.110  0.3412 -0.3716 -0.6499
 8015TIP3   OH245459   3.430   3.093  11.391  0.0788  0.3044  0.0847
 8015TIP3    H145460   3.459   3.183  11.373 -0.3659  0.6679  1.1410
 8015TIP3    H245461   3.511   3.046  11.410  0.4314  0.2151 -1.4428
 8016TIP3   OH245462   4.726   0.061  16.519  0.0365 -0.4731  0.6519
 8016TIP3    H145463   4.641   0.099  16.542  0.0056 -0.8569  1.1758
 8016TIP3    H245464   4.785   0.092  16.587  0.9108  1.8454 -1.0208
 8017TIP3   OH245465   4.639   4.098   5.801  0.2954 -0.3513  0.3698
 8017TIP3    H145466   4.711   4.037   5.785 -0.4058 -1.5754  1.7077
 8017TIP3    H245467   4.624   4.093   5.895 -2.8621 -1.6742 -0.1115
 8018TIP3   OH245468   4.277   6.751   4.729  0.0932 -0.7521  0.0322
 8018TIP3    H145469   4.355   6.771   4.780  0.0863 -0.1395 -0.1840
 8018TIP3    H245470   4.204   6.771   4.789  0.0671  0.7288 -0.4515
 8019TIP3   OH245471   6.268   4.400  13.496 -0.2730  0.2278 -0.2854
 8019TIP3    H145472   6.199   4.461  13.471 -1.0660 -0.1719  0.8745
 8019TIP3    H245473   6.227   4.314  13.495 -0.2908  0.1401  1.9557
 8020TIP3   OH245474   5.148   4.102   1.690  0.1033 -0.4675 -0.3316
 8020TIP3    H145475   5.086   4.035   1.719 -0.6303  1.1878  2.3099
 8020TIP3    H245476   5.219   4.053   1.649 -1.0315 -2.7513  0.2762
 8021TIP3   OH245477   4.123   0.179   1.070  0.1328 -0.1302 -0.2853
 8021TIP3    H145478   4.110   0.204   0.978  0.3142 -0.2086 -0.3319
 8021TIP3    H245479   4.079   0.095   1.078  0.6710 -0.4330 -0.4626
 8022TIP3   OH245480   4.128   4.750  15.322  0.7429 -0.1171  0.4032
 8022TIP3    H145481   4.075   4.672  15.307  3.4707 -1.6433 -2.2094
 8022TIP3    H245482   4.082   4.821  15.277  0.7713 -1.3718 -1.6906
 8023TIP3   OH245483   5.775   1.066   2.998 -0.0269 -0.1827  0.3034
 8023TIP3    H145484   5.833   0.990   2.988  1.2043  0.7391  0.2748
 8023TIP3    H245485   5.825   1.128   3.051 -0.3646  1.2716 -1.0168
 8024TIP3   OH245486   1.649   5.085  12.544 -0.0656  0.3030  0.4777
 8024TIP3    H145487   1.561   5.124  12.546 -0.1033  0.2971 -0.6215
 8024TIP3    H245488   1.708   5.160  12.538 -0.1084  0.2353 -0.9975
 8025TIP3   OH245489   4.353   2.116   1.855  0.6340 -0.0858  0.1614
 8025TIP3    H145490   4.361   2.038   1.801  2.1904 -1.3601  2.0647
 8025TIP3    H245491   4.266   2.108   1.895 -0.0065  0.2194 -1.1100
 8026TIP3   OH245492   3.755   2.566  16.152  0.1950  0.7204 -0.5023
 8026TIP3    H145493   3.689   2.528  16.095  0.0411 -0.2141  0.2675
 8026TIP3    H245494   3.807   2.622  16.095  1.1300 -1.4951 -1.9902
 8027TIP3   OH245495   3.934   0.153  16.249 -0.0076  0.1595 -0.4659
 8027TIP3    H145496   3.979   0.187  16.327  0.1175  1.2193 -0.9769
 8027TIP3    H245497   3.882   0.080  16.281 -0.3249  0.8649  0.7093
 8028TIP3   OH245498   0.848   6.746   4.428  0.2138 -0.1114  0.4433
 8028TIP3    H145499   0.905   6.691   4.375 -1.2053 -0.1237 -1.1556
 8028TIP3    H245500   0.797   6.684   4.481 -1.7809 -0.5085 -1.7581
 8029TIP3   OH245501   5.227   4.711   3.597  0.4855 -0.1807  0.7592
 8029TIP3    H145502   5.286   4.717   3.522  0.9989  0.2663  1.1888
 8029TIP3    H245503   5.277   4.664   3.664  0.3863  0.2766  1.1604
 8030TIP3   OH245504   5.746   0.328  16.922  0.0830 -0.0025  0.1254
 8030TIP3    H145505   5.813   0.341  16.856  0.0400 -0.9126 -0.1096
 8030TIP3    H245506   5.686   0.264  16.884  0.4351 -1.0800  1.3168
 8031TIP3   OH245507   3.212   6.528  15.469  0.0712  0.0614  0.2079
 8031TIP3    H145508   3.174   6.533  15.381 -0.4896  1.0236  0.4843
 8031TIP3    H245509   3.248   6.616  15.484 -1.1318  0.3588  1.4981
 8032TIP3   OH245510   0.130   0.038   3.929 -0.0134 -0.0305  0.1369
 8032TIP3    H145511   0.109   0.077   4.014  1.9599  0.6201  0.3557
 8032TIP3    H245512   0.065   0.076   3.869  0.5688  2.0435  0.7442
 8033TIP3   OH245513   0.810   6.729   6.081  0.2322  0.1031  0.2178
 8033TIP3    H145514   0.801   6.661   6.147 -0.2742  1.1960  1.3192
 8033TIP3    H245515   0.864   6.689   6.013  0.1768 -1.2928  0.9549
 8034TIP3   OH245516   2.521   5.684  12.304 -0.3222  0.1601  0.1981
 8034TIP3    H145517   2.520   5.675  12.208 -0.1192  1.9204  0.0024
 8034TIP3    H245518   2.606   5.725  12.322 -0.2314 -0.4388  1.1780
 8035TIP3   OH245519   4.074   0.383   5.628 -0.5259 -0.0066 -0.2435
 8035TIP3    H145520   4.026   0.375   5.711 -2.5129 -1.0646 -1.4234
 8035TIP3    H245521   4.061   0.299   5.584  0.2425  0.6322 -1.7777
 8036TIP3   OH245522   6.740   2.018  13.837 -0.5816  0.0083 -0.2568
 8036TIP3    H145523   6.754   1.931  13.801 -0.2811 -0.0466 -0.0156
 8036TIP3    H245524   6.803   2.074  13.790 -0.7680  0.0948 -0.4051
 8037TIP3   OH245525   4.869   4.087   3.073  0.2334  0.4152 -0.1138
 8037TIP3    H145526   4.870   4.181   3.054  1.7685  0.5926  0.6629
 8037TIP3    H245527   4.900   4.047   2.991 -0.8932  0.5279 -0.6119
 8038TIP3   OH245528   0.351   5.903   3.951  0.3479 -0.3348  0.3448
 8038TIP3    H145529   0.402   5.984   3.941  1.5814 -0.7601  2.5758
 8038TIP3    H245530   0.358   5.881   4.044 -3.0107 -1.0909  0.5435
 8039TIP3   OH245531   5.081   6.588  14.171  0.5745  0.0567  0.2353
 8039TIP3    H145532   5.010   6.652  14.160  0.4901  0.0568  0.7741
 8039TIP3    H245533   5.038   6.510  14.205  1.1401  0.8529  3.0649
 8040TIP3   OH245534   0.179   2.129  13.684 -0.0403 -0.4508  0.3108
 8040TIP3    H145535   0.259   2.176  13.708 -0.6481  0.9814 -0.3896
 8040TIP3    H245536   0.194   2.099  13.594 -0.2610 -0.2333  0.1996
 8041TIP3   OH245537   2.800   2.168  14.659 -0.6355  0.7338  0.3806
 8041TIP3    H145538   2.756   2.100  14.710  0.6940 -0.5440 -0.0924
 8041TIP3    H245539   2.739   2.190  14.589 -0.4352 -1.2488 -0.4695
 8042TIP3   OH245540   5.047   3.260  12.480  1.0593 -0.1682  0.4638
 8042TIP3    H145541   4.954   3.236  12.483  0.6826  1.2766  0.9450
 8042TIP3    H245542   5.065   3.277  12.388  0.6567  0.2172  0.4538
 8043TIP3   OH245543   0.294   5.411   1.158  0.1055  0.1577 -0.0620
 8043TIP3    H145544   0.205   5.417   1.191 -0.1211 -0.7896 -0.4766
 8043TIP3    H245545   0.285   5.415   1.063  0.5304  0.3010 -0.1000
 8044TIP3   OH245546   2.376   0.088  17.084  0.2248  0.0895  0.1499
 8044TIP3    H145547   2.359   0.014  17.143  0.8019  0.1494  0.4032
 8044TIP3    H245548   2.336   0.163  17.127  0.0615  0.0125  0.1343
 8045TIP3   OH245549   6.241   0.955  13.302 -0.5986  0.1921  0.3826
 8045TIP3    H145550   6.191   0.958  13.383 -0.4987 -0.0324  0.4555
 8045TIP3    H245551   6.176   0.964  13.233 -0.4606  2.9330  0.5096
 8046TIP3   OH245552   5.130   6.448  17.172 -0.5634 -0.4661  0.2624
 8046TIP3    H145553   5.041   6.423  17.146 -0.0119 -1.5788 -0.6725
 8046TIP3    H245554   5.151   6.524  17.118 -0.9015 -0.2702  0.4066
 8047TIP3   OH245555   6.773   1.075  13.485 -0.6318  0.4150  0.2361
 8047TIP3    H145556   6.772   1.103  13.394 -1.1115  0.4035  0.2374
 8047TIP3    H245557   6.861   1.099  13.517 -0.2616 -0.0973 -0.3868
 8048TIP3   OH245558   0.146   2.275   5.315  0.1804 -0.0508 -0.0971
 8048TIP3    H145559   0.146   2.356   5.367  2.3641 -1.3080  2.1059
 8048TIP3    H245560   0.143   2.304   5.224  0.0103  2.4425  0.6346
 8049TIP3   OH245561   0.244   3.685   1.127 -0.1225 -0.3573 -0.1231
 8049TIP3    H145562   0.237   3.597   1.165 -0.7713 -0.7997 -1.2050
 8049TIP3    H245563   0.335   3.692   1.100 -0.2196 -0.9999 -0.6699
 8050TIP3   OH245564   3.143   5.812  16.120 -0.0199  0.3465 -0.3871
 8050TIP3    H145565   3.171   5.897  16.085  1.1095  0.2872  0.2916
 8050TIP3    H245566   3.210   5.791  16.186 -1.2394 -0.2435  0.7064
 8051TIP3   OH245567   6.135   5.149   3.377 -0.0735  0.1029  0.3182
 8051TIP3    H145568   6.176   5.215   3.321 -0.2812  1.2034  1.4204
 8051TIP3    H245569   6.208   5.103   3.417  0.0966 -1.2071 -1.3659
 8052TIP3   OH245570   2.360   6.297   1.889 -0.0868  1.0608  0.1589
 8052TIP3    H145571   2.325   6.367   1.944  1.6154  0.9780  1.4296
 8052TIP3    H245572   2.455   6.299   1.904  0.3182  0.2366 -1.8851
 8053TIP3   OH245573   4.398   1.477   3.874  0.7453  0.2682 -0.4389
 8053TIP3    H145574   4.333   1.548   3.876  0.4657  0.0134 -0.4331
 8053TIP3    H245575   4.434   1.474   3.962  1.2460  0.8479 -0.6112
 8054TIP3   OH245576   4.569   2.501  13.115 -0.4231  0.6570  0.4620
 8054TIP3    H145577   4.510   2.555  13.062  0.5916  3.0086  1.5916
 8054TIP3    H245578   4.629   2.563  13.155  2.7196 -1.5971 -0.3981
 8055TIP3   OH245579   0.884   0.271  12.778  0.0674  0.4692 -0.1327
 8055TIP3    H145580   0.883   0.212  12.703 -0.1638  1.3701 -0.8458
 8055TIP3    H245581   0.821   0.233  12.839  2.0867 -1.7220  0.7749
 8056TIP3   OH245582   0.581   0.669   0.742  0.4183 -0.3694 -0.1418
 8056TIP3    H145583   0.638   0.610   0.792 -1.2593  0.6295  3.2617
 8056TIP3    H245584   0.615   0.756   0.761 -0.6267  0.0754 -0.2692
 8057TIP3   OH245585   3.159   4.142   3.028  0.0524 -0.4259 -0.4272
 8057TIP3    H145586   3.186   4.056   2.997  3.4460  0.5027 -0.4639
 8057TIP3    H245587   3.214   4.158   3.104 -0.0767  1.9303 -0.7594
 8058TIP3   OH245588   4.292   2.069  14.660  0.1290 -0.2391 -0.0188
 8058TIP3    H145589   4.337   2.054  14.576 -2.2808 -1.5484 -1.1565
 8058TIP3    H245590   4.344   2.020  14.724 -0.3926 -3.0251 -1.5490
 8059TIP3   OH245591   5.049   4.412   0.597  0.3487 -0.6339 -0.4882
 8059TIP3    H145592   4.980   4.413   0.664 -0.2267 -1.2577 -1.0466
 8059TIP3    H245593   5.114   4.474   0.628  0.3805 -1.3464  0.9501
 8060TIP3   OH245594   0.953   3.317   4.913 -0.0011  0.3174  0.6236
 8060TIP3    H145595   1.045   3.293   4.922 -0.1741 -0.3420  0.6442
 8060TIP3    H245596   0.940   3.385   4.980  0.7254  1.1826 -0.0826
 8061TIP3   OH245597   4.281   5.581  16.414 -0.3368 -0.3490 -0.0866
 8061TIP3    H145598   4.189   5.574  16.437  0.1952 -0.5047  2.1417
 8061TIP3    H245599   4.292   5.673  16.389 -0.8706 -0.0739  0.6658
 8062TIP3   OH245600   4.745   1.873   3.204 -0.1316 -0.2444 -0.2367
 8062TIP3    H145601   4.786   1.956   3.228  1.1942 -0.4345 -1.6477
 8062TIP3    H245602   4.658   1.898   3.174 -0.6224  0.3404  1.5984
 8063TIP3   OH245603   1.832   3.767  13.709  0.0753  0.5441 -0.0608
 8063TIP3    H145604   1.785   3.821  13.645  0.6545  2.1961  0.8368
 8063TIP3    H245605   1.918   3.752  13.669 -0.5886 -1.0575 -0.9712
 8064TIP3   OH245606   4.602   3.148   1.867  0.0907  0.4569  0.2443
 8064TIP3    H145607   4.626   3.241   1.869  0.1126  0.4449  0.7783
 8064TIP3    H245608   4.518   3.146   1.821 -0.4616  0.8752  1.2109
 8065TIP3   OH245609   5.228   1.903  17.202 -0.1543  0.1099  0.9993
 8065TIP3    H145610   5.214   1.994  17.178 -0.4007 -0.0599  0.4948
 8065TIP3    H245611   5.324   1.893  17.202 -0.1466 -0.0749 -0.6608
 8066TIP3   OH245612   4.079   3.103   2.078  0.3319  0.4065  0.2161
 8066TIP3    H145613   4.084   3.196   2.100  0.0439  0.2611  0.9190
 8066TIP3    H245614   4.080   3.101   1.983 -1.4246  1.2443  0.1485
 8067TIP3   OH245615   3.071   2.010  11.719 -0.4873  0.5326  0.5207
 8067TIP3    H145616   2.979   1.997  11.697 -0.3199  2.0680 -1.3190
 8067TIP3    H245617   3.075   2.098  11.757  0.2878  0.6628  0.1540
 8068TIP3   OH245618   2.119   4.735   4.865 -0.5394 -0.3374 -0.0731
 8068TIP3    H145619   2.088   4.826   4.863  0.4118  0.0945  1.8165
 8068TIP3    H245620   2.039   4.682   4.860 -1.2518  0.6521  0.3808
 8069TIP3   OH245621   5.532   2.197   0.494 -0.4955 -0.5648  0.1260
 8069TIP3    H145622   5.596   2.126   0.499 -0.0074 -0.1655 -0.3460
 8069TIP3    H245623   5.555   2.255   0.567 -1.1583 -1.1003  0.7708
 8070TIP3   OH245624   5.486   1.949   3.402 -0.0992  0.0528 -0.6047
 8070TIP3    H145625   5.417   1.888   3.377  1.0771 -1.4082 -0.3915
 8070TIP3    H245626   5.562   1.894   3.421  0.6342  1.4775  0.8764
 8071TIP3   OH245627   0.198   4.676  16.262  0.2604  0.8310  0.0948
 8071TIP3    H145628   0.150   4.725  16.328 -1.3089  0.9847 -1.0820
 8071TIP3    H245629   0.245   4.742  16.212 -1.3056  1.1391 -1.0576
 8072TIP3   OH245630   0.744   1.206  15.485  0.2990 -0.4441  0.0126
 8072TIP3    H145631   0.797   1.232  15.561  0.4446  2.0350 -0.8715
 8072TIP3    H245632   0.808   1.188  15.416  0.1557 -2.5369  0.3578
 8073TIP3   OH245633   5.821   0.640  15.864 -0.1946  0.1150 -0.1665
 8073TIP3    H145634   5.791   0.551  15.882 -0.6722 -0.1857 -2.1603
 8073TIP3    H245635   5.859   0.670  15.946 -1.7688 -1.2172  1.1203
 8074TIP3   OH245636   6.147   3.501  13.028 -0.4326 -0.5357  0.3277
 8074TIP3    H145637   6.228   3.481  12.981  0.3273  0.8841  0.9662
 8074TIP3    H245638   6.115   3.415  13.057  0.6830 -1.1564 -0.1932
 8075TIP3   OH245639   3.089   0.415   6.513  0.0936 -0.0615  0.2773
 8075TIP3    H145640   3.145   0.429   6.436  1.6475 -0.5582  1.2673
 8075TIP3    H245641   3.103   0.492   6.568 -0.8522  0.1944  0.1798
 8076TIP3   OH245642   4.485   1.221   3.532  0.1403 -0.1202  0.0531
 8076TIP3    H145643   4.417   1.278   3.494  0.6925 -0.8052 -2.1481
 8076TIP3    H245644   4.439   1.141   3.556 -0.1543  0.1720  0.4807
 8077TIP3   OH245645   4.792   0.951   4.664  0.8944 -0.1259 -0.6475
 8077TIP3    H145646   4.827   1.040   4.658 -0.4525  0.4873  0.2697
 8077TIP3    H245647   4.862   0.896   4.627  3.2225  0.9259  1.8755
 8078TIP3   OH245648   4.461   2.798   5.349  0.0111 -0.5793 -0.2962
 8078TIP3    H145649   4.446   2.831   5.438  1.4462 -0.2471 -0.1519
 8078TIP3    H245650   4.400   2.849   5.295 -0.5728 -0.4769  0.4239
 8079TIP3   OH245651   6.758   4.235   2.611  0.1495 -0.4056  0.0398
 8079TIP3    H145652   6.709   4.203   2.687  2.8495 -1.8854  1.3345
 8079TIP3    H245653   6.823   4.167   2.594  1.8542  1.4472 -1.4241
 8080TIP3   OH245654   1.022   6.689  13.805 -0.7532  0.6100  0.3974
 8080TIP3    H145655   1.032   6.595  13.791 -1.1941  0.3531  1.6743
 8080TIP3    H245656   1.016   6.726  13.717  0.1905 -0.4586 -0.1348
 8081TIP3   OH245657   0.344   3.888   2.742  0.8548 -0.2300 -0.0560
 8081TIP3    H145658   0.335   3.833   2.820 -0.0332 -0.5670 -0.3855
 8081TIP3    H245659   0.398   3.962   2.771 -1.4739  0.9422  1.5455
 8082TIP3   OH245660   1.714   1.086  14.478  0.1109  0.5932  0.1764
 8082TIP3    H145661   1.748   1.120  14.561  1.0214 -0.5384  0.2968
 8082TIP3    H245662   1.619   1.095  14.485  0.2764  2.7539  0.3197
 8083TIP3   OH245663   6.544   1.445  12.139 -0.2713 -0.9332 -0.4110
 8083TIP3    H145664   6.516   1.463  12.228 -1.1810 -0.5111 -0.7706
 8083TIP3    H245665   6.611   1.510  12.120 -1.6246  0.4084 -0.7720
 8084TIP3   OH245666   1.121   1.015   4.550 -0.0956  0.0894  0.0104
 8084TIP3    H145667   1.183   1.054   4.488 -0.7286  1.8578  0.4189
 8084TIP3    H245668   1.174   0.958   4.605  0.8796  0.3201 -0.6591
 8085TIP3   OH245669   2.714   0.389  13.123 -0.4664 -0.1353  0.7335
 8085TIP3    H145670   2.659   0.465  13.101 -0.1870 -0.2435 -0.4176
 8085TIP3    H245671   2.686   0.321  13.062  1.3185 -0.0123 -0.2958
 8086TIP3   OH245672   5.623   6.443  13.411 -0.0655 -0.0092  0.6313
 8086TIP3    H145673   5.556   6.505  13.442  0.7754 -0.1079  2.8557
 8086TIP3    H245674   5.610   6.438  13.317 -2.7659  0.4896  0.8973
 8087TIP3   OH245675   5.704   3.254   1.027  0.3971  0.2252 -0.2517
 8087TIP3    H145676   5.634   3.301   1.073 -0.3963 -0.6035 -0.5842
 8087TIP3    H245677   5.775   3.319   1.020 -0.0543  0.8548  0.7215
 8088TIP3   OH245678   3.471   4.705  12.162 -0.0003  0.2992  0.6089
 8088TIP3    H145679   3.527   4.673  12.233 -1.5697 -0.8725  1.3776
 8088TIP3    H245680   3.413   4.769  12.204 -0.2076  0.4286  0.1328
 8089TIP3   OH245681   1.718   0.758   0.258  1.0570  0.0020 -0.1914
 8089TIP3    H145682   1.633   0.719   0.239  1.7889 -2.5409  1.2352
 8089TIP3    H245683   1.754   0.781   0.173 -0.1288 -1.0312 -0.9960
 8090TIP3   OH245684   5.931   0.696   0.318  0.4856 -0.0970  0.4427
 8090TIP3    H145685   5.987   0.742   0.381  1.0877 -0.2703  0.0345
 8090TIP3    H245686   5.990   0.639   0.270 -0.1230 -0.6493  0.3401
 8091TIP3   OH245687   1.396   0.791  13.789  0.0018  0.6741 -0.1338
 8091TIP3    H145688   1.381   0.736  13.865 -0.9033  0.6138 -0.3372
 8091TIP3    H245689   1.391   0.731  13.715  3.2920  0.2827 -0.1650
 8092TIP3   OH245690   2.510   5.445   0.000 -0.5703  0.1625 -0.4542
 8092TIP3    H145691   2.465   5.474  -0.079 -0.0369  1.2031 -0.3932
 8092TIP3    H245692   2.498   5.350   0.001 -1.3758  0.2423 -1.2854
 8093TIP3   OH245693   3.966   5.063   5.085  0.0637  0.0811 -0.0015
 8093TIP3    H145694   3.888   5.041   5.135 -0.1441  0.0041 -0.3538
 8093TIP3    H245695   4.025   4.989   5.098  0.6579  0.7552  1.4043
 8094TIP3   OH245696   5.739   5.382  12.228 -0.5907  0.2109  0.1978
 8094TIP3    H145697   5.702   5.458  12.273 -1.1162  0.1578 -0.1408
 8094TIP3    H245698   5.741   5.313  12.295 -0.4788  0.4058  0.3967
 8095TIP3   OH245699   1.753   5.736   0.568  0.2145  0.4921  0.0760
 8095TIP3    H145700   1.765   5.649   0.528 -0.0199 -0.2538  1.5575
 8095TIP3    H245701   1.665   5.733   0.605  0.1428  1.4438  0.0061
 8096TIP3   OH245702   6.499   4.850   6.506 -0.1514  1.2054  0.3846
 8096TIP3    H145703   6.425   4.790   6.495 -0.0113  1.2387 -0.8930
 8096TIP3    H245704   6.459   4.932   6.535 -0.5083  0.9405  0.6534
 8097TIP3   OH245705   4.450   5.065  15.112 -0.2663 -0.0426  0.1973
 8097TIP3    H145706   4.513   5.113  15.059 -2.5891  2.6229 -0.3880
 8097TIP3    H245707   4.421   4.992  15.057  1.2451 -0.4909 -0.0316
 8098TIP3   OH245708   0.544   2.357  12.942  1.0330  0.0215 -0.1123
 8098TIP3    H145709   0.623   2.319  12.980  2.6674  1.2329 -2.0694
 8098TIP3    H245710   0.540   2.319  12.854  0.3057  1.1540 -0.5871
 8099TIP3   OH245711   6.687   0.423   5.253 -0.1947 -0.3552 -0.1366
 8099TIP3    H145712   6.663   0.501   5.202  0.0036  0.9980  1.7240
 8099TIP3    H245713   6.772   0.396   5.218 -0.2933  0.2263 -0.8453
 8100TIP3   OH245714   1.146   1.379   1.621  0.1884 -0.5758 -0.2385
 8100TIP3    H145715   1.224   1.432   1.605  1.0392 -1.6385  0.2454
 8100TIP3    H245716   1.115   1.408   1.707  0.4267 -0.6038 -0.1419
 8101TIP3   OH245717   4.604   0.200   3.047  0.0014 -0.3954  0.2447
 8101TIP3    H145718   4.593   0.163   2.959 -0.4718  0.1318  0.0770
 8101TIP3    H245719   4.668   0.143   3.089  1.9427  0.5979 -1.1862
 8102TIP3   OH245720   6.770   5.203   1.657  0.7499  0.1494 -0.0500
 8102TIP3    H145721   6.793   5.110   1.663  1.0356  0.2292  0.1362
 8102TIP3    H245722   6.854   5.248   1.648  0.5421  0.3107 -1.2507
 8103TIP3   OH245723   1.041   4.772   5.819  0.2813 -0.3646 -0.2159
 8103TIP3    H145724   1.077   4.768   5.730  0.5443 -1.4763 -0.0794
 8103TIP3    H245725   1.074   4.854   5.854 -1.2377  0.9695 -1.7139
 8104TIP3   OH245726   6.321   6.150  12.513  0.1496  0.6192  0.4269
 8104TIP3    H145727   6.359   6.115  12.433  0.8545 -0.2423  1.1056
 8104TIP3    H245728   6.342   6.244  12.511  0.2155  0.5934 -0.3454
 8105TIP3   OH245729   3.151   4.213  10.880 -0.7425 -0.2665 -0.6547
 8105TIP3    H145730   3.218   4.245  10.819 -1.3720 -1.0637 -1.8066
 8105TIP3    H245731   3.177   4.122  10.898 -1.6935 -0.7166 -1.4335
 8106TIP3   OH245732   3.976   2.087  16.979 -0.6430 -0.0823  0.5753
 8106TIP3    H145733   3.926   2.005  16.979  2.3169 -2.0254  0.3634
 8106TIP3    H245734   3.981   2.112  16.887 -0.3392 -0.4519  0.4925
 8107TIP3   OH245735   2.610   4.666   6.378 -0.1738 -0.5830  0.9564
 8107TIP3    H145736   2.557   4.706   6.309  0.1504 -3.2520 -1.0149
 8107TIP3    H245737   2.683   4.727   6.391 -0.6514  0.3702 -0.5411
 8108TIP3   OH245738   1.390   0.317  17.120 -0.3159  0.5963 -0.4850
 8108TIP3    H145739   1.360   0.408  17.119 -0.4915  0.5348 -1.4461
 8108TIP3    H245740   1.373   0.285  17.031 -2.1652 -0.9959  0.3563
 8109TIP3   OH245741   5.990   1.427  14.762  0.9707 -0.0428  0.0650
 8109TIP3    H145742   6.074   1.428  14.806  0.0966 -1.9554  1.9520
 8109TIP3    H245743   6.003   1.369  14.686  1.0057 -1.6457  1.2478
 8110TIP3   OH245744   2.756   6.171   5.110 -0.6725  0.0680 -0.4502
 8110TIP3    H145745   2.780   6.102   5.172 -1.0814 -0.3582 -0.7576
 8110TIP3    H245746   2.833   6.178   5.052  0.2890  1.4567  0.9386
 8111TIP3   OH245747   2.569   4.236   3.451  0.2624  0.1816 -0.2308
 8111TIP3    H145748   2.482   4.197   3.465  0.3410 -0.2080 -0.8036
 8111TIP3    H245749   2.550   4.325   3.419  0.0797  0.3440  0.3189
 8112TIP3   OH245750   5.561   3.479   1.835  0.4083  0.7372  0.0927
 8112TIP3    H145751   5.639   3.500   1.887  0.5327 -0.8073  0.5878
 8112TIP3    H245752   5.576   3.522   1.751  0.6396  2.5019  0.9777
 8113TIP3   OH245753   5.945   4.321  14.835 -0.9736 -0.1873  0.5202
 8113TIP3    H145754   6.021   4.346  14.783 -0.5337 -1.5375  0.4926
 8113TIP3    H245755   5.963   4.356  14.922  0.2767 -1.5283  0.8333
 8114TIP3   OH245756   6.450   3.361   3.709  0.0489 -0.2460 -0.0787
 8114TIP3    H145757   6.404   3.386   3.629 -1.5971  0.8541  1.1493
 8114TIP3    H245758   6.492   3.277   3.687 -0.9110 -0.3124 -1.8665
 8115TIP3   OH245759   4.199   0.456  16.453 -0.7347  0.6500 -0.2884
 8115TIP3    H145760   4.124   0.398  16.465 -0.0830 -0.3767 -1.0086
 8115TIP3    H245761   4.256   0.437  16.527  0.1085 -0.6680 -1.2306
 8116TIP3   OH245762   0.147   1.325   2.365  0.3728  0.0672  0.5765
 8116TIP3    H145763   0.114   1.237   2.347  1.5402 -0.6778  1.8998
 8116TIP3    H245764   0.241   1.314   2.377  0.5949  1.5592  0.4913
 8117TIP3   OH245765   1.922   4.125  11.528 -0.6949 -0.4905 -0.3013
 8117TIP3    H145766   1.864   4.115  11.603  0.0230 -1.5664  0.1325
 8117TIP3    H245767   1.883   4.068  11.461 -1.1218  0.1730 -0.6280
 8118TIP3   OH245768   0.167   1.352  14.312 -0.2097  0.4836 -0.2582
 8118TIP3    H145769   0.100   1.421  14.316 -0.2940  0.3660  1.3261
 8118TIP3    H245770   0.216   1.370  14.232 -0.3157  2.3072  0.0387
 8119TIP3   OH245771   2.904   0.890  11.429  0.0491  0.1309  0.1046
 8119TIP3    H145772   2.872   0.848  11.350  2.0398 -0.8786 -0.2379
 8119TIP3    H245773   3.000   0.883  11.423  0.2701  0.2310  2.4772
 8120TIP3   OH245774   5.220   3.724   0.853  0.1342 -0.0662  0.4328
 8120TIP3    H145775   5.289   3.773   0.898  0.2634  1.2393 -1.1069
 8120TIP3    H245776   5.266   3.676   0.784 -0.2060 -1.1674  0.9464
 8121TIP3   OH245777   3.785   2.757   2.838  0.7067 -0.3240 -0.1182
 8121TIP3    H145778   3.870   2.736   2.877  0.2421  0.9092  1.6958
 8121TIP3    H245779   3.743   2.672   2.823  1.2397 -0.8780  1.3876
 8122TIP3   OH245780   2.985   1.773  11.417 -0.4876  0.1237 -0.3108
 8122TIP3    H145781   3.050   1.746  11.482  0.4506  0.5533 -1.0503
 8122TIP3    H245782   2.940   1.692  11.393  0.5945 -0.3766 -0.6666
 8123TIP3   OH245783   6.684   4.571   0.993 -0.5562 -0.5791  0.1866
 8123TIP3    H145784   6.702   4.660   1.023 -0.5886 -0.2808 -0.6519
 8123TIP3    H245785   6.748   4.516   1.040  1.2446  0.2104 -1.2226
 8124TIP3   OH245786   3.823   5.252   0.612 -0.5302  0.0725  0.3282
 8124TIP3    H145787   3.833   5.157   0.605 -1.3801 -0.0933  1.2095
 8124TIP3    H245788   3.749   5.265   0.671 -0.6586  1.2872 -0.0547
 8125TIP3   OH245789   6.495   0.181  11.636 -0.0009 -0.0136  0.0723
 8125TIP3    H145790   6.579   0.177  11.682  1.3179 -0.2793 -2.1896
 8125TIP3    H245791   6.429   0.169  11.704  1.8717 -2.2645  1.6160
 8126TIP3   OH245792   0.708   2.528   2.350  0.3708 -0.4240  0.4169
 8126TIP3    H145793   0.618   2.541   2.321 -0.1902 -2.1241  1.2801
 8126TIP3    H245794   0.745   2.616   2.355 -1.3136  0.3202  0.2884
 8127TIP3   OH245795   3.691   3.305   0.205 -0.0277  0.2754  0.3874
 8127TIP3    H145796   3.731   3.295   0.119  0.0134 -0.8373  0.5191
 8127TIP3    H245797   3.724   3.231   0.256 -1.9567 -0.5037  0.5959
 8128TIP3   OH245798   4.189   4.062   5.724  0.5715 -0.1577  0.0845
 8128TIP3    H145799   4.120   4.069   5.657  1.4719  0.4028 -0.8001
 8128TIP3    H245800   4.162   3.987   5.777 -0.6278 -0.0604 -0.3549
 8129TIP3   OH245801   6.225   5.771   3.613  0.7996 -0.4782 -0.4038
 8129TIP3    H145802   6.182   5.696   3.655 -0.4918  0.6695  0.4280
 8129TIP3    H245803   6.232   5.836   3.682  1.6914  0.2685 -1.1690
 8130TIP3   OH245804   0.067   5.597   3.611 -0.6053 -0.1780  0.3396
 8130TIP3    H145805   0.047   5.621   3.521  1.0770 -0.3838 -0.1283
 8130TIP3    H245806   0.051   5.677   3.661 -2.0973 -0.2185 -0.0142
 8131TIP3   OH245807   6.367   3.925  13.399 -0.0185  0.0525  0.1313
 8131TIP3    H145808   6.364   3.945  13.305  0.1259  3.2124  0.6957
 8131TIP3    H245809   6.456   3.894  13.413 -0.5026 -2.0005 -0.9834
 8132TIP3   OH245810   4.002   4.433  13.362 -0.0745  0.0315 -0.1211
 8132TIP3    H145811   3.952   4.396  13.434  0.7009  0.5926  0.7364
 8132TIP3    H245812   3.949   4.417  13.284 -1.1151 -0.2303  0.6276
 8133TIP3   OH245813   4.070   2.662  14.518  0.3410 -0.6745 -0.1545
 8133TIP3    H145814   3.985   2.651  14.560  0.6083  2.1823  1.4010
 8133TIP3    H245815   4.070   2.753  14.487  2.8614 -0.5361  0.0325
 8134TIP3   OH245816   6.513   5.926   5.951  0.2656 -0.5091 -0.2797
 8134TIP3    H145817   6.553   5.845   5.920 -0.0321 -0.5600 -0.5272
 8134TIP3    H245818   6.419   5.908   5.953  0.3821 -1.3149  2.9386
 8135TIP3   OH245819   0.650   5.951   1.586  0.0133 -0.1312 -0.0609
 8135TIP3    H145820   0.589   5.878   1.594 -1.5429  0.9437 -1.2607
 8135TIP3    H245821   0.661   5.983   1.676  0.0833 -1.3226  0.3694
 8136TIP3   OH245822   3.888   5.025  14.121  0.1725  0.7576 -0.4237
 8136TIP3    H145823   3.922   5.102  14.075 -0.1367  1.1795  0.0474
 8136TIP3    H245824   3.808   5.001  14.073 -0.5590  1.6490  0.3357
 8137TIP3   OH245825   2.982   4.542  16.108  0.0272 -0.0610  0.0776
 8137TIP3    H145826   3.053   4.602  16.130 -0.7503  0.3683  1.5222
 8137TIP3    H245827   2.961   4.498  16.190 -0.0271 -1.6699 -0.7688
 8138TIP3   OH245828   3.473   1.242   4.615  0.0227  0.1717  0.0056
 8138TIP3    H145829   3.514   1.310   4.562 -1.5647  1.7619  0.6987
 8138TIP3    H245830   3.383   1.237   4.582  0.1476 -1.8065 -0.1861
 8139TIP3   OH245831   0.334   6.762  16.907  0.2565 -0.5645 -0.3012
 8139TIP3    H145832   0.349   6.727  16.819 -2.3778 -0.4180 -0.8810
 8139TIP3    H245833   0.261   6.710  16.941 -0.6390  1.2426  0.6589
 8140TIP3   OH245834   3.633   1.426  12.870 -0.9637 -0.3252 -0.6036
 8140TIP3    H145835   3.703   1.415  12.807  0.1421  0.5319  0.4102
 8140TIP3    H245836   3.585   1.504  12.840 -1.4131 -0.8310 -1.2196
 8141TIP3   OH245837   6.603   3.176   0.460 -1.0753 -0.0073 -0.3828
 8141TIP3    H145838   6.562   3.130   0.386 -0.4423  0.7562 -1.2316
 8141TIP3    H245839   6.695   3.184   0.434 -1.4125  3.0578 -0.9793
 8142TIP3   OH245840   0.632   3.418   3.249  0.0683 -0.0866 -0.2502
 8142TIP3    H145841   0.717   3.390   3.282 -0.3193  0.1488  1.0159
 8142TIP3    H245842   0.611   3.355   3.180  0.7497 -0.8294  0.2070
 8143TIP3   OH245843   1.336   1.647  12.435 -0.2214  0.3121  0.6075
 8143TIP3    H145844   1.283   1.568  12.422 -0.3108  0.3432  0.7904
 8143TIP3    H245845   1.282   1.718  12.402 -0.6761  0.4622  1.6612
 8144TIP3   OH245846   5.565   5.040  12.242  0.4469  0.3367  0.6992
 8144TIP3    H145847   5.529   5.007  12.325  0.4497  1.2416  1.0712
 8144TIP3    H245848   5.601   4.963  12.199  0.0130 -0.2254  1.3235
 8145TIP3   OH245849   1.691   5.724   6.238  0.7563 -0.1312  0.3103
 8145TIP3    H145850   1.666   5.816   6.238  2.2505  0.3418 -1.7208
 8145TIP3    H245851   1.635   5.685   6.170  0.0301 -0.7968  1.2552
 8146TIP3   OH245852   2.426   3.495  11.932 -0.1235  0.1384 -0.0443
 8146TIP3    H145853   2.448   3.498  11.839  0.0062 -0.0437 -0.0198
 8146TIP3    H245854   2.451   3.581  11.965  1.5063 -0.3968  0.1942
 8147TIP3   OH245855   6.069   5.279  17.097 -0.7513 -0.3015  0.2415
 8147TIP3    H145856   6.101   5.367  17.117 -1.3588 -0.1860  0.7372
 8147TIP3    H245857   6.009   5.290  17.024  1.8309 -0.7858 -2.1124
 8148TIP3   OH245858   1.143   4.606  14.770 -0.4132  0.0401 -0.2826
 8148TIP3    H145859   1.151   4.577  14.679  1.4004  1.3618 -0.5957
 8148TIP3    H245860   1.057   4.648  14.773 -0.4760  0.0343 -1.4064
 8149TIP3   OH245861   0.492   6.277  11.927  0.2011 -0.5467  0.0975
 8149TIP3    H145862   0.463   6.243  12.012 -0.6349 -0.7051 -0.2423
 8149TIP3    H245863   0.584   6.253  11.922 -0.6982 -4.3932 -0.8900
 8150TIP3   OH245864   0.250   5.913   4.266  0.2620 -0.0628 -0.3182
 8150TIP3    H145865   0.226   5.911   4.358  0.2301  1.8864 -0.2423
 8150TIP3    H245866   0.270   5.822   4.244  0.8275 -0.4901  1.7497
 8151TIP3   OH245867   2.051   5.988  11.572 -0.0172 -0.3480  0.6124
 8151TIP3    H145868   1.956   6.002  11.573 -0.0076 -0.2603  1.3585
 8151TIP3    H245869   2.088   6.074  11.590  0.1967 -0.4281  0.5553
 8152TIP3   OH245870   2.984   1.818  15.841 -0.1685  0.2243 -0.0312
 8152TIP3    H145871   2.936   1.860  15.913 -0.4822 -1.0721  0.5527
 8152TIP3    H245872   3.064   1.786  15.881 -0.0791 -0.0070 -0.3927
 8153TIP3   OH245873   1.905   4.234   2.908 -0.3869 -0.4761  0.2850
 8153TIP3    H145874   1.902   4.313   2.962 -1.0688 -0.9199  0.9177
 8153TIP3    H245875   1.951   4.261   2.828  0.0914  0.3464  0.8278
 8154TIP3   OH245876   6.510   2.933  10.924 -0.6269  0.2538  0.5434
 8154TIP3    H145877   6.525   2.855  10.977 -1.9849  1.1211  2.3001
 8154TIP3    H245878   6.430   2.971  10.959 -0.3540  2.1008 -0.6924
 8155TIP3   OH245879   5.542   0.448   4.867 -0.0199 -0.1900  0.5026
 8155TIP3    H145880   5.523   0.355   4.850 -0.5971  0.0520 -0.2092
 8155TIP3    H245881   5.458   0.492   4.856  0.3327  0.4791  0.4311
 8156TIP3   OH245882   6.342   1.357  13.659 -0.2408 -0.6058  0.5532
 8156TIP3    H145883   6.370   1.342  13.749 -0.1793 -1.8357  0.3590
 8156TIP3    H245884   6.415   1.325  13.606  0.5503  1.8827  0.0371
 8157TIP3   OH245885   2.445   2.419  15.895  0.3408  0.4742 -0.3111
 8157TIP3    H145886   2.433   2.368  15.974  0.3791  0.5747 -0.2407
 8157TIP3    H245887   2.365   2.403  15.843 -0.0667  1.0644  0.1158
 8158TIP3   OH245888   4.627   6.348  17.144 -0.1870  0.3887 -0.3515
 8158TIP3    H145889   4.708   6.392  17.170  0.0152  0.1196 -0.5185
 8158TIP3    H245890   4.654   6.287  17.076 -0.5655  0.4374 -0.5475
 8159TIP3   OH245891   1.960   6.756  13.692  0.4086  0.0239  0.0642
 8159TIP3    H145892   2.031   6.819  13.683  1.1599 -0.5184  1.7681
 8159TIP3    H245893   1.958   6.735  13.785 -3.0519  1.1862  0.3861
 8160TIP3   OH245894   5.693   4.978  14.112 -0.2727  0.2796  0.2627
 8160TIP3    H145895   5.730   5.051  14.161 -1.4712 -0.6958  2.7677
 8160TIP3    H245896   5.648   5.019  14.038 -1.8798  2.2368  2.2088
 8161TIP3   OH245897   0.849   1.955  17.368 -0.6698  0.0065  0.1446
 8161TIP3    H145898   0.783   1.886  17.355 -0.6711  0.1593 -0.7365
 8161TIP3    H245899   0.922   1.911  17.412 -0.6177 -0.5898 -0.5226
 8162TIP3   OH245900   0.508   5.061  15.155  0.2218 -0.5697 -0.1558
 8162TIP3    H145901   0.486   4.979  15.110 -0.3675 -1.3025  1.4108
 8162TIP3    H245902   0.555   5.112  15.089 -2.4694 -0.6745 -2.3445
 8163TIP3   OH245903   4.875   3.554   4.932 -0.3215 -0.1496  0.1640
 8163TIP3    H145904   4.962   3.529   4.964 -0.5585 -0.7317  0.3677
 8163TIP3    H245905   4.817   3.485   4.965 -0.6118 -0.6465 -1.3377
 8164TIP3   OH245906   5.055   1.423  13.888  0.0691  0.5505  0.3108
 8164TIP3    H145907   5.070   1.478  13.965 -1.4135  1.1082  0.2423
 8164TIP3    H245908   4.995   1.355  13.918 -0.2654  0.5820 -0.2711
 8165TIP3   OH245909   3.661   5.889   0.747  0.4072  0.0698 -0.2568
 8165TIP3    H145910   3.622   5.802   0.739  2.1446 -0.8159  0.4674
 8165TIP3    H245911   3.691   5.894   0.838  2.3852  0.4899 -0.8746
 8166TIP3   OH245912   0.239   0.620  15.786  0.7203 -0.4311  0.4111
 8166TIP3    H145913   0.298   0.546  15.800  0.5564 -0.9261 -1.3565
 8166TIP3    H245914   0.154   0.580  15.770  0.5598  0.1552 -0.2110
 8167TIP3   OH245915   1.092   3.192   1.154  0.0150 -0.4455 -0.0855
 8167TIP3    H145916   1.075   3.272   1.106 -0.4309 -0.3940  0.1500
 8167TIP3    H245917   1.021   3.187   1.219 -0.4056 -1.4222 -0.5976
 8168TIP3   OH245918   1.345   5.364   3.869 -0.2036  0.1493 -0.4230
 8168TIP3    H145919   1.320   5.443   3.916 -0.7728 -0.5320  0.4589
 8168TIP3    H245920   1.441   5.363   3.875 -0.2267  0.4530  0.1065
 8169TIP3   OH245921   6.103   1.592   4.056  0.0488 -0.1677  0.1313
 8169TIP3    H145922   6.092   1.618   4.147  0.4288 -0.0119  0.1395
 8169TIP3    H245923   6.122   1.499   4.059  2.5235  0.2595  0.4420
 8170TIP3   OH245924   6.479   3.606  16.448 -0.3530 -0.1004 -0.3651
 8170TIP3    H145925   6.503   3.546  16.518  1.1969 -0.6382 -1.2896
 8170TIP3    H245926   6.563   3.642  16.418 -0.8389 -0.5137 -2.4356
 8171TIP3   OH245927   0.018   3.476   0.695  0.0739  0.6032 -0.1738
 8171TIP3    H145928   0.068   3.410   0.647 -1.9650  0.9520 -3.0274
 8171TIP3    H245929   0.078   3.551   0.701  1.3564 -0.4160  0.4124
 8172TIP3   OH245930   0.066   0.491  15.516 -0.0238  0.3121 -0.8206
 8172TIP3    H145931  -0.022   0.529  15.516 -1.2274 -2.2561 -2.1742
 8172TIP3    H245932   0.052   0.398  15.502  2.9865 -0.0801 -1.8994
 8173TIP3   OH245933   5.589   2.095  13.593 -0.1224 -0.1292 -0.2879
 8173TIP3    H145934   5.612   2.124  13.505  0.0703 -0.1262 -0.2353
 8173TIP3    H245935   5.527   2.161  13.624 -0.1403 -0.0946 -0.3951
 8174TIP3   OH245936   0.397   5.966  12.571 -0.2010  0.0135  1.1443
 8174TIP3    H145937   0.310   5.930  12.556  1.0400 -2.8057 -0.1252
 8174TIP3    H245938   0.445   5.949  12.489  1.4683  1.8395  1.6447
 8175TIP3   OH245939   6.434   4.348  11.254  0.0041 -0.1699 -0.0603
 8175TIP3    H145940   6.426   4.397  11.172  2.0498 -1.4529 -1.1146
 8175TIP3    H245941   6.411   4.258  11.230  0.3237 -0.5002  0.8342
 8176TIP3   OH245942   1.411   4.769   5.068 -0.3947  0.1175 -0.2987
 8176TIP3    H145943   1.493   4.780   5.116  0.2788  1.0192 -1.6001
 8176TIP3    H245944   1.361   4.849   5.086  0.2728  0.9256 -1.7921
 8177TIP3   OH245945   5.397   6.613   3.470 -0.3305  0.0628  0.2879
 8177TIP3    H145946   5.452   6.556   3.415 -1.1263 -0.4729  0.0353
 8177TIP3    H245947   5.456   6.644   3.538  0.2055 -0.7985  0.2316
 8178TIP3   OH245948   3.037   5.528  15.486 -0.1813  0.3090  0.2546
 8178TIP3    H145949   2.954   5.506  15.529 -0.0375 -1.6228 -0.3355
 8178TIP3    H245950   3.087   5.576  15.552 -1.7752  1.5914  0.5887
 8179TIP3   OH245951   0.371   0.088   2.706 -0.0151  0.0690 -0.1286
 8179TIP3    H145952   0.347   0.181   2.703 -0.0225  0.1354  1.4518
 8179TIP3    H245953   0.384   0.069   2.799  2.7602 -0.8065 -0.5844
 8180TIP3   OH245954   5.839   2.711  17.346  0.4786  0.1232 -0.1210
 8180TIP3    H145955   5.865   2.710  17.254 -2.0936  1.0480 -0.9553
 8180TIP3    H245956   5.831   2.804  17.367 -1.4231 -0.0515  0.1835
 8181TIP3   OH245957   2.925   2.863  12.470 -1.0691  0.2068  0.6978
 8181TIP3    H145958   2.841   2.837  12.431  0.0811 -1.5854 -0.7486
 8181TIP3    H245959   2.950   2.788  12.524  0.3865 -0.0270 -0.2575
 8182TIP3   OH245960   3.871   6.472   1.661 -0.3844 -0.3084  0.2809
 8182TIP3    H145961   3.822   6.536   1.712 -1.1386  0.0958 -0.9134
 8182TIP3    H245962   3.849   6.491   1.570 -0.4005 -2.0857 -0.1284
 8183TIP3   OH245963   0.248   1.112   0.476  0.5488  0.6198 -0.7137
 8183TIP3    H145964   0.251   1.054   0.400  1.7251  2.4401 -2.1458
 8183TIP3    H245965   0.156   1.140   0.482  0.0029 -1.1749 -0.1016
 8184TIP3   OH245966   1.859   3.550   0.176 -0.6179 -0.1603 -0.0857
 8184TIP3    H145967   1.793   3.598   0.227  0.1061  0.2638  0.4669
 8184TIP3    H245968   1.918   3.618   0.143 -0.4906 -0.5333 -0.6428
 8185TIP3   OH245969   0.051   5.777  13.543  0.2050  0.1790  0.1041
 8185TIP3    H145970   0.139   5.766  13.581  0.0991 -0.4801  0.1751
 8185TIP3    H245971  -0.008   5.738  13.607 -0.0346 -0.3610 -0.4334
 8186TIP3   OH245972   1.831   2.721   2.928 -0.5493 -0.3722 -0.3459
 8186TIP3    H145973   1.845   2.814   2.910  0.6035 -0.6198 -0.7954
 8186TIP3    H245974   1.917   2.681   2.919 -0.9786 -1.4506  0.1123
 8187TIP3   OH245975   0.979   1.467  16.944 -0.3985  0.4218  0.6569
 8187TIP3    H145976   1.035   1.541  16.965  0.5007 -0.0339 -0.0478
 8187TIP3    H245977   0.990   1.407  17.018  1.7787 -0.6183 -0.3905
 8188TIP3   OH245978   5.890   5.475  13.891 -0.0339  0.1853 -0.2289
 8188TIP3    H145979   5.963   5.425  13.929 -1.4738 -1.4043  0.5950
 8188TIP3    H245980   5.845   5.514  13.965 -2.0011 -1.7208 -0.3104
 8189TIP3   OH245981   5.817   5.882  16.439 -0.9448 -0.2623 -0.1204
 8189TIP3    H145982   5.770   5.867  16.357  0.7177 -2.6733 -0.7303
 8189TIP3    H245983   5.886   5.816  16.440 -0.0845  0.5368  2.6340
 8190TIP3   OH245984   3.203   6.190  10.755 -0.4004 -0.9654 -0.4045
 8190TIP3    H145985   3.293   6.174  10.726  0.3385 -0.2216  1.3582
 8190TIP3    H245986   3.150   6.163  10.680  1.2307 -2.1307 -1.2350
 8191TIP3   OH245987   4.484   5.520   3.228 -0.7063  0.0261 -0.3889
 8191TIP3    H145988   4.536   5.471   3.292 -0.9252 -1.7760 -1.5170
 8191TIP3    H245989   4.541   5.590   3.198 -0.1526  0.1215  0.8416
 8192TIP3   OH245990   4.675   3.089  16.050  0.3039 -0.1776 -0.0615
 8192TIP3    H145991   4.637   3.100  15.963  1.2939 -2.7452 -0.9131
 8192TIP3    H245992   4.770   3.098  16.036  0.7679 -3.4338  0.0623
 8193TIP3   OH245993   3.656   6.026   6.712  0.2058 -0.0816  0.0412
 8193TIP3    H145994   3.569   6.034   6.750 -0.6166  0.0759 -1.7835
 8193TIP3    H245995   3.715   6.027   6.787 -1.3909 -0.9404  1.3696
 8194TIP3   OH245996   6.217   5.504  17.134 -0.1945  0.3680 -0.1856
 8194TIP3    H145997   6.241   5.496  17.226  0.7861 -0.0207 -0.4651
 8194TIP3    H245998   6.276   5.571  17.100 -0.9964  0.9877 -0.3877
 8195TIP3   OH245999   3.355   2.158   5.886 -0.1920  0.4331 -0.1595
 8195TIP3    H146000   3.316   2.096   5.824  2.1447 -0.3856 -0.9471
 8195TIP3    H246001   3.341   2.117   5.972 -0.0116 -0.4458 -0.5321
 8196TIP3   OH246002   4.747   6.181  16.966 -0.4510  0.1666 -0.1566
 8196TIP3    H146003   4.673   6.122  16.954  0.4293 -0.6983 -1.7172
 8196TIP3    H246004   4.737   6.247  16.896 -0.1051  0.4276  0.0364
 8197TIP3   OH246005   3.392   3.185   3.182 -0.2767  0.2940 -0.4584
 8197TIP3    H146006   3.443   3.222   3.111 -1.5213  4.4199  0.5235
 8197TIP3    H246007   3.436   3.214   3.262 -1.2083 -0.6671  0.4488
 8198TIP3   OH246008   6.707   3.414  17.171  0.5523 -0.2345 -0.5076
 8198TIP3    H146009   6.674   3.403  17.260 -0.0964 -0.7962 -0.8002
 8198TIP3    H246010   6.801   3.429  17.180  0.4933 -0.3357  0.2625
 8199TIP3   OH246011   3.070   0.248   3.261 -0.1417  0.1439 -0.0632
 8199TIP3    H146012   3.039   0.167   3.221 -2.0944  0.8719 -0.1061
 8199TIP3    H246013   3.138   0.279   3.201 -0.0996 -0.9251 -0.5945
 8200TIP3   OH246014   4.682   1.925   2.277 -0.5582 -0.0492  0.3607
 8200TIP3    H146015   4.657   1.974   2.198 -0.4621  2.4726  1.7899
 8200TIP3    H246016   4.690   1.992   2.345  2.0698 -1.7517  1.9116
 8201TIP3   OH246017   0.906   4.807   5.025 -0.2490 -0.3600 -0.1970
 8201TIP3    H146018   0.913   4.751   5.103  1.4622 -1.5166 -1.1029
 8201TIP3    H246019   0.955   4.760   4.958  1.4085  2.2883 -0.9912
 8202TIP3   OH246020   3.091   3.669  11.868 -0.1867  0.2392  0.6633
 8202TIP3    H146021   3.096   3.739  11.804 -1.9048 -0.1745  0.0061
 8202TIP3    H246022   3.161   3.608  11.844  0.4365  1.0563  0.4029
 8203TIP3   OH246023   5.492   0.328   1.274 -0.1984 -0.4544  0.2159
 8203TIP3    H146024   5.414   0.283   1.242 -1.4092  1.2390  0.6165
 8203TIP3    H246025   5.463   0.417   1.292  1.5675 -0.0548  1.4576
 8204TIP3   OH246026   2.657   5.833  14.206 -0.3642 -0.1615 -0.3282
 8204TIP3    H146027   2.676   5.750  14.161 -2.5354 -0.3859 -0.9244
 8204TIP3    H246028   2.712   5.897  14.160 -0.2867 -0.9093 -1.3204
 8205TIP3   OH246029   3.805   3.272  12.824 -0.4792  0.0482 -0.0835
 8205TIP3    H146030   3.803   3.194  12.880  0.9385  0.5148  0.6921
 8205TIP3    H246031   3.890   3.267  12.781 -0.2426  1.2950  0.1986
 8206TIP3   OH246032   5.148   5.446   2.759 -0.1501 -0.1747 -0.0225
 8206TIP3    H146033   5.139   5.439   2.664  0.3295 -1.2274 -0.0102
 8206TIP3    H246034   5.065   5.484   2.789 -0.6745 -0.6890 -0.7827
 8207TIP3   OH246035   4.600   4.292   5.399  0.0733  0.1066  0.3117
 8207TIP3    H146036   4.524   4.236   5.385 -1.2329  2.0014 -0.5751
 8207TIP3    H246037   4.674   4.241   5.363 -1.0659 -0.9746 -0.5863
 8208TIP3   OH246038   3.649   5.349   3.332  0.3763  0.0642  0.5716
 8208TIP3    H146039   3.617   5.423   3.384  0.2476  0.8802 -0.6403
 8208TIP3    H246040   3.597   5.275   3.363 -1.8409  1.1056 -0.4192
 8209TIP3   OH246041   1.547   6.495  15.410  0.5059 -0.1154 -0.1188
 8209TIP3    H146042   1.543   6.496  15.315  0.1112 -1.0181 -0.1142
 8209TIP3    H246043   1.455   6.499  15.438  0.6423  0.7628  0.2367
 8210TIP3   OH246044   4.113   5.798   2.228  0.6554 -0.3483  0.1952
 8210TIP3    H146045   4.054   5.761   2.162  1.1587  1.1237 -1.1351
 8210TIP3    H246046   4.055   5.827   2.298  0.0115 -1.0301 -0.0441
 8211TIP3   OH246047   2.441   5.924  13.574 -0.0941  0.9363  0.8144
 8211TIP3    H146048   2.377   5.936  13.503  0.7116  0.5346  0.0016
 8211TIP3    H246049   2.435   5.831  13.596 -1.0291  1.2423  1.9685
 8212TIP3   OH246050   1.253   1.577  11.231  0.2813 -0.1950 -0.4749
 8212TIP3    H146051   1.190   1.507  11.244  1.3709 -0.8457  1.8468
 8212TIP3    H246052   1.333   1.533  11.203  0.5393  0.2803 -0.5063
 8213TIP3   OH246053   3.462   1.310  16.742  0.0688 -0.3885  0.4913
 8213TIP3    H146054   3.404   1.312  16.818  0.5442  1.2896  0.8658
 8213TIP3    H246055   3.548   1.291  16.779  0.5340  1.6668  0.6204
 8214TIP3   OH246056   5.938   2.513  15.266 -0.4366  0.3551 -0.7388
 8214TIP3    H146057   5.846   2.486  15.260 -0.1030 -0.7309 -1.1725
 8214TIP3    H246058   5.965   2.484  15.353 -0.8574  1.8962 -0.0552
 8215TIP3   OH246059   6.284   2.926  16.438 -0.3175  0.0206  0.0567
 8215TIP3    H146060   6.325   2.893  16.517  0.8340  0.0055 -0.5239
 8215TIP3    H246061   6.237   2.851  16.402 -1.6671  0.2743  1.2069
 8216TIP3   OH246062   5.368   4.416   5.042 -0.0416 -0.1070 -0.3487
 8216TIP3    H146063   5.282   4.414   5.083  0.5067 -0.7852  0.7924
 8216TIP3    H246064   5.372   4.336   4.989 -0.0072 -0.2112 -0.1877
 8217TIP3   OH246065   0.224   5.016   1.347 -0.0012  0.0337  0.6256
 8217TIP3    H146066   0.242   5.105   1.376  3.0477  0.6323 -2.3771
 8217TIP3    H246067   0.288   4.962   1.394 -0.0132 -0.1301  0.4562
 8218TIP3   OH246068   2.664   3.088  11.594  0.6765 -0.9207  0.6277
 8218TIP3    H146069   2.731   3.077  11.662 -1.1923  2.1850  3.2756
 8218TIP3    H246070   2.643   3.181  11.596 -2.2185 -1.3681 -1.6135
 8219TIP3   OH246071   5.594   2.044  17.028  0.4279  1.0362 -1.1402
 8219TIP3    H146072   5.682   2.037  17.066 -0.1398 -0.1089  0.0273
 8219TIP3    H246073   5.593   1.979  16.958 -0.1234 -0.4435  0.1927
 8220TIP3   OH246074   4.397   5.587   0.929  0.1502  0.3853  0.1374
 8220TIP3    H146075   4.474   5.532   0.943 -0.8255 -0.5818  2.1374
 8220TIP3    H246076   4.356   5.551   0.850  0.3511 -0.8081  0.5522
 8221TIP3   OH246077   0.813   6.383  10.843  0.4825 -0.0434 -0.3204
 8221TIP3    H146078   0.770   6.307  10.881 -0.8636  0.0906 -1.4547
 8221TIP3    H246079   0.905   6.358  10.834  0.2926 -1.0646  0.4226
 8222TIP3   OH246080   1.943   1.451   5.220  1.0508 -0.1490 -0.3894
 8222TIP3    H146081   1.865   1.439   5.167 -0.1884  0.6932  1.1506
 8222TIP3    H246082   1.981   1.364   5.227  0.9260 -0.3881 -2.1016
 8223TIP3   OH246083   1.029   4.439  11.473  0.0837  0.0172  0.3427
 8223TIP3    H146084   0.983   4.406  11.395 -1.2031 -0.2933  1.2114
 8223TIP3    H246085   1.091   4.370  11.495  1.4596  0.6882 -1.1851
 8224TIP3   OH246086   5.859   3.161  13.072 -0.5461 -0.4246 -0.2257
 8224TIP3    H146087   5.788   3.223  13.061  0.6136  0.6428 -2.4422
 8224TIP3    H246088   5.922   3.205  13.129 -0.9510 -0.7313  0.4662
 8225TIP3   OH246089   6.528   3.425   0.042  0.6986  0.4726  0.2104
 8225TIP3    H146090   6.472   3.499   0.065  0.1300  0.4838 -1.1055
 8225TIP3    H246091   6.482   3.349   0.077 -0.5815  0.4012 -1.4624
 8226TIP3   OH246092   2.359   3.979  14.311  0.1660  0.0107  0.3833
 8226TIP3    H146093   2.408   3.900  14.332  0.6140  0.2385  0.2292
 8226TIP3    H246094   2.281   3.975  14.365  0.1425 -0.5792  0.3095
 8227TIP3   OH246095   0.067   3.703   3.790  0.0042  0.6443  0.0583
 8227TIP3    H146096   0.125   3.713   3.866 -0.6162  1.0751  0.4953
 8227TIP3    H246097   0.098   3.769   3.728  1.0966 -0.3342 -0.4542
 8228TIP3   OH246098   3.416   5.751  11.681  0.4600  0.4678  0.1445
 8228TIP3    H146099   3.486   5.815  11.697  0.3086  1.0715 -1.4490
 8228TIP3    H246100   3.362   5.755  11.760  2.4982 -0.4220  1.6565
 8229TIP3   OH246101   1.567   6.443   2.322  0.2600 -0.1871  0.6539
 8229TIP3    H146102   1.628   6.516   2.336  0.4234 -0.2277  0.1498
 8229TIP3    H246103   1.501   6.454   2.392  1.1028 -0.4350  1.5070
 8230TIP3   OH246104   3.955   1.360   6.182 -0.1278 -0.5445 -0.3431
 8230TIP3    H146105   3.987   1.304   6.253 -1.2508 -0.6520  0.0972
 8230TIP3    H246106   3.865   1.331   6.167 -0.1594 -0.0077 -1.2980
 8231TIP3   OH246107   0.714   6.006   3.826  0.9858  0.4997  0.7313
 8231TIP3    H146108   0.681   6.036   3.911 -2.5197 -2.0710  0.4691
 8231TIP3    H246109   0.760   5.925   3.846  0.3890  0.0329  0.2505
 8232TIP3   OH246110   6.071   5.888   6.535  0.0484  0.0990 -0.2502
 8232TIP3    H146111   6.072   5.811   6.477  1.0187  0.0712 -0.2221
 8232TIP3    H246112   5.984   5.887   6.575  0.2627 -1.3671  0.2448
 8233TIP3   OH246113   3.776   5.103  11.682  0.1902  0.0976 -0.2864
 8233TIP3    H146114   3.814   5.187  11.706 -1.5932  0.7582  0.4486
 8233TIP3    H246115   3.786   5.049  11.761 -2.0746  0.9396  0.6573
 8234TIP3   OH246116   3.451   2.420  13.977  0.1666 -0.3128 -0.2274
 8234TIP3    H146117   3.467   2.326  13.976  0.4347 -0.4009  2.6300
 8234TIP3    H246118   3.356   2.429  13.971  0.1235 -0.7852 -0.2845
 8235TIP3   OH246119   0.477   5.044  16.560  0.4650 -0.0188 -0.1252
 8235TIP3    H146120   0.564   5.079  16.577  0.7319 -0.8855  0.3536
 8235TIP3    H246121   0.460   4.985  16.633 -0.3543 -0.1820 -0.4309
 8236TIP3   OH246122   4.936   1.924  14.545 -0.2863  0.3371  0.2652
 8236TIP3    H146123   4.915   1.987  14.476 -1.2505  0.6428  0.8053
 8236TIP3    H246124   4.910   1.969  14.626  1.0414  0.0875  0.8601
 8237TIP3   OH246125   5.694   6.070  11.983 -0.5538 -0.0403 -0.0674
 8237TIP3    H146126   5.629   6.131  11.949 -3.2665 -2.0137  1.2072
 8237TIP3    H246127   5.721   6.019  11.907 -0.0455  1.1133 -0.6975
 8238TIP3   OH246128   5.295   1.447  11.718  0.0746  0.0357 -0.2514
 8238TIP3    H146129   5.359   1.378  11.738 -0.6698 -0.4607  0.5109
 8238TIP3    H246130   5.221   1.428  11.776 -0.8830  0.4258 -1.3078
 8239TIP3   OH246131   6.323   0.623  11.795 -0.3418 -0.0585  0.4389
 8239TIP3    H146132   6.246   0.675  11.773 -0.0224  0.0418 -0.4964
 8239TIP3    H246133   6.396   0.684  11.786  0.0619 -0.7045 -0.9114
 8240TIP3   OH246134   1.165   3.753   2.776  0.2366 -0.8392  0.2250
 8240TIP3    H146135   1.113   3.677   2.752 -2.3489  0.6327  0.8010
 8240TIP3    H246136   1.104   3.811   2.821  1.7941  2.0343 -1.0738
 8241TIP3   OH246137   6.645   5.246  15.669 -0.5163 -0.3128  0.2199
 8241TIP3    H146138   6.679   5.163  15.636 -1.1230 -0.2061 -0.7184
 8241TIP3    H246139   6.672   5.249  15.761  0.8738 -0.8103 -0.1537
 8242TIP3   OH246140   0.969   2.363  11.549  0.0927  0.2778  0.0606
 8242TIP3    H146141   1.063   2.378  11.540  0.0772  0.2990 -0.0679
 8242TIP3    H246142   0.961   2.269  11.568  0.2796  0.6559  2.2001
 8243TIP3   OH246143   2.493   6.012   4.580  0.1536  0.2783  0.0335
 8243TIP3    H146144   2.446   6.066   4.517 -0.8183  1.4137  1.6738
 8243TIP3    H246145   2.577   6.056   4.591 -0.0699  0.6382  0.2894
 8244TIP3   OH246146   4.679   1.960   0.623  0.6211 -0.0035 -0.5260
 8244TIP3    H146147   4.604   2.021   0.625  0.8012  0.2490 -1.1917
 8244TIP3    H246148   4.654   1.894   0.558  1.6153  0.9440 -1.9249
 8245TIP3   OH246149   3.801   5.048   0.240 -0.2695 -0.1704  0.1716
 8245TIP3    H146150   3.807   5.020   0.148 -1.2421 -2.2555  0.6783
 8245TIP3    H246151   3.768   5.137   0.235  1.8019  0.5905 -1.5437
 8246TIP3   OH246152   0.435   2.390  12.431 -0.4944 -0.5564  0.2899
 8246TIP3    H146153   0.466   2.316  12.379  1.6503  0.6828 -0.3399
 8246TIP3    H246154   0.371   2.434  12.375 -0.8919 -1.2499  0.1878
 8247TIP3   OH246155   4.522   2.675  16.582  0.5363  0.1075 -0.1912
 8247TIP3    H146156   4.559   2.718  16.505 -1.1985  1.6097 -0.2655
 8247TIP3    H246157   4.571   2.712  16.656  0.7929  0.2641 -0.4397
 8248TIP3   OH246158   4.974   2.806  12.346  0.2659  0.0305  0.3585
 8248TIP3    H146159   5.056   2.851  12.326  0.0702 -0.0674 -0.7203
 8248TIP3    H246160   4.960   2.823  12.439  0.8883  1.0818  0.2842
 8249TIP3   OH246161   0.224   5.372   1.962 -0.3691 -0.2728  0.2493
 8249TIP3    H146162   0.201   5.316   2.036  0.8604  1.1316  1.7836
 8249TIP3    H246163   0.287   5.435   1.998 -0.7655  1.3408 -1.6677
 8250TIP3   OH246164   1.457   3.693  13.876 -0.4614  0.4701 -0.3439
 8250TIP3    H146165   1.499   3.652  13.800 -0.1380  1.1480 -0.5293
 8250TIP3    H246166   1.529   3.718  13.933 -0.5711  1.9612 -0.8284
 8251TIP3   OH246167   3.329   1.003  10.541 -0.3494 -0.3531  0.0616
 8251TIP3    H146168   3.414   1.040  10.515  0.9281 -1.5082  2.2086
 8251TIP3    H246169   3.332   0.913  10.510 -0.1499 -0.8037  1.3197
 8252TIP3   OH246170   1.585   3.404   3.998  0.1508  0.2954  0.0208
 8252TIP3    H146171   1.610   3.403   3.905 -1.0840 -0.6103 -0.3200
 8252TIP3    H246172   1.490   3.416   3.997  0.2747  1.6132  1.2271
 8253TIP3   OH246173   1.836   6.707  14.886  0.3307  0.1282  0.5209
 8253TIP3    H146174   1.831   6.759  14.805 -0.3537 -2.3309 -1.1296
 8253TIP3    H246175   1.746   6.705  14.918  0.6100  1.1428  1.4440
 8254TIP3   OH246176   1.828   6.329   5.887  0.3337 -0.0085  0.6038
 8254TIP3    H146177   1.823   6.313   5.793  1.8347 -1.2463  0.6916
 8254TIP3    H246178   1.751   6.382   5.907  0.4450  1.0415 -1.4728
 8255TIP3   OH246179   3.336   6.011   5.072 -0.2992 -0.1708  0.3262
 8255TIP3    H146180   3.261   5.959   5.042  0.1201  0.0339 -1.1857
 8255TIP3    H246181   3.310   6.044   5.158 -1.1996 -1.5891  0.6207
 8256TIP3   OH246182   3.484   5.626   4.435  0.3564 -0.1168  0.3563
 8256TIP3    H146183   3.507   5.710   4.394  1.3251 -0.1409  0.8116
 8256TIP3    H246184   3.546   5.618   4.507  0.1526 -1.1427  0.4250
 8257TIP3   OH246185   2.826   1.621  13.129  0.0105 -0.0446 -0.0643
 8257TIP3    H146186   2.851   1.711  13.108 -0.4338 -0.0805 -0.7714
 8257TIP3    H246187   2.832   1.574  13.046 -0.3367 -0.5291  0.1770
 8258TIP3   OH246188   4.575   3.138   5.669 -0.1988 -0.4365  0.5082
 8258TIP3    H146189   4.506   3.179   5.617 -1.1208 -1.9996  0.4311
 8258TIP3    H246190   4.554   3.161   5.760 -0.4993 -0.4591  0.4437
 8259TIP3   OH246191   2.094   2.525  11.895 -0.6035 -0.3763  0.4503
 8259TIP3    H146192   2.127   2.442  11.930 -1.5166 -1.2599 -0.6984
 8259TIP3    H246193   2.159   2.553  11.831  0.0537  0.1826  1.3398
 8260TIP3   OH246194   5.252   0.650  16.871 -0.1703  0.0911  0.0929
 8260TIP3    H146195   5.220   0.719  16.931 -1.4982 -1.4244  1.2316
 8260TIP3    H246196   5.335   0.622  16.910 -0.5839 -0.2654  0.7432
 8261TIP3   OH246197   3.574   4.093   4.575 -0.1222  0.3964  0.2551
 8261TIP3    H146198   3.529   4.066   4.495 -1.3150 -0.2392  1.1069
 8261TIP3    H246199   3.559   4.188   4.581  0.1454  0.4786 -0.3743
 8262TIP3   OH246200   5.605   4.547   0.238 -0.0327 -0.1065  0.5693
 8262TIP3    H146201   5.586   4.494   0.316  1.0623  0.8262  1.4948
 8262TIP3    H246202   5.669   4.611   0.267 -0.3928  0.9460 -0.8495
 8263TIP3   OH246203   2.152   5.313   4.177 -0.2795  0.2808  0.1371
 8263TIP3    H146204   2.093   5.278   4.111 -0.1090 -0.3953  0.3414
 8263TIP3    H246205   2.165   5.404   4.151  3.4822 -0.9763 -3.5816
 8264TIP3   OH246206   4.545   3.525  16.337  0.1688 -0.7223  0.7400
 8264TIP3    H146207   4.524   3.433  16.350 -0.8812 -0.5835  0.2146
 8264TIP3    H246208   4.511   3.569  16.415  2.0525 -0.9334  1.7267
 8265TIP3   OH246209   2.103   4.016  15.177 -0.0848 -0.3217 -0.3027
 8265TIP3    H146210   2.086   3.954  15.248 -1.0462  0.3078  0.0332
 8265TIP3    H246211   2.181   4.063  15.205  1.8200 -2.5911 -1.4169
 8266TIP3   OH246212   1.762   3.995  12.194 -0.3806  0.1786  0.4811
 8266TIP3    H146213   1.685   4.024  12.144 -0.8667  0.3710  1.3027
 8266TIP3    H246214   1.837   4.026  12.144 -0.5931 -3.4847 -2.5538
 8267TIP3   OH246215   3.384   5.248  12.194 -0.1014 -0.7959  0.0277
 8267TIP3    H146216   3.360   5.174  12.138  0.0360  0.8705 -2.3656
 8267TIP3    H246217   3.319   5.246  12.265 -1.7721 -1.6323 -1.4428
 8268TIP3   OH246218   4.438   5.675   4.423 -0.5798 -0.2663 -0.8781
 8268TIP3    H146219   4.408   5.618   4.352 -3.3911 -0.1852  0.1081
 8268TIP3    H246220   4.401   5.636   4.502 -0.3031  1.4463  0.1508
 8269TIP3   OH246221   3.307   2.146  15.772 -0.3776 -0.3068 -0.2170
 8269TIP3    H146222   3.234   2.089  15.797 -0.6368 -0.3243 -0.9894
 8269TIP3    H246223   3.280   2.233  15.804 -0.1799 -0.5285  0.5716
 8270TIP3   OH246224   1.631   0.793   1.248 -0.0779 -0.1199  0.3525
 8270TIP3    H146225   1.639   0.806   1.342  1.8474 -1.3449  0.4154
 8270TIP3    H246226   1.602   0.702   1.238  0.7770 -0.3380 -0.2404
 8271TIP3   OH246227   2.661   5.650  10.618  0.1652 -0.3627  0.3176
 8271TIP3    H146228   2.648   5.711  10.691  1.5949 -2.0228  2.0806
 8271TIP3    H246229   2.755   5.654  10.600 -0.1753  0.0741 -1.5547
 8272TIP3   OH246230   3.139   3.746  13.065 -0.3708 -0.6873 -0.4637
 8272TIP3    H146231   3.089   3.694  13.002 -0.3030 -0.8824 -0.3556
 8272TIP3    H246232   3.098   3.729  13.149 -1.1577  0.4253 -0.6004
 8273TIP3   OH246233   4.491   1.754   2.749  0.1394 -0.1896 -0.1897
 8273TIP3    H146234   4.533   1.695   2.812  0.3988 -0.3887 -0.5426
 8273TIP3    H246235   4.472   1.833   2.799 -1.1199 -0.9228  0.5618
 8274TIP3   OH246236   4.674   6.738   6.045  0.8450 -0.8253  0.2312
 8274TIP3    H146237   4.671   6.802   6.116 -0.2721  1.1009 -1.4424
 8274TIP3    H246238   4.767   6.725   6.028  1.1173  1.1787 -0.0385
 8275TIP3   OH246239   2.637   5.475  10.408  0.1443  0.0127 -0.6486
 8275TIP3    H146240   2.726   5.443  10.394 -0.0262 -0.3414 -0.9541
 8275TIP3    H246241   2.646   5.547  10.470  0.5846 -0.3957 -0.2234
 8276TIP3   OH246242   4.449   1.808  14.340  0.7462  0.1939  0.3614
 8276TIP3    H146243   4.356   1.788  14.340 -0.2969  4.1181  0.8266
 8276TIP3    H246244   4.476   1.801  14.432  1.2717 -1.9645  0.0916
 8277TIP3   OH246245   2.960   6.014  13.761 -1.0835 -0.3195 -0.3194
 8277TIP3    H146246   2.979   5.951  13.691 -0.7755 -0.5614 -0.0220
 8277TIP3    H246247   3.046   6.039  13.795 -0.9429  2.6118 -2.4307
 8278TIP3   OH246248   2.018   1.626  13.981  0.0614 -0.1032  0.0090
 8278TIP3    H146249   1.936   1.615  13.932 -0.2948 -0.5327  0.6931
 8278TIP3    H246250   2.077   1.561  13.943  0.1046  0.2267 -0.5055
 8279TIP3   OH246251   5.298   5.098   0.026  0.4453  0.5898 -0.1549
 8279TIP3    H146252   5.291   5.093   0.122  0.2991 -0.7353 -0.2281
 8279TIP3    H246253   5.210   5.123  -0.003  0.3630  0.5033  0.0216
 8280TIP3   OH246254   3.780   0.038   0.948  0.8449  0.0138  0.0530
 8280TIP3    H146255   3.701   0.078   0.986  0.6831 -0.5425  0.3157
 8280TIP3    H246256   3.747  -0.037   0.898  1.3131 -1.1261  1.3958
 8281TIP3   OH246257   4.785   1.877   5.494 -0.1783  0.1503  0.6669
 8281TIP3    H146258   4.834   1.951   5.531 -1.3637  1.5560 -0.4562
 8281TIP3    H246259   4.751   1.910   5.411 -0.6031 -1.7399  0.0408
 8282TIP3   OH246260   0.477   1.565   0.171 -0.0878  0.3398 -0.2499
 8282TIP3    H146261   0.525   1.615   0.105  1.3438  2.2335  2.0818
 8282TIP3    H246262   0.445   1.631   0.232 -2.1810 -1.2637  0.4873
 8283TIP3   OH246263   4.123   1.640  16.175 -0.0859 -0.2534 -0.1304
 8283TIP3    H146264   4.176   1.577  16.224  0.0272 -1.5408 -1.8001
 8283TIP3    H246265   4.052   1.663  16.235  1.8931  0.9381  1.8815
 8284TIP3   OH246266   3.026   0.039  16.130  0.2609  0.0249 -0.0250
 8284TIP3    H146267   2.955   0.052  16.068  0.9813  1.5367 -0.5939
 8284TIP3    H246268   2.983   0.022  16.214 -0.7294 -1.2165 -0.7543
 8285TIP3   OH246269   3.978   0.685  12.911  0.1902 -0.4088 -0.0051
 8285TIP3    H146270   4.000   0.752  12.847  0.1149 -0.0117  0.3833
 8285TIP3    H246271   3.993   0.602  12.865  0.2685 -0.1285 -0.4887
 8286TIP3   OH246272   3.234   4.575  16.309 -0.2604 -0.2857  0.4704
 8286TIP3    H146273   3.260   4.616  16.392  0.4849 -0.8979  0.5451
 8286TIP3    H246274   3.298   4.506  16.295 -1.7562 -1.7471  0.5811
 8287TIP3   OH246275   3.065   1.976   1.266  0.2559 -0.3248  0.2584
 8287TIP3    H146276   3.096   1.953   1.178  2.7127  1.4938  0.5414
 8287TIP3    H246277   3.024   2.062   1.254  0.0259 -0.3639  0.7843
 8288TIP3   OH246278   5.919   3.466  16.626 -0.3521 -0.5157 -0.3144
 8288TIP3    H146279   5.891   3.557  16.635  1.4216  0.0370  0.0330
 8288TIP3    H246280   6.009   3.466  16.659 -0.3469 -2.4149 -0.2530
 8289TIP3   OH246281   5.142   0.421  15.461 -0.0036  0.5483 -0.1296
 8289TIP3    H146282   5.058   0.456  15.430 -0.1703 -0.6967 -1.1712
 8289TIP3    H246283   5.202   0.433  15.387  0.3917  0.2578  0.1408
 8290TIP3   OH246284   6.765   1.829  16.123 -0.0680 -0.1464 -0.4899
 8290TIP3    H146285   6.746   1.793  16.209 -2.8293  1.8658 -0.0982
 8290TIP3    H246286   6.851   1.870  16.131  0.6760 -1.8470  0.6062
 8291TIP3   OH246287   3.049   0.568  12.285 -0.2706 -0.2574 -0.1695
 8291TIP3    H146288   3.001   0.488  12.267  0.7196 -0.8691 -0.1506
 8291TIP3    H246289   3.009   0.633  12.228 -1.2730 -0.6848  0.0276
 8292TIP3   OH246290   5.755   1.738   0.733 -0.2963  0.0006 -0.0953
 8292TIP3    H146291   5.661   1.749   0.725 -0.6199 -1.5743  1.1546
 8292TIP3    H246292   5.770   1.722   0.826  1.2041  0.2425 -0.2691
 8293TIP3   OH246293   4.655   1.889  14.947  0.0804  0.3134 -0.0388
 8293TIP3    H146294   4.656   1.946  15.024  2.9690 -1.2974  1.2599
 8293TIP3    H246295   4.645   1.801  14.982 -2.3846 -0.2524 -1.8714
 8294TIP3   OH246296   4.166   1.808  17.101 -0.0156  0.0715  0.0207
 8294TIP3    H146297   4.183   1.886  17.154 -0.2866 -0.5670  1.0687
 8294TIP3    H246298   4.234   1.746  17.127  1.2250  0.5075 -2.0062
 8295TIP3   OH246299   2.582   3.802  13.997 -0.7366  0.3579 -0.5676
 8295TIP3    H146300   2.556   3.885  13.958 -0.6251  0.3047 -0.7583
 8295TIP3    H246301   2.653   3.824  14.057 -0.6211  0.3837 -0.7133
 8296TIP3   OH246302   1.028   6.338  14.193  0.1724 -0.9709 -0.4525
 8296TIP3    H146303   1.099   6.403  14.198 -1.6992  1.2182 -0.5745
 8296TIP3    H246304   1.022   6.303  14.281  0.4736 -0.0932 -0.0643
 8297TIP3   OH246305   3.038   2.006  16.650  0.6981 -0.1488  0.2583
 8297TIP3    H146306   2.946   2.024  16.630  0.7814 -0.8329 -0.8395
 8297TIP3    H246307   3.039   1.981  16.742 -0.5512 -2.1860 -0.2151
 8298TIP3   OH246308   3.961   6.553   6.060 -0.0446  0.1995  0.2784
 8298TIP3    H146309   4.025   6.580   5.994 -0.2946  1.5161  0.5421
 8298TIP3    H246310   3.925   6.471   6.027  0.9406  0.0424 -0.4510
 8299TIP3   OH246311   0.522   2.643  11.828 -0.4489  0.5815  0.0432
 8299TIP3    H146312   0.509   2.654  11.733  0.6046  0.1621 -0.1560
 8299TIP3    H246313   0.539   2.732  11.860 -1.1168  0.7706 -0.0940
 8300TIP3   OH246314   4.666   5.411  11.101 -0.2746  0.2435 -0.7027
 8300TIP3    H146315   4.624   5.378  11.021 -0.1107  0.8966 -1.0671
 8300TIP3    H246316   4.596   5.455  11.148 -0.2402  0.3720 -0.7722
 8301TIP3   OH246317   1.812   1.414  16.026 -0.4070  0.3545  0.5525
 8301TIP3    H146318   1.768   1.495  16.051 -1.0154  0.0850  0.3731
 8301TIP3    H246319   1.778   1.349  16.087 -1.1416 -0.0974 -0.3118
 8302TIP3   OH246320   5.550   4.628  12.439  0.1283  0.2076  0.2857
 8302TIP3    H146321   5.508   4.557  12.488  0.8112 -0.2602  0.2029
 8302TIP3    H246322   5.635   4.593  12.413  0.5759  1.1413  0.4428
 8303TIP3   OH246323   1.108   6.288  10.860  0.3762  0.3379  0.2325
 8303TIP3    H146324   1.134   6.285  10.952  0.2035  0.0562  0.2725
 8303TIP3    H246325   1.077   6.200  10.840 -0.7279  0.7031  0.2441
 8304TIP3   OH246326   0.550   3.417  12.937  0.3282 -0.3621  0.7128
 8304TIP3    H146327   0.547   3.334  12.889  0.1182 -0.6646  1.2453
 8304TIP3    H246328   0.614   3.403  13.006  2.1301  0.7256 -0.6550
 8305TIP3   OH246329   3.266   3.220   2.169 -0.0954 -0.5167 -0.5008
 8305TIP3    H146330   3.348   3.205   2.216  0.3830  2.4836 -0.1960
 8305TIP3    H246331   3.198   3.203   2.233  0.4269  0.0799  0.2222
 8306TIP3   OH246332   4.298   6.428   0.143 -0.0426  0.5897 -0.2708
 8306TIP3    H146333   4.356   6.491   0.100 -2.4241  2.4096 -1.0296
 8306TIP3    H246334   4.310   6.347   0.094  1.2631  1.1402 -0.8945
 8307TIP3   OH246335   2.242   3.217  11.512  0.1324 -0.0251  0.0978
 8307TIP3    H146336   2.224   3.163  11.589  1.2808 -0.5966 -0.0085
 8307TIP3    H246337   2.282   3.296  11.548  0.6753 -0.2949  0.0882
 8308TIP3   OH246338   4.131   6.346   0.430  0.5921 -0.0798  0.1549
 8308TIP3    H146339   4.193   6.384   0.368  0.7015 -0.3422  0.1011
 8308TIP3    H246340   4.156   6.254   0.435 -0.2803 -0.3659 -0.4642
 8309TIP3   OH246341   3.743   6.250  16.990  0.4275 -0.1729 -0.1977
 8309TIP3    H146342   3.701   6.211  17.067 -0.3211  0.0507 -0.4895
 8309TIP3    H246343   3.821   6.197  16.976  0.8316  0.0651  1.0007
 8310TIP3   OH246344   1.968   3.564   1.952 -0.6630 -0.5613  0.6013
 8310TIP3    H146345   2.021   3.604   1.883  1.4933  0.0088  2.4587
 8310TIP3    H246346   1.898   3.519   1.905  1.3365 -1.1899 -2.0454
 8311TIP3   OH246347   6.724   5.452   5.517  0.8125  0.5128  0.4169
 8311TIP3    H146348   6.794   5.488   5.463  0.2035  1.0741 -0.0078
 8311TIP3    H246349   6.760   5.454   5.606  0.6560  2.5766  0.4749
 8312TIP3   OH246350   5.194   6.475  10.576  0.2003 -0.3453 -0.4449
 8312TIP3    H146351   5.134   6.440  10.641  0.8660 -1.0035 -0.1860
 8312TIP3    H246352   5.151   6.555  10.545  0.1139  0.2654  1.1655
 8313TIP3   OH246353   2.454   1.011  16.016 -0.2295  0.3733 -1.1634
 8313TIP3    H146354   2.497   0.945  16.071 -1.1395 -0.1703 -1.0900
 8313TIP3    H246355   2.527   1.061  15.977  0.4448  0.0429 -0.3567
 8314TIP3   OH246356   5.377   2.279  13.631  0.8645  0.0318  0.3462
 8314TIP3    H146357   5.318   2.354  13.629  2.0713  0.9968 -0.5925
 8314TIP3    H246358   5.342   2.222  13.700 -0.7513  0.8843  0.2550
 8315TIP3   OH246359   5.419   4.574  14.099  0.0658 -0.2501  0.6100
 8315TIP3    H146360   5.365   4.549  14.174 -0.6595 -1.0991 -0.1661
 8315TIP3    H246361   5.360   4.624  14.043  0.5363  0.1708  0.4822
 8316TIP3   OH246362   5.623   6.384   5.999  0.0312  0.2373  0.3719
 8316TIP3    H146363   5.688   6.332   6.048 -1.0652 -0.0208  1.6219
 8316TIP3    H246364   5.622   6.469   6.043  1.6737  1.3337 -1.5436
 8317TIP3   OH246365   2.161   0.406   3.605  0.7577 -0.1462 -0.5087
 8317TIP3    H146366   2.201   0.493   3.595  0.9282 -0.3263 -1.4859
 8317TIP3    H246367   2.117   0.390   3.522  2.6277 -1.9487 -1.2453
 8318TIP3   OH246368   2.795   5.612  14.829  0.1516 -0.2767 -0.0694
 8318TIP3    H146369   2.722   5.559  14.795 -0.2670 -0.4435  1.0559
 8318TIP3    H246370   2.854   5.548  14.869  0.1365  0.0175  0.4200
 8319TIP3   OH246371   1.291   2.565  16.073 -0.2165  0.5267  0.0382
 8319TIP3    H146372   1.202   2.542  16.102  0.0966  0.6053  1.1054
 8319TIP3    H246373   1.281   2.652  16.033 -0.6183  0.5295  0.1360
 8320TIP3   OH246374   3.547   1.966   5.149 -0.0125 -0.6636 -0.0389
 8320TIP3    H146375   3.600   2.012   5.214  1.9344 -0.3507 -1.7456
 8320TIP3    H246376   3.475   2.025   5.131  1.7103  1.2138 -1.1899
 8321TIP3   OH246377   2.012   6.706   2.749  0.1062 -0.4374 -0.1157
 8321TIP3    H146378   1.929   6.747   2.724  1.1113  0.8486 -1.5278
 8321TIP3    H246379   2.032   6.742   2.835  0.4570  1.3492 -0.8896
 8322TIP3   OH246380   5.372   3.513  16.865 -0.6530  0.1870 -0.3180
 8322TIP3    H146381   5.281   3.499  16.839 -0.9613  0.3621  0.6300
 8322TIP3    H246382   5.368   3.529  16.959  0.2445  1.2445 -0.4297
 8323TIP3   OH246383   5.062   4.076  11.629  0.2662  0.8200  0.1021
 8323TIP3    H146384   4.969   4.076  11.654  0.5311 -1.5849  1.3136
 8323TIP3    H246385   5.064   4.030  11.545  0.2823  1.9461 -0.5453
 8324TIP3   OH246386   3.588   2.898   5.082  0.3057  0.3623 -0.6535
 8324TIP3    H146387   3.506   2.935   5.050 -0.6480 -1.0911  0.0182
 8324TIP3    H246388   3.579   2.803   5.070  2.1559  0.2047 -1.1598
 8325TIP3   OH246389   2.901   2.934   0.701  0.5822 -0.0889  0.2768
 8325TIP3    H146390   2.815   2.946   0.742 -0.2560  0.2874 -1.5157
 8325TIP3    H246391   2.943   3.020   0.707 -0.7664  0.8573 -2.2271
 8326TIP3   OH246392   3.529   2.668  15.403  0.0487  0.7564 -0.1635
 8326TIP3    H146393   3.441   2.654  15.436 -0.6417  1.7079 -1.5257
 8326TIP3    H246394   3.576   2.587  15.426 -0.8686  0.6380  1.4413
 8327TIP3   OH246395   3.591   2.896  11.540  0.0703  0.1656 -0.2197
 8327TIP3    H146396   3.643   2.952  11.597  0.3102 -1.1479  0.9086
 8327TIP3    H246397   3.654   2.858  11.479  0.2205 -0.3398  0.2444
 8328TIP3   OH246398   2.073   5.021   0.905 -0.0896 -0.5899 -0.0800
 8328TIP3    H146399   2.028   5.099   0.871  2.0529  0.5605 -0.4827
 8328TIP3    H246400   2.016   4.988   0.974 -1.6755  0.5833 -0.7719
 8329TIP3   OH246401   5.661   4.182  15.316  0.0164  0.0719  0.4458
 8329TIP3    H146402   5.631   4.202  15.405 -0.2269 -2.6687  1.0736
 8329TIP3    H246403   5.581   4.179  15.265 -0.0127 -0.0314  0.4980
 8330TIP3   OH246404   5.308   6.568  14.051 -0.2984  0.5238 -0.7300
 8330TIP3    H146405   5.238   6.552  14.114 -0.7052 -0.8298 -1.4809
 8330TIP3    H246406   5.274   6.639  13.996 -0.5829  0.6655 -0.3772
 8331TIP3   OH246407   2.012   2.310  12.602  0.0832 -0.0866  0.4157
 8331TIP3    H146408   1.954   2.288  12.675  2.9359 -0.5396  2.7386
 8331TIP3    H246409   2.061   2.229  12.585  1.4778  0.8073  0.0039
 8332TIP3   OH246410   2.555   6.615  13.164  0.4666  0.3223 -0.1681
 8332TIP3    H146411   2.616   6.617  13.238 -0.4535 -2.5980  0.8163
 8332TIP3    H246412   2.474   6.579  13.201 -0.3497 -0.2975 -2.4005
 8333TIP3   OH246413   4.492   1.233   3.270  0.1278 -0.5011  0.0856
 8333TIP3    H146414   4.478   1.139   3.260  0.0748 -0.6527  1.4843
 8333TIP3    H246415   4.525   1.243   3.359  2.7897  0.5029 -0.9076
 8334TIP3   OH246416   5.095   2.729   5.358  0.2903  0.2815  0.5752
 8334TIP3    H146417   5.069   2.794   5.292  1.2123 -1.6868 -1.8721
 8334TIP3    H246418   5.184   2.754   5.381  1.3922 -1.0957 -1.8344
 8335TIP3   OH246419   4.841   4.954   5.357 -0.3184  0.1445  0.2288
 8335TIP3    H146420   4.857   4.922   5.446 -0.5626  0.6520  0.4582
 8335TIP3    H246421   4.795   4.882   5.313 -2.7722  0.9341  1.3620
 8336TIP3   OH246422   4.748   5.304   0.191  0.5525 -0.4367  0.2745
 8336TIP3    H146423   4.732   5.348   0.275  1.1744 -1.1088  0.7666
 8336TIP3    H246424   4.760   5.212   0.215  1.0462 -0.5846 -0.5185
 8337TIP3   OH246425   2.858   3.414   4.496  0.0567  0.4638 -0.0120
 8337TIP3    H146426   2.881   3.431   4.405  1.7307  2.1598  0.6646
 8337TIP3    H246427   2.801   3.488   4.521 -0.1905  0.1432  0.4004
 8338TIP3   OH246428   2.479   6.464   2.300 -0.4056  0.0454 -0.0307
 8338TIP3    H146429   2.535   6.477   2.377 -0.1606  1.7549 -0.4610
 8338TIP3    H246430   2.532   6.410   2.241  0.5980  1.1549 -0.1908
 8339TIP3   OH246431   2.047   1.642   2.748 -0.2462  0.3949 -0.3428
 8339TIP3    H146432   1.996   1.564   2.724  0.6272 -0.3322  0.1064
 8339TIP3    H246433   2.010   1.670   2.832  1.4544 -1.4584  1.1407
 8340TIP3   OH246434   5.095   0.862   3.654 -0.2417  0.1258  0.1653
 8340TIP3    H146435   5.145   0.826   3.727 -3.1733  1.5762  3.1507
 8340TIP3    H246436   5.018   0.805   3.646 -0.8806  1.0421 -0.5420
 8341TIP3   OH246437   2.520   2.998  13.093  0.2187 -0.4393 -0.2191
 8341TIP3    H146438   2.475   2.947  13.160  0.7222 -2.3976 -1.2911
 8341TIP3    H246439   2.490   2.961  13.010  1.2329  0.4625 -1.0200
 8342TIP3   OH246440   0.196   4.789  15.564 -0.0411  0.5410 -0.2331
 8342TIP3    H146441   0.180   4.705  15.607  0.4453  0.0410 -1.0177
 8342TIP3    H246442   0.183   4.854  15.634  0.6335 -0.2471  0.6524
 8343TIP3   OH246443   4.143   5.627  12.210  0.5842 -0.1444  0.0527
 8343TIP3    H146444   4.200   5.703  12.199  0.2718  0.1781  0.6128
 8343TIP3    H246445   4.055   5.659  12.188  0.3815 -0.2152  0.7207
 8344TIP3   OH246446   6.120   0.015  13.430 -0.0096  0.3161 -0.4662
 8344TIP3    H146447   6.170   0.097  13.433  0.2734  0.2298 -2.1636
 8344TIP3    H246448   6.145  -0.031  13.511  0.8980  1.2773 -0.1774
 8345TIP3   OH246449   2.631   4.808   2.993  0.1363 -0.4530  0.1318
 8345TIP3    H146450   2.574   4.732   2.998 -0.6944  0.2033  0.9533
 8345TIP3    H246451   2.708   4.777   2.945 -0.2074 -1.7863  0.4038
 8346TIP3   OH246452   0.070   2.449   6.213 -0.0998 -0.2064  0.6289
 8346TIP3    H146453   0.099   2.358   6.203  0.7942  0.1438 -0.1210
 8346TIP3    H246454   0.134   2.488   6.273  0.7042  0.4203 -0.5859
 8347TIP3   OH246455   1.474   1.581   3.060 -0.0222 -0.4136  0.1016
 8347TIP3    H146456   1.513   1.540   3.137 -0.4199 -2.5094 -0.7650
 8347TIP3    H246457   1.402   1.633   3.096 -0.7283 -2.0081  1.1073
 8348TIP3   OH246458   1.766   4.916   3.011 -0.0335 -0.1604 -0.3718
 8348TIP3    H146459   1.705   4.886   2.944 -0.1625 -0.6511 -0.0463
 8348TIP3    H246460   1.723   4.894   3.094  0.4452 -0.2369 -0.1375
 8349TIP3   OH246461   3.883   6.449  15.545  0.0326  0.1571  0.0966
 8349TIP3    H146462   3.837   6.520  15.590 -2.0277 -1.5571  0.8465
 8349TIP3    H246463   3.816   6.383  15.529  1.8108 -1.5327 -0.8333
 8350TIP3   OH246464   5.069   4.920  16.194 -0.2279 -0.0813 -0.0897
 8350TIP3    H146465   5.146   4.879  16.153 -0.2772  0.4191 -0.7005
 8350TIP3    H246466   5.105   4.995  16.241 -0.2638 -0.2350  0.1848
 8351TIP3   OH246467   2.179   2.016  16.410 -0.6555  0.0342 -0.4384
 8351TIP3    H146468   2.172   1.931  16.453 -0.3271  0.0825 -0.2932
 8351TIP3    H246469   2.268   2.045  16.427 -0.7405  0.3701 -0.5600
 8352TIP3   OH246470   3.691   5.881   6.467  0.1634  0.3964 -0.5844
 8352TIP3    H146471   3.701   5.945   6.537 -0.4014 -1.4941  1.3375
 8352TIP3    H246472   3.744   5.806   6.495 -2.2974 -1.5065 -0.6974
 8353TIP3   OH246473   0.926   6.664   0.555 -0.1451  0.2433 -0.5267
 8353TIP3    H146474   0.982   6.703   0.488  0.5258  1.4081  0.6928
 8353TIP3    H246475   0.955   6.702   0.637 -1.3399 -0.7305  0.3869
 8354TIP3   OH246476   2.538   3.914   1.341 -0.3907  0.5428  0.2783
 8354TIP3    H146477   2.541   4.006   1.315  0.9993  0.4852  0.1646
 8354TIP3    H246478   2.628   3.894   1.366 -0.5621 -0.9456 -0.2375
 8355TIP3   OH246479   3.229   1.684  13.824 -1.0073  0.0120 -0.3037
 8355TIP3    H146480   3.236   1.702  13.918 -0.8187 -1.8254  0.0822
 8355TIP3    H246481   3.136   1.689  13.805 -1.0306  0.5399 -0.0546
 8356TIP3   OH246482   6.278   1.268  14.411 -0.0037  0.2473  0.6657
 8356TIP3    H146483   6.209   1.270  14.344  0.0028  0.1259  0.6548
 8356TIP3    H246484   6.283   1.176  14.437  1.1465  0.0052 -0.3499
 8357TIP3   OH246485   6.719   4.725  11.602 -0.2952  0.1014 -0.0750
 8357TIP3    H146486   6.700   4.679  11.520 -0.0931 -0.4866  0.2038
 8357TIP3    H246487   6.758   4.659  11.659 -1.6903  0.1282  0.9866
 8358TIP3   OH246488   3.822   2.344  16.515 -0.3728 -0.3382  0.2235
 8358TIP3    H146489   3.798   2.300  16.596 -0.5627 -0.1420  0.2778
 8358TIP3    H246490   3.808   2.437  16.533 -0.3509 -0.2869 -0.0113
 8359TIP3   OH246491   3.620   3.681  17.074  0.6211 -0.2018  0.2947
 8359TIP3    H146492   3.639   3.664  17.166 -0.1121  0.4642  0.5763
 8359TIP3    H246493   3.557   3.612  17.050  2.0622 -1.3987 -0.1876
 8360TIP3   OH246494   4.061   0.399  14.220  0.3230  0.6037 -0.5463
 8360TIP3    H146495   4.046   0.493  14.224 -0.4308  0.4505  0.5941
 8360TIP3    H246496   4.151   0.388  14.249 -0.1081  0.8534  0.9485
 8361TIP3   OH246497   4.489   3.876  15.322  0.2363  0.2096  0.4423
 8361TIP3    H146498   4.556   3.907  15.383  1.5980 -1.9520  0.1514
 8361TIP3    H246499   4.412   3.861  15.376  0.8555  0.0699  1.3042
 8362TIP3   OH246500   5.284   0.068  13.233 -0.3370 -0.0174  0.7396
 8362TIP3    H146501   5.273   0.163  13.228 -0.0505 -0.0490 -1.0041
 8362TIP3    H246502   5.350   0.056  13.302  1.4442  1.2312 -0.6591
 8363TIP3   OH246503   2.574   4.911  11.157 -0.0300  1.0899  0.1715
 8363TIP3    H146504   2.610   4.922  11.069 -0.4528  1.0073 -0.0110
 8363TIP3    H246505   2.509   4.842  11.148  0.7461  0.2517  0.7869
 8364TIP3   OH246506   0.767   3.507   5.030 -0.0815 -0.1667  0.1353
 8364TIP3    H146507   0.717   3.434   4.992  2.1507 -1.2284 -0.9132
 8364TIP3    H246508   0.802   3.472   5.112  0.0261  0.1270  0.2152
 8365TIP3   OH246509   3.046   1.300   4.072  0.1009 -0.4461 -0.0431
 8365TIP3    H146510   2.959   1.264   4.087  0.4134 -1.5181 -0.6392
 8365TIP3    H246511   3.054   1.304   3.976  0.1906  0.9804  0.0083
 8366TIP3   OH246512   3.573   5.611  13.833  0.2176  0.1930  0.1943
 8366TIP3    H146513   3.640   5.555  13.872  1.1419 -0.6356 -2.3742
 8366TIP3    H246514   3.546   5.669  13.904  2.2411 -0.7498  1.8369
 8367TIP3   OH246515   2.297   1.123   5.194  0.1707 -0.0728  0.3594
 8367TIP3    H146516   2.252   1.039   5.183 -0.1065  0.1682 -0.4131
 8367TIP3    H246517   2.276   1.172   5.114 -2.7269  2.1809  2.2879
 8368TIP3   OH246518   1.968   4.166  12.061  0.1831  0.4207  0.1246
 8368TIP3    H146519   1.953   4.218  12.140  0.0735 -0.5507  0.7643
 8368TIP3    H246520   2.061   4.141  12.067 -0.3766 -1.6167  1.2066
 8369TIP3   OH246521   6.216   3.783   3.167  0.9038 -0.7969 -0.0817
 8369TIP3    H146522   6.172   3.866   3.187  0.5369 -0.5657 -1.7528
 8369TIP3    H246523   6.194   3.726   3.241 -0.0318  0.1386  0.3787
 8370TIP3   OH246524   1.194   0.961  15.281  0.0682  0.7069  0.4360
 8370TIP3    H146525   1.194   0.878  15.328  0.7801  1.0359  1.0332
 8370TIP3    H246526   1.285   0.993  15.287  0.2137  0.7188 -1.2275
 8371TIP3   OH246527   0.687   0.375   0.839  0.2941  0.5655 -0.1026
 8371TIP3    H146528   0.756   0.439   0.822  0.7933  0.8731  2.6142
 8371TIP3    H246529   0.732   0.299   0.875 -0.6501  0.2766  0.5246
 8372TIP3   OH246530   2.099   6.201  16.954  0.0461 -0.4598 -0.4000
 8372TIP3    H146531   2.010   6.169  16.940 -0.2687  0.3148 -0.1726
 8372TIP3    H246532   2.096   6.293  16.927  1.0883 -0.7523 -1.6329
 8373TIP3   OH246533   1.814   5.925  16.616 -0.1481  0.6998  0.0945
 8373TIP3    H146534   1.830   5.850  16.673  1.5757  1.1554  0.2696
 8373TIP3    H246535   1.899   5.969  16.610 -0.9883  2.3227 -0.4661
 8374TIP3   OH246536   6.019   0.637   4.688 -0.0413 -0.2765  0.3466
 8374TIP3    H146537   6.004   0.719   4.641  1.0877  1.3603  2.6419
 8374TIP3    H246538   5.931   0.601   4.701 -0.6585  1.0980  0.1506
 8375TIP3   OH246539   2.344   4.893   4.444  0.2799 -0.1063 -0.1702
 8375TIP3    H146540   2.252   4.869   4.437  0.6266 -1.6893  0.2637
 8375TIP3    H246541   2.364   4.937   4.361 -1.1251  1.2763  0.1844
 8376TIP3   OH246542   1.720   3.500   4.245  0.0033  0.5809 -0.0253
 8376TIP3    H146543   1.710   3.463   4.158  0.3921 -0.4870  0.3669
 8376TIP3    H246544   1.749   3.427   4.300  1.1436  1.5345  0.7117
 8377TIP3   OH246545   2.179   6.519  13.667  0.1860 -0.2961 -0.1795
 8377TIP3    H146546   2.227   6.571  13.731  1.6760  0.0195 -1.4990
 8377TIP3    H246547   2.103   6.572  13.645  0.9136  0.6865 -0.4120
 8378TIP3   OH246548   1.854   0.251   3.619 -0.1221 -0.3178  0.0478
 8378TIP3    H146549   1.917   0.320   3.641 -0.5761  0.4455 -0.9190
 8378TIP3    H246550   1.882   0.175   3.669  0.5818  0.4853  0.9086
 8379TIP3   OH246551   1.097   2.826  11.493  0.1991  0.2987 -0.1493
 8379TIP3    H146552   1.098   2.879  11.413  3.5012  2.2214  0.9341
 8379TIP3    H246553   1.136   2.743  11.468  0.8023  0.7269 -0.6600
 8380TIP3   OH246554   5.254   6.254   2.641 -0.4830 -0.0173  0.0235
 8380TIP3    H146555   5.311   6.245   2.718  1.0916  0.1208 -1.0827
 8380TIP3    H246556   5.171   6.286   2.676  0.3772  0.5861  1.6024
 8381TIP3   OH246557   4.918   3.374  14.738  0.1684  0.4927 -0.2754
 8381TIP3    H146558   4.930   3.280  14.746 -1.4276  0.2035 -0.9112
 8381TIP3    H246559   4.836   3.392  14.785  1.5989  1.9409  1.8584
 8382TIP3   OH246560   5.034   0.835   5.723 -0.1570  0.4100 -0.5427
 8382TIP3    H146561   5.076   0.920   5.718 -0.1784  0.5844  1.3573
 8382TIP3    H246562   5.103   0.775   5.753  0.0594 -0.4465 -2.5820
 8383TIP3   OH246563   4.030   6.719  12.810 -0.2330  0.0505 -0.3824
 8383TIP3    H146564   4.054   6.789  12.749 -0.3420  1.3130  0.9696
 8383TIP3    H246565   4.073   6.743  12.892  1.9777 -2.8832 -0.5277
 8384TIP3   OH246566   1.998   3.855   2.735 -0.6986 -0.7972  0.5890
 8384TIP3    H146567   2.004   3.876   2.829  4.3760 -0.0423  0.4212
 8384TIP3    H246568   2.011   3.760   2.731 -3.8595 -1.3432  0.5787
 8385TIP3   OH246569   3.450   4.490  15.763  0.0872  0.7484  0.1927
 8385TIP3    H146570   3.517   4.554  15.738 -0.4861  1.6641  0.9475
 8385TIP3    H246571   3.476   4.459  15.849  1.8811 -2.1731 -1.2263
 8386TIP3   OH246572   0.267   4.358  10.268 -0.3909 -0.2407 -0.3711
 8386TIP3    H146573   0.294   4.290  10.329  0.4857  0.7569  0.3925
 8386TIP3    H246574   0.172   4.350  10.263 -0.2675 -1.7635 -0.6186
 8387TIP3   OH246575   1.291   5.185   4.786  0.4543  0.4393 -0.1722
 8387TIP3    H146576   1.201   5.201   4.756  0.7919  0.5505 -1.1545
 8387TIP3    H246577   1.328   5.272   4.797  0.3150  0.4051  0.6902
 8388TIP3   OH246578   4.866   2.410   3.492  0.1026  0.3024 -0.1915
 8388TIP3    H146579   4.788   2.453   3.458 -0.6290 -1.1515 -0.4178
 8388TIP3    H246580   4.916   2.385   3.415  0.8513  1.2789 -0.0471
 8389TIP3   OH246581   4.004   2.522   3.852 -0.0285 -0.2294 -0.0609
 8389TIP3    H146582   3.945   2.459   3.810  0.3914 -2.8443  2.8831
 8389TIP3    H246583   3.977   2.522   3.944  2.3968  1.0700  0.7246
 8390TIP3   OH246584   1.141   4.548   4.204 -0.2584  0.9580  0.0554
 8390TIP3    H146585   1.161   4.526   4.295  0.8065  0.1846 -0.3383
 8390TIP3    H246586   1.223   4.582   4.169 -0.7711  1.6488 -0.5063
 8391TIP3   OH246587   1.660   6.165   0.568 -0.3365  0.2210 -0.5725
 8391TIP3    H146588   1.612   6.246   0.553  0.6962  0.8144 -0.7952
 8391TIP3    H246589   1.713   6.183   0.647  1.9471  0.7870 -2.1321
 8392TIP3   OH246590   3.798   1.862   4.887  0.3853  0.3527  0.0432
 8392TIP3    H146591   3.805   1.791   4.952  1.4250 -0.4365 -0.8796
 8392TIP3    H246592   3.704   1.870   4.870  0.2854 -1.4543 -0.4829
 8393TIP3   OH246593   5.182   4.411   5.867  0.1586 -0.0530 -0.1064
 8393TIP3    H146594   5.241   4.389   5.794 -0.3031 -2.6970  0.2138
 8393TIP3    H246595   5.231   4.476   5.918  2.7661 -1.9157  0.0058
 8394TIP3   OH246596   3.548   5.363  16.003  0.0096 -0.1386 -0.7595
 8394TIP3    H146597   3.462   5.352  15.963 -0.1050 -0.4650 -0.4305
 8394TIP3    H246598   3.550   5.298  16.074 -0.0250  0.8301  0.1645
 8395TIP3   OH246599   1.807   4.277  17.330 -0.4844 -0.2747 -0.4279
 8395TIP3    H146600   1.788   4.342  17.398  1.6877  0.4551 -0.4456
 8395TIP3    H246601   1.831   4.330  17.253 -1.3776 -1.1031 -1.2999
 8396TIP3   OH246602   0.339   3.334   0.898 -0.0530 -0.1665 -0.1326
 8396TIP3    H146603   0.373   3.422   0.878  1.7284 -1.0256 -1.1616
 8396TIP3    H246604   0.244   3.344   0.895  0.0803  1.9369  0.7768
 8397TIP3   OH246605   1.072   3.280  15.222  0.4577 -1.1740  0.0818
 8397TIP3    H146606   1.013   3.300  15.150  0.4292  1.0102  0.6274
 8397TIP3    H246607   1.016   3.276  15.299  0.7655 -1.0299  0.3193
 8398TIP3   OH246608   4.779   2.320  15.087  0.5017  0.1548 -0.8456
 8398TIP3    H146609   4.869   2.298  15.107  1.2114  2.2769 -1.3540
 8398TIP3    H246610   4.757   2.390  15.149  0.4100  1.9836 -2.8089
 8399TIP3   OH246611   3.084   6.522   5.877 -0.1420 -0.0917 -0.2130
 8399TIP3    H146612   3.106   6.588   5.942  1.1144 -0.0555 -0.6558
 8399TIP3    H246613   3.166   6.476   5.860 -0.9044 -1.5388 -0.1831
 8400TIP3   OH246614   4.530   4.170  16.370  0.0277  0.1002  0.0356
 8400TIP3    H146615   4.511   4.252  16.325 -0.3027 -0.5421 -1.0468
 8400TIP3    H246616   4.444   4.127  16.376  0.1366  0.0078  0.9440
 8401TIP3   OH246617   0.394   6.006   5.749 -0.5595  0.1254  0.0346
 8401TIP3    H146618   0.322   6.069   5.739  0.0371  0.9917  1.0244
 8401TIP3    H246619   0.381   5.969   5.836 -0.0224  0.0020  0.0624
 8402TIP3   OH246620   4.224   2.395  13.100  0.5083 -0.2564 -0.1286
 8402TIP3    H146621   4.141   2.363  13.067  0.1347  0.2824  0.2781
 8402TIP3    H246622   4.202   2.441  13.182  0.7961  2.3233 -1.4021
 8403TIP3   OH246623   5.072   2.960   6.111 -0.1615  0.2692 -0.3309
 8403TIP3    H146624   5.060   2.922   6.198 -0.3455  0.2200 -0.3771
 8403TIP3    H246625   5.028   2.899   6.052 -0.3999  0.5189 -0.4141
 8404TIP3   OH246626   0.175   0.274  15.692 -0.2910 -0.7080 -0.0599
 8404TIP3    H146627   0.141   0.195  15.734 -1.0955  0.3748  1.4255
 8404TIP3    H246628   0.106   0.340  15.706  0.0557  0.0901 -1.8572
 8405TIP3   OH246629   4.789   0.611   3.685  0.1610 -0.2625 -0.3400
 8405TIP3    H146630   4.827   0.618   3.772 -1.9748 -1.0913  0.7488
 8405TIP3    H246631   4.789   0.517   3.666  1.9188  0.0149 -1.9053
 8406TIP3   OH246632   0.227   3.285  14.833 -0.6712 -0.1897  0.2530
 8406TIP3    H146633   0.253   3.245  14.750 -1.1364  0.5342 -0.2536
 8406TIP3    H246634   0.209   3.376  14.811 -2.1346 -0.2977  0.8659
 8407TIP3   OH246635   6.664   5.331   2.599  0.8238 -0.0714 -0.1245
 8407TIP3    H146636   6.651   5.424   2.582 -1.4099 -0.3004  0.0740
 8407TIP3    H246637   6.733   5.328   2.666  1.7676  1.3475 -0.9878
 8408TIP3   OH246638   0.170   2.272   5.706  0.0560  0.2786 -0.0098
 8408TIP3    H146639   0.235   2.305   5.766 -1.1081 -0.6809  1.8725
 8408TIP3    H246640   0.197   2.182   5.688 -0.3706  0.1069  0.2057
 8409TIP3   OH246641   5.615   6.518  15.916 -0.2266  0.3219  0.2187
 8409TIP3    H146642   5.619   6.424  15.897 -0.8509  0.7834 -2.5115
 8409TIP3    H246643   5.704   6.550  15.899  0.3314  0.0908  2.3879
 8410TIP3   OH246644   5.657   3.574  11.242 -0.0852 -0.0139  0.1474
 8410TIP3    H146645   5.617   3.559  11.157 -0.0077 -2.9462  0.5066
 8410TIP3    H246646   5.593   3.626  11.290 -0.0334  1.8710 -1.6919
 8411TIP3   OH246647   1.650   6.025  15.155  0.3693  0.1803  0.3270
 8411TIP3    H146648   1.740   6.002  15.133  0.1761 -0.8876  0.5852
 8411TIP3    H246649   1.645   6.016  15.250  0.4787  2.1082  0.5585
 8412TIP3   OH246650   3.223   3.072   5.746 -0.2664  0.0975  0.3145
 8412TIP3    H146651   3.161   3.132   5.788 -0.8987 -0.8583  0.7837
 8412TIP3    H246652   3.309   3.105   5.771 -0.6135  0.5795  0.8939
 8413TIP3   OH246653   5.325   6.024  13.153  0.3781  0.4217 -0.4398
 8413TIP3    H146654   5.361   6.077  13.224  3.4827 -1.9749 -0.0419
 8413TIP3    H246655   5.265   5.963  13.197  1.9646 -0.7700  0.1535
 8414TIP3   OH246656   4.967   3.135  12.916  0.2195 -0.3092  0.3724
 8414TIP3    H146657   4.910   3.197  12.870  1.2788  0.5624  0.1978
 8414TIP3    H246658   4.958   3.159  13.008  1.8042  1.1878  0.1944
 8415TIP3   OH246659   5.259   0.400   1.034  0.3170 -0.2878 -0.3190
 8415TIP3    H146660   5.193   0.362   1.092  1.6444 -1.7668  0.2891
 8415TIP3    H246661   5.213   0.412   0.951 -0.7757 -1.1419  0.1337
 8416TIP3   OH246662   2.168   0.284  15.985  0.2519  0.6157  0.2217
 8416TIP3    H146663   2.218   0.365  15.995  1.7474 -0.3460  0.8159
 8416TIP3    H246664   2.154   0.276  15.891 -2.0148  2.7286  0.2482
 8417TIP3   OH246665   2.326   0.184   3.665 -0.2055 -0.0896  0.2234
 8417TIP3    H146666   2.405   0.234   3.643 -0.4693 -0.3338 -1.3732
 8417TIP3    H246667   2.254   0.239   3.635 -0.5066 -1.3851 -1.5572
 8418TIP3   OH246668   6.741   3.480   2.570  0.3228 -0.3047 -0.0290
 8418TIP3    H146669   6.648   3.463   2.583  0.0589  0.3844 -0.8719
 8418TIP3    H246670   6.783   3.448   2.649 -0.5116 -1.5401 -0.0578
 8419TIP3   OH246671   4.190   0.241  15.108  0.1300  0.0930  0.2272
 8419TIP3    H146672   4.225   0.217  15.022 -0.7286  0.3290 -0.2026
 8419TIP3    H246673   4.258   0.295  15.147  1.5240 -1.8710  0.6525
 8420TIP3   OH246674   6.002   1.477  15.242 -0.5720 -0.3107 -0.6102
 8420TIP3    H146675   5.971   1.449  15.155 -0.6560  0.4275 -0.8282
 8420TIP3    H246676   6.057   1.554  15.224 -0.1133 -0.4999 -0.0565
 8421TIP3   OH246677   5.202   6.370  12.607 -0.8919 -0.8035  0.0773
 8421TIP3    H146678   5.124   6.320  12.633 -0.4916 -1.7248 -0.4655
 8421TIP3    H246679   5.246   6.315  12.542 -0.4763  0.2874 -0.6017
 8422TIP3   OH246680   5.953   5.557  17.054  0.6955  0.1444  0.3700
 8422TIP3    H146681   5.959   5.576  17.148  0.3224 -0.3167  0.4933
 8422TIP3    H246682   6.041   5.573  17.020  0.5976  1.2880  0.6056
 8423TIP3   OH246683   3.514   4.888  13.854  0.3955 -0.3788  0.5026
 8423TIP3    H146684   3.564   4.938  13.789  0.7222 -1.3662 -0.0199
 8423TIP3    H246685   3.565   4.808  13.867 -1.4939 -1.8852 -0.7870
 8424TIP3   OH246686   4.941   3.634  16.240  0.0098  0.5387  0.7244
 8424TIP3    H146687   4.915   3.663  16.152 -0.7392 -0.1261  0.7167
 8424TIP3    H246688   4.983   3.711  16.279  1.8963  0.3546 -0.8107
 8425TIP3   OH246689   6.712   6.049   3.954  0.0314  0.0754  0.2190
 8425TIP3    H146690   6.774   6.086   4.017  2.5509 -1.9310 -0.8680
 8425TIP3    H246691   6.627   6.055   3.996  0.8472  3.3123  1.6764
 8426TIP3   OH246692   0.120   1.428   1.610 -0.0901  0.1671 -0.0372
 8426TIP3    H146693   0.106   1.510   1.657 -0.7654  0.1908 -0.2588
 8426TIP3    H246694   0.167   1.454   1.530  0.6021  0.1944  0.3738
 8427TIP3   OH246695   4.251   6.117   0.513  0.6795  0.3886 -0.0609
 8427TIP3    H146696   4.335   6.110   0.560 -0.2577 -0.3398  1.6077
 8427TIP3    H246697   4.249   6.039   0.458 -0.4798 -1.7706  2.7671
 8428TIP3   OH246698   1.458   4.369  16.757  0.1194  0.4115 -0.5478
 8428TIP3    H146699   1.532   4.354  16.815 -0.0696 -1.5038 -0.7174
 8428TIP3    H246700   1.453   4.289  16.704 -1.9237  0.5643 -0.6812
 8429TIP3   OH246701   1.242   6.055  13.522 -0.1167 -0.3851  0.2277
 8429TIP3    H146702   1.205   5.980  13.568 -0.1598  0.2677  1.2929
 8429TIP3    H246703   1.277   6.018  13.441 -2.0075 -1.2038 -0.2609
 8430TIP3   OH246704   6.287   0.925   2.463  0.5545  0.0673  0.6021
 8430TIP3    H146705   6.296   0.860   2.393  1.4855 -0.3593  1.1082
 8430TIP3    H246706   6.213   0.894   2.515  1.2558 -0.8444  1.0909
 8431TIP3   OH246707   5.611   4.124  16.309 -0.0284  0.1178 -0.1392
 8431TIP3    H146708   5.595   4.044  16.259 -1.8711 -0.6428  1.5280
 8431TIP3    H246709   5.625   4.094  16.398  0.1838  1.6267  0.3611
 8432TIP3   OH246710   1.759   4.678   1.137 -0.7010 -0.3022 -0.1339
 8432TIP3    H146711   1.667   4.689   1.161 -1.2635 -1.6428 -1.5475
 8432TIP3    H246712   1.787   4.600   1.185 -1.0966 -1.4627 -1.7165
 8433TIP3   OH246713   2.680   0.600  15.986  0.4956  0.1021  0.4254
 8433TIP3    H146714   2.775   0.591  15.977  0.3499 -1.5744  0.0869
 8433TIP3    H246715   2.645   0.519  15.948 -1.1241  1.0946 -0.3122
 8434TIP3   OH246716   4.182   4.518   0.466  0.0769 -0.0186  0.0146
 8434TIP3    H146717   4.200   4.438   0.515  1.0169  0.9933  1.3817
 8434TIP3    H246718   4.086   4.522   0.462 -0.0308 -0.2447  1.6400
 8435TIP3   OH246719   4.965   0.687   4.494  0.1143 -0.7867 -0.1096
 8435TIP3    H146720   4.949   0.705   4.401  0.6209 -0.8803 -0.2174
 8435TIP3    H246721   5.050   0.644   4.495  0.1607 -0.6815  0.4116
 8436TIP3   OH246722   1.724   0.246  16.742  0.8637  0.0105  0.4421
 8436TIP3    H146723   1.789   0.216  16.806  0.8394  0.0978  0.5083
 8436TIP3    H246724   1.769   0.316  16.694  0.5869  0.5437  0.9496
 8437TIP3   OH246725   5.247   2.792   1.862  0.2242  0.0988  0.0080
 8437TIP3    H146726   5.278   2.842   1.786  0.7896  1.7724  1.3001
 8437TIP3    H246727   5.324   2.744   1.892  0.1440 -0.1106 -0.1152
 8438TIP3   OH246728   2.823   3.827  11.992  0.1617  0.0278 -0.2464
 8438TIP3    H146729   2.842   3.852  12.083 -2.4565 -0.6815  0.6103
 8438TIP3    H246730   2.896   3.770  11.967  1.4043  0.9526  1.0718
 8439TIP3   OH246731   1.732   4.552  15.732 -0.2450 -0.2245  0.5225
 8439TIP3    H146732   1.689   4.474  15.767  1.5001 -0.4095  2.4146
 8439TIP3    H246733   1.757   4.528  15.643  0.1644 -1.8050  1.0340
 8440TIP3   OH246734   1.548   1.417   0.864  0.2116  0.0721 -0.1196
 8440TIP3    H146735   1.459   1.443   0.886  0.0240 -0.4468 -0.2725
 8440TIP3    H246736   1.547   1.322   0.863  0.4218  0.0549 -1.4816
 8441TIP3   OH246737   2.067   3.284   3.197  0.3402 -0.7488  0.4417
 8441TIP3    H146738   2.059   3.193   3.225 -0.4303 -0.2821  1.8170
 8441TIP3    H246739   2.006   3.292   3.124  1.2642 -1.6024 -0.4609
 8442TIP3   OH246740   5.965   5.540   4.899  0.4861 -0.5828  0.3876
 8442TIP3    H146741   5.990   5.551   4.990 -0.2280  1.1122  0.4070
 8442TIP3    H246742   6.020   5.603   4.851  0.7437 -1.3441 -0.3432
 8443TIP3   OH246743   2.210   1.584   6.712 -0.0349  0.0591  0.1598
 8443TIP3    H146744   2.183   1.501   6.752 -1.2218  0.4731  0.2820
 8443TIP3    H246745   2.263   1.559   6.637  2.5601 -0.7561  2.1057
 8444TIP3   OH246746   0.027   6.301   4.085 -0.0999  0.0553  0.6251
 8444TIP3    H146747   0.035   6.245   4.162 -0.8886  1.7084  1.9843
 8444TIP3    H246748   0.034   6.390   4.120 -0.6931  0.8571 -1.2002
 8445TIP3   OH246749   5.130   0.781  15.137  0.5259  0.4129  0.5318
 8445TIP3    H146750   5.180   0.712  15.180  2.7526  2.0566  0.7592
 8445TIP3    H246751   5.142   0.766  15.044 -0.8371 -0.7120  0.4929
 8446TIP3   OH246752   6.768   4.880  14.053  0.7815 -0.3263  0.3748
 8446TIP3    H146753   6.757   4.975  14.046 -0.7599 -0.5703 -1.2298
 8446TIP3    H246754   6.680   4.845  14.035  1.7596 -2.1126 -1.2833
 8447TIP3   OH246755   2.255   1.788  15.705 -0.0796  0.1336  0.0168
 8447TIP3    H146756   2.290   1.874  15.726  0.8429 -0.2928  0.3121
 8447TIP3    H246757   2.202   1.764  15.781  0.4616  0.0366  0.3689
 8448TIP3   OH246758   0.495   2.369   3.980 -0.8537  0.4217 -0.0990
 8448TIP3    H146759   0.479   2.440   3.917 -0.8116  1.1230  0.6524
 8448TIP3    H246760   0.517   2.293   3.926 -3.8543  0.1280 -1.1294
 8449TIP3   OH246761   5.847   3.844  12.436 -0.6553  0.5151  0.0516
 8449TIP3    H146762   5.920   3.840  12.497 -0.8513 -0.5633  0.2404
 8449TIP3    H246763   5.776   3.797  12.479 -1.2037  0.8434 -0.4707
 8450TIP3   OH246764   4.602   0.532  17.019 -0.1537  0.0512 -0.2910
 8450TIP3    H146765   4.543   0.467  17.059  0.4550 -0.7012 -0.6066
 8450TIP3    H246766   4.690   0.501  17.040  0.1446  0.9792 -0.1299
 8451TIP3   OH246767   3.140   1.617  12.482 -0.1461  0.4759 -0.0472
 8451TIP3    H146768   3.119   1.524  12.472 -0.2003  0.4372  0.4090
 8451TIP3    H246769   3.170   1.625  12.572  3.4770  0.2029 -1.0731
 8452TIP3   OH246770   1.222   0.907   5.182  0.1800  0.5957 -0.6152
 8452TIP3    H146771   1.171   0.884   5.104 -3.0937 -2.7512  2.1513
 8452TIP3    H246772   1.181   0.986   5.217 -2.8035 -1.5070  1.0302
 8453TIP3   OH246773   6.619   4.719   4.275 -0.1695 -0.1352 -0.6530
 8453TIP3    H146774   6.646   4.627   4.284  0.1241 -0.0822 -0.9616
 8453TIP3    H246775   6.647   4.743   4.186 -0.6365  0.1216 -0.7299
 8454TIP3   OH246776   2.455   3.660   2.877  0.1661  0.0677 -0.3940
 8454TIP3    H146777   2.545   3.669   2.845  0.4904 -0.2128  0.4127
 8454TIP3    H246778   2.407   3.730   2.833  0.9918  0.8472 -0.0860
 8455TIP3   OH246779   1.134   6.659   2.910 -0.2180 -0.1850  0.1006
 8455TIP3    H146780   1.176   6.745   2.919 -1.0321  0.1195  1.1936
 8455TIP3    H246781   1.138   6.640   2.817 -0.6120  1.3438 -0.2595
 8456TIP3   OH246782   1.067   6.306  15.969  0.4365  0.5910  0.2244
 8456TIP3    H146783   1.156   6.273  15.968 -0.2719 -1.4488 -0.7793
 8456TIP3    H246784   1.050   6.333  15.878  0.7396  3.1814  0.8571
 8457TIP3   OH246785   0.955   0.331  15.726  0.2660  0.0850  0.3363
 8457TIP3    H146786   0.967   0.382  15.646 -0.8684  1.0242  0.7315
 8457TIP3    H246787   0.891   0.381  15.777  1.6833  0.0389  2.2814
 8458TIP3   OH246788   4.027   2.591  16.875 -1.1099 -0.0677  0.6474
 8458TIP3    H146789   4.062   2.657  16.934 -0.5621 -0.2905  0.5735
 8458TIP3    H246790   3.934   2.585  16.899 -1.4943  1.6886 -0.2521
 8459TIP3   OH246791   0.033   0.582   0.901 -0.3718  0.3747  0.2462
 8459TIP3    H146792   0.080   0.524   0.841 -1.4486  0.0775 -0.3300
 8459TIP3    H246793   0.102   0.621   0.955  0.5180 -0.1832 -0.4531
 8460TIP3   OH246794   1.807   3.082  14.132 -0.3378 -0.1838 -0.1622
 8460TIP3    H146795   1.808   3.147  14.062  0.2250  0.3601  0.3427
 8460TIP3    H246796   1.762   3.125  14.204  1.0564  0.0896  0.5787
 8461TIP3   OH246797   3.640   0.417  13.814  0.0091 -0.2860 -0.3021
 8461TIP3    H146798   3.579   0.422  13.741  0.3312 -1.5366 -0.6859
 8461TIP3    H246799   3.603   0.351  13.872  0.8977 -0.9503 -0.4643
 8462TIP3   OH246800   3.297   5.290  14.625 -0.4382 -0.2158  0.1616
 8462TIP3    H146801   3.225   5.249  14.578 -0.1865 -0.6980  0.1874
 8462TIP3    H246802   3.256   5.333  14.700 -0.6928 -0.5139  0.1916
 8463TIP3   OH246803   3.481   2.466  11.460  0.2605 -0.2422  0.0237
 8463TIP3    H146804   3.500   2.373  11.442  0.2990  0.2379 -2.7721
 8463TIP3    H246805   3.565   2.501  11.490  0.3856 -0.9701  0.5731
 8464TIP3   OH246806   2.032   4.592  12.012 -0.1995 -0.3126 -0.4352
 8464TIP3    H146807   2.045   4.572  12.105 -2.9779  0.9258  0.3057
 8464TIP3    H246808   2.121   4.599  11.977  0.9504 -0.3676  2.2133
 8465TIP3   OH246809   1.001   6.439   2.248  0.2721  0.3365  0.0532
 8465TIP3    H146810   0.976   6.408   2.161  0.2530  1.0698 -0.2060
 8465TIP3    H246811   1.093   6.463   2.240  0.3505  0.1296  0.3155
 8466TIP3   OH246812   1.620   3.426  15.985  0.1184  0.1893 -0.6469
 8466TIP3    H146813   1.708   3.443  16.019  0.1584  0.2992 -0.7988
 8466TIP3    H246814   1.562   3.476  16.042  0.1756  0.2960 -0.6818
 8467TIP3   OH246815   1.041   0.742  16.860 -0.0834  0.8908  0.3809
 8467TIP3    H146816   1.089   0.806  16.807 -1.6227  0.0868 -2.2161
 8467TIP3    H246817   0.964   0.789  16.891 -0.3502  0.7711 -0.0873
 8468TIP3   OH246818   2.994   3.504   5.478  0.4731  0.3903 -0.3694
 8468TIP3    H146819   2.941   3.570   5.522  0.6206 -1.4376  2.8197
 8468TIP3    H246820   2.941   3.425   5.481  0.3546  0.1772 -3.9769
 8469TIP3   OH246821   4.722   1.363   3.547 -0.0207 -0.3896  0.0610
 8469TIP3    H146822   4.640   1.313   3.552  1.1310 -2.3308  0.6495
 8469TIP3    H246823   4.748   1.376   3.638 -0.6617  2.0827 -0.0268
 8470TIP3   OH246824   0.567   2.126  13.674  0.0789 -0.1986 -0.1370
 8470TIP3    H146825   0.584   2.051  13.617  1.1115  0.9585 -1.4254
 8470TIP3    H246826   0.639   2.186  13.656 -1.1901  1.4869  0.1954
 8471TIP3   OH246827   2.563   2.312  13.157 -0.3942  0.8578 -0.3837
 8471TIP3    H146828   2.532   2.228  13.125 -3.2716  1.6081  0.1533
 8471TIP3    H246829   2.630   2.339  13.094 -0.1332 -1.3429 -1.1096
 8472TIP3   OH246830   6.573   4.805  12.056 -0.1863 -0.0189  0.2908
 8472TIP3    H146831   6.579   4.899  12.042  0.8503 -0.1950 -0.5544
 8472TIP3    H246832   6.514   4.796  12.131 -1.0668  1.2414 -0.2288
 8473TIP3   OH246833   0.523   0.980   4.489 -0.8154  0.9676 -0.1845
 8473TIP3    H146834   0.445   1.015   4.445 -1.4513  0.7634  0.7292
 8473TIP3    H246835   0.489   0.909   4.544  0.0724  0.6576 -0.0250
 8474TIP3   OH246836   4.546   3.284  14.966 -0.1792  0.1528 -0.0410
 8474TIP3    H146837   4.524   3.308  14.876  0.9564 -2.3501 -1.0892
 8474TIP3    H246838   4.639   3.264  14.964 -0.3654 -1.0897  1.3875
 8475TIP3   OH246839   3.975   4.131  11.011 -0.1310 -0.3488  0.3842
 8475TIP3    H146840   4.056   4.122  11.063 -1.8045  1.7330  3.7122
 8475TIP3    H246841   3.982   4.218  10.971 -0.2454 -0.6272 -0.2414
 8476TIP3   OH246842   1.471   0.654  15.658 -0.0895 -0.2792 -0.1013
 8476TIP3    H146843   1.531   0.625  15.590 -1.1703 -1.0781 -0.7489
 8476TIP3    H246844   1.391   0.678  15.610  0.6805  3.9961  0.3161
 8477TIP3   OH246845   4.531   4.088   1.404  0.1618 -0.9342  0.2577
 8477TIP3    H146846   4.570   4.175   1.419  0.4989 -1.0342 -0.0306
 8477TIP3    H246847   4.517   4.053   1.492 -0.4024 -0.4034  0.3902
 8478TIP3   OH246848   4.918   0.528   6.214 -0.0522  0.0927  0.6607
 8478TIP3    H146849   4.865   0.525   6.135  3.1921 -1.4477 -1.6725
 8478TIP3    H246850   4.989   0.590   6.193  1.7478 -1.5234  1.6864
 8479TIP3   OH246851   3.777   1.263  15.044  0.3617 -0.6159 -0.2305
 8479TIP3    H146852   3.843   1.288  15.108  1.3113 -1.2596 -0.9365
 8479TIP3    H246853   3.712   1.333  15.049  1.8526  0.8607 -0.6043
 8480TIP3   OH246854   2.652   1.272   4.466  0.0022 -0.3649 -0.4653
 8480TIP3    H146855   2.624   1.359   4.492  3.4892  0.0367  2.8841
 8480TIP3    H246856   2.735   1.286   4.420 -0.0457 -1.8561 -1.0577
 8481TIP3   OH246857   3.609   3.176  11.146  0.2440 -0.0901 -0.1997
 8481TIP3    H146858   3.541   3.178  11.079  0.2419 -1.0449 -0.2392
 8481TIP3    H246859   3.573   3.228  11.218  0.3539  1.1468 -1.0166
 8482TIP3   OH246860   3.832   6.621   5.300 -0.7393 -0.4737 -0.0902
 8482TIP3    H146861   3.837   6.561   5.226  0.1676 -0.2239 -0.2509
 8482TIP3    H246862   3.869   6.703   5.266 -1.1006 -0.1080  0.3922
 8483TIP3   OH246863   2.195   2.413  11.469 -0.1537 -0.3887  0.2929
 8483TIP3    H146864   2.153   2.467  11.402 -0.6667 -0.3956  0.6098
 8483TIP3    H246865   2.279   2.388  11.430 -0.2744 -0.0570 -0.1865
 8484TIP3   OH246866   2.944   0.753  14.158 -0.0416 -0.2337 -0.0632
 8484TIP3    H146867   2.874   0.817  14.176  0.9635  1.2997 -1.3150
 8484TIP3    H246868   3.006   0.765  14.230  0.1750  0.2843 -0.3262
 8485TIP3   OH246869   0.380   1.682  16.243 -0.1546  0.1874  1.1247
 8485TIP3    H146870   0.404   1.633  16.164 -0.7593  0.6603  0.6387
 8485TIP3    H246871   0.447   1.750  16.250 -1.1762  1.3801 -0.1164
 8486TIP3   OH246872   6.297   2.729  15.115 -0.2368 -0.0066  0.1951
 8486TIP3    H146873   6.225   2.772  15.161  0.4349  0.8900  0.4382
 8486TIP3    H246874   6.369   2.727  15.179  0.5157  0.7303 -0.5987
 8487TIP3   OH246875   6.376   3.755  11.633  0.2704 -0.4966  0.3107
 8487TIP3    H146876   6.333   3.676  11.601 -2.0435  0.3035  1.2908
 8487TIP3    H246877   6.428   3.725  11.708  0.3758 -1.2464 -0.0502
 8488TIP3   OH246878   3.772   1.054  11.324 -0.8855  0.4413 -0.3571
 8488TIP3    H146879   3.851   1.000  11.322 -0.0925  1.5269  0.7919
 8488TIP3    H246880   3.783   1.115  11.251 -1.0492  0.0890 -0.6830
 8489TIP3   OH246881   5.156   3.105   4.549  0.2644  1.3545  0.0513
 8489TIP3    H146882   5.130   3.149   4.630 -3.8178  2.3327 -1.5581
 8489TIP3    H246883   5.163   3.176   4.484  0.7896  0.3320 -1.0442
 8490TIP3   OH246884   0.127   0.111   1.231 -0.2325  0.3771  0.0122
 8490TIP3    H146885   0.203   0.161   1.202 -0.1800 -0.1679 -0.8678
 8490TIP3    H246886   0.156   0.019   1.226 -0.7482  0.1957  0.2739
 8491TIP3   OH246887   6.350   5.291   2.837 -0.2936 -0.6263  0.6373
 8491TIP3    H146888   6.406   5.249   2.772 -0.7757  0.9964 -0.8945
 8491TIP3    H246889   6.265   5.248   2.828 -0.5986  0.1564 -0.4601
 8492TIP3   OH246890   4.100   6.485   1.864  0.2578 -0.0682  0.0028
 8492TIP3    H146891   4.055   6.497   1.781  2.6701  0.5788 -1.3087
 8492TIP3    H246892   4.161   6.559   1.869  1.0035 -0.7467  1.7786
 8493TIP3   OH246893   4.847   6.113   1.554 -0.1811 -0.6487 -0.2986
 8493TIP3    H146894   4.771   6.172   1.546 -0.9964 -1.4165  1.2781
 8493TIP3    H246895   4.828   6.060   1.632  2.0411 -0.8077  0.1893
 8494TIP3   OH246896   2.661   0.049  17.148 -0.3980  0.5599 -0.3176
 8494TIP3    H146897   2.661   0.095  17.232 -0.2739  1.4335 -0.7836
 8494TIP3    H246898   2.583   0.079  17.103 -1.1602 -0.8776 -0.0219
 8495TIP3   OH246899   4.437   0.211  11.599  0.1356 -0.7452 -0.2297
 8495TIP3    H146900   4.473   0.259  11.673 -1.4783  0.0339  0.1114
 8495TIP3    H246901   4.487   0.241  11.524 -0.5190  1.1911  0.0416
 8496TIP3   OH246902   5.102   1.180   2.488  0.5643  0.2741  0.4473
 8496TIP3    H146903   5.053   1.139   2.560 -0.5906 -1.6338 -1.2788
 8496TIP3    H246904   5.194   1.165   2.510  0.2500 -0.0298  1.6457
 8497TIP3   OH246905   6.007   3.744   6.027  0.5660 -0.3265  0.5546
 8497TIP3    H146906   6.044   3.829   6.052  0.5924 -0.3806  0.6984
 8497TIP3    H246907   5.944   3.723   6.096 -1.7566  1.0204 -1.0159
 8498TIP3   OH246908   3.490   5.035   1.621 -0.8141  0.5079  0.1866
 8498TIP3    H146909   3.548   4.970   1.661  0.5066  1.0773 -0.7246
 8498TIP3    H246910   3.527   5.049   1.534 -2.5084  0.6998 -0.5334
 8499TIP3   OH246911   2.892   6.557   0.618  0.7142 -0.0842  0.2755
 8499TIP3    H146912   2.808   6.579   0.659 -0.3843  0.9644 -2.3640
 8499TIP3    H246913   2.882   6.465   0.592  0.7927 -0.2654  0.8736
 8500TIP3   OH246914   2.373   5.705  14.733  0.1274 -0.6794 -0.0620
 8500TIP3    H146915   2.358   5.662  14.649  1.6281  0.2980 -0.8723
 8500TIP3    H246916   2.374   5.799  14.712 -1.9456 -0.2261  1.4770
 8501TIP3   OH246917   3.477   2.150  13.894  0.0433 -0.2378 -0.1132
 8501TIP3    H146918   3.550   2.160  13.955 -1.1640  0.8989  1.2272
 8501TIP3    H246919   3.460   2.056  13.891  0.5977 -0.3763  0.7396
 8502TIP3   OH246920   2.918   1.946   3.662  0.2497 -0.0908  0.7260
 8502TIP3    H146921   2.967   1.948   3.579 -0.9026  2.6553  0.0051
 8502TIP3    H246922   2.873   1.862   3.660 -1.6760  0.8257 -2.7265
 8503TIP3   OH246923   4.311   4.126  15.418  0.0158 -0.1325 -0.0560
 8503TIP3    H146924   4.339   4.116  15.509  0.7720  0.7644 -0.1791
 8503TIP3    H246925   4.221   4.092  15.416 -0.3979  0.8286  1.2492
 8504TIP3   OH246926   4.551   0.164   2.314  0.5655 -0.5267 -0.2212
 8504TIP3    H146927   4.569   0.077   2.348 -0.7292 -0.3759  0.9383
 8504TIP3    H246928   4.549   0.220   2.392  3.1833  0.9266 -1.0741
 8505TIP3   OH246929   4.303   4.447  17.110  0.0363 -0.8078 -0.1312
 8505TIP3    H146930   4.391   4.440  17.147 -0.2959  0.6698  0.9986
 8505TIP3    H246931   4.255   4.502  17.171 -0.3579  2.4231 -3.0528
 8506TIP3   OH246932   3.427   2.116   0.298  0.4230  0.3825 -0.1562
 8506TIP3    H146933   3.345   2.154   0.330  0.4885  1.4665 -1.1977
 8506TIP3    H246934   3.402   2.066   0.221  0.7136  0.6217 -0.4099
 8507TIP3   OH246935   3.139   0.326   5.604 -0.4743 -0.1470  0.1085
 8507TIP3    H146936   3.229   0.313   5.635 -0.3781  1.1127  0.4043
 8507TIP3    H246937   3.130   0.266   5.530  0.6770 -0.1145 -0.0720
 8508TIP3   OH246938   1.625   3.534  13.710 -0.2349  0.4602 -0.1580
 8508TIP3    H146939   1.674   3.499  13.636  1.0778 -0.4473  1.0754
 8508TIP3    H246940   1.682   3.603  13.746  0.2656 -0.6871  1.3633
 8509TIP3   OH246941   2.069   3.088  16.892  0.0322 -0.0431  0.0291
 8509TIP3    H146942   1.985   3.051  16.864  0.0461 -0.5583  0.6510
 8509TIP3    H246943   2.077   3.169  16.842 -1.2078  0.4167  0.5549
 8510TIP3   OH246944   0.559   2.172   1.667  0.5953 -0.2954 -0.2320
 8510TIP3    H146945   0.487   2.169   1.604  0.1679 -2.6926  0.2645
 8510TIP3    H246946   0.636   2.193   1.613 -0.4736  3.2244 -0.6286
 8511TIP3   OH246947   3.274   5.141   0.590  0.2564  0.0746  0.2978
 8511TIP3    H146948   3.212   5.082   0.633  0.0996 -0.0721 -0.1296
 8511TIP3    H246949   3.358   5.123   0.632  0.0427  0.1628  0.7721
 8512TIP3   OH246950   2.980   5.915   1.971 -0.2902 -0.6240  0.7091
 8512TIP3    H146951   3.051   5.873   2.019 -0.4291 -0.6882  0.8608
 8512TIP3    H246952   2.904   5.858   1.987 -0.4325 -0.4206  0.7558
 8513TIP3   OH246953   0.891   1.213   1.956  0.0966  0.3477 -0.3961
 8513TIP3    H146954   0.807   1.235   1.916  0.8522  1.7934 -1.2591
 8513TIP3    H246955   0.902   1.277   2.026  0.0466 -0.4669  0.3823
 8514TIP3   OH246956   4.487   1.543  14.166 -0.1420 -0.2335  0.0054
 8514TIP3    H146957   4.471   1.502  14.251  1.9522 -1.4157 -0.1178
 8514TIP3    H246958   4.563   1.600  14.181  0.6365 -0.9305 -1.1997
 8515TIP3   OH246959   4.888   1.494   2.235  0.1092 -0.1636 -0.2629
 8515TIP3    H146960   4.839   1.433   2.291 -1.1143 -0.2236 -1.3555
 8515TIP3    H246961   4.910   1.567   2.293 -1.8188  0.1503  0.1480
 8516TIP3   OH246962   1.605   1.780  14.932  0.2235 -0.0312 -0.5202
 8516TIP3    H146963   1.648   1.865  14.931 -1.1199  0.6858 -1.7787
 8516TIP3    H246964   1.618   1.746  14.843  1.5086 -1.5938  0.1985
 8517TIP3   OH246965   6.559   2.587  13.452  0.8676 -0.3600 -0.4829
 8517TIP3    H146966   6.645   2.609  13.416  1.5698 -3.1500 -0.7633
 8517TIP3    H246967   6.542   2.499  13.420 -1.6462 -0.2868  0.4542
 8518TIP3   OH246968   0.825   1.563  12.712 -0.2828 -0.9953  0.0468
 8518TIP3    H146969   0.861   1.486  12.667  1.4207 -0.5732  0.5795
 8518TIP3    H246970   0.900   1.623  12.719 -1.8229  1.2627 -1.4536
 8519TIP3   OH246971   0.255   5.978   2.856 -0.5706  0.3042  0.4905
 8519TIP3    H146972   0.346   6.007   2.844 -0.5467  0.0671  0.0889
 8519TIP3    H246973   0.263   5.896   2.905 -0.4663 -0.5336 -0.8608
 8520TIP3   OH246974   2.754   0.800  17.214  0.1933  0.1955 -0.2395
 8520TIP3    H146975   2.715   0.717  17.243  1.7524 -0.4646  0.0666
 8520TIP3    H246976   2.703   0.867  17.260 -0.6546 -0.6195  0.0442
 8521TIP3   OH246977   6.149   0.404  11.481  0.2236  0.6421 -0.0480
 8521TIP3    H146978   6.245   0.400  11.485  0.1740 -0.9317  0.0810
 8521TIP3    H246979   6.131   0.454  11.402  1.1608 -0.2296 -0.8494
 8522TIP3   OH246980   6.677   1.189   6.850 -0.3614 -0.0067 -0.2399
 8522TIP3    H146981   6.734   1.255   6.810 -1.0216  1.4854  1.1850
 8522TIP3    H246982   6.735   1.116   6.868  1.1761  1.4639  1.1581
 8523TIP3   OH246983   6.216   1.688  16.534 -0.4226 -0.0608  0.1070
 8523TIP3    H146984   6.150   1.619  16.537  0.0960 -0.5375  2.5848
 8523TIP3    H246985   6.213   1.728  16.621  2.4695 -0.0487  0.2968
 8524TIP3   OH246986   3.049   1.744   4.790 -0.4475 -0.3437 -0.2205
 8524TIP3    H146987   2.966   1.777   4.824 -0.4849  0.5855 -1.1592
 8524TIP3    H246988   3.075   1.675   4.851 -0.9719  0.6310  1.1488
 8525TIP3   OH246989   0.499   1.401   1.618 -0.4315 -1.0234  0.0214
 8525TIP3    H146990   0.582   1.444   1.597 -0.6768 -0.5463  0.0229
 8525TIP3    H246991   0.437   1.438   1.555 -0.5793 -1.5966 -0.1718
 8526TIP3   OH246992   4.926   1.088  16.729 -0.1201  0.5379 -0.3413
 8526TIP3    H146993   4.968   1.111  16.646  0.2749 -0.3907 -0.4128
 8526TIP3    H246994   4.997   1.088  16.793 -0.2996  0.5705 -0.1393
 8527TIP3   OH246995   5.066   5.590   1.290  0.5461 -0.0661 -0.2760
 8527TIP3    H146996   5.017   5.585   1.208  0.9460 -1.6593 -0.4670
 8527TIP3    H246997   5.052   5.679   1.321 -0.1312  0.3848 -1.7504
 8528TIP3   OH246998   3.281   5.510  14.192  0.7964  0.3924 -0.2671
 8528TIP3    H146999   3.351   5.466  14.239 -1.7826 -3.0346  0.8073
 8528TIP3    H247000   3.230   5.554  14.260 -0.8876 -1.5190 -0.1893
 8529TIP3   OH247001   4.012   4.678   3.924 -0.6294  0.1342 -0.2525
 8529TIP3    H147002   4.003   4.611   3.992  2.4184 -1.5466 -1.3267
 8529TIP3    H247003   3.991   4.632   3.842 -0.3042  0.9837 -0.8242
 8530TIP3   OH247004   4.541   1.716   5.325 -0.4660  0.3420  0.9636
 8530TIP3    H147005   4.546   1.621   5.310 -0.0559  0.2027  1.9162
 8530TIP3    H247006   4.536   1.725   5.420  2.1948  1.3595  1.0974
 8531TIP3   OH247007   2.901   1.095   3.129 -0.0817 -0.0193 -0.0438
 8531TIP3    H147008   2.825   1.154   3.124 -0.8952 -1.0496 -0.1059
 8531TIP3    H247009   2.919   1.071   3.038 -1.0179 -1.4184  0.1142
 8532TIP3   OH247010   3.954   5.611   1.078  0.3995 -0.0954  0.3710
 8532TIP3    H147011   3.878   5.576   1.031  1.6580 -0.8037 -1.2385
 8532TIP3    H247012   3.985   5.682   1.022  0.8812  0.2400  1.0566
 8533TIP3   OH247013   1.504   4.756  16.287  0.2040 -0.2052  0.3879
 8533TIP3    H147014   1.415   4.775  16.318  0.0065 -2.1335  1.1787
 8533TIP3    H247015   1.511   4.802  16.204 -0.9348  1.3446  1.0923
 8534TIP3   OH247016   6.573   4.229  13.279 -0.1700 -0.3616 -0.3681
 8534TIP3    H147017   6.549   4.137  13.285 -0.9763 -0.2770 -1.7465
 8534TIP3    H247018   6.644   4.231  13.215  1.2252 -0.2144  1.1219
 8535TIP3   OH247019   2.003   1.954   1.683  0.2921 -0.0372 -0.2350
 8535TIP3    H147020   2.034   2.006   1.757 -0.3914  0.1081 -0.0468
 8535TIP3    H247021   2.053   1.873   1.688 -1.0327 -0.8036  1.4863
 8536TIP3   OH247022   4.811   0.452   1.738  0.4368 -0.0194  0.6438
 8536TIP3    H147023   4.852   0.394   1.802 -0.5129 -0.5016  0.8311
 8536TIP3    H247024   4.745   0.499   1.787  0.1228  0.0654  0.1471
 8537TIP3   OH247025   4.003   3.927   1.126  0.2916  0.5096  0.0583
 8537TIP3    H147026   4.009   3.862   1.196 -0.0723  2.5566  2.1235
 8537TIP3    H247027   4.009   3.876   1.045  0.4930 -2.0050  1.5484
 8538TIP3   OH247028   3.705   1.923  15.145  0.2400 -0.3459  0.3823
 8538TIP3    H147029   3.616   1.944  15.172  0.5820  0.7126  0.7570
 8538TIP3    H247030   3.722   1.836  15.181 -0.7111 -0.6543  0.1103
 8539TIP3   OH247031   3.872   1.030   1.364 -0.1448  0.7565  0.1809
 8539TIP3    H147032   3.962   1.062   1.365 -0.0047  0.4292 -1.1582
 8539TIP3    H247033   3.844   1.038   1.273 -0.4023 -2.1075 -0.0724
 8540TIP3   OH247034   6.766   4.039  17.320  0.1768  0.4344  0.1461
 8540TIP3    H147035   6.763   3.948  17.350  1.3456  0.1866 -0.4131
 8540TIP3    H247036   6.745   4.034  17.227  1.1836  0.5966 -0.1067
 8541TIP3   OH247037   1.356   2.197   3.525 -0.4618  0.3609 -0.2336
 8541TIP3    H147038   1.398   2.143   3.458  0.6382  0.6885  0.1595
 8541TIP3    H247039   1.367   2.147   3.606 -1.9557 -0.1233 -0.3032
 8542TIP3   OH247040   1.731   2.333   3.140  0.5129  0.0958 -0.1570
 8542TIP3    H147041   1.645   2.294   3.154  0.4420  0.1229 -0.4986
 8542TIP3    H247042   1.792   2.260   3.152  0.3921 -0.0930 -0.6311
 8543TIP3   OH247043   1.945   1.998   6.610 -0.4417 -0.1197 -0.5479
 8543TIP3    H147044   1.894   2.015   6.530  0.8707  0.7298 -1.2412
 8543TIP3    H247045   1.974   1.908   6.601  0.1042  0.1148 -1.3009
 8544TIP3   OH247046   4.765   5.289  16.457  0.1160 -0.2630  0.4136
 8544TIP3    H147047   4.842   5.343  16.438 -0.2997 -0.5289 -2.4988
 8544TIP3    H247048   4.700   5.352  16.488  1.2222  0.0636  2.2331
 8545TIP3   OH247049   5.123   1.341  11.252  0.1935 -0.3521  0.1543
 8545TIP3    H147050   5.069   1.274  11.210 -1.2353  0.7317  0.1638
 8545TIP3    H247051   5.196   1.355  11.192 -0.6531 -0.3919 -0.9054
 8546TIP3   OH247052   3.194   2.976  16.786 -0.3586  0.0070 -0.1531
 8546TIP3    H147053   3.239   2.979  16.702 -2.4398  0.4230 -1.3118
 8546TIP3    H247054   3.180   2.883  16.803  2.2046 -0.2618  1.0254
 8547TIP3   OH247055   4.603   0.427  16.162  0.2601 -0.3522 -0.3791
 8547TIP3    H147056   4.669   0.457  16.098  0.0733 -1.8430 -1.3316
 8547TIP3    H247057   4.519   0.441  16.118  0.0622 -0.4406 -0.0308
 8548TIP3   OH247058   5.405   5.887  15.647  0.0315 -0.0423  0.0502
 8548TIP3    H147059   5.345   5.902  15.574  0.2782 -0.7974 -0.3117
 8548TIP3    H247060   5.482   5.847  15.608  0.3028 -0.1486  0.6811
 8549TIP3   OH247061   5.987   2.215   2.643 -0.0244  0.0622  0.4908
 8549TIP3    H147062   6.019   2.126   2.632 -0.7100 -0.3317  1.5092
 8549TIP3    H247063   6.026   2.264   2.571  1.1208 -0.8501  0.4625
 8550TIP3   OH247064   4.638   4.528  16.080 -0.0309 -0.4188  0.7926
 8550TIP3    H147065   4.604   4.552  15.994 -0.4524 -1.3898  0.6732
 8550TIP3    H247066   4.644   4.611  16.127  0.7141  0.1932 -0.3395
 8551TIP3   OH247067   2.154   2.460   2.060 -0.5695 -0.2849  0.0572
 8551TIP3    H147068   2.105   2.478   2.140 -0.7913  1.1611 -0.3743
 8551TIP3    H247069   2.239   2.428   2.091 -0.4929  0.6685  0.9019
 8552TIP3   OH247070   3.023   2.621   1.569 -0.5453 -0.0147 -0.0662
 8552TIP3    H147071   2.964   2.681   1.524  0.1042  0.7299  0.0567
 8552TIP3    H247072   3.107   2.668   1.573 -0.6180  0.0092  2.0247
 8553TIP3   OH247073   1.852   0.549   1.503 -0.4966 -0.0219 -0.3096
 8553TIP3    H147074   1.792   0.623   1.500 -1.6256 -0.8598  0.7603
 8553TIP3    H247075   1.880   0.545   1.595  0.7466 -0.0134 -0.6680
 8554TIP3   OH247076   0.691   4.381   2.834  0.3507  0.4443 -0.5024
 8554TIP3    H147077   0.779   4.377   2.798  1.2140 -0.6743  1.5821
 8554TIP3    H247078   0.683   4.301   2.886 -2.2044  0.1111 -1.2649
 8555TIP3   OH247079   4.772   0.881   5.719  0.1395  0.3883  0.2222
 8555TIP3    H147080   4.868   0.881   5.717  0.1381  1.0271 -1.0069
 8555TIP3    H247081   4.746   0.814   5.656 -0.2731 -1.9585  2.7219
 8556TIP3   OH247082   6.750   6.040  14.680  0.7173 -0.8809 -0.1768
 8556TIP3    H147083   6.788   6.111  14.732 -1.3152  0.1439  0.0034
 8556TIP3    H247084   6.710   5.982  14.745  0.4441 -0.9978 -0.4475
 8557TIP3   OH247085   1.400   2.926  11.212  0.0512 -0.1864 -0.9481
 8557TIP3    H147086   1.314   2.884  11.222 -0.0540 -0.0321 -1.1816
 8557TIP3    H247087   1.444   2.873  11.145 -0.0337 -0.0043 -1.1517
 8558TIP3   OH247088   6.669   5.443   5.189  0.4974  0.6469 -0.0208
 8558TIP3    H147089   6.670   5.356   5.228  0.2362  0.9307  0.6360
 8558TIP3    H247090   6.577   5.458   5.166  0.2044  1.4540  1.5198
 8559TIP3   OH247091   5.842   3.988  17.246  0.4040  0.1581  0.0780
 8559TIP3    H147092   5.787   3.924  17.291 -1.3396  0.8045 -1.0288
 8559TIP3    H247093   5.840   4.065  17.301  1.4574 -0.3044  0.7804
 8560TIP3   OH247094   6.217   2.367  16.298  0.0016  0.0482 -0.7009
 8560TIP3    H147095   6.184   2.321  16.220 -1.1534 -1.3160  0.5305
 8560TIP3    H247096   6.159   2.443  16.307  1.0617  1.0647 -1.9615
 8561TIP3   OH247097   2.732   5.436   3.404 -0.2810  0.1894 -0.3038
 8561TIP3    H147098   2.720   5.467   3.314  2.8638  0.0595 -0.8656
 8561TIP3    H247099   2.697   5.347   3.403 -0.5539  0.2931 -1.2944
 8562TIP3   OH247100   4.281   3.038   5.821  0.1172 -0.7196  0.6690
 8562TIP3    H147101   4.197   2.999   5.845  0.8034 -1.5247  1.8374
 8562TIP3    H247102   4.290   3.114   5.878  0.6633 -1.2603  1.3170
 8563TIP3   OH247103   3.256   1.036  14.073 -0.0974 -0.2316 -0.1212
 8563TIP3    H147104   3.300   1.078  13.999 -2.5743  0.1928 -1.4450
 8563TIP3    H247105   3.302   0.953  14.084  0.3135 -0.3348 -2.1950
 8564TIP3   OH247106   5.578   5.601  12.269  0.3713  0.4810  0.7349
 8564TIP3    H147107   5.487   5.578  12.248  0.4725 -0.3876  1.1789
 8564TIP3    H247108   5.576   5.622  12.363  0.9578 -1.5591  1.2649
 8565TIP3   OH247109   0.788   0.161   2.484 -0.0114 -0.2192 -0.4696
 8565TIP3    H147110   0.780   0.175   2.578 -1.4341  0.3645 -0.6527
 8565TIP3    H247111   0.871   0.201   2.461  0.1448  0.0241  0.4728
 8566TIP3   OH247112   0.133   5.419   2.263 -0.0041  0.0160  0.0514
 8566TIP3    H147113   0.117   5.417   2.358  2.0713  0.4978  0.4422
 8566TIP3    H247114   0.124   5.327   2.236  0.7634 -0.3505  0.9772
 8567TIP3   OH247115   5.962   0.896   4.579  0.1120 -0.8898  0.1733
 8567TIP3    H147116   5.912   0.846   4.515 -0.6844  1.3201 -1.0495
 8567TIP3    H247117   5.895   0.938   4.634  0.5027  1.6320 -1.1087
 8568TIP3   OH247118   1.291   3.592  13.316  0.2189  0.5236 -0.5548
 8568TIP3    H147119   1.266   3.525  13.380 -1.0931 -0.9360 -2.4645
 8568TIP3    H247120   1.210   3.640  13.299  0.4845  0.7218 -1.2904
 8569TIP3   OH247121   1.464   0.993   5.092  0.2832 -0.8781 -0.3745
 8569TIP3    H147122   1.526   0.921   5.095 -0.0365 -1.2238 -1.4482
 8569TIP3    H247123   1.391   0.965   5.147  0.2773 -1.2611 -0.5791
 8570TIP3   OH247124   4.509   6.341   6.425  0.0822  0.2909 -0.0264
 8570TIP3    H147125   4.468   6.270   6.375 -0.1607 -0.2952  0.9832
 8570TIP3    H247126   4.482   6.420   6.379 -1.6210 -0.1232  0.1666
 8571TIP3   OH247127   3.307   6.087  15.962  0.2729  0.3993 -0.0286
 8571TIP3    H147128   3.233   6.138  15.928  1.8722  1.8227 -1.5717
 8571TIP3    H247129   3.384   6.132  15.929  1.8334 -1.9711  0.1451
 8572TIP3   OH247130   0.701   3.093  16.447 -0.4925  0.8191  0.8615
 8572TIP3    H147131   0.624   3.086  16.391 -0.9632 -0.4194  1.6162
 8572TIP3    H247132   0.770   3.047  16.399 -0.7145  0.3554  0.9771
 8573TIP3   OH247133   5.522   4.923   0.156 -0.4480  0.1783  0.3893
 8573TIP3    H147134   5.457   4.854   0.172  0.5988 -0.3681  2.7444
 8573TIP3    H247135   5.547   4.912   0.065 -0.1384 -2.7586  0.7366
 8574TIP3   OH247136   6.633   1.174  12.088 -0.9226  0.2207 -0.4154
 8574TIP3    H147137   6.621   1.111  12.159 -1.2235  1.6914  0.8844
 8574TIP3    H247138   6.559   1.234  12.096  1.1201  2.7651  0.5664
 8575TIP3   OH247139   2.404   3.385   2.942 -0.6253  0.1663 -0.6060
 8575TIP3    H147140   2.411   3.463   2.996 -0.3196 -0.9078  0.9830
 8575TIP3    H247141   2.466   3.399   2.871  1.3415  0.3004  1.0694
 8576TIP3   OH247142   0.368   1.785  13.395  0.0088  0.0884 -0.0437
 8576TIP3    H147143   0.357   1.823  13.482  0.4525 -0.1677  0.1274
 8576TIP3    H247144   0.334   1.696  13.402 -1.2380  0.5131 -0.5055
 8577TIP3   OH247145   0.703   5.025   1.915  0.1499  0.0484  0.3562
 8577TIP3    H147146   0.676   4.948   1.965  0.3364 -1.2251 -1.4062
 8577TIP3    H247147   0.780   5.058   1.961 -0.8449  0.1499  2.0239
 8578TIP3   OH247148   3.810   5.185  12.568 -0.0715  0.0098  0.5967
 8578TIP3    H147149   3.831   5.225  12.653 -0.8104 -0.4592  1.0157
 8578TIP3    H247150   3.892   5.186  12.520  0.3215  0.4347  1.2572
 8579TIP3   OH247151   3.630   3.880   2.739  0.1707 -0.4438 -0.2024
 8579TIP3    H147152   3.644   3.930   2.659  5.7484 -1.4050 -0.2483
 8579TIP3    H247153   3.639   3.944   2.809 -1.8277 -0.0845 -0.2158
 8580TIP3   OH247154   2.098   1.456  17.032 -0.2881 -0.4620 -0.0744
 8580TIP3    H147155   2.021   1.486  16.984 -0.5735  0.1665  0.7398
 8580TIP3    H247156   2.172   1.497  16.988 -0.6021  0.6835  0.4280
 8581TIP3   OH247157   3.775   0.504   0.513 -0.0784 -0.2139  0.6420
 8581TIP3    H147158   3.865   0.475   0.527 -0.1835 -1.3155 -0.7563
 8581TIP3    H247159   3.779   0.558   0.434 -0.8084 -1.3091 -0.1729
 8582TIP3   OH247160   1.783   0.500   2.332 -0.1631 -0.0643 -0.0922
 8582TIP3    H147161   1.695   0.522   2.363 -0.3537  1.7860 -1.7770
 8582TIP3    H247162   1.842   0.546   2.392 -0.4330  0.9516 -0.5992
 8583TIP3   OH247163   6.338   6.416  12.552  0.3190 -0.5105  0.3126
 8583TIP3    H147164   6.312   6.507  12.539  1.3249 -0.2146  0.3181
 8583TIP3    H247165   6.397   6.418  12.627 -0.7885 -1.3838  1.2526
 8584TIP3   OH247166   3.576   6.490  13.811  0.4737 -0.0455  0.1497
 8584TIP3    H147167   3.607   6.460  13.725  1.6105 -2.7078  1.3498
 8584TIP3    H247168   3.636   6.561  13.834 -0.7067  1.6804 -1.7706
 8585TIP3   OH247169   1.294   0.096   3.058  0.1129  0.1257  0.0066
 8585TIP3    H147170   1.297   0.053   3.143  0.6586  2.2605  1.1553
 8585TIP3    H247171   1.224   0.161   3.067  0.0002  0.2166 -1.2821
 8586TIP3   OH247172   0.536   6.483  12.854  0.1068  0.0402 -0.6806
 8586TIP3    H147173   0.620   6.528  12.851  0.8801 -1.3080 -0.2801
 8586TIP3    H247174   0.539   6.421  12.781 -0.7449  0.3201 -0.9652
 8587TIP3   OH247175   0.133   4.941  14.339 -0.3364 -0.5577  0.2915
 8587TIP3    H147176   0.132   4.906  14.250  0.7317  0.0087  0.0436
 8587TIP3    H247177   0.226   4.953  14.359 -0.6369  2.2163  0.3397
 8588TIP3   OH247178   5.016   4.075  15.761  0.4268  0.6835 -0.2396
 8588TIP3    H147179   5.082   4.051  15.826  0.1804 -1.4546 -0.6892
 8588TIP3    H247180   5.044   4.030  15.681 -0.4851  1.4061 -0.9880
 8589TIP3   OH247181   0.216   5.300  13.827  0.3090 -0.1701 -0.7802
 8589TIP3    H147182   0.202   5.208  13.850 -1.1676  0.3389  0.5105
 8589TIP3    H247183   0.216   5.346  13.911 -1.8946  1.3543 -1.5365
 8590TIP3   OH247184   6.211   2.060  16.847 -0.1107  0.1666  0.4760
 8590TIP3    H147185   6.246   2.149  16.838 -0.0220  0.1992  1.1118
 8590TIP3    H247186   6.118   2.069  16.825  0.1369  0.1932 -0.6179
 8591TIP3   OH247187   2.930   5.978   1.104 -0.0743  0.0434 -0.0951
 8591TIP3    H147188   2.891   5.896   1.136 -1.1692  0.9705  1.0500
 8591TIP3    H247189   3.024   5.968   1.122 -0.2847 -0.6741  0.6897
 8592TIP3   OH247190   2.491   2.549   4.894 -0.8105  0.5708  0.0148
 8592TIP3    H147191   2.470   2.606   4.967 -2.5756  2.5627 -1.9375
 8592TIP3    H247192   2.583   2.569   4.874 -0.7955  1.1743  0.6549
 8593TIP3   OH247193   1.404   6.140  13.100 -0.2944  0.4628  0.0934
 8593TIP3    H147194   1.478   6.168  13.046  0.9236 -1.9659  0.3198
 8593TIP3    H247195   1.393   6.047  13.077 -1.8581  0.2240  1.6671
 8594TIP3   OH247196   2.363   0.369   0.548  0.5141  0.0112  0.2280
 8594TIP3    H147197   2.429   0.327   0.604  0.6189 -0.3171 -0.1352
 8594TIP3    H247198   2.410   0.390   0.468  0.0465 -0.7433 -0.2584
 8595TIP3   OH247199   1.170   3.624  14.612  0.0611  1.0132  0.1324
 8595TIP3    H147200   1.222   3.546  14.594 -1.4544  0.0088 -0.0726
 8595TIP3    H247201   1.166   3.629  14.707 -1.2641 -0.1943  0.1730
 8596TIP3   OH247202   2.364   1.229  17.344 -0.2182  0.2972 -0.1673
 8596TIP3    H147203   2.271   1.226  17.323 -0.3306  0.6099  0.2680
 8596TIP3    H247204   2.400   1.148  17.307 -0.6225  0.2778 -0.5179
 8597TIP3   OH247205   5.839   6.598   0.562  0.5072  0.5950 -0.5725
 8597TIP3    H147206   5.917   6.548   0.588  0.7622  1.1207 -0.3188
 8597TIP3    H247207   5.771   6.531   0.550  0.7113  0.2260  0.2308
 8598TIP3   OH247208   5.599   1.017  12.166 -0.4028 -0.2168  0.5692
 8598TIP3    H147209   5.514   0.981  12.143 -1.5169  0.3609  3.3242
 8598TIP3    H247210   5.651   0.942  12.194 -0.5309 -0.3935  0.3323
 8599TIP3   OH247211   0.460   5.641  15.738  0.3207  0.3330  0.4047
 8599TIP3    H147212   0.398   5.639  15.811  0.2419  2.3674  0.4482
 8599TIP3    H247213   0.435   5.719  15.688 -0.4901 -1.6644 -2.6038
 8600TIP3   OH247214   6.079   1.647   0.212 -0.6355 -0.1094 -0.0227
 8600TIP3    H147215   6.057   1.558   0.240 -2.0253 -0.3624 -1.7857
 8600TIP3    H247216   6.146   1.634   0.145  1.4573  0.4050  1.8368
 8601TIP3   OH247217   2.777   0.780   0.464 -0.3115  0.5525 -0.0909
 8601TIP3    H147218   2.855   0.774   0.409 -0.6117  0.8851 -0.5479
 8601TIP3    H247219   2.811   0.770   0.553  0.0647 -0.9503 -0.3708
 8602TIP3   OH247220   2.949   6.530   6.247  0.2416  0.2933 -0.1095
 8602TIP3    H147221   2.934   6.439   6.221 -0.6283  0.2702  0.4709
 8602TIP3    H247222   2.937   6.580   6.166  1.5583 -0.1649 -0.6269
 8603TIP3   OH247223   0.867   5.753  12.242 -0.0539  0.5047  0.4272
 8603TIP3    H147224   0.896   5.749  12.333 -1.0976  1.1398  0.8164
 8603TIP3    H247225   0.883   5.665  12.207 -0.5812 -0.0550  1.5396
 8604TIP3   OH247226   3.683   5.614   3.696  0.1957  0.1167 -0.0188
 8604TIP3    H147227   3.765   5.656   3.722  1.0630 -0.0858 -2.2876
 8604TIP3    H247228   3.666   5.550   3.765  1.1987  1.0966  1.1857
 8605TIP3   OH247229   5.119   4.118   5.784 -0.8932 -0.1872  0.5254
 8605TIP3    H147230   5.047   4.174   5.755 -1.3243 -0.3761  1.2027
 8605TIP3    H247231   5.092   4.030   5.760 -0.7718 -0.2332  0.5570
 8606TIP3   OH247232   1.973   6.381   4.548 -0.0096  0.4188 -0.1441
 8606TIP3    H147233   1.940   6.464   4.581 -0.7818 -0.0083  0.1907
 8606TIP3    H247234   1.905   6.352   4.486 -0.5523 -0.7235  0.9428
 8607TIP3   OH247235   4.830   2.188  15.365  0.2641 -0.1821  0.6885
 8607TIP3    H147236   4.868   2.274  15.383  2.0119 -0.9745  0.9462
 8607TIP3    H247237   4.855   2.134  15.440 -1.1102 -0.8568  0.6971
 8608TIP3   OH247238   5.766   4.382  13.247  0.2870  0.3458 -0.3109
 8608TIP3    H147239   5.794   4.301  13.290  3.0570  1.5048  0.2543
 8608TIP3    H247240   5.706   4.423  13.308 -0.1328 -0.6496 -0.0373
 8609TIP3   OH247241   0.145   1.621  16.660  0.2191  0.6382 -0.1233
 8609TIP3    H147242   0.171   1.713  16.662  1.6943  0.2408 -0.0860
 8609TIP3    H247243   0.151   1.596  16.568  0.7282  0.3400 -0.0120
 8610TIP3   OH247244   0.761   5.573   4.544  0.0170  0.0211 -0.4134
 8610TIP3    H147245   0.722   5.494   4.507  0.8957 -1.1823  1.0999
 8610TIP3    H247246   0.697   5.604   4.608  0.0924 -0.0460 -0.3040
 8611TIP3   OH247247   4.493   6.062  11.447  0.3516  0.5887 -0.1761
 8611TIP3    H147248   4.461   6.136  11.396  1.1076 -0.5645 -2.4843
 8611TIP3    H247249   4.583   6.048  11.416 -1.1591 -4.1571 -3.6088
 8612TIP3   OH247250   4.220   5.057   6.216  0.4067 -0.0992  0.3342
 8612TIP3    H147251   4.272   4.979   6.198 -1.0193 -0.7700 -1.0280
 8612TIP3    H247252   4.130   5.026   6.224 -0.5559  1.6143 -2.4984
 8613TIP3   OH247253   5.566   5.751   1.628 -0.3260 -0.1570 -0.4211
 8613TIP3    H147254   5.577   5.773   1.536 -2.0408 -0.8566 -0.8306
 8613TIP3    H247255   5.564   5.836   1.672 -3.0604  0.4273 -1.5047
 8614TIP3   OH247256   1.282   1.963   1.271  0.4275 -0.2336  0.6487
 8614TIP3    H147257   1.373   1.953   1.299  0.7617 -1.2244 -0.6785
 8614TIP3    H247258   1.263   1.883   1.221 -0.4128  0.9859 -1.0923
 8615TIP3   OH247259   4.338   1.045  11.204  0.6557  1.1073 -0.1193
 8615TIP3    H147260   4.323   1.138  11.183 -2.0010  0.7981  0.0481
 8615TIP3    H247261   4.252   1.005  11.196  1.8730 -1.5676 -1.0030
 8616TIP3   OH247262   6.245   3.770  12.955 -0.1079 -0.0105 -0.0431
 8616TIP3    H147263   6.182   3.703  12.982  1.1342 -1.3174 -0.2980
 8616TIP3    H247264   6.233   3.778  12.860 -1.3426  1.3293  0.1745
 8617TIP3   OH247265   1.695   5.787   0.218  0.2738  0.5060 -0.0389
 8617TIP3    H147266   1.606   5.781   0.253 -0.0300  0.2493 -0.8339
 8617TIP3    H247267   1.739   5.850   0.275 -0.4885  0.8272  0.2107
 8618TIP3   OH247268   5.503   3.141  11.983  0.7715 -0.3473  0.2443
 8618TIP3    H147269   5.527   3.126  11.891  1.6531 -0.7319  0.5249
 8618TIP3    H247270   5.437   3.075  12.002 -0.7221  0.8368 -0.5961
 8619TIP3   OH247271   1.068   2.969   2.058 -0.2873 -0.5066  0.6959
 8619TIP3    H147272   1.143   3.020   2.088 -1.6373  2.6340 -0.7915
 8619TIP3    H247273   1.104   2.906   1.996  1.2611  0.1702  0.8767
 8620TIP3   OH247274   3.208   4.486   4.803 -0.1337  0.6293 -0.3429
 8620TIP3    H147275   3.183   4.396   4.822 -1.2810  0.8797 -0.5893
 8620TIP3    H247276   3.297   4.494   4.836 -0.4733 -0.2226  0.8275
 8621TIP3   OH247277   2.900   2.855  14.711 -0.2539 -0.3894 -0.4942
 8621TIP3    H147278   2.875   2.763  14.725  2.4542 -0.8821  2.3119
 8621TIP3    H247279   2.948   2.854  14.629 -1.5324 -1.1622 -1.2618
 8622TIP3   OH247280   1.015   4.991   2.662 -0.1588  0.8820 -0.3254
 8622TIP3    H147281   0.967   5.072   2.646  0.0046  1.1662  0.5869
 8622TIP3    H247282   0.951   4.931   2.700  0.0702  1.0887  0.4045
 8623TIP3   OH247283   3.067   3.311  12.251  0.1406  0.5631 -0.4048
 8623TIP3    H147284   3.132   3.328  12.182 -0.7188 -2.2536 -2.0533
 8623TIP3    H247285   3.092   3.226  12.287 -0.7014  1.0077  1.3212
 8624TIP3   OH247286   6.042   6.402  17.270  0.0611 -0.0995 -0.2250
 8624TIP3    H147287   6.099   6.360  17.206  0.2858  1.1067 -0.8480
 8624TIP3    H247288   5.958   6.412  17.223  0.5550  1.8201 -0.7790
 8625TIP3   OH247289   6.367   3.963   0.292 -0.1513  1.3279  0.2266
 8625TIP3    H147290   6.362   3.869   0.276  1.7862  1.1376  0.5600
 8625TIP3    H247291   6.284   3.984   0.334 -0.6473 -0.2152  0.0863
 8626TIP3   OH247292   2.774   0.414   1.329  0.0525 -0.5708 -0.0963
 8626TIP3    H147293   2.692   0.413   1.379 -0.1127 -1.1240 -0.3712
 8626TIP3    H247294   2.792   0.322   1.311 -0.1944 -0.3460 -1.5546
 8627TIP3   OH247295   4.571   4.135   2.903 -0.1025 -0.6445  0.2860
 8627TIP3    H147296   4.601   4.182   2.981 -2.0311 -2.0793  2.0097
 8627TIP3    H247297   4.537   4.204   2.846  0.9540  0.4072  0.8601
 8628TIP3   OH247298   4.608   6.525  13.201  0.0340  0.3246 -0.0408
 8628TIP3    H147299   4.536   6.462  13.200  0.3183 -0.0106  0.3125
 8628TIP3    H247300   4.576   6.598  13.254  0.0507  0.0545  0.3476
 8629TIP3   OH247301   5.236   3.160   2.956  0.2108  0.1534 -0.6322
 8629TIP3    H147302   5.297   3.091   2.983  0.7571 -0.1539 -2.5178
 8629TIP3    H247303   5.235   3.155   2.860 -2.0292  0.8048 -0.7050
 8630TIP3   OH247304   1.489   2.232   3.121  0.5938  0.4160  0.5634
 8630TIP3    H147305   1.474   2.174   3.196 -1.6930  1.9399  1.3945
 8630TIP3    H247306   1.438   2.193   3.050  0.7905  0.2763  0.4976
 8631TIP3   OH247307   4.358   1.889   5.197  0.1583 -0.5002 -0.4238
 8631TIP3    H147308   4.427   1.823   5.203 -0.1233 -0.7616  0.0495
 8631TIP3    H247309   4.320   1.891   5.285  0.1492  0.2790 -0.4414
 8632TIP3   OH247310   6.307   1.377   2.923 -0.5348 -0.6116  0.0177
 8632TIP3    H147311   6.303   1.309   2.990  2.0876 -0.3330  0.5663
 8632TIP3    H247312   6.392   1.365   2.882 -0.6974  1.3311 -0.9981
 8633TIP3   OH247313   2.975   3.061   5.628 -0.0486  0.1271  0.0548
 8633TIP3    H147314   2.934   3.013   5.700 -1.9168  0.6577 -0.5932
 8633TIP3    H247315   3.069   3.055   5.645 -0.4293  0.2108  2.4972
 8634TIP3   OH247316   5.402   5.886   2.564 -0.1847 -0.3665 -0.1597
 8634TIP3    H147317   5.319   5.906   2.607 -0.2860  1.1647 -0.9842
 8634TIP3    H247318   5.468   5.918   2.624 -0.3185  1.4699 -0.9189
 8635TIP3   OH247319   1.771   1.773   5.642  0.2475  0.0532 -0.0670
 8635TIP3    H147320   1.799   1.847   5.588 -0.3321  0.5457  0.2877
 8635TIP3    H247321   1.721   1.814   5.713  0.9818 -0.5869  0.8342
 8636TIP3   OH247322   4.160   4.795   4.383 -0.2409 -0.2247 -0.0988
 8636TIP3    H147323   4.253   4.793   4.359 -0.0679  0.4503  0.4852
 8636TIP3    H247324   4.114   4.807   4.300  0.3518  2.1548 -0.1713
 8637TIP3   OH247325   1.756   0.727  13.855  0.0126  0.1249  0.3727
 8637TIP3    H147326   1.674   0.697  13.894 -0.5090  1.0465  0.0148
 8637TIP3    H247327   1.809   0.647  13.845 -1.1200 -0.5937 -0.0707
 8638TIP3   OH247328   0.426   1.149  17.153 -0.1420  0.0790 -0.4256
 8638TIP3    H147329   0.477   1.180  17.078  1.7880  1.7060  1.4345
 8638TIP3    H247330   0.377   1.226  17.182 -1.8734 -0.8635 -0.7147
 8639TIP3   OH247331   4.922   0.062  15.739 -0.4463  0.6129  0.6025
 8639TIP3    H147332   4.920  -0.033  15.734  1.5271  0.4745  1.3281
 8639TIP3    H247333   4.963   0.090  15.657 -1.3173  0.8826  0.2441
 8640TIP3   OH247334   0.239   1.818   1.959 -0.2690 -0.5135 -0.1735
 8640TIP3    H147335   0.272   1.748   1.904  0.9932  0.3676 -0.6055
 8640TIP3    H247336   0.312   1.880   1.964 -0.9693  0.2519  1.0659
 8641TIP3   OH247337   1.961   5.739  11.988  0.4767 -0.3748 -0.0526
 8641TIP3    H147338   1.914   5.657  12.001 -0.6332  0.4215  1.1443
 8641TIP3    H247339   1.898   5.797  11.946  0.3907  0.6648  1.4435
 8642TIP3   OH247340   4.187   0.695  15.871  0.3283  0.1465 -0.0522
 8642TIP3    H147341   4.204   0.705  15.777  1.3744  0.7107  0.1929
 8642TIP3    H247342   4.093   0.712  15.880  0.2048  0.0121 -1.0008
 8643TIP3   OH247343   1.652   1.441  11.296 -0.2950  0.0784  0.0465
 8643TIP3    H147344   1.721   1.408  11.238  0.3704 -2.0225  1.8828
 8643TIP3    H247345   1.654   1.536  11.284  1.5727 -0.0678 -1.3898
 8644TIP3   OH247346   0.602   6.617  14.748  0.1412  0.0015  0.1944
 8644TIP3    H147347   0.583   6.543  14.691  0.6443  0.0526 -0.0381
 8644TIP3    H247348   0.659   6.581  14.816  0.9822  0.3324 -0.3243
 8645TIP3   OH247349   5.966   2.102   1.638  0.2359  0.1200 -0.2522
 8645TIP3    H147350   6.033   2.163   1.669  1.1070  0.1080 -1.9945
 8645TIP3    H247351   5.942   2.051   1.715  1.5733  0.7488  0.6092
 8646TIP3   OH247352   2.361   2.461  14.594 -0.0133 -0.8840 -0.4261
 8646TIP3    H147353   2.371   2.449  14.688 -0.6518 -0.2145 -0.2627
 8646TIP3    H247354   2.290   2.525  14.585  0.4272 -0.4999 -1.3460
 8647TIP3   OH247355   2.139   5.594   6.416 -0.0295 -0.9063 -0.3013
 8647TIP3    H147356   2.143   5.534   6.490  1.3087 -0.6238 -0.1164
 8647TIP3    H247357   2.051   5.632   6.420 -0.5824 -2.1840  0.0870
 8648TIP3   OH247358   1.639   4.996   5.941  0.8241  0.1632  0.0482
 8648TIP3    H147359   1.648   5.033   6.028 -0.4296 -1.3814  0.8858
 8648TIP3    H247360   1.600   5.066   5.888 -1.4029  0.1405  1.5399
 8649TIP3   OH247361   5.654   3.972   5.629  0.2538 -0.1790 -0.1960
 8649TIP3    H147362   5.560   3.987   5.635  0.1136 -0.7207 -0.8237
 8649TIP3    H247363   5.693   4.039   5.684 -0.5920 -1.4142  2.0199
 8650TIP3   OH247364   2.599   5.611  13.380  0.1617 -0.2005  0.4689
 8650TIP3    H147365   2.675   5.566  13.342  0.3940 -0.5507  1.3197
 8650TIP3    H247366   2.636   5.682  13.432 -0.0765 -0.4596  1.0030
 8651TIP3   OH247367   3.554   2.461   0.755  0.1691 -0.8020  0.1252
 8651TIP3    H147368   3.561   2.523   0.683  1.0013  0.4753  1.2678
 8651TIP3    H247369   3.468   2.478   0.794  0.3825 -0.3782  0.4158
 8652TIP3   OH247370   5.045   3.995  15.042  0.4270  0.2703  0.6501
 8652TIP3    H147371   5.036   3.900  15.029 -0.6331  0.4739 -0.3325
 8652TIP3    H247372   4.980   4.033  14.982  2.5983  1.7294 -0.8974
 8653TIP3   OH247373   2.869   2.692   5.543  0.0139 -0.4132  0.0216
 8653TIP3    H147374   2.887   2.637   5.467 -0.6870 -1.5629  0.6457
 8653TIP3    H247375   2.787   2.736   5.522 -1.2102 -2.1850  0.8202
 8654TIP3   OH247376   4.183   6.092   2.134  0.3442  0.3228 -0.4546
 8654TIP3    H147377   4.126   6.145   2.078 -1.0132  0.1947  0.7704
 8654TIP3    H247378   4.165   6.002   2.107  0.0997  0.2944 -0.2040
 8655TIP3   OH247379   5.988   5.674  13.185  0.2430 -0.2536  0.2834
 8655TIP3    H147380   6.016   5.588  13.155 -0.1624 -0.6896  1.1435
 8655TIP3    H247381   5.892   5.670  13.185  0.2041 -0.7003  2.7856
 8656TIP3   OH247382   4.648   0.746   5.495  0.8660  0.2903  0.0157
 8656TIP3    H147383   4.631   0.759   5.402  1.6472  0.6930 -0.0748
 8656TIP3    H247384   4.723   0.687   5.498 -0.6202 -1.7337  0.4205
 8657TIP3   OH247385   5.328   2.225   1.743  0.5581  0.4264  0.3859
 8657TIP3    H147386   5.285   2.280   1.676  1.8243 -0.3422 -1.1273
 8657TIP3    H247387   5.349   2.286   1.814  0.6395  1.6258 -0.6263
 8658TIP3   OH247388   3.083   1.479   0.782 -0.1988  0.1259  0.1547
 8658TIP3    H147389   3.031   1.514   0.710 -0.7678  0.4105  0.6969
 8658TIP3    H247390   3.127   1.555   0.819  0.4343 -0.0783 -0.1444
 8659TIP3   OH247391   5.318   3.370  12.902  0.1730 -0.0639 -0.0342
 8659TIP3    H147392   5.406   3.392  12.871 -0.2956  1.7137 -0.2055
 8659TIP3    H247393   5.264   3.445  12.877 -1.3952 -1.0954  0.1125
 8660TIP3   OH247394   1.257   0.338   4.565  0.8390  0.6170  0.1727
 8660TIP3    H147395   1.221   0.423   4.539  1.3794  0.8425  0.1373
 8660TIP3    H247396   1.182   0.279   4.567  0.5924  0.8905 -0.6780
 8661TIP3   OH247397   6.473   6.273  11.727  0.1807 -0.6586 -0.1351
 8661TIP3    H147398   6.513   6.265  11.640 -1.6713 -1.8211 -0.9600
 8661TIP3    H247399   6.399   6.333  11.713  2.1115  2.3486  1.5847
 8662TIP3   OH247400   5.179   3.490  10.904 -0.6796  0.2380  0.2517
 8662TIP3    H147401   5.089   3.464  10.920 -0.9966  0.4114 -1.1219
 8662TIP3    H247402   5.173   3.555  10.834  0.3772  1.4945  1.2810
 8663TIP3   OH247403   2.907   0.448  15.734 -0.2025  0.0780 -0.1767
 8663TIP3    H147404   2.909   0.497  15.817 -0.2877 -1.4193  0.7353
 8663TIP3    H247405   2.885   0.359  15.759  2.7115 -1.1456 -1.4455
 8664TIP3   OH247406   6.120   6.388   6.103 -0.2166 -0.3209  0.3363
 8664TIP3    H147407   6.127   6.483   6.108 -0.9678 -0.1776 -0.9597
 8664TIP3    H247408   6.088   6.371   6.015 -0.9011 -1.7391  0.8343
 8665TIP3   OH247409   1.117   4.919   3.159  0.6212  0.1031 -0.3560
 8665TIP3    H147410   1.127   4.981   3.086  0.8574  2.0505  1.2219
 8665TIP3    H247411   1.060   4.964   3.221  0.4533 -1.4723  0.6965
 8666TIP3   OH247412   1.645   1.532   4.404  0.2611 -0.3976 -0.3075
 8666TIP3    H147413   1.622   1.443   4.430 -0.2859 -0.2292 -0.1920
 8666TIP3    H247414   1.741   1.535   4.407  0.2527 -0.0355  2.9121
 8667TIP3   OH247415   4.649   1.698   1.967 -0.2437  0.4250 -0.4479
 8667TIP3    H147416   4.700   1.660   1.896 -0.8721  0.1679 -0.7662
 8667TIP3    H247417   4.714   1.743   2.022  0.5258 -1.0929 -0.0495
 8668TIP3   OH247418   4.661   6.566   0.164 -0.3771 -0.6191  0.3412
 8668TIP3    H147419   4.628   6.482   0.196  0.6376 -1.0736  0.2553
 8668TIP3    H247420   4.616   6.631   0.217 -0.3168 -1.2723  1.2379
 8669TIP3   OH247421   1.653   5.545   2.921 -0.3174 -0.2117 -0.2469
 8669TIP3    H147422   1.745   5.560   2.941 -0.5012 -0.5035  0.8884
 8669TIP3    H247423   1.650   5.456   2.886  0.0398  0.3916 -1.9410
 8670TIP3   OH247424   1.749   6.664   2.284 -0.4457  0.6582 -0.3716
 8670TIP3    H147425   1.707   6.701   2.206 -1.1383  3.0887  1.0547
 8670TIP3    H247426   1.821   6.723   2.304  1.8887 -1.7845 -0.9992
 8671TIP3   OH247427   0.378   2.326   5.864  0.2312  0.2197 -0.5224
 8671TIP3    H147428   0.455   2.281   5.829  1.4933  1.2289  0.8059
 8671TIP3    H247429   0.410   2.370   5.943 -2.3543 -1.8188  1.9032
 8672TIP3   OH247430   4.650   0.948   1.959 -0.1959 -0.3731  0.6151
 8672TIP3    H147431   4.627   1.041   1.958 -2.4033 -0.8596  0.4314
 8672TIP3    H247432   4.647   0.923   2.051  0.8674 -0.1815  0.7127
 8673TIP3   OH247433   4.096   0.049  12.076 -0.4248  0.1839  0.2522
 8673TIP3    H147434   4.178   0.095  12.058 -0.0658 -0.5722 -0.0685
 8673TIP3    H247435   4.122  -0.033  12.117 -1.0266 -0.0349  0.2163
 8674TIP3   OH247436   0.464   5.718  12.829 -0.0292  0.2421  0.4659
 8674TIP3    H147437   0.414   5.798  12.845 -1.1084  0.6491 -3.6734
 8674TIP3    H247438   0.555   5.743  12.847 -0.0127  3.2828 -2.6324
 8675TIP3   OH247439   6.035   4.833  14.065  0.1412 -0.0361  0.3729
 8675TIP3    H147440   5.962   4.772  14.080 -0.3933  0.5839  0.3460
 8675TIP3    H247441   6.098   4.783  14.013  0.0097 -0.7768  0.8960
 8676TIP3   OH247442   0.594   0.947   2.920  0.0933 -0.1034 -0.0681
 8676TIP3    H147443   0.508   0.974   2.889  0.1030 -0.4841 -0.4503
 8676TIP3    H247444   0.656   0.996   2.866  0.1246  0.4768  0.4824
 8677TIP3   OH247445   1.323   1.848  14.957 -0.2864  0.8240 -0.1270
 8677TIP3    H147446   1.328   1.856  15.052  0.5860  0.1634 -0.1008
 8677TIP3    H247447   1.408   1.812  14.932 -0.8500  0.0970 -1.0604
 8678TIP3   OH247448   2.565   3.740   3.582 -0.4611 -0.4823 -0.3504
 8678TIP3    H147449   2.549   3.768   3.672  1.0185  1.7454 -0.7062
 8678TIP3    H247450   2.658   3.757   3.567 -0.4453 -1.7165 -2.0262
 8679TIP3   OH247451   2.345   3.413   2.405 -0.6985 -0.2764  0.0469
 8679TIP3    H147452   2.372   3.372   2.323  0.6821 -0.1396  0.4094
 8679TIP3    H247453   2.254   3.439   2.390 -0.0204  1.1550 -2.0074
 8680TIP3   OH247454   1.955   3.308  16.676 -0.1674  0.1472 -0.1602
 8680TIP3    H147455   1.902   3.327  16.599 -1.1088 -0.6988  0.2519
 8680TIP3    H247456   2.045   3.317  16.646 -0.5192 -0.1535 -1.3646
 8681TIP3   OH247457   4.081   6.002  14.409  0.2790 -0.3279 -0.0739
 8681TIP3    H147458   4.078   6.098  14.414  1.0506 -0.2849 -0.3002
 8681TIP3    H247459   4.076   5.973  14.500 -1.5834 -0.1504 -0.0765
 8682TIP3   OH247460   0.666   4.797  15.042  0.3830 -0.4750  0.0801
 8682TIP3    H147461   0.723   4.730  15.004 -0.3185 -0.8884 -0.2649
 8682TIP3    H247462   0.667   4.778  15.136 -2.1208 -2.8936 -0.2564
 8683TIP3   OH247463   4.290   1.737   4.982  0.1983 -0.3653  0.2573
 8683TIP3    H147464   4.366   1.771   4.934 -0.1877  0.9789  0.5287
 8683TIP3    H247465   4.292   1.785   5.066 -0.0626 -1.4622  0.9076
 8684TIP3   OH247466   1.356   3.530   6.570  0.1008 -0.2947  0.0951
 8684TIP3    H147467   1.262   3.545   6.564 -0.1008 -1.8291 -0.9907
 8684TIP3    H247468   1.391   3.613   6.604 -1.3618  1.1021 -1.6281
 8685TIP3   OH247469   3.461   0.869   4.858  0.2348  0.1830 -0.1855
 8685TIP3    H147470   3.550   0.896   4.834  0.2078  1.1646  0.7135
 8685TIP3    H247471   3.406   0.905   4.789  0.2790  1.9789  0.6304
 8686TIP3   OH247472   5.994   1.591   6.621  0.4918 -0.4543  0.4161
 8686TIP3    H147473   6.000   1.681   6.653  0.9830 -1.0852  2.1814
 8686TIP3    H247474   6.070   1.581   6.564  0.6295  0.1463  0.4873
 8687TIP3   OH247475   2.867   4.407   0.830 -0.2462 -0.4963 -0.7880
 8687TIP3    H147476   2.933   4.370   0.771  0.0163 -0.0929 -0.7531
 8687TIP3    H247477   2.870   4.352   0.908  0.0135 -0.5155 -0.8099
 8688TIP3   OH247478   3.377   5.137  17.109  0.1319  0.2211 -0.0257
 8688TIP3    H147479   3.289   5.121  17.075  0.4538  0.8792 -1.2106
 8688TIP3    H247480   3.364   5.155  17.202 -0.9041 -0.3503 -0.0451
 8689TIP3   OH247481   4.469   0.996  11.716 -0.0362 -0.0884 -0.5452
 8689TIP3    H147482   4.458   0.901  11.720  0.5353 -0.1740 -0.9799
 8689TIP3    H247483   4.464   1.017  11.623 -1.8737  0.5275 -0.3505
 8690TIP3   OH247484   5.522   2.435   3.038 -0.8942  0.5423  0.1477
 8690TIP3    H147485   5.492   2.442   3.129  0.8620  3.0086  0.6522
 8690TIP3    H247486   5.571   2.353   3.035 -1.8349 -0.0822  1.1203
 8691TIP3   OH247487   3.195   0.711   3.474 -0.5784  0.2333  0.4655
 8691TIP3    H147488   3.243   0.636   3.440  0.1032  1.4276 -1.3792
 8691TIP3    H247489   3.244   0.738   3.551  0.3695 -0.0029 -0.0390
 8692TIP3   OH247490   0.330   2.354  15.050  0.1814 -0.2081  0.0541
 8692TIP3    H147491   0.273   2.288  15.011 -1.1984  1.8055 -1.6178
 8692TIP3    H247492   0.355   2.410  14.976  0.0912  1.9695  1.5652
 8693TIP3   OH247493   3.601   2.568   5.437  0.0446 -0.1946  0.6441
 8693TIP3    H147494   3.624   2.595   5.526  2.3098  2.5507 -0.6353
 8693TIP3    H247495   3.579   2.649   5.392 -0.3065 -1.4239 -1.5375
 8694TIP3   OH247496   5.998   4.510   5.139 -0.4991  0.2640 -0.3389
 8694TIP3    H147497   6.036   4.452   5.204 -0.7789  1.6436  1.1168
 8694TIP3    H247498   6.073   4.539   5.086 -0.1722 -0.3584 -0.2179
 8695TIP3   OH247499   4.213   4.550  14.437  0.5125 -0.0786  0.5086
 8695TIP3    H147500   4.150   4.578  14.503 -1.5263  0.2144 -1.4545
 8695TIP3    H247501   4.163   4.493  14.379  1.9628  0.4191 -1.3289
 8696TIP3   OH247502   2.568   2.716   2.060 -0.3219 -0.2653  0.3541
 8696TIP3    H147503   2.481   2.706   2.098 -0.8351 -3.4900 -1.3015
 8696TIP3    H247504   2.628   2.712   2.134 -1.4898  0.4768  1.3723
 8697TIP3   OH247505   6.026   5.257   4.826  0.0896 -0.2626  0.3368
 8697TIP3    H147506   6.106   5.252   4.773 -0.2621  2.2714 -0.5689
 8697TIP3    H247507   5.985   5.339   4.800 -2.8696 -1.4830  0.7699
 8698TIP3   OH247508   1.776   5.989   1.735 -0.7028  0.0583  0.0318
 8698TIP3    H147509   1.836   6.020   1.804  0.8950  0.5724 -1.5179
 8698TIP3    H247510   1.834   5.948   1.671 -2.3711 -2.6150  0.0804
 8699TIP3   OH247511   3.635   4.933  12.140  0.7035  1.0843 -0.1998
 8699TIP3    H147512   3.619   4.839  12.135  0.4367  0.9735  1.8553
 8699TIP3    H247513   3.550   4.973  12.118  0.9389  0.8876 -1.5371
 8700TIP3   OH247514   0.353   5.822  16.521 -0.2259  0.0187  0.1163
 8700TIP3    H147515   0.374   5.759  16.453 -1.6269  0.9936 -1.2897
 8700TIP3    H247516   0.431   5.877  16.527 -1.3337  2.3765 -3.6201
 8701TIP3   OH247517   1.586   6.303  16.091 -0.4989  0.0176 -0.1777
 8701TIP3    H147518   1.617   6.391  16.071  0.1393  0.1448  1.2266
 8701TIP3    H247519   1.626   6.282  16.175 -0.8799 -1.5048 -0.3368
 8702TIP3   OH247520   3.803   2.566   1.689 -0.4667 -0.4496 -0.2446
 8702TIP3    H147521   3.892   2.581   1.719 -0.0990  1.2512 -1.9742
 8702TIP3    H247522   3.797   2.471   1.678  1.7543 -0.4827 -1.7703
 8703TIP3   OH247523   4.860   5.409   5.847  0.3790 -0.3422 -0.0078
 8703TIP3    H147524   4.895   5.451   5.769 -0.7910  0.3250 -0.1908
 8703TIP3    H247525   4.929   5.419   5.913  0.7096  0.5547 -0.4794
 8704TIP3   OH247526   4.208   6.586  16.843 -0.7471 -0.0594  0.5933
 8704TIP3    H147527   4.140   6.543  16.895 -0.6080 -0.7904  0.1954
 8704TIP3    H247528   4.227   6.523  16.773 -2.0691  1.5332 -1.3131
 8705TIP3   OH247529   3.628   4.788   0.828 -0.6374 -0.6024  0.0071
 8705TIP3    H147530   3.667   4.781   0.741  1.5415  2.4723  0.5860
 8705TIP3    H247531   3.702   4.801   0.887 -2.1562 -1.0927  2.1696
 8706TIP3   OH247532   0.798   4.511  10.729  0.3285 -0.0649 -0.2902
 8706TIP3    H147533   0.704   4.512  10.708  0.4524 -0.1104 -0.8640
 8706TIP3    H247534   0.839   4.560  10.658  0.8340 -0.7995 -0.5125
 8707TIP3   OH247535   4.570   1.687  15.444  0.0949 -0.2529  0.7323
 8707TIP3    H147536   4.644   1.648  15.397  0.1561 -0.2402  0.8193
 8707TIP3    H247537   4.601   1.772  15.473 -0.3739  0.3099 -0.3603
 8708TIP3   OH247538   4.644   4.750  15.343 -0.4282 -0.0992 -0.1791
 8708TIP3    H147539   4.699   4.715  15.273  0.2513  1.5842 -0.5478
 8708TIP3    H247540   4.557   4.755  15.305 -0.5425 -1.3175 -0.1198
 8709TIP3   OH247541   5.868   4.831  12.886  0.1752  0.4889 -0.5103
 8709TIP3    H147542   5.933   4.882  12.935 -0.9318  0.3679  1.1628
 8709TIP3    H247543   5.824   4.779  12.952  0.4442 -1.7847 -2.0099
 8710TIP3   OH247544   4.727   0.457   5.400  0.3235  0.0293 -0.0289
 8710TIP3    H147545   4.761   0.372   5.371  0.9236 -0.3128  1.5506
 8710TIP3    H247546   4.798   0.519   5.381  0.0610  0.1136 -0.7712
 8711TIP3   OH247547   2.387   0.084  10.501 -0.3756  0.4693  0.1701
 8711TIP3    H147548   2.419  -0.006  10.512 -0.6505  0.5304  1.7438
 8711TIP3    H247549   2.440   0.119  10.430 -1.5241 -1.4882 -1.7820
 8712TIP3   OH247550   1.186   3.515   4.711 -0.4466 -0.1501  0.4470
 8712TIP3    H147551   1.200   3.423   4.688 -1.5601 -0.5489  1.2562
 8712TIP3    H247552   1.093   3.520   4.732 -0.4101  1.1851  0.3671
 8713TIP3   OH247553   2.720   0.061  12.168 -0.3217 -0.6107  0.2380
 8713TIP3    H147554   2.740   0.078  12.076  1.3096 -0.7481  0.5323
 8713TIP3    H247555   2.799   0.021  12.203 -0.1530  1.2069  2.1657
 8714TIP3   OH247556   0.631   1.486  15.798 -0.3889  0.1660 -0.3216
 8714TIP3    H147557   0.715   1.444  15.778 -0.1490  0.5469 -0.1098
 8714TIP3    H247558   0.569   1.444  15.738 -0.5062 -1.7548  1.0501
 8715TIP3   OH247559   2.712   4.109   1.193 -0.1726  0.3692 -0.1246
 8715TIP3    H147560   2.765   4.061   1.129  0.4192  0.3486  0.3755
 8715TIP3    H247561   2.774   4.164   1.239 -1.0129  2.7594 -1.6576
 8716TIP3   OH247562   6.183   2.144  11.362  0.0911  0.8016  0.1457
 8716TIP3    H147563   6.088   2.135  11.350 -0.0188  3.1169 -1.3547
 8716TIP3    H247564   6.210   2.061  11.402 -2.6354  0.3008  1.1639
 8717TIP3   OH247565   6.013   5.655  14.101  0.3569 -0.1539  0.8112
 8717TIP3    H147566   6.000   5.724  14.036  1.4410  0.3876  1.1517
 8717TIP3    H247567   6.062   5.697  14.172 -0.5065 -0.8215  1.8446
 8718TIP3   OH247568   2.356   6.767  15.065  0.0137 -0.2108  0.6930
 8718TIP3    H147569   2.286   6.764  15.000  1.4653 -0.5414 -0.9500
 8718TIP3    H247570   2.436   6.752  15.014  1.0708 -2.5088  2.8497
 8719TIP3   OH247571   3.978   2.382   3.239  0.1452 -1.2035  0.1154
 8719TIP3    H147572   4.048   2.322   3.263 -1.3565 -2.6719  1.0284
 8719TIP3    H247573   3.900   2.327   3.234 -0.7479  0.1496 -2.1158
 8720TIP3   OH247574   4.548   2.305   4.476  0.4592 -0.2253 -0.3560
 8720TIP3    H147575   4.623   2.358   4.503 -0.3621 -0.0732  1.8890
 8720TIP3    H247576   4.584   2.218   4.462  1.4372  0.3736 -1.7503
 8721TIP3   OH247577   5.321   2.839  11.235  0.0416 -0.1237  0.0242
 8721TIP3    H147578   5.407   2.859  11.272  1.0185  1.3296 -2.7246
 8721TIP3    H247579   5.286   2.924  11.209 -1.6644 -0.8332 -0.1083
 8722TIP3   OH247580   0.903   2.472  13.428 -0.2206 -0.3972 -0.2658
 8722TIP3    H147581   0.815   2.470  13.391  0.3848  0.9983 -1.8849
 8722TIP3    H247582   0.895   2.527  13.506 -0.4874  1.2351 -1.3857
 8723TIP3   OH247583   1.752   4.533  13.254 -0.1222 -0.0394  0.5411
 8723TIP3    H147584   1.842   4.502  13.239 -0.0417  0.4981 -0.1402
 8723TIP3    H247585   1.719   4.477  13.324  0.6745 -0.3846  0.6555
 8724TIP3   OH247586   4.794   1.054  12.336  0.7281 -0.2023 -0.3699
 8724TIP3    H147587   4.867   1.103  12.300  1.6906 -0.7480  0.7614
 8724TIP3    H247588   4.797   0.969  12.292  0.3077  0.0236 -0.8501
 8725TIP3   OH247589   4.437   6.591   4.934  0.1099  0.5317 -0.5477
 8725TIP3    H147590   4.382   6.650   4.986  0.4366  1.5773 -1.3548
 8725TIP3    H247591   4.486   6.649   4.876 -0.5286 -0.5911 -2.3147
 8726TIP3   OH247592   0.905   1.706   1.095 -0.0771 -0.7472  0.1535
 8726TIP3    H147593   0.826   1.656   1.116 -0.4305  0.3019  1.4804
 8726TIP3    H247594   0.922   1.759   1.173  0.9563  0.3214 -0.7428
 8727TIP3   OH247595   1.329   5.288  11.236  0.1379 -0.4591 -0.5622
 8727TIP3    H147596   1.294   5.353  11.296  1.3274 -0.4573  0.1687
 8727TIP3    H247597   1.324   5.206  11.284  0.6348 -0.5449 -0.6490
 8728TIP3   OH247598   6.698   2.417  15.304  0.0842  0.3932 -0.4771
 8728TIP3    H147599   6.717   2.326  15.329  1.4279  0.9923  0.8618
 8728TIP3    H247600   6.627   2.410  15.240 -1.8978 -1.4555  1.6997
 8729TIP3   OH247601   3.365   1.141   5.370 -0.3258 -0.1284  0.4056
 8729TIP3    H147602   3.276   1.159   5.342 -0.1849  0.6405  0.4175
 8729TIP3    H247603   3.407   1.102   5.293 -0.6715 -0.4789  0.3977
 8730TIP3   OH247604   2.440   6.748  11.201 -0.2136 -0.2105  0.3738
 8730TIP3    H147605   2.373   6.743  11.269 -1.7466 -1.9311 -1.1456
 8730TIP3    H247606   2.483   6.663  11.203 -0.1191 -0.2063 -0.6301
 8731TIP3   OH247607   0.452   6.488  14.545 -0.2572 -0.5810 -0.1353
 8731TIP3    H147608   0.365   6.457  14.518 -0.7510  0.6148  0.0044
 8731TIP3    H247609   0.463   6.571  14.498  0.5770 -0.4469  0.2773
 8732TIP3   OH247610   6.560   2.148  16.580  0.5270  0.0969 -0.8333
 8732TIP3    H147611   6.545   2.087  16.652  0.8895  1.1926  0.2077
 8732TIP3    H247612   6.473   2.179  16.556  0.5673  2.1871  1.3801
 8733TIP3   OH247613   3.424   5.920   4.281  0.1675 -0.0465 -0.7106
 8733TIP3    H147614   3.358   5.990   4.276 -0.6182 -0.7987 -1.0298
 8733TIP3    H247615   3.467   5.922   4.196  1.5749  1.3926 -0.0183
 8734TIP3   OH247616   0.544   5.794  16.738  0.4230  0.3637 -0.1848
 8734TIP3    H147617   0.611   5.856  16.767  2.1934 -2.3364  1.8985
 8734TIP3    H247618   0.464   5.823  16.782  1.2892  0.9156  1.0709
 8735TIP3   OH247619   1.250   5.513   5.100 -0.0547 -0.0951 -0.6470
 8735TIP3    H147620   1.270   5.423   5.125  1.1639  0.2167 -0.4258
 8735TIP3    H247621   1.254   5.562   5.183  0.7651  0.3993 -0.9652
 8736TIP3   OH247622   5.361   4.843   3.393 -0.1239 -0.1295  0.1924
 8736TIP3    H147623   5.366   4.921   3.448 -0.6712 -1.4461  2.2142
 8736TIP3    H247624   5.452   4.822   3.373  0.0644  0.5604  0.2985
 8737TIP3   OH247625   2.031   2.945   1.930  0.0145 -0.2297 -0.7751
 8737TIP3    H147626   2.057   3.037   1.939 -1.1139  0.1175 -1.0191
 8737TIP3    H247627   2.114   2.899   1.920  0.6143  0.7312 -0.4279
 8738TIP3   OH247628   1.724   1.318  14.156 -0.5327  0.5123 -0.4928
 8738TIP3    H147629   1.629   1.310  14.146 -0.5815  0.3464  0.1041
 8738TIP3    H247630   1.752   1.367  14.078 -1.1657  0.9845 -0.4333
 8739TIP3   OH247631   1.763   5.045  16.138  0.4932 -0.1102 -0.4737
 8739TIP3    H147632   1.751   5.103  16.214 -0.7647  0.5906 -1.1762
 8739TIP3    H247633   1.854   5.019  16.143  0.7162  0.7657  0.6929
 8740TIP3   OH247634   5.482   5.157  11.974  0.6992  0.3691  0.1886
 8740TIP3    H147635   5.391   5.186  11.972  0.8396  0.7986  0.0280
 8740TIP3    H247636   5.505   5.157  12.067  1.1001  2.0479  0.1236
 8741TIP3   OH247637   2.737   2.089  15.967  0.3521  0.1590 -0.9596
 8741TIP3    H147638   2.643   2.105  15.979  0.3344  0.1920 -1.1325
 8741TIP3    H247639   2.741   2.003  15.924  0.3592  0.5175 -1.6981
 8742TIP3   OH247640   0.199   2.717   1.200 -0.2649  0.2400 -0.2403
 8742TIP3    H147641   0.135   2.756   1.261  1.3338  0.5721  1.3152
 8742TIP3    H247642   0.162   2.732   1.113 -1.9033  1.1311  0.5657
 8743TIP3   OH247643   5.626   1.768  13.633  0.3982  0.2217 -0.1195
 8743TIP3    H147644   5.593   1.735  13.549  0.0683  1.0001 -0.3064
 8743TIP3    H247645   5.591   1.707  13.698  2.4407 -1.7004 -0.6939
 8744TIP3   OH247646   3.606   3.628   3.728 -0.3728  0.2468  0.6024
 8744TIP3    H147647   3.679   3.612   3.669 -1.0307 -1.1094  0.1210
 8744TIP3    H247648   3.543   3.676   3.676  0.1361  1.3886  1.0082
 8745TIP3   OH247649   3.061   1.984   3.331 -0.9612  0.2661  0.0472
 8745TIP3    H147650   3.012   1.905   3.312 -2.5022  1.4201 -1.0047
 8745TIP3    H247651   3.069   2.029   3.247 -0.4823  1.4244  0.6780
 8746TIP3   OH247652   3.806   1.066  12.002  0.5995 -0.1520 -0.0789
 8746TIP3    H147653   3.801   1.161  11.996  1.3253 -0.1013  0.0147
 8746TIP3    H247654   3.893   1.044  11.970 -0.0840 -0.9210 -1.4701
 8747TIP3   OH247655   1.337   4.991   2.701  0.1791  0.4070 -0.5243
 8747TIP3    H147656   1.428   5.021   2.701  0.6535 -0.7225  2.3286
 8747TIP3    H247657   1.340   4.904   2.662  0.4456  0.1330  0.0943
 8748TIP3   OH247658   0.508   5.968   4.253 -0.3848 -0.2628  0.1033
 8748TIP3    H147659   0.521   6.023   4.331  0.2051  1.5072 -1.1865
 8748TIP3    H247660   0.415   5.946   4.255 -0.4960  0.2114  1.0074
 8749TIP3   OH247661   5.134   4.698   1.569 -0.2428  0.1422 -0.1863
 8749TIP3    H147662   5.117   4.643   1.645  0.1584 -2.0009 -1.5858
 8749TIP3    H247663   5.174   4.777   1.606  2.2924 -1.8562  1.7033
 8750TIP3   OH247664   3.139   1.976   0.966  0.2983  0.1321 -0.3109
 8750TIP3    H147665   3.069   2.041   0.955  1.7970  2.3332  2.0175
 8750TIP3    H247666   3.218   2.020   0.933  0.8829 -1.8341 -1.7608
 8751TIP3   OH247667   5.823   4.076  16.764 -0.0387  0.5992 -0.0979
 8751TIP3    H147668   5.804   4.029  16.845  0.9873  1.8395  0.8968
 8751TIP3    H247669   5.881   4.017  16.715  1.7926  1.0182  1.4408
 8752TIP3   OH247670   2.040   0.504  11.524  0.1431 -0.1027  0.4195
 8752TIP3    H147671   2.048   0.593  11.559 -0.5334 -0.0723  0.5195
 8752TIP3    H247672   2.009   0.517  11.434  1.6352 -0.1892 -0.1314
 8753TIP3   OH247673   0.031   3.821  15.799 -0.1478  0.0061  0.2341
 8753TIP3    H147674   0.058   3.773  15.721 -1.0602 -1.6796  0.9018
 8753TIP3    H247675   0.083   3.902  15.797 -0.2572  0.0845 -2.1631
 8754TIP3   OH247676   5.210   4.321   0.945  0.7567  0.0420  0.3397
 8754TIP3    H147677   5.273   4.284   0.883  0.8958  0.8084  0.0255
 8754TIP3    H247678   5.263   4.368   1.009  0.5920 -0.4836  0.8833
 8755TIP3   OH247679   4.533   2.251  11.414 -0.0017 -0.0375 -0.2308
 8755TIP3    H147680   4.549   2.172  11.466  0.2822  0.7282  0.8886
 8755TIP3    H247681   4.580   2.235  11.332  0.1633 -0.9657  0.0239
 8756TIP3   OH247682   3.106   0.420   1.021  0.1203  0.5803 -0.5447
 8756TIP3    H147683   3.166   0.478   1.068 -0.7914 -0.2062  1.7461
 8756TIP3    H247684   3.056   0.377   1.090 -2.8493  0.9423 -2.3150
 8757TIP3   OH247685   5.416   6.348  15.542 -0.0158 -0.1696 -0.2420
 8757TIP3    H147686   5.337   6.368  15.492 -0.3421 -0.3708  0.1833
 8757TIP3    H247687   5.432   6.255  15.527 -0.7705 -0.5092  0.9154
 8758TIP3   OH247688   0.232   6.284  10.552  0.1214 -0.7011  0.4559
 8758TIP3    H147689   0.208   6.374  10.530 -0.3166 -0.6337  1.1780
 8758TIP3    H247690   0.198   6.231  10.480 -1.6325 -0.5272  1.1055
 8759TIP3   OH247691   3.808   1.387   2.266  0.4255  0.1260  0.0659
 8759TIP3    H147692   3.778   1.367   2.178  1.9423 -0.2739 -0.3841
 8759TIP3    H247693   3.857   1.469   2.257  0.7609 -0.0205  0.5002
 8760TIP3   OH247694   4.493   4.298  12.033 -0.6419 -0.4101  0.4373
 8760TIP3    H147695   4.524   4.346  12.110 -1.1734 -0.3708  0.6255
 8760TIP3    H247696   4.409   4.337  12.012 -0.0456  0.2636 -0.7851
 8761TIP3   OH247697   3.199   2.692  17.153 -0.1907  0.7181 -0.1029
 8761TIP3    H147698   3.200   2.620  17.089  2.2991  2.1226 -1.8201
 8761TIP3    H247699   3.208   2.648  17.238  0.5599 -1.0579 -1.0462
 8762TIP3   OH247700   4.967   1.954   1.543 -0.4335  0.1249  0.1682
 8762TIP3    H147701   5.050   2.002   1.536 -0.7744  0.8538  0.9551
 8762TIP3    H247702   4.967   1.896   1.466  0.7902  0.1189  0.1395
 8763TIP3   OH247703   6.441   1.253  11.721 -0.8811 -0.6906  0.3801
 8763TIP3    H147704   6.458   1.347  11.732 -0.9137 -0.5598 -0.6491
 8763TIP3    H247705   6.395   1.228  11.801  0.6659 -0.2163  1.4784
 8764TIP3   OH247706   3.326   2.652  13.182 -0.2694 -0.0712  0.3953
 8764TIP3    H147707   3.376   2.573  13.202 -1.4106 -1.2124 -0.9854
 8764TIP3    H247708   3.295   2.683  13.267 -0.9130 -1.9229  0.8975
 8765TIP3   OH247709   5.914   1.655   2.010  0.5813  0.1044  0.1663
 8765TIP3    H147710   5.983   1.604   1.968 -0.3112 -1.0589  0.0452
 8765TIP3    H247711   5.960   1.719   2.064  1.7405 -0.0151 -0.6485
 8766TIP3   OH247712   1.613   4.560  13.018 -0.4078 -0.4887 -0.2518
 8766TIP3    H147713   1.677   4.544  13.087 -0.2215  0.8975 -0.0681
 8766TIP3    H247714   1.543   4.608  13.061 -0.9091 -0.7585 -0.7560
 8767TIP3   OH247715   6.531   1.085   2.951 -0.0776  0.6904 -0.0876
 8767TIP3    H147716   6.592   1.014   2.972  0.2902  0.1710 -2.6360
 8767TIP3    H247717   6.557   1.114   2.864 -2.7948  1.1952 -0.8189
 8768TIP3   OH247718   0.421   1.203  13.219  0.9916 -0.1671  0.1709
 8768TIP3    H147719   0.488   1.198  13.151 -0.4859  0.5313 -1.3799
 8768TIP3    H247720   0.402   1.296  13.227 -1.0868 -0.4662 -0.7519
 8769TIP3   OH247721   5.928   5.853   3.300  0.2835 -0.3114 -0.1298
 8769TIP3    H147722   5.889   5.831   3.385  1.0712 -1.6030 -0.0827
 8769TIP3    H247723   6.020   5.830   3.310  0.6877  0.9146 -0.8678
 8770TIP3   OH247724   3.656   1.373  12.449 -0.4863 -0.0217 -0.0582
 8770TIP3    H147725   3.719   1.425  12.399 -1.2680  1.7185  0.6848
 8770TIP3    H247726   3.588   1.435  12.474 -0.9705 -1.1973  1.7218
 8771TIP3   OH247727   5.707   3.324  16.027 -0.2303 -0.0735 -0.5744
 8771TIP3    H147728   5.762   3.341  15.950 -1.0289 -0.7575 -1.3180
 8771TIP3    H247729   5.763   3.272  16.085  0.3789  0.4378 -0.6992
 8772TIP3   OH247730   3.153   2.188   0.382 -0.0752 -0.0151  0.3433
 8772TIP3    H147731   3.101   2.267   0.398  0.6696  1.0563 -2.0622
 8772TIP3    H247732   3.088   2.122   0.358 -0.5340  0.5363  0.0357
 8773TIP3   OH247733   0.728   2.961   3.902  0.2718 -0.0179 -0.3871
 8773TIP3    H147734   0.785   3.036   3.887  0.1462  0.2464  0.4354
 8773TIP3    H247735   0.653   2.997   3.949 -0.4208 -0.4245 -1.1435
 8774TIP3   OH247736   3.156   2.464  11.962 -0.5439  0.6115  0.1071
 8774TIP3    H147737   3.221   2.467  12.032 -1.0037 -2.4262  0.8222
 8774TIP3    H247738   3.111   2.549  11.968  0.3216  0.9884  2.6170
 8775TIP3   OH247739   5.784   6.658   3.979  0.2433  0.0720  0.3002
 8775TIP3    H147740   5.769   6.752   3.963  0.1515  0.3401  1.7797
 8775TIP3    H247741   5.795   6.620   3.892  0.9003  1.5596 -0.2973
 8776TIP3   OH247742   6.375   1.480   0.679  0.2398 -0.1330  0.1724
 8776TIP3    H147743   6.289   1.473   0.719  0.5220 -1.5090  0.5733
 8776TIP3    H247744   6.436   1.485   0.753  0.4865  1.5340 -0.0957
 8777TIP3   OH247745   2.201   6.538  11.224 -0.6630  0.7040 -0.1120
 8777TIP3    H147746   2.249   6.618  11.205  0.4877 -0.1516 -0.9885
 8777TIP3    H247747   2.119   6.547  11.175 -0.7092  1.4913  0.0962
 8778TIP3   OH247748   3.692   4.297  16.274  0.0773 -0.3867 -0.2360
 8778TIP3    H147749   3.787   4.303  16.285 -0.2800  0.7461  3.5481
 8778TIP3    H247750   3.664   4.386  16.256 -0.3680 -0.5530 -0.3769
 8779TIP3   OH247751   5.812   3.060  15.100  0.0347 -0.1645  0.0721
 8779TIP3    H147752   5.734   3.010  15.123  1.2678 -1.6821  1.1611
 8779TIP3    H247753   5.831   3.111  15.179 -1.1898  2.1111 -1.0129
 8780TIP3   OH247754   6.013   5.641  16.099  0.2653  0.4417 -0.1601
 8780TIP3    H147755   5.946   5.606  16.040  1.6602  0.4964 -1.8587
 8780TIP3    H247756   6.070   5.693  16.042  1.1196  1.3051  1.4325
 8781TIP3   OH247757   1.183   3.280  13.242 -0.4948 -0.5769  0.5320
 8781TIP3    H147758   1.186   3.271  13.337 -2.3168  1.0253  0.7970
 8781TIP3    H247759   1.271   3.255  13.213 -0.2660 -2.2785  2.4935
 8782TIP3   OH247760   2.935   6.518   2.590  0.3404  0.5421  0.2610
 8782TIP3    H147761   2.876   6.456   2.633  0.4597 -0.7801 -1.3986
 8782TIP3    H247762   2.955   6.582   2.658 -0.1526 -0.9646  1.9111
 8783TIP3   OH247763   5.676   3.546  14.887 -0.1446  0.2769 -0.0162
 8783TIP3    H147764   5.605   3.487  14.862 -0.5537  1.6767 -2.5841
 8783TIP3    H247765   5.753   3.490  14.890 -0.5472 -0.5040 -2.1711
 8784TIP3   OH247766   5.495   2.219   2.636  0.4970  0.2597 -0.5506
 8784TIP3    H147767   5.565   2.229   2.701  0.4764 -0.4858 -0.4067
 8784TIP3    H247768   5.529   2.156   2.573 -0.3922 -0.8319  0.0271
 8785TIP3   OH247769   1.891   3.594  15.084 -0.0090  0.0248 -0.4328
 8785TIP3    H147770   1.838   3.515  15.073  0.9840 -1.0347  1.7385
 8785TIP3    H247771   1.832   3.666  15.065 -1.8484 -1.1493  0.5411
 8786TIP3   OH247772   4.526   6.717  12.555  0.2247  0.2963 -0.0129
 8786TIP3    H147773   4.465   6.786  12.579  1.5529  1.6872 -0.4506
 8786TIP3    H247774   4.613   6.755  12.572  1.0368 -0.7243 -1.6149
 8787TIP3   OH247775   4.940   2.929  11.132 -0.4561  0.0111  0.3106
 8787TIP3    H147776   4.892   2.932  11.049  0.6665  0.0692 -0.3570
 8787TIP3    H247777   5.005   2.861  11.119  0.4608  0.7875  0.7331
 8788TIP3   OH247778   4.794   2.454   2.620 -0.1133 -0.3182  0.4680
 8788TIP3    H147779   4.852   2.458   2.696 -0.2431 -2.2888  0.7201
 8788TIP3    H247780   4.706   2.445   2.656 -0.1473 -1.5601  0.1008
 8789TIP3   OH247781   2.752   4.764  16.056 -0.2892  0.2293 -0.5626
 8789TIP3    H147782   2.777   4.816  16.132 -2.0004  0.2357  0.0263
 8789TIP3    H247783   2.822   4.699  16.048 -0.4311 -0.2558  1.4809
 8790TIP3   OH247784   0.476   0.620  16.268  0.5084 -0.1979  0.5718
 8790TIP3    H147785   0.435   0.646  16.185 -0.3551  0.1078  1.0803
 8790TIP3    H247786   0.423   0.662  16.335  0.9366 -0.7958  1.3042
 8791TIP3   OH247787   2.855   4.025  16.715  0.2484 -0.0295  0.9348
 8791TIP3    H147788   2.925   4.027  16.780  0.9264  0.6397  0.2026
 8791TIP3    H247789   2.780   4.064  16.760  0.6422  0.2063  1.3972
 8792TIP3   OH247790   3.420   2.187  10.615 -0.4372 -0.0646 -0.2777
 8792TIP3    H147791   3.342   2.183  10.671  0.4230  0.2190  0.9722
 8792TIP3    H247792   3.444   2.095  10.601  0.2203 -0.1301  1.1160
 8793TIP3   OH247793   3.663   6.415   5.509 -0.3925  0.3706  0.2774
 8793TIP3    H147794   3.664   6.502   5.550  0.7293  1.1119 -1.2270
 8793TIP3    H247795   3.613   6.428   5.428  0.2837 -0.2294 -0.2467
 8794TIP3   OH247796   1.161   0.958  12.319 -0.3879  0.0129 -0.0849
 8794TIP3    H147797   1.171   0.924  12.230 -0.0651 -1.6334  0.5480
 8794TIP3    H247798   1.248   0.951  12.357 -0.7478 -0.3097  0.6995
 8795TIP3   OH247799   0.031   0.705   3.314  0.1881 -0.0332  0.5006
 8795TIP3    H147800   0.068   0.634   3.262  0.4264 -0.5134  1.3060
 8795TIP3    H247801   0.017   0.776   3.252  0.3874 -0.6232 -0.2260
 8796TIP3   OH247802   5.833   5.455   2.330 -0.2157  0.6389  0.4711
 8796TIP3    H147803   5.893   5.388   2.360 -1.2724  0.1916  1.6368
 8796TIP3    H247804   5.838   5.450   2.234  0.7884 -0.0967  0.5440
 8797TIP3   OH247805   3.130   2.755   5.724 -0.2731 -0.0419 -0.0164
 8797TIP3    H147806   3.189   2.793   5.659  0.3607  2.0689  1.6555
 8797TIP3    H247807   3.069   2.826   5.744 -1.6315 -1.2736  0.3491
 8798TIP3   OH247808   2.295   0.642   3.552 -0.2875 -0.2937 -0.1367
 8798TIP3    H147809   2.359   0.648   3.481  2.2419  0.0067  1.9987
 8798TIP3    H247810   2.249   0.726   3.551  0.6572  0.2263 -0.5907
 8799TIP3   OH247811   3.192   1.487  15.285 -0.3021  0.4224  0.5571
 8799TIP3    H147812   3.185   1.581  15.270  1.4441  0.8293  1.8999
 8799TIP3    H247813   3.234   1.453  15.206 -1.4205  0.6468 -0.1637
 8800TIP3   OH247814   1.493   1.850   2.083 -0.3106 -0.7554  0.1227
 8800TIP3    H147815   1.542   1.909   2.141 -0.1467 -0.9540  0.1881
 8800TIP3    H247816   1.487   1.898   2.001  1.0380 -1.1993 -0.2701
 8801TIP3   OH247817   2.094   1.767   6.553 -0.5940  0.2894  0.4885
 8801TIP3    H147818   2.170   1.781   6.496 -1.4095  2.0980 -0.2187
 8801TIP3    H247819   2.113   1.685   6.598  0.6264 -0.6062 -1.5185
 8802TIP3   OH247820   3.320   1.955  13.288  0.0027 -0.1123 -0.0425
 8802TIP3    H147821   3.360   1.885  13.340 -2.8180 -0.6384  1.6378
 8802TIP3    H247822   3.332   2.034  13.341  0.6124  0.1478 -0.5508
 8803TIP3   OH247823   2.628   3.141  13.951 -0.4726  0.6442  0.2932
 8803TIP3    H147824   2.574   3.144  14.031 -1.1702  0.2101 -0.1535
 8803TIP3    H247825   2.705   3.090  13.975 -0.6761  0.5229  0.6898
 8804TIP3   OH247826   6.763   4.929   6.447 -0.4211  0.5890 -0.4661
 8804TIP3    H147827   6.776   4.857   6.386  0.3581  0.4598 -0.1642
 8804TIP3    H247828   6.692   4.900   6.504 -0.8631  0.5333 -1.0410
 8805TIP3   OH247829   3.606   0.888   0.922  0.0517 -0.6490 -0.4353
 8805TIP3    H147830   3.580   0.837   0.845  2.0800 -0.3120 -1.3937
 8805TIP3    H247831   3.540   0.958   0.927  1.4489  1.1502 -3.7426
 8806TIP3   OH247832   0.344   1.493   6.294 -0.2863  0.2908  0.0517
 8806TIP3    H147833   0.263   1.441   6.299  0.0532 -0.1291  1.8393
 8806TIP3    H247834   0.326   1.571   6.346  0.3470  0.3739  0.1491
 8807TIP3   OH247835   4.814   4.253   0.493 -0.0743 -0.7457  0.2308
 8807TIP3    H147836   4.804   4.342   0.457  0.4447 -0.7510  0.0649
 8807TIP3    H247837   4.895   4.257   0.544 -1.3104 -0.4492  2.2917
 8808TIP3   OH247838   4.863   2.676   3.128 -0.4182 -0.1095  0.7637
 8808TIP3    H147839   4.783   2.636   3.164 -1.3135  2.0738  1.4007
 8808TIP3    H247840   4.900   2.726   3.201  0.1317  0.9262 -0.1905
 8809TIP3   OH247841   1.729   5.631   2.211 -0.2454 -0.2957  0.0594
 8809TIP3    H147842   1.719   5.724   2.231  0.7445  0.0763 -1.0708
 8809TIP3    H247843   1.649   5.608   2.162  0.7976  0.7512 -2.3011
 8810TIP3   OH247844   4.313   3.220   1.174 -0.2342  0.3308 -0.1096
 8810TIP3    H147845   4.331   3.228   1.080 -1.5530 -1.0525 -0.5276
 8810TIP3    H247846   4.226   3.259   1.185  0.0458  0.7717  0.6119
 8811TIP3   OH247847   6.698   3.087   4.594  0.4751  0.1921  0.2488
 8811TIP3    H147848   6.650   3.168   4.615  2.7917  2.1556 -1.4816
 8811TIP3    H247849   6.782   3.097   4.638  1.0373 -1.0286 -0.4996
 8812TIP3   OH247850   6.518   0.380   2.962 -0.1878 -0.7165  0.2821
 8812TIP3    H147851   6.570   0.365   3.041  2.5184 -0.1919 -1.2638
 8812TIP3    H247852   6.540   0.306   2.905 -0.4567 -0.0106 -0.7573
 8813TIP3   OH247853   6.168   4.227   5.093  0.1160  0.0380  0.3996
 8813TIP3    H147854   6.176   4.268   5.179  1.6283  0.0872  0.2647
 8813TIP3    H247855   6.239   4.162   5.090 -0.2690 -0.3626 -0.5913
 8814TIP3   OH247856   6.019   2.735   1.099  0.3211  0.3389  0.4841
 8814TIP3    H147857   5.926   2.714   1.106  0.2353 -0.1647 -1.6180
 8814TIP3    H247858   6.053   2.676   1.032  1.9304  1.2315  0.4465
 8815TIP3   OH247859   6.430   2.054   1.751  0.0691  0.1958 -0.3131
 8815TIP3    H147860   6.365   1.994   1.788 -0.3043  1.1968  0.6945
 8815TIP3    H247861   6.378   2.118   1.702  0.3376  0.6111 -0.0590
 8816TIP3   OH247862   3.455   6.228   2.940  0.2181  0.2424 -0.1374
 8816TIP3    H147863   3.394   6.232   2.867 -1.0754 -1.3168  0.7878
 8816TIP3    H247864   3.536   6.266   2.906 -0.4733 -0.0158 -2.2166
 8817TIP3   OH247865   4.680   2.065  15.168  0.5472 -0.2433  0.0949
 8817TIP3    H147866   4.717   2.071  15.256 -2.4737 -0.1216  1.4758
 8817TIP3    H247867   4.689   2.152  15.131 -0.4018  0.4004  1.3183
 8818TIP3   OH247868   1.385   3.435  12.927  0.5102  0.3035  0.1638
 8818TIP3    H147869   1.338   3.359  12.963  1.6582 -1.0621 -1.1287
 8818TIP3    H247870   1.432   3.471  13.003  0.4779 -0.6846  0.6773
 8819TIP3   OH247871   3.568   1.415  14.622 -0.1313  0.0036  0.1520
 8819TIP3    H147872   3.662   1.401  14.638  0.0952 -0.6558 -1.5612
 8819TIP3    H247873   3.564   1.456  14.536 -1.4958 -1.6767 -0.6279
 8820TIP3   OH247874   1.685   3.770  16.856 -0.4230 -0.1077  0.0323
 8820TIP3    H147875   1.627   3.809  16.921  0.2072 -0.9169  1.1173
 8820TIP3    H247876   1.743   3.841  16.829 -1.1256  0.4014 -0.1532
 8821TIP3   OH247877   1.006   6.631   4.213  0.3217 -0.3760  0.4808
 8821TIP3    H147878   0.980   6.719   4.242  1.6751  1.2987 -2.8625
 8821TIP3    H247879   0.926   6.594   4.175 -0.3325 -0.7974  2.1763
 8822TIP3   OH247880   0.250   2.586  12.307 -0.3206 -0.1100 -0.4577
 8822TIP3    H147881   0.184   2.641  12.349  0.3152  0.6304 -0.4094
 8822TIP3    H247882   0.250   2.614  12.215  0.5271  0.5131 -0.2820
 8823TIP3   OH247883   1.161   4.451  11.929  0.0118 -0.3044 -0.0504
 8823TIP3    H147884   1.117   4.478  11.849 -0.0685 -0.8839 -0.2083
 8823TIP3    H247885   1.213   4.527  11.956  0.0769 -0.1264 -0.6790
 8824TIP3   OH247886   5.399   3.369   4.448  0.4404 -0.0339 -0.1837
 8824TIP3    H147887   5.401   3.284   4.492  0.0895 -0.4013 -0.8609
 8824TIP3    H247888   5.329   3.361   4.384 -1.0900  1.5375  1.2212
 8825TIP3   OH247889   4.804   2.702  13.181  0.4167 -0.2538  0.0495
 8825TIP3    H147890   4.824   2.653  13.261 -0.5250  1.0254  1.1124
 8825TIP3    H247891   4.877   2.764  13.172  0.9278 -0.9181 -0.5579
 8826TIP3   OH247892   3.813   6.021   1.911 -0.1694 -0.4828 -0.5431
 8826TIP3    H147893   3.788   6.006   1.819 -1.7618 -1.3966  0.0047
 8826TIP3    H247894   3.909   6.014   1.910 -0.1946 -1.1834 -2.0254
 8827TIP3   OH247895   0.294   4.155   5.928 -0.4249 -0.1174 -0.1572
 8827TIP3    H147896   0.295   4.200   6.012 -3.6965 -0.3794  0.1367
 8827TIP3    H247897   0.316   4.223   5.864  0.3467  0.4888  0.7229
 8828TIP3   OH247898   6.465   5.373   6.248 -0.7160 -0.1380 -0.7488
 8828TIP3    H147899   6.393   5.431   6.274 -0.9705 -0.0075 -1.6922
 8828TIP3    H247900   6.466   5.378   6.152  0.0611 -0.7348 -0.7811
 8829TIP3   OH247901   1.666   4.008   2.506 -0.4942  0.0917  0.6395
 8829TIP3    H147902   1.708   3.986   2.423 -1.8966  0.2647 -0.1398
 8829TIP3    H247903   1.612   3.931   2.527 -1.8904  0.9188  0.2162
 8830TIP3   OH247904   3.283   2.211  17.299 -0.6992  0.3916 -0.1293
 8830TIP3    H147905   3.193   2.189  17.321 -0.2922 -1.2386  0.0459
 8830TIP3    H247906   3.336   2.154  17.355  0.3834 -1.0553 -2.4550
 8831TIP3   OH247907   0.349   2.312  15.719  0.4754  0.8230 -0.1307
 8831TIP3    H147908   0.287   2.259  15.769  0.8080  1.6584  1.2345
 8831TIP3    H247909   0.315   2.310  15.629 -0.2456 -0.5817  0.1341
 8832TIP3   OH247910   5.637   2.396  12.007  0.4241 -0.2068  0.6915
 8832TIP3    H147911   5.706   2.447  11.965  1.8957 -2.6142 -0.0063
 8832TIP3    H247912   5.679   2.355  12.083 -0.5727 -0.7510  0.9722
 8833TIP3   OH247913   5.003   4.781   1.320 -0.2875  0.1522 -0.2956
 8833TIP3    H147914   5.059   4.751   1.391  0.2709  0.1786 -0.7144
 8833TIP3    H247915   4.978   4.870   1.344 -1.0253 -0.2396  0.4058
 8834TIP3   OH247916   2.994   2.485  12.970  0.2277  0.3116  0.0108
 8834TIP3    H147917   3.024   2.574  12.987 -1.2274  0.6713  0.9687
 8834TIP3    H247918   3.069   2.440  12.930  1.8028  1.2655  1.7475
 8835TIP3   OH247919   5.088   1.708   3.999  0.2313  0.1384  0.4777
 8835TIP3    H147920   5.078   1.698   4.094 -0.4788 -3.2417  0.1824
 8835TIP3    H247921   4.998   1.711   3.966  0.4219 -0.7737 -0.1748
 8836TIP3   OH247922   2.778   1.566   2.740  0.4547  0.5715 -0.4542
 8836TIP3    H147923   2.872   1.563   2.756  0.4975 -0.4697 -0.8055
 8836TIP3    H247924   2.740   1.507   2.805  0.2291 -0.3652 -1.4003
 8837TIP3   OH247925   4.577   6.406  14.531  0.4356 -0.3413 -0.6948
 8837TIP3    H147926   4.572   6.501  14.541 -0.0334 -0.3152 -1.0935
 8837TIP3    H247927   4.622   6.375  14.609  0.4685  0.1982 -0.4970
 8838TIP3   OH247928   5.050   4.787  15.318  0.5437  0.4141  0.3373
 8838TIP3    H147929   5.146   4.784  15.311  0.6011  0.3286  1.1480
 8838TIP3    H247930   5.020   4.731  15.246  1.1057  0.2119  0.2521
 8839TIP3   OH247931   2.530   3.283  12.960  0.4664 -0.3794  0.2602
 8839TIP3    H147932   2.531   3.188  12.949  1.6794 -0.4241  0.6734
 8839TIP3    H247933   2.552   3.317  12.873  0.1245 -0.4720  0.1347
 8840TIP3   OH247934   3.732   4.027  16.217  0.5293  0.7489  0.4617
 8840TIP3    H147935   3.817   4.052  16.182  1.2392  0.8840  2.2184
 8840TIP3    H247936   3.700   4.106  16.261 -1.0070  1.0331 -1.0330
 8841TIP3   OH247937   5.416   2.582  11.460 -0.7077 -0.0176 -0.2635
 8841TIP3    H147938   5.333   2.561  11.503 -1.6367  1.4561 -1.2643
 8841TIP3    H247939   5.399   2.567  11.367  0.2779 -0.0850 -0.4381
 8842TIP3   OH247940   0.294   5.894  10.989  0.3148  0.0861 -0.1458
 8842TIP3    H147941   0.299   5.972  10.934 -0.5344 -0.4381 -0.9853
 8842TIP3    H247942   0.265   5.927  11.074  1.4013  0.8683 -0.0508
 8843TIP3   OH247943   3.381   5.751   1.420  1.0945  0.2043 -0.3586
 8843TIP3    H147944   3.425   5.673   1.451 -1.4377 -1.2151 -0.0142
 8843TIP3    H247945   3.418   5.767   1.334  0.7000 -2.2955 -1.0747
 8844TIP3   OH247946   1.103   5.810   0.989  0.5769  0.3160  0.0297
 8844TIP3    H147947   1.176   5.831   1.047  1.0263  0.0715 -0.4391
 8844TIP3    H247948   1.139   5.820   0.901  0.7473 -2.0684 -0.2445
 8845TIP3   OH247949   1.074   3.484  13.094  0.3986  0.2152 -0.4719
 8845TIP3    H147950   1.126   3.425  13.149 -0.5030 -0.0955  0.0684
 8845TIP3    H247951   1.036   3.547  13.156 -0.9131 -0.3483 -0.6707
 8846TIP3   OH247952   4.980   0.058  16.706  0.2940  0.0366  0.0681
 8846TIP3    H147953   4.969   0.151  16.686  1.3255 -0.0047 -0.7379
 8846TIP3    H247954   4.975   0.053  16.802  1.4536  1.0946  0.2018
 8847TIP3   OH247955   4.947   4.588   5.304  0.2720  0.0331 -0.5250
 8847TIP3    H147956   5.007   4.655   5.271 -1.0870  2.1185  0.9384
 8847TIP3    H247957   4.979   4.568   5.392  0.4136 -0.9523 -0.7887
 8848TIP3   OH247958   2.444   2.123   2.507 -0.3444  0.0419 -0.4049
 8848TIP3    H147959   2.385   2.117   2.432 -0.8860  0.2112 -0.0031
 8848TIP3    H247960   2.404   2.191   2.563 -0.9397 -1.3196  0.8857
 8849TIP3   OH247961   0.306   6.546  12.674  0.0309 -0.5641  0.6579
 8849TIP3    H147962   0.222   6.501  12.670  1.1689 -2.7952  0.3591
 8849TIP3    H247963   0.371   6.476  12.666  1.9179  1.2120 -0.3092
 8850TIP3   OH247964   5.073   4.914   3.476  0.0538 -0.3105 -0.1665
 8850TIP3    H147965   5.129   4.938   3.402  1.2600 -0.2466  0.7483
 8850TIP3    H247966   5.119   4.842   3.518  0.1840  0.6764  1.4446
 8851TIP3   OH247967   0.027   2.739  17.123  0.4673  0.4411  0.4448
 8851TIP3    H147968   0.015   2.766  17.214  0.4295 -0.4883  0.7310
 8851TIP3    H247969   0.118   2.759  17.103  0.0909  2.0306  0.1899
 8852TIP3   OH247970   0.679   3.508   4.445 -0.0950  0.2689  0.3654
 8852TIP3    H147971   0.773   3.499   4.461 -0.0120 -0.0341 -0.2465
 8852TIP3    H247972   0.651   3.578   4.504  0.6745  0.9498 -0.0597
 8853TIP3   OH247973   0.383   3.221   1.399 -0.4722 -0.5519  0.4164
 8853TIP3    H147974   0.419   3.133   1.385 -0.0363 -0.2634 -0.3365
 8853TIP3    H247975   0.457   3.280   1.382 -0.6407 -0.0541  1.3543
 8854TIP3   OH247976   6.546   1.033   1.662 -0.5350  0.5362 -0.3223
 8854TIP3    H147977   6.596   1.114   1.652  0.3934 -0.1149 -1.2075
 8854TIP3    H247978   6.568   1.002   1.750 -0.5363  1.0050 -0.1547
 8855TIP3   OH247979   3.564   4.954  16.628 -0.2221  0.0515 -0.1324
 8855TIP3    H147980   3.625   4.882  16.640  0.5531  0.5831 -0.7307
 8855TIP3    H247981   3.505   4.949  16.704  0.3203 -0.7065  0.2521
 8856TIP3   OH247982   1.970   5.740   3.261  0.1169 -0.0070  0.6254
 8856TIP3    H147983   1.983   5.792   3.182 -1.9626 -0.8170 -0.3341
 8856TIP3    H247984   1.975   5.649   3.231 -1.7783 -0.3412  1.1528
 8857TIP3   OH247985   1.261   3.764   5.236  0.3215  0.0413 -0.0854
 8857TIP3    H147986   1.287   3.854   5.213  1.5563 -0.4124 -0.5510
 8857TIP3    H247987   1.208   3.735   5.162  1.8123 -0.3813 -1.0232
 8858TIP3   OH247988   2.728   4.110  12.240 -0.0675 -0.1311  0.4666
 8858TIP3    H147989   2.745   4.158  12.321  0.8279 -1.6431  1.2259
 8858TIP3    H247990   2.787   4.149  12.175  0.6174 -0.1645  1.0576
 8859TIP3   OH247991   0.612   0.962  15.235  0.1065  0.0747 -0.5170
 8859TIP3    H147992   0.665   0.890  15.270 -2.3706 -2.3463 -1.3327
 8859TIP3    H247993   0.612   1.028  15.305 -0.2752 -2.2172  1.8061
 8860TIP3   OH247994   6.569   6.172  10.340  0.0194  0.1996 -0.2859
 8860TIP3    H147995   6.514   6.222  10.400  1.1886  1.9743 -0.6440
 8860TIP3    H247996   6.579   6.087  10.383 -0.6350  0.8257  1.1642
 8861TIP3   OH247997   6.375   6.154  17.368  0.5679  0.3097  0.3165
 8861TIP3    H147998   6.301   6.155  17.307  1.2495  0.8683 -0.5197
 8861TIP3    H247999   6.358   6.079  17.425 -0.8099  0.6287  0.3518
 8862TIP3   OH248000   6.357   3.785  17.319  0.0682  0.9424 -0.5932
 8862TIP3    H148001   6.416   3.747  17.254 -2.2672 -1.3636 -1.5237
 8862TIP3    H248002   6.405   3.780  17.401  1.3869 -0.3331 -1.3905
 8863TIP3   OH248003   4.901   2.533   5.215 -0.4687 -0.0653 -0.0314
 8863TIP3    H148004   4.973   2.479   5.185 -1.0362  0.5126 -2.6094
 8863TIP3    H248005   4.924   2.622   5.187 -0.9757  0.5744  1.4483
 8864TIP3   OH248006   1.897   4.847   5.465  0.2959  0.4338  0.2162
 8864TIP3    H148007   1.890   4.858   5.370 -0.2773  1.7278  0.3842
 8864TIP3    H248008   1.965   4.780   5.477  0.5589  0.4430 -1.0883
 8865TIP3   OH248009   4.049   6.218   1.934  0.8829 -0.6173 -0.4940
 8865TIP3    H148010   4.066   6.311   1.922 -1.0728 -0.1148  0.2141
 8865TIP3    H248011   4.087   6.177   1.856  0.0345  0.9981 -1.8327
 8866TIP3   OH248012   5.600   4.861   2.892 -0.2471  0.4403 -0.2805
 8866TIP3    H148013   5.657   4.886   2.965  0.6240  0.2229 -0.8792
 8866TIP3    H248014   5.632   4.911   2.818 -0.3107 -0.2926 -0.8171
 8867TIP3   OH248015   5.782   5.879  15.693 -0.2882 -0.4784 -0.2039
 8867TIP3    H148016   5.712   5.838  15.642 -0.3734 -0.1293 -0.3678
 8867TIP3    H248017   5.853   5.815  15.690 -1.0029 -1.3783  0.9670
 8868TIP3   OH248018   6.751   5.056  12.849 -0.0562  0.4592  0.3424
 8868TIP3    H148019   6.747   5.086  12.758 -0.8905 -0.6905 -0.0383
 8868TIP3    H248020   6.840   5.021  12.859  0.8286  2.6781  0.7142
 8869TIP3   OH248021   2.533   5.649  11.996 -0.1557  0.0053  0.0129
 8869TIP3    H148022   2.616   5.667  11.951  0.6587 -2.1891  0.4796
 8869TIP3    H248023   2.516   5.557  11.977 -1.2588 -0.2079  1.8618
 8870TIP3   OH248024   4.967   4.469   0.114  0.6167  0.4257  0.3988
 8870TIP3    H148025   5.042   4.485   0.057 -0.4027 -1.6279 -1.7013
 8870TIP3    H248026   4.914   4.549   0.106 -0.2160 -0.2777 -2.9230
 8871TIP3   OH248027   3.813   0.783   5.839 -0.5673  0.5198  0.3703
 8871TIP3    H148028   3.867   0.793   5.760  1.2494 -1.7655  1.1873
 8871TIP3    H248029   3.785   0.691   5.837 -0.5034  0.4094  2.3410
 8872TIP3   OH248030   0.694   5.244   2.779  0.1803 -0.2035 -0.5228
 8872TIP3    H148031   0.618   5.289   2.742  1.1383  0.6093 -1.5689
 8872TIP3    H248032   0.763   5.310   2.779  1.0745 -1.1168 -0.1984
 8873TIP3   OH248033   0.471   4.835   1.167  0.0545  0.2492 -0.4681
 8873TIP3    H148034   0.529   4.760   1.183  1.0454  1.0835  0.0380
 8873TIP3    H248035   0.451   4.868   1.255 -0.0956  0.7706 -0.6985
 8874TIP3   OH248036   1.008   1.434   2.409 -0.0388  0.9831  0.3861
 8874TIP3    H148037   1.095   1.395   2.401  0.3346  1.7883  0.4143
 8874TIP3    H248038   1.023   1.519   2.450 -0.5710  2.0507 -1.4708
 8875TIP3   OH248039   5.801   2.515   4.491  0.2862  0.1735  0.1436
 8875TIP3    H148040   5.870   2.581   4.497  0.2291  0.5538 -2.4789
 8875TIP3    H248041   5.731   2.558   4.441 -0.2700 -1.4606 -0.5425
 8876TIP3   OH248042   2.488   5.271  13.362 -0.2180  0.1266 -0.9785
 8876TIP3    H148043   2.570   5.319  13.372  0.7224 -1.0782 -2.4307
 8876TIP3    H248044   2.490   5.238  13.273 -2.0307 -0.4406 -0.8544
 8877TIP3   OH248045   0.444   2.138   4.283  0.5277  0.1374  0.3143
 8877TIP3    H148046   0.391   2.216   4.268 -0.0250 -0.2322  0.3487
 8877TIP3    H248047   0.532   2.173   4.301 -0.1367  0.8632  2.4369
 8878TIP3   OH248048   2.937   2.042   3.049 -0.3185  0.8490  0.3531
 8878TIP3    H148049   2.979   1.993   2.979  1.8197  0.9869  1.4416
 8878TIP3    H248050   2.987   2.123   3.055 -0.7726  1.0548  1.7040
 8879TIP3   OH248051   3.076   2.410   5.772 -0.3777 -0.3737 -0.1357
 8879TIP3    H148052   3.167   2.438   5.761 -0.7483  2.6302  2.8107
 8879TIP3    H248053   3.081   2.334   5.830  0.2846 -0.1904  0.0537
 8880TIP3   OH248054   1.711   4.689  11.620  0.0335  0.4363 -0.2793
 8880TIP3    H148055   1.650   4.657  11.687  0.0739 -1.7029 -1.1691
 8880TIP3    H248056   1.794   4.697  11.665 -0.7001  2.7419  0.7924
 8881TIP3   OH248057   0.865   3.257  13.718 -0.7723  0.5074 -0.4227
 8881TIP3    H148058   0.785   3.220  13.680 -0.7169  0.6173 -0.6480
 8881TIP3    H248059   0.906   3.305  13.646 -1.2363  1.6687  0.0506
 8882TIP3   OH248060   2.140   3.015  15.125 -0.5968  0.3265 -0.0719
 8882TIP3    H148061   2.128   3.010  15.030 -1.9335 -1.1345  0.1305
 8882TIP3    H248062   2.089   3.091  15.151  2.1412  2.5675 -0.7854
 8883TIP3   OH248063   6.224   6.755   1.380 -0.7802  0.2756  0.1026
 8883TIP3    H148064   6.130   6.773   1.381 -0.9803 -0.6265  1.9310
 8883TIP3    H248065   6.233   6.682   1.318 -1.5417 -0.6866  1.0751
 8884TIP3   OH248066   6.269   5.426   0.594  0.0497 -0.4208  0.0634
 8884TIP3    H148067   6.307   5.343   0.563 -1.2934 -0.4447 -1.6510
 8884TIP3    H248068   6.269   5.418   0.689 -0.4020 -2.5803 -0.0725
 8885TIP3   OH248069   4.290   1.111  15.830  0.2985 -0.0327 -0.2973
 8885TIP3    H148070   4.329   1.029  15.800 -0.7327  0.0871 -2.0604
 8885TIP3    H248071   4.364   1.171  15.837  0.9764 -0.9127  0.3877
 8886TIP3   OH248072   5.664   6.373   4.053 -0.7569  0.4057  0.3342
 8886TIP3    H148073   5.692   6.364   3.962  1.2085 -0.9871  0.9984
 8886TIP3    H248074   5.698   6.458   4.081 -1.6252  0.9719 -0.2894
 8887TIP3   OH248075   0.634   1.872   2.151  0.5414 -0.0685  0.5657
 8887TIP3    H148076   0.618   1.923   2.230  0.0727  0.3503  0.2146
 8887TIP3    H248077   0.615   1.782   2.176  0.7885  0.0076  1.0371
 8888TIP3   OH248078   6.586   4.048  12.587 -0.0400 -0.3447  0.7172
 8888TIP3    H148079   6.666   4.100  12.590  0.4426 -0.8686 -1.3449
 8888TIP3    H248080   6.556   4.043  12.678  1.9657  0.3161  1.4512
 8889TIP3   OH248081   5.559   2.305  15.952  0.5359  0.1966 -0.5853
 8889TIP3    H148082   5.646   2.339  15.931  0.3870  0.8749 -0.0931
 8889TIP3    H248083   5.499   2.375  15.929  0.0493 -0.5134 -1.5537
 8890TIP3   OH248084   1.026   0.585   0.321 -0.5084  0.3952  0.8674
 8890TIP3    H148085   0.955   0.640   0.288  1.3908  2.6170  0.2448
 8890TIP3    H248086   1.106   0.634   0.303  1.2187 -1.8576  1.8043
 8891TIP3   OH248087   5.461   3.959  11.155  0.4492 -0.0444 -0.2689
 8891TIP3    H148088   5.486   3.945  11.064  0.5545  0.6888 -0.3620
 8891TIP3    H248089   5.380   4.010  11.150  1.3642  1.5030  0.0379
 8892TIP3   OH248090   4.185   6.758  14.172 -0.2735 -0.2285 -0.0465
 8892TIP3    H148091   4.101   6.803  14.162 -1.0635 -1.6531 -0.0615
 8892TIP3    H248092   4.165   6.684  14.230  1.4124  0.5211  1.6083
 8893TIP3   OH248093   5.460   2.155   5.183  0.0706  0.5126  0.8400
 8893TIP3    H148094   5.376   2.183   5.218 -0.7705  0.1410 -0.7937
 8893TIP3    H248095   5.521   2.223   5.210 -1.2517  2.1208 -0.0806
 8894TIP3   OH248096   2.335   4.712  14.863  0.1474  0.0624  0.2703
 8894TIP3    H148097   2.304   4.708  14.773  0.4560  1.0764  0.1051
 8894TIP3    H248098   2.398   4.641  14.870  0.1880  0.0318 -0.3416
 8895TIP3   OH248099   4.890   6.597   5.149 -0.1840  0.1255 -0.2741
 8895TIP3    H148100   4.905   6.656   5.224 -0.7908 -1.4719  1.1754
 8895TIP3    H248101   4.831   6.646   5.092  0.3656  1.4232  0.2299
 8896TIP3   OH248102   1.532   1.957  13.499 -0.3438 -0.5216  0.1901
 8896TIP3    H148103   1.496   2.045  13.496 -2.0081 -1.0894  1.7673
 8896TIP3    H248104   1.461   1.903  13.533  1.0205 -2.2660  0.4143
 8897TIP3   OH248105   1.193   0.347   1.666  0.3481  0.2182 -0.2648
 8897TIP3    H148106   1.241   0.388   1.738  1.3050  1.5403 -1.5847
 8897TIP3    H248107   1.119   0.405   1.649  0.8439  0.6124 -1.1525
 8898TIP3   OH248108   0.415   4.391   5.870 -0.1149 -0.3853  0.4179
 8898TIP3    H148109   0.467   4.470   5.886  0.0079 -0.6232  1.2411
 8898TIP3    H248110   0.383   4.401   5.780  0.6237  0.1801  0.2087
 8899TIP3   OH248111   2.865   1.957   4.076  0.4758  0.6052 -0.1020
 8899TIP3    H148112   2.772   1.942   4.060  0.9586 -3.7664 -0.0107
 8899TIP3    H248113   2.910   1.900   4.014  2.9358 -0.3986  2.3751
 8900TIP3   OH248114   3.678   4.076   2.551  0.0933 -0.2353 -0.0152
 8900TIP3    H148115   3.589   4.101   2.577  0.4834  1.0516  0.1551
 8900TIP3    H248116   3.692   4.121   2.467  0.8850  0.2781  0.3815
 8901TIP3   OH248117   0.060   4.826  10.614  0.9025 -0.4191  0.0607
 8901TIP3    H148118   0.018   4.836  10.700  1.7059  0.3607  0.3731
 8901TIP3    H248119   0.133   4.888  10.616  0.7195 -0.1449 -1.3231
 8902TIP3   OH248120   3.935   5.993  11.558 -0.4430  0.0237  0.4481
 8902TIP3    H148121   4.022   5.961  11.580  0.0601  1.1411  0.1726
 8902TIP3    H248122   3.928   5.978  11.463 -0.1410  0.8247  0.2881
 8903TIP3   OH248123   6.606   2.110   0.249  0.1770  0.0385  0.4092
 8903TIP3    H148124   6.538   2.048   0.277  0.6897 -1.0972 -0.7680
 8903TIP3    H248125   6.559   2.175   0.197  0.1721 -1.8549 -2.1480
 8904TIP3   OH248126   3.372   5.828  14.720  0.2701  0.4846 -0.3378
 8904TIP3    H148127   3.380   5.770  14.796  1.2336  0.9273 -0.0979
 8904TIP3    H248128   3.446   5.804  14.664  0.8508  1.6816 -0.1002
 8905TIP3   OH248129   5.874   2.030   5.381 -0.1659  0.1754 -0.1512
 8905TIP3    H148130   5.901   2.054   5.292  2.0722 -1.2346  0.0720
 8905TIP3    H248131   5.813   1.957   5.369  0.2553 -0.1187 -0.5413
 8906TIP3   OH248132   3.972   6.366   6.877 -0.2994  0.5454 -0.2922
 8906TIP3    H148133   3.991   6.443   6.823  1.2945  0.1087 -0.4091
 8906TIP3    H248134   4.052   6.353   6.929 -0.1863 -1.5171 -0.8819
 8907TIP3   OH248135   0.365   0.309  16.202  0.0525 -0.7604  0.1801
 8907TIP3    H148136   0.419   0.388  16.213 -0.8930 -0.1705  0.6879
 8907TIP3    H248137   0.429   0.237  16.199  0.8762 -0.0787  0.7657
 8908TIP3   OH248138   3.734   3.239  16.530 -0.0504 -0.6333 -0.9147
 8908TIP3    H148139   3.757   3.330  16.512 -1.9375  0.1534  0.2953
 8908TIP3    H248140   3.732   3.197  16.444  0.1320  0.6616 -1.5738
 8909TIP3   OH248141   0.442   1.736  12.325  0.1588 -0.5580  0.1688
 8909TIP3    H148142   0.537   1.726  12.315  0.0645  0.3282 -2.5565
 8909TIP3    H248143   0.425   1.826  12.296 -1.4143 -0.2824  1.7752
 8910TIP3   OH248144   4.683   3.713  14.261 -0.3374 -0.3767  0.0280
 8910TIP3    H148145   4.607   3.726  14.318  0.5649 -0.2737  1.2249
 8910TIP3    H248146   4.683   3.618  14.244  0.4324 -0.7310  1.7454
 8911TIP3   OH248147   5.579   5.677   3.214 -0.7702  0.5348 -0.4336
 8911TIP3    H148148   5.561   5.760   3.257 -2.5416 -0.7032  1.3670
 8911TIP3    H248149   5.543   5.686   3.126 -1.2309  1.5480 -0.1441
 8912TIP3   OH248150   1.097   5.674   1.866 -0.0155  0.3197 -0.1524
 8912TIP3    H148151   1.117   5.623   1.788 -4.7722  1.0739 -2.2402
 8912TIP3    H248152   1.056   5.612   1.926  0.5719  0.4029  0.3468
 8913TIP3   OH248153   1.998   5.706   4.275 -0.1687 -0.0397 -0.1941
 8913TIP3    H148154   1.993   5.668   4.188  0.8274 -2.2958  0.6451
 8913TIP3    H248155   1.963   5.637   4.333 -1.2245  1.5587  1.1687
 8914TIP3   OH248156   3.026   0.750   1.284 -0.8696  0.2860 -0.0854
 8914TIP3    H148157   3.018   0.658   1.307 -0.8372  0.6049  1.2523
 8914TIP3    H248158   2.952   0.792   1.326 -1.1243  0.8245 -1.0418
 8915TIP3   OH248159   5.383   5.995   2.909  0.1510  0.4950 -0.1651
 8915TIP3    H148160   5.471   5.965   2.885  0.0513 -0.3537  0.4651
 8915TIP3    H248161   5.389   6.090   2.910  1.4994  0.4429  1.3711
 8916TIP3   OH248162   2.202   4.423   3.573 -0.1743 -0.0554  0.2452
 8916TIP3    H148163   2.240   4.434   3.660 -0.2332 -1.2605  0.4372
 8916TIP3    H248164   2.143   4.348   3.581 -0.4440  0.0238 -0.7536
 8917TIP3   OH248165   2.972   5.668   3.048 -0.4637 -0.6312  0.0432
 8917TIP3    H148166   2.943   5.693   3.135  2.4862 -2.1870  1.6323
 8917TIP3    H248167   2.903   5.611   3.014 -2.4272  1.3173  0.5793
 8918TIP3   OH248168   2.944   5.172  12.884 -0.4119 -0.9634  0.1029
 8918TIP3    H148169   3.022   5.214  12.923 -0.9013 -0.8565  0.9915
 8918TIP3    H248170   2.980   5.106  12.825  0.3652 -0.3122 -0.1837
 8919TIP3   OH248171   0.108   5.299  11.648 -0.0800  0.2092  0.4725
 8919TIP3    H148172   0.085   5.389  11.667 -1.1407  0.3647 -1.3656
 8919TIP3    H248173   0.028   5.249  11.663  0.4585 -0.4334  1.3456
 8920TIP3   OH248174   0.442   2.558  15.763 -0.0125 -0.0230 -0.4101
 8920TIP3    H148175   0.400   2.473  15.753 -0.9999  0.2266  1.2701
 8920TIP3    H248176   0.378   2.621  15.729  0.4170  0.1226 -0.9710
 8921TIP3   OH248177   5.169   5.492  11.531 -0.1519  0.1554  0.3797
 8921TIP3    H148178   5.074   5.488  11.520 -0.0435  0.6312 -0.9092
 8921TIP3    H248179   5.203   5.426  11.470  0.3317 -0.3184  1.1497
 8922TIP3   OH248180   0.315   4.332  14.021 -0.5102  0.7790  0.4134
 8922TIP3    H148181   0.220   4.324  14.011 -0.5034  1.4753 -0.3449
 8922TIP3    H248182   0.350   4.302  13.937 -0.2318  3.2386 -0.4291
 8923TIP3   OH248183   4.651   6.706   5.131  0.4386 -0.5746 -0.0885
 8923TIP3    H148184   4.593   6.764   5.181  0.7005  1.0361 -1.5336
 8923TIP3    H248185   4.592   6.643   5.089 -0.1237  0.1178 -0.3575
 8924TIP3   OH248186   6.555   0.280  12.620  0.2495 -0.3263 -0.4244
 8924TIP3    H148187   6.588   0.325  12.698  0.0667  0.5752 -0.8540
 8924TIP3    H248188   6.626   0.286  12.557 -0.4925  1.1187 -1.1553
 8925TIP3   OH248189   6.174   4.147   1.499  0.4784 -0.3109 -0.2523
 8925TIP3    H148190   6.207   4.059   1.483 -1.5251 -1.7824  2.7656
 8925TIP3    H248191   6.086   4.147   1.461 -0.2970 -0.3651  1.4535
 8926TIP3   OH248192   6.455   3.659   2.187  0.0620  0.3905 -0.0136
 8926TIP3    H148193   6.470   3.717   2.262  0.8776  1.9383 -1.3189
 8926TIP3    H248194   6.468   3.715   2.111  0.7409 -1.4952 -1.3443
 8927TIP3   OH248195   2.587   4.953  15.937  0.2049 -0.4704  0.3049
 8927TIP3    H148196   2.626   5.029  15.981 -1.7872 -0.6040  2.5255
 8927TIP3    H248197   2.636   4.878  15.970 -0.1511 -0.4144  0.9875
 8928TIP3   OH248198   3.111   4.112   2.716 -0.2267 -0.2315 -0.0662
 8928TIP3    H148199   3.084   4.039   2.772  0.9253 -0.2057  0.5542
 8928TIP3    H248200   3.074   4.091   2.630  0.4446 -1.7975 -0.0202
 8929TIP3   OH248201   3.937   6.316   5.529 -0.1363 -0.3483 -0.0249
 8929TIP3    H148202   3.937   6.407   5.557  1.0194 -1.1661  3.0060
 8929TIP3    H248203   3.858   6.307   5.475 -0.8665  2.1500  0.5263
 8930TIP3   OH248204   5.162   2.734   3.166 -0.2855 -0.1083 -0.0927
 8930TIP3    H148205   5.113   2.678   3.106  0.5917 -1.8020  0.6788
 8930TIP3    H248206   5.098   2.761   3.231 -0.3585 -1.9376  0.6697
 8931TIP3   OH248207   6.026   1.686   1.139 -0.0211 -0.0298 -0.0398
 8931TIP3    H148208   6.099   1.749   1.141 -0.3984  0.5748 -2.2192
 8931TIP3    H248209   6.066   1.604   1.111  0.4804 -0.8649  2.8553
 8932TIP3   OH248210   2.612   5.846  10.817 -0.4236 -0.0122  0.4007
 8932TIP3    H148211   2.585   5.936  10.839  1.3752 -0.0097  2.9459
 8932TIP3    H248212   2.630   5.805  10.901  1.4309 -1.9231 -0.8357
 8933TIP3   OH248213   3.374   3.271  12.599  0.5187  0.0149 -0.9342
 8933TIP3    H148214   3.281   3.287  12.619  0.5878  0.3385 -0.8735
 8933TIP3    H248215   3.421   3.310  12.673  0.6739 -0.6853 -0.6587
 8934TIP3   OH248216   1.383   5.543   2.646  0.4897  0.3548 -0.4563
 8934TIP3    H148217   1.476   5.562   2.650  0.6042 -0.3638  1.3900
 8934TIP3    H248218   1.340   5.628   2.659  0.9355  0.3487  1.2654
 8935TIP3   OH248219   0.760   5.849  15.813 -0.1195  0.1379 -0.8533
 8935TIP3    H148220   0.836   5.907  15.803 -0.8175  1.2561  0.0923
 8935TIP3    H248221   0.742   5.819  15.724  0.8576  0.6016 -1.2308
 8936TIP3   OH248222   0.623   6.486   2.015 -0.2549  0.1513 -0.0955
 8936TIP3    H148223   0.536   6.508   1.980 -0.1586  1.0122  0.1750
 8936TIP3    H248224   0.674   6.567   2.005 -0.2029  0.4272  1.9363
 8937TIP3   OH248225   4.363   4.377   3.259  0.3645 -0.4186 -0.0077
 8937TIP3    H148226   4.295   4.439   3.285  1.2471  1.2397 -1.4890
 8937TIP3    H248227   4.344   4.358   3.167  0.9245 -1.3109  0.0473
 8938TIP3   OH248228   0.141   1.626   5.044  0.2695  0.1134  0.0632
 8938TIP3    H148229   0.227   1.591   5.017  0.0944 -0.6516  0.4848
 8938TIP3    H248230   0.079   1.584   4.984  0.2089  0.8524 -0.3982
 8939TIP3   OH248231   2.340   5.936  16.230 -0.2259  0.1835  0.4369
 8939TIP3    H148232   2.391   6.015  16.217  0.8823 -0.7338 -1.0879
 8939TIP3    H248233   2.396   5.878  16.280  0.0982 -0.6426 -0.8206
 8940TIP3   OH248234   0.502   1.953  15.132  0.1724 -0.0221  0.2145
 8940TIP3    H148235   0.494   1.916  15.044 -0.3591  1.2580 -0.2913
 8940TIP3    H248236   0.539   2.040  15.119  0.2929  0.1030  1.2787
 8941TIP3   OH248237   3.776   5.622  12.611  0.1251 -0.2961 -0.5029
 8941TIP3    H148238   3.690   5.642  12.649 -0.5203 -0.5847 -1.7599
 8941TIP3    H248239   3.758   5.556  12.545  1.3574 -0.4852 -0.6687
 8942TIP3   OH248240   5.015   5.269   0.513 -0.5000 -0.0551  0.2646
 8942TIP3    H148241   5.098   5.314   0.527  0.1070 -0.6853 -1.1017
 8942TIP3    H248242   4.962   5.332   0.463 -1.1208  0.5980  1.6891
 8943TIP3   OH248243   0.268   1.970  11.733  0.4537  0.2750  0.8718
 8943TIP3    H148244   0.220   2.053  11.740  0.1035  0.0861  0.7548
 8943TIP3    H248245   0.219   1.921  11.667  1.4963  0.5411 -0.1203
 8944TIP3   OH248246   5.133   3.096  15.460 -0.9821 -0.5611 -0.6730
 8944TIP3    H148247   5.079   3.108  15.538 -0.9499  0.3250 -0.7754
 8944TIP3    H248248   5.119   3.005  15.435 -2.9040 -0.2081 -1.0336
 8945TIP3   OH248249   2.212   4.485  13.051  0.0137  0.6237  0.3983
 8945TIP3    H148250   2.254   4.571  13.047  0.8690  0.3001  1.7590
 8945TIP3    H248251   2.277   4.424  13.019 -0.5538  0.4467 -0.4557
 8946TIP3   OH248252   5.110   3.712  17.272  0.0547 -0.4722 -0.3221
 8946TIP3    H148253   5.062   3.745  17.196  0.5351 -2.1150 -1.4051
 8946TIP3    H248254   5.043   3.696  17.338 -0.7101 -1.2704 -1.2630
 8947TIP3   OH248255   0.210   6.053   6.388 -0.0864  0.7576 -0.2318
 8947TIP3    H148256   0.115   6.063   6.376 -0.2002 -0.1350 -0.1915
 8947TIP3    H248257   0.227   6.089   6.474 -0.6872 -0.5999  0.4987
 8948TIP3   OH248258   3.647   3.975  13.399  0.4900 -0.4308  0.2197
 8948TIP3    H148259   3.577   4.028  13.436  1.8122  3.1012 -1.8371
 8948TIP3    H248260   3.698   3.945  13.475 -0.8437  0.4980  1.5266
 8949TIP3   OH248261   5.973   0.511   5.962  0.0629 -0.5240  0.2522
 8949TIP3    H148262   6.054   0.561   5.952 -0.1964  0.2569  1.7204
 8949TIP3    H248263   5.931   0.514   5.876  0.6738  0.7149 -0.0206
 8950TIP3   OH248264   1.917   4.084   4.949  0.3345 -0.1051 -0.5372
 8950TIP3    H148265   1.879   4.002   4.919 -0.7694 -0.0998  0.7420
 8950TIP3    H248266   1.971   4.060   5.024  2.3478 -0.0094 -1.8895
 8951TIP3   OH248267   3.435   1.634  15.314 -0.0220 -0.0510 -0.1019
 8951TIP3    H148268   3.380   1.695  15.265 -0.0318  0.8114  0.9585
 8951TIP3    H248269   3.416   1.652  15.406 -0.6649 -2.2424  0.2604
 8952TIP3   OH248270   1.028   2.897  12.324 -0.0708  0.4069  0.2410
 8952TIP3    H148271   1.028   2.858  12.237  0.6127 -0.2693  0.5323
 8952TIP3    H248272   1.046   2.990  12.309  1.9066 -0.0061 -0.2334
 8953TIP3   OH248273   5.417   2.111   5.516 -0.0725 -0.2503 -0.1331
 8953TIP3    H148274   5.445   2.194   5.479 -0.6991  0.5671  1.1374
 8953TIP3    H248275   5.431   2.121   5.611 -1.3653 -1.0980  0.1759
 8954TIP3   OH248276   1.672   5.739   5.328 -0.6497 -0.0245  0.5585
 8954TIP3    H148277   1.730   5.711   5.257 -1.5133  1.4898 -0.8180
 8954TIP3    H248278   1.731   5.774   5.395  0.0942  0.9853 -0.5787
 8955TIP3   OH248279   1.404   5.776  16.080  0.3105 -0.4949 -0.0396
 8955TIP3    H148280   1.484   5.790  16.029  0.8115  0.3685  0.9372
 8955TIP3    H248281   1.414   5.833  16.156 -2.1167  1.1385 -0.8460
 8956TIP3   OH248282   4.959   5.833  15.755 -0.2081 -0.1296  0.7882
 8956TIP3    H148283   4.863   5.831  15.755 -0.2537 -0.2957  3.1211
 8956TIP3    H248284   4.984   5.759  15.700 -1.3454  1.0988 -1.5437
 8957TIP3   OH248285   4.838   2.370  15.788 -0.0307 -0.4817 -0.1851
 8957TIP3    H148286   4.898   2.350  15.715  0.3030 -1.2295  0.2752
 8957TIP3    H248287   4.757   2.398  15.745 -0.5219 -2.7818 -0.9376
 8958TIP3   OH248288   0.044   6.276  11.763 -0.5382 -0.1055 -0.1123
 8958TIP3    H148289  -0.005   6.196  11.743  1.4903 -1.8382  1.3833
 8958TIP3    H248290   0.115   6.277  11.700  0.0423 -0.0740  0.5273
 8959TIP3   OH248291   0.469   4.027   0.048 -0.0627  0.2177  0.4510
 8959TIP3    H148292   0.553   4.003   0.010  0.6423  0.6506  1.6805
 8959TIP3    H248293   0.426   3.943   0.068 -0.5067 -0.0158 -1.3605
 8960TIP3   OH248294   5.511   2.444  13.189 -0.5037 -0.3934 -0.0519
 8960TIP3    H148295   5.561   2.393  13.125  0.5429  0.2303  0.2409
 8960TIP3    H248296   5.453   2.381  13.230  0.8352 -1.3869  0.3770
 8961TIP3   OH248297   5.478   3.187   3.895 -0.2783 -0.0599  0.1103
 8961TIP3    H148298   5.566   3.183   3.858 -0.9226  1.6496 -1.7879
 8961TIP3    H248299   5.479   3.265   3.951 -1.0666  1.1590 -1.4875
 8962TIP3   OH248300   1.888   4.492   2.989  0.1393  0.2378 -0.1744
 8962TIP3    H148301   1.973   4.517   3.026 -0.2220  2.1351 -0.5301
 8962TIP3    H248302   1.824   4.525   3.051 -0.3773  0.7022 -0.9258
 8963TIP3   OH248303   3.401   4.382   3.777 -0.1978  0.3927 -0.5872
 8963TIP3    H148304   3.442   4.461   3.742 -1.4366  1.0906 -0.5018
 8963TIP3    H248305   3.318   4.375   3.730 -0.4965 -0.3705  0.0338
 8964TIP3   OH248306   3.348   6.673  16.305 -0.9491  0.2553  0.3869
 8964TIP3    H148307   3.287   6.641  16.371  1.3459 -1.2908  1.9012
 8964TIP3    H248308   3.326   6.765  16.295 -1.2329  0.6586  3.5956
 8965TIP3   OH248309   6.597   1.377   2.140  0.3365 -0.4218 -0.3605
 8965TIP3    H148310   6.648   1.302   2.107  0.0997 -1.0338  0.6078
 8965TIP3    H248311   6.636   1.453   2.097  0.5998 -1.0991 -1.3535
 8966TIP3   OH248312   0.264   5.444  12.703  0.0512  0.5489  0.1844
 8966TIP3    H148313   0.328   5.379  12.673 -0.0457  0.0505  1.0078
 8966TIP3    H248314   0.299   5.475  12.786  0.2671  1.8208 -0.3620
 8967TIP3   OH248315   5.018   3.848   1.853  0.1854  0.0027 -0.1315
 8967TIP3    H148316   5.085   3.807   1.797  1.2819 -0.0205  1.1406
 8967TIP3    H248317   4.936   3.811   1.822  0.7605 -0.1131 -1.6304
 8968TIP3   OH248318   4.614   0.267  12.542 -0.2975 -0.0446 -0.7706
 8968TIP3    H148319   4.598   0.347  12.591  0.3735 -0.5708  0.3628
 8968TIP3    H248320   4.528   0.228  12.529 -0.5728  0.5874 -0.8627
 8969TIP3   OH248321   4.720   6.574   1.581 -1.0861  0.3010 -0.3423
 8969TIP3    H148322   4.674   6.608   1.658  2.7022  0.5044  2.0602
 8969TIP3    H248323   4.692   6.483   1.575 -0.8277  0.0175  1.8634
 8970TIP3   OH248324   2.869   4.390   0.525 -0.7069  0.0948  0.9050
 8970TIP3    H148325   2.795   4.354   0.574 -2.0275  1.2289 -0.1767
 8970TIP3    H248326   2.836   4.471   0.487  0.8856  0.2783 -0.2024
 8971TIP3   OH248327   3.610   5.491   5.338 -0.1090 -0.0276  0.1281
 8971TIP3    H148328   3.691   5.517   5.294 -0.6243 -0.0170 -0.8325
 8971TIP3    H248329   3.588   5.565   5.393 -1.0502  1.2480 -1.8670
 8972TIP3   OH248330   3.871   6.112   0.344 -0.7858 -0.1092 -0.0006
 8972TIP3    H148331   3.923   6.185   0.310  0.0002 -0.7521 -0.2187
 8972TIP3    H248332   3.933   6.039   0.347 -1.6085 -0.8106  0.0430
 8973TIP3   OH248333   3.399   5.842  12.246  0.6458 -0.1779 -0.3092
 8973TIP3    H148334   3.461   5.840  12.173  1.6813 -0.5415  0.5369
 8973TIP3    H248335   3.454   5.861  12.323 -0.5296  0.9892  0.2693
 8974TIP3   OH248336   3.606   3.837   3.922  0.5836  0.0926 -0.0418
 8974TIP3    H148337   3.620   3.788   3.841 -0.0547  0.1769 -0.2105
 8974TIP3    H248338   3.674   3.904   3.921  0.4169  0.2622 -0.6458
 8975TIP3   OH248339   0.483   1.847   1.617  0.1335  0.2702  0.3604
 8975TIP3    H148340   0.488   1.877   1.526  1.0280 -1.7932 -0.3191
 8975TIP3    H248341   0.488   1.928   1.669  0.5237  1.4263 -1.3904
 8976TIP3   OH248342   1.075   6.653  15.947 -0.0248 -0.1552  0.0512
 8976TIP3    H148343   1.072   6.724  15.882 -0.1526 -0.2283 -0.0253
 8976TIP3    H248344   1.002   6.596  15.922 -0.2168 -0.0613  0.4014
 8977TIP3   OH248345   0.016   6.714   0.029  0.1349 -0.1736 -0.0527
 8977TIP3    H148346   0.082   6.648   0.050  0.3967  0.0818 -0.0599
 8977TIP3    H248347  -0.065   6.680   0.068  0.5182  0.0802  1.0021
 8978TIP3   OH248348   6.722   0.135   2.537  0.0752  0.4572 -0.2522
 8978TIP3    H148349   6.642   0.083   2.544  1.2798 -1.4743 -0.1899
 8978TIP3    H248350   6.702   0.200   2.469 -1.3603 -0.3352 -0.6253
 8979TIP3   OH248351   2.869   4.518   2.350  0.8610  0.2698  0.1559
 8979TIP3    H148352   2.874   4.596   2.404 -0.5001  0.1667  0.4865
 8979TIP3    H248353   2.777   4.514   2.323  0.5497 -1.9282  1.2815
 8980TIP3   OH248354   2.032   5.374  17.133  0.1550  0.3156 -0.5065
 8980TIP3    H148355   2.106   5.404  17.186  0.5975 -1.0934 -0.2908
 8980TIP3    H248356   1.955   5.390  17.188  0.5474 -0.5391  0.3159
 8981TIP3   OH248357   5.356   3.862   6.782  0.1666  0.3237 -0.1598
 8981TIP3    H148358   5.322   3.951   6.797 -0.9734 -0.2875  1.0256
 8981TIP3    H248359   5.291   3.804   6.821  0.4215 -1.1145 -1.7356
 8982TIP3   OH248360   3.447   1.016   2.982 -0.0368  0.6217  0.4402
 8982TIP3    H148361   3.463   0.939   3.036  0.7537 -0.4245 -1.2038
 8982TIP3    H248362   3.355   1.009   2.958  0.4115 -0.7725 -1.0452
 8983TIP3   OH248363   5.614   5.050   1.288 -0.0411  0.4239  0.3699
 8983TIP3    H148364   5.695   5.067   1.240  0.3260  1.3586  1.3100
 8983TIP3    H248365   5.631   5.080   1.377 -1.6686  1.3472  0.4111
 8984TIP3   OH248366   0.054   0.341  14.360 -0.7633  0.3663  0.1312
 8984TIP3    H148367   0.135   0.386  14.339 -0.1612 -1.3524 -1.4672
 8984TIP3    H248368   0.045   0.350  14.455  1.9262 -0.3621  0.5321
 8985TIP3   OH248369   0.081   0.478   1.593 -0.2789 -0.1054  0.5164
 8985TIP3    H148370  -0.003   0.507   1.629 -1.3131 -2.3211  0.0386
 8985TIP3    H248371   0.086   0.520   1.508 -2.0736 -1.7162 -0.4618
 8986TIP3   OH248372   4.920   2.469   0.531  0.1344 -0.7553  0.4246
 8986TIP3    H148373   4.978   2.497   0.601  0.2255  0.6375 -0.1917
 8986TIP3    H248374   4.832   2.482   0.566  0.1756  0.3663  0.1283
 8987TIP3   OH248375   3.924   5.582   4.048  0.2000 -0.0849  0.2118
 8987TIP3    H148376   3.858   5.647   4.073  1.2172  1.0330  0.1344
 8987TIP3    H248377   3.934   5.593   3.953  1.7836  1.0893  0.4657
 8988TIP3   OH248378   1.262   1.545  13.295  0.2531  0.3584 -0.3919
 8988TIP3    H148379   1.231   1.636  13.294  0.9295  0.6006 -0.1583
 8988TIP3    H248380   1.347   1.550  13.339 -0.2109 -0.5586  0.6396
 8989TIP3   OH248381   0.942   1.173  12.575  0.2534 -0.1540  0.2341
 8989TIP3    H148382   0.915   1.152  12.665 -0.0054  2.2421  0.7862
 8989TIP3    H248383   0.900   1.105  12.522 -1.1028 -0.6011  1.7550
 8990TIP3   OH248384   5.703   5.505   4.851 -0.4020  0.5667 -0.0318
 8990TIP3    H148385   5.677   5.453   4.927 -2.5516  3.9051  1.7531
 8990TIP3    H248386   5.797   5.518   4.861 -0.0709 -1.5931  0.2351
 8991TIP3   OH248387   0.880   4.270  12.380 -0.6127  0.4531  0.2232
 8991TIP3    H148388   0.930   4.286  12.300 -1.0864  0.7104 -0.0192
 8991TIP3    H248389   0.831   4.190  12.362 -0.0552  0.0255  0.5768
 8992TIP3   OH248390   1.225   2.843   4.272  0.2285 -0.3396  0.2826
 8992TIP3    H148391   1.135   2.831   4.303  0.5130 -1.8765  0.5473
 8992TIP3    H248392   1.219   2.917   4.211 -1.1231 -0.1322  0.6358
 8993TIP3   OH248393   2.710   4.747   1.822  0.1987  0.2584 -0.2248
 8993TIP3    H148394   2.801   4.761   1.849 -0.1563 -0.4345  1.4548
 8993TIP3    H248395   2.665   4.828   1.847  0.1419  0.1753 -0.0592
 8994TIP3   OH248396   4.110   3.634   4.139 -0.5678 -0.2749  0.0592
 8994TIP3    H148397   4.168   3.560   4.120  3.5700  2.8109 -0.6619
 8994TIP3    H248398   4.117   3.646   4.233  2.3197  1.5675 -0.2592
 8995TIP3   OH248399   0.341   3.159   2.114 -0.2042 -0.7906  0.1022
 8995TIP3    H148400   0.316   3.235   2.167 -0.3752 -0.0977 -0.9351
 8995TIP3    H248401   0.289   3.169   2.033  0.1968 -1.7057 -0.2742
 8996TIP3   OH248402   0.183   0.952   3.551  0.1054 -0.1279 -0.0353
 8996TIP3    H148403   0.171   0.951   3.645  0.1452 -0.1940 -0.0308
 8996TIP3    H248404   0.196   0.860   3.527  0.6318 -0.0591 -0.0313
 8997TIP3   OH248405   3.876   6.285  14.556 -0.0035 -0.3111 -0.6485
 8997TIP3    H148406   3.895   6.358  14.615 -0.8942 -0.1985 -0.4876
 8997TIP3    H248407   3.942   6.293  14.486  1.1156 -0.4968  0.3530
 8998TIP3   OH248408   4.088   1.444  15.816 -0.1237  0.2929 -0.0996
 8998TIP3    H148409   4.171   1.452  15.862  0.5851 -0.8201 -1.1341
 8998TIP3    H248410   4.041   1.526  15.836  1.1351  0.8601  0.6277
 8999TIP3   OH248411   3.578   6.044  12.876  0.7508 -0.4734  0.3261
 8999TIP3    H148412   3.552   6.073  12.788 -0.4342 -0.7214  0.5774
 8999TIP3    H248413   3.503   6.066  12.932  1.0170 -1.3674  1.0608
 9000TIP3   OH248414   6.486   5.210  13.567 -0.0055 -0.7581 -0.7072
 9000TIP3    H148415   6.419   5.277  13.581  0.1970 -0.5986 -0.4752
 9000TIP3    H248416   6.554   5.231  13.631  0.7140 -0.3370 -1.5966
 9001TIP3   OH248417   2.155   5.208  16.633 -0.0266 -0.3972 -0.3509
 9001TIP3    H148418   2.116   5.265  16.700  1.7583  2.1933 -1.3465
 9001TIP3    H248419   2.094   5.213  16.560 -1.1884 -1.9656  0.4565
 9002TIP3   OH248420   1.595   6.596   3.082 -0.5784 -0.8603 -0.0407
 9002TIP3    H148421   1.613   6.530   3.014 -0.7503  0.0452 -0.9949
 9002TIP3    H248422   1.504   6.620   3.069 -0.1491  0.5716 -0.6453
 9003TIP3   OH248423   4.413   5.840  16.478 -0.2240  0.1624  0.3435
 9003TIP3    H148424   4.505   5.846  16.502 -0.2001  0.2062  0.2407
 9003TIP3    H248425   4.376   5.776  16.539  0.1945 -1.0242 -0.6113
 9004TIP3   OH248426   2.114   4.644   5.167 -0.5735  0.0372  0.5030
 9004TIP3    H148427   2.082   4.569   5.218  1.3416 -1.1085  0.0982
 9004TIP3    H248428   2.116   4.612   5.077  1.9381 -0.0809  0.5427
 9005TIP3   OH248429   2.059   1.857   3.830  0.5745 -0.2469 -0.1751
 9005TIP3    H148430   2.080   1.950   3.826 -0.5759  0.2495  3.0945
 9005TIP3    H248431   2.145   1.814   3.838  0.9902  0.9403  2.7474
 9006TIP3   OH248432   5.348   5.001  16.491 -0.4943 -0.3295 -0.7480
 9006TIP3    H148433   5.440   5.019  16.473  0.1679 -1.9864  0.7215
 9006TIP3    H248434   5.341   5.001  16.586 -2.3231  1.0797 -0.8272
 9007TIP3   OH248435   0.072   5.932  15.428 -0.3645  0.0382 -0.4224
 9007TIP3    H148436   0.149   5.984  15.408 -0.1897  0.2320  0.6668
 9007TIP3    H248437   0.091   5.893  15.514 -0.6578 -1.5119 -1.0293
 9008TIP3   OH248438   1.977   5.515   2.824  0.0070 -0.5804  0.3438
 9008TIP3    H148439   1.968   5.570   2.746  0.8347 -0.1446  0.5460
 9008TIP3    H248440   1.979   5.425   2.790 -3.1886 -0.6770  0.1435
 9009TIP3   OH248441   1.390   5.317   0.402 -0.2416  0.0584  0.2906
 9009TIP3    H148442   1.428   5.381   0.343 -0.3378 -0.4737 -0.3688
 9009TIP3    H248443   1.394   5.358   0.488  3.8600 -0.7665  0.7074
 9010TIP3   OH248444   4.207   5.459   1.572 -0.3911 -0.4223 -0.0490
 9010TIP3    H148445   4.288   5.417   1.544  0.6884 -0.7594  3.1487
 9010TIP3    H248446   4.235   5.545   1.604 -1.6137  0.2082 -0.6162
 9011TIP3   OH248447   3.382   0.384   2.621 -0.0006  0.6249 -0.1591
 9011TIP3    H148448   3.441   0.312   2.644 -0.8869 -0.1887 -0.3717
 9011TIP3    H248449   3.382   0.386   2.526 -0.3152  0.6152 -0.1612
 9012TIP3   OH248450   3.782   4.801   0.409 -0.2077  0.1713 -0.0114
 9012TIP3    H148451   3.699   4.772   0.371 -1.0630  1.5036  0.7738
 9012TIP3    H248452   3.805   4.881   0.361 -0.2919  0.7791  0.9371
 9013TIP3   OH248453   5.499   0.682   3.525 -0.1667  0.0705 -0.2736
 9013TIP3    H148454   5.461   0.617   3.467  1.1866  0.6302 -1.8839
 9013TIP3    H248455   5.594   0.669   3.517  0.0849  1.0504  0.7826
 9014TIP3   OH248456   3.441   5.279   7.148 -0.9127 -0.2495 -0.4135
 9014TIP3    H148457   3.484   5.248   7.069 -0.7315 -0.0522 -0.3948
 9014TIP3    H248458   3.444   5.375   7.141  2.7504  0.0046  1.6728
 9015TIP3   OH248459   0.174   1.744   1.478 -0.4088 -0.7571 -0.1670
 9015TIP3    H148460   0.228   1.789   1.543 -0.7577 -0.7848  0.1434
 9015TIP3    H248461   0.131   1.815   1.429 -1.6182 -0.7355  0.8725
 9016TIP3   OH248462   1.453   2.309  15.687  0.6991  0.2496  0.0293
 9016TIP3    H148463   1.546   2.290  15.686  0.4479 -1.3179  1.3630
 9016TIP3    H248464   1.432   2.319  15.780 -0.4397  0.6451 -0.2559
 9017TIP3   OH248465   4.172   1.912   0.113  0.2318  0.1915  0.3679
 9017TIP3    H148466   4.203   1.990   0.158  0.7108  0.2253 -0.0222
 9017TIP3    H248467   4.164   1.938   0.021 -1.0604  0.2226  0.4649
 9018TIP3   OH248468   2.798   2.737  16.731  0.0346 -0.0089  0.9501
 9018TIP3    H148469   2.721   2.755  16.678  0.0763 -2.6527 -0.1526
 9018TIP3    H248470   2.870   2.781  16.685 -0.4714  0.6450  0.7775
 9019TIP3   OH248471   3.014   4.839  16.350  0.1904 -0.1841 -0.2389
 9019TIP3    H148472   3.015   4.744  16.350 -0.8653 -0.2373 -1.7652
 9019TIP3    H248473   2.928   4.862  16.385 -0.9049  0.0663 -2.8553
 9020TIP3   OH248474   5.131   4.295  17.022  0.0512 -0.3060 -0.2876
 9020TIP3    H148475   5.122   4.386  16.993 -1.8234 -0.1911  0.5360
 9020TIP3    H248476   5.048   4.275  17.064  1.7429 -1.2228  2.9103
 9021TIP3   OH248477   1.967   3.060  10.737 -0.6379  0.5800  0.0023
 9021TIP3    H148478   1.887   3.114  10.738 -1.2409 -0.2304 -1.4309
 9021TIP3    H248479   1.934   2.970  10.739  0.1231  0.1848 -2.4705
 9022TIP3   OH248480   2.943   6.174   0.049 -0.2811  0.0379 -0.1771
 9022TIP3    H148481   2.914   6.216   0.130 -0.7238 -0.9861  0.2133
 9022TIP3    H248482   3.008   6.233   0.013 -0.4615  0.7621  0.6614
 9023TIP3   OH248483   1.842   1.484  16.900 -0.1693  0.0178 -0.2108
 9023TIP3    H148484   1.753   1.455  16.878  0.6044 -1.9599 -0.9894
 9023TIP3    H248485   1.887   1.486  16.815  0.5046  1.2336  0.1485
 9024TIP3   OH248486   1.605   0.470   3.283  0.1803 -0.3757 -0.6246
 9024TIP3    H148487   1.523   0.422   3.280 -0.6890  0.8415  1.8096
 9024TIP3    H248488   1.594   0.541   3.219 -0.2098 -0.8405 -1.0791
 9025TIP3   OH248489   3.310   2.054   2.905 -0.6785  0.1649  0.4417
 9025TIP3    H148490   3.221   2.024   2.924 -1.2244  0.4266 -1.4929
 9025TIP3    H248491   3.330   2.015   2.820  2.1866 -2.2049  2.0144
 9026TIP3   OH248492   1.291   4.217   4.307  0.1501  0.3066 -0.1451
 9026TIP3    H148493   1.271   4.123   4.311  1.2574 -0.0176 -1.3514
 9026TIP3    H248494   1.250   4.246   4.225 -1.0534  1.1183  0.7249
 9027TIP3   OH248495   2.247   3.495  13.489  0.1678  0.1755  0.3591
 9027TIP3    H148496   2.164   3.455  13.462 -0.2996 -0.2430  2.2468
 9027TIP3    H248497   2.283   3.532  13.409 -0.7668 -1.5619 -0.9499
 9028TIP3   OH248498   3.334   0.075   5.844  0.2961 -0.0306 -0.8444
 9028TIP3    H148499   3.300   0.019   5.774  1.2070 -2.9903  0.9083
 9028TIP3    H248500   3.265   0.078   5.909  0.8637 -0.5100 -0.2064
 9029TIP3   OH248501   3.290   5.378   5.075  0.2261 -0.1159 -0.2947
 9029TIP3    H148502   3.370   5.342   5.111  0.5109  0.4960 -0.2977
 9029TIP3    H248503   3.254   5.308   5.021  1.1773 -0.1225 -0.9368
 9030TIP3   OH248504   1.334   3.906   3.965  0.7721 -0.2195  0.2744
 9030TIP3    H148505   1.270   3.950   4.022  2.1045  0.6336  1.1723
 9030TIP3    H248506   1.320   3.946   3.879  0.4811  0.3763  0.5920
 9031TIP3   OH248507   3.815   2.775  14.385 -1.1039 -0.1839 -0.7269
 9031TIP3    H148508   3.806   2.680  14.389  1.4358 -0.5102 -1.5310
 9031TIP3    H248509   3.751   2.802  14.319 -1.7737 -1.3105 -0.5689
 9032TIP3   OH248510   0.923   1.919   2.087 -0.2032 -0.4515 -0.1387
 9032TIP3    H148511   0.829   1.917   2.068 -0.3004 -0.4968  0.3388
 9032TIP3    H248512   0.942   1.833   2.125  0.0758 -0.5201 -0.4274
 9033TIP3   OH248513   5.760   1.546   6.417 -0.3397 -0.3218  0.6206
 9033TIP3    H148514   5.842   1.538   6.466 -0.3286  0.7462  0.8054
 9033TIP3    H248515   5.719   1.625   6.452  0.9749  2.1739 -2.8987
 9034TIP3   OH248516   2.951   0.536   2.937 -0.1294  0.0379 -0.1932
 9034TIP3    H148517   2.907   0.500   2.861  1.0206 -3.6416  0.6567
 9034TIP3    H248518   3.032   0.485   2.945  0.5081  1.2461  2.6448
 9035TIP3   OH248519   4.049   6.229  15.770 -0.1497  0.0272 -0.2306
 9035TIP3    H148520   4.076   6.319  15.751  0.0119 -0.2789 -1.5210
 9035TIP3    H248521   4.104   6.202  15.844 -1.1531  1.4284  1.1061
 9036TIP3   OH248522   4.602   3.812   3.833  0.5905  0.2946  0.7286
 9036TIP3    H148523   4.613   3.764   3.915 -1.1452  0.3967  1.0582
 9036TIP3    H248524   4.524   3.865   3.846  1.0046  1.2812 -0.5485
 9037TIP3   OH248525   1.940   3.755   2.118 -0.3109 -0.2402 -0.0636
 9037TIP3    H148526   1.967   3.682   2.063  0.9998 -0.9893  1.4799
 9037TIP3    H248527   1.916   3.715   2.201  0.8209  1.0900  0.9463
 9038TIP3   OH248528   1.839   6.469  14.609  0.0831 -0.0555 -0.2809
 9038TIP3    H148529   1.864   6.425  14.690 -1.1391  1.7766  1.1422
 9038TIP3    H248530   1.780   6.408  14.565 -0.4586 -0.4337  0.9538
 9039TIP3   OH248531   2.101   3.478   1.402  0.1777 -0.0906  0.0701
 9039TIP3    H148532   2.007   3.485   1.389  0.3529 -0.8338 -1.9153
 9039TIP3    H248533   2.136   3.452   1.316  2.4050  2.1244  0.1681
 9040TIP3   OH248534   4.122   0.102  14.603 -0.1010 -0.0163  0.1203
 9040TIP3    H148535   4.167   0.143  14.529 -1.8689 -0.8375 -1.4832
 9040TIP3    H248536   4.155   0.012  14.602  0.2254  0.0954  0.6491
 9041TIP3   OH248537   1.077   4.880  11.601 -0.1900 -0.1450  0.6655
 9041TIP3    H148538   1.168   4.897  11.625 -0.4034  0.2907  1.1975
 9041TIP3    H248539   1.029   4.957  11.633 -0.6125  0.0691 -0.4424
 9042TIP3   OH248540   0.254   2.238   6.254 -0.4510  0.2279  0.4001
 9042TIP3    H148541   0.247   2.217   6.347 -1.0026  2.2104  0.8353
 9042TIP3    H248542   0.332   2.293   6.247 -1.1703  1.2040 -0.0887
 9043TIP3   OH248543   4.404   5.406  12.937  0.4720 -0.3802  0.4990
 9043TIP3    H148544   4.315   5.436  12.917  0.7947 -0.2233 -0.7904
 9043TIP3    H248545   4.443   5.478  12.986  0.4146  0.2608 -0.3698
 9044TIP3   OH248546   1.196   1.217  12.654  0.3298  0.1096  0.7688
 9044TIP3    H148547   1.128   1.159  12.621  1.6178 -0.5101 -0.9399
 9044TIP3    H248548   1.188   1.210  12.750 -1.3930 -0.6283  0.6125
 9045TIP3   OH248549   5.277   4.717  13.867 -0.4849  0.0648  0.0820
 9045TIP3    H148550   5.255   4.808  13.887  1.5199  1.0162 -1.5978
 9045TIP3    H248551   5.280   4.714  13.772  0.2575 -1.5501  0.1275
 9046TIP3   OH248552   3.562   6.366  11.305 -0.1740  0.1940  0.9416
 9046TIP3    H148553   3.604   6.287  11.271  1.4329  0.4785  2.1332
 9046TIP3    H248554   3.553   6.424  11.229  1.5776  0.0812  0.6094
 9047TIP3   OH248555   6.403   6.420  12.073 -0.3128  0.5453 -0.6588
 9047TIP3    H148556   6.468   6.417  12.003  0.1401  0.7371 -0.2555
 9047TIP3    H248557   6.425   6.499  12.123  0.5490 -0.5519  0.7919
 9048TIP3   OH248558   5.004   1.349  16.901 -0.3128 -0.2548  0.2002
 9048TIP3    H148559   5.097   1.372  16.903 -0.3338 -0.1618  0.1349
 9048TIP3    H248560   4.970   1.396  16.825 -0.4219 -0.2576  0.2480
 9049TIP3   OH248561   6.139   3.198  16.101  0.3709 -0.2106 -0.0111
 9049TIP3    H148562   6.147   3.261  16.029 -1.1145 -1.9673 -1.8433
 9049TIP3    H248563   6.225   3.155  16.104  0.0550 -1.0896 -1.7949
 9050TIP3   OH248564   0.488   3.466  13.914 -0.5329 -0.5478 -0.0760
 9050TIP3    H148565   0.460   3.522  13.841 -0.2993 -1.5634 -0.9747
 9050TIP3    H248566   0.584   3.475  13.915 -0.6038  0.1950  0.7260
 9051TIP3   OH248567   4.049   5.734   1.301  0.6305  0.0749 -0.3452
 9051TIP3    H148568   4.023   5.685   1.223  0.9740 -0.2234 -0.2788
 9051TIP3    H248569   4.144   5.737   1.297  0.6097  0.7581 -0.3516
 9052TIP3   OH248570   3.111   4.404   2.553  0.7722  0.8125 -0.0161
 9052TIP3    H148571   3.155   4.362   2.626  0.3218  0.3891  0.0153
 9052TIP3    H248572   3.074   4.332   2.501 -2.9044  1.1185  1.8321
 9053TIP3   OH248573   6.751   5.186   1.276 -0.3019 -0.2532  0.8830
 9053TIP3    H148574   6.693   5.169   1.350 -0.9757 -1.6346  0.0830
 9053TIP3    H248575   6.814   5.114   1.278 -1.4829 -1.4456 -0.9312
 9054TIP3   OH248576   4.900   4.055   1.157  0.0181  0.2169  0.6098
 9054TIP3    H148577   4.889   4.150   1.149 -1.0834  0.2868  2.3074
 9054TIP3    H248578   4.820   4.018   1.120  0.5839 -0.0820 -0.3379
 9055TIP3   OH248579   4.036   5.438   6.000  0.3436 -0.4444  0.3149
 9055TIP3    H148580   3.954   5.479   5.973  0.8313  1.5145  1.6024
 9055TIP3    H248581   4.065   5.389   5.923 -0.5269  1.2749 -1.1690
 9056TIP3   OH248582   6.384   0.875  14.769 -0.1138 -0.1303  0.7289
 9056TIP3    H148583   6.317   0.937  14.797  0.2166 -0.5671  2.6136
 9056TIP3    H248584   6.441   0.925  14.711 -0.2119  1.1406  1.7079
 9057TIP3   OH248585   5.467   5.789  11.479  0.0915 -0.0190  0.1715
 9057TIP3    H148586   5.520   5.850  11.428  1.0347 -0.1233  0.9915
 9057TIP3    H248587   5.436   5.725  11.415  2.9232 -1.3378 -0.0501
 9058TIP3   OH248588   4.811   5.434  14.415  0.2277 -0.2717  0.1465
 9058TIP3    H148589   4.891   5.484  14.400 -0.1979  0.3497 -0.1044
 9058TIP3    H248590   4.740   5.492  14.386 -0.2537 -1.1836 -0.5719
 9059TIP3   OH248591   4.798   2.819   3.588 -0.0608  0.3498  0.0104
 9059TIP3    H148592   4.799   2.801   3.683  1.7457 -0.0669 -0.0349
 9059TIP3    H248593   4.761   2.907   3.581 -1.7365 -0.2325  0.9474
 9060TIP3   OH248594   4.419   5.278   3.819 -0.2553  0.6832 -0.4386
 9060TIP3    H148595   4.378   5.203   3.863  0.6840  0.1805 -0.3920
 9060TIP3    H248596   4.351   5.345   3.818 -1.0208 -0.0730 -0.2245
 9061TIP3   OH248597   2.986   6.665  10.658  0.3459 -0.3448  0.2721
 9061TIP3    H148598   3.055   6.599  10.668  2.3681  1.4544 -1.1138
 9061TIP3    H248599   3.009   6.733  10.721 -1.3099 -0.5658  1.1628
 9062TIP3   OH248600   3.711   1.363  16.504  0.0326 -0.5590  0.1732
 9062TIP3    H148601   3.801   1.346  16.478  0.1828 -0.2431  0.4808
 9062TIP3    H248602   3.713   1.366  16.599 -0.4104 -1.1377  0.2104
 9063TIP3   OH248603   3.807   2.506  14.342 -0.3565 -0.0715 -0.3380
 9063TIP3    H148604   3.864   2.435  14.313 -0.7415 -0.4429 -0.2030
 9063TIP3    H248605   3.739   2.511  14.274  1.7112  2.7183 -2.4046
 9064TIP3   OH248606   0.753   5.337   5.497  0.3858  0.1311  0.0716
 9064TIP3    H148607   0.750   5.247   5.464  0.8264 -0.9822  2.7662
 9064TIP3    H248608   0.846   5.355   5.510  0.2806  0.8796 -0.1593
 9065TIP3   OH248609   6.123   1.885   5.907  0.4061 -0.2532  0.1056
 9065TIP3    H148610   6.052   1.949   5.919  0.5254 -0.1644  0.3406
 9065TIP3    H248611   6.203   1.935   5.925  0.6985  0.1979 -2.1676
 9066TIP3   OH248612   0.793   2.535  12.535 -0.0418  0.0193  0.1502
 9066TIP3    H148613   0.745   2.590  12.597  0.7742 -0.1537  0.9459
 9066TIP3    H248614   0.874   2.512  12.580  0.8636  0.4159 -1.2227
 9067TIP3   OH248615   2.039   3.736  15.784 -0.3928  0.3099 -0.1758
 9067TIP3    H148616   2.094   3.674  15.833 -0.7590 -1.1099 -1.4718
 9067TIP3    H248617   2.070   3.729  15.694 -3.2399 -1.2686 -1.1474
 9068TIP3   OH248618   2.459   3.718  12.446  0.3769 -0.5665  0.0173
 9068TIP3    H148619   2.523   3.748  12.381  0.8379 -0.0127  0.7161
 9068TIP3    H248620   2.453   3.790  12.509  0.1972 -1.2361  0.7851
 9069TIP3   OH248621   1.812   3.187   3.363 -0.1281 -0.0914 -0.0093
 9069TIP3    H148622   1.835   3.111   3.310  1.8538  0.7343 -0.4265
 9069TIP3    H248623   1.756   3.152   3.433 -1.2626 -1.5012 -1.5568
 9070TIP3   OH248624   4.641   6.681  15.053 -0.2725 -0.8529  0.1408
 9070TIP3    H148625   4.695   6.758  15.034 -1.6205 -0.2504 -1.5218
 9070TIP3    H248626   4.701   6.607  15.043  0.7109 -0.1182  0.3680
 9071TIP3   OH248627   3.611   5.587   1.437  0.0220 -0.2103 -0.8143
 9071TIP3    H148628   3.626   5.530   1.361  0.5025  0.8470 -1.5414
 9071TIP3    H248629   3.652   5.541   1.510  0.6162 -0.6909 -1.4330
 9072TIP3   OH248630   2.588   4.080   2.795 -0.1020  0.7840  0.3178
 9072TIP3    H148631   2.550   4.060   2.880 -0.8607  0.0883 -0.1835
 9072TIP3    H248632   2.632   3.999   2.768 -2.2547  0.0437 -1.2109
 9073TIP3   OH248633   1.053   2.837   6.024  0.3222 -0.0188  0.4134
 9073TIP3    H148634   1.032   2.851   6.117 -1.0039 -0.9640  0.2846
 9073TIP3    H248635   0.973   2.801   5.987  1.2353 -0.8257 -0.8340
 9074TIP3   OH248636   0.439   1.920   0.111 -0.3981  0.3885  0.2269
 9074TIP3    H148637   0.504   1.954   0.173 -0.9687 -1.4238  1.9489
 9074TIP3    H248638   0.490   1.883   0.040  0.4261 -0.0494  1.0285
 9075TIP3   OH248639   4.976   3.992   2.846 -0.1811  0.2227 -0.5702
 9075TIP3    H148640   4.980   4.032   2.759  1.2957  0.8403 -0.2491
 9075TIP3    H248641   5.066   3.966   2.864 -0.6479 -0.8122  0.3728
 9076TIP3   OH248642   1.689   3.890   3.583  0.1943 -0.2837 -0.4028
 9076TIP3    H148643   1.674   3.797   3.562  0.1139 -0.6065  0.9988
 9076TIP3    H248644   1.776   3.891   3.624 -0.8829 -0.1848  2.0435
 9077TIP3   OH248645   3.059   1.754   2.041 -0.6007 -0.3622  0.1831
 9077TIP3    H148646   3.092   1.814   1.974 -2.7371 -0.1288 -0.7333
 9077TIP3    H248647   3.053   1.669   1.996 -0.1597 -0.6600  0.6791
 9078TIP3   OH248648   1.610   6.049  11.366 -0.1122 -0.6534 -0.1322
 9078TIP3    H148649   1.676   5.980  11.364 -0.1465 -0.7047  0.3434
 9078TIP3    H248650   1.598   6.068  11.459  0.5964  0.6703 -0.2865
 9079TIP3   OH248651   0.830   5.478  14.670  0.1883  0.0442 -0.3567
 9079TIP3    H148652   0.796   5.404  14.619 -1.4263 -1.0580  2.1052
 9079TIP3    H248653   0.815   5.554  14.615 -2.9544 -0.8593 -0.9667
 9080TIP3   OH248654   2.923   3.211   0.729 -0.3722  0.0521 -0.5036
 9080TIP3    H148655   2.920   3.267   0.807  0.3326  0.5840 -0.8533
 9080TIP3    H248656   3.008   3.230   0.689  0.4005 -2.0821 -0.0221
 9081TIP3   OH248657   1.717   4.198   3.119 -0.1003 -0.0413 -0.5675
 9081TIP3    H148658   1.748   4.129   3.178 -1.1275 -0.1785 -0.1624
 9081TIP3    H248659   1.779   4.197   3.046  0.1955 -1.0517 -0.3229
 9082TIP3   OH248660   5.446   0.571   5.835 -0.1220 -0.0712  0.0510
 9082TIP3    H148661   5.444   0.567   5.739 -0.1450 -0.9325  0.0778
 9082TIP3    H248662   5.359   0.601   5.860 -0.0329  0.4141 -0.2011
 9083TIP3   OH248663   0.921   1.246  11.828 -0.1437  0.1905  0.3074
 9083TIP3    H148664   0.896   1.215  11.915  0.9360 -2.0561 -0.1194
 9083TIP3    H248665   0.841   1.239  11.776 -0.2842 -0.4518  0.6022
 9084TIP3   OH248666   5.350   0.027  11.980 -0.7131 -0.2611  0.3507
 9084TIP3    H148667   5.358   0.024  11.884 -0.2078  1.9099  0.2681
 9084TIP3    H248668   5.313  -0.058  12.003  2.0195 -2.1095 -1.4561
 9085TIP3   OH248669   6.539   0.381   0.300  0.5324 -0.4520  0.2569
 9085TIP3    H148670   6.589   0.453   0.338  0.1856  0.9220 -1.6952
 9085TIP3    H248671   6.606   0.320   0.269  0.9177  0.0214  0.1308
 9086TIP3   OH248672   2.791   2.579   4.832 -0.2902  0.7167  0.1240
 9086TIP3    H148673   2.820   2.602   4.744 -0.4007  0.1224 -0.0725
 9086TIP3    H248674   2.813   2.487   4.842 -0.1150  0.8232  0.7885
 9087TIP3   OH248675   6.635   6.584   4.748 -0.0997  0.1163 -0.6701
 9087TIP3    H148676   6.686   6.621   4.676  0.4622  0.9781  0.1469
 9087TIP3    H248677   6.652   6.642   4.822  0.2981 -1.4347  0.4966
 9088TIP3   OH248678   2.768   4.898  14.469  0.0438 -0.1029 -0.6531
 9088TIP3    H148679   2.863   4.900  14.478  0.3901 -1.2758 -3.1506
 9088TIP3    H248680   2.740   4.989  14.484  1.5194  0.2339  0.1950
 9089TIP3   OH248681   3.436   5.207  13.986 -0.1129 -0.1129 -0.2435
 9089TIP3    H148682   3.419   5.173  14.073  1.7210  0.0793  0.2302
 9089TIP3    H248683   3.508   5.269  13.998 -1.4897  1.8565 -1.5094
 9090TIP3   OH248684   1.258   4.946  14.963  0.0898  0.2776  0.2619
 9090TIP3    H148685   1.216   5.014  15.017 -0.5810 -1.1073  1.5819
 9090TIP3    H248686   1.259   4.869  15.019  1.9150 -0.5086 -0.7697
 9091TIP3   OH248687   3.890   4.778  13.910  0.0214  0.2085 -0.0635
 9091TIP3    H148688   3.968   4.723  13.898  0.6835  0.6254  1.9800
 9091TIP3    H248689   3.923   4.867  13.901 -0.8355  0.3606 -2.1961
 9092TIP3   OH248690   4.609   0.979  12.064 -0.4155 -0.1453  0.2119
 9092TIP3    H148691   4.575   1.068  12.052  0.1412 -0.1192 -1.3407
 9092TIP3    H248692   4.556   0.925  12.004 -0.4744 -0.7999  0.8410
 9093TIP3   OH248693   6.480   2.721   3.038  0.3481  0.0001 -0.1661
 9093TIP3    H148694   6.425   2.671   2.978 -0.5962  0.8952 -0.0626
 9093TIP3    H248695   6.520   2.654   3.094 -1.4976 -0.6075  0.4837
 9094TIP3   OH248696   2.714   6.524  15.409 -0.3561  0.0747 -0.3586
 9094TIP3    H148697   2.756   6.451  15.455 -0.1272 -0.4901 -1.4401
 9094TIP3    H248698   2.773   6.598  15.423 -1.2118  0.4275  1.8303
 9095TIP3   OH248699   3.068   1.046  12.553  0.1059 -0.4143 -0.7199
 9095TIP3    H148700   3.068   0.991  12.632  1.2592  0.0542 -0.3780
 9095TIP3    H248701   3.155   1.085  12.551  0.7196 -1.7409 -3.1583
 9096TIP3   OH248702   5.422   6.217   5.909  0.8181  0.5188 -0.1337
 9096TIP3    H148703   5.494   6.278   5.925 -0.1422  1.2256  1.7860
 9096TIP3    H248704   5.431   6.150   5.976  0.7690 -0.4346 -1.0570
 9097TIP3   OH248705   5.976   0.629  16.133 -0.0869 -0.6234 -0.3557
 9097TIP3    H148706   5.976   0.670  16.219  1.3478  0.5830 -0.8907
 9097TIP3    H248707   6.037   0.556  16.142  0.6656 -0.0303 -0.5342
 9098TIP3   OH248708   6.191   6.697   1.836  0.0444  0.0503 -0.3277
 9098TIP3    H148709   6.188   6.642   1.914  1.2484 -0.4537 -0.6178
 9098TIP3    H248710   6.240   6.645   1.772  0.8173  1.2644 -0.7520
 9099TIP3   OH248711   3.396   6.064  15.253 -0.3005  0.1003 -0.1044
 9099TIP3    H148712   3.316   6.037  15.297  0.0969  1.8916  1.8870
 9099TIP3    H248713   3.454   6.092  15.324  2.7647 -2.5946 -1.3033
 9100TIP3   OH248714   2.641   4.202   2.031  0.1745 -0.7286  0.5112
 9100TIP3    H148715   2.591   4.284   2.040 -0.9480 -1.0561 -2.0046
 9100TIP3    H248716   2.730   4.226   2.057 -0.0870  1.3739 -0.2910
 9101TIP3   OH248717   4.237   0.886  16.602 -0.4629  0.1247  0.5619
 9101TIP3    H148718   4.326   0.864  16.629 -0.4113  1.5054  1.6238
 9101TIP3    H248719   4.247   0.962  16.545 -1.0394  1.5711  2.2832
 9102TIP3   OH248720   2.195   0.112  14.074 -0.4210  0.0116  0.6407
 9102TIP3    H148721   2.214   0.201  14.045 -0.8686  0.4505  1.6341
 9102TIP3    H248722   2.281   0.070  14.082 -0.2741 -0.1093 -1.1644
 9103TIP3   OH248723   1.904   0.885   3.593  0.0094  0.1380  0.1284
 9103TIP3    H148724   1.932   0.946   3.661 -2.1823  1.2356  0.1335
 9103TIP3    H248725   1.832   0.836   3.633 -0.6254  0.0658 -1.0715
 9104TIP3   OH248726   2.392   5.650   0.499 -0.2733 -0.2359  0.1737
 9104TIP3    H148727   2.380   5.565   0.541  0.8162 -0.8031 -0.6049
 9104TIP3    H248728   2.455   5.695   0.554 -1.6393  0.5322  1.1819
 9105TIP3   OH248729   2.165   0.931   2.554 -0.3471 -0.1014  0.0226
 9105TIP3    H148730   2.216   0.952   2.632 -1.0925 -0.4404  0.6140
 9105TIP3    H248731   2.216   0.862   2.510  0.0931  0.1185  0.1775
 9106TIP3   OH248732   3.302   3.766  14.499 -0.0589 -0.0170  0.1632
 9106TIP3    H148733   3.233   3.752  14.565  0.8047 -0.6624  0.9598
 9106TIP3    H248734   3.315   3.679  14.461 -0.3848  0.3094 -0.7119
 9107TIP3   OH248735   3.892   3.231   5.071  0.3978  0.1741  0.3646
 9107TIP3    H148736   3.939   3.203   4.992 -1.3208 -0.5423 -0.4466
 9107TIP3    H248737   3.823   3.289   5.039  2.3220  3.5453  1.7844
 9108TIP3   OH248738   4.706   3.507   3.706  0.0477 -0.0478  0.1593
 9108TIP3    H148739   4.717   3.602   3.718  1.0047  0.0385 -1.2054
 9108TIP3    H248740   4.669   3.499   3.618  1.5970 -1.0161 -0.4247
 9109TIP3   OH248741   5.403   3.911   2.010 -0.2417 -0.4903  0.0113
 9109TIP3    H148742   5.377   4.001   1.989  0.1617 -0.1803  0.7884
 9109TIP3    H248743   5.322   3.869   2.040 -0.5363 -0.5421 -0.8311
 9110TIP3   OH248744   3.824   3.068  17.061 -0.3311  0.2227  0.0285
 9110TIP3    H148745   3.805   3.142  17.003  1.2966  0.8596  0.2561
 9110TIP3    H248746   3.896   3.021  17.018 -1.7532 -1.6639 -0.4484
 9111TIP3   OH248747   2.229   0.480  13.608  0.1093  0.1504  0.1110
 9111TIP3    H148748   2.287   0.494  13.683  0.4565 -1.2535  0.1391
 9111TIP3    H248749   2.286   0.491  13.532  0.7398 -2.2184  0.1491
 9112TIP3   OH248750   6.443   3.538  14.968  0.0571  0.6809 -0.3545
 9112TIP3    H148751   6.441   3.624  14.926  1.9963  1.6651  1.3569
 9112TIP3    H248752   6.534   3.509  14.957 -0.3121 -0.6577  0.0280
 9113TIP3   OH248753   3.404   6.453   4.957  0.8071  0.1430 -0.0996
 9113TIP3    H148754   3.405   6.366   4.916 -1.6012 -0.5687  1.1835
 9113TIP3    H248755   3.381   6.512   4.886 -1.1982 -0.7961 -0.3018
 9114TIP3   OH248756   5.710   6.440  13.746  0.1499  0.3307 -0.5738
 9114TIP3    H148757   5.701   6.482  13.661  1.0386  0.3728 -0.6516
 9114TIP3    H248758   5.633   6.470  13.796  0.0445  0.9339 -1.0910
 9115TIP3   OH248759   6.423   3.497  13.740 -0.2525  0.1973  0.6265
 9115TIP3    H148760   6.436   3.442  13.663 -0.0606 -0.0137  0.8065
 9115TIP3    H248761   6.374   3.442  13.801  1.7003 -0.5487  1.6299
 9116TIP3   OH248762   3.542   0.679   2.448  0.3673  0.2459 -0.2220
 9116TIP3    H148763   3.527   0.721   2.363 -0.9030 -1.2996 -0.8294
 9116TIP3    H248764   3.527   0.748   2.512  0.0645  1.1369 -1.2251
 9117TIP3   OH248765   2.786   2.165   6.403 -0.1334 -0.6134 -0.1257
 9117TIP3    H148766   2.752   2.242   6.358 -0.2216 -2.1450 -2.9057
 9117TIP3    H248767   2.713   2.103   6.402  0.3694 -1.2487  0.8423
 9118TIP3   OH248768   2.425   0.262  16.477 -0.0907  0.0055  0.1808
 9118TIP3    H148769   2.415   0.253  16.383 -1.3436  0.1189  0.2866
 9118TIP3    H248770   2.419   0.356  16.493 -0.7363 -0.0759  0.4513
 9119TIP3   OH248771   6.140   2.381  13.134 -0.0001  0.0253  0.1385
 9119TIP3    H148772   6.053   2.417  13.115 -0.0335  0.0135  0.2723
 9119TIP3    H248773   6.200   2.455  13.120 -0.1823  0.4898  1.6128
 9120TIP3   OH248774   0.211   5.081   6.372 -0.2194  0.6149 -0.2190
 9120TIP3    H148775   0.211   5.177   6.374  0.1769  0.6067  0.2101
 9120TIP3    H248776   0.136   5.056   6.427 -0.8072  0.6835 -0.9688
 9121TIP3   OH248777   0.227   1.680  15.313  0.2875 -0.0462  0.2134
 9121TIP3    H148778   0.144   1.723  15.337  0.1642  0.7043 -1.4665
 9121TIP3    H248779   0.218   1.662  15.220  1.2709 -1.7061  0.4157
 9122TIP3   OH248780   3.327   3.327  16.027  0.6940  0.6735  0.1642
 9122TIP3    H148781   3.319   3.416  16.063 -0.9501 -0.4859  2.9892
 9122TIP3    H248782   3.400   3.288  16.074  1.4817  0.4991 -1.1494
 9123TIP3   OH248783   1.220   1.825   2.942  0.1898  0.4137 -0.0875
 9123TIP3    H148784   1.131   1.859   2.937  1.1351  2.9566 -1.1072
 9123TIP3    H248785   1.221   1.772   3.022 -1.9680  1.0542  0.4248
 9124TIP3   OH248786   5.082   2.380  12.634  0.3983 -0.1824  0.4879
 9124TIP3    H148787   5.051   2.344  12.551  0.9548  0.5514 -0.0586
 9124TIP3    H248788   5.153   2.439  12.609  0.8268 -0.2381  1.5257
 9125TIP3   OH248789   2.574   0.368  15.842 -0.8920 -0.3328 -0.4339
 9125TIP3    H148790   2.486   0.330  15.848 -2.0653  2.2471  0.3187
 9125TIP3    H248791   2.630   0.307  15.890 -3.0729 -0.0063  2.8648
 9126TIP3   OH248792   3.500   6.113  13.466 -0.1051 -0.3123  0.2689
 9126TIP3    H148793   3.468   6.203  13.464  0.5784 -0.0476  0.9263
 9126TIP3    H248794   3.551   6.107  13.546 -0.2552 -1.3315  0.3069
 9127TIP3   OH248795   4.693   5.605  11.700 -0.4982 -0.0668 -0.5800
 9127TIP3    H148796   4.782   5.636  11.714 -0.0122 -1.4483 -0.4566
 9127TIP3    H248797   4.689   5.582  11.607 -0.7727  0.1157 -0.6164
 9128TIP3   OH248798   2.121   1.358  16.373 -0.2601  0.2103  0.1140
 9128TIP3    H148799   2.044   1.373  16.428  0.4475  0.2570  1.1272
 9128TIP3    H248800   2.114   1.267  16.346  0.3579 -0.4120  1.9009
 9129TIP3   OH248801   1.235   3.358   3.957 -0.8241  0.5819  0.6887
 9129TIP3    H148802   1.225   3.418   4.031 -1.4966 -0.1506  1.2130
 9129TIP3    H248803   1.167   3.385   3.895 -1.5104  0.0264  1.1761
 9130TIP3   OH248804   5.702   3.318   3.083  0.1814  0.4734  0.0564
 9130TIP3    H148805   5.625   3.341   3.031  0.0012 -1.5278 -0.6593
 9130TIP3    H248806   5.667   3.276   3.161  0.5179 -0.3047 -0.1973
 9131TIP3   OH248807   3.202   2.555  13.758  0.2280  0.7337 -0.4496
 9131TIP3    H148808   3.248   2.484  13.713 -1.0850 -0.4000 -0.0938
 9131TIP3    H248809   3.187   2.520  13.846 -1.0755  1.1526 -0.4881
 9132TIP3   OH248810   4.613   1.101   6.246 -0.0060 -0.3745 -0.2140
 9132TIP3    H148811   4.614   1.167   6.316 -0.9892  0.7822 -1.2459
 9132TIP3    H248812   4.603   1.018   6.292 -1.0240  0.3882  1.0156
 9133TIP3   OH248813   4.507   1.930   4.738 -0.1285 -0.6134 -0.7862
 9133TIP3    H148814   4.426   1.976   4.759  0.6854  1.2021 -1.4093
 9133TIP3    H248815   4.576   1.992   4.760  1.1932 -2.5769  0.8764
 9134TIP3   OH248816   5.586   1.042   0.710 -0.0988  0.5067 -0.7593
 9134TIP3    H148817   5.528   1.098   0.659  1.1851  1.5409 -1.1411
 9134TIP3    H248818   5.564   1.059   0.801 -1.0033  0.1884 -0.9093
 9135TIP3   OH248819   5.510   2.563  14.509 -0.0535  0.1634 -0.4369
 9135TIP3    H148820   5.439   2.586  14.570 -1.5514 -0.3932 -1.8865
 9135TIP3    H248821   5.553   2.488  14.550 -0.3317  0.4676  0.4454
 9136TIP3   OH248822   6.088   5.016   2.499 -0.6330 -0.9583 -1.0872
 9136TIP3    H148823   6.090   4.939   2.444  1.3059 -2.2539  0.6723
 9136TIP3    H248824   6.156   5.002   2.565 -0.6500  1.9451 -0.2725
 9137TIP3   OH248825   1.558   4.646   2.441 -0.2665  0.0587 -0.0347
 9137TIP3    H148826   1.479   4.602   2.409  0.2949 -1.7715  0.9489
 9137TIP3    H248827   1.630   4.603   2.395  0.2139  1.2068 -0.3773
 9138TIP3   OH248828   2.777   5.209   5.267  0.5837 -0.0043  0.2731
 9138TIP3    H148829   2.685   5.189   5.247  0.2179  2.7361 -1.2799
 9138TIP3    H248830   2.782   5.203   5.362 -1.4574  0.5887  0.4712
 9139TIP3   OH248831   3.788   0.134  16.969 -0.3693  0.2634 -0.1502
 9139TIP3    H148832   3.791   0.075  16.893 -2.5390  0.1376 -0.1934
 9139TIP3    H248833   3.706   0.182  16.958  0.3710  1.8366  0.9747
 9140TIP3   OH248834   0.351   3.738   4.236  0.1860  0.1886  0.0208
 9140TIP3    H148835   0.446   3.732   4.223  0.2223 -0.0631  0.3791
 9140TIP3    H248836   0.334   3.684   4.313 -0.0860  1.1589  0.6655
 9141TIP3   OH248837   4.139   1.807  15.619  0.4633 -0.1719 -0.0131
 9141TIP3    H148838   4.107   1.813  15.529 -0.7408 -1.9473  0.2333
 9141TIP3    H248839   4.227   1.770  15.611  1.0472  1.2577 -0.5118
 9142TIP3   OH248840   0.056   0.371   0.080 -0.0446  0.2023  0.0917
 9142TIP3    H148841   0.028   0.298   0.135  0.4106 -0.4368 -0.4942
 9142TIP3    H248842   0.046   0.448   0.135  1.0595 -0.4887  1.3339
 9143TIP3   OH248843   0.783   1.951   0.943  0.0750  0.0294 -0.1785
 9143TIP3    H148844   0.839   1.876   0.921  0.7588  0.7183 -0.8218
 9143TIP3    H248845   0.843   2.024   0.951 -0.4435  0.3112  1.6012
 9144TIP3   OH248846   4.280   0.710   0.002  0.0151 -0.1433 -0.3445
 9144TIP3    H148847   4.371   0.686  -0.015 -0.0671 -1.0659  0.4011
 9144TIP3    H248848   4.285   0.775   0.072  0.0893 -0.7721  0.2561
 9145TIP3   OH248849   4.635   1.707  12.720 -0.3650  0.2524  0.8184
 9145TIP3    H148850   4.627   1.801  12.704  1.0893  0.0140 -1.9663
 9145TIP3    H248851   4.714   1.699  12.773  0.3578  0.5624 -0.1788
 9146TIP3   OH248852   5.101   2.150  10.394  0.3364 -0.0052  0.6681
 9146TIP3    H148853   5.104   2.243  10.419  1.3145 -0.0083  0.6101
 9146TIP3    H248854   5.016   2.120  10.425 -0.9112  1.4184 -1.1343
 9147TIP3   OH248855   3.771   3.082  11.668 -0.0614 -0.0632 -0.4876
 9147TIP3    H148856   3.833   3.066  11.740 -0.9170 -1.1111  0.0517
 9147TIP3    H248857   3.711   3.149  11.702  0.7064  0.8914 -0.9795
 9148TIP3   OH248858   6.543   5.928  17.149 -0.1537 -0.0887 -0.0858
 9148TIP3    H148859   6.540   6.019  17.180  1.3283 -0.2412  0.6137
 9148TIP3    H248860   6.637   5.910  17.139 -0.3429 -1.9596  1.0777
 9149TIP3   OH248861   1.441   1.598   3.730 -0.4729  0.1768  0.3378
 9149TIP3    H148862   1.430   1.689   3.757  0.0980  0.4793 -0.4255
 9149TIP3    H248863   1.530   1.575   3.757 -0.1147  0.2904 -0.6856
 9150TIP3   OH248864   4.370   4.723   5.933 -0.4987  0.3162 -0.3670
 9150TIP3    H148865   4.363   4.762   6.020 -2.5193  0.4264 -0.5318
 9150TIP3    H248866   4.391   4.631   5.949 -0.0765  0.5103  0.2079
 9151TIP3   OH248867   1.959   1.163  14.189  0.0818  0.8288 -0.0943
 9151TIP3    H148868   1.868   1.191  14.188  0.1292  1.0479  0.7959
 9151TIP3    H248869   1.957   1.071  14.164 -0.1077  1.4946 -2.8370
 9152TIP3   OH248870   0.781   5.284  10.744 -0.6388  0.8187  1.1240
 9152TIP3    H148871   0.710   5.301  10.805 -1.5648  1.0609  0.0282
 9152TIP3    H248872   0.755   5.330  10.663  0.0751 -0.2530  0.2506
 9153TIP3   OH248873   4.323   4.150  12.970 -0.3462  0.0091  0.3530
 9153TIP3    H148874   4.313   4.143  12.875  0.0805  0.2020  0.2902
 9153TIP3    H248875   4.253   4.209  12.997 -0.0390  0.5185  0.0602
 9154TIP3   OH248876   5.233   1.829  16.286 -0.6733  0.0760  0.0361
 9154TIP3    H148877   5.233   1.800  16.194 -1.2097  0.9063 -0.2445
 9154TIP3    H248878   5.322   1.859  16.302 -0.4396 -0.5661 -0.0487
 9155TIP3   OH248879   3.027   1.718  16.765 -0.3781 -0.3558 -0.9604
 9155TIP3    H148880   2.994   1.734  16.853 -0.2736  1.3063 -1.2042
 9155TIP3    H248881   3.075   1.797  16.742  0.4326 -1.1507 -2.1472
 9156TIP3   OH248882   3.346   0.719  13.611 -0.8623  0.8048  0.8211
 9156TIP3    H148883   3.385   0.734  13.525  0.9743 -0.0615  1.4748
 9156TIP3    H248884   3.410   0.752  13.674 -0.3273 -2.1560  1.9912
 9157TIP3   OH248885   0.293   1.365  16.027 -0.3663 -0.5406 -0.0130
 9157TIP3    H148886   0.331   1.323  15.950  0.0694 -1.3286  0.6031
 9157TIP3    H248887   0.339   1.448  16.035 -1.7117  0.4302 -1.6492
 9158TIP3   OH248888   1.691   2.873  14.633  0.6745  0.7059 -0.2069
 9158TIP3    H148889   1.744   2.793  14.632 -0.0629  0.2049 -0.4264
 9158TIP3    H248890   1.659   2.882  14.543  0.6624  1.1870 -0.1580
 9159TIP3   OH248891   3.660   3.565   2.375  0.1503  0.2984 -0.4825
 9159TIP3    H148892   3.740   3.578   2.425  2.2651 -1.6334 -3.0899
 9159TIP3    H248893   3.617   3.651   2.375  2.1566  1.3740  1.0381
 9160TIP3   OH248894   6.707   1.320   6.587  0.1652  0.1294 -0.0670
 9160TIP3    H148895   6.746   1.378   6.521  0.0377 -0.2632 -0.4901
 9160TIP3    H248896   6.737   1.233   6.563 -0.3054 -0.0796  0.0855
 9161TIP3   OH248897   5.175   1.265   3.285 -0.1606 -0.3471  0.2343
 9161TIP3    H148898   5.266   1.235   3.279  0.0196 -0.2502  1.9289
 9161TIP3    H248899   5.131   1.196   3.336 -1.3011 -0.8985 -1.4309
 9162TIP3   OH248900   5.190   0.652  11.852 -0.0965 -0.4162  0.1813
 9162TIP3    H148901   5.116   0.682  11.904  1.2919 -2.0150  3.3594
 9162TIP3    H248902   5.256   0.721  11.861 -0.4344  0.1065 -1.0328
 9163TIP3   OH248903   1.247   5.063  15.353 -0.4823  0.3543 -0.1313
 9163TIP3    H148904   1.180   5.057  15.286  0.0593 -1.0316 -0.5846
 9163TIP3    H248905   1.219   5.135  15.409 -2.0396  0.1574 -0.6258
 9164TIP3   OH248906   0.658   6.515  16.550 -0.3747 -0.0299 -0.0672
 9164TIP3    H148907   0.689   6.461  16.478  2.2545 -1.2214  1.7624
 9164TIP3    H248908   0.663   6.605  16.518  3.8314 -0.2531 -0.5053
 9165TIP3   OH248909   3.726   3.204   1.274 -0.0012  0.2454 -0.2597
 9165TIP3    H148910   3.754   3.250   1.194  2.2009  0.9763  0.8465
 9165TIP3    H248911   3.800   3.147   1.296 -1.2179 -1.1358  0.4245
 9166TIP3   OH248912   3.870   3.886   5.629  0.1674 -0.0012  0.3566
 9166TIP3    H148913   3.907   3.801   5.650 -0.7802 -0.2019  1.3389
 9166TIP3    H248914   3.937   3.930   5.576  1.0266 -1.0085  0.5799
 9167TIP3   OH248915   6.168   4.337  11.096 -0.0069  0.2308 -0.0262
 9167TIP3    H148916   6.124   4.308  11.016  1.5290 -2.5108  0.0127
 9167TIP3    H248917   6.240   4.392  11.066  0.5456 -0.7611 -0.5578
 9168TIP3   OH248918   1.103   1.621  15.510 -0.5835  0.2592 -0.1374
 9168TIP3    H148919   1.021   1.579  15.486 -0.1805  0.8989 -3.0733
 9168TIP3    H248920   1.098   1.709  15.471  0.8740  0.8509  0.9096
 9169TIP3   OH248921   2.099   5.852  14.227  0.6581  0.0539 -0.0501
 9169TIP3    H148922   2.174   5.851  14.167 -0.0369  0.8547 -0.9756
 9169TIP3    H248923   2.054   5.935  14.208 -0.4012 -0.3560  0.5491
 9170TIP3   OH248924   4.299   1.115  14.232  0.1431  0.0226  0.0257
 9170TIP3    H148925   4.325   1.141  14.321 -1.0483 -1.7519  0.9427
 9170TIP3    H248926   4.381   1.095  14.188  0.6753 -3.6293  2.2586
 9171TIP3   OH248927   5.472   3.083  14.463 -0.3346 -0.5513  0.0796
 9171TIP3    H148928   5.543   3.145  14.478 -0.6761 -0.0860 -0.1962
 9171TIP3    H248929   5.516   2.999  14.454  0.0506 -0.5498  1.6212
 9172TIP3   OH248930   6.578   5.870   2.509 -0.2967  0.0874  0.2225
 9172TIP3    H148931   6.549   5.920   2.585 -0.3846  0.9041 -0.3423
 9172TIP3    H248932   6.664   5.905   2.488 -0.3401 -0.0272 -0.1483
 9173TIP3   OH248933   4.576   5.305  14.992  0.5047 -0.2315  0.3537
 9173TIP3    H148934   4.576   5.397  15.019  0.4656 -0.3078  0.6183
 9173TIP3    H248935   4.662   5.273  15.018  0.1508 -0.5380  1.2072
 9174TIP3   OH248936   3.673   1.607   0.846 -0.1502  0.4709  0.0764
 9174TIP3    H148937   3.596   1.552   0.863  0.1346  0.0658  0.0688
 9174TIP3    H248938   3.746   1.546   0.846  0.0743  0.7227 -0.7787
 9175TIP3   OH248939   2.007   0.295   6.117 -0.2395 -0.2658 -0.0874
 9175TIP3    H148940   2.096   0.327   6.106 -1.2871  2.6746 -0.8744
 9175TIP3    H248941   2.016   0.200   6.124  3.1088  0.0658  2.1148
 9176TIP3   OH248942   2.469   1.276   0.199  0.3085  0.0339 -0.7163
 9176TIP3    H148943   2.405   1.212   0.232  1.0410 -0.5679 -0.4268
 9176TIP3    H248944   2.447   1.287   0.107  0.0837 -0.5414 -0.7372
 9177TIP3   OH248945   6.755   5.044  11.104  0.7598 -0.2213 -0.1369
 9177TIP3    H148946   6.698   5.051  11.181  1.8328 -0.1065  0.6638
 9177TIP3    H248947   6.784   5.134  11.088 -0.1274 -0.1008 -1.2239
 9178TIP3   OH248948   0.172   3.628  13.304  0.1952 -0.2074  0.1661
 9178TIP3    H148949   0.247   3.680  13.275 -1.3420  2.1612  0.1762
 9178TIP3    H248950   0.188   3.542  13.266  2.5837  0.3772 -0.3740
 9179TIP3   OH248951   4.700   2.717  16.801  0.3857 -0.3217  0.5512
 9179TIP3    H148952   4.653   2.754  16.877 -1.5721  1.6594 -1.4507
 9179TIP3    H248953   4.751   2.791  16.767 -0.1072 -0.6781 -1.0110
 9180TIP3   OH248954   0.762   1.074  16.387  0.0316 -0.0093 -0.0289
 9180TIP3    H148955   0.755   1.168  16.404 -2.8861  0.0272 -0.8589
 9180TIP3    H248956   0.801   1.067  16.300  1.2181  0.3648  0.4619
 9181TIP3   OH248957   1.596   3.534  14.946  0.0773  0.4286  0.0894
 9181TIP3    H148958   1.510   3.564  14.976  0.7225  1.1466  1.2748
 9181TIP3    H248959   1.629   3.481  15.018  0.1394 -0.8653 -0.8516
 9182TIP3   OH248960   6.542   1.584   0.347  0.3362 -0.5740 -0.9274
 9182TIP3    H148961   6.611   1.580   0.280  0.3714 -0.7870 -0.8810
 9182TIP3    H248962   6.491   1.504   0.333  0.5518 -0.7955 -0.4812
 9183TIP3   OH248963   6.517   0.789  13.233  0.1708 -0.2634 -0.2702
 9183TIP3    H148964   6.597   0.829  13.265  0.3453 -0.3387 -0.6129
 9183TIP3    H248965   6.506   0.711  13.288  0.0412  0.0350  0.1335
 9184TIP3   OH248966   1.141   0.622  14.253  0.1646  0.3697 -0.5714
 9184TIP3    H148967   1.099   0.704  14.277  1.4333  0.4306  1.7239
 9184TIP3    H248968   1.086   0.554  14.291  0.6360  0.3291  0.0671
 9185TIP3   OH248969   0.945   3.251   3.751 -0.0222  0.6845 -0.3458
 9185TIP3    H148970   0.854   3.226   3.735 -0.0267  1.7629 -2.4045
 9185TIP3    H248971   0.939   3.325   3.812 -0.3112 -0.8208  1.5396
 9186TIP3   OH248972   2.965   3.367   2.414 -0.2609 -0.2356 -0.0727
 9186TIP3    H148973   2.893   3.426   2.391 -0.1680 -0.4728 -1.0166
 9186TIP3    H248974   2.936   3.325   2.495 -0.3120  1.1236  0.6576
 9187TIP3   OH248975   0.617   4.281   1.394  0.4554  0.0133 -0.0913
 9187TIP3    H148976   0.703   4.247   1.369  0.8040  0.1540  0.8609
 9187TIP3    H248977   0.569   4.204   1.426 -0.2579 -0.3050 -1.8229
 9188TIP3   OH248978   2.756   5.554  12.566  0.1196 -0.2618  0.7842
 9188TIP3    H148979   2.690   5.485  12.579 -0.9765  0.8738  1.5249
 9188TIP3    H248980   2.816   5.543  12.640  0.0211 -0.5201  0.8278
 9189TIP3   OH248981   5.344   3.114   1.423 -0.2795  0.0265  0.9542
 9189TIP3    H148982   5.401   3.071   1.360 -0.7903 -0.5598  0.8820
 9189TIP3    H248983   5.403   3.164   1.479  0.0601  2.3178 -1.2649
 9190TIP3   OH248984   1.400   0.923  16.450  0.6985  0.2947  0.1578
 9190TIP3    H148985   1.453   0.861  16.501  0.7955  0.3318  0.1034
 9190TIP3    H248986   1.437   1.009  16.470  1.6341  0.1992 -1.0187
 9191TIP3   OH248987   6.291   3.535  11.952 -0.2749  0.5532  0.1146
 9191TIP3    H148988   6.378   3.557  11.918  1.2038  0.6457  3.5198
 9191TIP3    H248989   6.240   3.512  11.875  2.8653  0.1394 -2.0216
 9192TIP3   OH248990   1.061   2.756  12.103 -0.1964  0.8320 -0.1096
 9192TIP3    H148991   1.031   2.814  12.033  1.3788 -0.7758 -2.2389
 9192TIP3    H248992   1.020   2.671  12.082  2.9515 -0.5744 -1.2201
 9193TIP3   OH248993   5.016   2.077  11.791 -0.0620 -0.3743  0.3014
 9193TIP3    H148994   4.932   2.047  11.756 -1.4518 -0.4650  3.3240
 9193TIP3    H248995   5.051   2.001  11.838  0.1166  0.4906  1.6444
 9194TIP3   OH248996   0.337   4.404   1.698 -0.2336 -0.3603 -0.5632
 9194TIP3    H148997   0.319   4.347   1.623 -0.0829  1.0656 -1.7331
 9194TIP3    H248998   0.432   4.416   1.697 -0.3016  0.1857 -0.5376
 9195TIP3   OH248999   3.390   4.808   0.640  0.0195 -0.7371 -0.1070
 9195TIP3    H149000   3.434   4.892   0.629 -0.3949 -0.4533  0.3569
 9195TIP3    H249001   3.453   4.743   0.609  0.3409 -0.2543 -0.4672
 9196TIP3   OH249002   3.791   0.383   5.236 -0.0676  0.7562  0.9318
 9196TIP3    H149003   3.718   0.441   5.258 -1.7338 -0.9039  0.0933
 9196TIP3    H249004   3.819   0.412   5.149 -0.0218  1.1169  1.0660
 9197TIP3   OH249005   5.722   1.812   5.365  0.1848  0.1349 -0.4651
 9197TIP3    H149006   5.732   1.746   5.296 -3.4218  0.3730 -1.4117
 9197TIP3    H249007   5.730   1.762   5.446  3.6086 -0.3048 -0.9233
 9198TIP3   OH249008   1.567   0.723   0.664 -0.0154 -0.3876 -0.1315
 9198TIP3    H149009   1.571   0.817   0.678 -0.1928 -0.6904  2.3079
 9198TIP3    H249010   1.652   0.690   0.694 -1.3108 -1.3588  2.7686
 9199TIP3   OH249011   0.637   4.006  16.340 -0.2523 -0.0205  0.6878
 9199TIP3    H149012   0.669   4.087  16.379 -0.3931  0.2413  0.2694
 9199TIP3    H249013   0.627   4.026  16.247 -1.5892 -0.0981  0.7926
 9200TIP3   OH249014   3.885   2.984   3.670  0.4758  0.1761 -0.1568
 9200TIP3    H149015   3.914   3.055   3.726 -0.8024 -0.4299  1.3518
 9200TIP3    H249016   3.803   3.015   3.632 -0.3062 -0.5920  0.8297
 9201TIP3   OH249017   2.642   0.549  13.612 -0.2335  0.2722  0.3039
 9201TIP3    H149018   2.685   0.629  13.643  0.0693  1.2933 -2.4707
 9201TIP3    H249019   2.571   0.580  13.556 -0.5492 -1.4135 -0.2721
 9202TIP3   OH249020   2.963   2.831   4.021 -0.0720 -0.1807 -0.6298
 9202TIP3    H149021   3.024   2.761   4.043 -0.6183 -0.5296 -0.2049
 9202TIP3    H249022   3.015   2.893   3.969  0.2194 -1.3042 -1.7294
 9203TIP3   OH249023   5.363   4.877   1.732  0.2302  0.3145  0.2472
 9203TIP3    H149024   5.393   4.847   1.646  1.2702  0.6254  0.4820
 9203TIP3    H249025   5.357   4.797   1.784  0.2207  0.1955  0.0654
 9204TIP3   OH249026   2.713   2.423  13.632 -0.1701 -0.3293  0.2219
 9204TIP3    H149027   2.670   2.508  13.644  0.2326 -0.1471  0.3737
 9204TIP3    H249028   2.641   2.359  13.641 -0.4670 -0.0106  0.1437
 9205TIP3   OH249029   4.128   1.077   1.769 -0.4014  0.3587 -0.2083
 9205TIP3    H149030   4.056   1.025   1.732 -0.1838 -0.6377  0.7036
 9205TIP3    H249031   4.134   1.048   1.860 -1.4615  3.3119  0.9351
 9206TIP3   OH249032   3.096   6.210  15.832  0.2202  0.0103 -0.7010
 9206TIP3    H149033   3.017   6.261  15.851 -0.2160 -0.7927 -0.3030
 9206TIP3    H249034   3.116   6.231  15.741 -1.1944 -0.7162 -1.2164
 9207TIP3   OH249035   2.947   6.228   6.284 -0.6222 -0.1728 -0.2805
 9207TIP3    H149036   3.009   6.164   6.320  0.2432 -0.0813 -1.5400
 9207TIP3    H249037   2.939   6.294   6.353 -1.0554 -1.3097  0.7877
 9208TIP3   OH249038   4.533   1.462  16.646  0.6968  0.0662  0.1018
 9208TIP3    H149039   4.614   1.468  16.594  1.4600 -1.0515  1.1081
 9208TIP3    H249040   4.482   1.538  16.619  1.9822  0.6745 -0.7392
 9209TIP3   OH249041   0.177   5.143  12.525  0.1608  0.8036 -0.1055
 9209TIP3    H149042   0.086   5.127  12.548  0.6770 -0.7632  0.9917
 9209TIP3    H249043   0.177   5.231  12.487 -1.6713  1.1386  0.5758
 9210TIP3   OH249044   1.190   0.048   5.453 -0.0835 -0.3291 -0.3600
 9210TIP3    H149045   1.215   0.133   5.418  1.1627 -0.5615 -0.0943
 9210TIP3    H249046   1.108   0.026   5.410 -0.9954  1.4982  0.3739
 9211TIP3   OH249047   2.881   0.849   1.032 -0.2540 -0.7694 -0.1599
 9211TIP3    H149048   2.972   0.835   1.060  0.2371  2.0537 -0.0418
 9211TIP3    H249049   2.829   0.794   1.091  1.2314 -0.5365  1.4479
 9212TIP3   OH249050   2.382   3.768  16.021  0.2795 -0.2236  0.4232
 9212TIP3    H149051   2.447   3.832  15.992 -0.1205  0.7033  1.4854
 9212TIP3    H249052   2.366   3.714  15.944  0.3670  1.1918 -0.6296
 9213TIP3   OH249053   3.696   4.373   3.674 -0.4693 -0.4949  0.8292
 9213TIP3    H149054   3.754   4.331   3.738  0.8834  0.6898  0.4285
 9213TIP3    H249055   3.730   4.462   3.666 -1.5901 -0.1523 -0.3737
 9214TIP3   OH249056   3.684   3.057   5.495  0.4516 -0.6240 -0.2395
 9214TIP3    H149057   3.688   3.149   5.470 -1.9788  0.4364  2.6703
 9214TIP3    H249058   3.774   3.034   5.518  1.1092  0.9455 -1.0974
 9215TIP3   OH249059   6.591   3.170  12.547  0.2414  0.3071  0.3262
 9215TIP3    H149060   6.568   3.256  12.511  0.3549  0.2138  0.0329
 9215TIP3    H249061   6.519   3.113  12.521  0.5811  0.1162 -0.2176
 9216TIP3   OH249062   2.431   6.528  15.441  0.0074  0.1809 -0.1719
 9216TIP3    H149063   2.522   6.501  15.431 -0.2467 -0.2882 -1.2793
 9216TIP3    H249064   2.388   6.503  15.359 -0.5251  2.8568 -0.8262
 9217TIP3   OH249065   0.266   2.093  14.234  0.6029 -0.2142  0.3416
 9217TIP3    H149066   0.189   2.108  14.179  0.7314  2.2209  0.7206
 9217TIP3    H249067   0.310   2.018  14.194 -2.5911 -2.6018  0.8649
 9218TIP3   OH249068   4.665   5.318   4.919 -0.3970  0.3445 -0.0411
 9218TIP3    H149069   4.736   5.378   4.944 -0.2844  0.2366 -0.0986
 9218TIP3    H249070   4.586   5.358   4.955 -0.2076  0.0669  0.6956
 9219TIP3   OH249071   3.037   1.366  12.515 -0.1233 -0.4002 -0.2873
 9219TIP3    H149072   3.088   1.316  12.578  0.6014 -0.7077 -1.1105
 9219TIP3    H249073   2.947   1.336  12.528 -0.0426 -0.2076  0.8267
 9220TIP3   OH249074   0.604   0.047  12.056 -0.1884  1.2267  0.2851
 9220TIP3    H149075   0.687   0.073  12.097  0.9014 -0.9352 -0.3801
 9220TIP3    H249076   0.547   0.024  12.129  0.8809 -0.1936  0.7269
 9221TIP3   OH249077   4.952   3.015   5.359  0.8686 -0.0416 -0.4878
 9221TIP3    H149078   4.859   3.032   5.342  0.7585  0.2957  0.3836
 9221TIP3    H249079   4.994   3.024   5.274  0.0734 -0.4011 -0.9312
 9222TIP3   OH249080   3.953   4.098   3.068  0.1681 -0.4829  0.3062
 9222TIP3    H149081   3.901   4.039   3.123  1.5431 -1.6166  0.4313
 9222TIP3    H249082   3.999   4.040   3.007  0.3350  0.5945 -0.6178
 9223TIP3   OH249083   6.125   2.819   5.588 -0.4614  0.1514  0.1181
 9223TIP3    H149084   6.063   2.816   5.515 -0.0018  0.5621 -0.2931
 9223TIP3    H249085   6.199   2.870   5.555  1.1890 -2.3164 -0.2111
 9224TIP3   OH249086   5.563   4.995   4.951 -0.6321 -0.0127 -0.1265
 9224TIP3    H149087   5.559   5.041   5.035 -0.1519 -1.5676  0.7910
 9224TIP3    H249088   5.651   4.959   4.947 -0.0848  1.3573 -2.0885
 9225TIP3   OH249089   1.570   4.137   5.750  0.1840  0.1166  0.2077
 9225TIP3    H149090   1.489   4.091   5.771  0.1881  0.2694  0.5600
 9225TIP3    H249091   1.610   4.156   5.834 -0.4859  1.9580  0.1707
 9226TIP3   OH249092   5.205   5.611   4.744  0.3688  0.1249 -0.2842
 9226TIP3    H149093   5.182   5.696   4.704  1.2469 -0.0208 -1.1281
 9226TIP3    H249094   5.181   5.547   4.677  0.8255 -0.2016 -0.1362
 9227TIP3   OH249095   1.511   5.287  12.940 -0.3706 -0.9501 -0.6954
 9227TIP3    H149096   1.497   5.331  13.023 -2.4846 -2.0088 -0.4186
 9227TIP3    H249097   1.595   5.242  12.951  0.5639  0.8790 -0.0690
 9228TIP3   OH249098   1.538   3.417   2.800  0.3259 -0.2664  0.0974
 9228TIP3    H149099   1.565   3.364   2.874  1.3290  1.7036  1.2425
 9228TIP3    H249100   1.593   3.496   2.805 -2.6148  1.9891 -0.0730
 9229TIP3   OH249101   1.490   3.059   2.764 -0.9212  0.4008  0.2637
 9229TIP3    H149102   1.419   3.097   2.816  0.1334  1.4473  0.9894
 9229TIP3    H249103   1.525   3.133   2.715  0.2816  0.1021  0.6434
 9230TIP3   OH249104   2.153   0.771  12.049 -0.2682 -0.0788 -0.3357
 9230TIP3    H149105   2.105   0.794  12.129 -0.4530 -0.2897 -0.3850
 9230TIP3    H249106   2.188   0.684  12.067 -1.2932 -0.6289 -0.9283
 9231TIP3   OH249107   0.140   2.971   0.494  0.1657  0.3374  0.1972
 9231TIP3    H149108   0.111   2.882   0.512  2.1357 -0.4572 -0.3610
 9231TIP3    H249109   0.149   2.975   0.399  0.8608  0.8775  0.2794
 9232TIP3   OH249110   0.486   3.615  15.013  0.6002 -0.1069  0.2874
 9232TIP3    H149111   0.545   3.687  14.989  1.8339 -0.9787  0.5652
 9232TIP3    H249112   0.483   3.618  15.108 -0.6483  0.5525  0.2459
 9233TIP3   OH249113   0.820   0.779  13.603 -0.0839 -0.4212 -0.2753
 9233TIP3    H149114   0.751   0.740  13.657  0.7004  0.2049  1.2413
 9233TIP3    H249115   0.857   0.705  13.555  0.4503 -1.3709  1.5054
 9234TIP3   OH249116   6.112   5.527  14.673  0.3876  0.0604  0.0401
 9234TIP3    H149117   6.109   5.537  14.768 -0.5883  0.2562 -0.0045
 9234TIP3    H249118   6.096   5.615  14.639  1.0818  0.0554 -0.3092
 9235TIP3   OH249119   1.444   1.847   3.831 -0.2900 -0.2566  0.2495
 9235TIP3    H149120   1.356   1.854   3.868 -0.1889 -1.3097  0.7266
 9235TIP3    H249121   1.459   1.931   3.787 -1.3533  0.0983  0.5479
 9236TIP3   OH249122   0.522   6.020   0.432 -0.7020  0.0329 -0.1963
 9236TIP3    H149123   0.513   5.990   0.523 -1.6914  1.3777  0.1824
 9236TIP3    H249124   0.520   5.940   0.380 -0.0216 -0.7755  0.9606
 9237TIP3   OH249125   5.866   3.713   0.233  0.0969  0.1717  0.2306
 9237TIP3    H149126   5.904   3.747   0.152 -1.1237  0.6522 -0.1687
 9237TIP3    H249127   5.879   3.782   0.298 -0.9517  0.7810 -0.1696
 9238TIP3   OH249128   4.999   5.923   0.245  0.1371  0.1653 -0.2726
 9238TIP3    H149129   4.972   5.881   0.163 -0.8485  0.0710  0.0867
 9238TIP3    H249130   5.092   5.901   0.254  0.3550  0.4887 -1.5478
 9239TIP3   OH249131   4.682   4.028  16.720  0.7170 -0.0253  0.5251
 9239TIP3    H149132   4.730   4.018  16.637  0.0711  0.3609  0.0967
 9239TIP3    H249133   4.680   4.122  16.736  1.2230 -0.1258  1.2209
 9240TIP3   OH249134   3.917   1.947   2.004 -0.2196  0.1990 -0.2298
 9240TIP3    H149135   3.822   1.953   1.991 -0.2247 -0.4986 -0.5559
 9240TIP3    H249136   3.953   1.942   1.916  0.3157  2.7234 -0.2228
 9241TIP3   OH249137   3.468   1.054  16.952 -0.1775 -0.0267  0.2337
 9241TIP3    H149138   3.418   1.130  16.981  0.4681  0.2308  0.6884
 9241TIP3    H249139   3.455   1.051  16.857  0.0769  0.8569  0.1645
 9242TIP3   OH249140   5.378   4.256  14.171  0.1119 -0.4957  0.1106
 9242TIP3    H149141   5.442   4.286  14.235  0.5170  0.3739 -0.6820
 9242TIP3    H249142   5.298   4.303  14.193  0.1635 -0.4414  0.1838
 9243TIP3   OH249143   4.330   2.281   1.042 -0.1179  0.5004 -0.5917
 9243TIP3    H149144   4.235   2.292   1.037 -0.3743 -0.6763  0.8900
 9243TIP3    H249145   4.343   2.187   1.047  1.1839  0.6139 -1.4106
 9244TIP3   OH249146   0.309   2.867  15.978  0.3666  0.0861  0.4874
 9244TIP3    H149147   0.239   2.849  15.915 -0.0824  0.7946  0.7689
 9244TIP3    H249148   0.362   2.787  15.978  0.6225  0.2162 -1.0866
 9245TIP3   OH249149   3.338   2.669   4.569  0.5546  0.6395  0.0875
 9245TIP3    H149150   3.344   2.752   4.522  2.2597  0.5403  0.0858
 9245TIP3    H249151   3.338   2.602   4.500  0.3562  0.5951  0.1305
 9246TIP3   OH249152   2.364   6.038  16.663 -0.3893 -0.3323 -0.1890
 9246TIP3    H149153   2.281   6.003  16.694 -1.2791  1.6349 -0.1959
 9246TIP3    H249154   2.340   6.107  16.602  1.1563  1.8214  1.4786
 9247TIP3   OH249155   0.591   1.795  13.879  0.0218  0.3510  0.2364
 9247TIP3    H149156   0.627   1.752  13.956 -0.2065  2.5615  1.6609
 9247TIP3    H249157   0.643   1.875  13.869  0.6448 -0.2865 -2.4953
 9248TIP3   OH249158   5.606   2.003  14.577  0.0166 -0.2417  0.3351
 9248TIP3    H149159   5.656   1.936  14.530  1.3905  0.0202  1.3603
 9248TIP3    H249160   5.535   1.955  14.619 -0.3958 -0.6883 -0.8336
 9249TIP3   OH249161   4.269   6.434  16.623 -0.0723  0.1839  0.4521
 9249TIP3    H149162   4.346   6.416  16.569 -0.2570  0.3808  0.1216
 9249TIP3    H249163   4.198   6.387  16.579  0.1710 -1.4429  1.6922
 9250TIP3   OH249164   0.300   3.375   3.795 -0.8460  0.3637  0.3838
 9250TIP3    H149165   0.211   3.395   3.823 -1.2612 -0.6198 -0.1717
 9250TIP3    H249166   0.355   3.402   3.868 -1.5455  1.4797  0.5224
 9251TIP3   OH249167   1.709   1.099   4.932  0.1000 -0.5621 -0.3696
 9251TIP3    H149168   1.625   1.138   4.911  0.1118  0.4138  1.2288
 9251TIP3    H249169   1.689   1.032   4.997  0.2299 -2.4803 -2.2093
 9252TIP3   OH249170   4.585   5.897   3.260 -0.5272 -0.0943 -0.1678
 9252TIP3    H149171   4.547   5.850   3.334  2.6153 -3.4599 -0.3663
 9252TIP3    H249172   4.629   5.972   3.300 -0.9593 -0.4652  1.0572
 9253TIP3   OH249173   3.538   5.289   1.385 -0.1538 -0.6871 -0.3744
 9253TIP3    H149174   3.536   5.206   1.337  0.0237 -0.2968 -1.0781
 9253TIP3    H249175   3.626   5.294   1.422 -0.0581 -0.6640 -0.6046
 9254TIP3   OH249176   4.438   0.351  13.075  0.2629  0.4804 -0.1909
 9254TIP3    H149177   4.386   0.431  13.069 -1.9943 -0.9721 -1.4868
 9254TIP3    H249178   4.425   0.309  12.990 -0.3651 -2.2485  1.1696
 9255TIP3   OH249179   0.702   3.404  13.172  0.1578  0.4549 -0.1439
 9255TIP3    H149180   0.659   3.463  13.233  1.1449  0.8456  0.1985
 9255TIP3    H249181   0.759   3.350  13.227  0.2099  0.0409 -0.5938
 9256TIP3   OH249182   6.100   0.724   2.113  0.0296 -0.3618 -0.2275
 9256TIP3    H149183   6.062   0.670   2.183 -0.9230  0.6398  0.0651
 9256TIP3    H249184   6.035   0.720   2.042  0.6936 -0.8559 -0.8181
 9257TIP3   OH249185   5.698   5.920   1.419  0.5751  0.0191 -0.3836
 9257TIP3    H149186   5.734   5.978   1.352 -1.3332 -0.6541 -2.0862
 9257TIP3    H249187   5.771   5.907   1.480  2.2814  1.0152 -2.0691
 9258TIP3   OH249188   6.766   3.757   0.027 -0.0723 -0.3353  0.1837
 9258TIP3    H149189   6.846   3.751   0.079 -0.7244  0.1183  1.2812
 9258TIP3    H249190   6.795   3.751  -0.064  1.2113 -0.0713  0.5630
 9259TIP3   OH249191   3.447   1.619  12.856  0.8140  0.0058 -0.1656
 9259TIP3    H149192   3.501   1.698  12.856  2.3089 -0.9775 -0.5775
 9259TIP3    H249193   3.360   1.650  12.829  1.9692  1.1358 -2.9652
 9260TIP3   OH249194   2.977   4.306   3.471  0.0465  0.4674  0.4739
 9260TIP3    H149195   2.914   4.285   3.541 -0.4537  2.5913  0.7407
 9260TIP3    H249196   3.004   4.221   3.437 -1.9376 -0.5545  1.2736
 9261TIP3   OH249197   1.342   4.729   2.609  0.1329 -0.0090 -0.2124
 9261TIP3    H149198   1.408   4.711   2.542  1.0402  0.0496  0.6430
 9261TIP3    H249199   1.360   4.664   2.678 -0.8446 -0.1307 -0.0587
 9262TIP3   OH249200   2.239   5.642  15.588  0.1003  0.0421  0.2182
 9262TIP3    H149201   2.286   5.608  15.512 -0.0668 -1.7029  0.8523
 9262TIP3    H249202   2.148   5.618  15.572 -0.1106  0.6643  0.4563
 9263TIP3   OH249203   3.671   2.450  15.400  0.1973  0.4282  0.1228
 9263TIP3    H149204   3.742   2.435  15.337  0.8018 -1.0608  1.0918
 9263TIP3    H249205   3.689   2.387  15.471 -0.7783  1.6542  1.5067
 9264TIP3   OH249206   3.802   5.516  15.970  0.0558 -0.1975  0.0171
 9264TIP3    H149207   3.715   5.485  15.994  0.5811 -0.8721  1.0999
 9264TIP3    H249208   3.806   5.505  15.875 -0.6190 -1.2694  0.1007
 9265TIP3   OH249209   1.957   1.115   5.114 -0.2704  0.1001  0.1263
 9265TIP3    H149210   1.922   1.037   5.157 -0.8111 -0.6016 -1.4848
 9265TIP3    H249211   1.880   1.170   5.098  0.0188  0.6751  0.6573
 9266TIP3   OH249212   0.945   0.043   3.809  0.3084  0.0665  0.1329
 9266TIP3    H149213   0.916  -0.044   3.780 -1.0962  0.6847 -0.4234
 9266TIP3    H249214   0.972   0.087   3.729  0.2101  0.4264  0.2952
 9267TIP3   OH249215   3.165   4.237  13.294 -0.5486 -0.2837 -0.0449
 9267TIP3    H149216   3.120   4.320  13.310 -1.0875 -0.4020 -0.9131
 9267TIP3    H249217   3.098   4.170  13.305 -0.2762 -0.5575 -0.0294
 9268TIP3   OH249218   5.217   5.676  17.197 -0.1600 -0.3448 -0.4131
 9268TIP3    H149219   5.291   5.733  17.176 -0.9261  0.4605 -1.0170
 9268TIP3    H249220   5.228   5.599  17.142  1.1331 -1.0284  0.7357
 9269TIP3   OH249221   0.240   5.321  11.980  0.0105  0.0895  0.1865
 9269TIP3    H149222   0.168   5.266  11.950  0.8855 -0.6647 -0.5617
 9269TIP3    H249223   0.270   5.279  12.061 -0.8485  0.8322  0.9254
 9270TIP3   OH249224   3.726   6.525  17.013  0.1563 -0.4027 -0.6519
 9270TIP3    H149225   3.712   6.434  16.987  2.7326 -0.7161 -1.1482
 9270TIP3    H249226   3.765   6.519  17.100 -1.8143  0.3856  0.3615
 9271TIP3   OH249227   4.806   4.299  16.013 -0.4257 -0.6480 -0.8112
 9271TIP3    H149228   4.763   4.297  15.927 -0.9463  0.4965 -0.5924
 9271TIP3    H249229   4.746   4.348  16.068  0.2688 -0.7115  0.0163
 9272TIP3   OH249230   1.176   5.274   5.757  0.2396  0.0683  0.3746
 9272TIP3    H149231   1.185   5.327   5.678 -1.8466  1.7954  1.1991
 9272TIP3    H249232   1.222   5.324   5.825 -2.8853  1.7742  1.4702
 9273TIP3   OH249233   2.560   1.669  16.881 -0.1046  0.5040 -0.1415
 9273TIP3    H149234   2.514   1.730  16.939  0.4020  1.4310 -0.6817
 9273TIP3    H249235   2.608   1.726  16.820  1.1694 -0.4307 -0.0466
 9274TIP3   OH249236   1.412   0.457   1.836  0.0389  0.4871  0.1808
 9274TIP3    H149237   1.452   0.377   1.870 -0.3969  0.1321 -0.1256
 9274TIP3    H249238   1.388   0.507   1.915  2.6623  1.5564  0.4033
 9275TIP3   OH249239   0.417   2.446   6.276  0.0989 -0.8032  0.0505
 9275TIP3    H149240   0.490   2.491   6.319 -0.2454  0.5978 -0.7636
 9275TIP3    H249241   0.339   2.491   6.309 -0.2146 -0.3192 -1.3078
 9276TIP3   OH249242   0.899   1.650   5.477  0.1285 -0.3069 -0.0298
 9276TIP3    H149243   0.807   1.678   5.478  0.7204  1.8907 -0.8324
 9276TIP3    H249244   0.948   1.730   5.458  2.2128 -1.4686  0.1601
 9277TIP3   OH249245   5.505   5.079   0.437 -0.2460 -0.2072  0.0007
 9277TIP3    H149246   5.544   5.025   0.368  0.4372 -0.8533  0.8830
 9277TIP3    H249247   5.505   5.168   0.400  2.9189  0.0237  0.2663
 9278TIP3   OH249248   3.608   4.163  15.937  0.0250  0.1723  0.3688
 9278TIP3    H149249   3.699   4.176  15.910  0.1524  0.6489  0.9900
 9278TIP3    H249250   3.582   4.247  15.974 -0.9542  0.2974 -0.5783
 9279TIP3   OH249251   5.542   4.067  17.108  0.1647  0.6495 -0.1176
 9279TIP3    H149252   5.449   4.052  17.121  0.3420  0.3457  0.8503
 9279TIP3    H249253   5.583   3.982  17.120  0.4848  0.5821 -1.5197
 9280TIP3   OH249254   3.102   5.231  15.715  0.2538 -0.0880  0.1016
 9280TIP3    H149255   3.063   5.168  15.775 -0.9558  0.8769  0.3637
 9280TIP3    H249256   3.047   5.227  15.637 -0.1470  1.0010  0.3159
 9281TIP3   OH249257   4.506   0.065   4.852 -0.2476 -0.1870 -0.4209
 9281TIP3    H149258   4.594   0.054   4.890 -0.8178  0.9973  1.3964
 9281TIP3    H249259   4.503   0.156   4.824 -1.0013 -0.1056 -0.1117
 9282TIP3   OH249260   2.268   2.223   4.343  0.5320 -0.9050  0.3090
 9282TIP3    H149261   2.326   2.295   4.319  1.2770 -1.1457  1.2937
 9282TIP3    H249262   2.235   2.189   4.260  1.5264 -0.5228 -0.2615
 9283TIP3   OH249263   1.599   6.663   0.614 -0.3058 -0.1409  0.7183
 9283TIP3    H149264   1.516   6.681   0.570 -0.7822 -1.5965  0.9842
 9283TIP3    H249265   1.660   6.727   0.576 -1.1912  0.0045 -0.5378
 9284TIP3   OH249266   1.756   3.705  15.834  0.2014 -0.5637 -0.3192
 9284TIP3    H149267   1.734   3.770  15.767 -0.3385 -2.8410 -2.5017
 9284TIP3    H249268   1.848   3.720  15.853 -0.1069  1.3306 -0.1003
 9285TIP3   OH249269   5.086   2.761  11.347 -0.1604 -0.0583 -0.3835
 9285TIP3    H149270   5.177   2.776  11.324  0.4765 -2.2523  0.4712
 9285TIP3    H249271   5.042   2.844  11.328  2.1705  1.3446  0.0793
 9286TIP3   OH249272   4.402   2.094  14.388  0.7933  0.2639  0.1264
 9286TIP3    H149273   4.313   2.068  14.364 -0.4155  2.7092  1.5877
 9286TIP3    H249274   4.457   2.024  14.353 -1.7476 -1.8386 -0.0141
 9287TIP3   OH249275   1.644   0.274   5.213 -0.0276 -0.1333 -0.3768
 9287TIP3    H149276   1.724   0.324   5.232 -0.4713 -0.0154  1.3301
 9287TIP3    H249277   1.574   0.339   5.218 -0.4949 -0.6861  0.8109
 9288TIP3   OH249278   1.573   4.271   4.257 -0.0636 -0.3059  0.2684
 9288TIP3    H149279   1.548   4.229   4.339  0.1707  1.9970  1.6100
 9288TIP3    H249280   1.577   4.364   4.278 -1.9056  0.6301 -2.8428
 9289TIP3   OH249281   3.466   5.541  14.846 -0.3778  0.4979 -0.2979
 9289TIP3    H149282   3.530   5.608  14.819  2.1781 -0.5042  2.6801
 9289TIP3    H249283   3.506   5.458  14.819 -2.5398 -0.0580 -2.1060
 9290TIP3   OH249284   0.981   1.845  13.513 -0.4937 -0.7837  0.1290
 9290TIP3    H149285   1.019   1.901  13.581 -0.0564 -0.2477 -0.5414
 9290TIP3    H249286   1.050   1.839  13.447 -1.1644 -0.7322 -0.5821
 9291TIP3   OH249287   3.550   4.133   3.816  0.5457  0.4492 -0.5163
 9291TIP3    H149288   3.559   4.076   3.739 -1.5798  0.2142 -0.6546
 9291TIP3    H249289   3.511   4.213   3.781 -0.2594  0.4134  0.2826
 9292TIP3   OH249290   5.237   1.552   1.178  0.1010  0.7309  0.0460
 9292TIP3    H149291   5.181   1.570   1.103 -0.9390  1.4627  0.9757
 9292TIP3    H249292   5.225   1.459   1.196 -2.0115  1.1497  1.1287
 9293TIP3   OH249293   6.680   2.842  15.914  0.5392  0.5989  0.3002
 9293TIP3    H149294   6.664   2.762  15.964 -1.2902  0.3847 -0.5327
 9293TIP3    H249295   6.732   2.897  15.972  0.8471 -0.7330  1.3368
 9294TIP3   OH249296   5.128   2.672  14.251 -0.4192  0.3231 -0.0515
 9294TIP3    H149297   5.117   2.599  14.313  1.0663 -1.5053 -1.8158
 9294TIP3    H249298   5.090   2.748  14.297 -1.7130 -1.4423  2.0145
 9295TIP3   OH249299   4.535   4.911  15.626 -0.4243 -0.2630 -0.1823
 9295TIP3    H149300   4.487   4.957  15.557 -2.2837 -1.0463  0.5220
 9295TIP3    H249301   4.622   4.950  15.624 -1.6179  2.6581 -0.2453
 9296TIP3   OH249302   5.835   4.211  14.450  0.5226  0.6687  0.1494
 9296TIP3    H149303   5.930   4.208  14.458  0.5179 -0.7076 -0.1485
 9296TIP3    H249304   5.808   4.119  14.445 -0.6701  1.0587 -1.3844
 9297TIP3   OH249305   1.736   6.637  16.892  0.5356 -0.1013  0.0136
 9297TIP3    H149306   1.785   6.681  16.822 -0.2934  1.2778  0.2571
 9297TIP3    H249307   1.707   6.555  16.854  2.4319 -0.6459 -0.3561
 9298TIP3   OH249308   1.219   5.200  13.471 -0.4921 -0.5491 -0.1389
 9298TIP3    H149309   1.278   5.125  13.475 -1.6496 -1.4342  1.6418
 9298TIP3    H249310   1.251   5.260  13.538  0.0691  0.3194 -1.1498
 9299TIP3   OH249311   0.587   3.819   0.831  0.5193 -0.8120  0.3735
 9299TIP3    H149312   0.527   3.744   0.836  0.6663 -0.8518  2.0670
 9299TIP3    H249313   0.625   3.814   0.743 -2.3671 -0.4460 -1.0172
 9300TIP3   OH249314   2.637   6.582  11.693  0.6332 -0.2814 -0.0864
 9300TIP3    H149315   2.700   6.586  11.620  1.8921 -1.1651  0.9181
 9300TIP3    H249316   2.572   6.649  11.671  0.8516 -0.6657 -2.1291
 9301TIP3   OH249317   6.162   1.203  15.629  0.1319 -0.0732 -0.2141
 9301TIP3    H149318   6.211   1.132  15.670 -0.0904 -0.5339 -0.7274
 9301TIP3    H249319   6.137   1.260  15.701  1.8166  0.4260  0.0230
 9302TIP3   OH249320   6.441   5.583  12.779 -0.2989  0.6363 -0.3689
 9302TIP3    H149321   6.476   5.586  12.868  0.3162 -1.1111 -0.5117
 9302TIP3    H249322   6.416   5.491  12.766  1.4316  0.3968 -2.6703
 9303TIP3   OH249323   6.569   5.541  16.383 -0.5973  0.0174 -0.1500
 9303TIP3    H149324   6.510   5.607  16.345 -2.4318 -0.4214  1.7507
 9303TIP3    H249325   6.600   5.581  16.464  2.1281  0.3743 -1.2563
 9304TIP3   OH249326   2.939   5.204  15.192 -0.4431  0.4323 -0.6653
 9304TIP3    H149327   2.922   5.139  15.125 -1.3766  0.4512 -0.4666
 9304TIP3    H249328   2.993   5.270  15.149  0.6576 -0.5386 -0.8175
 9305TIP3   OH249329   0.162   2.707  16.191  0.1147  0.2668 -0.2767
 9305TIP3    H149330   0.096   2.675  16.254 -0.3899  2.1055  0.1844
 9305TIP3    H249331   0.143   2.658  16.111  0.2702 -1.5656  0.7361
 9306TIP3   OH249332   3.998   0.065   4.320 -0.5828  0.0869  0.1787
 9306TIP3    H149333   3.995   0.023   4.235 -2.6202 -0.0903  0.3022
 9306TIP3    H249334   3.915   0.113   4.327 -0.1657  0.6447  1.7801
 9307TIP3   OH249335   4.216   5.231   1.984 -0.2070 -0.6574 -0.7372
 9307TIP3    H149336   4.139   5.176   2.002 -0.0971 -0.1888  1.4306
 9307TIP3    H249337   4.244   5.205   1.896 -2.5186 -1.2120 -1.3725
 9308TIP3   OH249338   5.460   0.328  13.431  0.8472  0.7381  0.2512
 9308TIP3    H149339   5.371   0.332  13.397  0.2393 -1.4999  1.3512
 9308TIP3    H249340   5.492   0.418  13.426 -1.3049  1.5273 -0.5674
 9309TIP3   OH249341   3.116   5.114  17.037  0.3008 -0.0413 -0.1395
 9309TIP3    H149342   3.092   5.029  17.076  2.4333 -1.1704 -1.1092
 9309TIP3    H249343   3.035   5.165  17.040 -0.4003 -1.0964  2.9902
 9310TIP3   OH249344   2.125   1.405  11.019 -0.5430 -0.3629 -0.5674
 9310TIP3    H149345   2.163   1.463  11.085 -1.1727 -1.2228  0.5883
 9310TIP3    H249346   2.069   1.462  10.967  2.0659  0.9010 -2.1887
 9311TIP3   OH249347   2.627   5.438   0.785 -0.4373 -0.3403  0.1533
 9311TIP3    H149348   2.713   5.480   0.786 -0.5608  0.0894 -2.1008
 9311TIP3    H249349   2.618   5.403   0.696 -2.6169 -0.2895  0.2948
 9312TIP3   OH249350   1.603   3.409   5.990  0.0938  0.0648 -0.8805
 9312TIP3    H149351   1.662   3.350   6.038 -0.3024 -1.4207 -2.1561
 9312TIP3    H249352   1.661   3.476   5.953  0.7236 -0.2417 -0.4705
 9313TIP3   OH249353   4.285   1.763   0.555 -0.2348  0.2014  0.3491
 9313TIP3    H149354   4.287   1.840   0.499 -1.3948 -0.4563 -0.6310
 9313TIP3    H249355   4.281   1.689   0.495 -0.4755 -0.5670  1.2808
 9314TIP3   OH249356   1.798   4.249   2.534 -0.1856  0.1524  0.0006
 9314TIP3    H149357   1.742   4.265   2.610 -1.6081  0.0535 -0.9812
 9314TIP3    H249358   1.767   4.166   2.499  0.3867  0.2412 -0.7383
 9315TIP3   OH249359   6.515   0.750  15.277  0.1578 -0.1747  0.4328
 9315TIP3    H149360   6.421   0.742  15.259 -0.1074 -0.1479  1.7456
 9315TIP3    H249361   6.551   0.786  15.196 -1.0313  0.2544  0.0717
 9316TIP3   OH249362   3.275   0.809  15.224  0.5591  0.1285 -0.0931
 9316TIP3    H149363   3.357   0.856  15.239  1.0224 -0.1323 -1.6563
 9316TIP3    H249364   3.264   0.754  15.302  0.8737  1.5486  0.9925
 9317TIP3   OH249365   3.929   5.331  16.429 -0.3271  0.8995  0.1174
 9317TIP3    H149366   3.887   5.415  16.447 -0.7185  0.6961  0.1871
 9317TIP3    H249367   3.856   5.269  16.421 -0.0604  0.6272 -0.2620
 9318TIP3   OH249368   2.796   4.889   3.212 -0.4075  0.1469 -0.0352
 9318TIP3    H149369   2.826   4.866   3.300  2.1452 -1.5169 -1.2379
 9318TIP3    H249370   2.755   4.810   3.179 -2.3292  1.0799 -0.0427
 9319TIP3   OH249371   3.779   5.998  13.922 -0.0534  0.4604 -0.3243
 9319TIP3    H149372   3.779   5.911  13.962  0.9428  0.0565 -1.1548
 9319TIP3    H249373   3.750   6.057  13.992 -1.6194 -0.6346 -0.0183
 9320TIP3   OH249374   6.485   4.276   3.404  0.7782 -0.3353 -0.0808
 9320TIP3    H149375   6.431   4.242   3.476  0.6049 -0.3319 -0.2088
 9320TIP3    H249376   6.475   4.371   3.410  0.4314 -0.3532 -0.3664
 9321TIP3   OH249377   1.618   6.447   1.898 -0.5330  0.2540 -0.3961
 9321TIP3    H149378   1.631   6.371   1.954 -0.8087 -0.1225 -0.8410
 9321TIP3    H249379   1.685   6.438   1.830 -0.3524  0.5864 -0.2677
 9322TIP3   OH249380   6.152   0.148   0.809 -0.8161 -0.6095  0.2224
 9322TIP3    H149381   6.150   0.234   0.769 -1.4007 -0.2589  0.9868
 9322TIP3    H249382   6.196   0.092   0.744 -0.5542  0.2231 -0.3278
 9323TIP3   OH249383   5.670   1.505   1.694  0.1500  0.8033 -0.0143
 9323TIP3    H149384   5.693   1.598   1.702 -0.4432  0.8533  1.5068
 9323TIP3    H249385   5.583   1.498   1.734  1.0994 -0.7438  2.0143
 9324TIP3   OH249386   2.118   3.123   1.129 -0.4584  0.6566 -0.5920
 9324TIP3    H149387   2.176   3.106   1.203  0.5332  0.5762 -1.3727
 9324TIP3    H249388   2.159   3.195   1.081 -1.7241  1.5284 -0.4138
 9325TIP3   OH249389   3.357   1.797  13.601 -0.0467 -0.3868 -0.0807
 9325TIP3    H149390   3.440   1.842  13.612 -0.6645  0.7428  0.0730
 9325TIP3    H249391   3.341   1.755  13.685  0.1270 -0.2060  0.0421
 9326TIP3   OH249392   1.496   1.568   5.203  0.0471  0.4557  0.2718
 9326TIP3    H149393   1.450   1.486   5.186  0.5308  0.1558  0.3898
 9326TIP3    H249394   1.534   1.556   5.290 -1.1680  1.4006  0.9761
 9327TIP3   OH249395   5.138   6.154  11.968 -0.5862  0.6305 -0.4094
 9327TIP3    H149396   5.084   6.163  11.890 -0.0416  1.7221 -0.6801
 9327TIP3    H249397   5.087   6.097  12.026 -2.3970  2.2051 -0.3571
 9328TIP3   OH249398   2.424   4.189   4.104 -0.6461 -0.7851 -0.3034
 9328TIP3    H149399   2.440   4.163   4.194  4.3701 -0.6598 -0.8711
 9328TIP3    H249400   2.480   4.130   4.052 -0.6764  1.3599 -2.9950
 9329TIP3   OH249401   1.506   2.829   4.534 -0.3430  0.1026 -0.0790
 9329TIP3    H149402   1.514   2.739   4.502  0.2684  0.1566 -0.1049
 9329TIP3    H249403   1.587   2.871   4.506 -0.8488  0.8050 -0.5047
 9330TIP3   OH249404   1.546   3.068  13.712  0.1943 -0.4164  0.4841
 9330TIP3    H149405   1.608   3.001  13.740  0.1079 -0.0074  1.7010
 9330TIP3    H249406   1.590   3.113  13.640  0.7963 -0.9232  0.5273
 9331TIP3   OH249407   2.728   2.789  11.858  0.5304 -0.3802 -0.5669
 9331TIP3    H149408   2.821   2.814  11.850  0.3918  0.3957  0.0870
 9331TIP3    H249409   2.688   2.861  11.907 -0.8284  0.2293 -2.4683
 9332TIP3   OH249410   6.359   2.149  15.996 -0.5705  0.5496 -0.0227
 9332TIP3    H149411   6.268   2.122  16.010 -0.4246  0.0805  0.0487
 9332TIP3    H249412   6.354   2.241  15.972 -1.0571  0.5558  0.1045
 9333TIP3   OH249413   2.350   2.129  15.541 -0.3268  0.5046 -0.0474
 9333TIP3    H149414   2.390   2.214  15.524  0.0304  0.2964 -0.2528
 9333TIP3    H249415   2.416   2.079  15.589 -1.0189  0.7976  1.2631
 9334TIP3   OH249416   2.827   3.426  16.883 -0.1434 -0.4314  0.5513
 9334TIP3    H149417   2.842   3.519  16.868 -1.6905 -0.1796  0.3726
 9334TIP3    H249418   2.907   3.384  16.854 -0.2098  0.6801 -1.4440
 9335TIP3   OH249419   6.750   2.962   0.777 -0.6433  0.4813 -0.3070
 9335TIP3    H149420   6.784   3.017   0.706 -0.6937  0.3476 -0.4359
 9335TIP3    H249421   6.763   2.872   0.746 -0.0623  0.4090  0.1328
 9336TIP3   OH249422   4.284   0.352   1.361  0.4567  0.0899 -0.8583
 9336TIP3    H149423   4.224   0.277   1.358  0.2281  0.2043  0.1939
 9336TIP3    H249424   4.231   0.425   1.329  0.1117  0.1291 -0.2313
 9337TIP3   OH249425   0.609   6.014   2.542 -0.1127  0.1925 -0.5656
 9337TIP3    H149426   0.524   6.008   2.499 -1.2930  2.4534  1.2256
 9337TIP3    H249427   0.667   6.054   2.477 -1.1431  1.0964 -0.9512
 9338TIP3   OH249428   2.294   2.059   5.295  0.1548 -0.3169 -0.1973
 9338TIP3    H149429   2.316   1.990   5.357  1.4060  0.1135 -0.1480
 9338TIP3    H249430   2.213   2.029   5.253 -0.0231 -1.1896  0.7480
 9339TIP3   OH249431   6.204   4.296   4.574 -0.2142  0.3513 -0.1254
 9339TIP3    H149432   6.244   4.209   4.576  3.2821  1.6301 -3.4367
 9339TIP3    H249433   6.248   4.344   4.643  0.7606  0.5022 -0.8298
 9340TIP3   OH249434   3.715   4.917  16.953 -0.0306  0.3598  0.6540
 9340TIP3    H149435   3.776   4.970  16.902 -1.1817  1.1988  0.1262
 9340TIP3    H249436   3.672   4.979  17.012 -2.7283  0.4363 -1.2228
 9341TIP3   OH249437   6.697   1.998  12.756  0.2292 -0.5729 -0.1839
 9341TIP3    H149438   6.641   2.047  12.816  0.5849  0.3364 -0.5804
 9341TIP3    H249439   6.726   2.062  12.692  2.1653 -0.9047  0.3084
 9342TIP3   OH249440   0.415   2.554   5.149  0.1872 -0.4819 -0.2597
 9342TIP3    H149441   0.426   2.584   5.239 -0.5506  1.4424 -0.7552
 9342TIP3    H249442   0.503   2.559   5.112  0.2790 -0.0365  0.0090
 9343TIP3   OH249443   1.582   5.875  14.689  0.0036  0.1627 -0.1029
 9343TIP3    H149444   1.538   5.919  14.616 -0.9226 -1.3269 -0.4841
 9343TIP3    H249445   1.518   5.814  14.723  0.8750 -0.1008  1.1387
 9344TIP3   OH249446   0.359   0.996   2.127  0.5689 -0.3173  0.6622
 9344TIP3    H149447   0.323   0.951   2.050 -0.3768 -1.7381  1.8740
 9344TIP3    H249448   0.343   1.089   2.110  0.2248 -0.6178 -0.7750
 9345TIP3   OH249449   0.819   5.677   2.610 -0.1580 -0.1514  0.3065
 9345TIP3    H149450   0.879   5.750   2.594  2.7439 -2.6133 -1.0063
 9345TIP3    H249451   0.830   5.657   2.703 -3.2402  2.7186  1.5116
 9346TIP3   OH249452   4.301   6.094  16.418 -0.7070 -0.1191 -0.1183
 9346TIP3    H149453   4.338   6.005  16.421 -2.3499 -1.0039 -2.6987
 9346TIP3    H249454   4.219   6.087  16.468  0.7003  0.9221  2.5464
 9347TIP3   OH249455   6.693   2.344   5.613  0.0251  0.8014  0.2143
 9347TIP3    H149456   6.634   2.309   5.680 -0.0024  1.1268  0.3621
 9347TIP3    H249457   6.781   2.322   5.643  0.0041  0.7922  0.2695
 9348TIP3   OH249458   4.651   0.726   5.207 -0.0981 -0.2166 -0.2508
 9348TIP3    H149459   4.721   0.791   5.207  0.9395 -1.2458  1.6623
 9348TIP3    H249460   4.674   0.666   5.136  1.2866 -0.8459  0.7039
 9349TIP3   OH249461   3.969   2.905   1.061  0.1359  1.0270 -0.3584
 9349TIP3    H149462   3.966   2.952   1.144 -2.5883 -1.7706  1.3568
 9349TIP3    H249463   3.883   2.920   1.021 -0.0971 -0.8508 -0.6596
 9350TIP3   OH249464   1.303   2.449  10.704  0.2564 -0.1056  0.1564
 9350TIP3    H149465   1.244   2.404  10.764  0.0938  0.4798  0.4473
 9350TIP3    H249466   1.354   2.508  10.760  1.2457 -0.7245 -0.0629
 9351TIP3   OH249467   6.565   1.343  16.017 -0.3437 -0.2282 -0.1185
 9351TIP3    H149468   6.470   1.337  16.006 -0.3427 -0.1593 -0.1685
 9351TIP3    H249469   6.587   1.274  16.079 -0.1685 -1.5865 -1.6050
 9352TIP3   OH249470   6.314   2.507   2.893  0.2902 -0.1617 -0.1571
 9352TIP3    H149471   6.292   2.416   2.912 -2.8697  0.6082  0.5952
 9352TIP3    H249472   6.234   2.543   2.855  1.6956  2.1383 -1.1643
 9353TIP3   OH249473   6.578   3.131   2.703  0.0498  0.3133 -0.3438
 9353TIP3    H149474   6.494   3.156   2.665  0.8428  1.8761 -1.2209
 9353TIP3    H249475   6.559   3.109   2.794 -1.1318  1.9176 -0.1687
 9354TIP3   OH249476   5.162   6.393  11.308 -0.2960  0.2611 -0.5316
 9354TIP3    H149477   5.069   6.407  11.295 -0.2983  1.1486  0.3077
 9354TIP3    H249478   5.169   6.361  11.398  0.1673 -0.3695 -0.7812
 9355TIP3   OH249479   5.469   3.221  16.227 -0.1117 -0.0262 -0.0786
 9355TIP3    H149480   5.540   3.170  16.189 -0.4746 -0.3219 -0.3621
 9355TIP3    H249481   5.410   3.239  16.154 -0.6980 -0.4114  0.2880
 9356TIP3   OH249482   6.382   1.898   1.367  0.1110 -0.2543  0.5069
 9356TIP3    H149483   6.331   1.876   1.289  0.7065  0.9376 -0.2477
 9356TIP3    H249484   6.325   1.955   1.419 -0.3130 -1.1062  1.0068
 9357TIP3   OH249485   4.916   1.193   4.560 -0.5865 -0.1461  0.0997
 9357TIP3    H149486   4.982   1.168   4.495 -1.0816 -1.3658  0.0291
 9357TIP3    H249487   4.871   1.267   4.521 -1.3701 -1.3158 -1.3242
 9358TIP3   OH249488   3.016   5.614   5.484 -0.2455 -0.7732 -0.2950
 9358TIP3    H149489   2.923   5.633   5.473  0.1961  1.3039 -0.8722
 9358TIP3    H249490   3.034   5.542   5.424 -1.4939 -1.3393 -0.0261
 9359TIP3   OH249491   6.581   5.100  15.410  0.1325  0.1969 -0.3602
 9359TIP3    H149492   6.511   5.143  15.459  1.5292 -1.3555  3.3969
 9359TIP3    H249493   6.539   5.023  15.370 -0.6779  0.3658  0.1498
 9360TIP3   OH249494   3.598   2.418  15.977 -0.2967 -0.5120  0.3718
 9360TIP3    H149495   3.608   2.448  15.887 -0.1060 -0.6141  0.3587
 9360TIP3    H249496   3.585   2.324  15.970 -1.6046 -0.3473  0.3700
 9361TIP3   OH249497   6.699   5.541   0.295  0.1442 -0.2084  0.1981
 9361TIP3    H149498   6.614   5.543   0.339 -1.4959 -1.0683 -2.6542
 9361TIP3    H249499   6.708   5.451   0.264  2.0835 -0.1038  0.3017
 9362TIP3   OH249500   1.627   1.823   4.559  0.3593 -0.2743 -0.2229
 9362TIP3    H149501   1.559   1.771   4.602 -0.6828  0.4957 -0.8901
 9362TIP3    H249502   1.709   1.779   4.581 -0.0952  0.1286  2.6154
 9363TIP3   OH249503   3.479   0.435  12.539  0.1534 -0.1193 -0.3813
 9363TIP3    H149504   3.489   0.523  12.502 -0.4000  0.5791  1.0667
 9363TIP3    H249505   3.400   0.401  12.498 -1.3204  1.2294  1.1547
 9364TIP3   OH249506   2.004   3.062   4.455 -0.1953  0.4098  0.2214
 9364TIP3    H149507   2.091   3.101   4.456  0.2745 -0.6003  1.3603
 9364TIP3    H249508   2.020   2.969   4.437 -0.9141  0.0104  1.5286
 9365TIP3   OH249509   1.965   2.698  12.085 -0.0439 -0.0768  0.0467
 9365TIP3    H149510   1.998   2.627  12.030  0.0381  0.0004 -0.0041
 9365TIP3    H249511   1.994   2.778  12.041  0.7483 -0.0227  0.6429
 9366TIP3   OH249512   0.045   1.184  10.934 -0.2979 -0.5328 -0.1122
 9366TIP3    H149513   0.006   1.110  10.980 -0.2876  0.2320  1.1586
 9366TIP3    H249514  -0.005   1.260  10.963  2.5909  0.6425  2.3177
 9367TIP3   OH249515   5.947   2.792  16.763 -0.1833  0.0794 -0.3100
 9367TIP3    H149516   6.038   2.817  16.749  1.2553 -3.0730  2.0575
 9367TIP3    H249517   5.902   2.875  16.784  2.0643  1.7147 -1.5209
 9368TIP3   OH249518   0.870   6.355  16.748  0.1863 -0.1394 -0.0294
 9368TIP3    H149519   0.813   6.284  16.778 -0.2173  0.3650  0.4025
 9368TIP3    H249520   0.931   6.370  16.820  0.8915 -0.6862 -0.4947
 9369TIP3   OH249521   1.128   0.171   6.063  1.0598 -0.4993  0.4754
 9369TIP3    H149522   1.157   0.207   6.147  0.2152 -2.4821  1.7094
 9369TIP3    H249523   1.201   0.116   6.034  0.0588 -2.6534  1.7867
 9370TIP3   OH249524   5.972   4.672  15.118 -0.0780  0.2706  0.0417
 9370TIP3    H149525   5.977   4.577  15.105 -1.2464  0.4359 -2.1075
 9370TIP3    H249526   5.880   4.693  15.100  0.4431  1.9701 -0.7728
 9371TIP3   OH249527   1.941   5.468   3.313  0.0510 -0.4599  0.7315
 9371TIP3    H149528   1.945   5.447   3.406  0.7063 -0.8275  0.6289
 9371TIP3    H249529   1.873   5.410   3.278 -0.2438 -0.2717  0.9920
 9372TIP3   OH249530   1.235   4.371   3.094 -0.2610 -0.2944 -0.8871
 9372TIP3    H149531   1.201   4.415   3.172  0.9375 -0.2414 -0.3661
 9372TIP3    H249532   1.207   4.426   3.021 -0.6419  0.1334 -0.4278
 9373TIP3   OH249533   0.928   2.728   1.831 -0.0315  0.5011  0.3792
 9373TIP3    H149534   0.940   2.642   1.870  0.0206 -0.6772 -2.0881
 9373TIP3    H249535   1.015   2.751   1.797 -0.4364  0.7160 -0.5362
 9374TIP3   OH249536   4.965   0.461   0.155  0.4954  0.3095  0.1482
 9374TIP3    H149537   4.988   0.416   0.236 -1.2459 -0.5046  0.2396
 9374TIP3    H249538   4.893   0.519   0.179 -0.6657 -0.6069 -0.9650
 9375TIP3   OH249539   3.921   4.817  16.606  0.6121 -0.4792  0.7919
 9375TIP3    H149540   3.929   4.769  16.524 -0.1339  0.1407  0.3381
 9375TIP3    H249541   3.913   4.750  16.674 -1.3624 -1.0193  0.0784
 9376TIP3   OH249542   3.751   5.257   1.051  0.5289 -0.0685  0.3520
 9376TIP3    H149543   3.665   5.232   1.085  0.6030 -1.5328 -0.4454
 9376TIP3    H249544   3.808   5.183   1.073  0.9851 -0.2593 -1.3072
 9377TIP3   OH249545   2.788   3.868   4.290  0.3006  0.5942  0.6155
 9377TIP3    H149546   2.848   3.794   4.279  1.1916  1.1844  1.4076
 9377TIP3    H249547   2.786   3.884   4.384 -1.5761  0.2203  0.6701
 9378TIP3   OH249548   2.588   5.455   4.788  0.2791  0.2285 -0.1094
 9378TIP3    H149549   2.634   5.398   4.725 -1.0636  0.2395 -1.1442
 9378TIP3    H249550   2.498   5.457   4.757 -0.7504 -0.7843  2.5685
 9379TIP3   OH249551   0.572   4.037  14.734 -0.1498  0.1611 -0.1401
 9379TIP3    H149552   0.574   3.972  14.663 -0.9451  1.2573 -1.1954
 9379TIP3    H249553   0.483   4.074  14.730 -0.3618 -0.0710  1.7348
 9380TIP3   OH249554   6.715   6.124  15.023 -0.1319 -0.2250  0.0718
 9380TIP3    H149555   6.715   6.044  15.075  2.9439  0.1171  0.8322
 9380TIP3    H249556   6.806   6.131  14.992 -1.0268  1.4459 -2.4339
 9381TIP3   OH249557   5.517   4.205  15.557  0.7526 -0.4726  0.0060
 9381TIP3    H149558   5.472   4.132  15.599  0.9896 -0.6020  0.0389
 9381TIP3    H249559   5.595   4.219  15.611 -0.0959  0.8609  0.9519
 9382TIP3   OH249560   0.997   4.004  17.099 -0.3935 -0.9835  0.8623
 9382TIP3    H149561   1.057   4.058  17.151  0.8305 -1.1861 -0.2999
 9382TIP3    H249562   0.976   4.058  17.023 -0.7517 -1.3802  0.6770
 9383TIP3   OH249563   0.719   6.053   4.452 -0.4929 -0.3799  0.3428
 9383TIP3    H149564   0.775   5.975   4.443 -0.0255 -0.3600  2.5435
 9383TIP3    H249565   0.763   6.106   4.518 -0.3612  2.2176 -1.6542
 9384TIP3   OH249566   2.492   1.132  13.222 -0.0563 -0.3564  0.1090
 9384TIP3    H149567   2.558   1.189  13.261 -0.6776  0.5736 -0.1730
 9384TIP3    H249568   2.424   1.191  13.192 -1.3106 -1.3308  0.9105
 9385TIP3   OH249569   3.630   2.386   2.104 -0.0301  0.3869  0.2946
 9385TIP3    H149570   3.688   2.412   2.033 -0.7450  1.6031  0.1293
 9385TIP3    H249571   3.563   2.332   2.062  0.2026  0.1264  0.2544
 9386TIP3   OH249572   0.992   0.831   6.186 -0.4422 -0.6171 -0.2327
 9386TIP3    H149573   0.968   0.821   6.094  0.1895 -0.0740 -0.4655
 9386TIP3    H249574   0.958   0.917   6.210  1.6048  0.3802 -0.7023
 9387TIP3   OH249575   0.523   2.850  14.327 -0.1818  0.0419  0.2190
 9387TIP3    H149576   0.430   2.833  14.342 -0.2103  1.1792  1.5356
 9387TIP3    H249577   0.562   2.849  14.414  1.0997 -0.6313 -0.3343
 9388TIP3   OH249578   4.007   5.257   3.059 -0.0676 -0.6551  0.1890
 9388TIP3    H149579   3.979   5.345   3.033 -1.3463 -0.7843  1.0626
 9388TIP3    H249580   4.022   5.212   2.976  1.9410  0.7482 -0.3040
 9389TIP3   OH249581   5.791   4.425  14.638  0.2076  0.1509 -0.4446
 9389TIP3    H149582   5.856   4.402  14.705 -0.4593 -2.5188 -0.6068
 9389TIP3    H249583   5.811   4.367  14.564 -2.8355 -1.4647 -0.1574
 9390TIP3   OH249584   1.658   6.483  12.990 -0.3685  0.1051  0.5983
 9390TIP3    H149585   1.665   6.390  12.969  0.3417  0.0812  0.9227
 9390TIP3    H249586   1.643   6.485  13.085  0.8746  0.3518  0.8038
 9391TIP3   OH249587   6.331   1.591   2.483  0.0539 -0.6778  0.1331
 9391TIP3    H149588   6.300   1.632   2.564 -0.3146  0.7267 -0.6842
 9391TIP3    H249589   6.290   1.642   2.413  3.6817  0.9616 -1.0312
 9392TIP3   OH249590   2.256   3.074  14.262  0.2207 -0.2470  0.3831
 9392TIP3    H149591   2.226   3.039  14.178  0.6270  0.4595 -0.0622
 9392TIP3    H249592   2.186   3.133  14.290  0.2221 -0.2518  0.3972
 9393TIP3   OH249593   3.452   0.937  11.125 -0.4682  0.1185  0.0219
 9393TIP3    H149594   3.514   0.990  11.075 -0.3528  1.7012  1.7295
 9393TIP3    H249595   3.427   0.867  11.065  0.4360  1.3164 -1.8598
 9394TIP3   OH249596   4.201   3.259  17.360  0.1198 -0.0262 -0.5102
 9394TIP3    H149597   4.149   3.244  17.439  0.5250 -1.6407 -0.5018
 9394TIP3    H249598   4.213   3.171  17.322  0.5120  0.6358 -1.9944
 9395TIP3   OH249599   1.940   2.555   1.263  0.2237  0.4399 -0.1409
 9395TIP3    H149600   1.956   2.464   1.241 -0.5481 -0.4541  2.5789
 9395TIP3    H249601   1.859   2.578   1.218  0.1463 -0.3882 -0.4282
 9396TIP3   OH249602   1.424   3.247  13.154  0.0630  0.0516 -0.2126
 9396TIP3    H149603   1.512   3.283  13.144  0.3721 -0.9182 -1.1708
 9396TIP3    H249604   1.427   3.163  13.108 -1.2109 -0.2469  0.2091
 9397TIP3   OH249605   4.185   2.315   2.764 -0.4500  0.1782  0.0770
 9397TIP3    H149606   4.211   2.251   2.699 -0.6043  0.1853  0.0060
 9397TIP3    H249607   4.100   2.348   2.733 -1.0595 -0.6155  0.8493
 9398TIP3   OH249608   2.873   5.019   2.015  0.2299 -0.0372  0.5957
 9398TIP3    H149609   2.909   4.936   1.981  0.1680 -0.2212  0.9723
 9398TIP3    H249610   2.935   5.046   2.083 -0.4420 -0.4684  1.4013
 9399TIP3   OH249611   0.000   1.679   1.765 -0.2296 -0.2447 -0.3612
 9399TIP3    H149612  -0.017   1.726   1.683 -0.5084  1.4231  0.6081
 9399TIP3    H249613  -0.035   1.737   1.833  0.8940 -1.1211  1.0108
 9400TIP3   OH249614   1.692   3.862   3.058  0.5593 -0.0372 -0.5377
 9400TIP3    H149615   1.623   3.911   3.103 -1.0463 -1.2429 -1.5967
 9400TIP3    H249616   1.701   3.906   2.973  1.2487  0.2305 -0.3329
 9401TIP3   OH249617   6.544   1.188  15.092 -0.1963 -0.4385  0.4642
 9401TIP3    H149618   6.486   1.138  15.149 -0.4867  0.7127  1.2022
 9401TIP3    H249619   6.632   1.159  15.116 -0.3576 -0.5435  0.9322
 9402TIP3   OH249620   2.304   2.456   3.044  0.3173  0.2731 -0.2948
 9402TIP3    H149621   2.354   2.447   2.962  1.1165 -0.2069  0.2288
 9402TIP3    H249622   2.367   2.493   3.106 -0.3934  0.9933  0.0126
 9403TIP3   OH249623   1.522   6.328   3.542  0.1825 -0.4911  0.1296
 9403TIP3    H149624   1.471   6.247   3.536  1.0654 -0.9609 -2.3185
 9403TIP3    H249625   1.605   6.307   3.499  0.3564  1.7757 -0.7892
 9404TIP3   OH249626   4.134   3.707   2.876 -0.0912 -0.5434 -0.0236
 9404TIP3    H149627   4.128   3.665   2.961  2.2134  0.1836  0.5777
 9404TIP3    H249628   4.155   3.635   2.815 -1.7137 -1.0557 -0.0220
 9405TIP3   OH249629   2.658   4.526  17.287 -0.6985 -0.0883  0.4543
 9405TIP3    H149630   2.731   4.469  17.263  0.4920 -0.2325  3.9337
 9405TIP3    H249631   2.621   4.487  17.366 -2.2117  1.9897  0.8715
 9406TIP3   OH249632   2.068   5.751  10.826  0.5723 -0.0282 -0.3344
 9406TIP3    H149633   1.989   5.782  10.871  0.2690 -1.6067  0.2913
 9406TIP3    H249634   2.097   5.826  10.774 -0.6254  0.9795  0.3920
 9407TIP3   OH249635   3.618   2.516  13.754  0.1562  0.2329 -0.2660
 9407TIP3    H149636   3.597   2.480  13.840 -1.3277 -0.6673 -0.9525
 9407TIP3    H249637   3.588   2.607  13.757  1.7656  0.7582  0.7218
 9408TIP3   OH249638   1.275   3.615   4.442  0.9081 -0.6103  0.5519
 9408TIP3    H149639   1.237   3.591   4.527  0.7531 -0.5551  0.4988
 9408TIP3    H249640   1.304   3.705   4.453 -0.4303 -0.1026  0.1054
 9409TIP3   OH249641   1.052   3.704   3.067  0.5461 -0.2249 -0.2483
 9409TIP3    H149642   1.028   3.613   3.046  0.5900  0.1350 -2.0658
 9409TIP3    H249643   1.147   3.701   3.080  0.2774 -0.7744  1.8212
 9410TIP3   OH249644   4.731   1.503   0.327 -0.4458 -0.2371 -0.7417
 9410TIP3    H149645   4.766   1.451   0.399 -0.3438  0.2809 -0.4125
 9410TIP3    H249646   4.809   1.534   0.279 -0.4706  0.2220 -0.4978
 9411TIP3   OH249647   1.676   1.939  16.967  0.2157 -0.2690 -0.6743
 9411TIP3    H149648   1.769   1.946  16.948  0.1387 -0.0490 -0.9807
 9411TIP3    H249649   1.635   2.004  16.911 -0.2837 -1.4994 -1.8125
 9412TIP3   OH249650   1.064   3.176   3.100  0.2196 -0.3326  0.3477
 9412TIP3    H149651   1.157   3.187   3.119  0.2191 -0.4647  0.4340
 9412TIP3    H249652   1.028   3.136   3.180 -0.2370  1.2438  0.9645
 9413TIP3   OH249653   2.993   3.859   1.158  0.2385 -0.1275 -0.7379
 9413TIP3    H149654   2.956   3.865   1.070 -0.9971 -1.2150 -0.3165
 9413TIP3    H249655   3.051   3.935   1.165  2.5295 -1.4517 -3.4648
 9414TIP3   OH249656   6.315   0.180   5.525 -0.3492 -0.1477  0.2075
 9414TIP3    H149657   6.223   0.159   5.511 -0.3828  0.5297 -0.7038
 9414TIP3    H249658   6.362   0.101   5.500 -0.4801  0.6414 -3.0311
 9415TIP3   OH249659   3.481   5.747  16.584 -0.2467 -0.0814 -0.5727
 9415TIP3    H149660   3.496   5.800  16.662 -0.9650 -1.1529  0.3241
 9415TIP3    H249661   3.414   5.683  16.610 -2.5046  1.1838 -2.8329
 9416TIP3   OH249662   5.493   6.155  10.259  0.2082 -0.1457  0.0403
 9416TIP3    H149663   5.458   6.075  10.221 -0.3218  0.5435 -0.9775
 9416TIP3    H249664   5.416   6.201  10.294  0.7382 -1.0593  2.6305
 9417TIP3   OH249665   1.444   2.492   2.464 -0.4547 -0.4727  0.4694
 9417TIP3    H149666   1.529   2.494   2.420 -0.4230 -1.1771  0.4934
 9417TIP3    H249667   1.458   2.437   2.541 -1.1762 -1.3980 -0.0435
 9418TIP3   OH249668   1.063   6.067   1.492  0.2703  0.1522 -0.4871
 9418TIP3    H149669   1.157   6.055   1.481  0.0120 -1.6329 -1.0090
 9418TIP3    H249670   1.033   5.987   1.536 -0.9248  0.9350  0.2019
 9419TIP3   OH249671   4.412   5.171  12.787 -0.1763  0.0658  0.0914
 9419TIP3    H149672   4.418   5.251  12.839  1.3945 -0.1270  0.2529
 9419TIP3    H249673   4.323   5.172  12.752 -0.4532  1.4602  0.7528
 9420TIP3   OH249674   4.742   4.337  11.647 -0.0729 -0.3177  0.8900
 9420TIP3    H149675   4.673   4.403  11.641 -0.5132 -0.8529 -0.4847
 9420TIP3    H249676   4.811   4.369  11.589 -0.1167 -0.8624  0.5335
 9421TIP3   OH249677   5.149   6.639   0.038  1.0342  0.5941  0.1110
 9421TIP3    H149678   5.134   6.615  -0.054  0.7068  1.4466 -0.0644
 9421TIP3    H249679   5.244   6.632   0.049  1.0975  0.6928 -0.3533
 9422TIP3   OH249680   4.206   0.886   3.868 -0.3458 -0.0708  0.3322
 9422TIP3    H149681   4.135   0.868   3.928  0.0088 -2.0376  0.2053
 9422TIP3    H249682   4.236   0.800   3.837  1.3527  0.7356 -0.4637
 9423TIP3   OH249683   3.703   2.633   3.669  0.2040 -0.8069  0.1087
 9423TIP3    H149684   3.618   2.614   3.629  0.3676  0.4920 -0.9370
 9423TIP3    H249685   3.752   2.551   3.661 -0.5777 -1.2540 -0.2595
 9424TIP3   OH249686   4.991   3.192   5.579 -0.5992  0.3467 -0.5579
 9424TIP3    H149687   4.950   3.155   5.657 -1.8494  1.6603 -0.5614
 9424TIP3    H249688   4.986   3.122   5.514 -0.4311 -0.4164  0.2397
 9425TIP3   OH249689   3.301   5.495  12.774 -0.0182  0.0684 -0.4589
 9425TIP3    H149690   3.322   5.402  12.768  0.2459  0.2374 -2.6932
 9425TIP3    H249691   3.381   5.540  12.747 -0.1215  0.9733  0.6645
 9426TIP3   OH249692   0.287   5.275  12.946  1.2279  0.3251 -0.1211
 9426TIP3    H149693   0.278   5.193  12.995  1.9109  1.3527  1.8662
 9426TIP3    H249694   0.346   5.254  12.874 -1.4367 -1.7558 -1.8886
 9427TIP3   OH249695   5.094   1.187  15.488  0.3242 -0.1583  0.4903
 9427TIP3    H149696   5.044   1.110  15.512 -1.7949 -0.3625 -3.6965
 9427TIP3    H249697   5.171   1.152  15.442  1.3823  0.2583  1.8733
 9428TIP3   OH249698   0.825   3.480  12.348  0.5143  0.4155  0.6868
 9428TIP3    H149699   0.747   3.443  12.390  0.7016  0.3607  0.9882
 9428TIP3    H249700   0.845   3.559  12.398  0.6238  0.4557  0.5805
 9429TIP3   OH249701   1.625   4.235   6.011  0.3524  0.7551 -0.2553
 9429TIP3    H149702   1.597   4.165   6.070  1.1681  1.3095  0.8419
 9429TIP3    H249703   1.574   4.311   6.038 -0.2385  0.7000 -1.1727
 9430TIP3   OH249704   1.338   2.954   3.579  0.6991  0.4913 -0.3995
 9430TIP3    H149705   1.375   2.961   3.666  0.2568 -0.5305 -0.1144
 9430TIP3    H249706   1.246   2.979   3.590  0.2938 -0.9320 -0.2780
 9431TIP3   OH249707   5.854   4.356   1.279  0.1950 -0.1923  0.4398
 9431TIP3    H149708   5.931   4.413   1.275  0.2048  0.0531  2.7136
 9431TIP3    H249709   5.881   4.284   1.336 -1.4695  0.3305  1.9827
 9432TIP3   OH249710   2.056   2.969  14.108  0.2424  0.5431  0.3095
 9432TIP3    H149711   1.967   2.994  14.131  1.0381  2.1892  1.8674
 9432TIP3    H249712   2.062   2.983  14.013 -1.3954 -0.5592  0.0037
 9433TIP3   OH249713   3.435   0.207   3.379  0.2906  0.0059  0.9353
 9433TIP3    H149714   3.479   0.131   3.339  0.4193  0.7723 -0.4682
 9433TIP3    H249715   3.381   0.170   3.448  0.7888 -1.3052  0.6561
 9434TIP3   OH249716   1.883   2.137  13.151  0.0523  0.1028  0.0105
 9434TIP3    H149717   1.857   2.196  13.221 -0.4303  1.1504 -1.0006
 9434TIP3    H249718   1.809   2.078  13.140  0.3393 -0.3995  0.7054
 9435TIP3   OH249719   3.254   0.151  11.774  0.3266  0.0316 -0.2105
 9435TIP3    H149720   3.168   0.147  11.816 -0.5658 -0.5777 -1.9894
 9435TIP3    H249721   3.249   0.086  11.704  1.1585  2.1268 -2.3100
 9436TIP3   OH249722   3.934   1.138  13.850 -0.0870  0.4325  0.5062
 9436TIP3    H149723   3.947   1.071  13.917 -0.3257  1.0993  1.2340
 9436TIP3    H249724   3.998   1.206  13.871  0.4260  0.2632 -0.4599
 9437TIP3   OH249725   5.818   2.059  12.158  0.0468 -0.6084  0.0681
 9437TIP3    H149726   5.744   2.022  12.111 -0.4854  0.3125  0.1498
 9437TIP3    H249727   5.788   2.146  12.186  0.3064 -1.1308  2.1590
 9438TIP3   OH249728   5.447   6.120  13.658  0.7552 -0.3023 -0.2563
 9438TIP3    H149729   5.413   6.209  13.669  0.7351 -0.1986 -1.1431
 9438TIP3    H249730   5.399   6.069  13.723 -1.2076 -0.1809 -1.5539
 9439TIP3   OH249731   1.169   3.139   1.724 -0.0881  0.2170 -0.2141
 9439TIP3    H149732   1.080   3.109   1.742 -0.4343 -1.3041 -3.6960
 9439TIP3    H249733   1.161   3.235   1.717 -1.6932  0.0344 -1.3202
 9440TIP3   OH249734   4.709   2.984   5.211  0.1874 -0.1588 -0.6104
 9440TIP3    H149735   4.710   2.920   5.282  0.6274  1.8536  1.3085
 9440TIP3    H249736   4.649   2.947   5.146 -0.4880 -1.9341  0.9235
 9441TIP3   OH249737   5.654   2.349   5.883  0.1401  0.2152  0.2840
 9441TIP3    H149738   5.623   2.393   5.962  0.8649 -0.7324  1.1166
 9441TIP3    H249739   5.702   2.273   5.915  1.1996  0.2872 -1.0433
 9442TIP3   OH249740   1.285   5.229  15.771 -0.4596 -0.1356 -0.1396
 9442TIP3    H149741   1.193   5.230  15.744  0.1227 -1.2712 -2.4190
 9442TIP3    H249742   1.283   5.194  15.860 -2.1266 -1.7089 -0.7298
 9443TIP3   OH249743   4.074   6.721  16.649  0.3732 -0.2943  0.4264
 9443TIP3    H149744   3.991   6.730  16.695  0.1703  0.5767 -0.0884
 9443TIP3    H249745   4.129   6.669  16.708 -0.4068 -0.5506  0.9337
 9444TIP3   OH249746   6.011   1.456  13.552  0.1269  0.0146  0.2067
 9444TIP3    H149747   5.966   1.539  13.540 -1.1553 -0.7890 -0.8446
 9444TIP3    H249748   6.050   1.437  13.466  0.8460 -0.2262  0.5789
 9445TIP3   OH249749   0.921   5.864  12.012 -0.6292 -0.0790 -0.4574
 9445TIP3    H149750   0.956   5.948  12.043  2.2205 -0.6921 -1.7011
 9445TIP3    H249751   0.904   5.815  12.092  0.7170  0.5644  0.2650
 9446TIP3   OH249752   5.808   4.027   2.619 -0.0083 -0.3529  0.0350
 9446TIP3    H149753   5.900   4.010   2.601  0.0163 -1.2882  0.9672
 9446TIP3    H249754   5.807   4.116   2.655  0.6651 -0.6973  0.9387
 9447TIP3   OH249755   0.103   3.594  16.045 -0.1830  0.0818 -0.5310
 9447TIP3    H149756   0.156   3.577  15.967  2.7361 -3.6421  1.9133
 9447TIP3    H249757   0.032   3.531  16.040  0.7271 -1.0568  0.2976
 9448TIP3   OH249758   2.954   2.861   1.786 -0.2155 -0.0861  0.4209
 9448TIP3    H149759   2.968   2.911   1.706 -0.8267 -2.0221 -0.9867
 9448TIP3    H249760   3.035   2.811   1.798 -0.5643 -0.6990  0.2988
 9449TIP3   OH249761   5.765   2.636  16.605  0.0849 -0.0810  0.5459
 9449TIP3    H149762   5.818   2.682  16.671 -0.0166 -0.3452  0.8126
 9449TIP3    H249763   5.694   2.697  16.585  0.2751  0.1180  0.4680
 9450TIP3   OH249764   3.121   3.826   5.440  0.3301  0.2237  0.2492
 9450TIP3    H149765   3.211   3.854   5.458  0.6356 -0.5675  0.0171
 9450TIP3    H249766   3.132   3.745   5.390 -0.5241 -0.4827  1.1898
 9451TIP3   OH249767   2.881   2.696  15.642 -0.2613 -0.3511 -0.1341
 9451TIP3    H149768   2.787   2.701  15.625 -0.4537 -0.1812  0.9472
 9451TIP3    H249769   2.917   2.777  15.604 -0.7265  0.1714  0.5298
 9452TIP3   OH249770   5.946   3.441  10.633  0.3031 -0.9938 -0.1285
 9452TIP3    H149771   6.031   3.451  10.676  0.3997 -1.0040 -0.3169
 9452TIP3    H249772   5.919   3.531  10.612 -0.1269 -0.9226  0.6859
 9453TIP3   OH249773   4.126   2.938   3.894  0.0589 -0.5239 -0.0989
 9453TIP3    H149774   4.065   3.008   3.872 -1.0744 -0.8644  1.7463
 9453TIP3    H249775   4.109   2.870   3.829  1.4735  0.9906 -2.1917
 9454TIP3   OH249776   3.536   5.166   6.894 -0.8345 -0.3726 -0.3645
 9454TIP3    H149777   3.609   5.169   6.831 -0.4197  1.2485  0.1516
 9454TIP3    H249778   3.480   5.095   6.862  0.9024 -1.5891 -0.8423
 9455TIP3   OH249779   1.382   4.208  16.216  0.0019 -0.4146  0.0086
 9455TIP3    H149780   1.425   4.175  16.137  0.0055  0.8934 -0.5462
 9455TIP3    H249781   1.341   4.131  16.255 -2.1351 -0.6972 -2.5737
 9456TIP3   OH249782   0.484   1.810  17.106 -0.4889  0.5359 -0.1485
 9456TIP3    H149783   0.554   1.818  17.170  2.5842 -0.6520 -3.0280
 9456TIP3    H249784   0.429   1.887  17.120  2.5442  2.6675  1.0559
 9457TIP3   OH249785   5.782   6.679  11.180  0.3141  0.0250 -0.5682
 9457TIP3    H149786   5.721   6.605  11.182 -0.6337  0.6871 -2.8573
 9457TIP3    H249787   5.831   6.668  11.098 -1.6737  3.2696 -2.3820
 9458TIP3   OH249788   2.019   1.980   0.584 -0.1186 -0.7164  0.0679
 9458TIP3    H149789   2.088   2.026   0.536  0.4118  0.3700  1.8031
 9458TIP3    H249790   1.961   1.947   0.515  0.9586  0.2043 -1.3468
 9459TIP3   OH249791   4.154   5.626   0.342 -0.1030  0.3128  0.0221
 9459TIP3    H149792   4.114   5.559   0.398  0.7269 -0.4875 -0.3124
 9459TIP3    H249793   4.099   5.627   0.264 -0.3343  0.2829  0.1826
 9460TIP3   OH249794   3.442   0.747   0.752 -0.1866 -0.4168 -0.3338
 9460TIP3    H149795   3.382   0.820   0.770 -1.0563 -1.0393 -0.6353
 9460TIP3    H249796   3.403   0.702   0.677 -0.8438 -2.4472  1.1317
 9461TIP3   OH249797   5.071   3.062  12.668 -0.1022  0.0417  0.0579
 9461TIP3    H149798   5.048   3.089  12.757  0.3348 -0.5398  0.3568
 9461TIP3    H249799   5.056   3.140  12.615 -4.5257 -0.7421 -0.1498
 9462TIP3   OH249800   1.752   3.156  15.363 -0.2012  0.0011  0.2341
 9462TIP3    H149801   1.674   3.130  15.413  0.0186  0.2260  0.6951
 9462TIP3    H249802   1.749   3.100  15.285  0.1821 -1.3418  1.1343
 9463TIP3   OH249803   1.135   1.393  11.932  0.4761 -0.4300  0.7038
 9463TIP3    H149804   1.186   1.412  11.854 -0.1965  2.1120  0.7825
 9463TIP3    H249805   1.064   1.337  11.901  0.4870  0.1516 -0.4360
 9464TIP3   OH249806   5.683   5.990  12.717 -0.5776 -0.6183 -0.3130
 9464TIP3    H149807   5.756   6.004  12.778 -0.5117 -1.5983 -0.1559
 9464TIP3    H249808   5.645   5.906  12.743 -2.3001  0.2553  0.1393
 9465TIP3   OH249809   5.939   6.280   3.985 -0.5332  0.3935 -0.0242
 9465TIP3    H149810   5.929   6.363   4.031 -1.5589  0.2982 -0.0644
 9465TIP3    H249811   6.032   6.278   3.960 -0.3285  1.1773  0.6216
 9466TIP3   OH249812   3.149   6.539   1.074 -0.4768  0.7494  0.4955
 9466TIP3    H149813   3.238   6.568   1.059  0.6452 -1.8130  1.5187
 9466TIP3    H249814   3.112   6.528   0.986  1.6970 -2.0954 -0.2206
 9467TIP3   OH249815   1.070   4.611   4.627  0.7330 -0.2488  0.4904
 9467TIP3    H149816   1.088   4.698   4.591  1.7111 -0.2372  0.9453
 9467TIP3    H249817   1.009   4.571   4.566  3.1156 -0.6440 -1.7987
 9468TIP3   OH249818   0.717   3.455   0.627  0.0127  0.0652  0.1312
 9468TIP3    H149819   0.739   3.493   0.542 -1.1593  0.2279 -0.1095
 9468TIP3    H249820   0.631   3.491   0.648  0.1135 -0.2902  1.2022
 9469TIP3   OH249821   6.144   4.443  14.689  0.1435  0.1764 -0.0636
 9469TIP3    H149822   6.166   4.446  14.596 -1.4385  0.5485 -0.4519
 9469TIP3    H249823   6.178   4.525  14.725 -1.0017  0.9891 -0.7590
 9470TIP3   OH249824   1.035   0.327   4.749 -0.6546 -0.0080  0.0440
 9470TIP3    H149825   1.053   0.399   4.689 -1.7912  0.3421  0.1004
 9470TIP3    H249826   1.037   0.249   4.694  1.5923 -0.0810  0.1569
 9471TIP3   OH249827   3.239   0.083   3.563  0.3512  0.4298 -0.1320
 9471TIP3    H149828   3.165   0.144   3.563 -1.1132 -1.2652 -0.4896
 9471TIP3    H249829   3.239   0.045   3.651 -1.9634 -2.6004 -1.2288
 9472TIP3   OH249830   6.651   5.463   2.132 -0.1191 -0.4396 -0.0665
 9472TIP3    H149831   6.572   5.509   2.104 -0.4326 -0.9020  0.0351
 9472TIP3    H249832   6.712   5.532   2.156 -1.1209 -0.0770  1.6007
 9473TIP3   OH249833   5.856   6.102   3.576  0.4068 -0.5807 -0.2894
 9473TIP3    H149834   5.864   6.033   3.642  0.0407  0.5680  1.0146
 9473TIP3    H249835   5.788   6.071   3.517 -0.0517 -1.1592  0.5272
 9474TIP3   OH249836   3.676   1.169  13.764 -0.0090  0.1437 -0.6697
 9474TIP3    H149837   3.754   1.210  13.802 -0.8244  1.0887  0.0535
 9474TIP3    H249838   3.700   1.077  13.751  0.9839  0.2716  0.1849
 9475TIP3   OH249839   1.445   6.064   3.541  0.2799 -0.4610 -0.2709
 9475TIP3    H149840   1.370   6.095   3.592  0.3229 -1.3632  0.3695
 9475TIP3    H249841   1.407   6.002   3.478  0.4443 -0.7267 -0.1133
 9476TIP3   OH249842   2.592   3.813   3.196  0.2462 -0.0656 -0.2595
 9476TIP3    H149843   2.685   3.827   3.178  0.5848 -1.0095  0.6654
 9476TIP3    H249844   2.591   3.749   3.266 -1.1021  0.3793  0.1528
 9477TIP3   OH249845   3.976   0.444  12.792  0.1549  0.1700  0.1484
 9477TIP3    H149846   4.039   0.372  12.786  0.9152  0.9250 -1.2024
 9477TIP3    H249847   3.939   0.451  12.705 -1.4245  0.1095  0.7833
 9478TIP3   OH249848   0.192   6.617   1.287  0.3292 -0.0101 -0.7796
 9478TIP3    H149849   0.194   6.581   1.198  2.1456 -1.5442 -0.1817
 9478TIP3    H249850   0.100   6.610   1.313 -0.1292 -0.1043 -2.3138
 9479TIP3   OH249851   4.883   0.915  13.263  0.4883 -0.0606  0.3356
 9479TIP3    H149852   4.813   0.979  13.274 -0.2051 -0.7113 -0.1096
 9479TIP3    H249853   4.964   0.965  13.270 -0.0381  1.0161 -0.9116
 9480TIP3   OH249854   2.287   3.566  11.013 -0.4106  0.1068  0.2484
 9480TIP3    H149855   2.251   3.648  10.978 -1.8600 -1.0952 -1.2339
 9480TIP3    H249856   2.222   3.499  10.990  1.0997 -1.5983  0.7128
 9481TIP3   OH249857   4.151   4.064   1.533 -0.6665 -0.1286  0.0236
 9481TIP3    H149858   4.100   3.985   1.512  0.7032 -1.0484 -0.0300
 9481TIP3    H249859   4.185   4.094   1.448 -2.7257  1.6840 -0.2220
 9482TIP3   OH249860   3.118   0.561  11.613  0.2097  0.4225 -0.2746
 9482TIP3    H149861   3.170   0.481  11.626 -0.3540 -0.0206 -0.7095
 9482TIP3    H249862   3.027   0.532  11.618 -0.0044  0.9594 -0.8847
 9483TIP3   OH249863   0.703   4.577  16.246 -0.2918 -0.7151  0.1845
 9483TIP3    H149864   0.694   4.593  16.153  1.8863  1.1737  0.2158
 9483TIP3    H249865   0.615   4.555  16.276 -1.2822 -0.0147 -2.0657
 9484TIP3   OH249866   3.479   3.177  16.610 -0.2567 -0.5251  0.2227
 9484TIP3    H149867   3.562   3.201  16.569 -1.4852  0.5641 -1.7838
 9484TIP3    H249868   3.460   3.090  16.576  0.2630 -0.9994  1.0916
 9485TIP3   OH249869   4.970   2.255   5.065 -0.5064  0.0307 -0.0553
 9485TIP3    H149870   4.880   2.259   5.095 -0.5783  2.2668 -0.3977
 9485TIP3    H249871   5.022   2.255   5.146 -0.7723 -1.1403  0.1385
 9486TIP3   OH249872   4.119   3.280  14.765 -0.0110 -0.4174 -0.1766
 9486TIP3    H149873   4.087   3.302  14.852  2.4210  0.3287  0.6162
 9486TIP3    H249874   4.144   3.188  14.771  1.5158  0.0019  0.4276
 9487TIP3   OH249875   3.525   3.516  14.430  0.4384 -0.3554  0.5427
 9487TIP3    H149876   3.594   3.529  14.494 -0.8407 -1.8604  2.3662
 9487TIP3    H249877   3.568   3.472  14.357  1.7210  0.3664  0.8387
 9488TIP3   OH249878   4.300   2.586   5.562 -0.1249 -0.2014 -0.4216
 9488TIP3    H149879   4.239   2.512   5.553 -1.1860  0.7097 -1.0514
 9488TIP3    H249880   4.266   2.652   5.501  0.3083  1.1255  0.7227
 9489TIP3   OH249881   3.591   2.106  11.800 -0.0948 -0.4599  0.1676
 9489TIP3    H149882   3.630   2.138  11.718  1.6644  2.1542  1.8710
 9489TIP3    H249883   3.505   2.148  11.804  0.3888  0.5212  0.3112
 9490TIP3   OH249884   6.508   2.460   2.357 -0.3970 -0.8130  0.0892
 9490TIP3    H149885   6.463   2.398   2.301 -2.8883  1.5233 -0.7318
 9490TIP3    H249886   6.525   2.412   2.438 -1.0999 -2.8637 -0.9188
 9491TIP3   OH249887   6.761   2.260  14.349 -0.6095  0.4803  0.6220
 9491TIP3    H149888   6.827   2.322  14.382  0.4540 -0.0505 -0.4171
 9491TIP3    H249889   6.813   2.186  14.317 -1.8766 -1.1838  2.2687
 9492TIP3   OH249890   6.492   6.659  17.363 -0.7479  0.1988 -0.1318
 9492TIP3    H149891   6.467   6.747  17.335 -1.6601 -0.4240 -1.3333
 9492TIP3    H249892   6.409   6.613  17.373 -0.3106 -0.3501  1.1659
 9493TIP3   OH249893   0.133   4.272  14.257  0.5118 -0.0191 -0.3701
 9493TIP3    H149894   0.059   4.301  14.311  0.6636 -1.3761  0.6285
 9493TIP3    H249895   0.101   4.279  14.167 -1.5143 -2.1060  0.0636
 9494TIP3   OH249896   3.601   0.129  10.560 -0.5897 -0.3521 -0.5117
 9494TIP3    H149897   3.620   0.053  10.506 -0.0591  0.7375 -1.9200
 9494TIP3    H249898   3.528   0.172  10.515  0.3356  0.9690 -0.8208
 9495TIP3   OH249899   1.765   0.801  14.620 -0.2878  0.0653  0.7330
 9495TIP3    H149900   1.766   0.767  14.709 -0.4109  0.9872  1.0983
 9495TIP3    H249901   1.673   0.796  14.593 -0.0033 -2.0051 -0.0837
 9496TIP3   OH249902   5.335   5.344  15.964 -0.3965  0.9228 -0.0024
 9496TIP3    H149903   5.304   5.419  16.014 -1.1657  1.0263 -0.6249
 9496TIP3    H249904   5.263   5.281  15.966  0.7819 -0.4771  1.8147
 9497TIP3   OH249905   1.710   0.364  15.824 -0.1204 -0.4690 -0.6502
 9497TIP3    H149906   1.699   0.360  15.919 -1.3814 -0.3971 -0.7822
 9497TIP3    H249907   1.625   0.337  15.788  1.0313 -2.9356 -1.7813
 9498TIP3   OH249908   4.329   1.665  17.265 -0.1415  0.3028 -0.1533
 9498TIP3    H149909   4.386   1.719  17.321 -2.8100  2.0080  1.1653
 9498TIP3    H249910   4.319   1.583  17.314 -0.0040  0.5922  0.3774
 9499TIP3   OH249911   3.496   0.283   2.373  0.3346 -0.1916  0.3142
 9499TIP3    H149912   3.492   0.188   2.379  1.2561 -0.2868 -0.4152
 9499TIP3    H249913   3.463   0.304   2.286 -0.8846  0.2538  0.8571
 9500TIP3   OH249914   5.342   6.667   3.952  0.7134 -0.1923 -0.0807
 9500TIP3    H149915   5.364   6.576   3.976  0.9980  0.4691  2.5231
 9500TIP3    H249916   5.249   6.674   3.971  0.6476  0.0193 -0.4792
 9501TIP3   OH249917   1.505   6.390   0.580 -0.0334 -0.1692 -0.3154
 9501TIP3    H149918   1.540   6.478   0.596 -0.2143 -0.1256 -0.1595
 9501TIP3    H249919   1.439   6.377   0.648 -1.2373  0.2670 -1.3422
 9502TIP3   OH249920   6.025   6.481   2.670 -0.5970  0.9558  0.4062
 9502TIP3    H149921   5.953   6.540   2.648 -2.6687 -1.4524  0.2816
 9502TIP3    H249922   6.039   6.428   2.591 -0.8482 -0.6674  1.3952
 9503TIP3   OH249923   0.061   5.227   0.408  0.2971 -0.0641 -1.0299
 9503TIP3    H149924   0.110   5.309   0.399  0.5210 -0.0962 -0.2479
 9503TIP3    H249925  -0.020   5.241   0.360  0.3092  0.6412 -0.8530
 9504TIP3   OH249926   0.168   5.059  14.729  0.4726  0.1852  0.0993
 9504TIP3    H149927   0.214   4.981  14.759 -1.7643 -1.3051 -0.0744
 9504TIP3    H249928   0.131   5.097  14.809  0.3280  0.2267  0.0123
 9505TIP3   OH249929   2.246   0.820   3.839  0.1803  0.0098 -0.2675
 9505TIP3    H149930   2.232   0.730   3.809 -0.0920  0.3089 -1.0799
 9505TIP3    H249931   2.283   0.864   3.763 -0.7180  0.8468 -0.2385
 9506TIP3   OH249932   4.288   6.742   5.113  0.2164 -0.0187  0.1459
 9506TIP3    H149933   4.227   6.793   5.059  1.2620  1.2369  0.1171
 9506TIP3    H249934   4.300   6.795   5.192 -0.1197 -1.1224  0.9650
 9507TIP3   OH249935   4.683   1.486  11.919  0.0639  0.1792 -0.1333
 9507TIP3    H149936   4.616   1.476  11.987 -1.1006  0.8170 -1.1626
 9507TIP3    H249937   4.696   1.398  11.886 -0.0972  0.0173  0.2212
 9508TIP3   OH249938   6.240   3.117  14.442 -0.3351  0.2221 -0.6298
 9508TIP3    H149939   6.323   3.070  14.435  0.3019  1.3122 -0.5945
 9508TIP3    H249940   6.187   3.064  14.501  0.3182 -0.5021 -0.6794
 9509TIP3   OH249941   5.417   4.929  14.234  0.2375  0.0086 -0.0098
 9509TIP3    H149942   5.460   4.876  14.300 -0.3131  0.1018  0.4320
 9509TIP3    H249943   5.484   4.946  14.168  0.3895 -1.3351 -0.2139
 9510TIP3   OH249944   4.028   3.360  13.388 -0.5059  0.3526 -0.1494
 9510TIP3    H149945   3.996   3.450  13.402 -2.2732 -0.5052  1.9482
 9510TIP3    H249946   3.959   3.319  13.336 -0.2123 -0.0535 -0.2134
 9511TIP3   OH249947   0.548   1.462   2.644 -0.2696  0.4575 -0.0783
 9511TIP3    H149948   0.485   1.530   2.669 -0.4514 -0.1513  1.2269
 9511TIP3    H249949   0.626   1.510   2.617  0.0818  1.2251  2.0965
 9512TIP3   OH249950   6.390   2.599  15.492  0.5153  0.1952  0.3675
 9512TIP3    H149951   6.305   2.560  15.472  1.3178 -1.2615 -0.4252
 9512TIP3    H249952   6.442   2.527  15.528  1.9751  0.5434 -0.8908
 9513TIP3   OH249953   4.980   0.088   0.120 -0.1261  0.1926  0.2089
 9513TIP3    H149954   5.021   0.151   0.060  0.9488 -1.0280 -0.3803
 9513TIP3    H249955   5.016   0.003   0.094 -2.1611 -0.8062  0.4352
 9514TIP3   OH249956   2.744   1.790  13.665 -0.3756 -0.2955 -0.1734
 9514TIP3    H149957   2.784   1.802  13.579 -0.7386 -2.1756 -0.6352
 9514TIP3    H249958   2.654   1.820  13.654  0.3072  2.2784  0.4066
 9515TIP3   OH249959   4.476   4.425  16.741  0.3276 -0.3008  0.3602
 9515TIP3    H149960   4.419   4.501  16.756  2.7548  2.4110 -2.6372
 9515TIP3    H249961   4.436   4.380  16.666  0.1295 -0.6222  0.6569
 9516TIP3   OH249962   2.384   0.643   5.361 -0.0331 -0.0488 -0.3182
 9516TIP3    H149963   2.457   0.681   5.311 -0.1567  0.2552 -0.2719
 9516TIP3    H249964   2.404   0.664   5.452  0.0851 -0.4196 -0.2589
 9517TIP3   OH249965   2.686   3.616   4.459 -0.0959 -0.5437  0.2039
 9517TIP3    H149966   2.706   3.708   4.442 -0.4613 -0.6017 -0.5992
 9517TIP3    H249967   2.675   3.610   4.554 -2.3880  0.7432  0.0834
 9518TIP3   OH249968   3.944   4.611  16.821  0.8085 -0.2411  0.1938
 9518TIP3    H149969   4.007   4.540  16.828  1.4740  0.2280 -0.8343
 9518TIP3    H249970   3.942   4.651  16.908  1.3228 -0.7576  0.4448
 9519TIP3   OH249971   1.784   3.613  14.517  0.2855 -0.7461 -0.1039
 9519TIP3    H149972   1.770   3.614  14.612  0.3495 -1.2993 -0.0889
 9519TIP3    H249973   1.786   3.706  14.493  0.1594 -0.6029  0.4182
 9520TIP3   OH249974   1.455   0.481   5.149  0.6091 -0.3785 -0.2455
 9520TIP3    H149975   1.395   0.489   5.075 -0.5671 -1.2904  0.5691
 9520TIP3    H249976   1.406   0.517   5.223  0.9107 -1.4797  0.5137
 9521TIP3   OH249977   5.787   0.576  15.474 -0.0132  0.3591 -0.0949
 9521TIP3    H149978   5.851   0.571  15.403  0.3641 -0.8682  0.2938
 9521TIP3    H249979   5.824   0.520  15.543 -1.1124  0.2896  0.4592
 9522TIP3   OH249980   0.483   3.140  14.862  0.2666 -0.4077 -0.3717
 9522TIP3    H149981   0.558   3.081  14.868  0.0416 -1.2736 -3.8464
 9522TIP3    H249982   0.510   3.208  14.800 -1.5083 -0.2488 -1.0343
 9523TIP3   OH249983   3.503   3.928  12.778  1.1498 -0.1467  0.2247
 9523TIP3    H149984   3.479   4.016  12.807  2.0598  0.1949 -0.0344
 9523TIP3    H249985   3.447   3.870  12.829  1.8582  0.4908  1.8008
 9524TIP3   OH249986   3.958   6.053  16.965 -0.5813 -0.6392  0.0536
 9524TIP3    H149987   3.934   5.972  17.009  0.2418 -0.6144  0.5537
 9524TIP3    H249988   4.043   6.077  17.001 -0.9966  0.6728  0.2228
 9525TIP3   OH249989   5.482   5.159   2.270  0.2699 -0.0516  0.2476
 9525TIP3    H149990   5.445   5.098   2.207  0.7979  0.2931 -0.4090
 9525TIP3    H249991   5.408   5.185   2.325 -0.4755  0.6100 -1.0251
 9526TIP3   OH249992   4.010   5.426   2.827 -0.0379 -0.4343  0.2999
 9526TIP3    H149993   3.934   5.369   2.813 -1.8621  1.6925  1.1056
 9526TIP3    H249994   3.978   5.514   2.812  2.6972  0.4760 -0.8532
 9527TIP3   OH249995   1.038   3.535  12.672  0.1281  0.2731 -0.3238
 9527TIP3    H149996   0.965   3.473  12.671  0.9441 -0.7044 -0.5964
 9527TIP3    H249997   1.051   3.553  12.765  0.4740 -0.6863 -0.1757
 9528TIP3   OH249998   6.501   6.118   2.330 -0.7599 -0.4296 -0.1379
 9528TIP3    H149999   6.511   6.042   2.273 -3.4287 -0.5306 -0.6127
 9528TIP3    H250000   6.538   6.089   2.414  1.2848 -1.0152 -1.1767
 9529TIP3   OH250001   3.477   0.935   1.484  0.0244  0.2700  0.5361
 9529TIP3    H150002   3.469   0.997   1.557  1.0493  0.2863  0.6403
 9529TIP3    H250003   3.449   0.985   1.408 -0.4004  0.4610  0.8116
 9530TIP3   OH250004   1.726   5.398  11.708  0.6415  0.7452  0.2581
 9530TIP3    H150005   1.679   5.463  11.761 -1.2528 -0.1856 -0.1876
 9530TIP3    H250006   1.798   5.447  11.668  0.7543  1.9788  1.8877
 9531TIP3   OH250007   6.371   4.933   2.115  0.1624 -0.4570  0.1267
 9531TIP3    H150008   6.339   5.021   2.131  0.6259 -0.4580  1.0869
 9531TIP3    H250009   6.373   4.891   2.201 -3.4498 -2.6178 -0.6068
 9532TIP3   OH250010   5.550   1.404   6.081 -0.1676 -0.1288 -0.4236
 9532TIP3    H150011   5.499   1.453   6.017 -1.5736  0.6057  1.1809
 9532TIP3    H250012   5.612   1.468   6.117 -0.8921  0.0787  0.5003
 9533TIP3   OH250013   5.810   1.398  13.764 -0.3449  0.3141 -0.1101
 9533TIP3    H150014   5.835   1.397  13.856 -1.5239  1.1947  0.2380
 9533TIP3    H250015   5.885   1.438  13.719 -0.5368  1.6803  0.7312
 9534TIP3   OH250016   5.780   6.038  11.664  0.0064 -0.6480  0.3223
 9534TIP3    H150017   5.815   6.106  11.606 -0.0499 -0.1604  0.8485
 9534TIP3    H250018   5.857   5.999  11.704 -0.0073  0.2846  1.3220
 9535TIP3   OH250019   0.339   0.777   5.980  0.4757 -0.2210  0.4886
 9535TIP3    H150020   0.269   0.774   6.044 -0.5285  0.1107 -0.5482
 9535TIP3    H250021   0.361   0.686   5.963  0.8598 -0.3060  1.3992
 9536TIP3   OH250022   0.591   5.821  14.656 -0.1653  0.2127  0.1700
 9536TIP3    H150023   0.669   5.845  14.705 -0.8403  1.6288  0.6166
 9536TIP3    H250024   0.624   5.776  14.578  1.0492  0.2262  0.6653
 9537TIP3   OH250025   6.340   3.838   4.400  0.2949  0.0535 -0.3306
 9537TIP3    H150026   6.314   3.749   4.378  1.1296 -0.6285  1.2212
 9537TIP3    H250027   6.409   3.859   4.337  0.1281 -0.4104 -0.6747
 9538TIP3   OH250028   6.216   4.588   0.328 -0.0130 -0.4775 -0.8307
 9538TIP3    H150029   6.124   4.614   0.326 -0.2780 -1.4016 -0.9846
 9538TIP3    H250030   6.214   4.496   0.354  0.7606 -0.9686 -2.4021
 9539TIP3   OH250031   4.760   0.912  11.787  0.0548 -0.4695 -0.0345
 9539TIP3    H150032   4.765   1.002  11.755  0.6067 -0.4870 -0.0173
 9539TIP3    H250033   4.669   0.900  11.813  0.0959  0.2605  0.4611
 9540TIP3   OH250034   4.020   3.743  12.758 -0.2521 -0.2221  0.2970
 9540TIP3    H150035   4.063   3.695  12.829  0.0092 -0.0303  0.2717
 9540TIP3    H250036   3.997   3.828  12.797  0.7493  0.2513 -0.1038
 9541TIP3   OH250037   4.178   4.033  14.156  0.0039  0.0867  0.6864
 9541TIP3    H150038   4.225   3.969  14.102 -1.3960  1.1424 -1.9630
 9541TIP3    H250039   4.241   4.103  14.171  0.1485  0.2328 -0.4944
 9542TIP3   OH250040   2.873   6.626  15.755  0.4825  0.4874 -0.2572
 9542TIP3    H150041   2.863   6.545  15.704  1.3950 -0.3027  0.7763
 9542TIP3    H250042   2.786   6.666  15.755 -0.7031 -1.8690  1.4340
 9543TIP3   OH250043   0.125   2.839  10.914 -0.5748 -0.7054  0.4345
 9543TIP3    H150044   0.080   2.756  10.897 -2.3811  0.7311 -2.6661
 9543TIP3    H250045   0.166   2.861  10.830  1.0443  0.9101  1.5806
 9544TIP3   OH250046   3.328   5.655  15.818 -0.0043  0.2447 -0.5349
 9544TIP3    H150047   3.330   5.628  15.910 -0.5278  1.3864 -0.1786
 9544TIP3    H250048   3.321   5.572  15.769  1.0678 -0.4238  0.3983
 9545TIP3   OH250049   0.783   1.880   5.825 -0.1029  0.0626 -0.1095
 9545TIP3    H150050   0.706   1.920   5.785  0.3837  0.8983 -0.2337
 9545TIP3    H250051   0.851   1.948   5.819  0.3660 -0.3027  0.8755
 9546TIP3   OH250052   2.286   6.633   4.861 -0.5502  0.5789  0.5120
 9546TIP3    H150053   2.234   6.560   4.894  0.3590  0.0261  0.7486
 9546TIP3    H250054   2.377   6.605   4.871 -0.2067  1.2675 -0.4764
 9547TIP3   OH250055   1.886   3.193  10.463 -0.6297 -0.1935 -0.6363
 9547TIP3    H150056   1.806   3.152  10.432  0.1707 -0.8544 -1.9332
 9547TIP3    H250057   1.880   3.189  10.559 -0.4204 -3.8269 -0.6294
 9548TIP3   OH250058   5.421   1.859   5.316 -0.1588  0.2548 -0.2485
 9548TIP3    H150059   5.452   1.783   5.365 -1.3086 -1.8277 -2.5442
 9548TIP3    H250060   5.492   1.923   5.322  0.5642 -0.6929  2.3226
 9549TIP3   OH250061   2.581   6.631   1.790  0.6009  0.1996  0.1256
 9549TIP3    H150062   2.615   6.544   1.768 -0.3580 -0.1273 -0.1216
 9549TIP3    H250063   2.555   6.624   1.882  0.0936  0.0691 -0.0210
 9550TIP3   OH250064   1.573   1.330  10.897 -0.2563  0.2213 -0.5887
 9550TIP3    H150065   1.647   1.380  10.864 -0.9498  0.8188 -1.2881
 9550TIP3    H250066   1.561   1.260  10.833  0.2812 -0.4415  0.0227
 9551TIP3   OH250067   1.288   5.881   5.780  0.7578  0.4280  0.1601
 9551TIP3    H150068   1.277   5.976   5.789  1.3933  0.4374  1.0398
 9551TIP3    H250069   1.382   5.869   5.774  0.6835 -0.1554  0.1552
 9552TIP3   OH250070   2.391   2.397   0.362  0.5467 -0.2440 -0.9138
 9552TIP3    H150071   2.368   2.422   0.273  0.2412 -0.9954 -1.0589
 9552TIP3    H250072   2.308   2.370   0.402  0.1143  2.8941  0.6090
 9553TIP3   OH250073   3.291   4.285  14.218  0.4030  0.1861 -0.3149
 9553TIP3    H150074   3.331   4.355  14.269  0.7463 -0.8018  0.8312
 9553TIP3    H250075   3.280   4.213  14.280 -2.0464 -0.0211 -0.8747
 9554TIP3   OH250076   5.118   4.162   0.344  0.4807  0.0804 -0.0616
 9554TIP3    H150077   5.041   4.106   0.328  0.7459 -0.4843  0.5618
 9554TIP3    H250078   5.187   4.123   0.292  0.5576  0.0787  0.0415
 9555TIP3   OH250079   3.877   5.936   3.776  0.3156 -0.5945  0.2379
 9555TIP3    H150080   3.789   5.903   3.794  0.0200  0.2586  0.4057
 9555TIP3    H250081   3.915   5.953   3.862  0.0227  0.5966  0.1572
 9556TIP3   OH250082   5.446   5.671  14.358 -0.3533 -0.0519 -0.0038
 9556TIP3    H150083   5.396   5.601  14.317  0.7428 -0.4163 -0.7773
 9556TIP3    H250084   5.536   5.638  14.360 -0.3744 -0.1817  3.0463
 9557TIP3   OH250085   6.104   4.677   4.699 -0.5322  0.0445  0.6438
 9557TIP3    H150086   6.193   4.643   4.705 -0.0075  1.1391 -0.6520
 9557TIP3    H250087   6.058   4.615   4.642 -0.9874 -1.1920  2.2568
 9558TIP3   OH250088   4.576   2.723   2.383  0.0694 -0.2398  0.0085
 9558TIP3    H150089   4.636   2.768   2.443  1.9942  0.4374 -2.2520
 9558TIP3    H250090   4.633   2.673   2.325 -1.8079 -2.2415 -0.2218
 9559TIP3   OH250091   4.483   6.706  15.274  0.3460  0.2356  0.4859
 9559TIP3    H150092   4.401   6.659  15.289 -0.3831  1.1671 -0.4336
 9559TIP3    H250093   4.527   6.655  15.206  0.6338 -0.3793  1.1241
 9560TIP3   OH250094   5.196   4.938   4.527 -0.1972  0.1938 -0.4908
 9560TIP3    H150095   5.281   4.906   4.558 -0.4251 -0.2288 -0.2948
 9560TIP3    H250096   5.132   4.882   4.571 -0.6263  1.2718  0.3020
 9561TIP3   OH250097   2.304   0.992   3.325  0.1583 -0.0721 -0.1785
 9561TIP3    H150098   2.246   0.978   3.250  0.5857 -0.2310 -0.4833
 9561TIP3    H250099   2.352   1.072   3.303  1.8263 -1.2730 -1.0776
 9562TIP3   OH250100   0.670   2.100  15.774 -0.0106 -0.1019  0.0202
 9562TIP3    H150101   0.660   2.195  15.772  0.3444 -0.0559 -1.4915
 9562TIP3    H250102   0.758   2.086  15.807  0.4994  0.1930 -1.1431
 9563TIP3   OH250103   4.875   4.671  15.493 -0.5349  0.4977  0.9560
 9563TIP3    H150104   4.786   4.683  15.461 -0.2882 -0.5102 -0.1663
 9563TIP3    H250105   4.930   4.696  15.419  0.1126  0.7657  1.5194
 9564TIP3   OH250106   4.311   1.601   4.338 -0.2421  0.7776  0.2209
 9564TIP3    H150107   4.309   1.629   4.429 -1.2182  0.8178  0.1977
 9564TIP3    H250108   4.220   1.576   4.319  0.0887  0.1096 -0.5316
 9565TIP3   OH250109   3.133   1.708  16.313  0.7653 -0.5109  0.1282
 9565TIP3    H150110   3.040   1.687  16.323  0.2757 -0.3833 -3.0332
 9565TIP3    H250111   3.177   1.623  16.309  0.3946 -0.6638 -0.9595
 9566TIP3   OH250112   4.326   6.751   0.978 -0.0782 -0.1050 -0.2839
 9566TIP3    H150113   4.312   6.774   1.070 -1.3010 -1.5421 -0.0755
 9566TIP3    H250114   4.388   6.679   0.980  0.2246  0.1402 -0.6318
 9567TIP3   OH250115   1.089   2.380  13.197  0.5592 -0.4485 -0.3614
 9567TIP3    H150116   1.042   2.386  13.280 -0.9928 -1.6639 -1.1007
 9567TIP3    H250117   1.124   2.291  13.195 -1.1469 -1.1386 -1.8464
 9568TIP3   OH250118   4.084   2.594   1.720 -0.2805  0.2711  0.1745
 9568TIP3    H150119   4.178   2.604   1.705 -0.2380 -0.3212  0.0198
 9568TIP3    H250120   4.072   2.500   1.734 -0.7835  0.4013  0.6590
 9569TIP3   OH250121   0.042   5.367  14.280  0.2378  0.4883 -0.0399
 9569TIP3    H150122   0.059   5.298  14.343  0.4091  0.5057 -0.0682
 9569TIP3    H250123   0.128   5.404  14.260  0.2895 -0.1107 -0.9672
 9570TIP3   OH250124   2.143   1.788   4.915 -0.1335 -0.0133 -0.1113
 9570TIP3    H150125   2.113   1.784   5.006  1.2754  0.2913  0.3983
 9570TIP3    H250126   2.080   1.846   4.871 -2.3071 -2.1273  0.0062
 9571TIP3   OH250127   6.602   6.621  14.692  0.1689  0.3961  0.2846
 9571TIP3    H150128   6.515   6.645  14.722  0.5140  1.0274  0.8172
 9571TIP3    H250129   6.662   6.670  14.749  0.8679  0.1154 -0.1839
 9572TIP3   OH250130   4.781   1.727  13.855 -0.5481  0.5484  0.3288
 9572TIP3    H150131   4.796   1.763  13.942 -1.7394 -0.0862  0.8295
 9572TIP3    H250132   4.853   1.665  13.842  0.2172  1.3957  0.4114
 9573TIP3   OH250133   2.509   0.848   5.195  0.6593 -0.5277  0.0828
 9573TIP3    H150134   2.502   0.828   5.102  3.0303 -1.7832  0.0692
 9573TIP3    H250135   2.478   0.938   5.203 -1.5662 -1.0740 -1.5332
 9574TIP3   OH250136   4.281   4.739  12.286 -0.1496  0.0714 -0.7049
 9574TIP3    H150137   4.280   4.657  12.335 -1.2434  0.1158 -0.6251
 9574TIP3    H250138   4.360   4.734  12.232  0.2757 -0.6304 -0.0389
 9575TIP3   OH250139   4.158   0.502   0.103  0.0455  0.0401  0.4304
 9575TIP3    H150140   4.210   0.442   0.155 -2.7701 -1.8050  1.3499
 9575TIP3    H250141   4.218   0.573   0.080  2.7018 -1.5920  1.8993
 9576TIP3   OH250142   0.644   1.617  14.819  0.0405 -0.5352  0.5940
 9576TIP3    H150143   0.682   1.651  14.738 -0.2582 -0.4572  0.4890
 9576TIP3    H250144   0.665   1.523  14.817 -0.5109 -0.6493  0.1254
 9577TIP3   OH250145   6.393   4.919   2.376  0.0447  0.2118 -0.3581
 9577TIP3    H150146   6.426   4.967   2.451  0.0520 -0.0671 -0.1810
 9577TIP3    H250147   6.374   4.831   2.410 -0.2801  0.1865 -0.6007
 9578TIP3   OH250148   1.944   4.968  17.322 -0.2582  0.2895  0.2250
 9578TIP3    H150149   2.023   4.989  17.372 -0.7502  0.8550  0.7782
 9578TIP3    H250150   1.872   4.987  17.382 -0.8565  0.8270 -0.6508
 9579TIP3   OH250151   4.630   6.441   1.152 -0.0059 -0.2237  0.1467
 9579TIP3    H150152   4.568   6.470   1.086 -1.8125 -1.2439  1.2962
 9579TIP3    H250153   4.579   6.440   1.234  1.5634 -0.9558  1.1683
 9580TIP3   OH250154   0.351   0.911  15.864  0.3451 -0.1096  0.3824
 9580TIP3    H150155   0.258   0.903  15.884 -0.7126  0.6998 -3.4130
 9580TIP3    H250156   0.395   0.864  15.934 -3.1656 -4.9925 -0.2341
 9581TIP3   OH250157   5.014   5.075   5.211 -0.1032  0.0443  0.1053
 9581TIP3    H150158   4.935   5.038   5.249  0.0210 -0.4284 -0.0897
 9581TIP3    H250159   5.030   5.155   5.262 -0.2631 -0.2710  0.6610
 9582TIP3   OH250160   5.425   5.156   1.732  0.5269 -0.6154  0.4260
 9582TIP3    H150161   5.414   5.074   1.780 -1.5574 -0.5810  0.1273
 9582TIP3    H250162   5.414   5.224   1.798  0.7431 -0.5800  0.4244
 9583TIP3   OH250163   3.199   1.676  17.197 -0.2433  0.5850  0.3104
 9583TIP3    H150164   3.275   1.618  17.206 -0.7177 -0.0052  0.4927
 9583TIP3    H250165   3.203   1.732  17.275 -1.1898 -0.8528  1.4434
 9584TIP3   OH250166   6.425   4.939   2.968  0.6887  0.0177  0.4457
 9584TIP3    H150167   6.387   4.859   2.930  1.0165  0.0384  0.0580
 9584TIP3    H250168   6.352   4.983   3.011  0.3011 -0.0141 -0.1643
 9585TIP3   OH250169   2.120   6.039   3.002 -0.0414 -0.0116 -0.1705
 9585TIP3    H150170   2.053   6.058   2.937 -1.0072  0.1000  0.8267
 9585TIP3    H250171   2.125   5.943   3.004  0.0075 -0.0156 -0.4215
 9586TIP3   OH250172   0.954   4.271   1.565  0.0523  0.2820 -0.3830
 9586TIP3    H150173   0.884   4.297   1.625 -0.6634  1.1258 -1.5303
 9586TIP3    H250174   0.960   4.176   1.575  0.8423  0.5049  1.9183
 9587TIP3   OH250175   4.205   5.016  13.108  0.0948 -0.1745  0.1739
 9587TIP3    H150176   4.145   4.948  13.075  0.5399  0.3615 -1.8660
 9587TIP3    H250177   4.291   4.990  13.074  0.4147  0.9178  0.1145
 9588TIP3   OH250178   2.768   5.376   4.067  0.1082  0.0035 -0.0562
 9588TIP3    H150179   2.847   5.350   4.114  0.5792  0.7812 -0.3902
 9588TIP3    H250180   2.725   5.439   4.126 -0.6143 -0.9133  0.4115
 9589TIP3   OH250181   3.007   1.545   1.902 -0.3245 -0.4096 -0.1155
 9589TIP3    H150182   2.973   1.456   1.907  0.4666 -0.7304 -0.3839
 9589TIP3    H250183   3.075   1.542   1.835  1.0247 -0.0540  1.1798
 9590TIP3   OH250184   5.385   4.010  15.677  0.4613 -0.2292 -0.4725
 9590TIP3    H150185   5.324   3.952  15.630  0.2708  0.1493 -0.6996
 9590TIP3    H250186   5.427   3.954  15.741 -0.1884 -0.4838 -0.2628
 9591TIP3   OH250187   2.389   0.339   2.169 -0.3231 -0.1682 -0.3906
 9591TIP3    H150188   2.430   0.338   2.082  0.7816  1.5586  0.0591
 9591TIP3    H250189   2.418   0.421   2.208  0.9261 -1.8327  2.4552
 9592TIP3   OH250190   2.603   0.260  10.368 -0.7487 -0.0586  0.1091
 9592TIP3    H150191   2.632   0.337  10.418  1.1507 -1.1371  0.7433
 9592TIP3    H250192   2.668   0.193  10.386 -2.4193 -1.9033 -0.3407
 9593TIP3   OH250193   4.888   2.143  12.725  0.1119  0.2486 -0.6131
 9593TIP3    H150194   4.963   2.085  12.742  0.6496  1.4391  1.4171
 9593TIP3    H250195   4.927   2.228  12.706 -0.7207  0.4717 -1.4128
 9594TIP3   OH250196   1.011   6.145  12.225  0.1015  0.4466 -0.2336
 9594TIP3    H150197   1.093   6.095  12.224  0.0922  0.3883  0.7817
 9594TIP3    H250198   1.024   6.210  12.294 -1.0615 -0.1855  0.6156
 9595TIP3   OH250199   4.854   5.709  13.551 -0.3732  0.5481  0.4799
 9595TIP3    H150200   4.837   5.701  13.645 -2.2342  0.8502  0.1970
 9595TIP3    H250201   4.930   5.653  13.536 -0.9571 -0.7014  1.9049
 9596TIP3   OH250202   2.243   6.083   4.424  0.3050 -0.0166 -0.3031
 9596TIP3    H150203   2.156   6.058   4.456 -0.1831  1.5785 -0.2891
 9596TIP3    H250204   2.232   6.091   4.329  0.8543 -1.2957 -0.4995
 9597TIP3   OH250205   5.098   3.921  11.412  0.2458  0.1607 -0.5565
 9597TIP3    H150206   5.112   3.827  11.405  1.5506  0.3185 -0.2932
 9597TIP3    H250207   5.085   3.950  11.321 -0.0413 -0.2406 -0.6479
 9598TIP3   OH250208   0.640   1.552   0.471  0.4558  0.3919 -0.9179
 9598TIP3    H150209   0.573   1.595   0.417  0.1099  1.0305 -0.0080
 9598TIP3    H250210   0.605   1.556   0.560  1.4633  0.2430 -0.5048
 9599TIP3   OH250211   1.211   5.517  13.808  0.1747 -0.0241  0.0031
 9599TIP3    H150212   1.122   5.549  13.818  0.6419  0.7152  2.2671
 9599TIP3    H250213   1.233   5.479  13.892  1.9495 -0.3379 -0.5580
 9600TIP3   OH250214   0.719   6.011   1.845 -0.0263  0.3623  0.0532
 9600TIP3    H150215   0.743   5.946   1.911 -1.3262  0.7012  0.8943
 9600TIP3    H250216   0.656   6.068   1.888 -0.1226  1.2401 -1.1669
 9601TIP3   OH250217   2.953   3.469  15.857 -0.0216  0.1715  0.3399
 9601TIP3    H150218   2.865   3.434  15.838  0.1941 -0.5417  0.6182
 9601TIP3    H250219   3.000   3.395  15.895  0.9475  0.3286 -0.5147
 9602TIP3   OH250220   3.184   1.980  17.167  0.6407  0.0933  0.3310
 9602TIP3    H150221   3.183   2.053  17.106  0.9815  0.3111  0.5807
 9602TIP3    H250222   3.253   2.003  17.230  0.2131 -0.0682  0.8614
 9603TIP3   OH250223   3.601   5.149   2.750  0.3066 -0.0459  0.1341
 9603TIP3    H150224   3.581   5.061   2.781 -0.8052 -0.6371 -2.0860
 9603TIP3    H250225   3.518   5.184   2.719  1.0718  1.0210 -0.8263
 9604TIP3   OH250226   6.537   2.588   0.707 -0.7672 -0.5260  0.1302
 9604TIP3    H150227   6.572   2.503   0.681 -0.0043  0.1042 -0.9296
 9604TIP3    H250228   6.613   2.638   0.737 -0.9985  0.2546 -0.5520
 9605TIP3   OH250229   6.721   2.594  11.902 -0.1318 -0.2083  0.0909
 9605TIP3    H150230   6.663   2.624  11.972  1.8125  1.9982  0.9094
 9605TIP3    H250231   6.737   2.502  11.922 -0.9585 -0.0613  1.5837
 9606TIP3   OH250232   6.731   2.697   6.246 -0.4970 -0.0380 -0.1782
 9606TIP3    H150233   6.635   2.705   6.244 -0.4534  1.7210  1.3676
 9606TIP3    H250234   6.748   2.606   6.222 -2.5055 -0.2249 -1.1748
 9607TIP3   OH250235   5.357   2.448   3.627 -1.3302 -0.1816  0.6116
 9607TIP3    H150236   5.264   2.465   3.642 -1.1099 -0.3680  2.3232
 9607TIP3    H250237   5.365   2.353   3.628 -0.7280 -0.1690  3.4114
 9608TIP3   OH250238   2.107   4.608   1.090 -0.0394  0.5120 -0.2775
 9608TIP3    H150239   2.044   4.660   1.040 -0.4115  0.9842  0.6545
 9608TIP3    H250240   2.166   4.572   1.024 -0.1046  1.6667 -0.9951
 9609TIP3   OH250241   6.117   4.010  14.619 -0.0550 -0.4697 -0.4571
 9609TIP3    H150242   6.193   3.970  14.662  3.2633  3.3795 -2.0122
 9609TIP3    H250243   6.065   4.046  14.691  0.2729 -2.0225  0.6122
 9610TIP3   OH250244   3.928   2.435   2.700  0.0861  0.1798  0.2931
 9610TIP3    H150245   3.881   2.374   2.643 -1.5291 -0.0022  1.7517
 9610TIP3    H250246   3.861   2.472   2.757  1.3893  1.6070  0.9904
 9611TIP3   OH250247   6.161   4.122  11.275 -0.1674  0.0627  0.0364
 9611TIP3    H150248   6.168   4.199  11.217  0.0148 -0.9855 -1.4004
 9611TIP3    H250249   6.252   4.091  11.283 -0.3138 -0.3558  0.0898
 9612TIP3   OH250250   5.609   0.581  13.487  0.5606  0.2193  0.3028
 9612TIP3    H150251   5.566   0.662  13.459 -0.7270 -0.4646  0.2259
 9612TIP3    H250252   5.689   0.578  13.435 -0.1566  0.6475 -0.8777
 9613TIP3   OH250253   1.171   6.270   4.041 -0.4995  0.7183  0.1266
 9613TIP3    H150254   1.190   6.177   4.052 -0.0538  0.7433 -0.4401
 9613TIP3    H250255   1.188   6.288   3.949 -2.5313  0.9044 -0.2694
 9614TIP3   OH250256   4.747   6.639  14.334  0.3225  0.5726 -0.1892
 9614TIP3    H150257   4.797   6.684  14.402  0.4750  0.3968 -0.1827
 9614TIP3    H250258   4.778   6.548  14.339 -0.1429  0.4191 -0.0517
 9615TIP3   OH250259   5.999   1.645   5.873 -0.5251  0.6648  0.1428
 9615TIP3    H150260   6.054   1.716   5.905 -0.1458  1.3085 -1.7860
 9615TIP3    H250261   6.056   1.568   5.876 -0.2225  0.8863  0.2082
 9616TIP3   OH250262   1.973   6.366   6.568 -0.1434 -0.5017 -0.0224
 9616TIP3    H150263   1.896   6.347   6.622  0.2486 -1.1726  0.3121
 9616TIP3    H250264   1.983   6.461   6.573 -0.5271 -0.4845  0.5039
 9617TIP3   OH250265   0.539   1.599  11.208 -0.0351  0.7077  0.1787
 9617TIP3    H150266   0.454   1.638  11.185 -0.4618  0.4876  1.3252
 9617TIP3    H250267   0.588   1.600  11.126 -1.2280  0.6121 -0.5621
 9618TIP3   OH250268   6.693   3.832  11.233  0.2025  0.3033  0.5868
 9618TIP3    H150269   6.697   3.741  11.262 -1.4403  0.5719  1.7886
 9618TIP3    H250270   6.661   3.827  11.143 -2.0325 -0.2446  1.3661
 9619TIP3   OH250271   4.200   5.577   5.701  0.0699  0.7661  0.2600
 9619TIP3    H150272   4.195   5.485   5.673 -1.1372  1.0197 -0.4537
 9619TIP3    H250273   4.238   5.574   5.788  0.5404 -0.3699  0.0313
 9620TIP3   OH250274   0.376   2.714   4.160 -0.1337  0.4058  0.5724
 9620TIP3    H150275   0.429   2.723   4.240 -1.6677 -2.3985  2.0589
 9620TIP3    H250276   0.440   2.694   4.091  1.0018 -0.3194  1.7829
 9621TIP3   OH250277   1.560   5.190   4.635 -0.1926  0.1390 -0.5342
 9621TIP3    H150278   1.474   5.226   4.659  0.1290 -0.1457  1.2178
 9621TIP3    H250279   1.602   5.260   4.585 -0.7592  1.0223  0.1723
 9622TIP3   OH250280   5.930   0.735  13.105 -0.2890  0.4588 -0.5392
 9622TIP3    H150281   6.013   0.696  13.132 -0.2273  0.9116 -0.0547
 9622TIP3    H250282   5.954   0.823  13.075 -0.3636  0.0040 -2.0259
 9623TIP3   OH250283   2.498   4.609   0.258  0.0979  0.2342  0.1134
 9623TIP3    H150284   2.446   4.529   0.261 -1.1667  1.0440  0.8511
 9623TIP3    H250285   2.587   4.581   0.281  0.3486 -1.3998 -2.4862
 9624TIP3   OH250286   2.712   1.387   3.771  0.3194  0.0423 -0.1349
 9624TIP3    H150287   2.643   1.340   3.723 -0.5301  0.2307  0.8731
 9624TIP3    H250288   2.786   1.388   3.710 -0.0129 -1.5844 -0.6328
 9625TIP3   OH250289   1.246   4.290  12.716 -0.1673  0.4445  0.0431
 9625TIP3    H150290   1.181   4.324  12.778  0.1918 -0.2910  0.8470
 9625TIP3    H250291   1.251   4.197  12.735  2.3797  0.7296  1.2220
 9626TIP3   OH250292   2.258   2.693   5.328  0.2573  0.1473 -0.3392
 9626TIP3    H150293   2.305   2.775   5.340  0.2887  0.5041 -2.4252
 9626TIP3    H250294   2.324   2.631   5.297 -0.1991  0.0227 -1.1067
 9627TIP3   OH250295   1.854   2.350   0.992 -0.0669  0.3108  0.4917
 9627TIP3    H150296   1.829   2.274   0.940  0.1760  0.7501 -0.2835
 9627TIP3    H250297   1.894   2.313   1.071  0.6822 -0.3695 -0.1848
 9628TIP3   OH250298   0.925   0.450  15.444  0.3454  0.3818 -0.4755
 9628TIP3    H150299   0.894   0.360  15.437 -0.6083  0.5675  0.8975
 9628TIP3    H250300   0.845   0.502  15.453  0.9252  0.9353  2.6596
 9629TIP3   OH250301   1.583   0.270   4.432 -0.0181 -0.0132  0.0090
 9629TIP3    H150302   1.494   0.238   4.444  0.2125 -0.2127  1.3339
 9629TIP3    H250303   1.594   0.277   4.337 -0.7013 -2.0830 -0.2687
 9630TIP3   OH250304   4.203   2.600  13.343  0.5870 -0.0731  0.2960
 9630TIP3    H150305   4.131   2.650  13.381 -0.2816 -0.3089 -0.9640
 9630TIP3    H250306   4.221   2.531  13.406 -0.6964 -0.3611  0.3726
 9631TIP3   OH250307   2.180   0.221  10.625  0.1761  0.4276  0.2017
 9631TIP3    H150308   2.249   0.167  10.586 -2.0257 -2.0204 -0.6454
 9631TIP3    H250309   2.115   0.231  10.555 -1.0196  1.3606  1.3954
 9632TIP3   OH250310   0.861   5.864  14.749  0.1594 -0.7485 -0.1549
 9632TIP3    H150311   0.871   5.869  14.844  2.3688 -0.3152 -0.3530
 9632TIP3    H250312   0.930   5.804  14.721  0.0488 -0.2499 -1.5647
 9633TIP3   OH250313   2.362   5.024  14.304 -0.1970 -0.2952 -0.7142
 9633TIP3    H150314   2.429   5.046  14.239 -0.5355  0.8012 -0.7140
 9633TIP3    H250315   2.340   5.108  14.345  1.2793 -1.1195  2.0795
 9634TIP3   OH250316   5.478   2.585  13.939  0.3570 -0.0155 -0.2719
 9634TIP3    H150317   5.412   2.641  13.980 -1.7237 -1.6078 -1.2595
 9634TIP3    H250318   5.437   2.557  13.857  2.4937 -0.6892 -1.1616
 9635TIP3   OH250319   6.103   4.568  10.887 -0.3840  0.2125 -0.3058
 9635TIP3    H150320   6.180   4.585  10.940 -0.1677 -1.1403 -0.1541
 9635TIP3    H250321   6.030   4.569  10.949  0.0570 -3.2554  0.4966
 9636TIP3   OH250322   0.064   1.870  16.579  0.2868  0.0132 -0.4089
 9636TIP3    H150323   0.100   1.920  16.506  2.3079 -1.5209 -0.5561
 9636TIP3    H250324  -0.007   1.819  16.541  1.3153 -0.7696 -1.3527
 9637TIP3   OH250325   2.196   0.877  16.001 -0.3473  0.4256 -0.1196
 9637TIP3    H150326   2.269   0.934  15.977  0.0183 -0.2552 -0.6714
 9637TIP3    H250327   2.150   0.861  15.919 -1.7268  1.6545  0.3875
 9638TIP3   OH250328   3.471   2.745  16.081 -0.0443  0.2785  0.1973
 9638TIP3    H150329   3.396   2.694  16.050  1.1806 -2.6528  1.6654
 9638TIP3    H250330   3.492   2.803  16.008 -3.5484  1.0976 -0.3261
 9639TIP3   OH250331   5.243   0.183   5.572  0.1439 -0.6999 -0.2839
 9639TIP3    H150332   5.185   0.259   5.569 -0.9599 -1.4025  1.3504
 9639TIP3    H250333   5.284   0.188   5.659 -1.6965 -3.1214  0.8460
 9640TIP3   OH250334   2.348   6.687  11.780  0.5798 -0.2323 -0.2436
 9640TIP3    H150335   2.418   6.752  11.775  0.6102 -0.1816  0.7315
 9640TIP3    H250336   2.297   6.713  11.857  1.0585 -1.8151  0.6426
 9641TIP3   OH250337   1.333   2.722   3.922  0.3345 -0.7666 -0.2552
 9641TIP3    H150338   1.252   2.774   3.915  0.2483 -0.7908  0.4265
 9641TIP3    H250339   1.304   2.632   3.911  0.4893 -0.6841 -1.4772
 9642TIP3   OH250340   4.500   0.325   4.263 -0.0933 -0.2372  0.1808
 9642TIP3    H150341   4.452   0.313   4.344 -1.2758  0.5871 -0.3725
 9642TIP3    H250342   4.437   0.306   4.194  0.4582  0.5467 -0.5668
 9643TIP3   OH250343   4.806   6.733  13.322  0.5254  0.4058 -0.0551
 9643TIP3    H150344   4.803   6.638  13.324  0.1382  0.4287  0.7153
 9643TIP3    H250345   4.729   6.761  13.371  0.5563  1.1147 -0.4017
 9644TIP3   OH250346   6.523   2.048   4.355 -0.2317 -0.4272 -0.0903
 9644TIP3    H150347   6.582   2.112   4.396 -1.3596  0.7540 -0.2468
 9644TIP3    H250348   6.502   2.086   4.270 -2.5598  0.0435  0.6424
 9645TIP3   OH250349   6.315   1.597   0.054  0.4418  0.4507  0.3507
 9645TIP3    H150350   6.394   1.549   0.081 -0.2113 -0.2361  1.1107
 9645TIP3    H250351   6.338   1.689   0.064  1.2138  0.2630  0.3721
 9646TIP3   OH250352   1.453   1.319   3.891 -0.2807 -0.7096  0.0333
 9646TIP3    H150353   1.447   1.336   3.797  0.1046 -1.4457 -0.1328
 9646TIP3    H250354   1.538   1.276   3.902  0.2389  0.4773  0.8932
 9647TIP3   OH250355   3.909   0.514   0.831 -0.4663  0.1352  0.2207
 9647TIP3    H150356   3.967   0.531   0.756  0.2097 -1.7415  0.2817
 9647TIP3    H250357   3.829   0.562   0.810 -0.0830  0.1048 -1.4462
 9648TIP3   OH250358   5.933   6.517   4.452  0.7116  0.5748  0.1698
 9648TIP3    H150359   5.899   6.583   4.392 -1.1259 -0.5382 -0.0998
 9648TIP3    H250360   5.925   6.557   4.539  2.3784  1.7808 -0.1794
 9649TIP3   OH250361   1.615   3.389   5.582  0.5741  0.4704  0.1901
 9649TIP3    H150362   1.555   3.350   5.645 -1.1247 -0.8024 -2.0889
 9649TIP3    H250363   1.594   3.483   5.583 -3.0673 -0.1671 -2.0277
 9650TIP3   OH250364   0.418   1.476   0.664 -0.3345  0.0010  0.0468
 9650TIP3    H150365   0.340   1.489   0.610 -0.4576  0.6180  0.3678
 9650TIP3    H250366   0.407   1.388   0.701 -0.2808 -0.3999 -0.8717
 9651TIP3   OH250367   2.774   3.346   6.186  0.1689 -0.1009 -0.2691
 9651TIP3    H150368   2.864   3.366   6.210  0.5841 -1.4599 -0.6063
 9651TIP3    H250369   2.738   3.430   6.156  0.4354  1.0714  2.4494
 9652TIP3   OH250370   1.963   3.105   3.793  0.0530 -0.0530  0.6947
 9652TIP3    H150371   1.906   3.180   3.773  0.9830  0.4633 -0.0671
 9652TIP3    H250372   1.927   3.034   3.740  1.3771  0.8321 -1.5056
 9653TIP3   OH250373   0.159   3.885   5.383 -0.6646 -0.1186  0.1412
 9653TIP3    H150374   0.252   3.904   5.386 -0.5801 -0.5557  0.4451
 9653TIP3    H250375   0.154   3.789   5.380 -1.0620 -0.0765 -1.8863
 9654TIP3   OH250376   5.727   6.603   0.916 -0.3658 -0.5840  0.4605
 9654TIP3    H150377   5.681   6.657   0.980  1.1386 -1.7345  2.6091
 9654TIP3    H250378   5.681   6.519   0.919 -0.6091 -0.4864 -0.3735
 9655TIP3   OH250379   1.684   1.550  15.660  0.0399  0.4511 -0.1202
 9655TIP3    H150380   1.590   1.541  15.677  0.2569 -3.3149 -0.1319
 9655TIP3    H250381   1.690   1.575  15.568 -0.9312  1.0146 -0.0377
 9656TIP3   OH250382   6.234   1.618   3.062 -0.3438 -0.4058 -0.1351
 9656TIP3    H150383   6.264   1.671   2.988  1.0915 -0.9638  0.0020
 9656TIP3    H250384   6.256   1.528   3.038 -0.5537 -0.6784  0.6417
 9657TIP3   OH250385   4.616   3.106  11.585  0.7129  0.0587 -0.0080
 9657TIP3    H150386   4.633   3.158  11.506  1.5548  1.4223  1.0376
 9657TIP3    H250387   4.541   3.149  11.627  0.3905 -0.5494  0.0591
 9658TIP3   OH250388   4.338   5.112   0.398 -0.0022 -0.3538  0.3499
 9658TIP3    H150389   4.346   5.196   0.443 -3.1010  1.1581 -1.6084
 9658TIP3    H250390   4.297   5.054   0.462  0.8344  0.0186  1.2481
 9659TIP3   OH250391   1.739   3.857  11.492  0.7672 -0.3989  0.1953
 9659TIP3    H150392   1.717   3.780  11.440  0.6348  0.1876 -0.6288
 9659TIP3    H250393   1.667   3.918  11.477  0.6811 -0.2435  1.1380
 9660TIP3   OH250394   4.531   2.770  15.659  0.3060 -0.1330 -0.2560
 9660TIP3    H150395   4.538   2.793  15.567  0.8106 -0.5204 -0.3178
 9660TIP3    H250396   4.437   2.762  15.675  0.2480 -2.0510 -1.2431
 9661TIP3   OH250397   4.066   6.022   4.057  0.1196 -0.0745  0.0096
 9661TIP3    H150398   3.985   6.042   4.104 -0.9234 -2.3157 -0.6980
 9661TIP3    H250399   4.114   5.963   4.116  1.5351  1.5870  0.6259
 9662TIP3   OH250400   2.722   5.694   4.822  0.1397 -0.4416 -0.2544
 9662TIP3    H150401   2.664   5.768   4.843 -0.0976 -0.8565  0.6135
 9662TIP3    H250402   2.663   5.619   4.813  0.4796 -0.7351 -0.0547
 9663TIP3   OH250403   2.023   3.892  12.743 -0.6379  0.5496  0.1504
 9663TIP3    H150404   2.003   3.816  12.687 -1.5614  0.7507  0.1890
 9663TIP3    H250405   2.113   3.878  12.771 -1.1097 -1.0925  1.0096
 9664TIP3   OH250406   2.565   6.053   3.660  0.2871 -0.7426 -0.0913
 9664TIP3    H150407   2.574   6.049   3.756 -0.4249  0.0257  0.0125
 9664TIP3    H250408   2.475   6.026   3.644  0.2646 -0.4139 -0.5145
 9665TIP3   OH250409   6.609   6.537   5.059 -1.1603 -0.2959 -0.0507
 9665TIP3    H150410   6.684   6.583   5.097 -0.6706  0.3349 -1.6835
 9665TIP3    H250411   6.546   6.606   5.039 -2.3862 -0.8691  1.6859
 9666TIP3   OH250412   0.938   5.447  13.151  0.3823  0.6990 -0.3069
 9666TIP3    H150413   1.030   5.427  13.170  0.5933  0.9708 -1.0064
 9666TIP3    H250414   0.932   5.542  13.159 -0.4534  0.5175  2.3007
 9667TIP3   OH250415   5.679   2.218   3.379  0.6707  0.1367 -0.0022
 9667TIP3    H150416   5.672   2.249   3.469  0.0304  0.4752 -0.1645
 9667TIP3    H250417   5.592   2.233   3.341  0.4592 -1.4210 -0.2324
 9668TIP3   OH250418   5.640   4.316  11.173  0.3927 -0.4283 -0.4921
 9668TIP3    H150419   5.695   4.250  11.130 -0.9776 -1.0714 -1.3254
 9668TIP3    H250420   5.564   4.325  11.115 -0.9930 -0.5080  1.2342
 9669TIP3   OH250421   2.702   2.941  13.558  0.0811 -0.4863  0.2644
 9669TIP3    H150422   2.775   2.923  13.618  1.0437  0.5977 -0.5260
 9669TIP3    H250423   2.720   2.886  13.482  0.4274  0.2083 -0.1748
 9670TIP3   OH250424   6.762   6.701   4.544 -0.3399 -0.2138 -0.1557
 9670TIP3    H150425   6.729   6.717   4.455 -0.0234  0.1297 -0.2112
 9670TIP3    H250426   6.856   6.718   4.538  0.0904 -2.3973 -0.2909
 9671TIP3   OH250427   3.652   3.545   1.371  0.0278 -0.0579 -0.0245
 9671TIP3    H150428   3.728   3.528   1.426  0.0171  0.8270  0.2805
 9671TIP3    H250429   3.612   3.459   1.358 -0.4823 -0.2025  2.1137
 9672TIP3   OH250430   2.018   3.986   5.204  0.0802  0.1030 -0.0210
 9672TIP3    H150431   2.082   3.989   5.275  0.2980  0.9768 -0.2495
 9672TIP3    H250432   2.026   3.897   5.168 -0.8694 -0.7725  1.7858
 9673TIP3   OH250433   3.549   1.680   4.524 -0.0368  0.2418  0.4364
 9673TIP3    H150434   3.546   1.586   4.504 -0.9149  0.2160  0.6511
 9673TIP3    H250435   3.538   1.723   4.439 -2.3014  0.1312  0.6006
 9674TIP3   OH250436   5.746   0.524  12.078 -0.0601 -0.1854 -0.3791
 9674TIP3    H150437   5.798   0.586  12.027  0.3749 -0.4651 -0.2763
 9674TIP3    H250438   5.684   0.579  12.127 -0.1384  0.1165 -0.8168
 9675TIP3   OH250439   3.702   2.708   5.651 -0.2768 -0.4760 -0.0598
 9675TIP3    H150440   3.697   2.624   5.696 -1.6042 -0.7089 -0.5677
 9675TIP3    H250441   3.637   2.763   5.696  0.5909  0.3026  0.2817
 9676TIP3   OH250442   1.132   1.481  12.209  0.3731  0.0334 -0.3429
 9676TIP3    H150443   1.147   1.438  12.294  2.6879  0.4316 -0.4622
 9676TIP3    H250444   1.150   1.413  12.144  0.4020  0.1978 -0.5073
 9677TIP3   OH250445   1.052   4.910  11.344  0.8957 -0.1222  0.4777
 9677TIP3    H150446   1.076   4.880  11.432  1.7595 -0.0352  0.2747
 9677TIP3    H250447   1.011   4.834  11.303  1.3214 -0.4389  0.6387
 9678TIP3   OH250448   0.093   1.446   5.298  0.2194 -0.4867 -0.3068
 9678TIP3    H150449   0.113   1.499   5.221  0.7909 -0.0500  0.1236
 9678TIP3    H250450   0.097   1.509   5.371  0.9104 -1.1213  0.2124
 9679TIP3   OH250451   0.065   1.043   5.442  0.4700  0.1344 -0.7664
 9679TIP3    H150452  -0.023   1.050   5.479  0.3787  0.2069 -1.0017
 9679TIP3    H250453   0.079   0.949   5.431  0.6086  0.0948 -0.2757
 9680TIP3   OH250454   2.591   2.939   0.629  0.2845 -0.7041  0.1547
 9680TIP3    H150455   2.576   2.947   0.723 -2.2776 -1.7854 -0.0724
 9680TIP3    H250456   2.587   3.028   0.596  2.4306 -0.1726  1.1579
 9681TIP3   OH250457   2.261   5.397  12.662 -0.1269  0.3697  0.0714
 9681TIP3    H150458   2.308   5.417  12.581  1.4840  0.9445  1.0945
 9681TIP3    H250459   2.222   5.481  12.689 -0.7886  0.1466 -0.1849
 9682TIP3   OH250460   2.972   6.719  12.141  0.3092 -0.4097 -0.2810
 9682TIP3    H150461   2.994   6.644  12.195  1.4388 -0.6769 -1.0759
 9682TIP3    H250462   3.047   6.729  12.081 -0.7988 -0.0238 -1.6678
 9683TIP3   OH250463   1.824   0.430   5.356  0.2944 -0.4740 -0.3086
 9683TIP3    H150464   1.917   0.413   5.342  0.2748 -0.0882 -0.9841
 9683TIP3    H250465   1.796   0.364   5.419  0.6520 -1.6559 -1.3490
 9684TIP3   OH250466   0.118   3.157  14.282 -0.3247 -0.2390 -0.6740
 9684TIP3    H150467   0.036   3.151  14.330 -0.5087 -0.7816 -1.0425
 9684TIP3    H250468   0.110   3.238  14.231  0.5183  1.1765  1.3592
 9685TIP3   OH250469   5.509   1.361   5.768  0.1892 -0.2086  0.5766
 9685TIP3    H150470   5.414   1.351   5.768  0.0569  0.9289  1.1293
 9685TIP3    H250471   5.526   1.434   5.709  0.5885  0.5885  1.6519
 9686TIP3   OH250472   3.144   4.875  16.093  0.4227 -0.2422 -0.4974
 9686TIP3    H150473   3.072   4.899  16.151 -0.6144  1.8746 -2.5237
 9686TIP3    H250474   3.208   4.946  16.104  0.4269 -0.0699 -1.5874
 9687TIP3   OH250475   1.767   5.524   4.297 -0.8607  0.0013 -0.3626
 9687TIP3    H150476   1.804   5.501   4.212 -1.5680 -1.0658 -0.4090
 9687TIP3    H250477   1.693   5.581   4.277  0.3943  1.7278 -0.2970
 9688TIP3   OH250478   5.306   2.890   4.711 -0.2326  0.1867  0.3815
 9688TIP3    H150479   5.262   2.967   4.748  1.1023  0.7783  0.8054
 9688TIP3    H250480   5.295   2.822   4.778  1.6597  1.0812  1.6838
 9689TIP3   OH250481   4.332   2.160   5.287 -0.2540 -0.0208 -0.1623
 9689TIP3    H150482   4.316   2.241   5.237  0.2076  0.2064  0.0584
 9689TIP3    H250483   4.387   2.107   5.229 -0.7338 -0.2749 -0.3974
 9690TIP3   OH250484   6.332   2.766  13.478  0.1118  0.5176 -0.1258
 9690TIP3    H150485   6.291   2.792  13.560 -0.4271 -2.1269  0.5188
 9690TIP3    H250486   6.422   2.744  13.502  0.8509  2.5241 -0.8390
 9691TIP3   OH250487   0.707   4.116   2.861  0.5504 -0.1583 -0.0931
 9691TIP3    H150488   0.769   4.102   2.933  0.0016 -1.4805  0.1605
 9691TIP3    H250489   0.651   4.038   2.863 -1.2066  1.0455 -0.2318
 9692TIP3   OH250490   5.195   4.422  12.330 -0.1379 -0.2198 -0.4262
 9692TIP3    H150491   5.227   4.487  12.268  0.5366 -0.6125 -0.4972
 9692TIP3    H250492   5.220   4.338  12.292  1.2581 -0.4367  0.8934
 9693TIP3   OH250493   1.632   3.666   5.648 -0.1619 -0.3112 -0.4463
 9693TIP3    H150494   1.670   3.619   5.723 -2.1705 -1.9892 -0.3817
 9693TIP3    H250495   1.548   3.697   5.681 -1.1002 -1.1195 -1.9882
 9694TIP3   OH250496   3.106   1.635   2.522  0.3657  0.0286  0.0804
 9694TIP3    H150497   3.154   1.660   2.444  0.7935  0.5376  0.4955
 9694TIP3    H250498   3.040   1.703   2.533 -0.1799 -0.4412 -0.2504
 9695TIP3   OH250499   1.448   1.520  15.775  0.0306 -0.8575 -0.0380
 9695TIP3    H150500   1.353   1.529  15.783  0.0728 -2.1502  4.0322
 9695TIP3    H250501   1.471   1.451  15.838  3.5699 -1.6070 -1.8808
 9696TIP3   OH250502   3.855   1.460   3.709 -0.3125 -0.1533  0.6291
 9696TIP3    H150503   3.833   1.368   3.725  1.3428 -0.7185 -0.2062
 9696TIP3    H250504   3.819   1.506   3.785 -3.9293 -0.9921 -0.3653
 9697TIP3   OH250505   3.442   1.577  12.536  0.2299  0.2700 -0.2679
 9697TIP3    H150506   3.493   1.654  12.509  0.3800 -0.2209 -1.4203
 9697TIP3    H250507   3.393   1.607  12.612 -0.0647  1.6636 -0.9709
 9698TIP3   OH250508   6.310   6.419   5.639  0.0076 -0.4824  0.0117
 9698TIP3    H150509   6.368   6.474   5.690 -0.4819 -1.1407  1.3129
 9698TIP3    H250510   6.368   6.374   5.578  0.8004 -0.7198  0.9193
 9699TIP3   OH250511   3.280   1.952   4.899  0.2749  0.2728 -0.2353
 9699TIP3    H150512   3.297   2.016   4.968  0.9009 -1.4377  1.2779
 9699TIP3    H250513   3.184   1.945   4.896  0.2459  0.0117  0.8472
 9700TIP3   OH250514   4.310   3.748  15.739  0.0067 -0.6207 -0.2655
 9700TIP3    H150515   4.340   3.798  15.815  0.1479 -1.1615  0.0412
 9700TIP3    H250516   4.357   3.665  15.744  1.9911  0.2607 -2.3625
 9701TIP3   OH250517   4.370   4.424  15.004  0.1195 -0.1029 -0.1151
 9701TIP3    H150518   4.425   4.418  15.082 -1.3983 -2.2271  0.8721
 9701TIP3    H250519   4.423   4.475  14.942  2.2726 -0.2070  1.5109
 9702TIP3   OH250520   4.988   0.397   4.951  0.6801 -0.1990  0.2414
 9702TIP3    H150521   4.927   0.349   4.895 -0.2391  1.2113 -0.0312
 9702TIP3    H250522   5.004   0.479   4.905  2.3051 -0.2673  0.6274
 9703TIP3   OH250523   4.198   4.936  15.060 -0.2666  0.7534 -0.0512
 9703TIP3    H150524   4.218   4.843  15.058  0.9163  0.9886 -0.2176
 9703TIP3    H250525   4.122   4.946  15.003  0.0630 -0.0118 -0.6367
 9704TIP3   OH250526   4.945   4.006  17.169 -0.0716 -0.3855  0.4520
 9704TIP3    H150527   4.872   3.949  17.192  0.8060 -0.7963  2.3948
 9704TIP3    H250528   4.906   4.094  17.162 -0.7422 -0.5701  1.6047
 9705TIP3   OH250529   6.146   2.073   0.098  0.2873 -0.4784  0.0779
 9705TIP3    H150530   6.212   2.043   0.161  1.8321  1.3460 -0.5727
 9705TIP3    H250531   6.098   2.141   0.145 -0.1827 -0.8028  0.0705
 9706TIP3   OH250532   0.411   5.557  12.186 -0.0412 -1.1156  0.0709
 9706TIP3    H150533   0.404   5.651  12.168 -0.0049 -1.1774 -0.2823
 9706TIP3    H250534   0.321   5.525  12.185  0.0623 -1.5554 -2.4901
 9707TIP3   OH250535   2.830   3.090  12.807 -0.1393 -0.3892 -0.4451
 9707TIP3    H150536   2.866   3.111  12.720  2.0647 -1.4098  0.1454
 9707TIP3    H250537   2.740   3.064  12.790 -0.4766  1.6309 -2.1286
 9708TIP3   OH250538   1.852   1.452   3.009  0.4175 -0.1644  0.7736
 9708TIP3    H150539   1.826   1.369   2.969  0.2677  0.1406  0.2204
 9708TIP3    H250540   1.786   1.468   3.076 -0.7062  0.4586 -0.4254
 9709TIP3   OH250541   2.443   0.981   3.980 -0.1658  0.0678  0.0748
 9709TIP3    H150542   2.486   0.959   4.063  0.9660  1.8188  0.0168
 9709TIP3    H250543   2.388   0.906   3.960 -0.8071 -0.2215  2.6359
 9710TIP3   OH250544   4.419   4.516   6.163 -0.8848  0.4521 -0.5360
 9710TIP3    H150545   4.448   4.606   6.178 -1.0779  0.5120 -0.5158
 9710TIP3    H250546   4.457   4.466   6.235  0.4692  0.2429 -1.3576
 9711TIP3   OH250547   4.895   3.688   1.285  0.4130  0.4690  0.4278
 9711TIP3    H150548   4.954   3.679   1.210 -1.5044 -0.5774 -1.0671
 9711TIP3    H250549   4.869   3.780   1.285  0.3974  0.4678 -0.2395
 9712TIP3   OH250550   4.355   5.901   0.058  0.3300  0.4622 -0.4976
 9712TIP3    H150551   4.355   5.983   0.107 -0.3783  0.8230 -1.0844
 9712TIP3    H250552   4.406   5.919  -0.021  1.3712 -0.0825  0.0347
 9713TIP3   OH250553   0.292   1.781  13.113  0.4218 -0.3136 -0.6448
 9713TIP3    H150554   0.323   1.810  13.199 -0.1772 -0.4905 -0.3636
 9713TIP3    H250555   0.371   1.749  13.069  0.8503  0.4169 -0.4264
 9714TIP3   OH250556   5.011   2.083  16.254  0.6169  0.1588  0.6308
 9714TIP3    H150557   5.096   2.041  16.259  0.5642  0.0282  0.4331
 9714TIP3    H250558   5.025   2.171  16.289  0.3496 -0.5694  2.7560
 9715TIP3   OH250559   6.366   0.789   2.235  0.7253 -0.5658 -0.1809
 9715TIP3    H150560   6.442   0.820   2.187 -0.3227  3.2349  0.2821
 9715TIP3    H250561   6.300   0.772   2.168  0.5754  0.6989 -0.3839
 9716TIP3   OH250562   5.234   6.750  12.815  0.3558  0.2469 -0.4926
 9716TIP3    H150563   5.181   6.789  12.885 -0.1826 -0.8656 -0.2683
 9716TIP3    H250564   5.308   6.810  12.807  1.0470 -0.1717  1.8391
 9717TIP3   OH250565   4.801   6.019  15.221  0.3964 -0.1380 -0.0611
 9717TIP3    H150566   4.722   6.060  15.256 -0.3162 -1.4297 -0.1139
 9717TIP3    H250567   4.809   6.053  15.132  0.5748  0.8978  0.3363
 9718TIP3   OH250568   0.152   0.232   5.446 -0.0595 -0.5074 -0.3560
 9718TIP3    H150569   0.122   0.197   5.362 -1.3381 -0.7924  0.1896
 9718TIP3    H250570   0.074   0.229   5.502 -0.0035  2.4465 -0.0054
 9719TIP3   OH250571   1.381   1.565  11.478  0.1141 -0.2288 -0.1358
 9719TIP3    H150572   1.295   1.567  11.436 -0.8898  1.4534  1.8360
 9719TIP3    H250573   1.426   1.643  11.444  0.6503 -0.7612 -0.6779
 9720TIP3   OH250574   1.838   1.360   3.448 -0.3365  0.2080  0.3012
 9720TIP3    H150575   1.818   1.411   3.369  0.4627 -1.1168 -0.7961
 9720TIP3    H250576   1.778   1.285   3.444  0.8915 -0.7916  0.0011
 9721TIP3   OH250577   2.088   4.004   5.665 -0.4163 -0.3597 -0.1066
 9721TIP3    H150578   2.018   4.060   5.698 -0.1361  0.4160 -0.8009
 9721TIP3    H250579   2.111   3.949   5.739 -0.8246  0.3148  0.5373
 9722TIP3   OH250580   2.570   2.990  12.764  0.3743  0.2027  0.5569
 9722TIP3    H150581   2.480   3.021  12.770  1.2372  3.3912 -0.8415
 9722TIP3    H250582   2.563   2.905  12.720 -1.8893  1.0357 -0.8852
 9723TIP3   OH250583   4.639   5.887  12.969  0.5462  0.6358 -0.0516
 9723TIP3    H150584   4.687   5.814  13.008  1.0690 -0.0105 -1.7663
 9723TIP3    H250585   4.699   5.922  12.902 -0.1064  1.9730  0.0173
 9724TIP3   OH250586   2.656   1.052  11.421  0.0437 -0.1022  0.4411
 9724TIP3    H150587   2.705   1.124  11.381 -0.6084  1.7993  2.8268
 9724TIP3    H250588   2.724   0.989  11.449  0.8616  0.8214  0.5966
 9725TIP3   OH250589   1.128   3.217  14.477 -0.2947  0.1127  0.4115
 9725TIP3    H150590   1.073   3.291  14.503 -0.8445 -0.5466  1.1952
 9725TIP3    H250591   1.179   3.196  14.555 -2.0177 -1.9407  1.0943
 9726TIP3   OH250592   5.093   1.677  17.124  0.1820  0.1101  0.3507
 9726TIP3    H150593   5.104   1.758  17.174 -0.1500 -0.6383  1.6667
 9726TIP3    H250594   5.077   1.707  17.034  1.6358  1.4588  0.4936
 9727TIP3   OH250595   6.539   3.061   3.313 -0.1211  0.4857 -0.5481
 9727TIP3    H150596   6.631   3.035   3.313 -0.3066 -0.5024  1.7189
 9727TIP3    H250597   6.540   3.155   3.296  1.0822  0.1125 -2.9332
 9728TIP3   OH250598   1.110   5.225   0.381  0.3443 -0.1391 -0.9246
 9728TIP3    H150599   1.188   5.268   0.346  0.8023 -1.3333 -1.4328
 9728TIP3    H250600   1.142   5.175   0.456 -0.2571  0.6999 -0.0764
 9729TIP3   OH250601   3.430   6.385   3.636  0.5558  0.3206 -0.3934
 9729TIP3    H150602   3.487   6.367   3.562 -0.2736 -0.7030 -0.8104
 9729TIP3    H250603   3.342   6.391   3.598 -0.0356 -1.2825  0.6234
 9730TIP3   OH250604   0.312   5.334   5.701  0.1336  0.2048  0.0449
 9730TIP3    H150605   0.356   5.414   5.727  0.2895 -0.1114  0.7918
 9730TIP3    H250606   0.219   5.353   5.713  0.0991  0.6478 -0.8797
 9731TIP3   OH250607   6.222   1.351  13.309  0.4094 -0.2793  0.2789
 9731TIP3    H150608   6.303   1.300  13.299  1.7618  1.4316  1.7832
 9731TIP3    H250609   6.216   1.401  13.228  0.5089 -0.8639 -0.0992
 9732TIP3   OH250610   5.941   3.383  14.835 -0.2725 -0.0419  0.7250
 9732TIP3    H150611   6.028   3.412  14.860  0.0280  0.1679 -0.4809
 9732TIP3    H250612   5.944   3.288  14.840  0.2352 -0.0694  0.1015
 9733TIP3   OH250613   4.933   3.021  11.468 -0.4881 -0.2060 -0.0637
 9733TIP3    H150614   4.894   3.109  11.468  0.1005  0.0873 -1.8317
 9733TIP3    H250615   4.985   3.018  11.548 -0.2941  1.1729 -0.1103
 9734TIP3   OH250616   0.435   4.562   0.010 -0.5540 -0.4970  0.7558
 9734TIP3    H150617   0.454   4.566   0.103 -0.8732 -0.1673  0.8087
 9734TIP3    H250618   0.345   4.594   0.002 -0.2394  0.2987  0.2466
 9735TIP3   OH250619   5.077   6.016  13.012 -0.1865  0.1831 -0.4584
 9735TIP3    H150620   5.141   6.080  12.979  0.6650  1.0692  2.6536
 9735TIP3    H250621   5.130   5.942  13.041 -1.0033 -1.0089 -1.8442
 9736TIP3   OH250622   0.190   5.876  14.230 -0.1966  0.6769  0.0893
 9736TIP3    H150623   0.150   5.861  14.316 -1.2379  0.7592 -0.3648
 9736TIP3    H250624   0.235   5.960  14.240 -1.1569  1.1905  0.2766
 9737TIP3   OH250625   2.191   4.067  13.260  0.3703 -0.2130  0.0551
 9737TIP3    H150626   2.220   4.131  13.195 -0.3425  0.4914  0.4185
 9737TIP3    H250627   2.193   3.984  13.214 -0.2428  0.2936 -0.9065
 9738TIP3   OH250628   1.469   5.292   1.005  0.1333 -0.3709 -0.0374
 9738TIP3    H150629   1.404   5.251   0.948 -0.2860 -1.0762  0.9092
 9738TIP3    H250630   1.442   5.384   1.010 -1.2378 -0.7831  0.8865
 9739TIP3   OH250631   1.473   2.571  15.134  0.3805  0.9861 -0.6024
 9739TIP3    H150632   1.549   2.545  15.081  1.0307 -2.9055  1.8119
 9739TIP3    H250633   1.397   2.540  15.084  0.8741 -0.9266 -0.2651
 9740TIP3   OH250634   5.281   5.393   4.916 -0.1544 -0.6827 -0.1281
 9740TIP3    H150635   5.321   5.464   4.866  0.6739 -1.6069 -0.8139
 9740TIP3    H250636   5.253   5.330   4.849  0.2680 -1.5736  0.5159
 9741TIP3   OH250637   4.753   2.923  15.791  0.2339  0.3271 -0.1738
 9741TIP3    H150638   4.797   2.852  15.745 -0.8534 -0.1448 -0.5090
 9741TIP3    H250639   4.661   2.898  15.792 -0.0582  1.3630  0.3848
 9742TIP3   OH250640   3.666   5.046  13.667  0.0256 -0.3325 -0.1595
 9742TIP3    H150641   3.723   4.979  13.630 -0.4407 -0.6747 -0.2531
 9742TIP3    H250642   3.590   5.050  13.609 -0.4204 -0.4377  0.4051
 9743TIP3   OH250643   5.985   1.236   3.114  0.0145  0.5238  0.3233
 9743TIP3    H150644   6.001   1.274   3.027 -1.0910 -0.4675 -0.3347
 9743TIP3    H250645   6.067   1.190   3.135  0.1827  0.5139 -0.3306
 9744TIP3   OH250646   1.971   6.511   0.044 -0.1394  0.3724 -0.8189
 9744TIP3    H150647   1.978   6.578  -0.024 -2.0123 -0.1725 -1.5918
 9744TIP3    H250648   1.878   6.491   0.050  0.0583 -0.1604  1.3960
 9745TIP3   OH250649   1.151   2.766   2.723 -0.4670  0.4242  0.8200
 9745TIP3    H150650   1.229   2.786   2.672  0.0801 -0.7163  1.1786
 9745TIP3    H250651   1.181   2.707   2.791 -1.7197 -0.3608  0.7219
 9746TIP3   OH250652   2.264   5.548   2.283 -0.7362 -0.2836 -0.1364
 9746TIP3    H150653   2.236   5.579   2.197  0.7063 -1.3387 -1.0359
 9746TIP3    H250654   2.351   5.588   2.295 -0.0927 -1.6369 -0.0551
 9747TIP3   OH250655   0.344   1.570  17.144  0.2956  0.0869 -0.3814
 9747TIP3    H150656   0.266   1.600  17.098 -1.0930 -1.8852  0.5377
 9747TIP3    H250657   0.397   1.649  17.156 -0.9232  1.2519 -2.1716
 9748TIP3   OH250658   2.963   3.561   6.319 -0.1258 -0.8177  0.2255
 9748TIP3    H150659   3.025   3.550   6.247  1.3067  0.6303  1.1670
 9748TIP3    H250660   3.016   3.553   6.398 -0.9937  1.0232  1.0605
 9749TIP3   OH250661   3.491   3.455  13.354 -0.1385  0.2166  0.2382
 9749TIP3    H150662   3.494   3.550  13.350  0.6529  0.3652  2.5664
 9749TIP3    H250663   3.402   3.435  13.383 -0.6165  0.1473 -1.1974
 9750TIP3   OH250664   1.453   2.432   1.478 -0.8939 -0.4228  0.7335
 9750TIP3    H150665   1.508   2.477   1.414 -1.0869  0.5877  1.2707
 9750TIP3    H250666   1.514   2.386   1.535 -0.5699  0.8057  1.4141
 9751TIP3   OH250667   3.284   0.000  14.408  0.0877 -0.1691  0.5114
 9751TIP3    H150668   3.213  -0.057  14.379  1.5637 -1.4201 -0.7980
 9751TIP3    H250669   3.341   0.009  14.332  1.4174  0.6934  1.5501
 9752TIP3   OH250670   5.213   5.366  10.817  0.4298 -0.1677 -0.6233
 9752TIP3    H150671   5.304   5.396  10.808 -0.0690  1.6768 -0.0977
 9752TIP3    H250672   5.217   5.296  10.882  1.4272  0.1791 -0.2844
 9753TIP3   OH250673   0.856   0.076  15.787  0.2019  0.0961  0.2916
 9753TIP3    H150674   0.864   0.169  15.767 -1.4078  0.0296 -0.9135
 9753TIP3    H250675   0.761   0.061  15.793  0.4624 -1.2170  1.8013
 9754TIP3   OH250676   6.530   3.935   3.194 -0.0924  0.8391  0.1838
 9754TIP3    H150677   6.471   4.005   3.166 -0.7617 -0.1921 -1.0862
 9754TIP3    H250678   6.615   3.977   3.201 -0.6086  1.9303  0.1094
 9755TIP3   OH250679   1.361   0.436  15.824 -0.1456 -0.2937 -0.4926
 9755TIP3    H150680   1.421   0.443  15.750  0.0082 -2.8442 -0.7246
 9755TIP3    H250681   1.405   0.376  15.884 -0.0854  1.9775  1.9230
 9756TIP3   OH250682   1.598   3.921  13.632  0.0621 -0.5444 -0.2251
 9756TIP3    H150683   1.569   3.847  13.578 -1.3262 -0.9210  0.9494
 9756TIP3    H250684   1.518   3.973  13.646  0.4781 -0.1930  1.0170
 9757TIP3   OH250685   0.998   2.412   1.755 -0.0668 -0.1706  0.2519
 9757TIP3    H150686   0.938   2.363   1.698 -0.8683  1.1231 -0.0820
 9757TIP3    H250687   1.085   2.387   1.725 -0.4624 -0.5414 -0.6508
 9758TIP3   OH250688   2.195   0.465  14.819 -0.3981 -0.7211  0.0801
 9758TIP3    H150689   2.105   0.476  14.849 -1.2331 -2.1948 -1.7169
 9758TIP3    H250690   2.214   0.373  14.834  1.2445 -0.2004  1.4562
 9759TIP3   OH250691   6.311   5.602   4.460  0.1864 -0.3402  0.7024
 9759TIP3    H150692   6.290   5.621   4.369  2.9010 -0.8662 -0.1350
 9759TIP3    H250693   6.355   5.517   4.457  0.8469 -0.1041  2.4229
 9760TIP3   OH250694   5.647   2.745   2.725  0.2696  0.8172  0.0763
 9760TIP3    H150695   5.647   2.746   2.821  2.0422 -3.7415  0.3763
 9760TIP3    H250696   5.557   2.721   2.702 -0.1683  1.9402  0.5388
 9761TIP3   OH250697   3.900   5.077  16.138  0.1912  0.3380 -0.0624
 9761TIP3    H150698   3.885   5.172  16.139  0.9259  0.4712 -0.9018
 9761TIP3    H250699   3.929   5.057  16.227 -2.0853  0.5192  0.7896
 9762TIP3   OH250700   4.577   1.721  13.350  0.3203 -0.5626  0.3506
 9762TIP3    H150701   4.583   1.741  13.257 -0.8724 -1.5510  0.0367
 9762TIP3    H250702   4.566   1.806  13.392  2.5364  0.0760 -0.2051
 9763TIP3   OH250703   6.723   6.370  14.758 -0.2420  0.3415  0.2460
 9763TIP3    H150704   6.798   6.388  14.815  0.8578 -1.2155 -0.6655
 9763TIP3    H250705   6.704   6.455  14.717  2.9753  0.2266 -1.7916
 9764TIP3   OH250706   0.339   1.328  14.804 -0.5533  0.6955  0.1809
 9764TIP3    H150707   0.308   1.258  14.746  1.5774 -0.0211 -0.1790
 9764TIP3    H250708   0.403   1.376  14.751 -0.6856  1.8136  1.0103
 9765TIP3   OH250709   5.778   1.259  15.958 -0.2699  0.2381  0.5936
 9765TIP3    H150710   5.773   1.303  15.873  1.5563  0.8266  0.7411
 9765TIP3    H250711   5.689   1.226  15.973 -0.5505 -0.2709 -1.7290
 9766TIP3   OH250712   6.756   0.190  11.248  0.1805  0.5859  0.5198
 9766TIP3    H150713   6.800   0.271  11.273  1.3420 -0.3600  1.6304
 9766TIP3    H250714   6.710   0.162  11.327 -0.3936  0.2584  0.0784
 9767TIP3   OH250715   4.267   0.538  12.856 -0.2633  0.0238 -0.0871
 9767TIP3    H150716   4.208   0.560  12.784 -0.4623 -0.1176  0.0309
 9767TIP3    H250717   4.349   0.580  12.834 -0.0794 -0.6973 -0.7992
 9768TIP3   OH250718   2.157   1.146  14.984  0.1856  0.2014  0.1583
 9768TIP3    H150719   2.184   1.199  15.059 -0.2514 -2.1933  2.1541
 9768TIP3    H250720   2.224   1.078  14.977 -0.3621 -0.2542 -0.9316
 9769TIP3   OH250721   2.861   3.943  13.923 -0.0771 -0.1429  0.7133
 9769TIP3    H150722   2.769   3.945  13.897  0.6619 -0.6577 -2.2873
 9769TIP3    H250723   2.878   4.030  13.959 -1.5549  0.1836  0.6906
 9770TIP3   OH250724   1.499   5.026  13.643 -0.3503  0.8288  0.0210
 9770TIP3    H150725   1.468   5.023  13.552  0.7383  1.2406 -0.3789
 9770TIP3    H250726   1.444   5.092  13.685 -1.8693 -0.4161  0.0785
 9771TIP3   OH250727   1.473   2.442  15.386  0.3849  0.0662  0.1025
 9771TIP3    H150728   1.564   2.417  15.404  0.8783  2.6036  1.7303
 9771TIP3    H250729   1.478   2.500  15.310  0.2012  0.4301  0.3614
 9772TIP3   OH250730   0.700   2.171  11.563  1.2220  0.4624  0.3739
 9772TIP3    H150731   0.622   2.139  11.608  1.8443 -0.1640  1.0296
 9772TIP3    H250732   0.712   2.109  11.490  1.7575 -0.1262  0.9538
 9773TIP3   OH250733   5.663   5.407   0.499 -0.2155  0.0868 -0.5676
 9773TIP3    H150734   5.626   5.492   0.523  2.0508  1.6815 -2.3485
 9773TIP3    H250735   5.682   5.365   0.583 -2.3936  0.7862  0.3669
 9774TIP3   OH250736   6.132   0.115   4.014  0.1205 -0.6288 -0.2943
 9774TIP3    H150737   6.108   0.077   3.930  1.0255  0.4843 -1.0816
 9774TIP3    H250738   6.221   0.084   4.030 -0.7640 -2.5985  1.3415
 9775TIP3   OH250739   1.358   6.338   1.428  0.1968  0.8799  0.1569
 9775TIP3    H150740   1.452   6.325   1.422  0.1590  0.3337  0.6944
 9775TIP3    H250741   1.329   6.279   1.497 -0.8802 -0.6304 -1.4863
 9776TIP3   OH250742   3.830   4.343   1.030 -0.1923 -0.4296  0.0196
 9776TIP3    H150743   3.810   4.262   1.076  0.1044 -0.0540  0.8183
 9776TIP3    H250744   3.745   4.376   0.999 -0.5110 -0.2128  1.0939
 9777TIP3   OH250745   3.827   2.148  13.358  0.0051  0.5718  0.2082
 9777TIP3    H150746   3.914   2.130  13.393 -0.5025 -0.2804  1.0951
 9777TIP3    H250747   3.789   2.210  13.421 -0.0960  0.8066 -0.0818
 9778TIP3   OH250748   6.755   1.099  12.363 -0.4713 -0.1868  0.3901
 9778TIP3    H150749   6.795   1.163  12.303 -0.3164  0.6949  1.4087
 9778TIP3    H250750   6.759   1.016  12.315  1.4628  0.1083 -0.0549
 9779TIP3   OH250751   1.859   1.220   3.943  0.6436 -0.2851  0.8317
 9779TIP3    H150752   1.823   1.269   3.869 -0.7711 -0.0112  1.6539
 9779TIP3    H250753   1.824   1.132   3.934 -0.4540  0.0255  1.7284
 9780TIP3   OH250754   3.320   4.214  12.366  0.1631  0.0203  0.3810
 9780TIP3    H150755   3.380   4.140  12.382  1.7784  1.4004  0.9896
 9780TIP3    H250756   3.327   4.230  12.272  2.4319  1.4448  0.7032
 9781TIP3   OH250757   5.354   1.682  15.342  0.6946  0.3390 -0.4148
 9781TIP3    H150758   5.291   1.647  15.278  1.3066 -0.5170 -0.5761
 9781TIP3    H250759   5.406   1.605  15.368 -0.6888  0.2247  2.4984
 9782TIP3   OH250760   4.875   1.596   5.439  0.1195 -0.1940 -0.1742
 9782TIP3    H150761   4.833   1.681   5.428  0.1297 -0.2670 -0.7801
 9782TIP3    H250762   4.963   1.617   5.472 -0.3921 -0.0467  1.1906
 9783TIP3   OH250763   0.334   2.801  13.575  0.4715 -0.1983  0.3583
 9783TIP3    H150764   0.422   2.805  13.611 -0.1775  0.5790  1.9699
 9783TIP3    H250765   0.310   2.709  13.578  0.0928 -0.0654  2.8915
 9784TIP3   OH250766   1.044   0.356  13.076 -0.2151 -0.5564  0.0928
 9784TIP3    H150767   1.055   0.449  13.094  1.3920 -0.8821  1.0453
 9784TIP3    H250768   1.000   0.352  12.992 -0.3729  1.0588  0.0804
 9785TIP3   OH250769   0.949   5.403  16.219  0.1136 -0.6564  0.0388
 9785TIP3    H150770   0.891   5.474  16.247  2.4065  1.1717  0.4957
 9785TIP3    H250771   0.919   5.380  16.131 -1.1027  0.4306  0.1388
 9786TIP3   OH250772   0.900   4.815  10.555  0.2113 -0.2219 -0.0353
 9786TIP3    H150773   0.963   4.743  10.551 -2.7394 -2.9828 -0.7119
 9786TIP3    H250774   0.887   4.830  10.648 -0.1094 -1.5360  0.1549
 9787TIP3   OH250775   6.155   2.633   5.204 -0.0562  0.3179  0.2249
 9787TIP3    H150776   6.063   2.658   5.199 -0.1578  0.3081  1.6351
 9787TIP3    H250777   6.155   2.538   5.204 -0.1436  0.3009  1.1744
 9788TIP3   OH250778   6.221   0.202  13.799  0.1501 -0.5506  0.2155
 9788TIP3    H150779   6.178   0.212  13.884 -0.9461  0.0717 -0.3918
 9788TIP3    H250780   6.151   0.176  13.740  0.1202  2.3860 -1.2314
 9789TIP3   OH250781   6.449   2.242  17.079 -0.0071 -0.2299 -0.6276
 9789TIP3    H150782   6.358   2.249  17.108  0.0739 -1.2595 -0.0826
 9789TIP3    H250783   6.501   2.255  17.158  0.4533  2.4865 -1.2453
 9790TIP3   OH250784   2.359   2.764   4.134 -0.1897  0.4635  0.0834
 9790TIP3    H150785   2.354   2.794   4.044 -2.1724  0.1381  0.0517
 9790TIP3    H250786   2.447   2.725   4.141 -0.3957 -0.5261 -2.0316
 9791TIP3   OH250787   3.501   0.459   5.948  0.2241 -0.1832  0.4430
 9791TIP3    H150788   3.532   0.371   5.969 -1.6938 -0.9848  0.0528
 9791TIP3    H250789   3.516   0.509   6.028  1.5922 -0.7601  0.5809
 9792TIP3   OH250790   3.309   4.883  16.764 -0.3408 -0.0672  0.1681
 9792TIP3    H150791   3.234   4.935  16.792 -2.6111 -1.9243 -2.0083
 9792TIP3    H250792   3.337   4.836  16.842 -1.6860  0.3777  0.9439
 9793TIP3   OH250793   1.835   4.815  13.286 -0.4420 -0.7936 -0.1779
 9793TIP3    H150794   1.800   4.730  13.256 -1.8946 -0.6056  0.8542
 9793TIP3    H250795   1.908   4.792  13.343 -0.2407 -1.3078 -0.6288
 9794TIP3   OH250796   3.100   6.661  12.814 -0.3657  0.2135  0.4589
 9794TIP3    H150797   3.075   6.742  12.857 -2.6162 -0.7410  1.0571
 9794TIP3    H250798   3.056   6.663  12.729 -0.6878 -0.5150  0.6032
 9795TIP3   OH250799   2.952   5.776  15.680 -0.4926  0.2842 -0.0172
 9795TIP3    H150800   3.030   5.815  15.720  0.0027 -0.5301 -0.1589
 9795TIP3    H250801   2.910   5.728  15.752  0.6795 -1.6182 -0.5238
 9796TIP3   OH250802   4.929   1.114   6.295 -0.7205  0.5354 -0.0702
 9796TIP3    H150803   4.879   1.196   6.292 -1.6752 -0.0550 -0.8105
 9796TIP3    H250804   4.923   1.086   6.386 -1.7871  0.4616 -0.1513
 9797TIP3   OH250805   4.679   5.687   2.233  0.1911 -0.7230 -0.9044
 9797TIP3    H150806   4.672   5.744   2.158 -0.5341  0.4770  0.0417
 9797TIP3    H250807   4.597   5.638   2.235 -0.8968  1.0145  0.4406
 9798TIP3   OH250808   3.467   5.593   5.830 -0.6695  0.5187  0.5201
 9798TIP3    H150809   3.476   5.606   5.925 -1.2953 -0.5895  0.7461
 9798TIP3    H250810   3.524   5.519   5.811 -1.0066  0.3574  0.1322
 9799TIP3   OH250811   4.957   2.839   5.882  0.7671  0.4049 -0.1515
 9799TIP3    H150812   4.981   2.804   5.796  3.3112  1.2877  0.1318
 9799TIP3    H250813   4.917   2.924   5.863 -0.4988 -0.2356 -0.5167
 9800TIP3   OH250814   6.231   6.715  16.333 -0.3760 -0.1884  0.1680
 9800TIP3    H150815   6.230   6.625  16.365  0.5725 -0.0081  0.7683
 9800TIP3    H250816   6.316   6.724  16.290  0.6269  1.0956  2.2330
 9801TIP3   OH250817   4.647   5.092   5.082 -0.1386  0.1483 -0.5971
 9801TIP3    H150818   4.657   5.145   5.003 -1.1668  0.2438 -0.6768
 9801TIP3    H250819   4.687   5.008   5.060  0.1571  0.3887 -0.9896
 9802TIP3   OH250820   2.059   0.942   4.889 -0.0980  0.0682 -0.5160
 9802TIP3    H150821   1.969   0.974   4.878 -0.1140  0.2987  0.2216
 9802TIP3    H250822   2.076   0.949   4.983  1.2068  1.4325 -0.8042
 9803TIP3   OH250823   6.746   0.784  17.379 -0.1054 -0.2996 -0.0511
 9803TIP3    H150824   6.780   0.856  17.433  0.2173 -0.4607 -0.0372
 9803TIP3    H250825   6.655   0.774  17.407  0.1981 -0.7024  0.8092
 9804TIP3   OH250826   6.421   4.496   1.953 -0.0682 -0.6774  0.0714
 9804TIP3    H150827   6.385   4.583   1.969 -0.0659 -0.5628 -0.5322
 9804TIP3    H250828   6.493   4.488   2.016  1.3075  0.6016 -1.2585
 9805TIP3   OH250829   4.515   2.054   2.078  0.4288 -0.0959 -0.2890
 9805TIP3    H150830   4.456   2.075   2.151 -1.2755 -0.3004 -1.5438
 9805TIP3    H250831   4.464   2.073   2.000  1.9778 -0.5112 -1.4496
 9806TIP3   OH250832   4.023   0.999  11.822 -0.2415  0.9412 -0.3651
 9806TIP3    H150833   4.091   0.996  11.890 -0.7925 -0.6584  0.1598
 9806TIP3    H250834   4.071   1.006  11.740  0.6027 -0.2204 -0.0010
 9807TIP3   OH250835   0.457   3.344  15.376  0.5127  0.5659  1.1966
 9807TIP3    H150836   0.505   3.370  15.297 -0.2815 -0.6058  0.2894
 9807TIP3    H250837   0.451   3.249  15.370 -2.0639  0.6577  1.1584
 9808TIP3   OH250838   6.256   6.039  15.082  0.4849 -0.4579 -0.1309
 9808TIP3    H150839   6.195   5.976  15.118 -0.3055  0.9463  1.1192
 9808TIP3    H250840   6.237   6.041  14.988 -0.8379 -0.6244  0.1190
 9809TIP3   OH250841   6.172   2.957   6.527 -0.0467 -0.5166 -0.1258
 9809TIP3    H150842   6.125   2.974   6.445 -1.1805  0.0055  0.6094
 9809TIP3    H250843   6.260   2.992   6.511 -0.8666  1.5973 -0.4148
 9810TIP3   OH250844   3.385   3.404   0.847 -0.0956  0.1755  0.3499
 9810TIP3    H150845   3.373   3.473   0.782 -0.7177 -0.5317 -0.3117
 9810TIP3    H250846   3.296   3.376   0.868  0.1652 -1.9903 -1.1253
 9811TIP3   OH250847   3.427   6.381  15.623  0.1607 -0.3861  0.5201
 9811TIP3    H150848   3.410   6.420  15.537 -0.5776 -1.6296  0.0778
 9811TIP3    H250849   3.383   6.439  15.685  3.9164  2.8341  0.5965
 9812TIP3   OH250850   0.710   2.219   6.103  0.3139 -0.2276 -0.3661
 9812TIP3    H150851   0.685   2.234   6.194 -1.0907 -0.6597 -0.6603
 9812TIP3    H250852   0.746   2.131   6.102  0.7543 -0.0557 -0.1612
 9813TIP3   OH250853   2.674   2.055   2.415 -0.1626  0.3985 -0.0139
 9813TIP3    H150854   2.669   1.960   2.420  1.0938  0.2382 -1.2828
 9813TIP3    H250855   2.592   2.086   2.454 -0.7202 -1.1983  0.1234
 9814TIP3   OH250856   3.161   3.114  16.351  0.1981  0.1842 -0.0627
 9814TIP3    H150857   3.231   3.077  16.297  1.1132  0.7441  0.7048
 9814TIP3    H250858   3.081   3.095  16.303  0.9765  0.7153 -1.6634
 9815TIP3   OH250859   1.667   6.331  12.415 -0.0374  0.2058 -0.5646
 9815TIP3    H150860   1.572   6.341  12.408 -0.1772  0.5954  1.3975
 9815TIP3    H250861   1.690   6.374  12.497  1.7635 -0.4463 -0.6758
 9816TIP3   OH250862   2.122   2.046   0.991  0.5030 -0.3615  0.2303
 9816TIP3    H150863   2.153   2.131   1.024  0.0248 -0.5852  1.2830
 9816TIP3    H250864   2.148   1.983   1.057  2.7410 -1.4167 -1.5198
 9817TIP3   OH250865   2.099   5.786   0.718 -0.4190 -0.6559  0.6662
 9817TIP3    H150866   2.052   5.801   0.635 -0.1528 -0.1911  0.5962
 9817TIP3    H250867   2.159   5.860   0.725  0.4604 -1.3531  0.6524
 9818TIP3   OH250868   6.461   0.793  14.264 -0.4810 -0.1545 -0.0737
 9818TIP3    H150869   6.550   0.825  14.277 -0.3940 -0.2669 -0.3889
 9818TIP3    H250870   6.464   0.701  14.288  0.0813 -0.8219 -2.3948
 9819TIP3   OH250871   5.243   2.094   2.680 -0.0842 -0.3432 -0.2512
 9819TIP3    H150872   5.215   2.061   2.595  1.4310 -0.1478 -0.8662
 9819TIP3    H250873   5.307   2.163   2.659 -1.2606  1.2261  1.0295
 9820TIP3   OH250874   5.141   3.807   2.538 -0.3717  0.4143  0.4347
 9820TIP3    H150875   5.210   3.745   2.514 -0.5667  0.1854  0.4556
 9820TIP3    H250876   5.142   3.873   2.468  0.0158  0.5350  0.5541
 9821TIP3   OH250877   1.633   0.869  14.306 -0.1289  0.3821  0.1228
 9821TIP3    H150878   1.672   0.942  14.354 -2.2937  0.2006  2.3471
 9821TIP3    H250879   1.673   0.791  14.345  1.7954  0.2267 -1.9009
 9822TIP3   OH250880   0.574   5.538  16.104 -0.1474 -0.2721  0.0470
 9822TIP3    H150881   0.605   5.497  16.184  0.2284 -0.2082 -0.0599
 9822TIP3    H250882   0.532   5.619  16.133 -1.0372 -0.8104  0.2694
 9823TIP3   OH250883   0.206   4.680   1.297 -0.2084  0.3025  0.2682
 9823TIP3    H150884   0.237   4.591   1.316  0.7266  0.2827 -1.2161
 9823TIP3    H250885   0.206   4.686   1.201 -1.3801  1.5279  0.3123
 9824TIP3   OH250886   2.294   4.092   3.546  0.4889 -0.0615 -0.0812
 9824TIP3    H150887   2.332   4.091   3.633  2.3115  1.8286 -0.7747
 9824TIP3    H250888   2.211   4.140   3.556  1.3925  1.4746  0.4030
 9825TIP3   OH250889   6.524   4.978   6.275 -0.2014  0.0553 -0.0251
 9825TIP3    H150890   6.597   5.040   6.283  0.4129 -0.3750 -1.9716
 9825TIP3    H250891   6.524   4.932   6.359  1.8278  0.0035  0.0024
 9826TIP3   OH250892   4.043   0.990   2.450  0.2928  0.1650 -0.3746
 9826TIP3    H150893   4.081   1.070   2.487 -2.4720  1.7681 -0.7318
 9826TIP3    H250894   4.049   0.925   2.520  0.5730  1.3316  0.7132
 9827TIP3   OH250895   0.059   6.124  10.376 -0.0405 -0.0529  0.8822
 9827TIP3    H150896   0.021   6.037  10.382 -1.3263  0.5199  1.6155
 9827TIP3    H250897  -0.009   6.177  10.332  0.7545  0.5534  0.3534
 9828TIP3   OH250898   4.652   5.183   2.619 -0.6564 -0.1187  0.4537
 9828TIP3    H150899   4.639   5.119   2.690 -0.5971 -2.1121 -1.2187
 9828TIP3    H250900   4.572   5.177   2.567  0.0816 -0.1814 -0.7149
 9829TIP3   OH250901   3.695   3.560  10.935 -0.0726 -0.2618 -0.2845
 9829TIP3    H150902   3.633   3.502  10.891 -0.7048  0.9340 -1.0298
 9829TIP3    H250903   3.775   3.555  10.883 -0.2922 -0.0971 -0.6415
 9830TIP3   OH250904   2.336   6.348   0.288  0.6675 -0.5856  0.0182
 9830TIP3    H150905   2.310   6.336   0.197  0.5458 -0.7982  0.0792
 9830TIP3    H250906   2.254   6.348   0.337  0.7980 -1.9792  0.2953
 9831TIP3   OH250907   1.191   5.660  17.145  0.1757  0.4723  0.0464
 9831TIP3    H150908   1.100   5.636  17.162  0.2345 -0.5552 -0.9721
 9831TIP3    H250909   1.228   5.680  17.231 -0.7390 -0.0748  0.5760
 9832TIP3   OH250910   0.761   4.127   0.131 -0.1451  0.2762  0.3349
 9832TIP3    H150911   0.740   4.076   0.053  1.2938 -0.1268  0.1859
 9832TIP3    H250912   0.710   4.086   0.201 -1.4636  0.6540 -0.3674
 9833TIP3   OH250913   0.103   1.281  15.853  0.1526 -0.1705 -0.5586
 9833TIP3    H150914   0.130   1.196  15.819 -0.6602 -0.4732 -0.4698
 9833TIP3    H250915   0.180   1.313  15.901 -0.0543 -1.6067  0.8261
 9834TIP3   OH250916   3.744   2.342   4.581 -0.1344 -0.1168  0.5206
 9834TIP3    H150917   3.756   2.247   4.579 -1.4603 -0.3012 -1.1530
 9834TIP3    H250918   3.789   2.371   4.660 -0.6787 -2.2848  1.6831
 9835TIP3   OH250919   1.214   4.820   4.166  0.0540 -0.2109  0.4789
 9835TIP3    H150920   1.289   4.876   4.185  0.1279 -0.6317  1.5409
 9835TIP3    H250921   1.161   4.825   4.246  0.1508 -1.7696  0.6598
 9836TIP3   OH250922   0.270   4.898  13.356  0.6184  0.3054 -0.0389
 9836TIP3    H150923   0.233   4.930  13.438  1.9818  1.0565  0.3216
 9836TIP3    H250924   0.272   4.975  13.299 -0.3200 -0.2101 -0.7965
 9837TIP3   OH250925   5.047   3.451   2.801  0.8143 -0.2976 -1.0239
 9837TIP3    H150926   5.064   3.400   2.880 -2.4189  0.1083  0.1059
 9837TIP3    H250927   5.112   3.522   2.804  1.5409 -0.9769  0.6086
 9838TIP3   OH250928   2.168   4.299   3.173  0.8723  0.6854 -0.4539
 9838TIP3    H150929   2.199   4.240   3.104  2.7026  1.3967 -0.2927
 9838TIP3    H250930   2.122   4.242   3.234 -1.5091  0.1360 -2.5926
 9839TIP3   OH250931   1.206   2.547   4.344 -0.1727 -0.2058 -0.2903
 9839TIP3    H150932   1.174   2.568   4.432 -1.4180  0.4553 -0.8650
 9839TIP3    H250933   1.217   2.632   4.302  1.6369 -0.4560 -0.3955
 9840TIP3   OH250934   2.832   3.254  16.389 -0.3837 -0.2704  0.1670
 9840TIP3    H150935   2.833   3.350  16.381 -0.0194 -0.2338  0.6030
 9840TIP3    H250936   2.869   3.223  16.306  0.9998  0.0222  0.6448
 9841TIP3   OH250937   0.800   3.048  12.656  0.1843  0.1875  0.9190
 9841TIP3    H150938   0.820   2.993  12.732 -2.5555 -1.2569  0.7297
 9841TIP3    H250939   0.782   2.985  12.586 -1.2862  1.3772  0.1952
 9842TIP3   OH250940   5.177   6.257   1.940 -0.0908 -0.4975 -0.3516
 9842TIP3    H150941   5.138   6.195   2.003 -1.6968  0.1226 -0.6817
 9842TIP3    H250942   5.139   6.342   1.964  2.5886  0.5474  0.5284
 9843TIP3   OH250943   5.230   4.874  11.380 -0.1540  0.2573 -0.3913
 9843TIP3    H150944   5.215   4.942  11.446 -2.6535 -0.7302  0.1480
 9843TIP3    H250945   5.196   4.911  11.299 -0.0631  0.2361 -0.4396
 9844TIP3   OH250946   2.472   1.491   4.518 -0.6284 -0.1820 -0.7470
 9844TIP3    H150947   2.446   1.583   4.522 -0.5022 -0.1758  1.2768
 9844TIP3    H250948   2.468   1.461   4.609  3.4641 -1.0076 -0.6255
 9845TIP3   OH250949   2.785   2.768   2.652  0.0013 -0.1907 -0.2569
 9845TIP3    H150950   2.692   2.786   2.658 -0.0332 -0.4092 -0.1180
 9845TIP3    H250951   2.811   2.742   2.740 -0.2385 -2.1127 -0.6887
 9846TIP3   OH250952   4.416   0.779  14.256 -0.0024  0.0063 -0.4134
 9846TIP3    H150953   4.351   0.788  14.187 -1.0984 -0.7258  0.4960
 9846TIP3    H250954   4.488   0.835  14.229 -0.6415  0.1524 -1.8753
 9847TIP3   OH250955   3.593   4.707  16.817 -0.4150  0.4013  0.7848
 9847TIP3    H150956   3.623   4.784  16.865 -1.0741  0.2375  1.4769
 9847TIP3    H250957   3.592   4.636  16.882  2.5469 -0.8623 -0.3410
 9848TIP3   OH250958   3.569   1.974   6.084  0.1251  0.1989  0.1314
 9848TIP3    H150959   3.535   2.013   6.164 -0.0075 -2.2140  1.3385
 9848TIP3    H250960   3.664   1.986   6.089  0.2419 -1.0492  1.3195
 9849TIP3   OH250961   3.452   2.054  14.583 -0.3162 -0.2834 -0.0295
 9849TIP3    H150962   3.480   2.053  14.674 -2.3596  0.4439  0.6589
 9849TIP3    H250963   3.517   2.001  14.537  0.4499 -1.1121  1.9216
 9850TIP3   OH250964   0.819   2.917   1.987 -0.4425  0.1257 -0.4382
 9850TIP3    H150965   0.861   2.848   1.934 -1.3570  0.7437 -2.0571
 9850TIP3    H250966   0.891   2.960   2.032  0.5202  0.1668 -1.9410
 9851TIP3   OH250967   3.372   4.666   4.602 -0.5165  0.5968  0.2543
 9851TIP3    H150968   3.345   4.693   4.514 -0.4417  0.1168  0.0812
 9851TIP3    H250969   3.291   4.638   4.644 -0.8311  2.3560  0.9154
 9852TIP3   OH250970   3.062   6.697   3.731 -0.6034 -0.1666  0.0118
 9852TIP3    H150971   3.098   6.611   3.748 -0.7587 -0.1025  0.6658
 9852TIP3    H250972   3.041   6.696   3.637  2.6320  0.3608 -0.8363
 9853TIP3   OH250973   2.673   4.660  14.590 -0.1887 -0.4420  0.5631
 9853TIP3    H150974   2.696   4.750  14.566 -1.9427  0.3468  1.6253
 9853TIP3    H250975   2.661   4.616  14.506 -0.7252  0.7353 -0.0075
 9854TIP3   OH250976   4.063   1.830  14.209 -0.0009 -0.2480  0.5471
 9854TIP3    H150977   4.117   1.817  14.130 -0.4087  1.4207 -0.0648
 9854TIP3    H250978   4.016   1.911  14.191  0.1174  0.3315  2.6524
 9855TIP3   OH250979   2.826   1.144   1.700  0.1959  0.2066  0.6759
 9855TIP3    H150980   2.740   1.134   1.741  0.2213  1.3800  1.0430
 9855TIP3    H250981   2.854   1.054   1.683 -0.8525 -0.2171  1.0606
 9856TIP3   OH250982   3.395   0.948  12.097  1.0342  0.0358  0.6511
 9856TIP3    H150983   3.471   0.894  12.121  2.1579  1.7748  1.2209
 9856TIP3    H250984   3.423   0.993  12.017  0.8108  1.0428  1.1251
 9857TIP3   OH250985   0.764   4.336   4.198 -0.1706  0.0718 -0.2665
 9857TIP3    H150986   0.758   4.259   4.254  0.9340  0.8588  1.0340
 9857TIP3    H250987   0.852   4.330   4.160 -0.5308  0.0791 -1.1021
 9858TIP3   OH250988   1.569   0.641   6.416  0.0156  0.1007  0.2001
 9858TIP3    H150989   1.621   0.615   6.492  0.5664 -1.0701 -0.5405
 9858TIP3    H250990   1.495   0.581   6.416 -1.4501  1.8175  1.2934
 9859TIP3   OH250991   6.115   5.733  16.873  0.5851 -0.1407  0.0335
 9859TIP3    H150992   6.028   5.746  16.835  0.7286 -1.5087 -0.8517
 9859TIP3    H250993   6.153   5.662  16.821  1.7602 -0.3923  1.1890
 9860TIP3   OH250994   5.057   5.239   0.104  0.0154  0.7936  0.1675
 9860TIP3    H150995   5.050   5.287   0.021  1.6832 -0.3794 -0.7224
 9860TIP3    H250996   5.127   5.283   0.152  1.2879 -0.4398 -0.4881
 9861TIP3   OH250997   6.151   4.450  12.437  0.5301 -0.2904 -0.1719
 9861TIP3    H150998   6.128   4.487  12.522 -2.1292  1.1423 -1.4074
 9861TIP3    H250999   6.082   4.387  12.418 -0.4677  1.3512 -2.3674
 9862TIP3   OH251000   2.042   4.678   3.433 -0.1465 -0.2212  0.0535
 9862TIP3    H151001   2.114   4.618   3.454  0.9903  1.2143  0.3885
 9862TIP3    H251002   2.073   4.729   3.359  0.1788  1.9891  1.6108
 9863TIP3   OH251003   5.170   4.967  13.959  0.2457 -0.5376 -0.6896
 9863TIP3    H151004   5.079   4.997  13.950 -0.1115 -0.5661  1.9578
 9863TIP3    H251005   5.177   4.938  14.050  3.2493  0.6596 -0.4049
 9864TIP3   OH251006   5.498   0.526  13.727 -0.8083 -0.2803 -0.5508
 9864TIP3    H151007   5.485   0.610  13.770 -0.6610 -1.1065  1.2006
 9864TIP3    H251008   5.544   0.547  13.646 -0.8694  1.3336 -0.1899
 9865TIP3   OH251009   3.573   1.446   3.076 -0.3188  0.4126 -0.4936
 9865TIP3    H151010   3.638   1.516   3.070  0.2534  0.1239  1.5367
 9865TIP3    H251011   3.490   1.491   3.087 -0.0452  0.7935  0.0492
 9866TIP3   OH251012   4.424   5.555   2.285  0.3962 -0.8783 -0.0234
 9866TIP3    H151013   4.457   5.520   2.368 -1.0795 -0.9963  0.5400
 9866TIP3    H251014   4.342   5.507   2.269 -0.9710  1.2924  0.0559
 9867TIP3   OH251015   0.377   3.574   1.708 -0.1818 -0.0416  0.6682
 9867TIP3    H151016   0.334   3.512   1.650  0.2773  0.6078 -0.3832
 9867TIP3    H251017   0.395   3.650   1.653  2.5688 -0.3821  0.9752
 9868TIP3   OH251018   3.758   4.541  16.143 -0.0844 -0.4842 -0.7001
 9868TIP3    H151019   3.813   4.499  16.076 -0.8546 -1.4730 -0.7415
 9868TIP3    H251020   3.716   4.614  16.098  2.5783  1.5202 -0.2048
 9869TIP3   OH251021   1.950   6.437  14.918  0.5849 -0.3459  0.4848
 9869TIP3    H151022   1.930   6.530  14.922  0.3219 -0.2501 -1.9085
 9869TIP3    H251023   1.875   6.394  14.959 -1.4207  0.3392 -2.2514
 9870TIP3   OH251024   2.746   6.415   1.850  0.1591 -0.1893  0.4089
 9870TIP3    H151025   2.683   6.422   1.921 -0.6653 -1.7354 -0.1256
 9870TIP3    H251026   2.735   6.326   1.817  1.0651  0.2440 -1.1552
 9871TIP3   OH251027   2.784   6.156   1.393 -0.8746 -0.3927  0.5280
 9871TIP3    H151028   2.869   6.127   1.426  0.0862 -0.9467 -2.1820
 9871TIP3    H251029   2.730   6.076   1.390 -0.4679 -0.6413 -0.5637
 9872TIP3   OH251030   4.818   2.765  15.401 -0.1477  0.3869 -0.2904
 9872TIP3    H151031   4.862   2.786  15.319 -1.1490  2.1138 -0.4415
 9872TIP3    H251032   4.874   2.801  15.469  1.6057 -2.6002  0.0082
 9873TIP3   OH251033   0.786   1.053  13.160 -0.8551 -0.9278  0.3482
 9873TIP3    H151034   0.743   1.138  13.157 -1.6170 -1.3056  0.4304
 9873TIP3    H251035   0.762   1.016  13.245  0.8748 -0.5190  1.0491
 9874TIP3   OH251036   1.366   3.396  12.659  0.0777 -0.2749 -0.3905
 9874TIP3    H151037   1.286   3.345  12.650 -1.4111  1.8018  0.4186
 9874TIP3    H251038   1.369   3.419  12.752  0.2662  1.7195 -0.8465
 9875TIP3   OH251039   3.591   4.262   6.637 -0.2563  0.0665 -0.2533
 9875TIP3    H151040   3.667   4.315   6.660  0.2522 -0.3209 -0.9851
 9875TIP3    H251041   3.612   4.174   6.670 -0.0328 -0.2208 -1.1243
 9876TIP3   OH251042   4.128   0.511  13.674 -1.1716  0.1326 -0.1568
 9876TIP3    H151043   4.064   0.542  13.609 -1.9080 -0.3523  0.3322
 9876TIP3    H251044   4.151   0.589  13.724 -1.0189  0.4021 -0.6419
 9877TIP3   OH251045   0.704   3.137  11.895  0.4515 -0.6837 -0.8085
 9877TIP3    H151046   0.633   3.100  11.843  0.4836 -1.0739 -0.5796
 9877TIP3    H251047   0.775   3.073  11.888  0.6164 -0.5199 -0.6551
 9878TIP3   OH251048   6.351   0.331   2.689  0.0259 -0.2430 -0.0541
 9878TIP3    H151049   6.328   0.336   2.782  0.5037 -1.3574  0.1496
 9878TIP3    H251050   6.408   0.406   2.674  0.0760 -0.1442  0.5927
 9879TIP3   OH251051   0.427   5.633  13.416  0.3468  0.4053 -0.2536
 9879TIP3    H151052   0.418   5.726  13.396  0.1523  0.3963 -0.2067
 9879TIP3    H251053   0.426   5.589  13.331 -0.2513  0.3852 -0.2348
 9880TIP3   OH251054   4.051   4.442   4.470  0.1882 -0.4483 -0.1064
 9880TIP3    H151055   4.037   4.516   4.529  0.0603 -0.8544  0.3836
 9880TIP3    H251056   4.142   4.417   4.485 -0.1320 -1.1915  0.6808
 9881TIP3   OH251057   0.684   2.961   4.749  0.1325 -0.1854  0.7257
 9881TIP3    H151058   0.646   2.873   4.760 -0.1963 -0.2226 -0.5699
 9881TIP3    H251059   0.708   2.965   4.657  2.2666  0.2773  1.2673
 9882TIP3   OH251060   5.610   6.542   2.367 -1.0366 -0.3225  0.5426
 9882TIP3    H151061   5.652   6.615   2.321 -1.5053 -0.6085 -0.3671
 9882TIP3    H251062   5.562   6.584   2.439 -2.5261  0.4863 -0.8279
 9883TIP3   OH251063   5.922   3.400  15.878 -0.2554 -0.2896  0.0813
 9883TIP3    H151064   5.972   3.440  15.948 -0.5812  1.1202 -0.4506
 9883TIP3    H251065   5.965   3.429  15.797 -1.9114  1.0336 -0.3924
 9884TIP3   OH251066   2.622   3.075  12.483 -0.3600 -0.0348  0.5529
 9884TIP3    H151067   2.618   2.991  12.529  2.2223  0.5967  2.1358
 9884TIP3    H251068   2.646   3.051  12.393 -2.8185 -1.1195  0.0989
 9885TIP3   OH251069   6.683   4.901  14.481  0.2049  0.1379  0.0753
 9885TIP3    H151070   6.630   4.981  14.486  0.9481  0.8755 -2.3760
 9885TIP3    H251071   6.753   4.923  14.419  4.0954 -0.3912  3.8169
 9886TIP3   OH251072   2.465   2.903  12.268  0.2633  0.0260 -0.2250
 9886TIP3    H151073   2.530   2.860  12.212  1.6669 -0.6919  1.8281
 9886TIP3    H251074   2.391   2.842  12.270  1.0298 -0.9276  0.2801
 9887TIP3   OH251075   0.409   6.377   5.714 -0.5649 -0.1497  0.4249
 9887TIP3    H151076   0.429   6.352   5.804  0.3362 -2.0648 -0.2418
 9887TIP3    H251077   0.315   6.360   5.704 -0.7031  0.2382  1.0336
 9888TIP3   OH251078   5.723   2.837  15.646  0.1836  0.9261 -0.4423
 9888TIP3    H151079   5.755   2.751  15.673  2.2426  1.5847 -0.6865
 9888TIP3    H251080   5.635   2.819  15.611 -0.9117 -0.5704  2.6498
 9889TIP3   OH251081   2.992   3.808  16.615 -0.2590 -0.3990 -0.6344
 9889TIP3    H151082   2.926   3.779  16.552 -0.8542 -1.0889  0.2854
 9889TIP3    H251083   2.949   3.876  16.666  0.6427  1.1040 -1.7782
 9890TIP3   OH251084   0.852   5.848   3.195 -0.0320  0.1122 -0.0677
 9890TIP3    H151085   0.829   5.915   3.130  2.0151 -0.6044 -1.6262
 9890TIP3    H251086   0.947   5.852   3.201 -0.0944 -0.3563  2.4223
 9891TIP3   OH251087   0.441   4.490   4.918  0.6193  0.0557  0.0011
 9891TIP3    H151088   0.505   4.556   4.945  1.1262 -0.7572  0.8289
 9891TIP3    H251089   0.405   4.457   5.000 -1.1967  0.7963 -0.4524
 9892TIP3   OH251090   0.494   2.431   1.865 -0.2935 -0.1037  0.5099
 9892TIP3    H151091   0.554   2.476   1.807  0.7379 -1.1416  0.7290
 9892TIP3    H251092   0.502   2.338   1.842 -0.9439 -0.3838  1.3280
 9893TIP3   OH251093   0.613   0.548   5.481 -0.4991 -0.3988 -0.2410
 9893TIP3    H151094   0.551   0.581   5.546  0.6599  1.2084  0.1246
 9893TIP3    H251095   0.637   0.461   5.513 -1.7160 -0.5891  0.1928
 9894TIP3   OH251096   3.840   6.576   5.000 -0.5595  0.5756 -0.0142
 9894TIP3    H151097   3.815   6.636   4.929 -2.1156 -1.1128 -0.9881
 9894TIP3    H251098   3.799   6.492   4.976  0.3841 -0.5272  1.9820
 9895TIP3   OH251099   2.582   0.476   6.816 -0.7702  0.1493  0.4369
 9895TIP3    H151100   2.556   0.473   6.724  0.0650  1.4896  0.1342
 9895TIP3    H251101   2.543   0.556   6.849  1.8636  1.6080  0.2683
 9896TIP3   OH251102   4.676   4.687  12.960  0.3327  0.1588 -0.6915
 9896TIP3    H151103   4.599   4.648  12.919 -0.6448 -0.0483  1.2308
 9896TIP3    H251104   4.670   4.780  12.940 -0.9872  0.3029  0.2709
 9897TIP3   OH251105   3.921   4.748   5.265  0.0868  0.4719  0.4428
 9897TIP3    H151106   3.898   4.743   5.172 -2.4243  0.8418  0.9766
 9897TIP3    H251107   3.994   4.687   5.275 -0.1672 -0.2534 -1.5926
 9898TIP3   OH251108   5.956   6.091  15.047 -0.3586 -0.6850 -0.2314
 9898TIP3    H151109   5.987   6.148  15.118  1.8899  0.9127 -2.3572
 9898TIP3    H251110   5.976   6.003  15.078  0.6319 -0.0388  1.1127
 9899TIP3   OH251111   2.610   5.935   1.344  0.5688 -0.8731 -0.7305
 9899TIP3    H151112   2.539   5.874   1.327  0.9496 -0.5146 -4.2414
 9899TIP3    H251113   2.680   5.880   1.381 -0.2458 -1.8865 -0.6467
 9900TIP3   OH251114   0.030   0.927  17.122 -0.7833  0.8162  0.1190
 9900TIP3    H151115  -0.046   0.953  17.069 -1.2179 -0.2058  0.2162
 9900TIP3    H251116   0.008   0.955  17.211 -1.8366 -0.9265  0.4739
 9901TIP3   OH251117   5.275   0.604  11.063 -0.7122  0.1756 -1.0483
 9901TIP3    H151118   5.261   0.581  11.155 -1.1328 -2.4983 -1.7042
 9901TIP3    H251119   5.351   0.661  11.064 -0.7373  0.2388  0.9644
 9902TIP3   OH251120   4.214   2.597  12.180 -0.0529 -0.5426 -0.4848
 9902TIP3    H151121   4.219   2.692  12.169  0.2003 -0.4785  0.1444
 9902TIP3    H251122   4.280   2.577  12.247  0.0357 -1.1858 -0.7536
 9903TIP3   OH251123   5.729   4.701  13.075 -0.4287  0.1047 -0.7379
 9903TIP3    H151124   5.648   4.649  13.076 -0.6295  0.4148 -0.9206
 9903TIP3    H251125   5.799   4.635  13.076 -0.6812 -0.1664 -0.6549
 9904TIP3   OH251126   4.654   5.564  16.625 -0.4690  0.1483 -0.3547
 9904TIP3    H151127   4.568   5.601  16.643 -0.0205  0.5398  1.1712
 9904TIP3    H251128   4.680   5.602  16.541 -1.8490 -0.1330 -0.9275
 9905TIP3   OH251129   2.641   2.072   1.007  0.0069  0.3416  0.0875
 9905TIP3    H151130   2.721   2.122   1.019  0.0802 -0.0195  1.3195
 9905TIP3    H251131   2.615   2.047   1.096  0.2255 -2.1912 -0.4701
 9906TIP3   OH251132   6.211   5.314   0.848  0.1315 -0.2122 -0.1640
 9906TIP3    H151133   6.223   5.219   0.848 -0.1834 -0.2782  0.9579
 9906TIP3    H251134   6.278   5.346   0.909 -0.6291  0.1376  0.5049
 9907TIP3   OH251135   1.823   1.377  13.299  0.0160  0.1868  0.2678
 9907TIP3    H151136   1.902   1.336  13.264  0.1313 -0.2965  1.0812
 9907TIP3    H251137   1.766   1.303  13.321 -0.7216  0.5350 -0.4371
 9908TIP3   OH251138   0.993   6.448  15.735 -0.3305  0.5267 -0.4105
 9908TIP3    H151139   1.010   6.422  15.645 -1.1724  0.4518 -0.5628
 9908TIP3    H251140   0.904   6.486  15.732 -0.6358 -0.0964  0.4991
 9909TIP3   OH251141   2.045   6.161  12.948  0.0198 -0.3492 -0.2750
 9909TIP3    H151142   2.083   6.138  13.033 -0.3925 -0.5133 -0.1319
 9909TIP3    H251143   1.964   6.207  12.971 -0.3681 -0.8743 -0.5856
 9910TIP3   OH251144   1.629   5.132  15.308  0.6427 -0.1606 -0.3987
 9910TIP3    H151145   1.570   5.091  15.371  0.0170  1.3455  0.0299
 9910TIP3    H251146   1.713   5.138  15.355  0.1286  1.1368  0.4067
 9911TIP3   OH251147   5.403   2.283   6.331 -0.2223  0.4273 -0.2017
 9911TIP3    H151148   5.349   2.340   6.385  0.1184  1.1477 -0.6025
 9911TIP3    H251149   5.480   2.336   6.309  0.5187 -0.4868  0.1326
 9912TIP3   OH251150   1.094   3.273  16.345 -0.2976  0.9554 -0.6557
 9912TIP3    H151151   1.089   3.343  16.410 -0.7797  0.5363 -0.2241
 9912TIP3    H251152   1.080   3.317  16.261 -1.6958  1.2481 -0.3024
 9913TIP3   OH251153   1.813   2.279  15.130  0.1268  0.0030 -0.4190
 9913TIP3    H151154   1.806   2.363  15.086 -1.8115  0.6520  0.9936
 9913TIP3    H251155   1.885   2.290  15.192  0.7369  0.1472 -1.1332
 9914TIP3   OH251156   1.935   2.691  16.553  0.1584  0.2172 -0.6018
 9914TIP3    H151157   1.984   2.691  16.471 -0.3575  0.6382 -0.9150
 9914TIP3    H251158   1.906   2.600  16.563  0.4890  0.0973 -0.7241
 9915TIP3   OH251159   5.076   5.653   4.991 -0.1546 -0.2706  0.0242
 9915TIP3    H151160   5.129   5.644   4.912  0.3980 -3.3886  0.6027
 9915TIP3    H251161   5.010   5.584   4.984 -3.3920  2.5673  0.0305
 9916TIP3   OH251162   4.298   0.927  16.878 -0.2747  0.3299  0.1720
 9916TIP3    H151163   4.349   0.847  16.867  0.2539  0.6154  0.5378
 9916TIP3    H251164   4.263   0.946  16.790  1.0366  0.6617 -0.3007
 9917TIP3   OH251165   1.745   0.791   4.305 -0.5084  0.1579  0.0079
 9917TIP3    H151166   1.691   0.809   4.381  0.3338  0.7028  0.4987
 9917TIP3    H251167   1.761   0.696   4.308  1.5415  0.4786  1.9556
 9918TIP3   OH251168   3.437   3.984  16.189  0.1241  0.1696  0.2219
 9918TIP3    H151169   3.400   3.975  16.101  0.5616  1.5579 -0.1123
 9918TIP3    H251170   3.531   3.989  16.175  0.1284  1.5368  0.6665
 9919TIP3   OH251171   2.046   0.228  10.862  0.0416 -0.6451  0.5041
 9919TIP3    H151172   2.093   0.205  10.782  0.5857 -1.8841  1.1578
 9919TIP3    H251173   1.958   0.193  10.848 -0.1961  0.0992  0.0245
 9920TIP3   OH251174   4.003   6.278   1.346 -0.8543  0.0034  0.0051
 9920TIP3    H151175   4.070   6.306   1.408 -0.9077 -0.9528  0.5151
 9920TIP3    H251176   4.050   6.265   1.264 -0.6790  0.7152 -0.0101
 9921TIP3   OH251177   4.740   6.586  16.666  0.3860  0.8940 -0.0752
 9921TIP3    H151178   4.691   6.641  16.727  0.8737  0.7022  0.5033
 9921TIP3    H251179   4.776   6.648  16.602 -2.4613  0.8317 -1.8892
 9922TIP3   OH251180   0.801   4.316  13.707 -0.0940 -0.1884  0.5943
 9922TIP3    H151181   0.771   4.297  13.796  0.1177 -1.3490  0.4277
 9922TIP3    H251182   0.761   4.248  13.653  0.9963 -0.3884  0.0274
 9923TIP3   OH251183   5.442   6.364   5.624 -0.0555 -0.4543 -0.4658
 9923TIP3    H151184   5.518   6.389   5.572 -0.0799 -0.4538 -0.5004
 9923TIP3    H251185   5.455   6.271   5.642 -0.5082 -0.6835 -1.2560
 9924TIP3   OH251186   6.223   2.241   1.611 -0.4177  0.0807  0.3651
 9924TIP3    H151187   6.226   2.336   1.615 -0.0903  0.2071 -1.7830
 9924TIP3    H251188   6.265   2.219   1.527 -0.1802 -1.9658  0.9639
 9925TIP3   OH251189   6.494   0.837  12.329  0.7484 -0.4694 -0.1522
 9925TIP3    H151190   6.561   0.902  12.350  1.7469 -1.9053  1.3488
 9925TIP3    H251191   6.520   0.759  12.377 -0.9432 -1.7034 -1.1176
 9926TIP3   OH251192   2.563   5.130   0.695 -0.6058  0.3834 -0.5774
 9926TIP3    H151193   2.572   5.045   0.739 -1.4199  0.9389  0.7012
 9926TIP3    H251194   2.480   5.165   0.728 -0.8443  1.1885 -1.9626
 9927TIP3   OH251195   5.682   1.600   2.997  0.1992 -0.1768 -0.0079
 9927TIP3    H151196   5.601   1.602   2.946  1.0035 -2.7325 -1.5727
 9927TIP3    H251197   5.700   1.692   3.017 -1.5245  0.7303 -2.1830
 9928TIP3   OH251198   1.864   3.712   3.292  0.0764  0.0298  0.1240
 9928TIP3    H151199   1.900   3.667   3.216  1.5811  0.2577  0.6654
 9928TIP3    H251200   1.939   3.725   3.350 -0.5690  2.0454  0.5726
 9929TIP3   OH251201   0.157   5.854  11.609 -0.7085 -0.6532 -0.5905
 9929TIP3    H151202   0.228   5.816  11.558 -0.7773 -3.3183  1.1531
 9929TIP3    H251203   0.199   5.888  11.688 -0.9816  0.9347 -1.0768
 9930TIP3   OH251204   6.325   1.838  12.929 -0.2665  0.9263  0.0806
 9930TIP3    H151205   6.256   1.812  12.990  0.0573 -0.5736 -0.1520
 9930TIP3    H251206   6.401   1.784  12.953 -0.7094 -1.3160 -2.8510
 9931TIP3   OH251207   2.819   2.987  14.332  0.3846  0.7064  0.6368
 9931TIP3    H151208   2.736   2.940  14.328 -0.5066  2.2605  0.1351
 9931TIP3    H251209   2.805   3.054  14.399  0.4587  2.3563 -0.9254
 9932TIP3   OH251210   4.160   5.193   3.925  0.5493 -0.4127  0.3901
 9932TIP3    H151211   4.123   5.155   4.004 -0.7530  0.0310  0.0322
 9932TIP3    H251212   4.083   5.211   3.870  1.4725 -1.4004 -1.2854
 9933TIP3   OH251213   4.163   5.252  16.821 -0.3094  0.2376  0.9882
 9933TIP3    H151214   4.236   5.311  16.839  0.9662 -0.9161 -0.2183
 9933TIP3    H251215   4.173   5.181  16.885 -0.9201  0.5366  1.4191
 9934TIP3   OH251216   3.180   5.076  11.515 -0.5770 -0.1460 -0.4836
 9934TIP3    H151217   3.137   5.061  11.600  0.3258 -0.8246 -0.1367
 9934TIP3    H251218   3.110   5.065  11.451 -1.0529 -0.6487  0.1114
 9935TIP3   OH251219   6.505   6.252   5.546 -0.2138  0.2433  0.1854
 9935TIP3    H151220   6.529   6.230   5.636 -1.5218 -2.4659 -0.0244
 9935TIP3    H251221   6.587   6.250   5.497  0.0862 -1.9736  0.6929
 9936TIP3   OH251222   3.933   2.864   2.275 -0.0190 -0.3837  0.0055
 9936TIP3    H151223   4.017   2.909   2.285 -0.3088  0.4446 -1.0593
 9936TIP3    H251224   3.920   2.818   2.358 -0.1025  2.1725  1.5056
 9937TIP3   OH251225   3.059   3.467   4.662  0.2412  0.4046  0.0117
 9937TIP3    H151226   3.034   3.445   4.752 -0.0913 -0.6581 -0.3256
 9937TIP3    H251227   2.993   3.424   4.607  1.1984 -0.1103 -0.7807
 9938TIP3   OH251228   6.733   2.561  15.729  0.5322 -0.1215 -0.6965
 9938TIP3    H151229   6.672   2.488  15.728 -0.1232  0.3857  0.2597
 9938TIP3    H251230   6.819   2.521  15.744  0.2448 -0.7353 -0.6807
 9939TIP3   OH251231   5.721   0.644   2.052  0.0711  0.2813 -0.2688
 9939TIP3    H151232   5.713   0.702   2.128  1.2443  0.0549  0.0481
 9939TIP3    H251233   5.791   0.683   2.000  1.0933 -0.9980  0.1008
 9940TIP3   OH251234   5.137   4.044   3.392 -0.3047 -0.6318 -0.7775
 9940TIP3    H151235   5.132   4.140   3.398  0.3599 -0.5376 -1.5631
 9940TIP3    H251236   5.116   4.013   3.480  0.6618  0.2859 -0.2024
 9941TIP3   OH251237   2.609   3.054  17.157 -0.6150  0.2842  0.4934
 9941TIP3    H151238   2.553   3.101  17.095 -0.5820 -0.6125 -0.2341
 9941TIP3    H251239   2.650   2.985  17.105  1.0639  0.8205  1.0390
 9942TIP3   OH251240   3.728   0.458  15.585  0.4413  0.2712 -0.0316
 9942TIP3    H151241   3.796   0.517  15.551  0.2967  1.2979  1.4064
 9942TIP3    H251242   3.778   0.384  15.621  0.6996  0.2534 -0.4087
 9943TIP3   OH251243   6.035   5.272  13.978  0.2481  0.4247  0.5176
 9943TIP3    H151244   5.991   5.203  14.027 -0.4783  0.5104 -0.0020
 9943TIP3    H251245   6.101   5.225  13.926 -0.3743  0.0909  0.0179
 9944TIP3   OH251246   6.317   2.499  14.967  0.0018 -0.2971  0.3288
 9944TIP3    H151247   6.324   2.574  15.026 -1.5093 -1.7630  2.5052
 9944TIP3    H251248   6.236   2.514  14.919  0.1229 -0.1564  0.1650
 9945TIP3   OH251249   3.489   0.227  14.695  0.2334  0.0290  0.2138
 9945TIP3    H151250   3.467   0.147  14.744  0.8421 -0.6294 -0.5516
 9945TIP3    H251251   3.574   0.254  14.730 -0.3670  0.8659  1.0842
 9946TIP3   OH251252   3.148   2.926   5.163  0.2468 -0.3242 -0.5796
 9946TIP3    H151253   3.106   2.895   5.083  1.0461 -0.4545 -0.9525
 9946TIP3    H251254   3.075   2.960   5.217 -0.2996 -0.3082 -1.3188
 9947TIP3   OH251255   3.372   0.994   0.190  0.1100  0.1406  0.1562
 9947TIP3    H151256   3.293   0.971   0.141  0.2699  1.3751 -0.7382
 9947TIP3    H251257   3.397   0.914   0.235  0.1669 -1.1866 -2.1067
 9948TIP3   OH251258   2.748   0.845  15.807 -0.7639 -0.0475 -0.3695
 9948TIP3    H151259   2.676   0.789  15.780 -1.1224  0.3053 -0.1565
 9948TIP3    H251260   2.710   0.933  15.810  0.1261  0.4587 -2.1366
 9949TIP3   OH251261   4.790   1.166   3.325 -0.3377 -0.0082 -0.0285
 9949TIP3    H151262   4.768   1.202   3.411 -2.1139 -1.5982  0.2419
 9949TIP3    H251263   4.761   1.075   3.329 -0.7892 -0.0337 -2.4190
 9950TIP3   OH251264   0.275   2.515   2.029 -0.0979  0.7696  0.2992
 9950TIP3    H151265   0.329   2.482   1.957 -0.5933  0.6388 -0.0178
 9950TIP3    H251266   0.251   2.604   2.003 -0.0180  0.8363  0.4510
 9951TIP3   OH251267   1.671   6.325   4.621 -0.4412  0.0811  0.2317
 9951TIP3    H151268   1.726   6.249   4.641 -1.0198 -0.3043  0.3859
 9951TIP3    H251269   1.655   6.366   4.706 -1.7635 -0.7726  0.4323
 9952TIP3   OH251270   2.514   0.389  12.214 -0.0250 -0.0728  0.0000
 9952TIP3    H151271   2.599   0.354  12.187 -0.1850 -1.5101  1.2238
 9952TIP3    H251272   2.497   0.347  12.298 -1.6266  0.7430  0.1144
 9953TIP3   OH251273   2.258   4.906  13.103 -0.2635  0.1503  0.1181
 9953TIP3    H151274   2.324   4.894  13.171  1.7388 -0.3782 -1.7991
 9953TIP3    H251275   2.240   5.000  13.102  2.5394  0.7914 -1.0287
 9954TIP3   OH251276   3.653   0.897   4.112 -0.1846 -0.4388  0.1965
 9954TIP3    H151277   3.639   0.873   4.021  0.8024 -1.3272  0.2670
 9954TIP3    H251278   3.730   0.953   4.112 -0.1705 -0.4532  0.4845
 9955TIP3   OH251279   3.744   6.529   0.837 -0.0280 -0.2337 -0.0092
 9955TIP3    H151280   3.747   6.589   0.762  0.9157 -0.5503 -0.2378
 9955TIP3    H251281   3.691   6.455   0.806 -0.0483 -0.1406 -0.1984
 9956TIP3   OH251282   1.929   0.385  12.519  0.7166  0.1715  0.2769
 9956TIP3    H151283   1.918   0.295  12.489  3.1893 -0.2108  0.2786
 9956TIP3    H251284   1.975   0.429  12.447  0.2071  1.2330  0.5804
 9957TIP3   OH251285   4.300   0.332   4.711 -0.6098  0.0499  0.2819
 9957TIP3    H151286   4.311   0.324   4.805  0.1319  0.1151  0.2042
 9957TIP3    H251287   4.290   0.426   4.696 -0.5164  0.0594  0.2765
 9958TIP3   OH251288   4.641   0.090   4.196 -0.2075 -0.3995  0.2039
 9958TIP3    H151289   4.580   0.027   4.159 -0.4218  0.9060 -1.8569
 9958TIP3    H251290   4.592   0.132   4.266 -0.2384 -2.1044  1.2446
 9959TIP3   OH251291   0.089   0.539   1.301  0.6812  0.2745 -0.1465
 9959TIP3    H151292   0.140   0.604   1.350  0.8247 -0.7694  1.1807
 9959TIP3    H251293   0.136   0.529   1.218  3.3979 -1.4173  1.4175
 9960TIP3   OH251294   0.195   0.977  16.847 -0.2849 -0.1354 -0.9223
 9960TIP3    H151295   0.241   0.949  16.926  1.0489  1.2600 -1.1602
 9960TIP3    H251296   0.124   1.033  16.879 -0.2809 -0.2725 -0.6716
 9961TIP3   OH251297   5.539   2.231   3.810 -0.2542 -0.0207  0.2736
 9961TIP3    H151298   5.590   2.280   3.745 -0.8466  1.0662  0.6008
 9961TIP3    H251299   5.581   2.253   3.893  0.3461 -1.2073  0.3032
 9962TIP3   OH251300   6.748   6.009   1.795  0.2913  0.1374 -0.0547
 9962TIP3    H151301   6.660   5.976   1.814  0.4849 -0.1116  0.4300
 9962TIP3    H251302   6.739   6.053   1.711 -0.0993 -0.6688 -0.4468
 9963TIP3   OH251303   2.785   2.994   1.943 -0.0561 -0.2574 -0.5923
 9963TIP3    H151304   2.834   3.075   1.933  1.6605 -0.5719  3.6041
 9963TIP3    H251305   2.839   2.928   1.900  0.9609  0.1165  0.0800
 9964TIP3   OH251306   5.350   0.070  16.878  0.0126 -0.4176  0.6356
 9964TIP3    H151307   5.442   0.085  16.896 -0.2264  0.8668  0.8429
 9964TIP3    H251308   5.348   0.038  16.788  0.5695  0.6860  0.2184
 9965TIP3   OH251309   0.163   3.120   5.799 -0.3898 -0.3795  0.5503
 9965TIP3    H151310   0.204   3.100   5.715  0.0506 -0.3886  0.7596
 9965TIP3    H251311   0.226   3.089   5.864 -0.1947  0.6589  0.8800
 9966TIP3   OH251312   1.987   2.584  15.778 -0.1588 -0.2272 -0.4993
 9966TIP3    H151313   1.906   2.559  15.734 -0.8595 -1.4170  1.3236
 9966TIP3    H251314   1.976   2.677  15.799 -0.7219 -0.1938 -0.9377
 9967TIP3   OH251315   5.812   5.490   0.208 -0.3498 -1.0337 -0.3152
 9967TIP3    H151316   5.772   5.457   0.128 -1.0400 -1.0914  0.0460
 9967TIP3    H251317   5.851   5.413   0.250 -0.3177 -1.0697 -0.4131
 9968TIP3   OH251318   5.233   0.551  14.209 -0.1734 -0.3163 -0.1770
 9968TIP3    H151319   5.316   0.566  14.164 -0.8133  0.2929 -1.1934
 9968TIP3    H251320   5.234   0.615  14.281  1.3380 -2.0388  1.4479
 9969TIP3   OH251321   5.317   5.450   5.728 -0.4605 -0.5804 -0.2947
 9969TIP3    H151322   5.324   5.449   5.632  0.8778 -1.7649 -0.2173
 9969TIP3    H251323   5.403   5.419   5.758 -0.9482 -0.4547  1.2913
 9970TIP3   OH251324   2.822   1.155  12.608  0.3342  0.4834  0.0872
 9970TIP3    H151325   2.894   1.097  12.585  0.8347  1.3061 -0.4527
 9970TIP3    H251326   2.763   1.100  12.661  0.8823 -0.4518 -0.2539
 9971TIP3   OH251327   1.921   4.591  16.028  0.6949 -0.3892  0.3536
 9971TIP3    H151328   1.863   4.535  15.976  1.3346 -1.5140  0.8162
 9971TIP3    H251329   1.872   4.607  16.109  1.1670 -1.6497  0.9010
 9972TIP3   OH251330   4.513   3.264  12.811 -0.2166  0.2598  0.3428
 9972TIP3    H151331   4.514   3.254  12.715  0.4198  1.9119  0.1470
 9972TIP3    H251332   4.486   3.178  12.843  1.6516 -1.0222 -1.2395
 9973TIP3   OH251333   2.022   3.877  14.948 -0.3098 -0.4461 -0.8941
 9973TIP3    H151334   1.936   3.848  14.979  0.4232 -2.4878 -0.5784
 9973TIP3    H251335   2.048   3.944  15.011 -1.9832  0.8127 -1.4719
 9974TIP3   OH251336   1.466   0.486  12.645 -0.6214 -0.0193 -0.7499
 9974TIP3    H151337   1.410   0.563  12.634  0.0462  1.2879  3.4040
 9974TIP3    H251338   1.555   0.520  12.634 -0.3014 -0.0128  1.4965
 9975TIP3   OH251339   4.668   6.650  14.758 -0.1406 -0.2111  0.3587
 9975TIP3    H151340   4.602   6.586  14.786  0.8403 -1.0541  0.7996
 9975TIP3    H251341   4.620   6.708  14.699 -1.0019 -1.5188 -0.2856
 9976TIP3   OH251342   5.408   3.649  14.696 -0.3279 -0.3937  0.1487
 9976TIP3    H151343   5.399   3.557  14.721  0.7637 -0.5974 -0.1763
 9976TIP3    H251344   5.415   3.696  14.779  0.6271 -0.7730  0.2914
 9977TIP3   OH251345   1.801   0.224  13.758 -0.6400  0.2434 -0.3577
 9977TIP3    H151346   1.765   0.163  13.694 -0.0544 -2.5869  1.8344
 9977TIP3    H251347   1.896   0.207  13.757 -0.8246 -1.9261  3.0109
 9978TIP3   OH251348   4.442   3.686   1.735  0.0876 -0.1881  0.8567
 9978TIP3    H151349   4.399   3.737   1.804  1.4235 -1.1142  2.4591
 9978TIP3    H251350   4.504   3.747   1.695 -2.8953  1.3390 -1.8761
 9979TIP3   OH251351   4.277   2.525   3.978 -0.6079 -0.0561  0.0778
 9979TIP3    H151352   4.264   2.458   4.045 -3.4365 -0.6211 -0.9310
 9979TIP3    H251353   4.254   2.482   3.896  2.0808  0.8415 -1.2832
 9980TIP3   OH251354   0.585   3.141   0.843  0.1702 -0.2017 -0.2925
 9980TIP3    H151355   0.679   3.129   0.846  0.3152  0.8745 -0.0349
 9980TIP3    H251356   0.572   3.236   0.855 -1.1009 -0.6530  3.0185
 9981TIP3   OH251357   5.925   6.334  12.976  0.9165 -0.9277 -0.0215
 9981TIP3    H151358   6.006   6.364  12.934  0.4460  0.4502 -0.0082
 9981TIP3    H251359   5.864   6.321  12.904  0.3041  0.8191  0.1370
 9982TIP3   OH251360   1.958   4.690   1.452  0.1565 -0.0438 -0.2212
 9982TIP3    H151361   2.044   4.731   1.440  0.3288 -0.1063  0.7630
 9982TIP3    H251362   1.908   4.753   1.503 -0.4111  0.0151 -0.8349
 9983TIP3   OH251363   5.350   2.534   3.917  0.4671  0.7929  0.0221
 9983TIP3    H151364   5.343   2.507   3.825  1.5926  1.6300 -0.3238
 9983TIP3    H251365   5.288   2.607   3.924 -2.1835 -1.3570  0.8288
 9984TIP3   OH251366   1.461   3.758  13.455  0.2227  0.1934 -0.1880
 9984TIP3    H151367   1.391   3.720  13.401 -0.8110  0.6359  0.7949
 9984TIP3    H251368   1.526   3.689  13.462 -1.7580 -1.6094  1.8463
 9985TIP3   OH251369   3.404   1.314  12.982  0.1714 -0.2282  0.3971
 9985TIP3    H151370   3.338   1.382  12.997 -0.1328 -0.5368  0.4606
 9985TIP3    H251371   3.467   1.355  12.923  0.2591  0.2833  0.8420
 9986TIP3   OH251372   1.552   6.515  10.653  0.3576  0.4376 -0.2272
 9986TIP3    H151373   1.602   6.577  10.706  0.5150  0.6588 -0.6316
 9986TIP3    H251374   1.618   6.470  10.600  0.5179 -1.5425  1.4961
 9987TIP3   OH251375   0.328   4.975  17.091 -0.1091 -0.4081 -0.4779
 9987TIP3    H151376   0.393   4.904  17.097  0.1887 -0.0566  0.6398
 9987TIP3    H251377   0.351   5.034  17.162 -1.1554  0.1597 -0.5992
 9988TIP3   OH251378   1.546   0.203  12.995  0.3918  0.4124 -0.3789
 9988TIP3    H151379   1.523   0.208  12.903 -0.5681  0.9802 -0.1252
 9988TIP3    H251380   1.528   0.290  13.030 -1.3937 -0.3611  0.7883
 9989TIP3   OH251381   3.016   0.708   5.052  0.2601  0.4487 -0.2097
 9989TIP3    H151382   2.967   0.718   4.970 -0.2331  1.2904  0.1818
 9989TIP3    H251383   2.951   0.719   5.121  0.8468  0.6990  0.3083
 9990TIP3   OH251384   1.376   4.305   4.629  0.4492 -0.4508  0.2333
 9990TIP3    H151385   1.325   4.231   4.595 -0.0060  0.0867 -0.2730
 9990TIP3    H251386   1.466   4.285   4.601  0.4881 -1.2586  0.8877
 9991TIP3   OH251387   0.352   5.969   6.024 -0.0965 -0.3059 -0.4668
 9991TIP3    H151388   0.359   5.885   6.070  1.5876  0.0410 -0.0115
 9991TIP3    H251389   0.364   6.035   6.092  1.2256  0.2448 -1.2000
 9992TIP3   OH251390   2.731   5.639   2.661 -0.3146  0.1295  0.5121
 9992TIP3    H151391   2.677   5.613   2.587  0.2076 -0.8190  0.4518
 9992TIP3    H251392   2.759   5.729   2.641 -0.2890 -0.0701 -0.3718
 9993TIP3   OH251393   3.610   0.662  11.382  0.1705  0.2494  0.6670
 9993TIP3    H151394   3.629   0.652  11.289  1.6638  0.8523  0.8765
 9993TIP3    H251395   3.593   0.756  11.393 -3.2908 -0.2439  0.4838
 9994TIP3   OH251396   5.154   6.517   5.787  0.0971  0.3630 -0.0416
 9994TIP3    H151397   5.168   6.580   5.716 -0.0438  0.3907 -0.0461
 9994TIP3    H251398   5.239   6.509   5.829 -0.1217  1.3534  0.6217
 9995TIP3   OH251399   0.945   3.998   0.799  0.1780 -0.1219  0.4441
 9995TIP3    H151400   0.974   3.963   0.715 -1.0722  1.1735 -0.5695
 9995TIP3    H251401   0.914   3.922   0.847 -2.2440 -0.5320 -1.5937
 9996TIP3   OH251402   5.982   3.377   3.498  0.0513 -0.4259 -0.1782
 9996TIP3    H151403   6.032   3.297   3.482  0.9014 -0.0752  0.6630
 9996TIP3    H251404   5.893   3.347   3.512  0.5340 -1.3485  1.1299
 9997TIP3   OH251405   3.740   1.396   1.114 -0.3653  0.5397 -0.0340
 9997TIP3    H151406   3.658   1.414   1.160  0.2198 -1.2425  1.8595
 9997TIP3    H251407   3.808   1.413   1.179  0.6365 -0.0935 -0.8910
 9998TIP3   OH251408   6.619   0.623   1.770  0.0521  0.4197  0.5295
 9998TIP3    H151409   6.545   0.563   1.778  0.6415 -0.3062  0.5961
 9998TIP3    H251410   6.627   0.639   1.676 -0.5975  1.0328  0.5674
 9999TIP3   OH251411   3.157   0.249  12.140  0.2241 -0.4354  0.2958
 9999TIP3    H151412   3.099   0.174  12.128 -0.4781 -0.1260  1.6024
 9999TIP3    H251413   3.146   0.300  12.059  0.3964 -1.4976 -0.4263
10000TIP3   OH251414   4.756   3.846   3.170  0.0461 -1.0424 -0.1298
10000TIP3    H151415   4.807   3.815   3.245 -0.2749  0.5600  0.8171
10000TIP3    H251416   4.795   3.932   3.149 -1.4636 -0.3354 -0.1709
10001TIP3   OH251417   5.269   6.201  10.382  0.0831 -0.4311  0.0799
10001TIP3    H151418   5.185   6.167  10.352 -0.0909 -0.3706  0.4911
10001TIP3    H251419   5.251   6.292  10.405  0.4422 -0.1891 -0.5836
10002TIP3   OH251420   1.486   6.218   5.666 -0.5886 -0.3844  0.3713
10002TIP3    H151421   1.494   6.123   5.664 -0.4263 -0.3584 -0.6867
10002TIP3    H251422   1.392   6.234   5.653 -0.4855 -0.3835 -0.4017
10003TIP3   OH251423   6.045   5.698   4.660  0.7771 -0.0518 -0.3423
10003TIP3    H151424   6.055   5.626   4.597 -1.4612 -1.8668  1.2045
10003TIP3    H251425   5.981   5.757   4.620  0.4374 -0.4520 -0.3972
10004TIP3   OH251426   5.745   1.361  15.708 -0.3655  0.2093 -0.8108
10004TIP3    H151427   5.724   1.453  15.691 -3.1258 -0.4081 -1.1547
10004TIP3    H251428   5.802   1.336  15.634 -0.6327  1.2908 -1.4114
10005TIP3   OH251429   0.898   5.273   5.811 -0.2524  0.2529 -0.0002
10005TIP3    H151430   0.993   5.269   5.814 -0.2186  1.0311  0.1737
10005TIP3    H251431   0.872   5.199   5.756  0.4145 -0.3413  0.4701
10006TIP3   OH251432   5.719   2.094   4.466 -0.2119  0.3710 -0.0763
10006TIP3    H151433   5.629   2.112   4.491  0.0003 -0.4102  1.4117
10006TIP3    H251434   5.762   2.179   4.470 -0.6702  0.5937  0.2154
10007TIP3   OH251435   6.144   3.601   4.661  0.3908 -0.6928  0.5418
10007TIP3    H151436   6.071   3.658   4.684  0.6404  0.5821 -1.5238
10007TIP3    H251437   6.110   3.547   4.590  0.6841 -1.9638  1.3493
10008TIP3   OH251438   5.224   2.907  15.678 -0.3918 -0.2322  0.1169
10008TIP3    H151439   5.296   2.897  15.740 -1.2017 -0.7396  1.0217
10008TIP3    H251440   5.265   2.932  15.596  0.9119 -1.6598  0.3039
10009TIP3   OH251441   3.664   2.299  11.179  0.8632  0.1143 -0.1389
10009TIP3    H151442   3.599   2.270  11.244  2.1410 -0.5646  0.8782
10009TIP3    H251443   3.711   2.370  11.223 -0.3774  1.9227 -1.5779
10010TIP3   OH251444   4.327   4.379  16.498  0.4804 -1.0221 -0.1279
10010TIP3    H151445   4.379   4.401  16.420  1.2536 -0.7777  0.4426
10010TIP3    H251446   4.248   4.432  16.489  1.7673  1.1606  0.5963
10011TIP3   OH251447   1.667   5.626  16.786  0.3556  0.1383 -0.5774
10011TIP3    H151448   1.626   5.701  16.744  0.7528 -1.0577 -3.3691
10011TIP3    H251449   1.754   5.657  16.812 -0.0490  1.0369 -0.2597
10012TIP3   OH251450   4.600   3.629   5.221  0.3969 -0.2370  0.6746
10012TIP3    H151451   4.538   3.589   5.281  0.6877  0.0299  1.1525
10012TIP3    H251452   4.679   3.574   5.228 -0.2972 -1.5777 -1.1454
10013TIP3   OH251453   6.227   5.088   4.437  0.3841 -0.1461  0.3583
10013TIP3    H151454   6.171   5.086   4.359  1.4021  1.0444 -0.4465
10013TIP3    H251455   6.283   5.011   4.428 -1.8815 -2.1393  1.8520
10014TIP3   OH251456   1.488   6.442  16.895 -0.7320  0.6412 -0.1966
10014TIP3    H151457   1.420   6.508  16.906  0.1436  1.4722  0.4222
10014TIP3    H251458   1.494   6.400  16.981  1.4043  2.4589  0.6195
10015TIP3   OH251459   0.588   6.412  16.835 -0.3536  0.2158 -0.1251
10015TIP3    H151460   0.598   6.439  16.744 -1.9433  0.2039 -0.3399
10015TIP3    H251461   0.599   6.492  16.885 -1.4281  0.6088 -0.4899
10016TIP3   OH251462   2.443   1.615   2.108 -0.3121  0.0214 -0.2615
10016TIP3    H151463   2.438   1.681   2.177 -0.6170  1.0596 -1.2613
10016TIP3    H251464   2.428   1.663   2.027 -0.1039 -1.2053 -1.0522
10017TIP3   OH251465   5.512   5.059   4.314 -0.0800  0.3573 -0.5988
10017TIP3    H151466   5.472   5.007   4.244  1.8074 -1.3840 -0.4856
10017TIP3    H251467   5.578   5.112   4.269  0.3098  0.1260 -0.3070
10018TIP3   OH251468   3.303   5.006   1.087  0.2028  0.3543 -0.0890
10018TIP3    H151469   3.299   5.085   1.141  2.2149  1.0961 -0.9178
10018TIP3    H251470   3.219   5.005   1.040 -0.8385  0.6583  1.6828
10019TIP3   OH251471   4.326   0.131  13.235 -0.0331  0.4692  0.0739
10019TIP3    H151472   4.380   0.164  13.163  2.0755 -1.8445  0.4347
10019TIP3    H251473   4.247   0.099  13.193  0.7691 -0.0172 -1.1163
10020TIP3   OH251474   1.053   0.658   3.796  0.8996  0.1012 -0.5233
10020TIP3    H151475   0.995   0.734   3.790 -0.7400 -1.0530 -0.0788
10020TIP3    H251476   1.138   0.694   3.819 -0.7484  1.5965  4.4190
10021TIP3   OH251477   6.275   5.323  14.218  0.1082  0.1066  0.3724
10021TIP3    H151478   6.302   5.239  14.183 -2.4098 -1.3842  1.6710
10021TIP3    H251479   6.296   5.318  14.311 -1.6560  0.1197  0.8086
10022TIP3   OH251480   3.579   2.872   4.720 -0.1928  0.1188 -0.0093
10022TIP3    H151481   3.532   2.795   4.688 -0.2781  0.0316  0.3293
10022TIP3    H251482   3.521   2.945   4.698 -0.0983  0.0904 -0.3562
10023TIP3   OH251483   2.427   4.543  15.837  0.0099 -0.1932  0.6147
10023TIP3    H151484   2.473   4.575  15.759  0.7300 -2.3668  0.0945
10023TIP3    H251485   2.497   4.517  15.896 -0.5416  1.0457  1.8705
10024TIP3   OH251486   0.091   2.745   3.809  0.0147  0.5188  0.6257
10024TIP3    H151487   0.090   2.696   3.726  1.2740 -2.2601  2.1108
10024TIP3    H251488   0.036   2.693   3.868  1.4893  0.7954  2.3291
10025TIP3   OH251489   2.189   3.010   5.031  0.0236  0.1272  0.6129
10025TIP3    H151490   2.094   3.004   5.037  0.0597  0.4829  1.6788
10025TIP3    H251491   2.204   3.062   4.952 -0.7404  1.7599  1.4857
10026TIP3   OH251492   4.058   2.881   2.939  0.2778 -0.3843  0.0596
10026TIP3    H151493   4.126   2.827   2.898 -1.6032 -2.0674 -1.0506
10026TIP3    H251494   4.025   2.935   2.867 -0.5526 -0.6824  0.2077
10027TIP3   OH251495   6.434   2.352  12.604 -0.3087  0.5682 -0.1229
10027TIP3    H151496   6.367   2.290  12.576  0.2095  0.7828 -1.9475
10027TIP3    H251497   6.514   2.325  12.557  0.6698  0.8622  1.3049
10028TIP3   OH251498   0.582   6.117   4.035 -0.5782  0.4080 -0.7662
10028TIP3    H151499   0.492   6.149   4.027 -0.4732  0.8726 -0.1675
10028TIP3    H251500   0.583   6.068   4.118  0.0466  1.5528 -0.0793
10029TIP3   OH251501   6.745   4.725   4.873  0.0302 -0.3932 -0.1719
10029TIP3    H151502   6.825   4.731   4.820  1.4552 -2.1396  1.6404
10029TIP3    H251503   6.725   4.632   4.875 -1.4459 -0.0805  0.3133
10030TIP3   OH251504   4.811   3.848   4.892 -0.8462  0.2954  0.0737
10030TIP3    H151505   4.770   3.788   4.829 -0.4572 -1.3686  1.3435
10030TIP3    H251506   4.843   3.921   4.838 -0.2445 -1.2079 -1.7237
10031TIP3   OH251507   0.719   1.417   0.830 -0.5007 -0.2811  0.0033
10031TIP3    H151508   0.670   1.335   0.835 -0.9010  0.0339  1.9069
10031TIP3    H251509   0.672   1.477   0.887 -0.0817  1.2270 -1.1887
10032TIP3   OH251510   1.624   6.187  15.475 -0.0135 -0.3182  0.6132
10032TIP3    H151511   1.576   6.161  15.554 -0.9075 -1.0903 -0.1522
10032TIP3    H251512   1.690   6.119  15.463 -0.1858 -0.4594  0.4481
10033TIP3   OH251513   5.072   2.750   2.404  0.0608  0.0421 -0.5290
10033TIP3    H151514   5.093   2.832   2.358  0.6852  0.1803 -0.0190
10033TIP3    H251515   5.109   2.681   2.349  3.7371  0.3712  1.2504
10034TIP3   OH251516   0.944   3.476   0.075 -0.6452 -0.0440  0.3065
10034TIP3    H151517   0.883   3.411   0.111  1.5965 -1.9224  1.0552
10034TIP3    H251518   1.020   3.424   0.048  1.0716  2.2426  0.4378
10035TIP3   OH251519   1.396   3.832  11.728  0.1691 -0.5398 -0.2064
10035TIP3    H151520   1.488   3.810  11.714  0.8949  0.6653  2.0724
10035TIP3    H251521   1.399   3.916  11.774 -2.1102 -0.1647 -0.6436
10036TIP3   OH251522   6.153   3.351  14.547 -0.1652  0.0766 -0.5087
10036TIP3    H151523   6.089   3.395  14.491 -1.0767 -0.2403  0.2634
10036TIP3    H251524   6.160   3.263  14.511  0.7575  0.4626 -1.3210
10037TIP3   OH251525   3.290   2.708  11.364  0.1763  0.0165  0.0386
10037TIP3    H151526   3.261   2.755  11.443 -0.0600  0.2305 -0.1756
10037TIP3    H251527   3.322   2.624  11.397  0.5477  0.2985  0.4227
10038TIP3   OH251528   2.986   5.029  15.891 -0.1622  0.2722  0.1108
10038TIP3    H151529   2.955   5.074  15.970 -1.4232 -0.7949  0.2541
10038TIP3    H251530   3.031   4.951  15.924  0.2384  0.3694 -0.1990
10039TIP3   OH251531   5.732   2.660  10.941 -0.4462  0.1977 -0.3194
10039TIP3    H151532   5.820   2.624  10.942 -0.1122  0.9899  0.7529
10039TIP3    H251533   5.675   2.586  10.962 -0.0805 -0.3896 -1.3408
10040TIP3   OH251534   4.255   5.921  17.095  0.0602  0.2552  0.6552
10040TIP3    H151535   4.329   5.938  17.153 -0.1250  0.1742  0.9152
10040TIP3    H251536   4.253   5.825  17.086 -0.3037  0.2257  1.0302
10041TIP3   OH251537   4.051   5.292   0.813 -0.2919 -0.3431 -0.3053
10041TIP3    H151538   4.054   5.385   0.788 -0.5712  0.4085  2.1830
10041TIP3    H251539   3.978   5.256   0.763  0.5457  0.4291 -2.2217
10042TIP3   OH251540   5.092   5.738  13.847  0.5622  0.2091  0.9371
10042TIP3    H151541   5.172   5.686  13.839 -0.6217 -1.8001  1.4309
10042TIP3    H251542   5.073   5.739  13.941 -0.7140 -0.5183  0.7040
10043TIP3   OH251543   6.169   6.472   6.902 -0.1456 -0.1319 -0.4168
10043TIP3    H151544   6.126   6.537   6.847  1.2730  2.2192  1.1024
10043TIP3    H251545   6.111   6.462   6.978  0.6613  1.1024  0.4024
10044TIP3   OH251546   4.990   2.262   0.973 -0.3426 -0.2683 -0.2424
10044TIP3    H151547   4.911   2.237   0.924 -0.2006 -1.0999 -0.0630
10044TIP3    H251548   4.989   2.206   1.050 -0.1008  0.4299  0.2769
10045TIP3   OH251549   3.055   6.677   2.009 -0.3003 -0.4496  0.2127
10045TIP3    H151550   3.024   6.671   1.919 -0.4974  0.5196  0.2098
10045TIP3    H251551   3.123   6.609   2.015 -1.0356 -1.2573 -0.3379
10046TIP3   OH251552   6.267   0.262   1.466 -0.0739 -0.0593 -0.1267
10046TIP3    H151553   6.295   0.195   1.528 -0.0681 -0.4139 -0.5092
10046TIP3    H251554   6.223   0.213   1.396 -2.1679  0.4989  0.7146
10047TIP3   OH251555   2.417   4.740  16.681  0.1745  0.5578 -0.3653
10047TIP3    H151556   2.365   4.668  16.646  0.9252  0.9982 -2.4965
10047TIP3    H251557   2.465   4.700  16.754 -0.4103 -0.7633 -0.6735
10048TIP3   OH251558   1.740   1.076   0.913 -0.1755 -0.2813 -0.2146
10048TIP3    H151559   1.815   1.024   0.940 -0.0718 -0.7299 -1.3184
10048TIP3    H251560   1.757   1.164   0.949  1.1519 -0.2266 -0.9369
10049TIP3   OH251561   2.739   3.276  15.408  0.2898  0.1706 -0.0443
10049TIP3    H151562   2.728   3.192  15.363 -0.2783  1.0320 -1.5700
10049TIP3    H251563   2.660   3.326  15.388 -0.0802  0.5629  2.0867
10050TIP3   OH251564   1.130   6.307  11.641  0.5937  0.7984 -0.8113
10050TIP3    H151565   1.198   6.302  11.708  1.3549 -0.1957 -1.6218
10050TIP3    H251566   1.132   6.398  11.611 -0.6283  1.6092  1.3448
10051TIP3   OH251567   1.891   5.792  16.850  0.0763 -0.4832 -0.1886
10051TIP3    H151568   1.894   5.886  16.871  0.5231 -0.3876 -0.6528
10051TIP3    H251569   1.940   5.750  16.921  0.6346 -0.2702 -0.4335
10052TIP3   OH251570   4.935   4.540   4.917  0.2625 -0.4711  0.7426
10052TIP3    H151571   4.951   4.498   5.002  1.4370 -0.7168  0.4148
10052TIP3    H251572   4.855   4.498   4.885 -0.7121  0.2344  2.0880
10053TIP3   OH251573   3.415   1.539  17.299 -0.4838  0.0288  0.1011
10053TIP3    H151574   3.492   1.482  17.300 -1.2717 -1.1061 -0.5844
10053TIP3    H251575   3.369   1.517  17.381 -1.5727 -1.5066 -0.8688
10054TIP3   OH251576   2.059   1.569  11.829 -0.4859  0.1770  0.5864
10054TIP3    H151577   1.991   1.550  11.894  0.8286  0.9629  2.2666
10054TIP3    H251578   2.109   1.488  11.822 -0.0549  0.3620  1.3242
10055TIP3   OH251579   0.739   6.527  13.607  0.0799 -0.2555  0.2702
10055TIP3    H151580   0.820   6.571  13.634  1.0080 -0.9399 -1.2334
10055TIP3    H251581   0.724   6.559  13.518 -0.7331 -0.9324  0.1580
10056TIP3   OH251582   5.524   5.928   2.326  0.2982  0.0519 -0.1166
10056TIP3    H151583   5.466   5.917   2.402 -0.4453  1.0442 -0.5155
10056TIP3    H251584   5.611   5.939   2.364  0.0178 -0.0412  0.5760
10057TIP3   OH251585   0.239   4.594  14.183  0.3823 -0.0489 -0.5859
10057TIP3    H151586   0.241   4.513  14.133  2.8922  0.2848 -1.1942
10057TIP3    H251587   0.227   4.663  14.118 -1.9471  0.1114 -0.0517
10058TIP3   OH251588   0.652   2.403   1.041  0.3724  0.2657  1.1497
10058TIP3    H151589   0.601   2.323   1.025 -0.2978  0.4589  2.2007
10058TIP3    H251590   0.587   2.472   1.053  0.9617  1.2273 -0.8110
10059TIP3   OH251591   5.401   4.900   4.128  0.9592 -0.0250  0.5074
10059TIP3    H151592   5.419   4.935   4.040  0.1822 -1.3109 -0.1816
10059TIP3    H251593   5.420   4.807   4.121 -1.2041 -0.5511  1.0951
10060TIP3   OH251594   2.137   0.314   2.792 -0.5373 -0.1421  0.3943
10060TIP3    H151595   2.183   0.233   2.769 -0.4884 -0.4736  1.5972
10060TIP3    H251596   2.050   0.303   2.753 -0.4261 -0.6331  0.2657
10061TIP3   OH251597   1.868   5.603  14.801  0.6860 -0.4483  0.2099
10061TIP3    H151598   1.881   5.657  14.879 -1.0482  0.3338  0.0050
10061TIP3    H251599   1.917   5.523  14.818  0.9010 -0.0003  1.8086
10062TIP3   OH251600   2.714   3.448   2.582 -0.2323  0.1647 -0.2262
10062TIP3    H151601   2.634   3.501   2.585 -0.2514  0.4089 -2.8293
10062TIP3    H251602   2.684   3.361   2.555  0.3428  0.1417 -0.7803
10063TIP3   OH251603   0.843   2.662  16.640 -0.0569 -0.0217  0.2025
10063TIP3    H151604   0.864   2.641  16.731  0.8571  0.9541  0.2399
10063TIP3    H251605   0.919   2.633  16.590 -0.9154 -1.3437 -0.3875
10064TIP3   OH251606   5.701   3.332  16.472 -0.0670 -0.0974  0.3718
10064TIP3    H151607   5.674   3.373  16.554  1.9088 -0.6933  1.3739
10064TIP3    H251608   5.796   3.343  16.469 -0.0166 -0.6780 -1.5234
10065TIP3   OH251609   6.359   5.138  11.768  0.6457  0.2566  0.2593
10065TIP3    H151610   6.323   5.051  11.751  1.1202 -0.1531  1.3014
10065TIP3    H251611   6.368   5.178  11.681  1.0143 -0.9718 -0.2777
10066TIP3   OH251612   4.952   1.138  12.053 -0.4623  0.2531 -0.2578
10066TIP3    H151613   4.987   1.189  12.127 -1.1060  0.0484  0.1907
10066TIP3    H251614   5.029   1.117  12.001 -0.0255  0.5869  0.2381
10067TIP3   OH251615   4.153   1.898   1.462  0.2145  0.6861  0.6476
10067TIP3    H151616   4.114   1.952   1.393  1.3542  0.3208 -0.3161
10067TIP3    H251617   4.174   1.815   1.418 -0.5304 -0.1730  1.8442
10068TIP3   OH251618   6.140   1.750  13.133 -0.6257  0.4355  0.0265
10068TIP3    H151619   6.177   1.665  13.109 -1.2976  0.4152 -0.9769
10068TIP3    H251620   6.117   1.740  13.226 -0.9501 -0.5828 -0.1402
10069TIP3   OH251621   5.396   1.152  16.826  0.8217  0.0953  0.3811
10069TIP3    H151622   5.373   1.122  16.914  0.3911  2.3178  1.1003
10069TIP3    H251623   5.342   1.231  16.813 -0.3413 -1.0410 -2.5435
10070TIP3   OH251624   0.967   5.701  13.006 -0.4670 -0.5144  0.2810
10070TIP3    H151625   0.965   5.674  12.914 -0.4884 -1.6448  0.5924
10070TIP3    H251626   1.043   5.758  13.013 -1.2278  0.6669 -0.7066
10071TIP3   OH251627   5.370   2.207  16.955  0.1354  0.1809 -0.4907
10071TIP3    H151628   5.395   2.295  16.929  1.1897 -0.2193 -0.9175
10071TIP3    H251629   5.453   2.159  16.959 -0.2805 -0.4927  0.9068
10072TIP3   OH251630   1.991   6.218  12.507  0.2914  0.0994 -0.0326
10072TIP3    H151631   2.018   6.192  12.419  0.7587  1.4048 -0.3108
10072TIP3    H251632   1.904   6.255  12.496  0.6405  0.9369 -0.0973
10073TIP3   OH251633   5.044   6.170  11.704  0.6372  0.1222  0.0364
10073TIP3    H151634   5.039   6.264  11.684  2.0357  0.5147  1.2802
10073TIP3    H251635   4.963   6.152  11.752  0.1851  0.6146 -0.5293
10074TIP3   OH251636   1.111   2.048   1.932  0.1045 -0.1494  0.2863
10074TIP3    H151637   1.069   2.017   2.012 -0.3274  0.2363  0.2140
10074TIP3    H251638   1.182   2.105   1.962  0.4321 -0.6075  0.4029
10075TIP3   OH251639   3.339   6.334  12.724 -0.5065 -0.5440  0.2032
10075TIP3    H151640   3.276   6.332  12.796  0.6986  0.3241  1.3235
10075TIP3    H251641   3.390   6.414  12.738 -0.6639  0.0161 -2.0116
10076TIP3   OH251642   3.533   5.122   2.346  0.0068 -0.5262 -0.3498
10076TIP3    H151643   3.445   5.119   2.308 -0.0268  0.7802 -0.4022
10076TIP3    H251644   3.530   5.058   2.417 -1.1544 -0.1189 -0.0067
10077TIP3   OH251645   0.087   3.877  13.133 -0.0408  0.8739 -0.6369
10077TIP3    H151646   0.070   3.788  13.102  0.0895 -0.8404  3.5398
10077TIP3    H251647   0.182   3.884  13.136  0.0034  0.0531  1.4666
10078TIP3   OH251648   1.996   1.973  12.192 -0.1077  0.0069 -0.4426
10078TIP3    H151649   2.083   2.001  12.164 -0.2164  0.4501 -0.3439
10078TIP3    H251650   2.011   1.922  12.271  0.0179  0.5869 -0.0805
10079TIP3   OH251651   5.492   1.174   4.793 -0.4390 -0.0129 -0.7505
10079TIP3    H151652   5.461   1.212   4.875  0.8982  0.2912 -0.3548
10079TIP3    H251653   5.463   1.235   4.726  0.5843  1.0720 -0.2430
10080TIP3   OH251654   3.966   0.173   3.137 -0.0141  0.7050 -0.3628
10080TIP3    H151655   3.993   0.085   3.161 -0.3103  0.7794  0.2700
10080TIP3    H251656   4.025   0.231   3.186 -0.3768  0.8579 -0.1002
10081TIP3   OH251657   0.732   6.649  12.403 -0.0548 -0.3269  0.0436
10081TIP3    H151658   0.636   6.653  12.411 -0.2029 -1.5378 -0.8743
10081TIP3    H251659   0.747   6.630  12.311  1.0914  0.0649  0.1432
10082TIP3   OH251660   3.872   5.646  14.927 -0.0787  0.1384  0.0627
10082TIP3    H151661   3.961   5.612  14.914  0.9575  1.2521  3.1555
10082TIP3    H251662   3.834   5.588  14.993 -1.1689  0.4338 -0.2939
10083TIP3   OH251663   0.799   6.603  12.144  0.2797 -0.2252  0.7069
10083TIP3    H151664   0.804   6.625  12.051 -0.7676  0.1391  0.7284
10083TIP3    H251665   0.809   6.508  12.147 -0.9964 -0.4018  0.0877
10084TIP3   OH251666   5.368   4.491   4.657  0.3526  0.0755  0.0843
10084TIP3    H151667   5.410   4.495   4.571  1.1420 -1.9797  0.3069
10084TIP3    H251668   5.280   4.524   4.642  0.2558 -0.8356 -1.6957
10085TIP3   OH251669   5.495   1.322   1.480 -0.3944 -0.0804  0.4670
10085TIP3    H151670   5.583   1.353   1.457 -0.6141  1.2737  1.3380
10085TIP3    H251671   5.505   1.283   1.567 -0.7128  0.4031  0.7244
10086TIP3   OH251672   5.489   2.731  12.177 -0.4558 -0.1078 -0.2732
10086TIP3    H151673   5.531   2.816  12.171 -2.6118  1.1204  0.7195
10086TIP3    H251674   5.470   2.719  12.270  0.4539 -2.0491 -0.2785
10087TIP3   OH251675   4.802   6.648   4.285  0.3298  0.3178 -0.5052
10087TIP3    H151676   4.811   6.717   4.218 -0.9885 -1.0473 -2.1661
10087TIP3    H251677   4.710   6.652   4.311  0.3567 -0.4910 -0.2667
10088TIP3   OH251678   1.237   1.181   5.410  0.1177 -0.7799  0.1124
10088TIP3    H151679   1.318   1.220   5.442 -0.5124  1.0400 -0.3367
10088TIP3    H251680   1.205   1.129   5.483  0.3896  0.6097  1.2809
10089TIP3   OH251681   3.387   6.612  12.349  0.5195  0.1168 -0.6515
10089TIP3    H151682   3.388   6.707  12.342  1.0467  0.0947 -0.9455
10089TIP3    H251683   3.468   6.590  12.395  1.1433 -0.2731 -1.8777
10090TIP3   OH251684   4.994   5.062  15.345  0.9514 -0.4670 -0.3779
10090TIP3    H151685   5.039   4.979  15.328  1.5317  0.0447 -1.4363
10090TIP3    H251686   4.902   5.043  15.328  1.1964 -0.6726 -1.5331
10091TIP3   OH251687   4.965   5.728  15.999  0.3529 -0.0934  0.4977
10091TIP3    H151688   5.035   5.778  16.040  0.7108 -1.0082  1.0450
10091TIP3    H251689   4.985   5.731  15.906  1.2182 -0.4593  0.6594
10092TIP3   OH251690   1.765   3.164  11.777 -0.2383 -0.3389  0.3676
10092TIP3    H151691   1.722   3.151  11.862 -0.4843  1.4024  0.5485
10092TIP3    H251692   1.698   3.206  11.723  0.0892 -0.9543 -0.5206
10093TIP3   OH251693   3.568   0.196  10.832  0.1892  0.2413 -0.9170
10093TIP3    H151694   3.596   0.281  10.797 -0.5938  1.3247  0.8951
10093TIP3    H251695   3.533   0.149  10.757  0.4341  1.6319 -1.9369
10094TIP3   OH251696   2.857   2.737  17.212 -0.4943  0.5030 -0.2285
10094TIP3    H151697   2.819   2.753  17.299 -0.5460  2.1132 -0.5160
10094TIP3    H251698   2.919   2.809  17.200  0.0263 -0.0947 -1.2591
10095TIP3   OH251699   2.167   5.658   4.703  0.2303  0.7760 -0.1511
10095TIP3    H151700   2.188   5.704   4.622 -0.7694  1.4656 -0.0433
10095TIP3    H251701   2.167   5.726   4.771 -1.2421  0.6422  0.0154
10096TIP3   OH251702   3.000   2.429  11.208  0.4501  0.0869 -0.0391
10096TIP3    H151703   3.073   2.373  11.232 -0.4525 -1.6714 -1.1669
10096TIP3    H251704   3.013   2.448  11.115  0.7796  1.8770  0.3342
10097TIP3   OH251705   2.793   0.359   3.666 -0.1322  0.0370  0.2458
10097TIP3    H151706   2.861   0.393   3.724  0.5742  0.4270 -0.7825
10097TIP3    H251707   2.786   0.266   3.689 -0.0764  0.2406  1.1348
10098TIP3   OH251708   6.162   1.408   0.832  0.6045 -0.3918 -0.3435
10098TIP3    H151709   6.185   1.316   0.847  1.1556 -0.4611 -1.5127
10098TIP3    H251710   6.067   1.408   0.826  0.4423 -0.5667  1.5858
10099TIP3   OH251711   5.675   4.836  11.655 -0.3270  0.2365  0.0803
10099TIP3    H151712   5.706   4.746  11.649  0.9326  0.7043 -1.0677
10099TIP3    H251713   5.590   4.835  11.611 -1.0764 -0.6658  1.4591
10100TIP3   OH251714   4.685   1.381   4.590 -0.1316  0.0455  0.0317
10100TIP3    H151715   4.633   1.348   4.517 -0.1135 -0.7604  0.3707
10100TIP3    H251716   4.622   1.423   4.648 -0.0859  1.0961 -0.6590
10101TIP3   OH251717   3.374   5.524  13.132 -0.2060 -0.2187 -0.2311
10101TIP3    H151718   3.352   5.597  13.076  0.1408  1.1827  1.3619
10101TIP3    H251719   3.447   5.480  13.087  2.2738  2.7676  0.5205
10102TIP3   OH251720   6.170   6.644  12.033  0.9672 -0.2200 -0.2307
10102TIP3    H151721   6.205   6.663  11.947 -0.8254 -0.3885 -1.0409
10102TIP3    H251722   6.241   6.599  12.079  1.3566 -1.7649 -2.2447
10103TIP3   OH251723   0.846   5.547   2.030 -0.0396  0.1906 -0.0761
10103TIP3    H151724   0.813   5.631   2.062  0.3799 -0.7940  3.3379
10103TIP3    H251725   0.794   5.481   2.077  1.0278 -1.4535 -1.1003
10104TIP3   OH251726   5.925   4.497   1.626 -0.2763 -0.3975  0.3266
10104TIP3    H151727   5.933   4.592   1.632 -0.0654 -0.4241  0.5023
10104TIP3    H251728   6.015   4.465   1.634 -0.4794 -0.6926  1.8556
10105TIP3   OH251729   1.460   2.440   3.610 -0.1290 -0.0591 -0.0193
10105TIP3    H151730   1.491   2.497   3.539  1.3471  1.7496  1.9111
10105TIP3    H251731   1.427   2.362   3.566  1.1859  0.7390 -2.6465
10106TIP3   OH251732   3.257   2.544  11.654  0.7931  0.2262 -0.4508
10106TIP3    H151733   3.292   2.600  11.724  0.3691  0.6634 -0.5794
10106TIP3    H251734   3.333   2.521  11.602  1.0026  0.5368 -0.2895
10107TIP3   OH251735   5.169   5.214   3.717  0.4209  0.1946 -0.1749
10107TIP3    H151736   5.087   5.187   3.676  0.5702 -0.2381 -0.1860
10107TIP3    H251737   5.162   5.184   3.807  0.4098  0.4944 -0.0722
10108TIP3   OH251738   3.692   3.755   5.450  0.9442 -0.1041 -0.1902
10108TIP3    H151739   3.672   3.672   5.493 -0.6409  1.7631  3.0249
10108TIP3    H251740   3.769   3.788   5.495  0.7484  0.7932 -0.5029
10109TIP3   OH251741   3.437   0.245   5.663  0.0994 -0.3599 -0.0074
10109TIP3    H151742   3.401   0.188   5.732  1.5702 -3.5979 -1.6934
10109TIP3    H251743   3.531   0.228   5.666  0.3746  0.7134 -1.7374
10110TIP3   OH251744   0.453   5.593   5.724  0.0271 -0.3799 -0.4071
10110TIP3    H151745   0.538   5.552   5.714  0.9234  1.2382  0.1870
10110TIP3    H251746   0.458   5.673   5.672 -1.4610 -0.7092 -1.0945
10111TIP3   OH251747   2.039   5.712   5.151 -0.1987 -0.8516  0.6138
10111TIP3    H151748   2.096   5.773   5.105  0.2141  0.1737  2.3969
10111TIP3    H251749   2.069   5.626   5.124  1.3243 -0.3055  0.4831
10112TIP3   OH251750   1.403   3.266   2.593 -0.0585 -0.2144 -0.3764
10112TIP3    H151751   1.322   3.299   2.632 -0.1467  0.3470 -1.0205
10112TIP3    H251752   1.472   3.317   2.635 -0.0659 -0.4201 -0.1128
10113TIP3   OH251753   1.371   4.387   1.861  0.1736  0.8749 -0.2400
10113TIP3    H151754   1.456   4.358   1.828 -0.2920 -0.8106 -0.0447
10113TIP3    H251755   1.307   4.342   1.806 -0.5965  1.1230  0.4342
10114TIP3   OH251756   1.626   5.833  17.074  0.6081  0.1586 -0.4655
10114TIP3    H151757   1.620   5.917  17.030  0.3111  0.0372 -0.6582
10114TIP3    H251758   1.625   5.854  17.167  3.5747  0.6173 -0.4291
10115TIP3   OH251759   4.980   4.201   0.091 -0.2325 -0.3500 -0.4027
10115TIP3    H151760   4.984   4.292   0.122 -1.4828 -0.4435  0.0958
10115TIP3    H251761   5.069   4.181   0.064  0.1509  0.8941 -0.1226
10116TIP3   OH251762   6.742   4.776   3.261 -0.1990 -0.2611  0.5310
10116TIP3    H151763   6.816   4.833   3.239 -0.9857  0.4291 -0.4175
10116TIP3    H251764   6.779   4.712   3.322  1.3448 -0.3274 -0.4055
10117TIP3   OH251765   2.820   4.255  11.881  0.8202  0.6857 -0.1639
10117TIP3    H151766   2.739   4.224  11.922  0.8103  0.5079 -0.3146
10117TIP3    H251767   2.854   4.178  11.834  1.7138  0.4276  0.8762
10118TIP3   OH251768   4.756   6.623  12.997 -0.3312  0.0459  0.3759
10118TIP3    H151769   4.724   6.607  13.085  2.9158  2.4267  2.2009
10118TIP3    H251770   4.851   6.611  13.003  0.0387  0.3559 -2.8301
10119TIP3   OH251771   4.272   5.531   4.627  0.1867  0.3346  0.3556
10119TIP3    H151772   4.213   5.517   4.553  0.5168  0.5019  0.0648
10119TIP3    H251773   4.258   5.454   4.683 -1.9846  1.4195  1.4325
10120TIP3   OH251774   4.712   5.764  16.114 -0.0056 -0.0291 -0.0222
10120TIP3    H151775   4.803   5.737  16.103 -0.0435 -0.1741  0.0060
10120TIP3    H251776   4.706   5.849  16.071  0.4348  0.5411  1.0110
10121TIP3   OH251777   3.675   5.989   4.829 -0.0302 -0.1075  0.2339
10121TIP3    H151778   3.621   5.919   4.793 -0.1934  0.8430 -1.4603
10121TIP3    H251779   3.743   5.944   4.878 -0.7352 -1.4100  0.0529
10122TIP3   OH251780   6.127   2.334   2.438 -0.0912  0.3553  0.4701
10122TIP3    H151781   6.083   2.404   2.390 -0.6683  1.0100  1.8961
10122TIP3    H251782   6.193   2.378   2.490  0.9548 -0.4158 -0.1470
10123TIP3   OH251783   4.765   4.295   3.364  0.1847 -0.0780 -0.2544
10123TIP3    H151784   4.694   4.233   3.377 -2.3538  2.7016  0.2602
10123TIP3    H251785   4.819   4.288   3.443 -0.2705 -1.3355 -0.0473
10124TIP3   OH251786   0.777   6.192   4.727 -0.0851  0.4013 -0.1548
10124TIP3    H151787   0.854   6.228   4.770 -0.9240  0.3248  1.4548
10124TIP3    H251788   0.784   6.097   4.742 -1.4339  0.5539  1.6507
10125TIP3   OH251789   6.518   5.114  14.396 -0.0280 -0.0586 -0.4039
10125TIP3    H151790   6.426   5.093  14.410 -1.1193  3.8747 -0.5807
10125TIP3    H251791   6.530   5.105  14.301 -0.2679 -0.2991 -0.4141
10126TIP3   OH251792   4.615   0.494   3.043  0.6065 -0.2089  0.5248
10126TIP3    H151793   4.622   0.493   2.948  0.2881  0.5896  0.4860
10126TIP3    H251794   4.610   0.401   3.068  1.5921 -0.4675 -0.1587
10127TIP3   OH251795   0.352   6.595   2.290 -0.6679  0.5567  0.1184
10127TIP3    H151796   0.356   6.647   2.370 -1.3604  0.1175  0.4524
10127TIP3    H251797   0.300   6.648   2.230  1.0909  1.5600 -0.5846
10128TIP3   OH251798   3.853   5.437  17.285 -0.3347 -0.2797 -0.3266
10128TIP3    H151799   3.793   5.508  17.307  1.1893  0.9815  0.0046
10128TIP3    H251800   3.804   5.357  17.304 -1.3650  0.6905  1.4429
10129TIP3   OH251801   1.891   1.137  15.578  0.2790 -0.3593  0.5772
10129TIP3    H151802   1.863   1.047  15.564 -0.5876  0.0060 -0.2202
10129TIP3    H251803   1.820   1.177  15.628 -0.9583  0.6934 -1.8218
10130TIP3   OH251804   2.290   1.641  12.657 -0.0306  0.2639  0.8482
10130TIP3    H151805   2.325   1.720  12.616  1.4860 -1.3715 -1.2336
10130TIP3    H251806   2.209   1.623  12.610  0.9491 -0.7886 -0.5095
10131TIP3   OH251807   2.333   1.131   0.828  0.3200 -0.5461 -0.0919
10131TIP3    H151808   2.393   1.203   0.851 -0.4547  0.0113  0.2305
10131TIP3    H251809   2.247   1.173   0.822 -0.1603 -1.4682  0.2098
10132TIP3   OH251810   6.632   4.198   0.092  0.4600  0.2424 -0.4288
10132TIP3    H151811   6.642   4.135   0.163 -0.8368 -0.1981 -0.6008
10132TIP3    H251812   6.673   4.155   0.016  0.5253  0.0746 -0.2984
10133TIP3   OH251813   1.557   5.366  13.873 -0.4615  0.2004  0.0773
10133TIP3    H151814   1.606   5.308  13.932  0.0092  1.0154  0.5011
10133TIP3    H251815   1.624   5.402  13.815 -1.1224 -2.0362 -2.2659
10134TIP3   OH251816   1.274   0.477  16.253  0.2740 -0.1034 -0.9288
10134TIP3    H151817   1.243   0.390  16.227  0.1493  0.1778 -1.7300
10134TIP3    H251818   1.204   0.511  16.310  1.1474 -1.2501  0.9205
10135TIP3   OH251819   4.052   3.727  15.804  0.1912  0.2954  0.6600
10135TIP3    H151820   4.074   3.748  15.894  0.9604 -0.2506  0.6121
10135TIP3    H251821   4.135   3.733  15.757  0.4671 -2.4870  0.5968
10136TIP3   OH251822   3.002   2.677   0.725 -0.2723 -0.1894  0.2669
10136TIP3    H151823   2.986   2.772   0.728 -0.1284 -0.1743  0.5728
10136TIP3    H251824   3.010   2.651   0.817 -1.6447 -0.7238  0.2570
10137TIP3   OH251825   4.608   2.831   1.386  0.2588  0.1395  0.7640
10137TIP3    H151826   4.621   2.898   1.319  2.9238 -1.4863 -0.5162
10137TIP3    H251827   4.519   2.801   1.373  0.7581 -0.2956 -2.3189
10138TIP3   OH251828   5.065   6.126  16.260  0.1186  0.2374 -0.2255
10138TIP3    H151829   5.027   6.213  16.245  0.4590  0.4651  0.1983
10138TIP3    H251830   5.049   6.109  16.353 -0.7635 -0.5606 -0.5020
10139TIP3   OH251831   1.694   4.069   2.802  0.0492 -0.2907  0.3211
10139TIP3    H151832   1.735   4.068   2.715 -4.1648  0.0287 -1.8975
10139TIP3    H251833   1.761   4.108   2.859  3.2787 -1.1265 -2.5244
10140TIP3   OH251834   2.933   0.954  17.041  0.2882  0.0418  0.3517
10140TIP3    H151835   2.896   1.035  17.076 -0.0910  0.5371 -1.0938
10140TIP3    H251836   2.866   0.888  17.055 -0.1893  0.4122 -0.1350
10141TIP3   OH251837   1.747   5.100  11.700  0.1132  0.9712 -0.3333
10141TIP3    H151838   1.745   5.194  11.717  0.1480  0.7947  0.7208
10141TIP3    H251839   1.840   5.080  11.687  0.4227  0.7065  1.8833
10142TIP3   OH251840   5.607   5.973   3.685  0.0878  0.1305  0.2694
10142TIP3    H151841   5.644   5.939   3.766  0.4647 -0.4938 -0.1599
10142TIP3    H251842   5.590   6.066   3.704  0.4381  0.0587  0.9650
10143TIP3   OH251843   6.283   5.443   2.444 -0.3245 -0.5416  0.6196
10143TIP3    H151844   6.270   5.465   2.536 -1.2153 -0.7842  0.5567
10143TIP3    H251845   6.378   5.448   2.432 -0.2838  0.5865  1.2701
10144TIP3   OH251846   3.805   2.140   4.317 -0.2452  0.3439 -0.0178
10144TIP3    H151847   3.889   2.101   4.291  0.0365  0.1981  1.0390
10144TIP3    H251848   3.812   2.232   4.290 -0.4238 -0.0292 -1.4198
10145TIP3   OH251849   0.500   4.072   4.421 -0.1340 -0.1759  0.6545
10145TIP3    H151850   0.484   3.978   4.432 -2.3567  0.3643  2.9945
10145TIP3    H251851   0.563   4.094   4.489 -1.5589  0.4180  1.8281
10146TIP3   OH251852   4.277   6.384  10.929 -0.2730 -0.0650 -0.1267
10146TIP3    H151853   4.198   6.390  10.982 -0.5724 -1.3708 -0.3834
10146TIP3    H251854   4.273   6.460  10.871 -0.4085  0.8611  1.0569
10147TIP3   OH251855   3.671   2.806  15.609  0.2920  0.6531 -0.0355
10147TIP3    H151856   3.709   2.890  15.584  0.4257  0.6570  0.1773
10147TIP3    H251857   3.626   2.775  15.530 -0.2097  1.1750  0.0421
10148TIP3   OH251858   4.363   1.744   0.827  0.0440 -0.5026  0.3683
10148TIP3    H151859   4.367   1.835   0.857  0.8551 -0.7817  1.1191
10148TIP3    H251860   4.346   1.751   0.733  1.4016  0.4613  0.1623
10149TIP3   OH251861   5.402   0.296   2.568 -0.2028 -0.6255  0.4231
10149TIP3    H151862   5.395   0.258   2.656  2.1863 -0.0370  0.9425
10149TIP3    H251863   5.360   0.382   2.575 -3.7105 -2.1156 -0.1938
10150TIP3   OH251864   4.468   2.696  12.321  0.0056  0.9306  0.4179
10150TIP3    H151865   4.435   2.705  12.410  0.9703 -1.3788  1.0764
10150TIP3    H251866   4.478   2.786  12.290 -1.4535  1.7794  2.1872
10151TIP3   OH251867   0.323   6.351  11.733 -0.2709 -0.1755 -0.3101
10151TIP3    H151868   0.329   6.296  11.654  1.0687  1.2188 -1.2386
10151TIP3    H251869   0.383   6.309  11.795  0.4908  0.0193 -0.8918
10152TIP3   OH251870   5.506   0.064   6.841 -0.8234  0.0211 -0.2421
10152TIP3    H151871   5.553   0.009   6.904 -0.8924 -0.0711 -0.2727
10152TIP3    H251872   5.527   0.154   6.869 -1.1353 -0.0146  0.1295
10153TIP3   OH251873   4.440   1.309  11.190 -0.1630 -0.3563  0.0317
10153TIP3    H151874   4.522   1.277  11.153  1.0960  3.7853 -1.3873
10153TIP3    H251875   4.435   1.400  11.160 -4.7138 -0.0248  1.1043
10154TIP3   OH251876   4.349   1.245  14.466  0.7543 -0.0745 -0.3971
10154TIP3    H151877   4.343   1.340  14.450  3.6030  0.3336  0.4784
10154TIP3    H251878   4.312   1.233  14.553  0.9926  0.3456 -0.2341
10155TIP3   OH251879   0.052   5.468   1.275 -0.5864  0.6540  0.2346
10155TIP3    H151880   0.022   5.531   1.340 -1.8171  0.7764 -0.4178
10155TIP3    H251881   0.018   5.384   1.305  0.8323  0.3277  0.9664
10156TIP3   OH251882   6.660   0.576  13.577  0.6958 -0.3892  0.1546
10156TIP3    H151883   6.621   0.556  13.492 -1.1527  0.7763  0.6478
10156TIP3    H251884   6.668   0.672  13.578  0.3008 -0.3472  1.4169
10157TIP3   OH251885   3.416   4.679  10.804 -0.2765  0.2205  0.5836
10157TIP3    H151886   3.491   4.714  10.852  0.2000  1.6629 -1.1323
10157TIP3    H251887   3.347   4.744  10.815 -0.6602 -0.1759  0.5646
10158TIP3   OH251888   0.813   1.894   3.228  0.1871 -0.3703  1.0479
10158TIP3    H151889   0.781   1.950   3.298 -2.2808 -2.0023  1.3379
10158TIP3    H251890   0.771   1.927   3.149  0.5149 -0.4383  0.8408
10159TIP3   OH251891   5.972   4.886  10.910 -0.5072  0.1100 -0.4990
10159TIP3    H151892   6.059   4.896  10.871 -0.5772  2.2353 -0.1961
10159TIP3    H251893   5.960   4.964  10.963 -0.7722 -2.2188  3.2340
10160TIP3   OH251894   0.564   1.915  16.235  0.5376  0.0189 -0.4395
10160TIP3    H151895   0.566   1.943  16.327  0.8871 -2.6074  0.4614
10160TIP3    H251896   0.644   1.949  16.197  2.0808 -1.5754  1.2002
10161TIP3   OH251897   4.471   0.474   5.306  0.3082 -0.2728  0.2106
10161TIP3    H151898   4.566   0.467   5.314  0.2711  0.7022  2.0313
10161TIP3    H251899   4.458   0.551   5.249  0.6508  1.0585  1.8543
10162TIP3   OH251900   0.511   2.576   5.761  0.1171  0.2402  0.3001
10162TIP3    H151901   0.517   2.591   5.855 -0.1732  1.4137  0.1591
10162TIP3    H251902   0.534   2.485   5.749  0.9836  0.2924  1.4250
10163TIP3   OH251903   3.090   2.209   3.493  0.9820 -0.4358  0.6789
10163TIP3    H151904   3.102   2.275   3.425  2.8781  0.1350  1.5055
10163TIP3    H251905   3.091   2.126   3.445  1.7871 -0.0205 -0.0628
10164TIP3   OH251906   0.243   5.091   3.998 -0.1369  0.0688 -0.0084
10164TIP3    H151907   0.308   5.026   3.973  0.0601  0.0389  0.5802
10164TIP3    H251908   0.233   5.081   4.092 -1.8435 -0.6996 -0.2478
10165TIP3   OH251909   0.029   2.003   2.944 -0.2873  0.1584 -0.1957
10165TIP3    H151910   0.035   2.055   2.864 -2.6389 -0.9698 -1.1917
10165TIP3    H251911   0.108   1.948   2.943  0.5199  1.2966 -0.8620
10166TIP3   OH251912   1.664   6.145  11.978  0.0181  0.5998 -0.3256
10166TIP3    H151913   1.630   6.203  11.910 -1.4356  1.2936  0.9431
10166TIP3    H251914   1.698   6.203  12.045 -1.3373  0.0367  0.9039
10167TIP3   OH251915   5.672   4.556   1.420 -0.5396  0.2516  0.2477
10167TIP3    H151916   5.722   4.493   1.367 -1.0075 -0.0458  0.1608
10167TIP3    H251917   5.713   4.553   1.506 -1.2760 -1.0060  0.5648
10168TIP3   OH251918   3.590   6.616  13.333 -0.1730  0.4525 -0.0957
10168TIP3    H151919   3.524   6.633  13.400 -1.2737  1.5963 -1.4151
10168TIP3    H251920   3.669   6.660  13.365 -1.4941  3.6194 -0.8507
10169TIP3   OH251921   3.061   2.429  12.647  0.7994 -0.1773 -0.0452
10169TIP3    H151922   3.065   2.446  12.553  1.1228 -1.9892 -0.4083
10169TIP3    H251923   3.151   2.414  12.673  0.6201 -0.5698  0.3663
10170TIP3   OH251924   6.683   3.169  12.200 -0.4181 -0.3054  0.4518
10170TIP3    H151925   6.604   3.219  12.180  0.0688  0.5013  0.5148
10170TIP3    H251926   6.736   3.173  12.120  0.3591  0.7013  0.9896
10171TIP3   OH251927   4.824   2.674   0.041  0.2828 -0.0877  0.1971
10171TIP3    H151928   4.791   2.599  -0.008  0.1507  1.0518 -1.5507
10171TIP3    H251929   4.919   2.672   0.026  0.2056  0.4436 -0.4002
10172TIP3   OH251930   0.830   5.101   0.995 -0.7078  0.0840 -0.8164
10172TIP3    H151931   0.760   5.035   1.001  1.4896 -2.2703  2.9414
10172TIP3    H251932   0.901   5.056   0.948  1.5126 -1.3154  3.3495
10173TIP3   OH251933   0.048   6.634  12.921  0.1649 -0.3714  0.2559
10173TIP3    H151934  -0.032   6.677  12.892  0.7374  0.1218 -0.6287
10173TIP3    H251935   0.054   6.555  12.869  0.1920 -0.4705  0.4077
10174TIP3   OH251936   1.262   2.636   1.479  0.1987 -0.4290 -0.4530
10174TIP3    H151937   1.310   2.717   1.463  0.0282 -0.5674 -1.7983
10174TIP3    H251938   1.327   2.574   1.511  0.2761  0.3055  0.8756
10175TIP3   OH251939   1.286   1.151   0.400 -0.6176  0.0832  0.4723
10175TIP3    H151940   1.297   1.231   0.347 -1.9587  0.8237  1.2380
10175TIP3    H251941   1.292   1.181   0.491  0.7569 -1.0252  0.7701
10176TIP3   OH251942   5.095   4.550   3.220 -0.0093  0.2991  0.2005
10176TIP3    H151943   5.091   4.642   3.244 -0.3278  0.3971 -0.2210
10176TIP3    H251944   5.160   4.547   3.150 -1.5326  0.5416 -1.2777
10177TIP3   OH251945   1.335   3.605   3.771 -1.1350 -0.7501  0.6045
10177TIP3    H151946   1.267   3.672   3.767  0.3829  0.9544  1.2651
10177TIP3    H251947   1.345   3.588   3.865  0.3601  0.2158  0.6634
10178TIP3   OH251948   2.425   6.282   4.548  0.2156  0.2817 -0.1895
10178TIP3    H151949   2.331   6.267   4.540  0.3282 -1.8895  1.4882
10178TIP3    H251950   2.442   6.278   4.642  1.9879  0.7316 -0.4499
10179TIP3   OH251951   2.919   6.087   3.308 -0.0124 -0.0144 -0.1810
10179TIP3    H151952   2.869   6.162   3.342 -0.4671 -0.0787 -0.6829
10179TIP3    H251953   2.862   6.011   3.324 -0.6443  0.0618 -1.8441
10180TIP3   OH251954   3.290   4.967  14.903 -0.1771 -0.6032  0.1604
10180TIP3    H151955   3.218   4.930  14.852  0.7258  1.0695 -2.5848
10180TIP3    H251956   3.367   4.917  14.876  0.3704  0.5154 -0.4153
10181TIP3   OH251957   1.276   3.542   2.488 -0.4074  0.0013 -0.8316
10181TIP3    H151958   1.217   3.608   2.453 -2.5880 -1.4919 -0.2150
10181TIP3    H251959   1.275   3.472   2.422  0.7970 -0.0330 -0.8459
10182TIP3   OH251960   5.420   6.637  14.318 -0.4200 -0.0605  0.0897
10182TIP3    H151961   5.400   6.577  14.247  1.2628 -0.5640  0.0017
10182TIP3    H251962   5.435   6.721  14.274 -0.9228 -0.0024  0.0217
10183TIP3   OH251963   4.652   0.232   1.669  0.2790 -0.6289  0.2281
10183TIP3    H151964   4.704   0.306   1.699  0.5547 -1.2258  1.3027
10183TIP3    H251965   4.563   0.266   1.663  0.3800 -0.2336  0.8327
10184TIP3   OH251966   0.570   4.932   2.762 -0.0624 -0.0211  0.3989
10184TIP3    H151967   0.622   4.852   2.763  0.5029  0.2929 -1.2122
10184TIP3    H251968   0.567   4.960   2.853  0.0363 -1.6686  0.9389
10185TIP3   OH251969   0.539   0.651  11.856 -0.0634 -1.0112 -0.2291
10185TIP3    H151970   0.485   0.709  11.801 -0.2166 -2.4538 -1.6627
10185TIP3    H251971   0.516   0.676  11.946 -0.2441  1.0200 -0.7861
10186TIP3   OH251972   1.746   1.748   5.143  0.1496  0.4106 -0.1755
10186TIP3    H151973   1.780   1.730   5.056  0.4015  0.2115 -0.0367
10186TIP3    H251974   1.661   1.790   5.128 -1.9874 -3.5602 -0.5327
10187TIP3   OH251975   1.609   4.064   5.139  0.0728  0.9798 -0.7798
10187TIP3    H151976   1.678   4.026   5.193  0.0009  1.8916 -0.0174
10187TIP3    H251977   1.545   3.994   5.130 -1.2328  1.5375  2.6277
10188TIP3   OH251978   6.308   4.620   3.647  0.3327  0.0284  0.6965
10188TIP3    H151979   6.355   4.704   3.653  0.4794  0.0195 -0.2230
10188TIP3    H251980   6.368   4.556   3.686  1.1292  0.0055 -0.5268
10189TIP3   OH251981   3.187   0.443  13.212 -0.6223  0.0562 -0.4770
10189TIP3    H151982   3.232   0.364  13.181 -0.0766  0.5035 -0.8447
10189TIP3    H251983   3.140   0.476  13.136 -3.0390 -1.3467  0.3029
10190TIP3   OH251984   4.247   5.461   3.771  0.1354  0.1602  0.1125
10190TIP3    H151985   4.159   5.424   3.769  0.6853 -1.1722 -0.3391
10190TIP3    H251986   4.234   5.552   3.800 -1.4309  0.1466 -0.4389
10191TIP3   OH251987   5.882   4.275   0.270  0.1959 -0.1633 -0.3379
10191TIP3    H151988   5.839   4.253   0.188 -0.6401 -0.3256  0.1289
10191TIP3    H251989   5.863   4.200   0.327 -0.1544  0.4291  0.3380
10192TIP3   OH251990   4.855   1.166   2.150 -0.1806  0.1339 -0.4722
10192TIP3    H151991   4.846   1.255   2.116  2.1586  0.2519 -0.9635
10192TIP3    H251992   4.795   1.163   2.225  1.2201  2.8875  0.9224
10193TIP3   OH251993   0.345   1.564  14.506  0.0839  0.4848  0.5060
10193TIP3    H151994   0.271   1.508  14.482 -0.0674  0.7477  0.3411
10193TIP3    H251995   0.307   1.652  14.512  0.9439  1.2597 -2.9284
10194TIP3   OH251996   5.654   3.618   2.325 -0.0218  0.5875 -0.6201
10194TIP3    H151997   5.618   3.698   2.363 -0.4010  0.4338 -0.6547
10194TIP3    H251998   5.627   3.621   2.233 -2.7544 -1.0954  0.0250
10195TIP3   OH251999   2.927   0.393  16.300 -0.1934 -0.2495  0.2295
10195TIP3    H152000   2.946   0.352  16.215  0.7426 -0.4562  0.5366
10195TIP3    H252001   3.010   0.392  16.347 -0.5073  0.6263  0.8367
10196TIP3   OH252002   6.486   1.299  15.431  0.2787 -0.6179  0.6228
10196TIP3    H152003   6.394   1.327  15.436  0.4871  0.9794 -2.3471
10196TIP3    H252004   6.482   1.203  15.435 -1.8680 -0.7647 -1.9424
10197TIP3   OH252005   1.824   2.244   5.288 -0.0966 -0.4096 -0.2881
10197TIP3    H152006   1.743   2.284   5.256 -0.4439 -1.0067 -0.1883
10197TIP3    H252007   1.883   2.317   5.304 -1.0463  0.1391  0.8385
10198TIP3   OH252008   6.342   3.943   1.145  0.2875 -0.6479 -0.7628
10198TIP3    H152009   6.362   3.999   1.070 -0.3154 -0.5613 -0.8664
10198TIP3    H252010   6.250   3.960   1.164  0.5281 -0.3675  0.2538
10199TIP3   OH252011   6.402   6.350  10.511 -0.5416  0.0341  0.0377
10199TIP3    H152012   6.323   6.392  10.478 -0.6212  0.7767  1.1411
10199TIP3    H252013   6.466   6.422  10.519 -1.3602  0.5428  4.1403
10200TIP3   OH252014   3.121   5.720   1.405 -0.0400  0.8245 -0.6283
10200TIP3    H152015   3.215   5.734   1.413  0.4381 -2.1407  0.0920
10200TIP3    H252016   3.084   5.753   1.487  0.6065  0.4180 -0.1681
10201TIP3   OH252017   4.854   4.263   5.026  0.3432  0.8015 -0.2449
10201TIP3    H152018   4.815   4.231   5.108  3.5004 -1.7372  0.4689
10201TIP3    H252019   4.788   4.245   4.959 -1.0934  0.0165  1.3011
10202TIP3   OH252020   4.492   4.054  11.049 -0.3641 -0.1219  0.6286
10202TIP3    H152021   4.448   4.042  10.965  0.5610  0.8663 -0.0195
10202TIP3    H252022   4.481   4.147  11.069 -2.4887 -0.7278  2.7360
10203TIP3   OH252023   4.754   0.561  12.256 -0.3382 -0.0390 -0.1888
10203TIP3    H152024   4.782   0.554  12.347 -0.2931  1.2846 -0.0871
10203TIP3    H252025   4.661   0.583  12.261 -0.6699 -1.2720 -0.4947
10204TIP3   OH252026   5.731   2.676   3.303 -0.6378 -0.1224 -0.3467
10204TIP3    H152027   5.667   2.649   3.368 -1.7505 -0.2521 -1.4640
10204TIP3    H252028   5.814   2.639   3.334 -0.9014  0.8003  1.5889
10205TIP3   OH252029   4.089   4.168  15.956  0.0372  0.2239  0.3573
10205TIP3    H152030   4.170   4.196  15.998 -0.3690  0.5301  0.9538
10205TIP3    H252031   4.032   4.245  15.959 -0.0018  0.2552 -0.7781
10206TIP3   OH252032   5.358   5.578   0.394 -0.6700 -0.2338  0.5998
10206TIP3    H152033   5.321   5.587   0.306  1.2400 -0.8566 -0.3205
10206TIP3    H252034   5.370   5.668   0.424 -1.0724 -0.0165  0.1272
10207TIP3   OH252035   6.316   2.863  11.875 -0.0896 -0.3264  0.0816
10207TIP3    H152036   6.371   2.875  11.798  0.9842 -1.1810  0.7007
10207TIP3    H252037   6.303   2.768  11.882 -2.6206 -0.1185 -0.7045
10208TIP3   OH252038   1.015   1.703   0.508 -0.2653 -0.5287  0.3807
10208TIP3    H152039   1.047   1.639   0.572 -2.0626 -0.5696  1.3265
10208TIP3    H252040   0.934   1.737   0.548 -1.6233 -0.7640 -1.9993
10209TIP3   OH252041   5.331   2.943  16.511 -0.2641 -0.7573 -0.3281
10209TIP3    H152042   5.236   2.948  16.495 -0.4031 -2.1430 -0.0406
10209TIP3    H252043   5.369   3.002  16.447 -1.4297  1.4306  0.8680
10210TIP3   OH252044   2.201   5.616   6.146 -0.0843 -0.1636  0.1060
10210TIP3    H152045   2.195   5.629   6.240 -0.9767 -1.5711  0.2848
10210TIP3    H252046   2.144   5.541   6.129  1.0109 -0.7035 -1.3833
10211TIP3   OH252047   4.425   2.755  13.426  0.1725 -1.0296 -0.0266
10211TIP3    H152048   4.491   2.722  13.488  0.2212 -0.1790  0.3955
10211TIP3    H252049   4.355   2.690  13.429  0.6112 -1.5043  0.1728
10212TIP3   OH252050   0.568   6.311  11.336 -0.2464  0.6600  0.1543
10212TIP3    H152051   0.585   6.367  11.261  1.3098  0.2625  0.1833
10212TIP3    H252052   0.637   6.245  11.333 -0.8310 -0.0312  1.2884
10213TIP3   OH252053   1.002   0.078  17.260  0.5484  0.6771 -0.4929
10213TIP3    H152054   0.980   0.171  17.267 -0.7477  0.4081 -0.7293
10213TIP3    H252055   1.095   0.078  17.236  0.5306  1.9156 -0.6704
10214TIP3   OH252056   1.146   2.138  12.721  0.4584 -0.1469  0.2630
10214TIP3    H152057   1.081   2.082  12.762  0.7222 -0.8799 -0.2957
10214TIP3    H252058   1.147   2.217  12.774 -0.3345 -0.4385  0.7235
10215TIP3   OH252059   6.043   4.973  13.036 -0.0429 -0.7451 -0.1219
10215TIP3    H152060   5.997   4.995  13.117 -3.2060  2.5567 -2.4974
10215TIP3    H252061   6.125   5.022  13.042 -0.8122  0.5372  0.6285
10216TIP3   OH252062   1.678   2.817   5.474 -0.2839 -0.4030 -0.4979
10216TIP3    H152063   1.609   2.881   5.488  0.1538 -0.3235  1.5997
10216TIP3    H252064   1.688   2.773   5.559  2.9928  0.3780 -0.3428
10217TIP3   OH252065   6.460   4.123   2.388  0.1510 -0.1680 -0.1032
10217TIP3    H152066   6.514   4.200   2.400 -0.4287 -0.0720  2.6047
10217TIP3    H252067   6.457   4.082   2.475 -1.9740 -1.5794 -0.7594
10218TIP3   OH252068   0.674   0.117   6.735  0.3959 -0.7936 -0.6015
10218TIP3    H152069   0.617   0.049   6.769 -2.3225  0.7703 -1.6746
10218TIP3    H252070   0.679   0.182   6.805 -1.2206  0.1609 -1.2916
10219TIP3   OH252071   5.977   3.478  14.387  0.0095  0.4866  0.7774
10219TIP3    H152072   5.974   3.464  14.292  3.4959  0.9537  0.4855
10219TIP3    H252073   5.996   3.571  14.397 -1.2336  0.6472  2.0357
10220TIP3   OH252074   0.209   3.247  13.338  0.0283  0.9907  0.1110
10220TIP3    H152075   0.264   3.215  13.267 -3.7415 -0.9688 -2.2692
10220TIP3    H252076   0.197   3.170  13.395 -0.6108  1.2357  0.3114
10221TIP3   OH252077   4.953   4.182  15.461 -0.0644  0.1407 -0.5031
10221TIP3    H152078   4.897   4.228  15.524 -1.9789  0.4747 -2.3143
10221TIP3    H252079   5.041   4.217  15.476 -1.1199  3.1441 -0.5968
10222TIP3   OH252080   1.217   3.648   0.935 -0.1167 -0.5736 -0.3855
10222TIP3    H152081   1.277   3.611   1.000  2.3104  1.2617 -1.3702
10222TIP3    H252082   1.240   3.604   0.854  0.4875  0.6483 -0.9120
10223TIP3   OH252083   4.027   5.835   6.285  0.1584 -0.2916 -0.3852
10223TIP3    H152084   4.009   5.742   6.295 -0.4034 -0.1967 -0.4799
10223TIP3    H252085   3.943   5.873   6.259  0.3337  0.2736 -0.1415
10224TIP3   OH252086   4.876   4.518   3.988  0.2112 -0.5381  0.5768
10224TIP3    H152087   4.905   4.433   3.954 -1.8926 -1.3799  0.7752
10224TIP3    H252088   4.955   4.573   3.983  0.9372 -1.6150 -2.3221
10225TIP3   OH252089   1.557   5.569  17.041 -0.2971 -0.5493 -0.2448
10225TIP3    H152090   1.589   5.554  16.952 -0.3576 -2.2148 -0.0199
10225TIP3    H252091   1.566   5.663  17.054 -0.9131 -0.1662 -2.2456
10226TIP3   OH252092   5.397   4.618   3.803  0.9769  0.1446  0.0235
10226TIP3    H152093   5.439   4.586   3.883 -0.3408  1.9850  1.5491
10226TIP3    H252094   5.439   4.702   3.786  0.2587  0.4308 -0.3693
10227TIP3   OH252095   2.820   3.628   4.927  0.9891 -0.2774  0.0107
10227TIP3    H152096   2.786   3.692   4.989  2.9218  1.2624 -0.4134
10227TIP3    H252097   2.757   3.629   4.855 -0.3098 -0.7479  1.0934
10228TIP3   OH252098   5.885   5.568  12.089  0.5071  1.0125 -0.1397
10228TIP3    H152099   5.859   5.564  11.997 -1.3983  1.7201  0.3193
10228TIP3    H252100   5.827   5.506  12.133  2.2303 -0.2573  0.4622
10229TIP3   OH252101   1.394   5.010   4.296 -0.3842 -0.2084 -0.3289
10229TIP3    H152102   1.456   4.991   4.367  0.0801  1.8716 -0.1152
10229TIP3    H252103   1.340   5.081   4.330  1.2459  2.3921 -2.7219
10230TIP3   OH252104   2.394   1.886  12.552  0.1520 -0.0826 -0.3476
10230TIP3    H152105   2.392   1.980  12.569 -0.6336  0.3598 -2.5470
10230TIP3    H252106   2.486   1.866  12.539  0.3070  0.4087 -0.0490
10231TIP3   OH252107   2.570   0.777  14.727  0.0759 -0.3332 -0.2869
10231TIP3    H152108   2.491   0.795  14.778 -0.5580 -0.8848 -1.0508
10231TIP3    H252109   2.615   0.862  14.722  0.4253 -0.3619  1.5902
10232TIP3   OH252110   4.813   0.334  16.994  0.3064 -0.0885 -0.2357
10232TIP3    H152111   4.868   0.347  17.071  0.8343 -2.1667 -0.2056
10232TIP3    H252112   4.857   0.265  16.945  0.6600  2.0224 -3.0962
10233TIP3   OH252113   2.058   6.689   2.115 -0.0967  0.5958  0.2763
10233TIP3    H152114   2.009   6.691   2.198 -0.0956  1.1497  0.2731
10233TIP3    H252115   2.138   6.739   2.134 -0.7972  2.0836 -0.4707
10234TIP3   OH252116   6.182   6.279  16.721 -0.1542  0.5383  0.5853
10234TIP3    H152117   6.147   6.283  16.633  1.0325  1.1037  0.1113
10234TIP3    H252118   6.229   6.196  16.725 -0.2844  0.4695  0.7251
10235TIP3   OH252119   3.864   0.851  13.932  0.6543  0.3819  0.0306
10235TIP3    H152120   3.910   0.769  13.948  0.0373  0.0918  0.3433
10235TIP3    H252121   3.828   0.841  13.843 -0.2044 -0.0767  0.4141
10236TIP3   OH252122   1.432   3.357  15.360  0.7240 -0.2822 -0.0714
10236TIP3    H152123   1.374   3.388  15.291  1.1044  0.8006  0.0762
10236TIP3    H252124   1.450   3.435  15.413  0.0644 -1.1688  1.5354
10237TIP3   OH252125   3.341   2.448   5.850  0.0244 -0.1960  0.2968
10237TIP3    H152126   3.349   2.498   5.931 -0.1661 -0.4884  0.4991
10237TIP3    H252127   3.348   2.356   5.878  0.8472 -0.2735 -0.1258
10238TIP3   OH252128   0.579   2.536   0.033  0.3631  0.1503 -0.0093
10238TIP3    H152129   0.669   2.505   0.039  0.1333 -0.2669  3.0265
10238TIP3    H252130   0.527   2.457   0.021  0.2484  0.0237  1.1595
10239TIP3   OH252131   4.576   2.692   4.813  0.3529 -0.0489  0.1586
10239TIP3    H152132   4.503   2.734   4.768 -0.7124 -1.4545  0.5021
10239TIP3    H252133   4.645   2.686   4.747 -0.7749 -1.0397 -0.9950
10240TIP3   OH252134   4.280   6.765   4.453  0.2912  0.2045 -0.4367
10240TIP3    H152135   4.253   6.760   4.544  0.9659  0.1550 -0.2399
10240TIP3    H252136   4.208   6.811   4.409  0.2403  0.7632  0.2224
10241TIP3   OH252137   3.673   5.276  13.837 -0.6010 -0.3151 -0.4768
10241TIP3    H152138   3.607   5.208  13.850 -1.2917  0.1158 -1.5624
10241TIP3    H252139   3.714   5.253  13.753  0.3305 -0.3348 -0.0186
10242TIP3   OH252140   3.681   6.687   2.246  0.1843  0.0550 -0.7617
10242TIP3    H152141   3.721   6.612   2.290 -1.1649  0.7867  1.9441
10242TIP3    H252142   3.742   6.759   2.261  0.3859  0.0149 -1.3565
10243TIP3   OH252143   4.026   0.212   3.551 -0.4033  0.4490  0.0407
10243TIP3    H152144   4.030   0.137   3.609  1.4239 -0.1024 -0.7246
10243TIP3    H252145   4.074   0.281   3.597  0.2326  0.3018 -0.3884
10244TIP3   OH252146   4.463   3.200   3.636  0.7634  0.1683  0.2169
10244TIP3    H152147   4.427   3.288   3.639  2.6015  0.9552  1.4137
10244TIP3    H252148   4.497   3.185   3.724  1.1482 -1.4448 -0.1683
10245TIP3   OH252149   6.014   5.928  11.806  0.2860  0.3095 -0.2891
10245TIP3    H152150   6.022   5.851  11.863 -3.5719 -0.0324  0.0433
10245TIP3    H252151   6.032   6.002  11.864  0.0838 -0.2054  0.4585
10246TIP3   OH252152   1.784   2.267   2.246 -0.3151  0.5759  0.2628
10246TIP3    H152153   1.878   2.255   2.235 -0.3875  1.1813 -1.3954
10246TIP3    H252154   1.760   2.328   2.176 -2.0758 -0.2029  0.1363
10247TIP3   OH252155   0.839   0.790  12.060 -0.0008 -0.3894  0.0298
10247TIP3    H152156   0.796   0.706  12.068 -0.3992 -0.2747 -0.7702
10247TIP3    H252157   0.897   0.780  11.984  0.6699 -0.2432  0.5153
10248TIP3   OH252158   1.787   0.258   1.720 -0.6724  0.6057  0.6070
10248TIP3    H152159   1.832   0.178   1.747  2.0798  1.8034 -0.0863
10248TIP3    H252160   1.716   0.268   1.783  0.0895 -1.3726  1.8785
10249TIP3   OH252161   0.989   2.293   4.515  0.3953  0.2714 -0.0352
10249TIP3    H152162   0.933   2.345   4.573 -1.6554 -0.2115 -1.4678
10249TIP3    H252163   0.992   2.207   4.556 -1.5388 -0.2423 -0.8395
10250TIP3   OH252164   5.120   6.101  11.169  0.4452 -0.1410  0.0928
10250TIP3    H152165   5.102   6.179  11.222  1.2798 -2.1524  3.5910
10250TIP3    H252166   5.034   6.064  11.151  0.1822 -0.7679  2.3614
10251TIP3   OH252167   3.293   5.244   3.352 -0.1498 -0.0402 -0.3618
10251TIP3    H152168   3.204   5.213   3.335 -0.1002  0.4314 -1.6024
10251TIP3    H252169   3.335   5.243   3.266  2.2940 -3.9124  0.6415
10252TIP3   OH252170   0.369   3.414   2.929  0.0967 -0.6218 -0.0513
10252TIP3    H152171   0.350   3.360   3.006 -1.8473 -0.0286 -0.0733
10252TIP3    H252172   0.376   3.351   2.857  2.2711 -1.2097  0.6258
10253TIP3   OH252173   4.453   5.813   2.470  0.3338  0.0479  0.0320
10253TIP3    H152174   4.535   5.788   2.512  0.2752 -1.7037 -0.8253
10253TIP3    H252175   4.433   5.741   2.411 -0.5954  1.5509 -1.5759
10254TIP3   OH252176   0.174   0.486   5.901  0.3215 -0.3435  0.0165
10254TIP3    H152177   0.126   0.507   5.981  2.2005  1.6742  0.7266
10254TIP3    H252178   0.141   0.549   5.836 -1.1693 -1.9450 -0.8777
10255TIP3   OH252179   5.001   5.866   1.357  0.6776  0.0481  0.1462
10255TIP3    H152180   4.928   5.916   1.394 -1.0972 -1.7414 -0.6955
10255TIP3    H252181   4.977   5.853   1.265  2.3652 -0.1141 -0.3008
10256TIP3   OH252182   2.690   1.818   2.630 -0.3528 -0.1497 -0.2186
10256TIP3    H152183   2.735   1.743   2.669  0.0154  0.0160 -0.3259
10256TIP3    H252184   2.653   1.866   2.704  0.7029  0.3985 -0.0359
10257TIP3   OH252185   0.993   6.645  14.626 -0.4433  0.5432 -0.0010
10257TIP3    H152186   1.070   6.694  14.597  0.7249 -0.7508  0.7623
10257TIP3    H252187   1.025   6.555  14.634 -1.9392  0.0629  0.7701
10258TIP3   OH252188   6.110   2.342   3.536  0.1179 -0.6082  0.3490
10258TIP3    H152189   6.127   2.251   3.559 -0.3476 -0.5772  0.8407
10258TIP3    H252190   6.164   2.358   3.459  0.3276 -1.2513  0.3578
10259TIP3   OH252191   4.032   3.644   5.605  0.3828 -0.0089 -0.5511
10259TIP3    H152192   4.081   3.624   5.525  0.2886 -0.5964 -0.4661
10259TIP3    H252193   4.097   3.637   5.675  0.2892 -0.2802 -0.4925
10260TIP3   OH252194   2.065   2.940  12.319 -0.1539 -0.1618  0.2629
10260TIP3    H152195   2.121   2.886  12.263 -1.9047 -0.3314 -1.4675
10260TIP3    H252196   2.000   2.878  12.354 -0.4829  0.3437  0.5678
10261TIP3   OH252197   2.487   4.835  12.108 -0.3964  0.2020  0.2004
10261TIP3    H152198   2.465   4.775  12.179  1.0760 -0.0942  0.4355
10261TIP3    H252199   2.564   4.797  12.067 -0.0189  1.4290 -0.2684
10262TIP3   OH252200   1.084   2.864   2.367 -0.6859  0.1494  0.1687
10262TIP3    H152201   1.027   2.925   2.319  0.6256 -0.3764 -2.2575
10262TIP3    H252202   1.162   2.915   2.386  0.0964 -0.4715 -1.1783
10263TIP3   OH252203   4.325   2.906  12.540  0.2078  0.0636  0.6866
10263TIP3    H152204   4.320   2.810  12.538  0.4331  0.0345  1.2387
10263TIP3    H252205   4.332   2.927  12.633  2.3456  0.5057  0.4737
10264TIP3   OH252206   4.001   3.417   2.565  0.2253  0.3571  0.5675
10264TIP3    H152207   3.962   3.362   2.497  0.4454  0.6748  0.1817
10264TIP3    H252208   3.955   3.500   2.557  0.4126  0.4684  0.6547
10265TIP3   OH252209   3.991   1.943   5.535  0.3675 -1.0477  0.0168
10265TIP3    H152210   3.963   1.969   5.448 -0.1411  0.0411  0.4814
10265TIP3    H252211   4.071   1.893   5.521 -1.1695 -3.3217 -1.2694
10266TIP3   OH252212   2.621   2.462  17.200 -0.3557  0.0790  0.0411
10266TIP3    H152213   2.591   2.538  17.251  1.3021  0.6133  0.2899
10266TIP3    H252214   2.647   2.398  17.266  2.0110  0.8571 -0.0312
10267TIP3   OH252215   0.871   3.151   0.804  0.3738 -0.0517 -0.1094
10267TIP3    H152216   0.963   3.173   0.817  0.3592 -0.4772  0.8176
10267TIP3    H252217   0.873   3.072   0.750  0.7104 -1.9413  2.4994
10268TIP3   OH252218   3.725   1.773  14.747 -0.8954 -0.1395 -0.3600
10268TIP3    H152219   3.651   1.725  14.785 -0.5945 -0.9638 -0.7898
10268TIP3    H252220   3.698   1.792  14.657 -1.0178  0.5162 -0.1869
10269TIP3   OH252221   3.576   4.183  13.608  0.2712  0.0520 -1.0452
10269TIP3    H152222   3.506   4.244  13.585  0.4494  0.2354 -1.1109
10269TIP3    H252223   3.536   4.123  13.671  0.1861  0.4545 -0.7012
10270TIP3   OH252224   1.439   1.251   4.349 -0.0856 -0.3550 -0.2703
10270TIP3    H152225   1.434   1.282   4.440 -0.3957  0.3619 -0.5207
10270TIP3    H252226   1.384   1.312   4.301  3.8220  2.3445 -1.7846
10271TIP3   OH252227   4.543   1.720   1.546 -0.0274 -0.2940 -0.5060
10271TIP3    H152228   4.533   1.632   1.509  0.0103 -0.6954  0.4162
10271TIP3    H252229   4.609   1.711   1.614  0.3949  0.5767 -0.7860
10272TIP3   OH252230   6.644   5.854  13.099 -0.3877  0.8846 -0.4562
10272TIP3    H152231   6.716   5.873  13.038 -0.0001  2.3481  0.4087
10272TIP3    H252232   6.565   5.869  13.047 -0.1024 -0.8023 -1.4367
10273TIP3   OH252233   3.672   0.212  14.225 -0.2920 -0.1666 -0.4283
10273TIP3    H152234   3.658   0.233  14.132  0.4644  1.4386 -0.2112
10273TIP3    H252235   3.763   0.183  14.229  0.2653  1.5638  0.0713
10274TIP3   OH252236   2.879   5.686  13.680 -0.1499 -0.8515  0.1153
10274TIP3    H152237   2.903   5.715  13.768  1.8270 -1.3261 -0.2040
10274TIP3    H252238   2.959   5.645  13.646 -0.5319  0.2245 -2.2814
10275TIP3   OH252239   5.855   4.077  15.030  0.0388 -0.1281  0.1624
10275TIP3    H152240   5.857   4.167  14.997  0.2773 -0.6602 -1.3416
10275TIP3    H252241   5.879   4.023  14.955 -0.6038 -1.4995  0.9032
10276TIP3   OH252242   1.289   6.342   3.253  0.0477  0.4268 -0.3703
10276TIP3    H152243   1.255   6.309   3.336  1.9572  1.4221  0.8629
10276TIP3    H252244   1.383   6.323   3.256  0.1250  0.2389 -2.4420
10277TIP3   OH252245   4.910   0.799  16.977 -0.1121 -0.6818  0.2802
10277TIP3    H152246   4.877   0.805  16.888  3.5654 -0.3506 -1.2697
10277TIP3    H252247   4.946   0.886  16.994  1.8334 -1.5509  0.8667
10278TIP3   OH252248   1.483   1.923   2.519  0.1982  0.1313 -0.6143
10278TIP3    H152249   1.562   1.966   2.554 -0.9335  1.3743  0.5209
10278TIP3    H252250   1.513   1.835   2.497  1.7975  0.3918  0.2923
10279TIP3   OH252251   1.510   0.733  14.551 -0.2769 -0.0885  0.1167
10279TIP3    H152252   1.430   0.762  14.594 -0.1853  3.6073 -1.8540
10279TIP3    H252253   1.481   0.698  14.467  0.0839  0.3659 -0.2014
10280TIP3   OH252254   5.974   4.139   4.577 -0.0148 -0.7573  0.2058
10280TIP3    H152255   6.041   4.207   4.588  0.2553 -1.1716  1.2657
10280TIP3    H252256   6.017   4.071   4.524  0.8677 -1.5898  1.9138
10281TIP3   OH252257   6.294   3.042  13.878 -0.4214  0.0786  0.2661
10281TIP3    H152258   6.374   3.018  13.924 -0.1460  0.3275 -0.0714
10281TIP3    H252259   6.324   3.065  13.790 -1.1083 -1.9184 -0.5435
10282TIP3   OH252260   5.633   0.649   0.029  0.9103  0.4222  0.5204
10282TIP3    H152261   5.558   0.689   0.073  0.9180  1.4305 -0.3621
10282TIP3    H252262   5.644   0.565   0.074 -0.7370  0.2477  0.6810
10283TIP3   OH252263   2.837   5.511  16.382 -0.4592  0.5151  0.4831
10283TIP3    H152264   2.790   5.459  16.447 -1.1019  0.0270 -0.3420
10283TIP3    H252265   2.787   5.593  16.377 -1.9158 -0.3967 -1.1339
10284TIP3   OH252266   3.201   6.058   3.436  0.5332  0.3602  0.0089
10284TIP3    H152267   3.142   5.982   3.443 -0.8675  1.5080  1.1619
10284TIP3    H252268   3.289   6.021   3.452  0.1779 -1.3568 -1.5932
10285TIP3   OH252269   5.520   0.889   6.646  0.0595 -0.2649 -0.0678
10285TIP3    H152270   5.499   0.944   6.721 -0.3501 -1.5946  0.8343
10285TIP3    H252271   5.616   0.893   6.639  0.2518 -1.2953  1.4990
10286TIP3   OH252272   1.546   0.909   1.007 -0.1545  0.4437 -0.5041
10286TIP3    H152273   1.610   0.957   0.954  0.6748 -0.6211 -0.4975
10286TIP3    H252274   1.597   0.869   1.077 -0.9112  0.0285 -0.1758
10287TIP3   OH252275   2.073   2.952  11.976 -0.1382  0.5450  0.4738
10287TIP3    H152276   2.108   2.896  11.907 -1.0974  0.4473  0.0626
10287TIP3    H252277   2.096   3.041  11.948  2.1404  0.3852  1.5423
10288TIP3   OH252278   1.716   6.216   1.177  0.5660  0.2786  0.7470
10288TIP3    H152279   1.719   6.120   1.175 -2.8003 -0.0209  2.5189
10288TIP3    H252280   1.680   6.240   1.092  0.5956 -0.1133  0.6217
10289TIP3   OH252281   2.235   6.204   5.646 -0.1497  0.0587  0.8769
10289TIP3    H152282   2.150   6.190   5.604 -0.7757 -1.2921  2.5036
10289TIP3    H252283   2.298   6.168   5.583 -0.8383  0.2225  0.0695
10290TIP3   OH252284   6.245   6.419   1.457 -0.2100  0.1919  0.3677
10290TIP3    H152285   6.247   6.342   1.514  2.0593  1.7453  2.5846
10290TIP3    H252286   6.337   6.445   1.449 -0.7550  1.6450 -1.8087
10291TIP3   OH252287   4.010   2.791  12.422 -0.5270  0.4366 -0.0161
10291TIP3    H152288   4.092   2.791  12.373  0.9699 -0.6442  2.3437
10291TIP3    H252289   3.999   2.881  12.452  0.1308  0.4538  0.1729
10292TIP3   OH252290   2.047   1.422   1.995 -0.1323  0.9662 -0.0928
10292TIP3    H152291   2.082   1.433   1.907 -0.6847 -2.1176 -0.8306
10292TIP3    H252292   2.103   1.355   2.035 -1.6131  0.1921  0.7970
10293TIP3   OH252293   0.900   1.981  14.501  0.2843  0.0523 -0.0194
10293TIP3    H152294   0.884   2.064  14.457 -2.0258 -0.3368 -0.0019
10293TIP3    H252295   0.929   1.922  14.431  2.0997  0.8529 -0.0011
10294TIP3   OH252296   5.730   0.093   0.346 -0.3026  0.1006  0.1451
10294TIP3    H152297   5.767   0.017   0.392 -0.3050  0.9383  1.5936
10294TIP3    H252298   5.661   0.125   0.404  0.3156  1.7684  0.0221
10295TIP3   OH252299   2.671   3.641  16.691  0.4313 -0.1377  0.2089
10295TIP3    H152300   2.584   3.660  16.724  0.2523 -1.0779  0.3143
10295TIP3    H252301   2.730   3.688  16.750 -0.0299  1.5085 -0.5944
10296TIP3   OH252302   2.500   2.246  13.712 -0.2669 -0.7647 -0.1550
10296TIP3    H152303   2.427   2.217  13.767 -0.5267 -1.4817 -0.8652
10296TIP3    H252304   2.484   2.205  13.627 -0.9951  1.9653 -1.4516
10297TIP3   OH252305   3.951   1.298   0.231 -0.5116 -0.5799 -0.5891
10297TIP3    H152306   3.873   1.249   0.259 -0.4115  0.1929  1.1575
10297TIP3    H252307   4.019   1.231   0.224 -1.6062 -1.5928 -3.8782
10298TIP3   OH252308   1.207   4.663   5.622  0.9336 -0.3878  0.2497
10298TIP3    H152309   1.273   4.712   5.671  0.7078  0.8424 -0.6443
10298TIP3    H252310   1.200   4.708   5.539  0.9014 -2.1116 -0.7348
10299TIP3   OH252311   0.407   4.895  14.408  0.1006 -0.0825  0.4433
10299TIP3    H152312   0.411   4.982  14.368 -0.1402  0.6621  1.9869
10299TIP3    H252313   0.470   4.899  14.480  0.0059 -1.1540  0.5982
10300TIP3   OH252314   0.324   0.913  17.072  0.1179  0.3357  0.6198
10300TIP3    H152315   0.245   0.896  17.122 -1.7879  1.5995 -1.7177
10300TIP3    H252316   0.346   1.004  17.091 -1.0748  1.0745 -1.2708
10301TIP3   OH252317   1.712   5.422   4.537  0.3792  0.0646 -0.1816
10301TIP3    H152318   1.736   5.419   4.444 -0.0002  1.3233 -0.3370
10301TIP3    H252319   1.794   5.442   4.582  1.1284 -3.0536  0.0582
10302TIP3   OH252320   2.080   1.320  14.541  0.7611  0.3511  0.2890
10302TIP3    H152321   2.061   1.257  14.611 -0.0281 -0.4232 -0.5863
10302TIP3    H252322   1.994   1.338  14.501  1.3264 -0.2287 -1.2858
10303TIP3   OH252323   5.699   1.720   2.451 -0.1261 -0.2996  0.3088
10303TIP3    H152324   5.618   1.756   2.487 -0.2993 -0.7252  0.3538
10303TIP3    H252325   5.707   1.634   2.492 -0.5155 -0.9544 -0.9372
10304TIP3   OH252326   0.533   3.229  14.605  0.2675  0.0914  0.0284
10304TIP3    H152327   0.530   3.324  14.602  0.4632  0.0808 -0.7725
10304TIP3    H252328   0.463   3.201  14.546 -2.1507 -0.3116  2.8604
10305TIP3   OH252329   4.370   2.286  11.038 -0.4677  0.1821 -0.2194
10305TIP3    H152330   4.436   2.356  11.030  2.2174 -2.2489 -1.0007
10305TIP3    H252331   4.325   2.306  11.120 -1.8690  4.3024 -1.6879
10306TIP3   OH252332   2.748   1.996  15.511 -0.1814  0.2602 -0.4567
10306TIP3    H152333   2.775   2.086  15.530  1.4707  0.2365 -2.3503
10306TIP3    H252334   2.758   1.988  15.417 -1.0883 -1.6929 -0.4276
10307TIP3   OH252335   4.268   2.142   5.699  0.2935  0.3584 -0.3570
10307TIP3    H152336   4.186   2.122   5.745  0.0817 -1.7087 -1.5394
10307TIP3    H252337   4.260   2.235   5.678 -1.2831  0.4517  0.4648
10308TIP3   OH252338   3.311   5.373   6.213 -0.2375  0.0990 -0.6495
10308TIP3    H152339   3.362   5.312   6.160  2.2883  0.7611  0.8522
10308TIP3    H252340   3.333   5.460   6.178 -0.5167  0.3775 -0.1495
10309TIP3   OH252341   1.825   6.145  11.550 -0.0024 -0.5676 -0.4357
10309TIP3    H152342   1.738   6.181  11.533  0.6666  1.3482 -0.0085
10309TIP3    H252343   1.875   6.217  11.588  1.8335 -1.5778 -0.7845
10310TIP3   OH252344   0.470   0.132  16.458  0.0809  0.4413 -0.1989
10310TIP3    H152345   0.489   0.173  16.374 -1.4881 -0.3731 -0.9965
10310TIP3    H252346   0.378   0.104  16.451 -0.0932  0.3571  1.7825
10311TIP3   OH252347   0.067   4.202   4.340  0.2278  0.0643  0.5939
10311TIP3    H152348   0.082   4.136   4.272  0.4647  0.4320  0.2877
10311TIP3    H252349  -0.001   4.163   4.396 -0.0513 -0.1970  0.0839
10312TIP3   OH252350   1.559   1.765  16.786 -0.5378 -0.1031 -0.1545
10312TIP3    H152351   1.596   1.775  16.698  0.1025 -1.2995 -0.0403
10312TIP3    H252352   1.603   1.832  16.838  1.2605 -1.2311 -0.1100
10313TIP3   OH252353   2.523   5.680  15.909  0.5451  1.4590 -0.5812
10313TIP3    H152354   2.463   5.747  15.943 -0.3890 -0.0389  0.8414
10313TIP3    H252355   2.493   5.664  15.819 -1.8019  0.1259  0.3699
10314TIP3   OH252356   1.307   0.084  16.645  0.2959 -0.4517  0.5611
10314TIP3    H152357   1.229   0.083  16.701 -0.7151  0.3795 -0.7481
10314TIP3    H252358   1.376   0.120  16.701 -0.6570  0.2879  1.3016
10315TIP3   OH252359   0.339   4.088   1.811 -0.0158  0.1734 -0.3177
10315TIP3    H152360   0.313   4.013   1.864  2.4934 -0.0148  0.7838
10315TIP3    H252361   0.343   4.161   1.872 -0.1743  0.6808 -0.9039
10316TIP3   OH252362   0.464   2.302  10.383  0.2985  0.1346  0.4246
10316TIP3    H152363   0.457   2.209  10.362  0.4516  0.4351 -1.0428
10316TIP3    H252364   0.548   2.310  10.428 -0.7428 -0.7754  2.6750
10317TIP3   OH252365   0.645   2.393  16.325  0.5187  0.1605 -0.6025
10317TIP3    H152366   0.576   2.459  16.330  0.1170  0.0675 -3.2508
10317TIP3    H252367   0.668   2.375  16.416 -1.3282  1.8726  0.2847
10318TIP3   OH252368   5.647   4.394  14.976  0.3919  0.3496  0.3881
10318TIP3    H152369   5.693   4.402  14.892 -0.3566 -0.8475 -0.1563
10318TIP3    H252370   5.599   4.312  14.970  1.0430 -0.2459  2.3499
10319TIP3   OH252371   4.211   1.052   5.306  0.4007  0.6825 -0.4234
10319TIP3    H152372   4.258   1.111   5.364  1.7902 -0.4791 -0.2936
10319TIP3    H252373   4.196   0.973   5.359 -0.3383  0.4505 -0.9575
10320TIP3   OH252374   3.759   3.287  16.823  0.0855  0.2159 -0.3391
10320TIP3    H152375   3.755   3.381  16.839 -1.8775  0.4754 -1.9755
10320TIP3    H252376   3.784   3.279  16.731 -3.3005 -0.6557 -1.3304
10321TIP3   OH252377   4.632   3.968   0.211 -0.0076  0.0989  0.3310
10321TIP3    H152378   4.627   4.063   0.199 -1.0505  0.3134  2.0516
10321TIP3    H252379   4.720   3.945   0.180  1.1160  1.9809  1.8421
10322TIP3   OH252380   3.936   3.657   5.271  0.8476 -0.5069 -0.0468
10322TIP3    H152381   3.867   3.641   5.334  0.4181  0.3733 -0.2792
10322TIP3    H252382   3.981   3.573   5.263  0.5390 -0.7829  0.9717
10323TIP3   OH252383   6.242   5.787   2.713 -0.3918  0.2264  0.3976
10323TIP3    H152384   6.267   5.817   2.800 -1.5647  0.8260  0.5464
10323TIP3    H252385   6.245   5.691   2.719  0.0149  0.2698  0.9491
10324TIP3   OH252386   0.623   5.257  14.602  0.1923  0.0209 -0.4309
10324TIP3    H152387   0.528   5.247  14.601  0.4455 -4.2135  0.0447
10324TIP3    H252388   0.647   5.256  14.509 -0.1087 -2.9938 -0.5781
10325TIP3   OH252389   3.607   4.765  13.480 -0.1716  0.1262  0.2628
10325TIP3    H152390   3.693   4.785  13.517 -1.1528  1.1165  2.2053
10325TIP3    H252391   3.567   4.850  13.465 -0.2282 -0.2766 -2.2598
10326TIP3   OH252392   5.710   0.919   4.718 -0.3872 -0.2687  0.2035
10326TIP3    H152393   5.617   0.902   4.705 -0.5012  0.4275  0.0417
10326TIP3    H252394   5.745   0.838   4.755 -1.3036 -0.1061  1.4991
10327TIP3   OH252395   0.288   3.701  15.672  0.0970  0.0746  0.6816
10327TIP3    H152396   0.306   3.608  15.683  0.1052 -0.0690 -0.4649
10327TIP3    H252397   0.234   3.706  15.594  1.3353  1.1565 -0.1395
10328TIP3   OH252398   6.726   4.442  16.438  0.0501  0.0679  0.1151
10328TIP3    H152399   6.728   4.363  16.492  1.2129  1.3060  2.0335
10328TIP3    H252400   6.697   4.511  16.498  3.3100  1.9057 -0.1701
10329TIP3   OH252401   3.115   4.121  15.208  0.5871  0.3378  0.0258
10329TIP3    H152402   3.041   4.103  15.265 -0.1517 -0.1827 -1.0788
10329TIP3    H252403   3.090   4.200  15.160  1.1401  0.6854  0.2984
10330TIP3   OH252404   2.074   1.297   0.807 -0.0966 -0.2635  0.3311
10330TIP3    H152405   2.049   1.287   0.715 -1.8309 -1.0718  0.8511
10330TIP3    H252406   2.121   1.380   0.811 -2.1240  0.9926 -0.8595
10331TIP3   OH252407   3.122   4.755   5.589 -0.2931  0.1671 -0.4063
10331TIP3    H152408   3.192   4.690   5.577 -0.6436 -0.0830 -1.1119
10331TIP3    H252409   3.140   4.823   5.524 -0.5740  0.2172 -0.4307
10332TIP3   OH252410   6.598   0.937  14.525  0.5112 -0.6899 -0.0418
10332TIP3    H152411   6.567   1.027  14.524  1.6352 -0.2821  0.1044
10332TIP3    H252412   6.668   0.936  14.591  0.8735 -1.5360 -0.4196
10333TIP3   OH252413   3.525   4.933   2.947  0.0617 -0.4576 -0.1022
10333TIP3    H152414   3.464   4.862   2.929  0.8925 -2.0970  2.9272
10333TIP3    H252415   3.607   4.889   2.969  0.6458  1.3967  1.7567
10334TIP3   OH252416   4.952   4.884   1.057  0.2843  0.1704 -0.2457
10334TIP3    H152417   4.956   4.833   1.138  0.3948 -0.6607 -0.7568
10334TIP3    H252418   4.939   4.819   0.989  0.3292  0.8472 -0.9142
10335TIP3   OH252419   1.634   5.678   2.601 -0.2027  0.7181  0.1345
10335TIP3    H152420   1.652   5.762   2.643 -1.8581  0.8829  0.5672
10335TIP3    H252421   1.716   5.657   2.556  0.5536  2.1023  0.7649
10336TIP3   OH252422   4.449   4.546   2.229 -0.2340 -0.1512  0.0196
10336TIP3    H152423   4.520   4.484   2.215 -0.5041 -1.0227  2.1668
10336TIP3    H252424   4.466   4.582   2.316 -2.2985 -0.2017  0.4737
10337TIP3   OH252425   5.921   4.955  11.652  0.0653  0.4299  0.1521
10337TIP3    H152426   5.965   4.936  11.569  1.1224  2.4621  0.1917
10337TIP3    H252427   5.848   4.893  11.655  0.4265 -0.1724 -1.9437
10338TIP3   OH252428   2.272   1.264  16.765 -0.0370  0.7579  0.0212
10338TIP3    H152429   2.346   1.324  16.778  1.0905 -0.3870 -0.8062
10338TIP3    H252430   2.286   1.228  16.677  0.0783 -1.6671  0.9555
10339TIP3   OH252431   1.694   0.816   5.039  0.0944  0.4265 -0.3942
10339TIP3    H152432   1.720   0.787   5.127 -1.1594 -0.8986 -0.4239
10339TIP3    H252433   1.727   0.748   4.980  1.8728  1.8467 -1.1077
10340TIP3   OH252434   2.073   3.462   1.112 -0.0635 -0.1190  0.1924
10340TIP3    H152435   2.125   3.411   1.049  0.3300  1.1565 -0.5473
10340TIP3    H252436   1.983   3.453   1.081 -0.3377 -2.2689  1.4277
10341TIP3   OH252437   5.413   5.424   4.518  0.2497  0.0215 -0.2458
10341TIP3    H152438   5.331   5.450   4.560  0.1109 -2.5197  1.2260
10341TIP3    H252439   5.418   5.329   4.530  2.0082 -0.3356 -2.8933
10342TIP3   OH252440   6.700   6.036  11.986  0.2586  0.0975  0.1134
10342TIP3    H152441   6.765   6.096  12.023 -1.3021  2.4676 -0.7638
10342TIP3    H252442   6.723   6.030  11.893  1.1112 -1.7430  0.3818
10343TIP3   OH252443   3.158   3.449   0.389 -0.3750 -0.3012 -0.2474
10343TIP3    H152444   3.139   3.518   0.454 -1.0822 -0.6689 -0.0559
10343TIP3    H252445   3.217   3.491   0.327  0.6412 -0.0581  0.8475
10344TIP3   OH252446   4.111   3.433  14.540 -0.1349 -0.6891  0.3212
10344TIP3    H152447   4.069   3.488  14.606  1.9817  1.3448  0.0772
10344TIP3    H252448   4.126   3.350  14.584 -2.8415 -0.9767  0.8966
10345TIP3   OH252449   6.535   4.457   2.210 -0.3986  0.3643  0.2352
10345TIP3    H152450   6.596   4.394   2.249 -0.4254 -0.0314 -0.3443
10345TIP3    H252451   6.589   4.512   2.154 -0.4393  0.5829  0.4114
10346TIP3   OH252452   6.461   0.165  12.978 -0.4028  0.1447 -0.4433
10346TIP3    H152453   6.539   0.180  12.925 -0.8087 -0.8991 -1.3681
10346TIP3    H252454   6.482   0.089  13.032 -0.3871  0.5394  0.1151
10347TIP3   OH252455   2.709   4.908   3.734  0.8293 -0.1582 -0.5543
10347TIP3    H152456   2.746   4.835   3.785  2.1109  0.8718  0.0373
10347TIP3    H252457   2.748   4.986   3.773 -0.6991  0.8754 -1.0393
10348TIP3   OH252458   5.257   3.169   2.667 -0.0694 -0.0879 -0.5629
10348TIP3    H152459   5.322   3.239   2.663  1.2699 -1.3239 -1.0806
10348TIP3    H252460   5.220   3.165   2.579 -0.4344  0.2132 -0.4279
10349TIP3   OH252461   5.904   4.498  11.060  0.0813 -0.1217 -0.4121
10349TIP3    H152462   5.857   4.507  10.977 -0.4401  0.6220 -0.0499
10349TIP3    H252463   5.910   4.403  11.075  1.1462 -0.2993 -1.8237
10350TIP3   OH252464   0.116   2.718  16.799 -0.4295  0.9752  0.8304
10350TIP3    H152465   0.091   2.635  16.839 -0.8425  1.5603  1.8054
10350TIP3    H252466   0.037   2.773  16.804  0.1836  1.8391  1.2927
10351TIP3   OH252467   3.796   6.025   6.242  0.2515  0.0919  0.0781
10351TIP3    H152468   3.746   6.005   6.322 -0.4040 -0.0565 -0.3542
10351TIP3    H252469   3.763   5.962   6.178  0.2344  0.7005 -0.5181
10352TIP3   OH252470   2.612   5.236   4.338  0.3136  0.6040  0.4122
10352TIP3    H152471   2.579   5.233   4.248  0.3936 -0.4333  0.3996
10352TIP3    H252472   2.691   5.182   4.336  0.0128  0.1127  1.2277
10353TIP3   OH252473   2.123   3.148  13.162  0.0905  0.1698  0.5079
10353TIP3    H152474   2.168   3.211  13.105  0.2349 -0.8829 -0.5888
10353TIP3    H252475   2.033   3.146  13.128  0.8996 -2.8710 -1.9883
10354TIP3   OH252476   1.188   5.022   2.920 -0.1767  0.1391 -0.0389
10354TIP3    H152477   1.117   5.085   2.906 -0.0936 -0.0519 -1.4715
10354TIP3    H252478   1.240   5.026   2.840  1.5072  0.3332  1.0126
10355TIP3   OH252479   0.311   2.202   4.594  0.2442 -0.0745  0.2035
10355TIP3    H152480   0.308   2.200   4.498 -0.1548 -0.7195  0.2260
10355TIP3    H252481   0.250   2.272   4.618  0.7818  0.4874 -0.0230
10356TIP3   OH252482   3.058   2.461   1.251 -0.0709 -0.4098 -0.2441
10356TIP3    H152483   3.017   2.534   1.205  0.4227 -0.2789 -0.4797
10356TIP3    H252484   3.142   2.495   1.280 -0.4109 -0.4610  0.8435
10357TIP3   OH252485   0.558   4.051   6.006 -0.1891  0.7205  0.3815
10357TIP3    H152486   0.477   4.048   5.956 -1.2220 -0.9898  2.0577
10357TIP3    H252487   0.554   4.133   6.054 -0.8748  0.6971  0.3662
10358TIP3   OH252488   0.005   6.134  13.106 -0.3483 -0.0852  0.0058
10358TIP3    H152489  -0.055   6.192  13.152 -0.0361  1.0647 -0.9622
10358TIP3    H252490  -0.001   6.051  13.152 -1.7928  0.3409  0.6448
10359TIP3   OH252491   1.015   5.252   4.628 -0.5784  0.0685  0.2568
10359TIP3    H152492   0.966   5.198   4.690 -0.2884 -0.1779  0.2753
10359TIP3    H252493   0.955   5.267   4.555 -0.1871 -1.4848 -0.4104
10360TIP3   OH252494   1.701   3.262  16.796  0.3251 -0.0683  0.2351
10360TIP3    H152495   1.676   3.353  16.781 -1.8094 -0.5812  0.3477
10360TIP3    H252496   1.759   3.241  16.723  0.8823  1.3695  0.2311
10361TIP3   OH252497   1.237   1.737   2.145  1.2865  0.1647 -0.1392
10361TIP3    H152498   1.211   1.819   2.188 -0.5922 -0.0304 -0.7942
10361TIP3    H252499   1.329   1.750   2.124  1.8064  0.9823  2.2624
10362TIP3   OH252500   6.317   5.731   4.140 -0.3146  0.7328  0.7542
10362TIP3    H152501   6.271   5.815   4.133  0.6301  1.1353 -1.2034
10362TIP3    H252502   6.404   5.754   4.171 -0.4581  0.3071  1.4935
10363TIP3   OH252503   4.181   3.141  16.506 -0.4414 -0.1207  0.0808
10363TIP3    H152504   4.181   3.126  16.600 -1.3815  1.4370  0.3592
10363TIP3    H252505   4.160   3.056  16.468 -0.1336 -0.7462  1.2792
10364TIP3   OH252506   5.732   4.034   0.916 -0.0826 -0.1923  0.2850
10364TIP3    H152507   5.814   3.998   0.949 -1.2655 -1.3684  2.1568
10364TIP3    H252508   5.703   4.095   0.984 -0.2155  1.1035 -0.8896
10365TIP3   OH252509   4.853   1.926  14.062 -0.1073  0.2182  0.0510
10365TIP3    H152510   4.949   1.930  14.062  0.0791 -2.0808  1.8017
10365TIP3    H252511   4.827   1.975  14.140 -0.2220 -0.3427  0.3764
10366TIP3   OH252512   4.527   4.691  12.197 -0.2658 -0.0847  0.4313
10366TIP3    H152513   4.563   4.605  12.217 -1.3518 -0.8734 -0.8687
10366TIP3    H252514   4.601   4.740  12.160 -0.0228 -1.0137 -0.3408
10367TIP3   OH252515   2.677   0.721  11.487 -0.4376  0.0107 -0.2543
10367TIP3    H152516   2.689   0.628  11.467 -1.8610 -0.1147 -0.6560
10367TIP3    H252517   2.764   0.758  11.481  0.0461 -1.1556 -0.8566
10368TIP3   OH252518   0.244   4.369  16.016  0.3992  0.2951  0.2999
10368TIP3    H152519   0.179   4.436  15.998 -1.4724 -1.8202 -1.5436
10368TIP3    H252520   0.246   4.361  16.111 -0.6032  1.7515  0.4584
10369TIP3   OH252521   2.477   1.833  13.666  0.2156 -0.3984 -0.4438
10369TIP3    H152522   2.437   1.909  13.623 -0.8953 -1.8061 -2.0342
10369TIP3    H252523   2.424   1.819  13.744  0.7627  0.7314  0.1708
10370TIP3   OH252524   4.011   1.633  13.534  0.6994  0.3822  0.1175
10370TIP3    H152525   3.938   1.575  13.556  0.2472  1.3311  1.2335
10370TIP3    H252526   4.060   1.586  13.467  0.0722 -1.0637  0.6340
10371TIP3   OH252527   2.909   0.906  10.308  0.1993  0.4663  0.2003
10371TIP3    H152528   2.899   0.815  10.279  1.4076  0.9998 -2.1556
10371TIP3    H252529   2.822   0.932  10.337 -0.4281 -1.0999 -0.1728
10372TIP3   OH252530   0.934   3.051   4.815 -0.3494  0.2734 -0.1245
10372TIP3    H152531   0.910   3.140   4.843 -2.3078 -0.5738  1.0950
10372TIP3    H252532   0.854   3.015   4.777  0.3456 -1.0714 -0.3799
10373TIP3   OH252533   1.046   0.508   2.976 -0.4339  0.5627 -0.1542
10373TIP3    H152534   1.048   0.553   3.060  0.3757  0.2998 -0.0226
10373TIP3    H252535   0.956   0.476   2.968  0.0503 -1.5375  1.7569
10374TIP3   OH252536   0.419   0.186   0.594  0.1060  0.3021 -0.6622
10374TIP3    H152537   0.495   0.136   0.566  1.9328  3.7210 -2.3900
10374TIP3    H252538   0.430   0.196   0.688  0.7501 -0.7730 -0.6062
10375TIP3   OH252539   5.616   1.894   1.175 -0.6921  0.2610 -0.6809
10375TIP3    H152540   5.666   1.875   1.254 -2.2512  0.5209  0.4154
10375TIP3    H252541   5.590   1.808   1.142  1.4927  0.0398 -2.0091
10376TIP3   OH252542   2.034   0.671  14.094  0.0504  0.1122  0.2412
10376TIP3    H152543   1.987   0.751  14.072 -0.6574 -0.0677  1.0536
10376TIP3    H252544   2.091   0.695  14.167 -0.4786 -0.2262  0.7673
10377TIP3   OH252545   5.679   1.952  15.479  0.5388  0.0192 -0.1136
10377TIP3    H152546   5.659   1.861  15.456 -0.6595  0.1954  0.1443
10377TIP3    H252547   5.749   1.977  15.419  0.7692 -1.0217 -0.3041
10378TIP3   OH252548   2.976   1.875   2.568  0.1959  0.3511  0.2255
10378TIP3    H152549   3.004   1.955   2.525 -0.6004  1.1298  1.1006
10378TIP3    H252550   2.881   1.878   2.567  0.1509 -0.5447  0.3472
10379TIP3   OH252551   3.254   0.394  12.395  0.1835  0.3360 -0.1928
10379TIP3    H152552   3.237   0.436  12.311 -2.0123 -0.0106  0.0143
10379TIP3    H252553   3.253   0.300  12.375  0.4719  0.2641  0.1101
10380TIP3   OH252554   0.229   4.093  13.646  0.1336 -0.4015  0.6526
10380TIP3    H152555   0.322   4.073  13.659  0.5387  0.5172 -0.5698
10380TIP3    H252556   0.190   4.011  13.615  0.8889 -0.4051 -0.3544
10381TIP3   OH252557   2.563   2.659  13.734  0.7082  0.0070  0.1777
10381TIP3    H152558   2.486   2.714  13.721  3.0098  3.1397 -1.6929
10381TIP3    H252559   2.629   2.719  13.771  2.2760 -2.5503  1.8344
10382TIP3   OH252560   6.512   5.105   2.677  0.4813 -0.1207 -0.6606
10382TIP3    H152561   6.586   5.044   2.675  1.8166  1.1316  2.8130
10382TIP3    H252562   6.549   5.188   2.647 -0.2650 -0.0612 -1.4538
10383TIP3   OH252563   4.673   1.419   5.388 -0.1341  0.6360 -0.1143
10383TIP3    H152564   4.728   1.492   5.417 -1.3117  0.6666  2.2662
10383TIP3    H252565   4.694   1.409   5.295  0.7849  3.3418 -0.2939
10384TIP3   OH252566   6.602   5.579   2.478  0.3416  0.6384  0.4908
10384TIP3    H152567   6.542   5.574   2.403 -0.8391 -1.7435  1.4999
10384TIP3    H252568   6.681   5.619   2.442 -0.1984 -0.3659 -2.0377
10385TIP3   OH252569   5.765   1.270   1.780  0.2951  0.2124 -0.2965
10385TIP3    H152570   5.684   1.219   1.779  1.0156 -0.9750  0.3172
10385TIP3    H252571   5.735   1.361   1.775 -1.1521 -0.1212  1.2038
10386TIP3   OH252572   1.389   3.676  15.755  0.0113 -0.1412  0.2064
10386TIP3    H152573   1.352   3.764  15.750  1.1017  0.3549  0.5933
10386TIP3    H252574   1.443   3.677  15.834 -1.4950 -1.7643  1.3339
10387TIP3   OH252575   5.840   5.182   3.895  0.6670 -0.3938  0.2290
10387TIP3    H152576   5.868   5.256   3.840  1.4177 -0.8493 -0.0236
10387TIP3    H252577   5.868   5.104   3.846  2.2399 -0.8121  1.6984
10388TIP3   OH252578   1.257   1.381  15.427  0.5840 -0.3912  0.2016
10388TIP3    H152579   1.197   1.393  15.501 -1.6988  0.3106 -1.6314
10388TIP3    H252580   1.321   1.452  15.436  0.4802 -0.4499  1.5841
10389TIP3   OH252581   0.419   4.070  12.052  0.1203 -0.0436 -0.1190
10389TIP3    H152582   0.457   4.005  11.993 -3.0071 -1.0299 -1.3010
10389TIP3    H252583   0.400   4.021  12.132 -1.5463 -0.5070 -0.7410
10390TIP3   OH252584   3.015   5.313  13.729 -0.7480  0.7586 -0.7794
10390TIP3    H152585   2.962   5.299  13.650 -0.6172  0.3077 -0.7911
10390TIP3    H252586   3.089   5.253  13.718 -2.0929 -1.3952  0.9753
10391TIP3   OH252587   5.192   6.757  12.363 -0.6760 -0.0142  0.6586
10391TIP3    H152588   5.258   6.689  12.375 -0.3740  0.2676  0.5952
10391TIP3    H252589   5.224   6.831  12.414  0.4528  1.0917 -1.5041
10392TIP3   OH252590   4.229   4.690  15.837 -0.0515 -0.8057 -0.3493
10392TIP3    H152591   4.224   4.706  15.743  2.4983  1.3277 -0.2161
10392TIP3    H252592   4.262   4.771  15.874  0.3883 -2.0579  2.2429
10393TIP3   OH252593   3.806   0.920  13.102 -0.6595  0.8135  0.1318
10393TIP3    H152594   3.842   1.008  13.091 -1.6346  1.0679 -1.3515
10393TIP3    H252595   3.757   0.905  13.021  1.8871 -2.2714 -1.0333
10394TIP3   OH252596   4.561   1.100   4.640 -0.4603  0.1527  0.1867
10394TIP3    H152597   4.627   1.036   4.615  1.4005  2.9705 -2.8537
10394TIP3    H252598   4.595   1.141   4.719 -0.7850 -1.2742  1.1050
10395TIP3   OH252599   0.550   0.435   4.118 -0.3825 -0.0879 -0.2335
10395TIP3    H152600   0.474   0.466   4.167  0.5523 -0.0205  1.2136
10395TIP3    H252601   0.577   0.355   4.162  0.8208  0.2793 -0.2640
10396TIP3   OH252602   6.460   5.209   1.844  0.6320  0.0022 -0.5148
10396TIP3    H152603   6.541   5.208   1.894  1.7680  0.5138 -2.2621
10396TIP3    H252604   6.392   5.233   1.907  1.8693 -0.1808  0.9209
10397TIP3   OH252605   0.314   5.371   3.351 -1.1602 -0.6918 -0.0645
10397TIP3    H152606   0.335   5.458   3.383  0.0366 -0.5270 -1.1966
10397TIP3    H252607   0.231   5.349   3.393  0.5223 -0.7643  3.5245
10398TIP3   OH252608   3.098   0.691  12.679 -0.1608 -0.0040  0.2229
10398TIP3    H152609   3.137   0.686  12.592 -0.1707 -0.7025  0.2506
10398TIP3    H252610   3.135   0.770  12.718 -0.1334  0.2941 -0.4049
10399TIP3   OH252611   5.252   6.218  14.478 -0.0939  0.8972 -0.3607
10399TIP3    H152612   5.200   6.137  14.477 -0.7569  1.2404  1.5886
10399TIP3    H252613   5.237   6.257  14.392 -0.7707 -0.4318 -0.8783
10400TIP3   OH252614   0.129   3.938   2.592  0.1416 -0.2526 -0.1116
10400TIP3    H152615   0.206   3.913   2.643 -0.1450  0.5343  0.7285
10400TIP3    H252616   0.165   3.984   2.516  0.5382 -0.7850 -0.2534
10401TIP3   OH252617   3.854   3.135  14.011 -0.2845 -0.5051 -0.1652
10401TIP3    H152618   3.765   3.113  13.982 -0.5496 -0.4896  0.6049
10401TIP3    H252619   3.844   3.158  14.104  0.3789  0.3881 -0.2966
10402TIP3   OH252620   0.529   4.654   0.858 -0.4848 -0.2336 -0.2402
10402TIP3    H152621   0.534   4.598   0.780  2.2628 -0.6000  0.1177
10402TIP3    H252622   0.550   4.741   0.826 -0.5254 -0.1722 -0.1006
10403TIP3   OH252623   6.625   1.388   2.415  0.9691  0.3153  0.0861
10403TIP3    H152624   6.622   1.412   2.323  1.2152  0.7203  0.1832
10403TIP3    H252625   6.718   1.372   2.433  0.6982 -1.9982 -0.2966
10404TIP3   OH252626   3.495   4.889   6.719 -0.6098 -0.1787 -0.0482
10404TIP3    H152627   3.411   4.846   6.734 -1.2688  1.0916  0.1153
10404TIP3    H252628   3.537   4.837   6.651 -1.2694 -1.1777  0.2892
10405TIP3   OH252629   4.071   3.401  16.473  0.2581 -0.3446 -0.5870
10405TIP3    H152630   4.090   3.311  16.498 -0.3615  0.1185  1.7458
10405TIP3    H252631   3.976   3.405  16.468  0.3226 -0.2289 -2.5243
10406TIP3   OH252632   2.486   1.057   2.930  0.0186 -0.7430  0.1549
10406TIP3    H152633   2.429   1.087   2.859  1.3242 -0.9648 -1.0028
10406TIP3    H252634   2.427   1.007   2.987 -1.2019  0.0534 -0.3576
10407TIP3   OH252635   6.250   2.965   3.893  0.8247  1.1473 -0.6722
10407TIP3    H152636   6.269   3.037   3.953 -0.2293  0.9483 -0.0806
10407TIP3    H252637   6.185   3.000   3.832  1.7025  1.2689 -1.5677
10408TIP3   OH252638   3.258   3.530   2.477 -0.3855  0.0288  0.0237
10408TIP3    H152639   3.251   3.626   2.484 -0.2995  0.1188 -0.8832
10408TIP3    H252640   3.169   3.498   2.492 -0.4717  0.2732  0.0437
10409TIP3   OH252641   5.988   1.892   2.162 -0.2833 -0.0755  0.1713
10409TIP3    H152642   5.928   1.957   2.198  0.1441  0.9058 -0.8032
10409TIP3    H252643   6.072   1.937   2.159  0.2790 -1.0733  0.5265
10410TIP3   OH252644   0.553   0.987   3.628  0.1663  0.2178 -0.0308
10410TIP3    H152645   0.544   1.076   3.662 -0.3010 -0.3938  1.5445
10410TIP3    H252646   0.648   0.976   3.618  0.3103  0.5399  0.8241
10411TIP3   OH252647   3.073   6.626  17.344 -0.1621 -0.5298  0.4544
10411TIP3    H152648   3.130   6.673  17.283 -0.8726 -0.2017  0.0326
10411TIP3    H252649   3.032   6.695  17.397 -1.1850 -0.6580 -0.1460
10412TIP3   OH252650   1.585   4.137   1.323 -0.0562 -0.1246 -0.4008
10412TIP3    H152651   1.615   4.192   1.250  1.7637  0.9489  1.0511
10412TIP3    H252652   1.618   4.049   1.302 -0.0555  0.0448 -1.1422
10413TIP3   OH252653   1.535   3.955  17.359 -0.0521  0.1051 -0.5148
10413TIP3    H152654   1.623   3.972  17.393 -1.0055  2.2374  1.0913
10413TIP3    H252655   1.525   3.860  17.366  1.4689  0.0088  0.9837
10414TIP3   OH252656   2.355   4.190  13.952 -0.4502 -0.1081  0.1367
10414TIP3    H152657   2.392   4.145  13.876 -1.8129 -0.1340 -0.5459
10414TIP3    H252658   2.289   4.248  13.915 -1.3197 -0.3154  1.3280
10415TIP3   OH252659   2.271   1.610   3.359 -0.0859 -0.4411  0.6604
10415TIP3    H152660   2.320   1.555   3.421  2.1147 -0.5963 -1.0762
10415TIP3    H252661   2.279   1.699   3.393 -1.0119 -0.7781  1.8383
10416TIP3   OH252662   1.337   1.449  13.745 -0.5283 -0.5066  0.0311
10416TIP3    H152663   1.431   1.428  13.737 -0.2822  0.0164  1.3311
10416TIP3    H252664   1.296   1.404  13.671  0.9630  0.6589 -1.6101
10417TIP3   OH252665   0.382   5.431  16.814  0.0884 -0.0472  0.4404
10417TIP3    H152666   0.378   5.336  16.825  2.2379 -0.0922  1.2270
10417TIP3    H252667   0.366   5.466  16.901  1.5948  0.2081  0.6271
10418TIP3   OH252668   0.133   5.542  13.275  0.2177 -0.0907 -0.4939
10418TIP3    H152669   0.074   5.532  13.349  1.7642 -0.8606  0.6936
10418TIP3    H252670   0.078   5.528  13.198 -1.3093  0.1699  0.5102
10419TIP3   OH252671   5.893   6.631  11.630  0.1832  0.1990  0.1999
10419TIP3    H152672   5.967   6.572  11.644  1.0533  0.9963 -0.8483
10419TIP3    H252673   5.898   6.654  11.537 -1.0603  0.7054  0.2404
10420TIP3   OH252674   6.381   3.476   2.863  0.3587  0.3054  0.2134
10420TIP3    H152675   6.332   3.558   2.860 -0.7433 -0.3440 -0.1588
10420TIP3    H252676   6.322   3.414   2.907  0.8664 -0.4787 -0.1847
10421TIP3   OH252677   1.297   3.213   5.162  0.0827  0.1667 -0.0951
10421TIP3    H152678   1.226   3.154   5.140  0.1995 -0.1590  0.3958
10421TIP3    H252679   1.283   3.235   5.254  0.3691  0.4444 -0.1149
10422TIP3   OH252680   0.046   1.048   1.235 -0.3740 -0.0979  0.0353
10422TIP3    H152681   0.075   1.129   1.277 -0.4814 -0.7614  1.4679
10422TIP3    H252682  -0.015   1.077   1.167 -0.2490  1.0346  0.3734
10423TIP3   OH252683   5.373   3.599  15.910  0.9861  0.6486  0.5697
10423TIP3    H152684   5.352   3.507  15.926 -0.0033  0.9850  1.3192
10423TIP3    H252685   5.293   3.646  15.933  0.9440  1.5845 -1.2867
10424TIP3   OH252686   6.718   3.848  11.647  0.0624  0.3593  0.3589
10424TIP3    H152687   6.749   3.905  11.718  0.0813  0.1427  0.5234
10424TIP3    H252688   6.711   3.761  11.686  2.5897 -0.3325 -0.5514
10425TIP3   OH252689   1.853   3.629   1.625  1.0955 -0.2664 -0.0325
10425TIP3    H152690   1.939   3.616   1.664  1.5816 -0.3521 -1.0893
10425TIP3    H252691   1.867   3.617   1.531 -0.0360 -0.1034 -0.2418
10426TIP3   OH252692   6.679   5.572  17.268  0.5332 -0.6322  0.1288
10426TIP3    H152693   6.622   5.590  17.343  0.3861 -3.2291  0.7238
10426TIP3    H252694   6.756   5.529  17.306  1.6673  0.3346 -0.9688
10427TIP3   OH252695   6.431   5.905  15.693 -0.9528 -0.1836 -0.2971
10427TIP3    H152696   6.432   6.000  15.697 -1.1183 -0.1877 -0.1054
10427TIP3    H252697   6.380   5.879  15.770  1.5268 -0.5307  1.3415
10428TIP3   OH252698   5.027   2.830   1.537  0.1299 -0.2815 -0.5795
10428TIP3    H152699   5.043   2.892   1.465  1.2642  0.1765  0.0319
10428TIP3    H252700   4.954   2.776   1.507  1.6745 -1.2631 -2.8364
10429TIP3   OH252701   4.511   1.333   1.990 -0.2487 -0.0190  0.4959
10429TIP3    H152702   4.603   1.317   1.969 -0.4610  0.8809 -1.3209
10429TIP3    H252703   4.512   1.411   2.045  0.0423  0.3610 -0.0455
10430TIP3   OH252704   5.068   3.760   0.285  0.1695 -0.6347 -0.0384
10430TIP3    H152705   5.097   3.788   0.372  1.4258 -2.1346  0.0577
10430TIP3    H252706   4.983   3.802   0.274  1.2793  1.9988  0.6716
10431TIP3   OH252707   4.014   0.674  14.866  0.9229  0.1760 -0.3250
10431TIP3    H152708   3.972   0.719  14.939  0.8834 -0.2252 -0.0952
10431TIP3    H252709   3.942   0.629  14.821  0.7657  1.4103 -1.3446
10432TIP3   OH252710   5.465   6.555   5.839  0.2505 -0.2990 -0.5472
10432TIP3    H152711   5.459   6.505   5.921  2.2007 -0.4847 -0.4511
10432TIP3    H252712   5.462   6.488   5.770  1.0386 -0.3900 -0.5013
10433TIP3   OH252713   6.167   2.864   4.853 -0.2999  0.2014 -0.1762
10433TIP3    H152714   6.162   2.771   4.829 -1.2208  0.1517  0.1446
10433TIP3    H252715   6.250   2.873   4.900  0.3273 -0.2175 -1.1653
10434TIP3   OH252716   2.364   5.621  16.815 -0.2739  0.5709 -1.0380
10434TIP3    H152717   2.323   5.706  16.830 -0.3344  0.2560  0.8454
10434TIP3    H252718   2.324   5.589  16.734 -3.1342  0.7011  0.1994
10435TIP3   OH252719   0.911   3.785   1.189 -0.5222  0.3444 -0.4183
10435TIP3    H152720   0.922   3.747   1.101 -1.2894 -2.3551  0.5482
10435TIP3    H252721   1.001   3.797   1.220 -0.2456  0.3032 -1.1675
10436TIP3   OH252722   1.091   6.449   1.503  0.1882  0.3952 -0.0305
10436TIP3    H152723   1.173   6.400   1.491  0.9753  0.8877  2.6408
10436TIP3    H252724   1.030   6.408   1.442  1.9719 -1.0832 -0.9350
10437TIP3   OH252725   4.617   0.087  17.314  0.0496 -0.3425 -1.2425
10437TIP3    H152726   4.561   0.130  17.379 -0.7097 -0.5100 -1.7801
10437TIP3    H252727   4.680   0.154  17.287 -1.1078  0.4393 -2.0628
10438TIP3   OH252728   2.687   1.227  13.380  0.3532 -0.5250  0.3553
10438TIP3    H152729   2.776   1.254  13.401  1.0151 -2.4060  0.1428
10438TIP3    H252730   2.680   1.137  13.412 -1.8137 -0.1080  1.2591
10439TIP3   OH252731   1.574   3.310   0.376 -0.0497 -0.3083  0.0704
10439TIP3    H152732   1.599   3.324   0.285  0.2038 -1.3777 -0.0399
10439TIP3    H252733   1.619   3.229   0.401 -0.8703 -0.5410  0.8481
10440TIP3   OH252734   3.488   6.766  14.878  0.2785 -0.5653  1.2209
10440TIP3    H152735   3.517   6.675  14.872  0.7617 -0.3679  0.2240
10440TIP3    H252736   3.521   6.796  14.962  0.5200 -1.1833  1.3531
10441TIP3   OH252737   0.830   2.716  15.520 -0.2034  0.5812  0.0896
10441TIP3    H152738   0.800   2.656  15.452 -1.4189  0.7403  0.4590
10441TIP3    H252739   0.750   2.754  15.556  0.2789 -0.3368  2.3689
10442TIP3   OH252740   1.083   6.344   0.773 -0.0276  0.3588  0.4682
10442TIP3    H152741   1.034   6.372   0.850 -1.4156  2.1272 -0.9761
10442TIP3    H252742   1.053   6.402   0.703 -0.0911 -2.2671 -1.8347
10443TIP3   OH252743   5.856   1.884   4.315 -0.2278  0.4906  0.0566
10443TIP3    H152744   5.794   1.897   4.388 -0.1400 -2.8089  0.8663
10443TIP3    H252745   5.864   1.971   4.276 -3.0847  1.6798  1.7356
10444TIP3   OH252746   3.827   6.609   2.545  0.4074 -0.0813  0.1197
10444TIP3    H152747   3.787   6.535   2.499  1.5354 -0.2309 -0.6659
10444TIP3    H252748   3.921   6.589   2.544  0.7907  1.6070 -0.5793
10445TIP3   OH252749   5.782   6.031   6.391 -0.6030  0.1960  0.3127
10445TIP3    H152750   5.710   5.999   6.337  0.4112  0.4325 -1.2618
10445TIP3    H252751   5.796   5.964   6.457 -0.8455 -0.8933 -0.7186
10446TIP3   OH252752   4.513   3.038   1.224  0.1098 -0.0787 -0.3138
10446TIP3    H152753   4.446   3.106   1.213 -0.0194  0.3051  2.2402
10446TIP3    H252754   4.573   3.051   1.151 -2.5735 -0.4943 -2.7969
10447TIP3   OH252755   5.778   0.793   5.309 -0.3992  0.4023 -0.3503
10447TIP3    H152756   5.870   0.800   5.334 -0.2251 -1.2118 -0.4452
10447TIP3    H252757   5.734   0.762   5.388 -1.0252  1.9618 -0.0551
10448TIP3   OH252758   1.171   2.785   1.191  0.2153  0.1287  0.0073
10448TIP3    H152759   1.247   2.832   1.224  0.1702  0.5613 -0.5035
10448TIP3    H252760   1.144   2.833   1.113 -0.8729  0.2691  0.4451
10449TIP3   OH252761   0.830   4.451   1.839  0.2112  0.3050 -0.7351
10449TIP3    H152762   0.852   4.536   1.803  1.7164 -0.5258 -1.8856
10449TIP3    H252763   0.901   4.432   1.901  0.1678 -0.3227 -0.8686
10450TIP3   OH252764   3.016   4.444   5.868  0.3977  0.0347 -0.2625
10450TIP3    H152765   3.001   4.487   5.952 -0.6155 -0.9403  0.0936
10450TIP3    H252766   3.110   4.448   5.855  0.5462  0.3676  0.8361
10451TIP3   OH252767   1.521   3.039   5.490  0.2861  0.3435  0.0003
10451TIP3    H152768   1.442   3.057   5.439 -0.5013  0.2467  1.1446
10451TIP3    H252769   1.586   3.101   5.456 -0.9912  2.1036  0.6430
10452TIP3   OH252770   1.806   6.312   1.717  0.5538 -0.3240 -0.1635
10452TIP3    H152771   1.734   6.287   1.659  0.7145 -0.1806 -0.4264
10452TIP3    H252772   1.885   6.303   1.663  0.5163  2.0088 -0.7216
10453TIP3   OH252773   2.685   2.304   1.612  0.0379  0.6514  0.4685
10453TIP3    H152774   2.607   2.359   1.626  0.5169  1.6952 -0.7732
10453TIP3    H252775   2.753   2.366   1.586  0.4315 -0.6057 -1.6718
10454TIP3   OH252776   1.754   1.780   3.249  0.2666  0.4299 -0.2021
10454TIP3    H152777   1.777   1.868   3.277 -1.0950  0.0759  2.2721
10454TIP3    H252778   1.822   1.724   3.288  0.5122  0.2649 -0.8489
10455TIP3   OH252779   5.362   0.263  12.140 -0.9417  0.0190 -0.3793
10455TIP3    H152780   5.294   0.320  12.103 -0.5651  0.4459 -0.4131
10455TIP3    H252781   5.354   0.181  12.091  0.2939  0.9458 -2.2269
10456TIP3   OH252782   1.248   6.634   4.867 -0.2300  0.0016 -0.2342
10456TIP3    H152783   1.311   6.703   4.887 -0.9241  1.1589 -1.8207
10456TIP3    H252784   1.237   6.587   4.950  1.0688  1.1090  0.6164
10457TIP3   OH252785   5.712   2.270   1.899 -0.0564  0.9468  0.2452
10457TIP3    H152786   5.802   2.304   1.903 -0.0543  0.8609  1.0310
10457TIP3    H252787   5.661   2.334   1.948 -0.3588  0.7846  0.1385
10458TIP3   OH252788   2.301   5.536  16.282  0.2405  0.0727  0.1083
10458TIP3    H152789   2.364   5.589  16.330  1.3964  0.6349 -1.8988
10458TIP3    H252790   2.243   5.600  16.241 -0.1534 -0.3404  0.0094
10459TIP3   OH252791   2.391   5.858  11.918  0.5613  0.0526 -0.5069
10459TIP3    H152792   2.448   5.935  11.917  1.3425 -0.5195 -1.6035
10459TIP3    H252793   2.449   5.785  11.937  0.2555 -0.5525 -1.7413
10460TIP3   OH252794   0.127   6.078  12.381  0.0180 -0.2236  0.5620
10460TIP3    H152795   0.068   6.020  12.333  1.3126 -1.5707  0.5112
10460TIP3    H252796   0.136   6.036  12.467 -0.4092  0.8791  1.1670
10461TIP3   OH252797   1.261   3.158  15.406 -0.2340 -0.0965  0.3574
10461TIP3    H152798   1.171   3.187  15.391  0.4372  0.6906 -2.7751
10461TIP3    H252799   1.315   3.228  15.370  1.7271 -0.3363  2.5681
10462TIP3   OH252800   5.143   6.727   4.966  0.1620  0.6195  0.0538
10462TIP3    H152801   5.141   6.634   4.987 -0.4967  0.7326  0.4921
10462TIP3    H252802   5.235   6.752   4.977  0.4048 -0.0473 -0.3930
10463TIP3   OH252803   2.449   1.509   3.954  0.1048 -0.4113 -0.5329
10463TIP3    H152804   2.532   1.469   3.981 -0.3661 -0.7270  0.4975
10463TIP3    H252805   2.467   1.545   3.867  1.6981  0.6365  0.1829
10464TIP3   OH252806   1.697   4.350  13.847  0.5667  0.5202  0.0926
10464TIP3    H152807   1.641   4.401  13.790  1.8473  0.9075 -0.8658
10464TIP3    H252808   1.690   4.393  13.933  0.6929  1.5844 -0.4125
10465TIP3   OH252809   1.171   0.358   0.282 -0.2954 -0.3468  0.1720
10465TIP3    H152810   1.141   0.308   0.205  2.1986 -2.1085  0.2484
10465TIP3    H252811   1.116   0.437   0.281 -1.7107 -1.2336 -2.2573
10466TIP3   OH252812   0.174   2.757   1.925  0.0591 -0.0519 -0.1789
10466TIP3    H152813   0.257   2.802   1.939  0.3986 -1.1051  1.4738
10466TIP3    H252814   0.117   2.823   1.885  1.1018  1.2692  0.4281
10467TIP3   OH252815   4.497   1.391  15.035  0.1983 -0.0618  0.8764
10467TIP3    H152816   4.430   1.366  15.099 -0.1094  0.1706  0.6544
10467TIP3    H252817   4.500   1.318  14.973 -0.9503  0.5677  0.0293
10468TIP3   OH252818   4.749   3.251  15.427 -0.1587 -0.2095 -0.1328
10468TIP3    H152819   4.666   3.248  15.475  0.6485  1.0623  1.4494
10468TIP3    H252820   4.769   3.344  15.421  1.4262 -0.5262  0.0118
10469TIP3   OH252821   0.498   6.542   0.073 -0.0415 -0.4837 -0.1432
10469TIP3    H152822   0.461   6.517   0.157  0.5033  0.3274  0.3441
10469TIP3    H252823   0.422   6.548   0.014 -0.4767 -0.5755  0.4039
10470TIP3   OH252824   0.008   2.769  14.899 -0.6340 -0.3682  0.4408
10470TIP3    H152825  -0.011   2.719  14.979  2.0031 -0.4121  1.1319
10470TIP3    H252826   0.002   2.705  14.829 -1.6968 -0.6269  0.7583
10471TIP3   OH252827   3.852   5.849   0.214  0.1502  0.1311 -0.4972
10471TIP3    H152828   3.879   5.758   0.207 -1.1059 -0.2879 -0.2503
10471TIP3    H252829   3.885   5.891   0.135  0.9232 -0.4854 -0.5038
10472TIP3   OH252830   4.099   1.808   6.214 -0.8593  0.2018  0.3770
10472TIP3    H152831   4.094   1.891   6.261  1.7703  1.8149 -1.8937
10472TIP3    H252832   4.035   1.751   6.258 -2.2380  3.1478  2.4837
10473TIP3   OH252833   4.553   1.802  17.375  0.5941  0.1796  0.1905
10473TIP3    H152834   4.510   1.778  17.456  0.5620 -1.4494 -0.2692
10473TIP3    H252835   4.569   1.896  17.382 -0.9120  0.3754  1.3457
10474TIP3   OH252836   5.910   0.676   1.648 -0.0365  0.2380  0.0950
10474TIP3    H152837   5.937   0.621   1.574  1.7782  1.0487  0.1085
10474TIP3    H252838   5.850   0.740   1.609  0.0766  0.0121 -0.4663
10475TIP3   OH252839   6.717   0.707  12.745 -0.3004  0.0955  0.6909
10475TIP3    H152840   6.678   0.779  12.795  1.1294  0.6801  1.0205
10475TIP3    H252841   6.800   0.742  12.714 -1.8196  0.4023 -3.6528
10476TIP3   OH252842   4.687   6.025   5.466 -0.2230 -1.1593  0.3034
10476TIP3    H152843   4.670   5.981   5.383 -2.3355 -1.3790  0.7949
10476TIP3    H252844   4.742   6.100   5.443 -0.7204 -1.2469 -1.2765
10477TIP3   OH252845   0.734   2.180  10.398  0.3802 -0.3038  0.0898
10477TIP3    H152846   0.726   2.263  10.444  0.9720  0.9130 -1.8479
10477TIP3    H252847   0.718   2.113  10.464 -0.4856  1.3545  1.6335
10478TIP3   OH252848   5.171   4.574  12.720  0.1691  0.1194 -0.0849
10478TIP3    H152849   5.121   4.645  12.758 -0.7794 -0.8709  0.5824
10478TIP3    H252850   5.174   4.594  12.626 -2.1983 -0.1792 -0.2917
10479TIP3   OH252851   5.294   1.199  15.853 -0.0929  0.2912  0.0935
10479TIP3    H152852   5.225   1.266  15.846  0.1064  0.4421 -0.4308
10479TIP3    H252853   5.284   1.146  15.774  0.1103  0.0401  0.2350
10480TIP3   OH252854   4.076   0.272   0.812 -0.2089 -0.7032 -0.4914
10480TIP3    H152855   4.037   0.350   0.852  2.4264 -0.2771  1.5284
10480TIP3    H252856   4.136   0.306   0.746  0.3429 -1.0564 -0.1779
10481TIP3   OH252857   6.697   6.014  12.872 -0.3621 -0.1198 -0.1160
10481TIP3    H152858   6.614   6.061  12.866 -0.8187 -0.7438  1.0378
10481TIP3    H252859   6.748   6.064  12.935  0.9132  1.3264 -2.1667
10482TIP3   OH252860   2.278   4.506  16.655 -0.5162 -0.3795 -0.8766
10482TIP3    H152861   2.213   4.564  16.617 -0.7546  0.3650  0.6095
10482TIP3    H252862   2.267   4.423  16.607 -4.9445 -1.4622  1.4763
10483TIP3   OH252863   0.836   6.073   2.998  0.5565 -0.3498  0.8514
10483TIP3    H152864   0.755   6.082   3.047 -0.9022 -2.9664 -0.8226
10483TIP3    H252865   0.815   6.109   2.911  0.3364 -2.9692 -0.2851
10484TIP3   OH252866   4.835   5.994  16.252  0.3140  0.0574  0.5337
10484TIP3    H152867   4.921   6.034  16.251 -0.0416  0.8703 -0.9063
10484TIP3    H252868   4.795   6.021  16.169 -1.6210  0.3637  1.5073
10485TIP3   OH252869   5.285   5.662   2.776  0.0751 -0.3783 -0.1621
10485TIP3    H152870   5.247   5.576   2.759 -0.4977  0.1344 -1.5913
10485TIP3    H252871   5.228   5.723   2.729  0.6244  0.7622  0.6112
10486TIP3   OH252872   4.191   3.285  13.805 -0.0969  0.1906 -0.0735
10486TIP3    H152873   4.146   3.302  13.888  0.3402 -1.1459  0.4696
10486TIP3    H252874   4.122   3.255  13.746 -0.3928  1.0519 -0.1809
10487TIP3   OH252875   0.113   0.139   4.176  0.0015  0.1126 -0.4704
10487TIP3    H152876   0.044   0.152   4.240  0.6738 -0.2615  0.3528
10487TIP3    H252877   0.189   0.183   4.213  0.3105  0.1871 -1.1737
10488TIP3   OH252878   3.481   3.227  16.888  0.1168  0.2542 -0.0826
10488TIP3    H152879   3.573   3.250  16.903  0.4157 -1.3932  0.8360
10488TIP3    H252880   3.478   3.194  16.798  1.0570 -2.3892  0.7748
10489TIP3   OH252881   1.567   5.935   5.694  0.4562  0.4857 -0.3796
10489TIP3    H152882   1.591   5.967   5.781 -1.2079 -1.2041  0.7862
10489TIP3    H252883   1.633   5.869   5.673 -0.8769 -1.4988  1.1775
10490TIP3   OH252884   1.896   3.767  12.004  0.2414 -0.2861  0.7520
10490TIP3    H152885   1.980   3.771  12.051  0.0841  0.6750  0.9699
10490TIP3    H252886   1.837   3.722  12.065  0.7067 -1.4000  0.4065
10491TIP3   OH252887   4.709   4.618  13.397  0.2380  0.5888  0.2662
10491TIP3    H152888   4.681   4.535  13.358  0.6386  0.5122  0.1402
10491TIP3    H252889   4.744   4.669  13.324 -1.3958  1.4893  0.0543
10492TIP3   OH252890   5.447   2.844   2.227 -0.1932 -0.1981  0.1720
10492TIP3    H152891   5.358   2.808   2.222  0.4223 -1.7568 -0.2917
10492TIP3    H252892   5.482   2.808   2.309  0.7375 -1.4451 -0.7406
10493TIP3   OH252893   0.992   1.572  15.794  0.7049 -0.2092  0.0393
10493TIP3    H152894   0.968   1.480  15.808  2.2863 -0.6472  0.1022
10493TIP3    H252895   0.948   1.596  15.713 -0.4984 -0.7124  0.5193
10494TIP3   OH252896   5.693   0.370   1.892  0.0676 -0.2864 -0.2143
10494TIP3    H152897   5.697   0.292   1.948 -1.4056  0.1939  0.6343
10494TIP3    H252898   5.608   0.410   1.913  0.7023  1.4477 -0.7560
10495TIP3   OH252899   6.272   6.051   0.822 -0.0252 -0.1633  0.2529
10495TIP3    H152900   6.351   6.055   0.768 -0.2785  0.5417 -0.0744
10495TIP3    H252901   6.301   6.010   0.903  0.3166 -1.4805 -0.5026
10496TIP3   OH252902   1.905   3.429   3.435  0.2113  0.4404 -0.5387
10496TIP3    H152903   1.878   3.346   3.396 -0.9466  0.9373 -0.8560
10496TIP3    H252904   1.992   3.445   3.399  0.2891 -0.4458 -0.7739
10497TIP3   OH252905   1.839   0.474   6.245  0.8301  0.1648  0.3787
10497TIP3    H152906   1.890   0.423   6.183 -0.0969  1.3597 -1.5015
10497TIP3    H252907   1.786   0.410   6.293  2.3291 -0.8684  0.6863
10498TIP3   OH252908   1.988   3.057   0.563 -0.0433  0.0306 -0.0267
10498TIP3    H152909   2.060   3.007   0.600 -0.1135 -0.3217 -0.3607
10498TIP3    H252910   2.018   3.147   0.564  0.2619 -0.0718  0.1640
10499TIP3   OH252911   3.100   3.047  12.303 -0.3982 -0.6368 -0.1468
10499TIP3    H152912   3.061   2.977  12.356 -1.7599  0.5617  0.4888
10499TIP3    H252913   3.068   3.030  12.214 -0.9245 -0.6794  0.0468
10500TIP3   OH252914   0.454   1.622  11.530  0.0797  0.1239  0.3493
10500TIP3    H152915   0.373   1.633  11.479 -0.2675 -1.0584  0.6240
10500TIP3    H252916   0.426   1.582  11.612  0.8580  0.4187  0.7715
10501TIP3   OH252917   6.719   2.079   4.026  0.5070 -0.0903 -0.1249
10501TIP3    H152918   6.755   2.013   4.085  0.8944  0.5809  0.4155
10501TIP3    H252919   6.696   2.032   3.946  1.7084 -0.6944 -0.1231
10502TIP3   OH252920   0.783   0.752   2.412 -0.0344 -0.4860 -0.4470
10502TIP3    H152921   0.716   0.789   2.354 -1.1729 -1.3934  0.2293
10502TIP3    H252922   0.754   0.662   2.427  0.5696 -0.4645  1.0346
10503TIP3   OH252923   5.103   3.146  13.954  0.5610  0.0369 -0.1065
10503TIP3    H152924   5.084   3.054  13.935 -0.4637 -0.0389  1.1399
10503TIP3    H252925   5.073   3.194  13.877 -0.7023 -0.5109  0.0168
10504TIP3   OH252926   0.356   1.194   3.093  0.0293  0.2806 -0.2700
10504TIP3    H152927   0.308   1.271   3.125  0.0197  0.9447 -1.7490
10504TIP3    H252928   0.340   1.195   2.998  0.1000 -1.5170 -0.3336
10505TIP3   OH252929   1.954   3.653   4.246 -0.7212  0.0802  0.2882
10505TIP3    H152930   1.878   3.596   4.235  0.0442 -1.0741  0.8321
10505TIP3    H252931   1.988   3.631   4.333 -0.2909  1.2369  0.4295
10506TIP3   OH252932   5.194   5.166  11.951 -0.5301  0.3387  0.0172
10506TIP3    H152933   5.183   5.088  11.897  1.0126  1.2547 -1.7377
10506TIP3    H252934   5.170   5.238  11.893 -2.0850  1.2309  1.6446
10507TIP3   OH252935   0.678   6.116   1.351  0.0812 -0.8188 -0.6033
10507TIP3    H152936   0.774   6.113   1.352  0.0798 -0.8387 -0.4908
10507TIP3    H252937   0.652   6.072   1.431  0.0374  1.1652  0.5413
10508TIP3   OH252938   6.631   0.900   1.381  0.2396  0.2885  0.6197
10508TIP3    H152939   6.627   0.951   1.462  1.3618  2.5426 -0.6374
10508TIP3    H252940   6.691   0.949   1.325 -0.9090 -0.8855 -1.7908
10509TIP3   OH252941   1.339   0.723  12.584 -0.3510  0.3925  1.0778
10509TIP3    H152942   1.255   0.739  12.627 -0.0988  0.3386  1.5880
10509TIP3    H252943   1.350   0.797  12.525 -0.8133  0.3382  0.9158
10510TIP3   OH252944   4.865   2.846   1.764  0.3302 -0.5344 -0.2102
10510TIP3    H152945   4.777   2.813   1.742  0.8962 -2.5910  0.3518
10510TIP3    H252946   4.903   2.870   1.680  0.1184 -2.0776 -0.7795
10511TIP3   OH252947   0.574   1.254   5.990  0.3200  0.3446 -0.1714
10511TIP3    H152948   0.496   1.199   5.997  0.5602  0.0558  0.2457
10511TIP3    H252949   0.574   1.306   6.070  0.2145  0.7921 -0.4631
10512TIP3   OH252950   2.596   4.329   0.588 -0.8194  0.1739 -0.4502
10512TIP3    H152951   2.543   4.253   0.562 -1.1949 -0.2799  1.5109
10512TIP3    H252952   2.533   4.401   0.594 -0.7301  0.2829 -0.8103
10513TIP3   OH252953   4.047   5.946   1.742  0.3543  0.5067  0.6320
10513TIP3    H152954   4.002   5.872   1.701  1.7575 -0.2960  0.4614
10513TIP3    H252955   4.035   6.019   1.681 -1.2070  0.4951  0.8894
10514TIP3   OH252956   4.729   1.965   3.666 -0.4533  0.4507  0.1313
10514TIP3    H152957   4.670   2.040   3.660  0.3484  1.0079 -1.5107
10514TIP3    H252958   4.800   1.985   3.604 -0.6548 -2.0247 -1.0315
10515TIP3   OH252959   4.822   5.455  16.183  0.6309  0.4912 -0.8893
10515TIP3    H152960   4.824   5.538  16.135  1.6090 -0.3782 -2.4212
10515TIP3    H252961   4.840   5.480  16.273 -0.7459  2.1300 -1.0066
10516TIP3   OH252962   3.076   2.799   2.072 -0.4598 -0.0987  0.2421
10516TIP3    H152963   3.023   2.832   2.145 -1.8246  2.3664 -1.7249
10516TIP3    H252964   3.066   2.703   2.077 -0.8388  0.0134  2.9805
10517TIP3   OH252965   6.763   1.639  12.150  0.0474 -0.5023  0.4385
10517TIP3    H152966   6.760   1.664  12.242 -0.0988 -2.8908  1.1432
10517TIP3    H252967   6.846   1.676  12.118 -1.2343  2.8775  0.6392
10518TIP3   OH252968   3.502   1.133   3.268  0.5439  0.2074  0.2218
10518TIP3    H152969   3.471   1.060   3.321 -0.5853 -0.1767 -0.9257
10518TIP3    H252970   3.463   1.210   3.310  2.4229  0.2910  1.9378
10519TIP3   OH252971   2.821   2.318  16.060  0.0035 -0.1779  0.3448
10519TIP3    H152972   2.802   2.240  16.008  0.2790 -0.1823  0.2452
10519TIP3    H252973   2.786   2.390  16.008 -1.2096 -0.3179  0.9356
10520TIP3   OH252974   2.168   3.034  14.847 -0.1022 -0.2151 -0.3445
10520TIP3    H152975   2.210   3.111  14.809 -0.4492  0.7818  1.1794
10520TIP3    H252976   2.126   2.990  14.773 -0.4600  1.4343 -1.1601
10521TIP3   OH252977   3.553   3.997  11.500  0.3196 -0.0195 -0.3588
10521TIP3    H152978   3.523   3.938  11.570  1.0505  0.5524  0.4655
10521TIP3    H252979   3.473   4.035  11.464 -0.1042 -0.7738 -0.2380
10522TIP3   OH252980   2.766   1.025  14.071  0.1947  0.1037 -0.4030
10522TIP3    H152981   2.733   0.968  14.002  0.4795  2.0712 -2.2542
10522TIP3    H252982   2.858   1.037  14.051  0.2973  0.6825  0.3513
10523TIP3   OH252983   2.488   2.819   5.034 -0.6233  0.5920  0.5394
10523TIP3    H152984   2.583   2.809   5.035 -0.5306  1.4676  1.8233
10523TIP3    H252985   2.470   2.895   5.088 -2.0022  1.1485 -0.6081
10524TIP3   OH252986   0.939   3.298  11.935  0.4331 -0.3547  0.3963
10524TIP3    H152987   0.996   3.256  12.000 -0.1469 -0.5367  0.7973
10524TIP3    H252988   0.856   3.252  11.942 -0.4476  1.2626  1.3343
10525TIP3   OH252989   5.281   6.075   5.726  0.2857 -0.4703 -0.0433
10525TIP3    H152990   5.243   6.133   5.661  1.4568  0.6445  0.2250
10525TIP3    H252991   5.323   6.134   5.789  2.2946 -1.6190 -0.2384
10526TIP3   OH252992   6.570   5.275  12.574  0.0002 -0.1841 -0.2546
10526TIP3    H152993   6.519   5.319  12.507 -0.9442 -0.4154  0.2916
10526TIP3    H252994   6.619   5.344  12.617  0.0898  0.0538 -0.7395
10527TIP3   OH252995   3.263   4.551   2.365  0.4214 -0.1814  0.2110
10527TIP3    H152996   3.332   4.484   2.372  0.0544 -0.4252  1.9602
10527TIP3    H252997   3.190   4.515   2.416 -1.0162  0.0980 -1.5682
10528TIP3   OH252998   5.782   5.275   1.168  0.6267  0.1581  0.1629
10528TIP3    H152999   5.833   5.299   1.245 -1.8699  0.8937  1.7308
10528TIP3    H253000   5.807   5.338   1.101  0.5576  1.5921  1.4338
10529TIP3   OH253001   3.621   0.664  11.101  0.3565  0.0589  0.0747
10529TIP3    H153002   3.627   0.629  11.013  1.3839  1.1587 -0.3238
10529TIP3    H253003   3.528   0.687  11.112  0.1907 -0.2568 -0.6351
10530TIP3   OH253004   3.401   5.356  11.654  0.3321  0.6823 -0.2937
10530TIP3    H153005   3.448   5.419  11.709  0.7812  0.6085 -0.5797
10530TIP3    H253006   3.374   5.408  11.578 -0.0945  0.7355 -0.1055
10531TIP3   OH253007   4.390   0.890   1.851  0.4247  0.5048 -0.2038
10531TIP3    H153008   4.345   0.952   1.794  1.6262 -0.7271 -2.6648
10531TIP3    H253009   4.481   0.918   1.851  0.4024  0.6613  1.4324
10532TIP3   OH253010   3.108   1.926  12.051 -0.1606  0.4524 -0.6290
10532TIP3    H153011   3.065   1.852  12.007 -0.5893  0.5946 -0.4604
10532TIP3    H253012   3.110   1.901  12.143 -0.3861  0.6832 -0.5595
10533TIP3   OH253013   5.586   1.436  13.979 -0.2631 -0.1732  0.3122
10533TIP3    H153014   5.602   1.380  13.903 -1.3309 -0.3177  0.1740
10533TIP3    H253015   5.521   1.387  14.031 -1.3529  1.0010  0.1046
10534TIP3   OH253016   0.141   6.542  11.796 -0.2929 -0.0525 -0.6296
10534TIP3    H153017   0.206   6.482  11.758  0.7121  1.6689 -1.7774
10534TIP3    H253018   0.080   6.485  11.843  0.6115 -1.9554 -1.6532
10535TIP3   OH253019   0.346   1.226  10.935 -0.4883  0.2051  0.5835
10535TIP3    H153020   0.378   1.177  10.860  0.6410 -0.2621  1.3387
10535TIP3    H253021   0.253   1.201  10.942 -1.2751  2.0197 -1.9651
10536TIP3   OH253022   1.659   0.067  11.952  0.0886 -0.1436  0.2495
10536TIP3    H153023   1.579   0.015  11.957 -0.3816  0.6446  1.0670
10536TIP3    H253024   1.688   0.077  12.042  1.2052 -0.5330 -0.0411
10537TIP3   OH253025   2.309   0.058   0.071 -0.3123 -0.1392  0.5896
10537TIP3    H153026   2.340  -0.020   0.026  0.0874 -0.3528  1.2204
10537TIP3    H253027   2.247   0.026   0.136 -1.1409  0.1977 -0.0173
10538TIP3   OH253028   0.779   6.297   5.219 -0.3528 -0.5888 -0.1532
10538TIP3    H153029   0.873   6.314   5.222 -0.7688  2.0473  0.7421
10538TIP3    H253030   0.770   6.210   5.257  1.6820 -0.6007  0.4582
10539TIP3   OH253031   5.459   1.621   2.841 -0.0716 -0.1707 -0.1663
10539TIP3    H153032   5.390   1.572   2.796  0.3676 -0.8428 -0.1246
10539TIP3    H253033   5.439   1.713   2.822 -1.2803 -0.3227  0.2929
10540TIP3   OH253034   2.374   1.534  16.082  0.5188  0.4775  0.5529
10540TIP3    H153035   2.391   1.506  15.992  1.9692  1.9889  0.3016
10540TIP3    H253036   2.428   1.476  16.135 -0.6060 -0.6464  0.5037
10541TIP3   OH253037   2.501   4.069   0.589 -0.0856 -0.6390 -0.3342
10541TIP3    H153038   2.490   4.053   0.496 -1.5447 -1.7750  0.0060
10541TIP3    H253039   2.459   3.994   0.632 -1.8112  1.1310  1.2626
10542TIP3   OH253040   5.345   3.674  14.433  0.1848 -0.1278 -0.0507
10542TIP3    H153041   5.336   3.583  14.407  2.3977 -0.5198  0.3429
10542TIP3    H253042   5.375   3.671  14.524 -1.9447  1.0851  0.7721
10543TIP3   OH253043   2.344   2.367   2.626  0.4637 -0.0334  0.1194
10543TIP3    H153044   2.369   2.329   2.709  2.0683  1.0475  0.1755
10543TIP3    H253045   2.314   2.455   2.648 -1.6329 -0.6245 -0.1815
10544TIP3   OH253046   0.513   1.131  12.678  0.4573  0.3189  0.8262
10544TIP3    H153047   0.547   1.195  12.615 -1.6701  1.3483  0.6343
10544TIP3    H253048   0.486   1.183  12.753 -1.7223 -0.2353  0.4936
10545TIP3   OH253049   1.366   0.982   2.290 -0.5127 -0.1274 -0.0008
10545TIP3    H153050   1.444   0.959   2.238 -0.5301 -1.8557  0.6854
10545TIP3    H253051   1.297   0.996   2.225  0.4770  2.1379 -0.6724
10546TIP3   OH253052   0.118   2.789   5.042 -0.9498  0.0456  0.0021
10546TIP3    H153053   0.155   2.701   5.035 -1.0177  0.1388 -2.5550
10546TIP3    H253054   0.136   2.829   4.957 -3.8145  1.3206 -0.1337
10547TIP3   OH253055   1.307   4.896  16.953 -0.0887  0.4631 -0.3349
10547TIP3    H153056   1.380   4.908  16.892  0.1310 -2.0399 -0.6726
10547TIP3    H253057   1.299   4.980  16.999  0.6260  1.9841 -2.8213
10548TIP3   OH253058   5.514   2.088   2.369 -0.0278  0.3679 -0.0169
10548TIP3    H153059   5.575   2.129   2.307 -0.9806 -1.6414 -2.4974
10548TIP3    H253060   5.539   1.996   2.368 -1.0904  0.0397  1.4234
10549TIP3   OH253061   3.777   5.814  16.672  0.0735  0.5752 -0.3941
10549TIP3    H153062   3.744   5.848  16.756  0.6305 -0.0816  0.1090
10549TIP3    H253063   3.828   5.736  16.697  1.2312  1.0455 -1.2295
10550TIP3   OH253064   0.674   5.592   0.848 -0.0861 -0.0408 -0.3724
10550TIP3    H153065   0.655   5.498   0.859 -2.4239  0.4737  0.6819
10550TIP3    H253066   0.589   5.631   0.829  0.9948  1.7868 -1.7120
10551TIP3   OH253067   5.696   4.350  16.665 -0.3164 -0.0933  0.3617
10551TIP3    H153068   5.766   4.285  16.671 -1.0843 -0.9756 -0.0631
10551TIP3    H253069   5.693   4.374  16.573  0.9299  1.6688  0.7238
10552TIP3   OH253070   2.956   3.980  15.919  0.0482  0.4235  0.0279
10552TIP3    H153071   3.016   4.030  15.974 -0.1838 -0.2802  0.9345
10552TIP3    H253072   3.004   3.966  15.838  1.2184 -0.3671  0.8465
10553TIP3   OH253073   0.244   4.199   2.534 -0.1233  0.1326 -0.2244
10553TIP3    H153074   0.328   4.167   2.499 -0.7984 -0.3824 -1.4556
10553TIP3    H253075   0.219   4.270   2.474 -0.0686  0.9971  0.7594
10554TIP3   OH253076   6.346   0.883   4.532  0.3882 -0.3061  0.5333
10554TIP3    H153077   6.390   0.823   4.592  0.3312 -2.0367 -1.0603
10554TIP3    H253078   6.254   0.859   4.537  0.7010 -2.6337 -2.3915
10555TIP3   OH253079   3.832   4.388  11.659 -0.1250  0.0254 -0.3109
10555TIP3    H153080   3.771   4.461  11.661  0.3443  0.4091  0.6291
10555TIP3    H253081   3.776   4.310  11.661 -0.5949  0.3661  0.9792
10556TIP3   OH253082   2.844   1.345  14.040 -0.2435 -0.2422  0.3377
10556TIP3    H153083   2.776   1.383  14.095 -0.8057 -0.7679  0.0159
10556TIP3    H253084   2.924   1.352  14.092 -0.4141  0.9773  0.4527
10557TIP3   OH253085   1.808   5.974  14.345  0.1034 -0.1502  0.2572
10557TIP3    H153086   1.712   5.972  14.351  0.1106  0.2700  0.5755
10557TIP3    H253087   1.827   5.942  14.257 -0.2293 -2.0108  0.8368
10558TIP3   OH253088   2.720   2.096   1.821  0.0713  0.4478 -0.2128
10558TIP3    H153089   2.815   2.105   1.811 -0.0032  1.0946 -0.4113
10558TIP3    H253090   2.689   2.186   1.833 -0.2141  0.0795  2.5679
10559TIP3   OH253091   3.020   2.012   4.350  0.2961 -0.3589  0.0621
10559TIP3    H153092   3.024   1.991   4.257  0.2003  0.4182 -0.1263
10559TIP3    H253093   3.055   1.935   4.394  1.1540 -0.3942 -0.6601
10560TIP3   OH253094   6.598   2.481   4.991  0.4603  0.0745  0.0219
10560TIP3    H153095   6.582   2.387   4.995  1.7604 -0.2639 -1.6584
10560TIP3    H253096   6.644   2.502   5.072 -2.5780 -0.0662  1.9525
10561TIP3   OH253097   6.187   5.898  12.531  1.0241  1.0124  0.7353
10561TIP3    H153098   6.093   5.911  12.518  0.6758 -0.1362  1.8705
10561TIP3    H253099   6.218   5.982  12.566  0.0339  0.8249  2.1475
10562TIP3   OH253100   3.646   5.075  15.393  0.1170 -0.3322 -0.3553
10562TIP3    H153101   3.579   5.059  15.459 -0.5779  2.2227 -0.3536
10562TIP3    H253102   3.604   5.050  15.310 -0.7985  0.9770 -0.3195
10563TIP3   OH253103   4.497   5.933   0.521 -0.6490 -0.6147 -0.1684
10563TIP3    H153104   4.589   5.908   0.510 -1.0829 -1.9376 -1.1312
10563TIP3    H253105   4.478   5.916   0.613 -0.6138 -2.9809 -0.5215
10564TIP3   OH253106   6.094   1.628   3.466 -0.3387 -0.1862  0.3273
10564TIP3    H153107   6.184   1.651   3.446 -0.3036 -0.7159 -0.1504
10564TIP3    H253108   6.055   1.607   3.381 -0.6004 -1.0316  0.6405
10565TIP3   OH253109   6.535   0.113  13.568  0.1627  0.3685 -0.6163
10565TIP3    H153110   6.573   0.033  13.532  1.1035  1.0536 -1.2075
10565TIP3    H253111   6.607   0.177  13.564 -0.6258  1.2890 -0.3361
10566TIP3   OH253112   4.848   0.558  12.538 -0.2322  0.3455 -0.1626
10566TIP3    H153113   4.820   0.640  12.577 -1.1213  0.1622 -0.3921
10566TIP3    H253114   4.917   0.525  12.596 -0.6011  0.7359  0.4993
10567TIP3   OH253115   5.032   4.667  14.900 -0.0768  0.4881  0.7072
10567TIP3    H153116   4.980   4.629  14.829 -1.0863  1.4751  0.8946
10567TIP3    H253117   5.123   4.651  14.874 -0.4386  0.1121 -0.4039
10568TIP3   OH253118   0.430   5.059  12.540  0.5823 -0.2653 -0.3384
10568TIP3    H153119   0.436   4.964  12.544  0.2656 -0.5337 -3.6443
10568TIP3    H253120   0.338   5.077  12.518  1.0650  0.6293 -1.7897
10569TIP3   OH253121   3.701   4.356   5.849 -0.0970  0.1759 -0.4544
10569TIP3    H153122   3.629   4.296   5.830 -0.0020 -0.1157  0.0915
10569TIP3    H253123   3.780   4.304   5.832 -0.0071  0.5228 -1.1465
10570TIP3   OH253124   2.875   3.888  15.239 -0.6178  0.3504 -0.3570
10570TIP3    H153125   2.831   3.946  15.177  1.4226  1.2747 -0.9951
10570TIP3    H253126   2.846   3.920  15.325 -0.4255  1.5770 -0.7309
10571TIP3   OH253127   5.773   2.707  12.458  0.4043  0.0850  0.1687
10571TIP3    H153128   5.793   2.697  12.365  0.7892 -0.5734  0.3133
10571TIP3    H253129   5.809   2.628  12.499 -0.8408 -0.2237  0.7095
10572TIP3   OH253130   6.749   3.118  17.336 -0.1259  0.4701 -0.0211
10572TIP3    H153131   6.824   3.138  17.280  0.5623 -0.3420  0.5845
10572TIP3    H253132   6.679   3.172  17.302  1.2505  2.8012  0.6391
10573TIP3   OH253133   5.345   0.407   3.061 -0.3994 -0.5512 -0.5981
10573TIP3    H153134   5.262   0.359   3.069 -0.1566 -0.9059 -0.1657
10573TIP3    H253135   5.344   0.469   3.133 -0.3773 -0.4180 -0.7122
10574TIP3   OH253136   0.767   2.790   3.326  0.2720  0.1304 -0.6342
10574TIP3    H153137   0.776   2.728   3.254  0.6678  0.0318 -0.5041
10574TIP3    H253138   0.832   2.761   3.391  1.0933  1.1779 -0.9493
10575TIP3   OH253139   3.356   3.100  13.761  0.1013  0.5126  0.6969
10575TIP3    H153140   3.333   3.015  13.725 -0.5797  0.5998  0.9006
10575TIP3    H253141   3.276   3.152  13.751  1.3813  2.1500 -2.2997
10576TIP3   OH253142   2.489   4.035   3.052  0.0240 -0.3666  0.3642
10576TIP3    H153143   2.394   4.043   3.048  0.1563  2.1156  0.9294
10576TIP3    H253144   2.504   3.956   3.104 -1.6937 -1.0372 -0.0771
10577TIP3   OH253145   2.755   4.831  15.299 -0.6939  0.0252  0.5602
10577TIP3    H153146   2.817   4.902  15.314 -0.8211  0.0503  0.9798
10577TIP3    H253147   2.746   4.826  15.204 -2.0707  1.7871  0.5540
10578TIP3   OH253148   4.410   6.657   3.186 -0.2179  0.3166 -0.1154
10578TIP3    H153149   4.478   6.641   3.120  2.0936  2.3558  1.6141
10578TIP3    H253150   4.367   6.738   3.157 -0.0806  0.5016  0.1949
10579TIP3   OH253151   3.996   6.627  11.307  0.3187 -0.6440  0.4210
10579TIP3    H153152   4.025   6.672  11.386 -0.1041  0.5541 -0.0968
10579TIP3    H253153   3.901   6.625  11.313 -0.0447  2.7439 -1.7177
10580TIP3   OH253154   2.233   1.138  11.405  0.1013  0.6804  0.1991
10580TIP3    H153155   2.290   1.116  11.479 -1.6306 -2.2652  0.8021
10580TIP3    H253156   2.191   1.220  11.432 -1.0526 -0.6815  2.9536
10581TIP3   OH253157   1.677   6.618  14.242 -0.2250 -0.5559  0.3989
10581TIP3    H153158   1.646   6.552  14.304  0.5295 -0.8841  0.4313
10581TIP3    H253159   1.700   6.569  14.163  1.4289 -0.5071  0.8143
10582TIP3   OH253160   2.328   5.679   2.564 -0.6012  0.4609  0.8468
10582TIP3    H153161   2.346   5.744   2.496 -0.0352  1.0154  1.5206
10582TIP3    H253162   2.372   5.600   2.533 -0.7987  0.5587  0.3099
10583TIP3   OH253163   5.422   0.093   2.372  0.1409  0.2748 -0.1151
10583TIP3    H153164   5.401   0.161   2.436 -0.1225  0.2424 -0.1654
10583TIP3    H253165   5.421   0.011   2.422 -0.2263  0.2308 -0.1897
10584TIP3   OH253166   4.828   6.555  15.733 -0.0741  0.0168 -0.2887
10584TIP3    H153167   4.868   6.470  15.717  1.0096  0.8936 -2.6102
10584TIP3    H253168   4.734   6.537  15.734  0.0905 -1.1104 -1.6540
10585TIP3   OH253169   1.577   3.561   1.370 -0.6522  0.2672 -0.3687
10585TIP3    H153170   1.504   3.502   1.388 -2.6648  2.2641 -1.5410
10585TIP3    H253171   1.607   3.590   1.456 -1.7728  0.0193  0.1141
10586TIP3   OH253172   2.641   4.057  11.966 -0.3653 -0.0165  0.0691
10586TIP3    H153173   2.612   4.005  11.891 -0.9612  0.0918  0.2213
10586TIP3    H253174   2.702   3.999  12.012 -0.7981 -0.4775  0.0777
10587TIP3   OH253175   0.147   1.168  12.868  0.1783 -0.7819 -0.6302
10587TIP3    H153176   0.075   1.230  12.881  0.8485 -0.3314  1.2400
10587TIP3    H253177   0.164   1.171  12.774 -0.3868  1.2390 -0.7246
10588TIP3   OH253178   5.380   0.291  13.734  0.5707 -0.2159 -0.4396
10588TIP3    H153179   5.334   0.298  13.650  1.1190  0.0202 -0.7245
10588TIP3    H253180   5.427   0.374  13.742  1.3596 -0.6620 -0.3935
10589TIP3   OH253181   2.572   1.633  13.910  0.2546 -0.1523 -0.0890
10589TIP3    H153182   2.577   1.712  13.963 -0.0103 -0.3886  0.2911
10589TIP3    H253183   2.579   1.561  13.973  0.0478 -0.4329 -0.3814
10590TIP3   OH253184   5.957   0.652   5.016 -0.1537  0.0103 -0.4253
10590TIP3    H153185   5.919   0.565   5.021 -0.7506  0.2852 -0.0117
10590TIP3    H253186   5.888   0.706   4.976 -0.5261  0.6868  1.0639
10591TIP3   OH253187   2.043   1.353  15.130  0.0807 -0.6433  0.2381
10591TIP3    H153188   1.987   1.315  15.198  1.0042 -2.5847 -0.0305
10591TIP3    H253189   2.026   1.300  15.052  1.9721 -1.0256  0.0435
10592TIP3   OH253190   1.634   2.818  11.762 -0.3613 -0.8535  0.2782
10592TIP3    H153191   1.670   2.899  11.797 -0.4421  0.7136 -2.9047
10592TIP3    H253192   1.705   2.754  11.772  0.5498  0.1986  0.7573
10593TIP3   OH253193   5.837   2.699  15.094  0.2399 -0.1920  0.0343
10593TIP3    H153194   5.876   2.638  15.156  1.0886 -0.3570 -0.6388
10593TIP3    H253195   5.816   2.645  15.018 -0.3550  0.0938 -0.0084
10594TIP3   OH253196   4.685   4.352   4.203 -0.3353 -0.5318 -0.2868
10594TIP3    H153197   4.680   4.393   4.116 -1.3571  0.8200  0.3665
10594TIP3    H253198   4.777   4.325   4.210  0.6099  2.1772 -0.6058
10595TIP3   OH253199   6.045   2.922   2.700  0.1070  0.6384  0.0947
10595TIP3    H153200   6.118   2.861   2.710 -1.1420 -0.8403  0.4780
10595TIP3    H253201   6.054   2.955   2.610  1.3308  0.6386  0.1941
10596TIP3   OH253202   5.415   4.285  10.983  0.0581 -0.4824  0.0934
10596TIP3    H153203   5.350   4.220  10.959 -0.2097 -0.3061  0.3290
10596TIP3    H253204   5.401   4.356  10.920 -0.0076 -0.4276  0.1687
10597TIP3   OH253205   4.578   6.758   0.382 -0.3028 -0.1595  0.4694
10597TIP3    H153206   4.586   6.748   0.477 -0.2042  0.4136  0.5242
10597TIP3    H253207   4.604   6.849   0.365  0.5613 -0.5174 -0.2022
10598TIP3   OH253208   2.612   4.816   0.503 -0.1852 -0.5000 -0.5332
10598TIP3    H153209   2.641   4.727   0.519 -1.4010 -0.8917 -0.4257
10598TIP3    H253210   2.681   4.854   0.447 -0.3007 -1.9198 -1.7006
10599TIP3   OH253211   3.025   4.965   2.808 -0.5615 -0.0548  1.3830
10599TIP3    H153212   2.977   5.045   2.829 -0.1567  0.1679  1.4683
10599TIP3    H253213   3.068   4.940   2.890  0.4567  0.4307  1.0214
10600TIP3   OH253214   1.217   4.655  12.135  0.0610 -0.2571 -0.6735
10600TIP3    H153215   1.183   4.728  12.083 -0.2002 -1.2526 -1.9707
10600TIP3    H253216   1.171   4.662  12.219  2.1807  2.7570  0.4118
10601TIP3   OH253217   4.679   0.117  12.880  0.4434  0.0852  0.5653
10601TIP3    H153218   4.688   0.051  12.949  0.2308 -0.2490  0.2728
10601TIP3    H253219   4.713   0.074  12.801 -1.0720 -0.2055  0.0463
10602TIP3   OH253220   4.286   0.227   4.117  0.1526  0.3926 -0.1413
10602TIP3    H153221   4.292   0.145   4.069 -1.9316  0.1333 -0.0468
10602TIP3    H253222   4.226   0.281   4.065  0.9478  1.5917  0.1564
10603TIP3   OH253223   5.767   2.207  11.795 -0.4779 -0.0268 -0.4009
10603TIP3    H153224   5.707   2.200  11.869  0.2857 -1.5107  0.1081
10603TIP3    H253225   5.716   2.181  11.719 -0.9076  0.2429 -0.2054
10604TIP3   OH253226   0.625   2.618   5.451 -0.0596  0.5568  0.5972
10604TIP3    H153227   0.677   2.548   5.411  0.0402  1.6325 -1.2866
10604TIP3    H253228   0.566   2.573   5.511  1.0901 -0.9678  0.6327
10605TIP3   OH253229   4.603   0.277   6.858 -0.0774  0.3233  0.3240
10605TIP3    H153230   4.585   0.307   6.769  3.3592 -0.5043 -0.7917
10605TIP3    H253231   4.663   0.342   6.894 -1.2665  0.5484  2.0347
10606TIP3   OH253232   5.789   1.330   3.630 -0.4744 -0.8560 -0.4721
10606TIP3    H153233   5.778   1.239   3.600 -2.5911 -0.0593 -2.3551
10606TIP3    H253234   5.880   1.350   3.610  0.2080 -2.6996  0.4864
10607TIP3   OH253235   2.058   2.612  13.473  0.7428  0.1850  0.0351
10607TIP3    H153236   2.030   2.546  13.409 -1.1825  0.5433  0.4412
10607TIP3    H253237   2.146   2.585  13.498  1.3661 -0.2843 -2.3490
10608TIP3   OH253238   0.781   4.772  11.987  0.1822  0.4437  0.3213
10608TIP3    H153239   0.789   4.694  11.932  0.0103  0.1311  0.7359
10608TIP3    H253240   0.714   4.749  12.052 -0.5675  1.2724 -0.1288
10609TIP3   OH253241   4.001   6.431   4.290 -0.0409  0.1119  0.7446
10609TIP3    H153242   4.086   6.387   4.296 -0.6494 -1.2554 -0.1330
10609TIP3    H253243   4.010   6.508   4.347  2.0877  0.5508 -0.0868
10610TIP3   OH253244   5.230   1.907  10.612 -0.2984  0.2378 -0.0969
10610TIP3    H153245   5.285   1.858  10.674  1.1441  1.0534 -0.6902
10610TIP3    H253246   5.210   1.989  10.658 -0.3008  0.3029 -0.2140
10611TIP3   OH253247   2.147   4.911   5.232 -0.4833 -0.3101  0.3239
10611TIP3    H153248   2.181   4.949   5.152 -0.4605  0.6597  0.7761
10611TIP3    H253249   2.143   4.817   5.215  0.7681 -0.2601 -0.3463
10612TIP3   OH253250   4.978   0.780   4.221  0.0811  0.0240 -0.1505
10612TIP3    H153251   4.944   0.712   4.163 -0.9824 -0.7236  1.2814
10612TIP3    H253252   4.950   0.862   4.180  1.3143 -0.3529 -1.8601
10613TIP3   OH253253   2.901   3.821  13.561  0.1727 -0.6804 -0.0768
10613TIP3    H153254   2.830   3.799  13.622 -0.4378 -0.1187 -0.5635
10613TIP3    H253255   2.938   3.901  13.597  0.4139 -0.8467  0.0476
10614TIP3   OH253256   5.883   6.504  16.571 -0.8439 -0.0128 -0.1755
10614TIP3    H153257   5.852   6.573  16.629  1.3763  1.8813 -1.0664
10614TIP3    H253258   5.844   6.424  16.605 -3.1550  1.5901  1.1988
10615TIP3   OH253259   0.609   4.924   2.426  0.0195  0.6770  0.3486
10615TIP3    H153260   0.614   4.828   2.422 -2.3785  0.4964 -0.1878
10615TIP3    H253261   0.669   4.949   2.496  1.3474 -1.1292 -0.0715
10616TIP3   OH253262   2.619   5.057  17.206 -0.4310 -0.1161  0.7653
10616TIP3    H153263   2.567   5.096  17.136 -1.9048  0.0734  1.9214
10616TIP3    H253264   2.623   4.963  17.184 -0.1149  0.0754 -0.0209
10617TIP3   OH253265   4.676   4.506   4.777  0.8816 -0.6354 -0.1149
10617TIP3    H153266   4.658   4.421   4.816 -1.1294 -0.1849  0.0491
10617TIP3    H253267   4.591   4.551   4.776  1.2119  0.1306 -3.2025
10618TIP3   OH253268   5.612   3.870   1.794 -0.0523  0.3371 -0.4025
10618TIP3    H153269   5.672   3.899   1.863  0.6135  0.1098 -0.8879
10618TIP3    H253270   5.526   3.869   1.837  0.4838 -0.6794  0.6895
10619TIP3   OH253271   3.303   5.835  11.927  0.0904  0.7394  0.2440
10619TIP3    H153272   3.387   5.880  11.930  0.8513 -0.6533  1.1206
10619TIP3    H253273   3.239   5.905  11.915  1.4916  1.6483 -3.1124
10620TIP3   OH253274   1.449   1.796   5.021  0.1973 -0.0423  0.3859
10620TIP3    H153275   1.454   1.719   5.079  0.3757 -0.3031  0.0237
10620TIP3    H253276   1.355   1.807   5.005  0.1156  0.2681  1.0392
10621TIP3   OH253277   0.671   4.589   3.144  0.8096 -0.4832  0.3285
10621TIP3    H153278   0.581   4.620   3.134  0.3085 -2.1383 -0.6262
10621TIP3    H253279   0.725   4.663   3.116 -0.2773  0.1508 -0.1606
10622TIP3   OH253280   0.280   6.258  15.015  0.2624 -0.1464 -0.0369
10622TIP3    H153281   0.374   6.240  15.012  0.0605 -1.3872  0.3380
10622TIP3    H253282   0.240   6.176  14.984 -0.6979  0.2941  0.0139
10623TIP3   OH253283   5.356   5.014   6.188 -0.1440  0.0535  0.4274
10623TIP3    H153284   5.436   4.965   6.167  0.3731  0.7993  0.5941
10623TIP3    H253285   5.336   4.990   6.278  0.2049  0.2639  0.5666
10624TIP3   OH253286   4.308   1.185   3.850 -0.7979 -0.2341  0.2246
10624TIP3    H153287   4.304   1.277   3.824 -0.9956 -0.2933  0.0428
10624TIP3    H253288   4.398   1.173   3.882 -0.2817 -0.3396 -1.1667
10625TIP3   OH253289   2.777   6.532  12.683  0.0854 -0.4738  0.1082
10625TIP3    H153290   2.735   6.445  12.681 -1.9573  0.4134  1.2211
10625TIP3    H253291   2.799   6.546  12.775  2.7933 -0.8082 -0.4067
10626TIP3   OH253292   0.550   1.955   1.380 -0.3054  0.2149 -0.4609
10626TIP3    H153293   0.558   1.928   1.289  0.1906  1.3515 -0.7714
10626TIP3    H253294   0.573   2.048   1.380  0.7199 -0.0044  0.9804
10627TIP3   OH253295   5.957   6.470   2.946 -0.1643 -0.3296 -0.4213
10627TIP3    H153296   6.007   6.397   2.983 -0.2373 -0.3484 -0.3602
10627TIP3    H253297   5.957   6.454   2.852 -0.2749 -0.4668 -0.3983
10628TIP3   OH253298   5.914   1.926   2.524 -0.1473  0.5379  0.3895
10628TIP3    H153299   5.927   1.964   2.437  0.2867  0.7209  0.5314
10628TIP3    H253300   5.847   1.859   2.511  1.0050 -0.5123 -0.4072
10629TIP3   OH253301   4.620   1.725  15.904  0.4966 -0.1425  0.1280
10629TIP3    H153302   4.662   1.639  15.903 -0.6745 -0.7421 -0.5542
10629TIP3    H253303   4.674   1.780  15.846  2.0651  0.0238  1.6772
10630TIP3   OH253304   2.831   0.357  13.570 -0.3192  0.2050  0.0910
10630TIP3    H153305   2.919   0.392  13.555  0.5539 -0.3944  3.0173
10630TIP3    H253306   2.775   0.435  13.572  0.9120  1.1510  2.3183
10631TIP3   OH253307   2.096   2.807   4.423  0.3384 -0.2574  0.1381
10631TIP3    H153308   2.089   2.754   4.343  2.4070  0.2112 -0.4351
10631TIP3    H253309   2.058   2.752   4.492 -1.4237 -0.7046 -1.1203
10632TIP3   OH253310   6.606   6.213  16.888 -0.1463 -0.6010  0.4820
10632TIP3    H153311   6.688   6.257  16.910  0.2738 -1.2702  0.2938
10632TIP3    H253312   6.633   6.125  16.860 -0.5707  0.2639 -3.0854
10633TIP3   OH253313   4.640   1.308  10.880  0.2686  0.4456  0.4823
10633TIP3    H153314   4.662   1.250  10.953  2.4976  0.4896 -0.0830
10633TIP3    H253315   4.645   1.396  10.916 -0.0336  0.4054  0.6184
10634TIP3   OH253316   5.929   4.087   1.404  0.1282  0.3457 -0.3368
10634TIP3    H153317   5.946   3.996   1.376  0.7647 -0.0623  1.2383
10634TIP3    H253318   5.907   4.079   1.496  4.5739  2.0921  1.1487
10635TIP3   OH253319   3.591   1.476  13.548 -0.4606 -0.0523  0.5105
10635TIP3    H153320   3.578   1.491  13.454  2.4728  0.2004  0.0437
10635TIP3    H253321   3.508   1.438  13.578 -2.8131  3.0421 -1.4041
10636TIP3   OH253322   2.075   1.283  16.058 -0.2006 -0.3622 -0.0700
10636TIP3    H153323   1.990   1.319  16.085  0.3244  1.3712 -0.6242
10636TIP3    H253324   2.058   1.245  15.972 -0.1933  1.0161 -0.7068
10637TIP3   OH253325   0.899   3.854   6.332 -0.3954 -0.3440  0.0490
10637TIP3    H153326   0.964   3.786   6.349 -1.7747 -1.4907  0.9441
10637TIP3    H253327   0.929   3.895   6.251  0.2846 -2.3060 -0.7744
10638TIP3   OH253328   5.243   1.248  17.062  0.2723  0.2313 -0.3699
10638TIP3    H153329   5.278   1.210  17.143  1.2884  1.5789 -0.1417
10638TIP3    H253330   5.294   1.328  17.049  1.2285 -0.7142 -3.2192
10639TIP3   OH253331   4.454   2.731   4.440  0.1603 -0.0042  0.2295
10639TIP3    H153332   4.430   2.772   4.523  2.1425 -0.9638  1.3431
10639TIP3    H253333   4.442   2.638   4.455 -1.4090 -0.1088 -1.2918
10640TIP3   OH253334   5.839   5.378  17.320 -0.5840  0.3498  0.4514
10640TIP3    H153335   5.801   5.300  17.363 -0.4091  0.7375  1.3295
10640TIP3    H253336   5.772   5.404  17.257 -0.0099 -1.4016 -0.9588
10641TIP3   OH253337   6.238   3.136   4.655  0.2552 -0.7021 -0.1275
10641TIP3    H153338   6.321   3.182   4.638  0.0240  0.3041  1.3156
10641TIP3    H253339   6.254   3.047   4.623  2.4394 -0.9578  1.3928
10642TIP3   OH253340   1.728   5.390  17.244 -0.3178  0.0600  0.1828
10642TIP3    H153341   1.770   5.442  17.313 -1.5542 -0.4270  1.3531
10642TIP3    H253342   1.689   5.455  17.185  1.2575  0.4939 -0.4237
10643TIP3   OH253343   0.602   2.433  13.890  0.7021  0.3373 -0.0059
10643TIP3    H153344   0.620   2.340  13.905  0.3533  0.6780  3.2370
10643TIP3    H253345   0.686   2.470  13.863  1.0334 -0.7662 -0.5217
10644TIP3   OH253346   6.720   3.601  12.279  0.2370 -0.0741 -0.6117
10644TIP3    H153347   6.746   3.528  12.335  0.1948 -0.7240 -1.4345
10644TIP3    H253348   6.751   3.679  12.326 -0.1445 -0.5754  0.5030
10645TIP3   OH253349   2.983   3.271  17.098 -0.4769 -0.4841  0.0987
10645TIP3    H153350   2.939   3.208  17.042 -0.1908  0.3009 -1.0409
10645TIP3    H253351   2.924   3.346  17.100 -0.6626 -0.6454  1.1760
10646TIP3   OH253352   0.230   2.057   6.026 -0.2526 -0.1911  0.3155
10646TIP3    H153353   0.160   2.101   5.979 -1.9916 -2.0084  1.0499
10646TIP3    H253354   0.247   2.113   6.102  1.5308  1.9791 -1.5608
10647TIP3   OH253355   1.608   3.886  12.556 -0.1517 -0.3551 -0.3294
10647TIP3    H153356   1.687   3.929  12.522 -0.8810  1.2475 -0.1049
10647TIP3    H253357   1.614   3.796  12.524  0.7375  0.2653 -2.0824
10648TIP3   OH253358   6.352   2.517  11.035  0.0658 -0.1642  0.6272
10648TIP3    H153359   6.321   2.508  10.945  1.1296 -1.2266  0.3310
10648TIP3    H253360   6.305   2.448  11.083  0.9935 -0.9505  0.4372
10649TIP3   OH253361   6.288   2.980   5.365  0.1894  0.3316  0.1154
10649TIP3    H153362   6.357   3.007   5.305  0.3297 -0.2728 -0.0078
10649TIP3    H253363   6.211   3.031   5.338  0.1155 -0.2788 -0.9113
10650TIP3   OH253364   1.868   1.740   0.796  0.0620  0.2604 -1.1938
10650TIP3    H153365   1.786   1.770   0.758 -1.3839 -0.5514  1.0388
10650TIP3    H253366   1.843   1.701   0.880  2.8343  0.8245  0.0446
10651TIP3   OH253367   1.344   3.122   3.805  0.1391  0.0282  0.3150
10651TIP3    H153368   1.320   3.184   3.872  0.2151  0.2571  0.1322
10651TIP3    H253369   1.263   3.106   3.756  0.3701  0.8862 -0.3725
10652TIP3   OH253370   6.157   0.533   3.709 -0.3084 -0.2316 -0.2669
10652TIP3    H153371   6.145   0.510   3.801 -0.1507  2.6788  0.5560
10652TIP3    H253372   6.250   0.523   3.693 -0.3891 -1.0963 -0.2410
10653TIP3   OH253373   1.251   6.471   4.208  0.6468 -0.2231  0.1446
10653TIP3    H153374   1.205   6.555   4.203  0.0105 -0.6218 -1.0534
10653TIP3    H253375   1.223   6.423   4.131  0.8210 -1.6517  0.9255
10654TIP3   OH253376   6.622   3.821   6.567  0.0501 -0.9371  0.0583
10654TIP3    H153377   6.559   3.821   6.495 -0.0887  0.8650  0.1181
10654TIP3    H253378   6.670   3.904   6.557  2.1193 -2.0389  0.2870
10655TIP3   OH253379   0.812   3.985  13.364  0.3090  0.0720 -0.1302
10655TIP3    H153380   0.845   4.073  13.346  1.2234  0.5384  3.1521
10655TIP3    H253381   0.722   3.985  13.329  0.6218  1.9460 -1.0504
10656TIP3   OH253382   0.645   6.595   2.284 -0.3927  0.0944 -0.2225
10656TIP3    H153383   0.676   6.523   2.230 -0.8435  0.3829 -0.8805
10656TIP3    H253384   0.551   6.578   2.296 -0.8042  1.2610 -1.5296
10657TIP3   OH253385   0.035   2.842   2.834  0.0169  0.2607 -0.1462
10657TIP3    H153386   0.084   2.905   2.888  0.6832  1.3909 -1.9735
10657TIP3    H253387  -0.047   2.887   2.814  0.1896  0.2605 -0.8704
10658TIP3   OH253388   4.932   6.141   0.114  0.3503  0.5992  0.4133
10658TIP3    H153389   4.958   6.052   0.134  0.9097  0.3350 -1.3147
10658TIP3    H253390   4.863   6.131   0.048 -0.1849  1.4381  0.8256
10659TIP3   OH253391   6.382   3.505   1.329 -0.0158 -0.2440 -0.1525
10659TIP3    H153392   6.335   3.574   1.375 -0.3715 -0.8103  0.3445
10659TIP3    H253393   6.449   3.551   1.278 -0.4967  0.4910 -0.1296
10660TIP3   OH253394   3.586   2.192  13.615  0.1631  0.0378  0.2259
10660TIP3    H153395   3.650   2.129  13.648  1.5779  1.4192  0.2489
10660TIP3    H253396   3.525   2.204  13.687  0.2370 -0.8126  0.4450
10661TIP3   OH253397   4.960   4.325  14.842 -0.1621  0.7891  0.0589
10661TIP3    H153398   5.044   4.326  14.886 -0.6666  1.1728  1.0450
10661TIP3    H253399   4.933   4.233  14.843  0.2626  0.6549 -0.3241
10662TIP3   OH253400   5.322   1.796  12.168  0.2867 -0.2063  0.8726
10662TIP3    H153401   5.350   1.711  12.132  0.2934 -0.4114  1.3579
10662TIP3    H253402   5.284   1.841  12.093  1.2095 -0.2264  0.3682
10663TIP3   OH253403   5.342   0.772   5.210 -0.0431 -0.1230 -0.4557
10663TIP3    H153404   5.338   0.852   5.158  0.3071  1.5540  1.9508
10663TIP3    H253405   5.341   0.802   5.300  0.0647 -2.8697  0.5459
10664TIP3   OH253406   3.143   1.444  15.756 -0.1242 -0.3508 -0.1670
10664TIP3    H153407   3.083   1.487  15.817 -2.4080 -2.9979 -0.3565
10664TIP3    H253408   3.216   1.415  15.811 -0.2317  0.6433  0.5440
10665TIP3   OH253409   4.008   1.971   4.462 -0.1637 -0.3747 -0.1717
10665TIP3    H153410   3.948   2.034   4.500  1.7072  1.8458 -0.6461
10665TIP3    H253411   4.043   1.922   4.537 -0.1426  0.5763  0.4541
10666TIP3   OH253412   1.886   4.581   4.855  0.3863  0.3678 -0.2695
10666TIP3    H153413   1.809   4.567   4.910 -0.3529  0.6605 -1.1902
10666TIP3    H253414   1.895   4.501   4.804  0.9163  0.1928  0.0949
10667TIP3   OH253415   2.590   5.879  14.985 -0.0596 -0.1953 -0.4260
10667TIP3    H153416   2.552   5.792  14.998 -0.7766  0.0665 -0.7300
10667TIP3    H253417   2.518   5.932  14.952 -0.3410  1.2127  2.2407
10668TIP3   OH253418   0.278   5.212  13.305 -0.0382 -0.3266  0.2155
10668TIP3    H153419   0.286   5.290  13.250  1.5947 -0.4154  0.2767
10668TIP3    H253420   0.247   5.245  13.390  0.3049  0.2109  0.1354
10669TIP3   OH253421   1.318   0.392   6.647  0.5135  0.2141  0.1860
10669TIP3    H153422   1.344   0.392   6.555  1.4689 -1.1238  0.4078
10669TIP3    H253423   1.370   0.462   6.687 -0.7836  1.6039 -0.4722
10670TIP3   OH253424   5.719   3.041   1.770 -0.0647  0.4249  0.5532
10670TIP3    H153425   5.645   3.027   1.830 -0.3672 -0.1710  0.0576
10670TIP3    H253426   5.790   2.989   1.807 -0.0162  0.6798  0.8164
10671TIP3   OH253427   5.386   6.174  14.704 -0.2061 -0.1447 -0.5064
10671TIP3    H153428   5.344   6.186  14.619 -1.0638 -1.5367 -0.3125
10671TIP3    H253429   5.413   6.262  14.730 -0.1828  0.3464 -2.0743
10672TIP3   OH253430   5.681   4.706  17.142  0.0901  0.6782  0.1761
10672TIP3    H153431   5.608   4.703  17.080  0.4941  1.0651 -0.3252
10672TIP3    H253432   5.649   4.659  17.219 -0.2726 -0.1912 -0.4854
10673TIP3   OH253433   6.404   4.164  14.047 -0.4967 -0.1642  0.0067
10673TIP3    H153434   6.416   4.069  14.056  2.4736  0.0743 -0.2887
10673TIP3    H253435   6.353   4.174  13.966  0.8066 -1.5119 -1.0380
10674TIP3   OH253436   4.893   2.100   3.334 -0.2463  0.2453  0.4325
10674TIP3    H153437   4.967   2.074   3.389  0.3389  2.2083  0.6582
10674TIP3    H253438   4.920   2.182   3.294 -0.8445 -0.8519 -2.5017
10675TIP3   OH253439   4.250   6.488   5.326 -0.0685 -0.2303 -0.2244
10675TIP3    H153440   4.181   6.441   5.279 -1.5979  1.4714  0.2045
10675TIP3    H253441   4.259   6.571   5.279  1.4813 -0.2839 -0.0664
10676TIP3   OH253442   3.158   5.002  14.151  0.5198 -0.3315  0.1066
10676TIP3    H153443   3.124   4.931  14.096 -2.4597  0.2138  1.0509
10676TIP3    H253444   3.103   5.077  14.130  1.0676  0.6242  1.9038
10677TIP3   OH253445   3.482   1.595  16.082  0.7074  0.0219 -0.2217
10677TIP3    H153446   3.562   1.561  16.042  1.2608  0.6375  0.3372
10677TIP3    H253447   3.489   1.573  16.175  0.7762  1.0640  0.0345
10678TIP3   OH253448   5.865   5.554  11.818  0.0115 -0.2639  0.1876
10678TIP3    H153449   5.934   5.589  11.762 -0.5889  0.5594 -0.0568
10678TIP3    H253450   5.812   5.499  11.760  0.8137 -1.4238  0.5175
10679TIP3   OH253451   3.618   4.087  15.546  0.2864 -0.1970  0.2235
10679TIP3    H153452   3.582   4.015  15.494  1.3037 -0.5267 -0.0528
10679TIP3    H253453   3.649   4.046  15.627  1.9718 -0.3085 -0.4371
10680TIP3   OH253454   0.879   4.398  13.105 -0.1689  0.2698 -0.4401
10680TIP3    H153455   0.830   4.456  13.164 -0.7999  1.2046 -1.8319
10680TIP3    H253456   0.956   4.449  13.080 -0.1600  0.0741 -0.8156
10681TIP3   OH253457   0.429   1.065   2.669  0.5342 -0.3419  0.3844
10681TIP3    H153458   0.375   0.994   2.635  1.5462 -0.8609 -0.1903
10681TIP3    H253459   0.474   1.100   2.592  0.4230  0.5975  0.7349
10682TIP3   OH253460   3.158   4.857   5.904 -0.5147 -0.1987 -0.3871
10682TIP3    H153461   3.136   4.822   5.817 -0.9506 -0.4641 -0.1732
10682TIP3    H253462   3.207   4.787   5.946 -2.1955 -0.9587  0.3923
10683TIP3   OH253463   6.590   1.913  14.424  0.4545 -0.4028 -0.4336
10683TIP3    H153464   6.588   1.985  14.486 -1.2978  1.0902 -2.0893
10683TIP3    H253465   6.683   1.895  14.410  0.9040  0.9694  0.6388
10684TIP3   OH253466   5.536   4.092   1.383  0.7085 -0.0195  0.2034
10684TIP3    H153467   5.483   4.056   1.454  0.3457  0.4688  0.1894
10684TIP3    H253468   5.510   4.184   1.379  0.9575  0.0288 -0.3579
10685TIP3   OH253469   1.180   4.609  11.285  0.0957 -0.1317 -0.0041
10685TIP3    H153470   1.270   4.585  11.260  0.9256  0.9884  1.7612
10685TIP3    H253471   1.146   4.530  11.328 -0.1467 -0.8901 -1.5093
10686TIP3   OH253472   5.353   6.549  12.104 -0.2133 -0.3725 -0.4003
10686TIP3    H153473   5.332   6.514  12.191 -2.0863  0.2790 -0.5438
10686TIP3    H253474   5.406   6.626  12.122 -1.6250  0.4837  0.2764
10687TIP3   OH253475   0.423   4.376  17.184  0.2416  0.4710  0.2155
10687TIP3    H153476   0.453   4.428  17.259  0.5146 -0.8070  1.0230
10687TIP3    H253477   0.344   4.332  17.216 -0.4712  1.0171 -0.7353
10688TIP3   OH253478   1.733   5.756  15.549  0.3002 -0.0089 -0.2581
10688TIP3    H153479   1.734   5.660  15.546 -0.1951 -0.0010 -2.0437
10688TIP3    H253480   1.769   5.778  15.635  1.4492 -1.7792 -0.2301
10689TIP3   OH253481   2.515   3.690  11.371  0.1817 -0.4059 -0.1230
10689TIP3    H153482   2.567   3.722  11.297  0.4234  1.1243  0.6622
10689TIP3    H253483   2.462   3.620  11.335  0.9320 -0.2769 -1.5404
10690TIP3   OH253484   0.750   5.758   1.337 -0.2361 -0.3497 -0.4250
10690TIP3    H153485   0.710   5.832   1.381 -0.2592 -0.2119 -0.6753
10690TIP3    H253486   0.700   5.748   1.256  0.0072 -0.3995 -0.5706
10691TIP3   OH253487   1.789   5.964  12.901  0.3249  0.3103  0.0102
10691TIP3    H153488   1.839   5.935  12.824 -0.7026  0.3515 -0.7036
10691TIP3    H253489   1.854   6.004  12.958  1.0154  0.9679 -1.1784
10692TIP3   OH253490   1.828   4.864  16.888 -0.2058  0.0881 -0.6828
10692TIP3    H153491   1.878   4.922  16.946 -0.2053 -0.5665 -0.0078
10692TIP3    H253492   1.882   4.786  16.879 -1.3261 -0.8886  0.5615
10693TIP3   OH253493   0.993   6.434  13.732 -0.4910 -0.2723 -0.5154
10693TIP3    H153494   1.014   6.397  13.646 -1.0543 -2.1959  0.1262
10693TIP3    H253495   1.009   6.363  13.794 -1.7283  0.5213  0.7958
10694TIP3   OH253496   5.000   1.658   4.279  0.4223  0.1128 -0.4049
10694TIP3    H153497   4.949   1.730   4.317  0.7156  0.3004 -0.3618
10694TIP3    H253498   5.083   1.659   4.328 -0.4364 -1.7251  1.2152
10695TIP3   OH253499   5.017   3.659  10.317  0.5939 -0.3097 -0.1667
10695TIP3    H153500   5.047   3.570  10.300  1.0089 -0.4394  1.1621
10695TIP3    H253501   5.097   3.711  10.322  0.3927  0.0084 -0.1824
10696TIP3   OH253502   3.529   0.823  14.477 -0.1999  0.6407  0.5892
10696TIP3    H153503   3.540   0.871  14.559  0.6645 -0.1342  0.9487
10696TIP3    H253504   3.552   0.733  14.499 -0.1627  0.3840 -0.4552
10697TIP3   OH253505   1.960   2.206  11.134 -0.0312  0.0343 -0.0313
10697TIP3    H153506   1.957   2.187  11.040  0.3827  0.3747 -0.1141
10697TIP3    H253507   1.868   2.210  11.161 -0.2153  1.9070 -0.8178
10698TIP3   OH253508   5.732   5.783  14.664 -0.6947  0.1069 -0.2467
10698TIP3    H153509   5.758   5.742  14.747 -2.0958  0.2285  0.2833
10698TIP3    H253510   5.733   5.712  14.600 -0.9411 -0.2928  0.1855
10699TIP3   OH253511   4.421   4.763   4.298 -0.3612  0.3303  0.5254
10699TIP3    H153512   4.455   4.791   4.384 -1.5918 -0.0182  1.1478
10699TIP3    H253513   4.485   4.796   4.235 -0.0653  1.6924  1.4848
10700TIP3   OH253514   2.843   2.032  16.228  0.1141 -0.0435  0.5807
10700TIP3    H153515   2.901   1.980  16.172  0.9819  2.0244 -0.5451
10700TIP3    H253516   2.798   2.091  16.168  0.2962  1.5282  1.9185
10701TIP3   OH253517   3.553   2.113  16.471  0.0695 -0.4878 -0.1774
10701TIP3    H153518   3.515   2.111  16.383 -0.2152  0.5615 -0.0910
10701TIP3    H253519   3.495   2.057  16.523  0.4934 -1.4727 -0.7444
10702TIP3   OH253520   5.513   2.932  14.880 -0.2912  0.2152  0.0849
10702TIP3    H153521   5.562   3.000  14.833 -1.0526  0.9593  0.3390
10702TIP3    H253522   5.561   2.920  14.962 -1.2281  1.9089  0.9329
10703TIP3   OH253523   4.410   2.149  15.138 -0.1889  0.0795 -0.3732
10703TIP3    H153524   4.498   2.111  15.140 -0.5490 -0.7525  0.1732
10703TIP3    H253525   4.370   2.124  15.221 -0.8535  0.6894 -0.4903
10704TIP3   OH253526   3.791   0.434  13.337 -0.4637  0.1957  0.2789
10704TIP3    H153527   3.702   0.403  13.353 -1.0463  2.0429  0.8866
10704TIP3    H253528   3.790   0.465  13.247 -0.4185  0.1813  0.2729
10705TIP3   OH253529   1.254   6.195  13.940 -0.2113 -0.2013 -0.0605
10705TIP3    H153530   1.311   6.232  14.008 -2.5260  0.8372  1.4165
10705TIP3    H253531   1.301   6.212  13.858  2.0557 -0.3061  1.1268
10706TIP3   OH253532   3.742   1.693  15.735 -0.1887 -0.5362  0.3683
10706TIP3    H153533   3.787   1.691  15.650 -0.6395  0.3038  0.0979
10706TIP3    H253534   3.730   1.601  15.758  0.2523 -0.7738 -0.3075
10707TIP3   OH253535   2.526   6.330  11.738 -0.6082  0.1108  0.6200
10707TIP3    H153536   2.465   6.326  11.812 -1.0358 -0.8561  0.2272
10707TIP3    H253537   2.539   6.424  11.724 -2.5649  0.3931  0.3035
10708TIP3   OH253538   0.881   0.199   0.151 -0.5618 -0.4479 -0.1141
10708TIP3    H153539   0.907   0.116   0.110  0.2162  0.6514 -1.9667
10708TIP3    H253540   0.806   0.176   0.206  0.4325 -2.6000  0.4677
10709TIP3   OH253541   4.176   3.111  14.999  0.8170 -0.2701 -0.0568
10709TIP3    H153542   4.101   3.171  14.996 -0.1349 -1.4103  0.0440
10709TIP3    H253543   4.234   3.149  15.065  0.9203  1.2770 -0.9917
10710TIP3   OH253544   1.809   6.633   5.659 -0.4468  0.1624 -0.0680
10710TIP3    H153545   1.800   6.537   5.664 -0.1272  0.0348 -1.5405
10710TIP3    H253546   1.875   6.654   5.725  0.7604 -0.8608 -0.8970
10711TIP3   OH253547   6.062   5.179  16.410  0.3795 -0.2273 -0.4512
10711TIP3    H153548   6.149   5.183  16.449 -0.0844 -0.9143  0.6957
10711TIP3    H253549   6.069   5.231  16.330  2.5396 -2.3389 -1.7756
10712TIP3   OH253550   0.470   4.447   2.628 -0.0829 -0.5344  0.4833
10712TIP3    H153551   0.420   4.381   2.676  1.0563 -0.3062  2.0129
10712TIP3    H253552   0.558   4.411   2.620  0.5171  0.7116  1.1980
10713TIP3   OH253553   5.993   4.395  11.698  0.2322 -0.5792 -0.0954
10713TIP3    H153554   6.034   4.379  11.613 -0.9308  0.4362 -0.9014
10713TIP3    H253555   5.950   4.312  11.720 -0.2143 -0.5978 -0.9633
10714TIP3   OH253556   0.069   3.394   0.955  0.4535 -0.3731  0.3946
10714TIP3    H153557   0.029   3.436   1.031 -0.0611 -0.0397 -0.0515
10714TIP3    H253558   0.024   3.433   0.880  0.0462 -1.6522 -0.0470
10715TIP3   OH253559   5.552   5.394   5.816  0.0156  0.0087  0.1147
10715TIP3    H153560   5.582   5.455   5.883  0.7916  0.6770 -0.7978
10715TIP3    H253561   5.632   5.351   5.786 -0.2909 -0.1376 -0.5099
10716TIP3   OH253562   1.211   2.844  12.518  0.0117 -0.7654  0.1512
10716TIP3    H153563   1.140   2.847  12.454  0.6631 -1.2159 -0.5986
10716TIP3    H253564   1.223   2.751  12.536  1.2773 -0.7923 -0.7122
10717TIP3   OH253565   1.483   2.292   4.984 -0.1810  0.1675 -0.3115
10717TIP3    H153566   1.484   2.384   4.958 -1.3694  0.6520  1.2435
10717TIP3    H253567   1.441   2.247   4.911  0.1744  0.8761 -0.9715
10718TIP3   OH253568   1.309   0.951   6.323 -0.4303  0.3024 -1.0994
10718TIP3    H153569   1.262   0.875   6.357 -0.0371 -0.6840 -2.6735
10718TIP3    H253570   1.245   1.022   6.327 -0.2722  0.4160  2.0697
10719TIP3   OH253571   4.398   6.611  16.299  0.2750 -0.3256  0.0268
10719TIP3    H153572   4.310   6.632  16.329 -0.4180 -2.6754 -0.2421
10719TIP3    H253573   4.421   6.530  16.344  1.5572 -0.7511 -1.3055
10720TIP3   OH253574   0.467   5.413   2.840  0.2835 -0.4280  0.0926
10720TIP3    H153575   0.471   5.509   2.845 -1.2260 -0.0509 -3.0493
10720TIP3    H253576   0.488   5.383   2.928  0.2496  2.8090  1.3414
10721TIP3   OH253577   2.474   5.805   4.371  0.3239 -0.1527  0.0420
10721TIP3    H153578   2.407   5.741   4.396 -1.4526  1.6639  0.2342
10721TIP3    H253579   2.487   5.858   4.450  0.4941  0.7644 -0.5870
10722TIP3   OH253580   5.792   1.794  17.164 -0.7194 -0.1197 -0.1003
10722TIP3    H153581   5.822   1.840  17.243  0.2681  0.7339 -0.9383
10722TIP3    H253582   5.830   1.706  17.172  0.4259  0.3510 -0.2050
10723TIP3   OH253583   0.386   2.524  12.709 -0.1933 -0.1678  0.0872
10723TIP3    H153584   0.416   2.472  12.634  0.1298 -0.7211  0.5922
10723TIP3    H253585   0.465   2.535  12.763  0.3012  2.7082 -1.0446
10724TIP3   OH253586   1.855   0.576  15.263  0.1389 -0.3788  0.1708
10724TIP3    H153587   1.950   0.565  15.266  0.1537 -0.3402 -0.1477
10724TIP3    H253588   1.821   0.488  15.283  0.2448 -0.4900 -0.1276
10725TIP3   OH253589   0.828   5.950  13.672 -1.1144  0.3080  0.0913
10725TIP3    H153590   0.760   5.931  13.736 -0.4801  1.4999  1.1852
10725TIP3    H253591   0.899   5.990  13.724  1.4582 -2.9635 -0.5628
10726TIP3   OH253592   2.478   2.058  10.978  0.0244  0.0490  0.3211
10726TIP3    H153593   2.506   1.968  10.996  0.2074 -0.2605 -1.3471
10726TIP3    H253594   2.412   2.049  10.909 -2.3293  0.9718  2.3292
10727TIP3   OH253595   0.013   4.414  10.303  0.6028  0.3496  0.0198
10727TIP3    H153596  -0.077   4.397  10.331  0.6503  0.0720  0.0084
10727TIP3    H253597   0.035   4.498  10.343  1.0931 -0.5989  1.8449
10728TIP3   OH253598   1.164   0.659  12.164 -0.3156  0.3000 -0.4239
10728TIP3    H153599   1.198   0.606  12.235  0.4569  1.0921 -0.1915
10728TIP3    H253600   1.238   0.712  12.135 -1.0691  1.2620 -0.6431
10729TIP3   OH253601   2.552   3.676  14.354  0.0764 -0.0603 -0.3822
10729TIP3    H153602   2.566   3.647  14.444 -1.0334  0.8512  0.1027
10729TIP3    H253603   2.485   3.617  14.320 -1.5839  1.3177  0.3418
10730TIP3   OH253604   4.083   6.346  13.736  0.8372 -0.4072  0.5175
10730TIP3    H153605   4.020   6.358  13.807  0.8169  0.8624  0.3018
10730TIP3    H253606   4.118   6.258  13.750  0.6869 -0.2636  1.9803
10731TIP3   OH253607   6.707   6.194  14.294  0.4167  0.2430  0.0018
10731TIP3    H153608   6.632   6.226  14.345  0.5713  1.5431 -0.5562
10731TIP3    H253609   6.693   6.229  14.206 -1.7758 -4.8165 -2.0826
10732TIP3   OH253610   5.987   5.426   0.689  0.2880 -0.2375  0.3889
10732TIP3    H153611   5.901   5.403   0.726  0.1038 -0.1594  0.0083
10732TIP3    H253612   6.050   5.385   0.749  0.0025  0.2677  1.0490
10733TIP3   OH253613   5.199   1.318  12.908  0.3010  0.5552  0.4378
10733TIP3    H153614   5.250   1.288  12.984 -1.1258  1.8272  1.9709
10733TIP3    H253615   5.258   1.375  12.860  0.9691  0.3837  1.0414
10734TIP3   OH253616   2.942   5.051  11.701 -0.4243  0.3482  0.4374
10734TIP3    H153617   2.938   5.014  11.789  0.8309 -1.2771 -0.1285
10734TIP3    H253618   2.878   5.001  11.651  0.2715 -0.1066 -0.0123
10735TIP3   OH253619   2.898   1.510   0.004  0.4417  0.4364 -0.0495
10735TIP3    H153620   2.825   1.522  -0.057  0.4383 -0.3904 -0.2242
10735TIP3    H253621   2.936   1.597   0.014 -0.7511  0.9415  0.2759
10736TIP3   OH253622   3.596   1.621   4.039 -0.6038 -0.4903 -0.9952
10736TIP3    H153623   3.646   1.541   4.025 -1.2505 -1.2862  0.9031
10736TIP3    H253624   3.659   1.692   4.029 -0.1619 -1.1564 -3.4196
10737TIP3   OH253625   1.599   1.129   1.266  1.1974 -0.4832  0.0906
10737TIP3    H153626   1.653   1.054   1.241  2.0360 -0.1271  0.7551
10737TIP3    H253627   1.662   1.201   1.274  0.3621  0.3928 -0.9197
10738TIP3   OH253628   5.421   6.612   2.549  0.2263  0.8474  0.2261
10738TIP3    H153629   5.329   6.588   2.539  0.7723 -0.5403 -2.2309
10738TIP3    H253630   5.441   6.593   2.641 -0.6823 -3.8273 -0.2981
10739TIP3   OH253631   0.675   2.269   5.828 -0.3681  0.9339  0.1336
10739TIP3    H153632   0.666   2.228   5.913  0.5046 -1.2440 -0.7529
10739TIP3    H253633   0.767   2.294   5.823 -0.9197  3.3445  0.7442
10740TIP3   OH253634   2.805   3.511   1.776 -0.5348  0.2132  0.3174
10740TIP3    H153635   2.876   3.474   1.723 -0.4464  0.7360  0.0627
10740TIP3    H253636   2.725   3.472   1.739 -0.5916  1.5823 -1.1011
10741TIP3   OH253637   4.622   1.592  12.343 -0.1830  0.8904  0.4938
10741TIP3    H153638   4.693   1.552  12.293 -1.8887  0.1144 -1.4489
10741TIP3    H253639   4.628   1.551  12.429 -0.7871 -2.4067 -0.8784
10742TIP3   OH253640   5.981   1.165   0.771 -0.2906  0.2128 -0.0120
10742TIP3    H153641   5.950   1.252   0.796  0.3434  0.7433 -0.9907
10742TIP3    H253642   5.941   1.149   0.686  0.8861  0.2714 -0.6018
10743TIP3   OH253643   0.265   4.529  16.827  0.3957 -0.3341  0.0746
10743TIP3    H153644   0.316   4.508  16.749 -0.2336  0.2513 -0.5095
10743TIP3    H253645   0.188   4.575  16.794 -0.8301 -1.7165  0.8712
10744TIP3   OH253646   3.388   2.682   1.076  0.0477  0.1019  0.0625
10744TIP3    H153647   3.401   2.602   1.025 -0.8903 -1.8929  2.7435
10744TIP3    H253648   3.457   2.741   1.045  1.2675 -1.9917 -1.5137
10745TIP3   OH253649   4.466   0.275  12.826 -0.0074  0.4320  0.3056
10745TIP3    H153650   4.556   0.246  12.840 -0.3478 -0.1798  1.3153
10745TIP3    H253651   4.472   0.338  12.754  1.0750 -0.3696 -0.3312
10746TIP3   OH253652   5.934   1.578  17.234 -0.0392  0.5740 -0.5868
10746TIP3    H153653   5.905   1.540  17.151 -1.0059 -1.5441  0.6409
10746TIP3    H253654   6.016   1.532  17.253 -0.1479  0.5826 -0.0837
10747TIP3   OH253655   4.130   6.351  13.103  0.1951  0.3092  0.1345
10747TIP3    H153656   4.165   6.336  13.015  0.9861  1.5401  0.2128
10747TIP3    H253657   4.057   6.289  13.111  2.6536 -2.8499  0.1746
10748TIP3   OH253658   5.276   0.722   6.416  0.1252  0.3488  0.3729
10748TIP3    H153659   5.284   0.635   6.458 -0.7372  0.0170 -0.1407
10748TIP3    H253660   5.199   0.761   6.457 -0.2141  0.3710 -0.2831
10749TIP3   OH253661   5.729   3.639  15.345  0.3825  0.4777 -0.3154
10749TIP3    H153662   5.793   3.576  15.313  2.9650  0.5159  3.9454
10749TIP3    H253663   5.775   3.723  15.345 -0.5306  1.0063  0.4614
10750TIP3   OH253664   3.188   1.004  11.274 -0.6433 -0.4957 -0.3153
10750TIP3    H153665   3.187   0.924  11.327  0.4445  0.6706  1.5542
10750TIP3    H253666   3.254   0.987  11.206  0.2075 -0.8806  0.5846
10751TIP3   OH253667   1.076   4.129  15.925  0.0999  0.4387 -0.2149
10751TIP3    H153668   1.102   4.186  15.997 -0.7218  0.2691  0.2368
10751TIP3    H253669   1.012   4.181  15.876 -1.0942 -0.2680  0.5330
10752TIP3   OH253670   2.449   6.652   4.283 -0.0574  0.3802 -0.1997
10752TIP3    H153671   2.418   6.692   4.202 -0.4414 -0.4819 -0.4858
10752TIP3    H253672   2.414   6.563   4.281 -1.8981  0.9575  1.9031
10753TIP3   OH253673   0.843   4.232  14.001  0.0105 -0.2756 -0.0067
10753TIP3    H153674   0.816   4.141  13.985  0.0309 -0.2740 -0.0510
10753TIP3    H253675   0.886   4.230  14.086 -0.4953 -0.2023  0.2536
10754TIP3   OH253676   3.074   3.723   5.815  0.3528  0.0378  0.5496
10754TIP3    H153677   3.007   3.738   5.749  0.5898  2.4930  0.7683
10754TIP3    H253678   3.133   3.659   5.776 -1.1368 -0.8096 -0.3581
10755TIP3   OH253679   6.445   6.649  12.186  0.1112  0.0397  0.3451
10755TIP3    H153680   6.534   6.665  12.217  0.4566  0.2354 -0.7001
10755TIP3    H253681   6.406   6.736  12.176 -0.2287 -0.0489  0.8814
10756TIP3   OH253682   4.457   0.607  11.624 -0.1770 -0.2284 -0.0114
10756TIP3    H153683   4.374   0.562  11.639 -1.1121  1.9513  1.9728
10756TIP3    H253684   4.507   0.594  11.704  0.3479  0.5686 -0.1954
10757TIP3   OH253685   2.235   1.269   4.434  0.2967 -0.3122 -0.3324
10757TIP3    H153686   2.298   1.241   4.500 -1.3059 -0.6372  1.1232
10757TIP3    H253687   2.280   1.339   4.386  1.5799 -0.2049  0.9652
10758TIP3   OH253688   0.965   3.541  12.122  0.4240  0.6478  0.3774
10758TIP3    H153689   1.036   3.496  12.169 -0.1142 -0.8042 -0.1591
10758TIP3    H253690   0.889   3.530  12.179 -0.5830 -2.3506 -1.3254
10759TIP3   OH253691   1.388   3.739   5.814 -0.3501  0.3311 -0.6250
10759TIP3    H153692   1.409   3.738   5.908 -0.5049  1.7920 -0.5545
10759TIP3    H253693   1.358   3.828   5.797  2.4293  1.0449 -2.6387
10760TIP3   OH253694   4.619   5.312  13.282  0.4507  0.1166  0.5026
10760TIP3    H153695   4.583   5.346  13.363  0.0117 -0.9997  0.7898
10760TIP3    H253696   4.703   5.274  13.307 -0.1945 -1.2544  0.6730
10761TIP3   OH253697   6.242   3.538  12.519  0.5352 -0.1894 -0.1543
10761TIP3    H153698   6.300   3.489  12.461 -0.2654 -0.7409 -0.5017
10761TIP3    H253699   6.194   3.597  12.461  0.3181 -0.1625  0.0507
10762TIP3   OH253700   4.344   1.106   4.227  0.4967 -0.6140 -0.9627
10762TIP3    H153701   4.336   1.087   4.320  0.8389  1.9570 -0.3453
10762TIP3    H253702   4.437   1.093   4.208  0.6501  0.0398 -0.6571
10763TIP3   OH253703   3.794   0.866  17.230  0.9227 -0.3859  0.0392
10763TIP3    H153704   3.799   0.806  17.156  1.7489 -0.2483 -0.0296
10763TIP3    H253705   3.861   0.834  17.291  0.9802  0.1268  0.2497
10764TIP3   OH253706   5.210   3.086  16.750 -0.1898 -0.5761 -0.3614
10764TIP3    H153707   5.174   2.998  16.752  0.3676 -0.8202 -0.9872
10764TIP3    H253708   5.150   3.138  16.804 -0.8405 -1.2112 -0.4713
10765TIP3   OH253709   2.593   1.420   3.283 -0.6357  0.4558  0.1164
10765TIP3    H153710   2.527   1.426   3.213 -1.3489 -1.7755  0.4974
10765TIP3    H253711   2.589   1.329   3.311  0.9984  0.8379  1.7808
10766TIP3   OH253712   0.712   2.512  13.226 -0.1147  0.2084 -0.4929
10766TIP3    H153713   0.794   2.477  13.191  0.3000  0.3520  0.3152
10766TIP3    H253714   0.710   2.603  13.196  0.5473  0.5144  0.3736
10767TIP3   OH253715   4.624   5.430  12.005 -0.5680 -0.2186 -0.0153
10767TIP3    H153716   4.619   5.363  12.073 -1.5158 -0.3277 -0.1875
10767TIP3    H253717   4.640   5.381  11.925  0.2388 -0.1129  0.0683
10768TIP3   OH253718   3.984   1.891  12.760 -0.6542 -0.0158 -0.4388
10768TIP3    H153719   3.955   1.948  12.688 -2.4713 -0.9185 -0.4742
10768TIP3    H253720   3.965   1.942  12.839 -0.1916  0.3064 -0.5267
10769TIP3   OH253721   0.051   1.227   2.829 -0.3732  0.2608  0.1538
10769TIP3    H153722   0.116   1.292   2.855 -1.2288  1.3090 -0.2264
10769TIP3    H253723  -0.030   1.277   2.818 -0.8127 -0.6772 -1.2220
10770TIP3   OH253724   3.520   2.755  16.362  0.3284 -0.6148 -0.2964
10770TIP3    H153725   3.561   2.798  16.287  1.1623  0.0329  0.4974
10770TIP3    H253726   3.499   2.667  16.331  2.9511 -1.2332 -0.6076
10771TIP3   OH253727   4.868   5.368  13.740  0.1958 -0.3536  0.1841
10771TIP3    H153728   4.923   5.352  13.816  3.1319  1.0100 -1.4721
10771TIP3    H253729   4.824   5.285  13.724  2.1194 -1.6738  1.3837
10772TIP3   OH253730   2.784   6.046  10.720 -0.5065 -0.2020  0.3415
10772TIP3    H153731   2.747   6.083  10.800 -2.9885  0.4631 -1.0111
10772TIP3    H253732   2.711   6.001  10.678  1.1038 -1.8825 -0.8406
10773TIP3   OH253733   5.082   4.662  12.445 -0.2567  0.7368 -0.4839
10773TIP3    H153734   5.112   4.713  12.370 -0.2045  0.2996 -0.7635
10773TIP3    H253735   5.114   4.574  12.429 -0.3993  0.5984 -0.0340
10774TIP3   OH253736   6.662   4.393  10.987  0.4842  0.2298 -0.8226
10774TIP3    H153737   6.661   4.481  10.947  1.9289  0.6905  0.0790
10774TIP3    H253738   6.691   4.408  11.077  0.4683 -1.1552 -0.5664
10775TIP3   OH253739   6.368   3.028   5.955 -0.3835 -0.3319 -0.2247
10775TIP3    H153740   6.334   3.010   5.866  0.6473 -1.7490 -0.3719
10775TIP3    H253741   6.411   3.112   5.948 -1.0623 -0.0218 -0.8510
10776TIP3   OH253742   5.968   5.966  13.713 -0.2987 -0.8124 -0.0552
10776TIP3    H153743   6.011   5.927  13.637  0.0392  1.1022 -0.8928
10776TIP3    H253744   5.877   5.979  13.684 -0.0938  0.2133 -0.2827
10777TIP3   OH253745   6.576   6.091   3.713  0.0550  1.1131  0.1650
10777TIP3    H153746   6.607   6.177   3.686  1.4406  0.6753  0.2756
10777TIP3    H253747   6.612   6.079   3.801  2.6716 -0.8330 -1.0069
10778TIP3   OH253748   4.329   1.532  14.442 -0.2637  0.2941  0.1392
10778TIP3    H153749   4.331   1.503  14.533  0.7324  0.0261  0.0480
10778TIP3    H253750   4.250   1.584  14.435 -1.6405 -1.6333  0.5499
10779TIP3   OH253751   6.563   0.819   4.860  0.0140  0.1343 -0.1227
10779TIP3    H153752   6.526   0.753   4.920 -1.3690  1.1938  0.2210
10779TIP3    H253753   6.613   0.767   4.797 -0.7296 -1.2316  0.3551
10780TIP3   OH253754   3.204   0.264   4.203 -0.1372 -0.0116  0.0195
10780TIP3    H153755   3.209   0.359   4.217  0.7013  0.0177 -0.3916
10780TIP3    H253756   3.187   0.255   4.109 -0.7965 -0.2660  0.1576
10781TIP3   OH253757   5.297   1.573   2.338  0.2183 -0.4123  0.1037
10781TIP3    H153758   5.365   1.507   2.354 -0.2251 -1.3640 -1.5952
10781TIP3    H253759   5.248   1.538   2.263  0.3688  2.1561 -1.3032
10782TIP3   OH253760   6.647   6.715  12.575 -0.4044 -0.0232 -0.5084
10782TIP3    H153761   6.591   6.661  12.632 -0.6553 -0.5042 -1.2012
10782TIP3    H253762   6.733   6.710  12.615 -0.9568  1.2564  0.9511
10783TIP3   OH253763   2.765   6.571  12.962  0.2727 -0.4240  0.1382
10783TIP3    H153764   2.825   6.631  13.006 -0.0720  0.1211 -0.1158
10783TIP3    H253765   2.680   6.587  13.003  0.0271 -0.1847 -0.4516
10784TIP3   OH253766   3.494   6.542   3.337 -0.2557 -0.0339 -0.0227
10784TIP3    H153767   3.438   6.511   3.266 -1.4385  1.5529  0.1659
10784TIP3    H253768   3.476   6.636   3.344  1.5507  0.3007  0.8644
10785TIP3   OH253769   0.468   4.776   5.643  0.1461  0.1477 -0.1226
10785TIP3    H153770   0.491   4.741   5.729 -0.3438 -1.7244 -0.6942
10785TIP3    H253771   0.551   4.782   5.597  0.2289 -0.5544 -0.0837
10786TIP3   OH253772   0.637   1.732   6.063 -0.0004 -0.1005  0.2083
10786TIP3    H153773   0.690   1.731   6.143  1.3708  1.0362 -0.6294
10786TIP3    H253774   0.685   1.791   6.004 -0.2989 -1.8481 -1.8933
10787TIP3   OH253775   5.853   5.266  15.684 -0.1728  0.1449  0.0715
10787TIP3    H153776   5.774   5.310  15.653 -0.9208 -1.4096 -0.3054
10787TIP3    H253777   5.907   5.337  15.719 -2.2260  1.1205  1.4660
10788TIP3   OH253778   6.110   1.038  10.941  0.0802  0.4712 -0.1725
10788TIP3    H153779   6.158   0.977  10.885 -2.1045 -1.4240 -0.1255
10788TIP3    H253780   6.179   1.085  10.989  1.9040 -1.5852 -0.5995
10789TIP3   OH253781   0.194   0.281   1.848  0.5696 -0.7106  0.1358
10789TIP3    H153782   0.133   0.318   1.911  1.2769  1.7253 -0.5111
10789TIP3    H253783   0.268   0.251   1.900  1.6317  2.2488  0.5334
10790TIP3   OH253784   3.896   2.403  12.898  0.2908 -0.3103  0.3299
10790TIP3    H153785   3.845   2.372  12.822 -0.4462  0.5197  0.4734
10790TIP3    H253786   3.968   2.454  12.860 -0.3622  0.5233  0.1913
10791TIP3   OH253787   3.419   3.530   3.101  0.0031 -0.1807 -0.0174
10791TIP3    H153788   3.474   3.482   3.038  3.0813  0.5596  1.8667
10791TIP3    H253789   3.420   3.476   3.180 -1.2713  0.3216  0.3665
10792TIP3   OH253790   2.564   0.733   1.713 -0.3621 -0.6652  1.0090
10792TIP3    H153791   2.496   0.797   1.736  2.0862  1.7574  2.0356
10792TIP3    H253792   2.566   0.735   1.617  0.8693  2.3206  1.0001
10793TIP3   OH253793   4.298   1.799   3.500 -0.6280 -0.1203  0.7525
10793TIP3    H153794   4.297   1.877   3.444  1.0237 -1.4262 -1.2466
10793TIP3    H253795   4.359   1.739   3.457  0.6433 -1.3127  3.8953
10794TIP3   OH253796   1.400   4.825   5.720 -0.3193 -0.1154 -0.2629
10794TIP3    H153797   1.344   4.861   5.789 -2.1724 -3.7721  0.3908
10794TIP3    H253798   1.468   4.777   5.767 -0.0321 -0.4463 -0.9978
10795TIP3   OH253799   5.697   4.645  14.066  0.1505  0.6428 -0.0381
10795TIP3    H153800   5.607   4.625  14.091 -0.3299  1.6194 -0.9505
10795TIP3    H253801   5.737   4.677  14.146  0.5598 -2.4795  1.1458
10796TIP3   OH253802   2.125   5.274   5.730 -0.7215  0.7611 -0.0782
10796TIP3    H153803   2.121   5.181   5.705 -1.9018  0.4608  1.0990
10796TIP3    H253804   2.046   5.312   5.691 -0.0031  1.3920 -0.9442
10797TIP3   OH253805   4.646   0.912  14.456 -0.0417 -0.1417 -0.3115
10797TIP3    H153806   4.603   0.836  14.495 -2.7811  1.3945 -0.1493
10797TIP3    H253807   4.642   0.896  14.362 -0.5531 -0.2033 -0.2772
10798TIP3   OH253808   5.875   4.201  12.445 -0.1900 -0.8765 -0.2786
10798TIP3    H153809   5.847   4.166  12.361 -1.2693 -0.2049 -0.2230
10798TIP3    H253810   5.800   4.186  12.503 -0.1720  0.3207  0.0730
10799TIP3   OH253811   4.643   1.676   4.241  0.5514  0.2430 -0.1031
10799TIP3    H153812   4.668   1.765   4.219 -0.2925  0.4749 -0.1550
10799TIP3    H253813   4.574   1.686   4.307 -0.0276 -0.3564 -0.6088
10800TIP3   OH253814   0.403   2.483  14.833 -0.2601 -0.4789  0.6755
10800TIP3    H153815   0.363   2.502  14.748 -1.3159 -0.9865  1.0455
10800TIP3    H253816   0.497   2.498  14.819 -0.2897 -1.5205 -0.8492
10801TIP3   OH253817   1.920   1.138   1.355  0.3043 -0.2859  0.9127
10801TIP3    H153818   1.986   1.071   1.336  0.1493 -0.5136  1.1580
10801TIP3    H253819   1.898   1.174   1.269 -0.5957 -1.5049  0.5986
10802TIP3   OH253820   2.065   1.646  14.696 -0.3446  0.3272 -0.3479
10802TIP3    H153821   2.056   1.653  14.601  0.9702  0.6591 -0.4715
10802TIP3    H253822   2.042   1.555  14.715 -1.5068  0.5013 -0.8546
10803TIP3   OH253823   1.369   1.435   1.957 -0.0805 -0.0589 -0.1184
10803TIP3    H153824   1.304   1.443   2.026 -0.7002  2.2925 -0.8883
10803TIP3    H253825   1.452   1.455   2.000 -0.4942  1.6781 -0.0311
10804TIP3   OH253826   2.373   1.417   4.240  0.4099 -0.0357 -0.0651
10804TIP3    H153827   2.401   1.348   4.180 -1.5614 -1.6376  0.7504
10804TIP3    H253828   2.433   1.409   4.314 -0.2374 -1.4389  0.3560
10805TIP3   OH253829   4.332   6.275  11.320 -0.1740 -0.1763  0.1411
10805TIP3    H153830   4.270   6.219  11.273  0.9520 -1.7893  0.4893
10805TIP3    H253831   4.284   6.306  11.396 -0.7893 -0.7861  0.0119
10806TIP3   OH253832   5.885   2.145  13.580  0.8326  0.1283 -0.1043
10806TIP3    H153833   5.975   2.151  13.549  0.2089  0.0428 -2.0497
10806TIP3    H253834   5.853   2.236  13.579  0.8954  0.1626  0.6064
10807TIP3   OH253835   2.616   0.016  15.492  0.2044 -0.3841  0.0335
10807TIP3    H153836   2.615   0.008  15.587 -0.9201  2.9704  0.4596
10807TIP3    H253837   2.569  -0.061  15.460 -2.3361  0.0032  2.4545
10808TIP3   OH253838   5.595   2.558  16.349  0.3119  0.1101 -0.0708
10808TIP3    H153839   5.617   2.559  16.256 -0.5923  1.1242 -0.3032
10808TIP3    H253840   5.677   2.538  16.394  1.2826  1.8467 -0.9717
10809TIP3   OH253841   2.636   1.783   3.990 -0.4706 -0.0262  0.1030
10809TIP3    H153842   2.594   1.813   3.910 -0.5632  0.2313  0.2471
10809TIP3    H253843   2.571   1.800   4.059 -0.6925 -0.9273  0.1324
10810TIP3   OH253844   6.547   6.282   1.508 -0.0752  0.1211 -0.4082
10810TIP3    H153845   6.553   6.297   1.414 -0.3410 -0.6692 -0.5584
10810TIP3    H253846   6.516   6.192   1.516 -2.9088  1.0642  0.3764
10811TIP3   OH253847   6.093   4.367   5.324 -0.4849  0.3964 -0.3661
10811TIP3    H153848   6.019   4.307   5.336  0.3128 -1.0281 -2.0385
10811TIP3    H253849   6.122   4.388   5.412 -0.5811 -2.0225  0.3195
10812TIP3   OH253850   6.217   4.986   3.163 -0.1026 -0.0837 -0.1730
10812TIP3    H153851   6.269   4.931   3.221  0.5275  0.8894  0.2072
10812TIP3    H253852   6.156   5.031   3.221  1.2101  1.6792 -0.0506
10813TIP3   OH253853   4.168   2.636   2.528 -0.4983 -0.4673 -0.4763
10813TIP3    H153854   4.108   2.603   2.460 -1.0849  0.3537 -0.3835
10813TIP3    H253855   4.161   2.572   2.599 -2.4700  0.3562  0.1609
10814TIP3   OH253856   4.893   4.252  13.716 -0.1430 -0.4334 -0.7392
10814TIP3    H153857   4.821   4.288  13.662 -0.1310  1.2203  0.2711
10814TIP3    H253858   4.971   4.299  13.685  0.0485 -0.3011 -0.0619
10815TIP3   OH253859   2.335   0.948  12.474 -0.0233 -0.4284  0.1720
10815TIP3    H153860   2.392   0.945  12.397  1.4627  1.0882  1.1311
10815TIP3    H253861   2.337   1.040  12.502 -1.7448 -0.6418  1.1550
10816TIP3   OH253862   1.458   1.300  14.102  0.5896 -0.0492  0.8472
10816TIP3    H153863   1.424   1.385  14.075  1.6920  0.5847  1.4088
10816TIP3    H253864   1.380   1.244  14.107  0.1281  0.2130 -1.9936
10817TIP3   OH253865   2.441   1.808  17.093 -0.0610  0.2788 -0.3461
10817TIP3    H153866   2.480   1.861  17.162 -1.0953 -1.4377  1.6756
10817TIP3    H253867   2.349   1.803  17.116 -0.4789 -0.2090 -1.9905
10818TIP3   OH253868   2.557   2.520   5.566 -0.6444 -0.1385  0.8451
10818TIP3    H153869   2.601   2.445   5.607  0.4365 -0.7969 -1.3594
10818TIP3    H253870   2.546   2.494   5.475 -1.2683  1.9693  0.2703
10819TIP3   OH253871   0.565   5.272   3.453  0.3518 -0.6361 -0.6977
10819TIP3    H153872   0.585   5.183   3.425 -0.0565 -0.6965 -0.8020
10819TIP3    H253873   0.475   5.286   3.426  0.4638 -0.1312 -0.8289
10820TIP3   OH253874   0.693   2.825   0.501 -0.1481  0.6917  0.4725
10820TIP3    H153875   0.607   2.823   0.543 -0.6988  1.7615 -0.5359
10820TIP3    H253876   0.679   2.783   0.416  0.3917  0.6217  0.4171
10821TIP3   OH253877   4.855   0.340  12.862 -0.2124 -0.1027 -0.5511
10821TIP3    H153878   4.830   0.250  12.841 -1.7144  0.3971 -1.0320
10821TIP3    H253879   4.773   0.382  12.891  0.6174  0.8991  0.4421
10822TIP3   OH253880   5.317   1.464   3.655  0.0788  0.4350 -0.0740
10822TIP3    H153881   5.319   1.474   3.560  1.5498 -0.3039 -0.1486
10822TIP3    H253882   5.224   1.458   3.677 -0.2560 -2.3689 -1.7885
10823TIP3   OH253883   0.976   3.434  14.542 -0.0473 -0.3931  0.1148
10823TIP3    H153884   1.027   3.514  14.553  2.4156 -1.5695 -1.8456
10823TIP3    H253885   0.890   3.465  14.512  0.1480  1.5529  1.3676
10824TIP3   OH253886   6.622   0.191  15.697  0.1070  0.4982  0.3348
10824TIP3    H153887   6.677   0.125  15.655  0.0927  0.7996 -0.1683
10824TIP3    H253888   6.567   0.225  15.626  0.0135  0.9428  0.6170
10825TIP3   OH253889   3.643   3.619  16.051  0.2087 -0.5624  0.0465
10825TIP3    H153890   3.648   3.658  15.964  1.0331  2.7564  1.4067
10825TIP3    H253891   3.555   3.582  16.057 -0.3967  0.5128 -1.6573
10826TIP3   OH253892   3.819   1.664   5.171  0.4009  0.2125 -0.1563
10826TIP3    H153893   3.767   1.673   5.251  0.9885  2.1313  0.0674
10826TIP3    H253894   3.910   1.673   5.200  0.7636 -1.1387 -0.7943
10827TIP3   OH253895   1.432   0.546   5.635  0.1946 -0.3634 -0.2313
10827TIP3    H153896   1.353   0.504   5.671  1.5006 -2.4997  0.3249
10827TIP3    H253897   1.428   0.636   5.667 -1.0560 -0.9475  1.4024
10828TIP3   OH253898   0.502   5.975  16.272  0.3406 -0.0345 -0.2189
10828TIP3    H153899   0.511   5.983  16.177  2.6050 -0.5032 -0.1055
10828TIP3    H253900   0.585   6.010  16.306 -0.6554  0.6430  1.6325
10829TIP3   OH253901   1.107   2.635  11.767 -0.3145  0.4294 -0.4370
10829TIP3    H153902   1.178   2.580  11.801  0.6266  1.2357 -1.0278
10829TIP3    H253903   1.152   2.712  11.733 -1.2138 -0.1840 -3.2254
10830TIP3   OH253904   3.048   4.819   6.231  0.2377 -0.4178 -0.1075
10830TIP3    H153905   2.972   4.872   6.255 -0.1290 -0.8975 -0.1832
10830TIP3    H253906   3.077   4.779   6.313  0.1686 -0.5331 -0.1373
10831TIP3   OH253907   6.491   2.045   2.877  0.1896  0.2781 -0.0428
10831TIP3    H153908   6.543   2.030   2.798  1.6723 -1.8542  1.2457
10831TIP3    H253909   6.498   2.140   2.892 -2.5713  1.3259 -3.9652
10832TIP3   OH253910   4.797   5.604  15.328 -0.1749 -0.3648  0.1575
10832TIP3    H153911   4.705   5.604  15.355  0.0774 -1.9164  1.1799
10832TIP3    H253912   4.842   5.552  15.395  1.2791 -0.4997 -0.8612
10833TIP3   OH253913   3.762   6.273   1.282 -0.0003 -0.0487  0.6389
10833TIP3    H153914   3.725   6.259   1.370 -0.0036  1.8445  0.9869
10833TIP3    H253915   3.855   6.288   1.298 -0.1111  0.9651  0.4179
10834TIP3   OH253916   1.999   2.756   3.352 -0.4805 -0.3271 -0.5356
10834TIP3    H153917   2.089   2.734   3.326 -0.4518 -0.3508 -0.4140
10834TIP3    H253918   1.953   2.673   3.355  0.7717 -1.1757  4.6210
10835TIP3   OH253919   5.862   6.677   2.571  0.4941  0.2874  0.1593
10835TIP3    H153920   5.808   6.697   2.648  0.0786  0.0473 -0.0670
10835TIP3    H253921   5.872   6.761   2.526 -1.0013  0.0700 -0.6356
10836TIP3   OH253922   0.522   6.211   4.986 -0.4661 -0.3476  0.0824
10836TIP3    H153923   0.532   6.116   4.986 -2.4462 -0.6380 -2.0095
10836TIP3    H253924   0.596   6.243   5.038  0.9010 -2.9561 -0.0901
10837TIP3   OH253925   4.485   4.493  15.476  0.1245  0.3623 -0.0625
10837TIP3    H153926   4.518   4.580  15.456 -1.9970  1.3551  0.5202
10837TIP3    H253927   4.395   4.507  15.506 -0.1805 -1.9986  0.3408
10838TIP3   OH253928   5.764   1.929  13.380  0.4001 -0.6004 -0.5481
10838TIP3    H153929   5.829   1.953  13.313  1.7982 -0.8068  0.6831
10838TIP3    H253930   5.735   1.842  13.355 -2.1520  0.7998 -3.1164
10839TIP3   OH253931   0.292   5.663  14.917 -0.2232  0.1058 -0.6411
10839TIP3    H153932   0.328   5.594  14.861 -1.1972  0.1661 -1.3577
10839TIP3    H253933   0.358   5.732  14.916  0.6601 -0.6966 -0.1115
10840TIP3   OH253934   3.939   2.383   5.685  0.4116  0.0033 -0.0606
10840TIP3    H153935   3.967   2.454   5.742 -1.1486  0.0833  0.6563
10840TIP3    H253936   3.934   2.307   5.742  0.7482 -0.3674 -0.5260
10841TIP3   OH253937   1.466   4.572  11.272 -0.5745  0.4270  0.0440
10841TIP3    H153938   1.554   4.536  11.265 -0.8030  0.0850 -1.2030
10841TIP3    H253939   1.466   4.617  11.357 -0.0600 -1.8285  1.3276
10842TIP3   OH253940   1.718   2.734   1.236 -0.0347 -0.3790 -0.2326
10842TIP3    H153941   1.676   2.819   1.250 -0.1303 -0.2545 -1.2038
10842TIP3    H253942   1.707   2.688   1.320  1.0176  0.9685  0.6770
10843TIP3   OH253943   3.532   4.026   5.981  0.5249 -0.2535  0.0501
10843TIP3    H153944   3.449   3.980   5.967 -0.2689  1.3872 -0.9590
10843TIP3    H253945   3.598   3.957   5.980 -0.4511 -1.2675 -2.8481
10844TIP3   OH253946   5.240   2.222   0.801 -0.2031  0.1828 -0.5186
10844TIP3    H153947   5.294   2.214   0.879 -0.0038 -1.1492 -0.7574
10844TIP3    H253948   5.157   2.259   0.832  0.0212  0.0419  0.2551
10845TIP3   OH253949   3.034   3.332  11.918  0.4935  0.5747 -0.2985
10845TIP3    H153950   3.076   3.354  11.835  0.0645  1.1392 -0.3694
10845TIP3    H253951   3.028   3.415  11.965  1.4731  0.1227  0.6503
10846TIP3   OH253952   3.039   0.835  15.109 -0.2238  0.1663 -0.6395
10846TIP3    H153953   2.976   0.779  15.154 -0.1329  0.7976  0.3001
10846TIP3    H253954   3.118   0.831  15.164 -0.0060  0.7032 -0.9056
10847TIP3   OH253955   4.458   4.477   3.966  0.1565  0.2155 -0.0251
10847TIP3    H153956   4.495   4.540   3.905  0.9576  0.4831  0.6991
10847TIP3    H253957   4.510   4.397   3.953  0.7256  0.4555  0.6930
10848TIP3   OH253958   6.051   0.058   5.488 -0.0146 -0.0665 -0.6011
10848TIP3    H153959   6.021  -0.030   5.466  1.0168 -0.6558  0.2328
10848TIP3    H253960   6.000   0.084   5.565 -0.4201  0.1288 -0.9336
10849TIP3   OH253961   0.387   3.884  12.611 -0.5830 -0.0173 -0.0044
10849TIP3    H153962   0.369   3.915  12.700  0.4823  1.6602 -0.3428
10849TIP3    H253963   0.482   3.868  12.610 -0.8374 -1.7917 -0.3422
10850TIP3   OH253964   6.500   6.300  11.455  0.3428 -0.2652  0.7084
10850TIP3    H153965   6.504   6.246  11.376  0.8539  1.7871 -0.7579
10850TIP3    H253966   6.457   6.381  11.426 -0.1533  0.2399  2.7363
10851TIP3   OH253967   4.036   5.559   0.722  0.6449  0.0764 -0.1033
10851TIP3    H153968   4.128   5.548   0.701  0.9550 -0.0499  1.2490
10851TIP3    H253969   4.028   5.648   0.756  0.5376 -0.3385  1.0162
10852TIP3   OH253970   6.337   6.278  14.207 -0.6493 -0.4496  0.1119
10852TIP3    H153971   6.381   6.194  14.197 -0.6520 -0.4555  0.1488
10852TIP3    H253972   6.284   6.287  14.128 -0.0387 -0.1188 -0.2756
10853TIP3   OH253973   1.956   3.314   2.081  0.5782 -0.8668  0.6733
10853TIP3    H153974   1.927   3.372   2.150  2.4764  1.3417 -0.2591
10853TIP3    H253975   1.916   3.349   2.001  2.1500 -0.4534  0.0250
10854TIP3   OH253976   5.363   2.298  13.355  0.2780  0.1510  0.0788
10854TIP3    H153977   5.285   2.336  13.396  0.1291 -1.5780  1.5325
10854TIP3    H253978   5.424   2.285  13.428  1.5892  0.5989 -0.8916
10855TIP3   OH253979   3.262   4.870  12.235 -0.2698  0.3584 -0.2513
10855TIP3    H153980   3.248   4.961  12.211  2.0851  0.9772  0.4266
10855TIP3    H253981   3.178   4.841  12.270 -2.1487  1.1176 -3.7292
10856TIP3   OH253982   5.098   5.069  11.560 -0.3577 -0.0187 -0.4329
10856TIP3    H153983   5.053   5.153  11.571 -1.0256 -0.3595 -0.5109
10856TIP3    H253984   5.188   5.086  11.588 -0.0785  1.1278 -1.9107
10857TIP3   OH253985   3.248   2.232  16.426 -0.1502  0.3499 -0.4193
10857TIP3    H153986   3.154   2.246  16.439 -0.0750  1.3368 -0.8860
10857TIP3    H253987   3.260   2.138  16.441 -0.8175  0.5831  1.9684
10858TIP3   OH253988   0.957   2.752   4.392  0.6366  0.3252 -0.6729
10858TIP3    H153989   1.022   2.749   4.461 -0.2459 -1.6168  0.1722
10858TIP3    H253990   0.908   2.833   4.407 -0.2217 -0.5555  1.7000
10859TIP3   OH253991   0.753   3.108  16.925  0.1261  0.5924 -0.1468
10859TIP3    H153992   0.785   3.033  16.975  1.3023  1.4809  0.4797
10859TIP3    H253993   0.818   3.177  16.940 -1.5072  2.1241  0.2623
10860TIP3   OH253994   4.497   6.644   3.706 -0.4023  0.0405 -0.0401
10860TIP3    H153995   4.437   6.590   3.655 -1.6172  1.2287  0.0732
10860TIP3    H253996   4.540   6.701   3.642 -1.1485  0.8056  0.1280
10861TIP3   OH253997   3.359   4.174   0.656 -0.1614  0.1076 -0.0887
10861TIP3    H153998   3.384   4.141   0.569  0.2935 -1.8206  0.7323
10861TIP3    H253999   3.426   4.138   0.715 -0.7523  0.9718  1.1354
10862TIP3   OH254000   6.769   1.610   0.923 -0.1675 -0.0021  0.2510
10862TIP3    H154001   6.796   1.654   1.004 -0.2960 -0.2845  0.4508
10862TIP3    H254002   6.828   1.644   0.856 -0.4939  0.7397  0.3307
10863TIP3   OH254003   6.104   0.398   3.951  0.2189  0.6472 -0.0020
10863TIP3    H154004   6.171   0.330   3.958  0.1891  0.7712  3.1575
10863TIP3    H254005   6.030   0.356   3.908  1.5039 -0.1221 -1.5872
10864TIP3   OH254006   1.456   4.470  13.716  0.6345 -0.1377  0.0390
10864TIP3    H154007   1.483   4.555  13.682 -1.8792  0.0426 -1.8042
10864TIP3    H254008   1.423   4.423  13.640 -0.1352 -1.8974  1.3886
10865TIP3   OH254009   3.645   6.149   3.420  0.0346  0.5984  0.4242
10865TIP3    H154010   3.682   6.077   3.471  0.1734  1.3789  1.4422
10865TIP3    H254011   3.705   6.222   3.435 -1.0021  1.3960  0.7179
10866TIP3   OH254012   2.854   5.805   2.218 -0.2639  0.0187  0.2411
10866TIP3    H154013   2.921   5.738   2.201 -0.0159 -0.6234  3.2074
10866TIP3    H254014   2.815   5.779   2.301 -2.7304  1.6140 -0.3109
10867TIP3   OH254015   5.258   2.545  12.494  0.5745 -0.2132 -0.1017
10867TIP3    H154016   5.287   2.632  12.465 -1.5480  0.6642  0.2291
10867TIP3    H254017   5.255   2.493  12.414  1.0116  0.2696 -0.4387
10868TIP3   OH254018   4.922   2.457   5.490  0.0566  0.0327 -0.9058
10868TIP3    H154019   4.880   2.518   5.429  0.5055  0.7246 -0.5262
10868TIP3    H254020   5.016   2.470   5.477  0.1579  0.3148  0.0602
10869TIP3   OH254021   4.972   6.759   3.793  0.0516  0.4988 -0.3360
10869TIP3    H154022   4.978   6.766   3.888  0.5084  1.2809 -0.4104
10869TIP3    H254023   5.063   6.760   3.763 -0.0127 -1.2816 -0.7072
10870TIP3   OH254024   5.316   3.137  11.604  0.1745 -0.3948 -0.3954
10870TIP3    H154025   5.281   3.060  11.648  1.8077  0.8256  3.3824
10870TIP3    H254026   5.239   3.192  11.588 -0.3791  0.6972  4.5326
10871TIP3   OH254027   0.799   3.585   1.889  0.2470  0.6621  0.4890
10871TIP3    H154028   0.820   3.601   1.797  1.2280 -0.8428  0.4286
10871TIP3    H254029   0.721   3.639   1.905  0.9180  2.1004 -0.7933
10872TIP3   OH254030   5.815   2.682  13.296 -0.1507  0.0807 -0.0327
10872TIP3    H154031   5.818   2.768  13.254  0.4000  0.7581  1.3371
10872TIP3    H254032   5.725   2.673  13.327  0.1929  0.9178  1.2807
10873TIP3   OH254033   5.809   1.921  15.225 -0.1010 -0.2527 -0.3877
10873TIP3    H154034   5.833   1.951  15.137  1.2984 -2.4912 -0.8516
10873TIP3    H254035   5.714   1.906  15.220 -0.3608  1.4044 -0.9187
10874TIP3   OH254036   6.519   3.911   4.213 -0.7013 -0.3486  0.1853
10874TIP3    H154037   6.596   3.862   4.184 -1.0890 -1.3198  0.7745
10874TIP3    H254038   6.497   3.967   4.138 -0.1842 -0.9816 -0.4525
10875TIP3   OH254039   5.717   5.336   1.886 -0.3630  0.2455  0.2810
10875TIP3    H154040   5.625   5.361   1.883 -0.7031 -0.9770 -0.3930
10875TIP3    H254041   5.734   5.317   1.978  0.0307  3.1794  0.9049
10876TIP3   OH254042   5.338   0.565   5.005  0.2802 -0.0779 -0.3173
10876TIP3    H154043   5.408   0.509   5.037 -0.5074 -1.1251 -0.3835
10876TIP3    H254044   5.338   0.640   5.064  0.9967 -0.3985  0.0987
10877TIP3   OH254045   0.799   1.430   3.620  0.6858  0.0661 -0.3643
10877TIP3    H154046   0.759   1.482   3.550 -1.1193  0.3198  0.7856
10877TIP3    H254047   0.805   1.490   3.694 -3.5983 -1.7194  1.7690
10878TIP3   OH254048   5.948   0.059   1.828  0.2739 -0.7273  0.0202
10878TIP3    H154049   6.035   0.020   1.823  0.9228  0.6338  0.1010
10878TIP3    H254050   5.889  -0.014   1.848  0.8757 -2.3420 -3.3101
10879TIP3   OH254051   6.047   3.499  13.378  0.1304 -0.0939 -0.5535
10879TIP3    H154052   6.091   3.571  13.422  0.3012 -0.0877 -0.7327
10879TIP3    H254053   5.986   3.543  13.318  1.3089 -0.0586 -1.7813
10880TIP3   OH254054   4.575   3.909  14.589 -0.6466 -0.4971  0.2573
10880TIP3    H154055   4.657   3.940  14.549 -0.5896 -2.1247 -0.9902
10880TIP3    H254056   4.596   3.899  14.681  0.1844  0.2683  0.1695
10881TIP3   OH254057   6.616   1.899   2.357  0.3161  0.0176 -0.4069
10881TIP3    H154058   6.581   1.819   2.319 -0.9636  1.1022 -1.6170
10881TIP3    H254059   6.637   1.954   2.281  0.5020  1.1046  0.4117
10882TIP3   OH254060   2.049   2.021  11.725  0.4097  0.2292 -0.4669
10882TIP3    H154061   1.999   2.042  11.647 -2.2966  0.6797  1.2539
10882TIP3    H254062   2.081   1.932  11.711 -0.9304 -0.0837 -1.6454
10883TIP3   OH254063   6.431   0.137  10.637 -0.5415 -0.7057 -0.3625
10883TIP3    H154064   6.434   0.067  10.702 -3.0238 -0.8117 -0.2698
10883TIP3    H254065   6.406   0.093  10.556 -0.2484 -0.1695 -0.7477
10884TIP3   OH254066   3.488   1.739   1.856 -0.2690  0.0021 -0.0409
10884TIP3    H154067   3.563   1.740   1.797  0.7331  0.4957  1.1878
10884TIP3    H254068   3.497   1.657   1.905  0.5080  0.8752  1.3426
10885TIP3   OH254069   0.246   1.485  14.048 -0.2288  0.2311  0.0605
10885TIP3    H154070   0.317   1.513  14.106  0.0712 -0.8608  0.2402
10885TIP3    H254071   0.283   1.494  13.960 -0.2180  0.5985  0.0982
10886TIP3   OH254072   4.280   3.776  14.977  0.1970 -0.2329 -0.3536
10886TIP3    H154073   4.306   3.748  14.890  3.5263  1.0335  0.0797
10886TIP3    H254074   4.333   3.854  14.995 -2.2739  1.1456  1.8354
10887TIP3   OH254075   3.430   3.122  14.140  0.0512 -0.3582  0.3547
10887TIP3    H154076   3.366   3.188  14.165 -0.3154 -1.0321  1.2726
10887TIP3    H254077   3.453   3.078  14.222  0.6599 -1.0293 -0.1561
10888TIP3   OH254078   2.397   5.493   5.027 -0.3308  0.4380  0.1755
10888TIP3    H154079   2.461   5.488   5.099 -0.2979 -1.6001  0.0784
10888TIP3    H254080   2.447   5.467   4.950 -0.6791  1.3636 -0.3647
10889TIP3   OH254081   1.921   1.757  14.912 -0.3859 -0.3573  0.1073
10889TIP3    H154082   1.832   1.725  14.896 -0.1264 -1.5666  0.9373
10889TIP3    H254083   1.972   1.721  14.840 -0.9167  2.2648 -1.7347
10890TIP3   OH254084   1.554   5.072  11.462  0.4903  0.1271 -0.0010
10890TIP3    H154085   1.479   5.036  11.414  0.9298  0.5156 -1.0077
10890TIP3    H254086   1.536   5.052  11.553  0.4854 -2.2365 -0.4692
10891TIP3   OH254087   1.001   5.850  14.246 -0.3372 -0.2415  0.0139
10891TIP3    H154088   0.934   5.914  14.270  2.5456  2.3117  2.1573
10891TIP3    H254089   1.066   5.900  14.196  0.9418 -2.0352 -0.2296
10892TIP3   OH254090   2.729   3.608  11.765 -0.2170  0.3879 -0.1741
10892TIP3    H154091   2.693   3.575  11.683 -0.2631 -3.2084  1.1140
10892TIP3    H254092   2.715   3.703  11.761 -1.7755  0.1590 -3.5078
10893TIP3   OH254093   2.693   1.403  11.571  0.3316 -0.7595 -0.5858
10893TIP3    H154094   2.751   1.419  11.646 -0.3782  1.6717 -0.4772
10893TIP3    H254095   2.719   1.469  11.506 -0.4666 -1.4639 -1.6475
10894TIP3   OH254096   0.174   5.189   2.141  0.2842  0.1144  0.0239
10894TIP3    H154097   0.248   5.147   2.098  0.1873 -0.9475  0.8722
10894TIP3    H254098   0.143   5.125   2.205 -2.1143  0.0089 -1.1108
10895TIP3   OH254099   0.937   6.015  14.535 -1.1916 -0.1202  0.7236
10895TIP3    H154100   0.904   5.989  14.621 -0.1418  0.8867  1.4642
10895TIP3    H254101   0.868   5.989  14.474 -2.9636  1.1024  2.0904
10896TIP3   OH254102   0.593   3.042  15.351 -0.2376  0.3384  0.2037
10896TIP3    H154103   0.657   3.088  15.404 -1.5431  2.5067  0.0008
10896TIP3    H254104   0.581   2.958  15.396  2.6168 -0.1047  0.2746
10897TIP3   OH254105   4.451   2.878   3.733  0.6570  0.6829  0.1135
10897TIP3    H154106   4.369   2.928   3.734  0.3608  0.1973  0.9894
10897TIP3    H254107   4.471   2.868   3.640 -0.3696  0.6811 -0.1228
10898TIP3   OH254108   6.705   3.394  16.338 -0.2099  0.0631  0.5289
10898TIP3    H154109   6.667   3.306  16.348 -0.7504  0.1464 -0.6370
10898TIP3    H254110   6.683   3.439  16.419 -2.6043  0.0857 -0.0464
10899TIP3   OH254111   3.490   0.348   2.059  0.5029 -0.6809  0.4371
10899TIP3    H154112   3.557   0.281   2.071  0.1290 -0.9210  1.2473
10899TIP3    H254113   3.481   0.357   1.964  1.2705 -1.0525  0.3241
10900TIP3   OH254114   1.512   5.815  16.673  0.2360 -0.1631  0.6276
10900TIP3    H154115   1.511   5.812  16.577  0.7765 -1.5946  0.6506
10900TIP3    H254116   1.421   5.826  16.698 -0.1375 -1.6410 -0.0164
10901TIP3   OH254117   1.817   0.668  14.368  0.7242  0.7250  0.0401
10901TIP3    H154118   1.854   0.603  14.427  2.7139  1.3719 -0.4368
10901TIP3    H254119   1.877   0.742  14.373  0.7583  0.9583 -2.4941
10902TIP3   OH254120   6.657   4.051  15.335  0.0339 -0.7530 -0.8426
10902TIP3    H154121   6.732   4.075  15.281  1.3795 -0.4024  1.0502
10902TIP3    H254122   6.646   3.957  15.320  2.2484 -1.2854  0.3599
10903TIP3   OH254123   6.596   6.316  13.287 -0.4586 -0.8666  0.4451
10903TIP3    H154124   6.597   6.338  13.381 -1.4044 -1.2130  0.5473
10903TIP3    H254125   6.510   6.344  13.257 -0.2663 -1.0247 -0.2628
10904TIP3   OH254126   0.324   0.134  11.787  0.4056  0.5233  0.2489
10904TIP3    H154127   0.273   0.079  11.727  1.0065  0.2661 -0.0328
10904TIP3    H254128   0.386   0.180  11.731  0.8995  0.3621  0.6546
10905TIP3   OH254129   1.668   5.201  13.259 -0.5904 -0.7187 -0.6216
10905TIP3    H154130   1.617   5.279  13.239  0.3007  0.0445  0.0145
10905TIP3    H254131   1.720   5.185  13.181  0.1090  0.0440 -0.3252
10906TIP3   OH254132   1.329   5.129   1.398 -0.2141  0.3401 -0.6896
10906TIP3    H154133   1.358   5.066   1.332 -2.2858 -2.1107  0.5581
10906TIP3    H254134   1.241   5.154   1.370 -0.6915  0.0897  0.5230
10907TIP3   OH254135   2.486   5.024  13.919 -0.2468  0.1247  0.2847
10907TIP3    H154136   2.434   5.068  13.986  0.5145  1.5909 -0.0543
10907TIP3    H254137   2.491   4.933  13.949 -0.5975  0.5743  1.7896
10908TIP3   OH254138   4.742   0.932  14.942  0.6094  0.2511 -0.7559
10908TIP3    H154139   4.686   0.899  14.871 -0.1020 -0.4481  0.1151
10908TIP3    H254140   4.682   0.983  14.997  0.9566 -0.0380 -0.1148
10909TIP3   OH254141   4.367   5.082  13.805  0.2794  0.4019  0.0806
10909TIP3    H154142   4.450   5.061  13.847 -0.2076 -1.2192  0.3263
10909TIP3    H254143   4.308   5.104  13.877  0.3204  0.9247 -0.0415
10910TIP3   OH254144   6.524   2.715   2.270 -0.2692 -0.1640  0.4586
10910TIP3    H154145   6.506   2.624   2.291 -0.7045 -0.4470 -1.0234
10910TIP3    H254146   6.618   2.718   2.253 -0.4055 -0.5556 -0.4220
10911TIP3   OH254147   3.321   2.530  15.535  0.2972 -0.3680 -0.3675
10911TIP3    H154148   3.259   2.566  15.471 -2.0162 -0.7388  1.5393
10911TIP3    H254149   3.300   2.437  15.539  0.8128 -0.4581  0.4924
10912TIP3   OH254150   6.543   2.325   6.314 -0.0503  0.0275  0.3063
10912TIP3    H154151   6.543   2.383   6.238  0.2967  0.2289  0.4534
10912TIP3    H254152   6.460   2.279   6.310 -0.0583  0.0827 -0.1608
10913TIP3   OH254153   6.345   1.972  11.540 -0.5956  0.5796 -0.4597
10913TIP3    H154154   6.352   1.878  11.556 -0.7788  0.9002  1.8536
10913TIP3    H254155   6.337   2.010  11.627  1.5224  2.9286 -1.1804
10914TIP3   OH254156   0.329   0.665  14.181  0.7063  0.4502 -0.6735
10914TIP3    H154157   0.360   0.722  14.111  1.1096 -0.3738 -1.1751
10914TIP3    H254158   0.409   0.627  14.218  0.5568  1.4014  0.7092
10915TIP3   OH254159   5.445   1.988  15.847 -0.1948 -0.0791  0.0803
10915TIP3    H154160   5.520   2.003  15.789 -1.5103 -0.1708 -1.7455
10915TIP3    H254161   5.470   2.026  15.931  0.6718  2.7368 -1.3577
10916TIP3   OH254162   0.657   2.952   3.506  0.4452  0.5728  0.3128
10916TIP3    H154163   0.698   2.899   3.438 -1.0731  0.9591 -0.9653
10916TIP3    H254164   0.591   2.894   3.544 -0.5934  1.2101 -0.4639
10917TIP3   OH254165   2.844   2.313   3.218 -0.0386 -0.3311 -0.2085
10917TIP3    H154166   2.768   2.363   3.246 -0.2385 -0.2560 -0.8806
10917TIP3    H254167   2.811   2.224   3.203 -0.1045 -0.1802 -0.9942
10918TIP3   OH254168   6.039   1.099  12.710  0.3172  0.2049 -0.6679
10918TIP3    H154169   6.084   1.055  12.782  0.0807 -0.3897 -0.8821
10918TIP3    H254170   5.946   1.094  12.734  0.3604  1.9129  0.0541
10919TIP3   OH254171   1.243   1.908  12.561 -0.1832 -0.3479  0.3175
10919TIP3    H154172   1.204   1.982  12.607  1.0409  0.3036  0.3702
10919TIP3    H254173   1.324   1.944  12.523 -0.1553 -1.3774 -0.6348
10920TIP3   OH254174   2.704   0.028   5.204  0.5290  0.3929  0.0932
10920TIP3    H154175   2.689   0.115   5.168 -0.7171 -0.9473 -3.0397
10920TIP3    H254176   2.789   0.002   5.169  0.6617  0.1759  0.5750
10921TIP3   OH254177   5.244   1.284  15.227  0.1115 -0.1847 -0.1686
10921TIP3    H154178   5.154   1.308  15.208  0.4962  0.9191 -0.6764
10921TIP3    H254179   5.242   1.189  15.239 -1.5039  0.0493  2.0324
10922TIP3   OH254180   1.441   4.958   4.576  0.0105 -0.2887  0.2303
10922TIP3    H154181   1.481   5.042   4.598  1.7377 -0.1722 -2.8408
10922TIP3    H254182   1.462   4.901   4.650  0.6374  1.4031  1.4068
10923TIP3   OH254183   3.141   6.301  13.241  0.4954 -0.0975  0.3071
10923TIP3    H154184   3.130   6.344  13.326 -0.2070  0.4536 -0.0597
10923TIP3    H254185   3.108   6.364  13.177  1.0739 -0.4864 -0.3853
10924TIP3   OH254186   2.115   1.320   6.024  0.1059 -0.0233  0.3675
10924TIP3    H154187   2.153   1.245   5.978 -1.5424 -0.8886  0.3211
10924TIP3    H254188   2.024   1.294   6.039  0.2087  0.8002  2.8608
10925TIP3   OH254189   2.831   0.440  15.342  0.5483 -0.3056 -0.7929
10925TIP3    H154190   2.761   0.395  15.388  1.9725 -1.8396 -0.0465
10925TIP3    H254191   2.818   0.416  15.250  0.3398 -0.8916 -0.6125
10926TIP3   OH254192   3.852   6.097  15.236  0.4829 -0.3566 -0.3621
10926TIP3    H154193   3.895   6.160  15.178 -1.0544  0.9619 -0.1414
10926TIP3    H254194   3.883   6.120  15.324 -1.7717  1.7018  0.0117
10927TIP3   OH254195   4.579   1.922  16.203  0.8682 -0.0820  0.3532
10927TIP3    H154196   4.489   1.893  16.192  0.7099 -0.0581  1.4290
10927TIP3    H254197   4.625   1.889  16.127 -0.3388  1.1400 -0.9718
10928TIP3   OH254198   4.652   6.170  13.939 -0.6054 -0.1562 -0.2366
10928TIP3    H154199   4.720   6.227  13.902  0.4282  0.4647  2.3519
10928TIP3    H254200   4.573   6.191  13.889  0.5758  0.8643 -1.7661
10929TIP3   OH254201   2.990   2.730   3.738  0.0601  0.1064 -0.0279
10929TIP3    H154202   3.073   2.765   3.707 -0.8635 -0.1314 -3.1334
10929TIP3    H254203   2.950   2.803   3.786  0.5802  1.4573 -1.5417
10930TIP3   OH254204   3.342   6.363   5.350  0.2902 -0.1332 -1.1181
10930TIP3    H154205   3.408   6.376   5.282  3.2636 -0.1609  1.5025
10930TIP3    H254206   3.373   6.417   5.423 -1.5578 -1.6432  0.9187
10931TIP3   OH254207   4.407   6.370  11.836  0.2643 -0.6237 -0.2526
10931TIP3    H154208   4.444   6.315  11.905  0.7056 -1.9421 -1.4766
10931TIP3    H254209   4.482   6.419  11.802  0.0566 -0.0073  0.1766
10932TIP3   OH254210   3.023   5.830   1.641  0.2751 -0.1810  0.4901
10932TIP3    H154211   2.928   5.843   1.635  0.1823  0.9506  3.0702
10932TIP3    H254212   3.033   5.747   1.688  0.5657 -0.2628  0.2854
10933TIP3   OH254213   2.170   3.792  15.531 -0.3788  0.1363 -0.5629
10933TIP3    H154214   2.198   3.883  15.541 -0.0680 -0.1432  1.5808
10933TIP3    H254215   2.120   3.791  15.450 -1.7832  2.5723  0.1876
10934TIP3   OH254216   0.899   2.314   0.700  0.1613  0.3941 -0.2505
10934TIP3    H154217   0.974   2.336   0.644  1.0646  0.0851  0.8094
10934TIP3    H254218   0.879   2.223   0.678 -0.1075  0.5680 -0.7475
10935TIP3   OH254219   3.469   0.586  16.824 -0.2097 -0.0598 -0.1709
10935TIP3    H154220   3.472   0.661  16.884  0.3126 -2.1162  2.5667
10935TIP3    H254221   3.375   0.572  16.809 -0.3030  1.3610 -1.0837
10936TIP3   OH254222   2.238   6.386   3.583 -0.5259 -0.0620 -0.3120
10936TIP3    H154223   2.250   6.478   3.607  0.9801 -0.7103  1.6896
10936TIP3    H254224   2.144   6.378   3.565 -0.8292  1.6615  0.2898
10937TIP3   OH254225   3.170   6.365   4.677  0.0055 -0.5588  0.3902
10937TIP3    H154226   3.172   6.455   4.709  2.6258  0.1824 -1.5209
10937TIP3    H254227   3.088   6.358   4.629 -1.9236 -0.3843  3.4077
10938TIP3   OH254228   2.488   4.695   3.766 -0.0652  0.5155  0.4501
10938TIP3    H154229   2.422   4.722   3.702  1.5248  1.7796 -0.7316
10938TIP3    H254230   2.566   4.679   3.714  1.2724  1.4909  2.0775
10939TIP3   OH254231   4.698   4.472  12.229 -0.4904  0.6671  0.2930
10939TIP3    H154232   4.703   4.386  12.271 -2.3393 -0.7408 -2.1112
10939TIP3    H254233   4.765   4.469  12.160 -0.7685  1.0278  0.0025
10940TIP3   OH254234   4.487   2.173   3.354 -0.7998 -0.3668 -0.6505
10940TIP3    H154235   4.513   2.081   3.358  0.8138  0.0799  0.3792
10940TIP3    H254236   4.530   2.208   3.276 -0.1758 -0.1679 -0.2294
10941TIP3   OH254237   3.257   6.735  11.577  0.3741 -0.3667 -0.3899
10941TIP3    H154238   3.312   6.783  11.516  2.1492 -1.8323 -0.0429
10941TIP3    H254239   3.208   6.673  11.522 -0.1894  0.2476 -0.5916
10942TIP3   OH254240   1.047   1.119   5.641  0.6283  0.3162  0.7450
10942TIP3    H154241   1.129   1.071   5.654  0.6249  0.7491  2.6915
10942TIP3    H254242   1.012   1.132   5.729 -0.9304  1.2159  0.0499
10943TIP3   OH254243   1.011   5.724   1.258 -0.2638  0.1240  0.6466
10943TIP3    H154244   1.031   5.756   1.170 -1.0176 -1.6931 -0.2404
10943TIP3    H254245   0.919   5.745   1.272 -0.0179  0.8437  1.2080
10944TIP3   OH254246   4.644   4.988   3.586 -0.2738 -0.0326  0.0394
10944TIP3    H154247   4.572   4.969   3.646  1.5181 -1.3292  1.9107
10944TIP3    H254248   4.653   5.084   3.590 -0.7457 -0.0178  1.2107
10945TIP3   OH254249   0.681   3.351  15.676  0.4389  0.4186 -0.0850
10945TIP3    H154250   0.707   3.266  15.711 -0.0868  0.2040 -0.1985
10945TIP3    H254251   0.736   3.414  15.723  1.9260 -0.0815 -1.1155
10946TIP3   OH254252   0.936   3.677  17.257 -0.1587  0.4196  0.3376
10946TIP3    H154253   0.922   3.609  17.323 -0.9174  0.7386  0.5212
10946TIP3    H254254   0.950   3.757  17.307  1.3914  0.3042  0.1343
10947TIP3   OH254255   3.246   0.834  13.088  0.1003  0.1851 -0.8893
10947TIP3    H154256   3.156   0.854  13.115  0.7593  0.1326  1.5874
10947TIP3    H254257   3.301   0.881  13.151  1.8100 -0.5439 -1.7650
10948TIP3   OH254258   4.812   6.121  12.220 -0.2075 -0.2533 -0.1582
10948TIP3    H154259   4.732   6.070  12.207 -1.1132  0.9386  0.5382
10948TIP3    H254260   4.807   6.191  12.155 -1.2009  1.5122  1.7173
10949TIP3   OH254261   3.291   4.444  13.538  0.3733  0.0451 -0.1704
10949TIP3    H154262   3.279   4.512  13.605 -1.9193  0.0019 -0.4529
10949TIP3    H254263   3.337   4.488  13.467  1.8471  0.3897  0.9401
10950TIP3   OH254264   0.487   5.423  11.917 -0.6552  0.1909 -0.3459
10950TIP3    H154265   0.414   5.373  11.954 -0.5189  0.7841  0.7497
10950TIP3    H254266   0.460   5.514  11.924  0.8682  0.5496  1.6780
10951TIP3   OH254267   6.436   2.813  17.097 -0.5270 -0.5929 -0.1811
10951TIP3    H154268   6.381   2.738  17.073  2.0957 -2.0625 -2.1010
10951TIP3    H254269   6.523   2.790  17.066  0.8667  2.3766  1.1245
10952TIP3   OH254270   5.965   1.314   6.573  0.0764  0.0226  0.0901
10952TIP3    H154271   6.054   1.282   6.582 -0.0242 -0.1424  0.5231
10952TIP3    H254272   5.972   1.409   6.581  0.3673  0.1282 -1.1376
10953TIP3   OH254273   3.639   0.332   1.342  0.3089 -0.0221 -0.1894
10953TIP3    H154274   3.588   0.371   1.412 -0.7579  0.4428 -1.1861
10953TIP3    H254275   3.728   0.366   1.354  0.0963  0.2061  0.7979
10954TIP3   OH254276   0.104   6.087  14.459 -0.3851 -0.4396  0.2473
10954TIP3    H154277   0.031   6.110  14.401 -0.3386 -2.3677 -0.6357
10954TIP3    H254278   0.062   6.064  14.541 -0.6539 -0.2225  0.1744
10955TIP3   OH254279   0.573   6.483   5.120  0.0473 -0.2097  0.6502
10955TIP3    H154280   0.577   6.497   5.026  0.2910 -2.6667  0.2500
10955TIP3    H254281   0.665   6.478   5.148 -0.0329 -0.4092  0.8809
10956TIP3   OH254282   0.483   4.429   4.570  0.1252  0.3425 -0.2548
10956TIP3    H154283   0.567   4.391   4.596 -0.6589 -0.2578  1.5515
10956TIP3    H254284   0.446   4.365   4.510  0.0390 -0.4235  0.6009
10957TIP3   OH254285   1.531   3.359  15.743 -0.9222  0.3596 -0.1280
10957TIP3    H154286   1.598   3.401  15.689 -1.0035 -0.1293 -0.6257
10957TIP3    H254287   1.553   3.383  15.833  1.9519 -2.4914  0.0944
10958TIP3   OH254288   3.280   1.453   4.150 -0.0609 -0.0644  0.2207
10958TIP3    H154289   3.297   1.515   4.079  1.5345 -1.4186 -0.6334
10958TIP3    H254290   3.212   1.395   4.114  1.4356 -1.3495 -0.6356
10959TIP3   OH254291   5.113   0.031  15.529 -0.6229 -0.4412  0.6509
10959TIP3    H154292   5.107   0.044  15.434 -0.5752 -1.5839  0.4694
10959TIP3    H254293   5.193   0.077  15.555 -1.2133  0.7912  0.3251
10960TIP3   OH254294   1.199   2.571  15.738  0.2677 -0.1042 -0.4491
10960TIP3    H154295   1.156   2.652  15.711 -0.8754 -0.1796  1.0250
10960TIP3    H254296   1.159   2.549  15.822  1.5863 -1.4340 -0.1201
10961TIP3   OH254297   6.690   4.538  16.170  0.0902 -0.2442  0.3347
10961TIP3    H154298   6.671   4.627  16.141 -1.8432 -0.4922  0.7186
10961TIP3    H254299   6.704   4.546  16.264 -1.4488 -0.4865  0.6163
10962TIP3   OH254300   4.602   5.111   1.220 -0.4550  0.4194  0.0145
10962TIP3    H154301   4.676   5.164   1.189 -0.4771 -0.1102 -0.9609
10962TIP3    H254302   4.592   5.137   1.312  1.8209 -0.4905  0.5760
10963TIP3   OH254303   3.797   0.512  14.298 -0.5255  0.0675  0.3816
10963TIP3    H154304   3.779   0.543  14.209 -0.9841  0.6478  0.6695
10963TIP3    H254305   3.764   0.422  14.299 -1.1684  0.2958  0.1685
10964TIP3   OH254306   4.688   4.548   2.702  0.2330  0.4950 -0.3334
10964TIP3    H154307   4.735   4.622   2.663 -0.4856  0.4657 -1.2900
10964TIP3    H254308   4.708   4.474   2.645  0.7121  0.0006  0.4556
10965TIP3   OH254309   3.197   1.635  14.113  0.0370 -0.0459  0.0354
10965TIP3    H154310   3.158   1.635  14.200 -0.7593  1.6744 -0.2783
10965TIP3    H254311   3.183   1.546  14.080 -2.5313  0.1195  0.4448
10966TIP3   OH254312   0.049   1.096  11.462  0.0361  0.3071  0.5263
10966TIP3    H154313  -0.008   1.027  11.429  0.8980 -0.7492  1.1786
10966TIP3    H254314   0.098   1.127  11.385 -0.6665  0.5138  0.1549
10967TIP3   OH254315   1.367   0.288   4.152 -0.0344 -0.5787 -0.2661
10967TIP3    H154316   1.326   0.245   4.077 -0.6054  1.2501 -1.0567
10967TIP3    H254317   1.314   0.262   4.227 -0.9427 -0.5175 -0.8672
10968TIP3   OH254318   4.182   3.701   0.420 -0.4075 -0.0986 -0.0288
10968TIP3    H154319   4.158   3.762   0.489 -0.8083 -1.0171  0.6646
10968TIP3    H254320   4.222   3.755   0.352 -0.6508  0.9049  0.6197
10969TIP3   OH254321   3.041   5.509   6.485 -0.0584  0.3552 -0.2459
10969TIP3    H154322   3.044   5.532   6.578 -0.5871  0.2421 -0.1954
10969TIP3    H254323   2.988   5.578   6.445  1.5839  1.3659 -0.7711
10970TIP3   OH254324   4.969   1.433   1.696  0.1145  0.4113  0.6244
10970TIP3    H154325   5.004   1.432   1.606 -0.3330 -0.4674  0.4520
10970TIP3    H254326   5.039   1.393   1.748  0.6406  1.5062  0.7778
10971TIP3   OH254327   5.461   2.227   4.240 -0.1772  0.1327  0.4880
10971TIP3    H154328   5.415   2.308   4.219 -0.9986 -0.5132 -0.3355
10971TIP3    H254329   5.545   2.235   4.196 -0.3696  0.4199  0.1667
10972TIP3   OH254330   4.527   5.005   3.960 -0.6443 -0.6451 -0.2642
10972TIP3    H154331   4.522   5.081   4.019 -0.3954 -0.2478 -0.7489
10972TIP3    H254332   4.561   4.935   4.015 -0.1224 -0.1958  0.0011
10973TIP3   OH254333   2.533   6.612  12.600  0.2219  0.1734 -0.0619
10973TIP3    H154334   2.531   6.682  12.535  2.1155  0.1797 -0.1732
10973TIP3    H254335   2.626   6.598  12.617 -0.2023  0.1003  2.6057
10974TIP3   OH254336   3.264   5.465  17.191 -0.2768 -0.4728  0.4203
10974TIP3    H154337   3.228   5.520  17.260 -2.3196 -1.2490  0.0374
10974TIP3    H254338   3.250   5.515  17.110  1.7354  0.2556  0.4743
10975TIP3   OH254339   5.009   5.882  17.313  0.0614 -0.0862  0.5144
10975TIP3    H154340   5.059   5.811  17.273  0.0431 -1.0246  2.0641
10975TIP3    H254341   4.941   5.837  17.364  0.0509  1.0487  1.5349
10976TIP3   OH254342   3.165   5.188   2.359 -0.0635  0.0647  0.5915
10976TIP3    H154343   3.195   5.143   2.281 -0.6889  0.1693  0.2791
10976TIP3    H254344   3.219   5.267   2.364  0.1636 -0.0795  0.4188
10977TIP3   OH254345   5.538   0.896   1.417 -0.3386  0.4017 -0.5858
10977TIP3    H154346   5.604   0.963   1.439 -0.4199  0.4432 -0.4665
10977TIP3    H254347   5.543   0.888   1.322  2.2662 -2.0382 -0.3661
10978TIP3   OH254348   0.300   3.485   0.147 -0.4150 -0.0965 -0.2889
10978TIP3    H154349   0.274   3.473   0.055  2.3921  0.2722 -1.2156
10978TIP3    H254350   0.322   3.397   0.177  0.7874  0.0418 -0.7094
10979TIP3   OH254351   4.216   3.526   2.692  0.4447 -0.2430  0.5718
10979TIP3    H154352   4.257   3.577   2.622 -1.5274  0.3833 -0.1708
10979TIP3    H254353   4.140   3.485   2.652 -0.9994  0.4910  2.4119
10980TIP3   OH254354   3.467   5.369  12.506 -0.3041  0.5828 -0.0652
10980TIP3    H154355   3.386   5.388  12.457  0.2351 -0.9357 -1.6423
10980TIP3    H254356   3.441   5.301  12.568 -0.2840  0.1850 -0.4849
10981TIP3   OH254357   4.796   4.889  15.894  0.2850 -0.7770  0.1441
10981TIP3    H154358   4.830   4.961  15.841 -0.3182 -0.5366  0.0792
10981TIP3    H254359   4.770   4.929  15.977 -1.1218 -0.6906 -0.3018
10982TIP3   OH254360   2.570   3.333  14.222  0.0230  0.3504  0.0585
10982TIP3    H154361   2.534   3.373  14.144 -1.4019 -0.5551  0.2174
10982TIP3    H254362   2.660   3.367  14.227 -0.3145  1.5093 -1.1662
10983TIP3   OH254363   3.288   6.536   2.884 -0.3197  0.3427  0.1337
10983TIP3    H154364   3.331   6.466   2.835  3.1684  2.4061 -0.0821
10983TIP3    H254365   3.276   6.607   2.821  0.6636  1.6171  1.2904
10984TIP3   OH254366   4.669   5.244   3.723 -0.3810  0.9404 -0.3171
10984TIP3    H154367   4.633   5.267   3.637 -2.0881 -1.8278 -0.4661
10984TIP3    H254368   4.596   5.258   3.783  0.1161  0.7583  0.3365
10985TIP3   OH254369   5.507   0.255   6.307 -0.6026 -0.3080  0.5033
10985TIP3    H154370   5.443   0.265   6.377 -1.6494  0.9684 -0.5757
10985TIP3    H254371   5.454   0.239   6.229  0.5332 -1.6977 -0.0200
10986TIP3   OH254372   2.236   3.421  17.328  0.0699 -0.7018 -0.4252
10986TIP3    H154373   2.168   3.404  17.263  1.3277 -0.6998 -1.8173
10986TIP3    H254374   2.298   3.348  17.318  1.2521  0.2832 -0.5940
10987TIP3   OH254375   3.624   2.785   1.682 -0.3056 -0.4072  0.5561
10987TIP3    H154376   3.696   2.722   1.692 -0.8760 -0.9202  1.6397
10987TIP3    H254377   3.548   2.731   1.661 -0.0580  0.2910 -2.6515
10988TIP3   OH254378   3.720   3.199   2.160 -0.0712  0.4084 -0.3932
10988TIP3    H154379   3.655   3.141   2.119  0.2364  0.1273 -0.4858
10988TIP3    H254380   3.802   3.177   2.117 -0.2914  2.5040 -2.0626
10989TIP3   OH254381   3.729   5.769   5.751 -0.3636  0.2321 -0.1616
10989TIP3    H154382   3.809   5.717   5.737 -0.5012 -0.2745  0.8540
10989TIP3    H254383   3.669   5.709   5.794 -0.0530  1.5708  2.3249
10990TIP3   OH254384   5.933   6.242   1.028  0.5246 -0.0284  0.4575
10990TIP3    H154385   6.010   6.277   1.073  0.6997 -2.1584  1.9536
10990TIP3    H254386   5.861   6.255   1.089  0.6157 -2.2031  1.1286
10991TIP3   OH254387   5.739   1.123  17.334  0.2236 -0.3981 -0.0473
10991TIP3    H154388   5.656   1.098  17.374  0.7379 -2.5085 -0.1799
10991TIP3    H254389   5.769   1.199  17.385 -0.4262 -1.3654  1.8585
10992TIP3   OH254390   3.248   5.919  17.328  0.5118  0.3608 -0.6029
10992TIP3    H154391   3.177   5.855  17.335  0.7414  0.1128 -0.5002
10992TIP3    H254392   3.318   5.883  17.383  0.1207  1.4184  0.6447
10993TIP3   OH254393   2.966   5.112  16.213  0.5859 -0.1992  0.1627
10993TIP3    H154394   2.942   5.045  16.276  0.7791  0.8615  1.4120
10993TIP3    H254395   2.884   5.160  16.197  0.4404 -0.7266 -0.7495
10994TIP3   OH254396   2.117   6.325  15.229 -0.1278  0.5890  0.4390
10994TIP3    H154397   2.154   6.275  15.302 -0.4169  1.8493  1.4785
10994TIP3    H254398   2.192   6.370  15.191  0.5729 -2.2634 -1.9701
10995TIP3   OH254399   2.651   2.538  16.891 -0.9149 -0.3608 -0.7984
10995TIP3    H154400   2.611   2.545  16.978 -0.7572  1.6420 -0.8272
10995TIP3    H254401   2.719   2.606  16.891 -1.1960 -0.0211 -2.6225
10996TIP3   OH254402   3.034   1.424   6.163 -0.3484 -0.2322  0.5868
10996TIP3    H154403   3.130   1.421   6.166 -0.2252  1.2670 -0.6256
10996TIP3    H254404   3.012   1.511   6.197 -1.2359 -0.3080  0.2256
10997TIP3   OH254405   2.470   4.068  10.442  0.1602  0.4602 -0.8121
10997TIP3    H154406   2.494   4.036  10.529  1.1527  1.3576 -0.7371
10997TIP3    H254407   2.416   4.145  10.459  0.5825  0.7992 -0.9734
10998TIP3   OH254408   1.797   6.240  17.118 -0.1006  0.3223 -0.1928
10998TIP3    H154409   1.713   6.211  17.152 -1.2093  1.9788 -1.3490
10998TIP3    H254410   1.800   6.334  17.138 -0.6352  1.3416 -4.0088
10999TIP3   OH254411   1.779   5.820  11.366  0.1072 -0.7310 -0.3414
10999TIP3    H154412   1.858   5.768  11.355  0.6432 -0.1683  0.7042
10999TIP3    H254413   1.741   5.826  11.279  2.9029  1.6632 -1.5444
11000TIP3   OH254414   3.043   0.572   5.745  0.3614 -0.1983  0.2428
11000TIP3    H154415   3.073   0.571   5.836 -1.1827 -2.5682  0.8066
11000TIP3    H254416   3.067   0.486   5.710 -0.3932  0.1179 -1.1476
11001TIP3   OH254417   1.424   1.627  11.891 -0.6573 -0.3517  0.4886
11001TIP3    H154418   1.447   1.538  11.863 -0.9865 -1.1008  2.4344
11001TIP3    H254419   1.505   1.676  11.883 -0.0857 -1.2195  0.8185
11002TIP3   OH254420   4.977   6.672  12.158 -0.1627  0.2078 -0.6049
11002TIP3    H154421   5.048   6.666  12.222  0.1244  0.5284 -0.8923
11002TIP3    H254422   4.898   6.682  12.211  0.1497  1.2101 -0.3125
11003TIP3   OH254423   1.309   3.513  16.753 -0.6145  0.3675  0.2416
11003TIP3    H154424   1.371   3.585  16.751  2.5536 -2.0495  1.4553
11003TIP3    H254425   1.293   3.497  16.846 -0.3107 -1.1402  0.0748
11004TIP3   OH254426   4.356   0.195  12.549  0.3672 -0.0789  0.1849
11004TIP3    H154427   4.315   0.200  12.635  0.4756 -0.4764  0.2615
11004TIP3    H254428   4.317   0.268  12.499  1.6191  1.2968  1.1227
11005TIP3   OH254429   2.066   4.615   0.288  0.3893  0.0410 -0.7812
11005TIP3    H154430   2.051   4.553   0.359  0.7317 -0.5654 -1.2290
11005TIP3    H254431   1.983   4.661   0.277  0.2965  0.0466 -0.0822
11006TIP3   OH254432   5.941   1.664   2.798  0.3732 -0.1034  0.1941
11006TIP3    H154433   5.856   1.701   2.824  0.1849 -0.5050  0.1625
11006TIP3    H254434   5.963   1.604   2.869  1.2541  0.9440  0.8342
11007TIP3   OH254435   3.690   0.573   2.960 -0.3476  0.0598  0.1939
11007TIP3    H154436   3.772   0.614   2.986 -1.1657  1.3464  0.8402
11007TIP3    H254437   3.714   0.517   2.886  1.0570  0.6095  0.2019
11008TIP3   OH254438   4.774   6.286   3.806  0.4358 -0.9073  0.2284
11008TIP3    H154439   4.819   6.218   3.856 -1.7731 -2.0711  0.7473
11008TIP3    H254440   4.738   6.344   3.873 -1.2212 -1.6044 -0.0327
11009TIP3   OH254441   1.663   4.285  12.580  0.2809 -0.2138 -0.1428
11009TIP3    H154442   1.610   4.285  12.659 -0.0255  0.9805 -0.3308
11009TIP3    H254443   1.736   4.225  12.599  0.9106  1.0039  1.5107
11010TIP3   OH254444   4.163   2.099   0.666 -0.8400  0.1668 -0.1268
11010TIP3    H154445   4.139   2.179   0.713 -1.1370 -0.1942  0.3464
11010TIP3    H254446   4.081   2.070   0.625 -0.4934  0.7265 -1.2701
11011TIP3   OH254447   4.908   1.677  14.648  0.2490 -0.2160  0.1958
11011TIP3    H154448   4.915   1.625  14.568 -2.0482  1.1108 -0.9722
11011TIP3    H254449   4.898   1.767  14.617 -2.1370  0.1842  1.8530
11012TIP3   OH254450   1.437   6.498   5.646 -0.1060 -0.0315 -0.5144
11012TIP3    H154451   1.529   6.474   5.656 -0.0956  0.4036  0.5718
11012TIP3    H254452   1.397   6.423   5.603  0.2957 -1.2164  1.0857
11013TIP3   OH254453   2.609   0.856   3.434  0.3388 -0.2612 -0.3136
11013TIP3    H154454   2.657   0.796   3.378 -0.2560 -0.5647 -0.5082
11013TIP3    H254455   2.517   0.830   3.424 -0.2815  2.2760 -2.4033
11014TIP3   OH254456   1.795   2.067  13.481  0.0824 -0.8323 -0.3102
11014TIP3    H154457   1.760   2.143  13.434 -0.2550 -0.7964 -0.0021
11014TIP3    H254458   1.719   2.011  13.494  0.5180 -1.7411 -1.4977
11015TIP3   OH254459   4.644   1.080  13.194  0.5000  0.5776 -0.1645
11015TIP3    H154460   4.608   1.164  13.165 -0.6178  0.0678 -0.2843
11015TIP3    H254461   4.569   1.021  13.197  1.1684 -0.2682  0.5116
11016TIP3   OH254462   2.624   0.936   3.745 -0.3643 -0.6498 -0.3202
11016TIP3    H154463   2.571   0.963   3.819 -0.7277  0.8103 -1.0876
11016TIP3    H254464   2.711   0.971   3.763  0.4224 -2.9783  0.9010
11017TIP3   OH254465   3.093   4.089   3.314  0.1687  0.3895  0.2485
11017TIP3    H154466   3.168   4.044   3.353  0.3069 -0.2872 -0.7482
11017TIP3    H254467   3.064   4.030   3.244  0.0897  1.6755 -0.8209
11018TIP3   OH254468   3.197   1.517   3.748 -0.3007  0.0175 -0.2555
11018TIP3    H154469   3.245   1.553   3.823 -0.7653  1.2235 -0.5182
11018TIP3    H254470   3.265   1.481   3.691 -0.0001 -2.0088  1.2498
11019TIP3   OH254471   5.026   2.622   3.641 -0.1474  0.5264  0.3867
11019TIP3    H154472   4.977   2.550   3.601  3.2162 -1.1156 -1.1616
11019TIP3    H254473   4.963   2.694   3.645 -3.2978 -1.9777  0.7282
11020TIP3   OH254474   2.760   4.930  16.792  1.1846 -0.7592 -0.5309
11020TIP3    H154475   2.671   4.928  16.827  0.3798 -4.4881 -2.3558
11020TIP3    H254476   2.814   4.890  16.860  1.5055  1.1673  0.4219
11021TIP3   OH254477   3.949   0.521  14.532 -0.4112 -0.2349 -0.2936
11021TIP3    H154478   4.036   0.555  14.511 -1.1396  1.5645 -0.6238
11021TIP3    H254479   3.904   0.515  14.448 -0.9010 -0.2588 -0.0357
11022TIP3   OH254480   6.302   1.745   0.367  0.3968 -0.2077 -0.0441
11022TIP3    H154481   6.230   1.705   0.318 -0.4205  0.7926  0.3092
11022TIP3    H254482   6.381   1.704   0.331 -0.2247 -0.0131 -1.7090
11023TIP3   OH254483   6.123   3.151   1.568  0.2128 -0.1540  0.3426
11023TIP3    H154484   6.179   3.228   1.569  0.9729 -0.6765  1.6054
11023TIP3    H254485   6.135   3.113   1.482  2.5851 -0.7563  0.8785
11024TIP3   OH254486   4.177   3.385   5.067 -0.0450 -0.4510  0.4777
11024TIP3    H154487   4.091   3.344   5.073 -0.8507  1.0285 -0.3385
11024TIP3    H254488   4.235   3.327   5.117 -1.1912 -2.2738 -0.2046
11025TIP3   OH254489   3.573   4.466   0.976 -0.2981  0.1900  0.0488
11025TIP3    H154490   3.509   4.409   1.018 -0.0222  0.8387  1.4312
11025TIP3    H254491   3.526   4.505   0.903  0.0930 -3.2563 -2.2402
11026TIP3   OH254492   6.509   0.097   1.019  0.0976  0.2833 -0.3407
11026TIP3    H154493   6.488   0.012   0.980 -0.7476  0.4879 -0.3552
11026TIP3    H254494   6.518   0.156   0.944 -0.3360  0.4201 -0.2887
11027TIP3   OH254495   1.376   3.585  10.743 -0.1373  0.1312  0.4503
11027TIP3    H154496   1.381   3.548  10.831 -0.2010 -1.0541 -0.0250
11027TIP3    H254497   1.467   3.592  10.714 -0.1838 -1.0729 -0.0192
11028TIP3   OH254498   4.555   4.653   2.462 -0.3408  0.3806 -0.2003
11028TIP3    H154499   4.514   4.637   2.546 -0.7111 -0.3877 -0.5189
11028TIP3    H254500   4.628   4.711   2.481 -1.6887  1.9628  0.3482
11029TIP3   OH254501   3.562   5.895  11.953  0.1990 -0.1973  0.4939
11029TIP3    H154502   3.602   5.962  12.008  1.4828 -0.2838 -0.2730
11029TIP3    H254503   3.621   5.889  11.878 -0.8114 -0.9920 -0.2611
11030TIP3   OH254504   2.407   1.879   0.989  0.1821 -0.2003  0.2507
11030TIP3    H154505   2.485   1.910   0.943 -1.8972  0.3654 -3.2153
11030TIP3    H254506   2.410   1.924   1.073  2.1767  2.0038 -0.8753
11031TIP3   OH254507   0.521   1.684  16.519  0.3055  0.2528 -0.2667
11031TIP3    H154508   0.542   1.592  16.535 -1.9881 -0.0321  1.6428
11031TIP3    H254509   0.451   1.682  16.454  0.2398  0.6553 -0.2121
11032TIP3   OH254510   1.137   2.847  14.652  0.4080  0.1190 -0.0894
11032TIP3    H154511   1.225   2.883  14.644  1.0164 -0.3979  2.9042
11032TIP3    H254512   1.133   2.777  14.587  2.1142  0.2891 -0.4054
11033TIP3   OH254513   6.740   0.303  13.528  0.0886 -0.2099  0.2552
11033TIP3    H154514   6.830   0.281  13.551  0.2498 -0.5080 -0.6372
11033TIP3    H254515   6.736   0.398  13.539  0.4993 -0.1997  0.3431
11034TIP3   OH254516   1.485   4.149  16.577  0.5084 -0.2711 -0.4014
11034TIP3    H154517   1.540   4.196  16.515  0.9907 -0.9755 -0.5249
11034TIP3    H254518   1.415   4.111  16.522  0.7979 -0.6913 -0.4858
11035TIP3   OH254519   6.762   0.788  15.419  0.2314 -0.5031  0.2126
11035TIP3    H154520   6.811   0.801  15.337  0.5096 -1.0510  0.2856
11035TIP3    H254521   6.672   0.772  15.391  0.8156 -3.6329 -0.2070
11036TIP3   OH254522   5.554   2.444  16.577 -0.0036 -0.0060  0.1963
11036TIP3    H154523   5.619   2.491  16.629 -0.5194  0.5180  0.3700
11036TIP3    H254524   5.550   2.493  16.494 -2.0084  1.5202  1.1076
11037TIP3   OH254525   0.368   1.381  15.078 -0.3812  0.0707  0.1996
11037TIP3    H154526   0.381   1.351  14.988 -0.4697 -1.1969  0.5888
11037TIP3    H254527   0.445   1.349  15.126 -0.0519  1.2206  0.4759
11038TIP3   OH254528   2.772   6.532   5.208 -0.4354  0.7904  0.2867
11038TIP3    H154529   2.723   6.611   5.186 -2.4841 -0.3145  0.5710
11038TIP3    H254530   2.828   6.516   5.132  0.0380  2.5024  0.2442
11039TIP3   OH254531   3.538   4.443   6.416  0.6168  0.1581  0.3359
11039TIP3    H154532   3.540   4.413   6.507 -0.3452  0.2715  0.4091
11039TIP3    H254533   3.468   4.391   6.376 -0.1594  1.3338  0.1200
11040TIP3   OH254534   2.994   4.170   2.447 -0.1143  0.6597  0.6166
11040TIP3    H154535   3.052   4.102   2.414 -1.7866 -1.4255  1.6802
11040TIP3    H254536   2.913   4.159   2.396  0.0014  2.7723 -0.1015
11041TIP3   OH254537   4.668   1.166   0.423  0.3088 -0.1477  0.3100
11041TIP3    H154538   4.635   1.237   0.479 -0.4979 -0.9619  0.9033
11041TIP3    H254539   4.666   1.202   0.335 -0.3911  0.4641  0.5665
11042TIP3   OH254540   3.424   1.064  12.897  0.0553 -0.1661  0.0566
11042TIP3    H154541   3.509   1.028  12.921  0.6652 -0.0841 -1.7862
11042TIP3    H254542   3.432   1.158  12.916  1.3545  0.3140 -2.3315
11043TIP3   OH254543   5.268   6.348  16.304 -0.0071  0.0041  0.2614
11043TIP3    H154544   5.254   6.442  16.303  0.5081  0.1215 -1.8103
11043TIP3    H254545   5.186   6.311  16.270  0.2325 -0.1835 -0.1291
11044TIP3   OH254546   0.887   6.348   2.020  0.2047 -0.4368  0.1161
11044TIP3    H154547   0.933   6.344   1.937 -0.6711 -0.6487 -0.3681
11044TIP3    H254548   0.814   6.407   2.005 -0.7491 -1.5271  0.3268
11045TIP3   OH254549   0.434   3.492  15.591  0.0123 -0.0875  0.4553
11045TIP3    H154550   0.472   3.420  15.642 -1.2105 -0.9093  0.2562
11045TIP3    H254551   0.443   3.464  15.500  0.8981  0.7233  0.2802
11046TIP3   OH254552   2.273   1.716  13.870 -0.0207 -0.2845  0.1742
11046TIP3    H154553   2.205   1.736  13.934  0.3478 -0.5077  0.6403
11046TIP3    H254554   2.355   1.721  13.920  0.3235  0.1957 -0.4257
11047TIP3   OH254555   3.286   4.745  17.015  0.0774  0.0466  0.1105
11047TIP3    H154556   3.198   4.781  17.027 -0.2174 -0.9389  1.0697
11047TIP3    H254557   3.334   4.773  17.092 -0.0703 -1.3119  0.7182
11048TIP3   OH254558   4.520   3.823   2.553 -0.0153 -0.3446  0.2867
11048TIP3    H154559   4.466   3.875   2.612 -0.0512  0.1076 -0.1337
11048TIP3    H254560   4.554   3.752   2.607  1.6033  1.1675  1.4030
11049TIP3   OH254561   5.566   5.789   5.537 -0.5959  0.4045  0.0405
11049TIP3    H154562   5.590   5.842   5.613  0.1734 -0.6790  0.5837
11049TIP3    H254563   5.476   5.815   5.517 -0.4226  1.5099  0.6171
11050TIP3   OH254564   5.600   1.720   5.602  0.5250 -0.4740 -0.0069
11050TIP3    H154565   5.595   1.633   5.561  0.1901  0.4157 -1.9561
11050TIP3    H254566   5.515   1.731   5.645 -0.0615 -0.4806 -1.1366
11051TIP3   OH254567   2.825   5.218  12.530  0.2764 -0.3051  0.2132
11051TIP3    H154568   2.817   5.219  12.434  0.3686  0.2026  0.2070
11051TIP3    H254569   2.736   5.233  12.561  0.1798 -0.8548  0.2149
11052TIP3   OH254570   3.890   3.506  15.163 -0.0390 -0.1181 -0.0758
11052TIP3    H154571   3.832   3.453  15.218  0.8136 -1.5334 -0.4832
11052TIP3    H254572   3.875   3.596  15.192 -1.5094 -0.5747  0.6713
11053TIP3   OH254573   0.896   0.549  13.927  0.1695 -0.2300 -0.0755
11053TIP3    H154574   0.923   0.585  14.012  1.2798  1.2648 -1.0232
11053TIP3    H254575   0.825   0.606  13.898  0.8231  0.2188 -0.8325
11054TIP3   OH254576   6.662   6.390  11.955 -0.0262 -0.0615  0.0927
11054TIP3    H154577   6.688   6.348  11.873 -1.4536 -0.9195  0.0479
11054TIP3    H254578   6.708   6.340  12.023 -0.1372 -0.4111 -0.0857
11055TIP3   OH254579   5.985   4.756  16.466  0.3510 -0.2053  0.3780
11055TIP3    H154580   6.008   4.699  16.393 -1.2204  0.0692 -0.3726
11055TIP3    H254581   5.889   4.759  16.465  0.3468  2.5964  0.2358
11056TIP3   OH254582   0.400   6.462  15.522  0.3991 -0.7509 -0.0718
11056TIP3    H154583   0.495   6.449  15.511  0.3791 -0.8711 -0.1082
11056TIP3    H254584   0.362   6.428  15.441  0.3734 -0.0141 -0.3795
11057TIP3   OH254585   4.428   0.711  15.406  0.3026  0.2061  0.3108
11057TIP3    H154586   4.402   0.771  15.336  1.2048 -2.7912 -2.8337
11057TIP3    H254587   4.523   0.707  15.400  0.4468  0.2023  2.0890
11058TIP3   OH254588   1.392   0.457  16.597  0.2822 -0.1983  0.1159
11058TIP3    H154589   1.376   0.547  16.571 -0.9214  0.0735  1.6284
11058TIP3    H254590   1.305   0.417  16.599  0.6723 -1.0550  0.5894
11059TIP3   OH254591   3.688   4.202  12.038 -0.6655  0.2915 -0.0239
11059TIP3    H154592   3.593   4.189  12.043 -0.7326  0.2897 -1.1846
11059TIP3    H254593   3.717   4.145  11.968  0.2399  0.1389  0.4585
11060TIP3   OH254594   6.314   4.260  13.795 -0.2526  0.3826 -0.2980
11060TIP3    H154595   6.297   4.324  13.726  0.9360  0.5704 -0.4525
11060TIP3    H254596   6.354   4.186  13.749  1.5362  0.9398  0.2865
11061TIP3   OH254597   2.679   5.710   5.136  0.0714  0.2081 -0.1669
11061TIP3    H154598   2.719   5.628   5.106  1.1822  1.0799 -1.1820
11061TIP3    H254599   2.610   5.728   5.073  0.0802  0.2477 -0.1654
11062TIP3   OH254600   1.378   0.811   0.489 -0.4147 -0.1202 -0.0695
11062TIP3    H154601   1.433   0.772   0.557 -0.1165 -0.1500 -0.3250
11062TIP3    H254602   1.301   0.842   0.535 -0.9943 -1.6586  0.0480
11063TIP3   OH254603   6.623   3.528   1.101  0.4082 -0.0956 -0.6861
11063TIP3    H154604   6.581   3.531   1.015  1.0409 -0.4703 -1.0211
11063TIP3    H254605   6.614   3.616   1.136  0.1503  0.0604 -1.1423
11064TIP3   OH254606   2.227   2.546  14.084 -0.1007 -0.6421  0.4786
11064TIP3    H154607   2.310   2.562  14.040 -0.5324  0.1780 -0.0670
11064TIP3    H254608   2.239   2.579  14.172 -0.1744  0.4724  0.0904
11065TIP3   OH254609   2.350   1.799   2.403 -0.0603 -0.0816  0.3528
11065TIP3    H154610   2.261   1.820   2.432  0.5800  0.2408  2.2147
11065TIP3    H254611   2.375   1.874   2.349 -0.9594 -0.2360 -0.2898
11066TIP3   OH254612   6.073   4.011  16.178 -0.9204 -0.0190  0.6227
11066TIP3    H154613   6.064   4.086  16.119  0.2164 -1.7784 -1.9718
11066TIP3    H254614   6.166   4.010  16.201 -0.7549 -1.0757 -0.0455
11067TIP3   OH254615   3.660   2.515   2.761  0.8581  0.1253 -0.2996
11067TIP3    H154616   3.632   2.519   2.670  1.1658  0.6057 -0.3757
11067TIP3    H254617   3.586   2.475   2.807  1.6083 -2.3505 -1.0967
11068TIP3   OH254618   2.271   4.643  11.867  0.3625 -0.1402 -0.0553
11068TIP3    H154619   2.314   4.569  11.910 -1.2341 -0.8368  0.4201
11068TIP3    H254620   2.216   4.603  11.799  0.4326  0.7094 -0.6243
11069TIP3   OH254621   2.574   4.203  14.134  0.0117  0.0236  0.3820
11069TIP3    H154622   2.529   4.213  14.217 -0.3884 -0.3445  0.2143
11069TIP3    H254623   2.505   4.179  14.072  0.7239 -2.8491  0.5634
11070TIP3   OH254624   5.148   4.559  11.316 -0.0902  0.3954 -0.8790
11070TIP3    H154625   5.189   4.611  11.246  1.5276 -0.0272 -0.3045
11070TIP3    H254626   5.191   4.588  11.396 -1.0087 -0.0198 -0.2170
11071TIP3   OH254627   3.859   3.475   4.915  0.1456 -0.1528 -0.0042
11071TIP3    H154628   3.922   3.531   4.868  0.3219 -0.2418  0.1269
11071TIP3    H254629   3.827   3.415   4.848  1.0123 -0.8189  0.1707
11072TIP3   OH254630   6.566   3.143  13.944  0.2909 -0.2561 -0.6488
11072TIP3    H154631   6.629   3.073  13.962 -0.3198 -0.4437  0.8726
11072TIP3    H254632   6.581   3.165  13.852  4.2039  1.2956  0.1447
11073TIP3   OH254633   5.786   0.077  13.154 -0.3075 -0.0958 -0.4760
11073TIP3    H154634   5.731   0.104  13.081 -0.4377  0.1631 -0.2847
11073TIP3    H254635   5.860   0.032  13.114 -1.3747 -1.7344 -0.6701
11074TIP3   OH254636   5.348   1.446   6.363 -0.3603  0.2182  0.2310
11074TIP3    H154637   5.285   1.402   6.420  0.3062  1.0593  1.6578
11074TIP3    H254638   5.429   1.449   6.414  0.5083  0.2443 -1.0948
11075TIP3   OH254639   1.571   6.738   1.717  0.0307 -0.5218 -0.1593
11075TIP3    H154640   1.643   6.688   1.679 -1.0830 -0.8610 -1.9905
11075TIP3    H254641   1.498   6.724   1.656 -0.5752  2.6824 -0.3583
11076TIP3   OH254642   3.892   0.157  12.634  0.2952  0.3133 -0.3138
11076TIP3    H154643   3.900   0.252  12.640 -0.1806  0.2974  0.6694
11076TIP3    H254644   3.881   0.127  12.724 -2.1732 -0.4145 -0.7595
11077TIP3   OH254645   6.160   4.614   5.778  0.0013  0.2146  0.0407
11077TIP3    H154646   6.179   4.624   5.872 -2.3452 -2.2615  0.9026
11077TIP3    H254647   6.127   4.700   5.751  1.2334  1.1329  1.3164
11078TIP3   OH254648   3.567   6.211  14.902 -0.3601  0.4734 -0.8291
11078TIP3    H154649   3.478   6.224  14.934  0.0269 -1.7361  1.4474
11078TIP3    H254650   3.579   6.280  14.837 -3.5877  1.0528 -0.9863
11079TIP3   OH254651   4.677   5.814  11.203  0.0913 -0.4210 -0.5298
11079TIP3    H154652   4.695   5.885  11.263  0.3438 -1.1731  0.3077
11079TIP3    H254653   4.596   5.839  11.158  0.1296  0.3343 -0.1773
11080TIP3   OH254654   2.308   5.202  14.053  0.8369  0.9780  0.2795
11080TIP3    H154655   2.277   5.292  14.066  0.2705  0.7485  0.6066
11080TIP3    H254656   2.251   5.149  14.110  0.4996  0.2975 -0.6504
11081TIP3   OH254657   4.721   2.585   0.836 -0.2441 -0.3604 -0.2708
11081TIP3    H154658   4.633   2.577   0.873  0.1015 -0.7970  0.4832
11081TIP3    H254659   4.706   2.608   0.744 -1.1277  0.7200  0.1166
11082TIP3   OH254660   6.647   2.116   3.704 -0.2656 -0.5461  0.2526
11082TIP3    H154661   6.644   2.023   3.682  1.0886 -0.4984 -0.2030
11082TIP3    H254662   6.725   2.149   3.660  0.1631  0.4733  1.7105
11083TIP3   OH254663   3.557   6.289   0.854 -0.0672 -0.2676 -0.4883
11083TIP3    H154664   3.511   6.210   0.881  0.8857 -0.9721 -0.8944
11083TIP3    H254665   3.489   6.346   0.819 -0.8482 -0.6601  0.3614
11084TIP3   OH254666   2.904   0.771   4.532 -0.2390  0.1884  0.2927
11084TIP3    H154667   2.948   0.717   4.598 -0.2884  0.2112  0.3443
11084TIP3    H254668   2.830   0.717   4.503 -0.6177  0.4498  0.7453
11085TIP3   OH254669   4.249   3.849  15.499 -0.4559  0.6344 -0.2045
11085TIP3    H154670   4.279   3.796  15.573 -0.9047  0.4230 -0.1739
11085TIP3    H254671   4.198   3.919  15.539  1.8566  2.3706 -0.0474
11086TIP3   OH254672   0.801   3.081  10.936 -0.1339 -0.4546  0.2735
11086TIP3    H154673   0.713   3.116  10.918  0.4563  0.6310 -0.6604
11086TIP3    H254674   0.810   3.009  10.873 -0.3782 -0.6164  0.4200
11087TIP3   OH254675   4.155   6.066   4.346 -0.3733  0.1636  0.0261
11087TIP3    H154676   4.062   6.088   4.344 -0.4727  0.0969  1.9908
11087TIP3    H254677   4.200   6.150   4.331 -0.7562  0.4176  0.2878
11088TIP3   OH254678   1.130   2.004   0.806 -0.6560 -0.2488 -0.0963
11088TIP3    H154679   1.096   1.917   0.824 -0.8843 -0.3383 -0.9230
11088TIP3    H254680   1.112   2.054   0.886  1.3177 -1.4810  1.2112
11089TIP3   OH254681   3.895   6.187   6.002  0.1627 -0.2243  0.3865
11089TIP3    H154682   3.819   6.239   5.976  1.2285  0.9216 -0.5724
11089TIP3    H254683   3.860   6.122   6.064 -1.5123  0.4947  0.2459
11090TIP3   OH254684   0.848   2.060   5.411 -0.2708 -0.3025  0.1996
11090TIP3    H154685   0.898   2.142   5.416 -0.3367 -0.3362  2.6709
11090TIP3    H254686   0.914   1.991   5.413 -0.3132 -0.3230  1.2752
11091TIP3   OH254687   0.428   3.355  17.125  0.7306  0.3871 -0.2876
11091TIP3    H154688   0.464   3.267  17.133 -0.7364 -0.0901  1.7072
11091TIP3    H254689   0.494   3.412  17.164  1.0365  0.0057 -0.2409
11092TIP3   OH254690   5.385   3.516   3.945 -0.2100  0.0268 -0.5577
11092TIP3    H154691   5.378   3.475   4.031 -0.6523 -0.0241 -0.6162
11092TIP3    H254692   5.295   3.538   3.921  0.1258  2.3115  0.0740
11093TIP3   OH254693   5.599   0.030   3.320 -0.0879 -0.7580  0.0501
11093TIP3    H154694   5.632   0.104   3.269 -1.5775 -1.2352 -1.7094
11093TIP3    H254695   5.578   0.068   3.405  3.2771 -0.1196  0.7345
11094TIP3   OH254696   6.146   0.014  15.779  0.0430 -0.2365 -0.1509
11094TIP3    H154697   6.234  -0.014  15.754  0.6113  1.2194  0.1152
11094TIP3    H254698   6.133  -0.024  15.866  0.9167  0.5315  0.3342
11095TIP3   OH254699   0.725   5.108   3.909 -0.0111 -0.0130  0.0256
11095TIP3    H154700   0.658   5.123   3.842 -0.9572 -0.3818  0.8632
11095TIP3    H254701   0.719   5.015   3.930 -0.7287  0.3588  1.6276
11096TIP3   OH254702   2.290   5.006   4.709  0.1871 -0.0370  0.2643
11096TIP3    H154703   2.226   5.077   4.706 -0.5576 -0.6873  0.5669
11096TIP3    H254704   2.300   4.979   4.618  0.7817  0.7089  0.0918
11097TIP3   OH254705   6.114   1.063  12.430 -0.3222  0.2151 -0.0043
11097TIP3    H154706   6.181   1.110  12.479 -0.3362  0.0921  0.1356
11097TIP3    H254707   6.059   1.022  12.497 -0.0043 -0.4323 -0.1242
11098TIP3   OH254708   4.978   6.357  16.171  0.1596  0.1874  0.7653
11098TIP3    H154709   4.940   6.438  16.205 -0.8227 -0.6487  1.7280
11098TIP3    H254710   4.992   6.375  16.078 -2.0232  0.7995  0.4891
11099TIP3   OH254711   4.400   2.772  11.121  0.0285  0.2254 -0.3913
11099TIP3    H154712   4.442   2.738  11.041 -0.5749  0.8908 -1.0080
11099TIP3    H254713   4.420   2.865  11.120 -0.8081  0.4103 -0.2796
11100TIP3   OH254714   4.564   6.132  15.688 -0.6585 -0.3304  0.0242
11100TIP3    H154715   4.535   6.054  15.735 -1.0423 -0.9827 -1.2651
11100TIP3    H254716   4.487   6.160  15.639 -0.5281  0.8810  0.4747
11101TIP3   OH254717   0.128   4.049   4.101  0.6871  0.2224 -0.3905
11101TIP3    H154718   0.104   4.096   4.021  3.1112  1.8383 -0.2886
11101TIP3    H254719   0.223   4.061   4.108  0.8184 -1.4435  1.7706
11102TIP3   OH254720   4.009   1.232   3.378  0.3329 -0.3332 -0.5781
11102TIP3    H154721   3.983   1.324   3.374  1.0404 -0.1288 -0.6273
11102TIP3    H254722   3.935   1.185   3.340 -1.7902 -0.1608  2.8391
11103TIP3   OH254723   3.007   4.755  16.826 -0.6777 -0.6581  0.2706
11103TIP3    H154724   3.021   4.835  16.775  0.1973 -1.6328 -1.0840
11103TIP3    H254725   3.033   4.684  16.767 -1.4905 -1.9593  1.4204
11104TIP3   OH254726   3.731   0.850   4.786  0.1975  0.3752 -0.0492
11104TIP3    H154727   3.744   0.918   4.852  0.9847 -1.3545  1.6823
11104TIP3    H254728   3.810   0.854   4.733 -0.0966  1.2792 -0.4417
11105TIP3   OH254729   1.490   4.627  12.077  0.4753 -0.4303 -0.1473
11105TIP3    H154730   1.546   4.705  12.085 -0.0831  0.1535 -1.5646
11105TIP3    H254731   1.401   4.661  12.083  0.2138 -0.8848 -1.3463
11106TIP3   OH254732   5.238   2.040  11.246 -0.1874  0.2648 -0.2496
11106TIP3    H154733   5.280   1.956  11.265  1.0748  0.7107 -0.9687
11106TIP3    H254734   5.280   2.071  11.166  0.4097  2.2516  0.7583
11107TIP3   OH254735   0.310   2.703   3.034  0.0319  0.1606 -0.1031
11107TIP3    H154736   0.394   2.661   3.056 -0.8834 -1.4677  0.4678
11107TIP3    H254737   0.296   2.681   2.942 -0.6829 -1.2917  0.3250
11108TIP3   OH254738   4.950   5.329  17.159 -0.5903  0.1599 -0.2109
11108TIP3    H154739   4.881   5.305  17.098 -2.0554  1.0628  1.0193
11108TIP3    H254740   4.905   5.373  17.231  1.0760 -0.7447  1.4923
11109TIP3   OH254741   3.249   1.453   3.005 -0.2683 -0.0986  0.3556
11109TIP3    H154742   3.266   1.502   2.924  2.1933  0.6725  1.2245
11109TIP3    H254743   3.259   1.361   2.980  0.2644  0.1216 -0.2899
11110TIP3   OH254744   3.235   0.535  17.295 -0.1358  0.7507 -0.0035
11110TIP3    H154745   3.301   0.549  17.363 -1.6332  2.6960  1.1789
11110TIP3    H254746   3.216   0.623  17.263 -0.8393  0.0388 -1.6487
11111TIP3   OH254747   4.909   3.974  10.606  0.0987  0.2506 -0.4586
11111TIP3    H154748   4.832   4.004  10.655  0.5889  0.4220  0.2173
11111TIP3    H254749   4.982   3.983  10.668  0.6635  0.0901 -1.0938
11112TIP3   OH254750   1.842   4.198   2.248 -0.1385  0.4190  0.1186
11112TIP3    H154751   1.810   4.237   2.330 -0.4668 -3.2038  1.8981
11112TIP3    H254752   1.932   4.172   2.269  0.7996  1.9183 -1.7102
11113TIP3   OH254753   5.887   2.559   0.883  0.2160 -0.4399  0.1127
11113TIP3    H154754   5.854   2.476   0.918 -3.0592 -0.1791 -1.8642
11113TIP3    H254755   5.817   2.590   0.825  1.9949  2.9186 -0.5274
11114TIP3   OH254756   2.514   0.020  14.007 -0.3951 -0.3105  0.4447
11114TIP3    H154757   2.595  -0.022  13.980 -0.8627 -0.6172 -0.5262
11114TIP3    H254758   2.455  -0.052  14.028 -0.5121 -0.0945  0.8696
11115TIP3   OH254759   1.080   3.437   5.421  0.4994 -0.6547  0.5604
11115TIP3    H154760   1.175   3.449   5.421  0.3750  0.4667  0.6016
11115TIP3    H254761   1.046   3.513   5.469 -0.4460 -0.8011  0.1466
11116TIP3   OH254762   3.388   0.898   5.634  0.7353 -0.0077  0.3412
11116TIP3    H154763   3.305   0.873   5.595  1.0518 -0.6338  0.0601
11116TIP3    H254764   3.427   0.816   5.664  1.1707  0.2984  0.6323
11117TIP3   OH254765   5.871   5.972   6.059 -0.3806  0.4110  0.2492
11117TIP3    H154766   5.894   5.973   5.967  0.3483 -0.6939  0.4027
11117TIP3    H254767   5.781   5.941   6.061 -1.2935  2.8389 -0.2246
11118TIP3   OH254768   0.968   3.878  15.835 -0.3691  0.6263  0.0482
11118TIP3    H154769   0.944   3.850  15.924  0.6972  0.8417  0.4182
11118TIP3    H254770   1.019   3.958  15.848 -1.9624  1.8472 -0.9018
11119TIP3   OH254771   0.129   5.156   0.069  0.5141  0.1554  0.2764
11119TIP3    H154772   0.192   5.086   0.087 -0.1238 -0.7952 -1.0236
11119TIP3    H254773   0.057   5.113   0.024  0.4549  1.7709 -1.2981
11120TIP3   OH254774   3.484   1.610  14.814  0.0100 -0.6341 -0.0428
11120TIP3    H154775   3.424   1.664  14.762 -1.3050 -2.0920 -0.1308
11120TIP3    H254776   3.482   1.525  14.771  0.0332 -1.4702  1.5568
11121TIP3   OH254777   1.495   6.428   4.960 -0.5396 -0.4094 -0.3874
11121TIP3    H154778   1.447   6.459   5.037  0.2498 -0.1246 -0.0001
11121TIP3    H254779   1.559   6.497   4.942  0.1899 -1.0869 -0.4676
11122TIP3   OH254780   4.015   0.997  12.464 -0.1317  0.2117  0.0516
11122TIP3    H154781   4.078   0.960  12.402 -1.0953 -2.6348  0.6142
11122TIP3    H254782   3.968   1.063  12.414  0.7325 -0.2958 -1.5019
11123TIP3   OH254783   5.652   6.297  16.338 -0.3468  0.5330 -0.2954
11123TIP3    H154784   5.691   6.373  16.295  0.1796  0.5170  0.1518
11123TIP3    H254785   5.571   6.281  16.289 -0.1186  0.9599 -0.8217
11124TIP3   OH254786   5.754   6.013   5.085  0.5222 -0.2934  0.1398
11124TIP3    H154787   5.677   6.008   5.028  1.7290  0.1772 -1.6184
11124TIP3    H254788   5.809   5.941   5.056  1.6696  0.6518 -0.0736
11125TIP3   OH254789   5.127   5.043  12.666  0.3021 -0.2033  0.1299
11125TIP3    H154790   5.043   5.085  12.648  0.7780  0.2638 -1.1138
11125TIP3    H254791   5.114   4.951  12.645 -0.2410 -0.3674  1.1438
11126TIP3   OH254792   3.424   4.059   5.050 -0.8306 -0.1363  0.4827
11126TIP3    H154793   3.445   3.985   5.107 -1.7607 -2.7759 -2.3339
11126TIP3    H254794   3.343   4.095   5.086  0.0779  0.1581  2.3873
11127TIP3   OH254795   6.636   0.854   0.882 -0.2765  0.1559 -0.5095
11127TIP3    H154796   6.674   0.839   0.795  3.1598 -0.2764  0.9051
11127TIP3    H254797   6.576   0.781   0.895 -1.3576  0.5567 -2.6837
11128TIP3   OH254798   6.669   4.027  14.379  0.0932 -0.1252  0.0882
11128TIP3    H154799   6.715   3.992  14.303  2.9402  0.2670  1.5087
11128TIP3    H254800   6.692   4.120  14.380 -0.8293  0.1080  0.8175
11129TIP3   OH254801   0.805   5.490   0.064 -0.2358 -0.5387  0.3660
11129TIP3    H154802   0.828   5.527   0.149 -0.8848 -0.3053  0.4415
11129TIP3    H254803   0.829   5.397   0.070  2.9144  0.0975 -0.3530
11130TIP3   OH254804   4.266   4.074  16.434 -0.7618  0.1018 -0.0341
11130TIP3    H154805   4.287   4.145  16.495 -1.4739  1.5772 -1.4301
11130TIP3    H254806   4.178   4.046  16.459 -0.1300 -1.0134  1.1199
11131TIP3   OH254807   4.882   1.482  15.612  0.1214  0.1444 -0.6558
11131TIP3    H154808   4.822   1.472  15.686  1.7880 -2.1437  0.5054
11131TIP3    H254809   4.853   1.417  15.549  1.1006 -0.6938 -0.2608
11132TIP3   OH254810   6.149   4.231   0.645 -0.6686 -0.2916  0.0352
11132TIP3    H154811   6.226   4.208   0.697 -0.9897 -2.0678 -0.1910
11132TIP3    H254812   6.139   4.325   0.656  1.4394 -0.0433  0.1872
11133TIP3   OH254813   0.784   0.165   4.032 -0.3734 -0.0951 -0.6454
11133TIP3    H154814   0.809   0.247   4.073  0.7283 -1.0314  0.6315
11133TIP3    H254815   0.841   0.158   3.955  0.1134 -0.0510 -0.2917
11134TIP3   OH254816   2.125   1.145  11.075 -0.8517 -0.2817 -0.0963
11134TIP3    H154817   2.094   1.236  11.072  2.1375  0.9693  1.9149
11134TIP3    H254818   2.098   1.108  10.991 -3.7768  1.8547 -0.2369
11135TIP3   OH254819   3.790   3.674   5.901  0.4492  0.1640  0.0306
11135TIP3    H154820   3.724   3.696   5.835  0.5296 -1.1424 -0.5068
11135TIP3    H254821   3.833   3.757   5.920 -0.8689  0.9116 -0.1287
11136TIP3   OH254822   0.053   1.208  16.922  0.0085 -0.4329  0.6503
11136TIP3    H154823   0.100   1.282  16.883 -1.9703  1.1831  1.1330
11136TIP3    H254824  -0.032   1.208  16.877 -0.8118 -1.0561  2.1462
11137TIP3   OH254825   4.110   4.219  14.588  0.0526  0.0010 -0.6170
11137TIP3    H154826   4.161   4.153  14.541 -0.5522  0.1270 -1.4574
11137TIP3    H254827   4.030   4.229  14.538 -0.6684  0.0625  0.5056
11138TIP3   OH254828   2.609   3.673   5.658  0.0622  0.3254  0.0987
11138TIP3    H154829   2.622   3.722   5.739  2.9482  0.2189 -0.2026
11138TIP3    H254830   2.585   3.585   5.687  2.7977 -0.2146  1.0126
11139TIP3   OH254831   5.657   0.707  13.084  0.4495  0.8201  0.1305
11139TIP3    H154832   5.752   0.706  13.098  0.3154  1.2670  1.1788
11139TIP3    H254833   5.631   0.615  13.089  0.5821  0.8549  1.7483
11140TIP3   OH254834   5.444   1.089  16.249  0.3497 -0.1168  0.1733
11140TIP3    H154835   5.511   1.129  16.305  1.5829 -1.3370 -0.3496
11140TIP3    H254836   5.474   0.999  16.236  0.4550  0.2220 -2.8420
11141TIP3   OH254837   3.800   1.302  10.709 -0.9478 -0.6297 -0.8882
11141TIP3    H154838   3.837   1.280  10.795  1.2913  1.7898 -1.0956
11141TIP3    H254839   3.796   1.218  10.663  1.7151 -1.4849  0.2136
11142TIP3   OH254840   4.300   0.715   1.185 -0.0879  0.3381  0.0662
11142TIP3    H154841   4.348   0.655   1.127  0.7202  0.5556  0.4860
11142TIP3    H254842   4.229   0.662   1.220 -0.3007  0.0629 -0.7437
11143TIP3   OH254843   6.598   5.234   1.013 -0.4048 -0.4168 -0.3733
11143TIP3    H154844   6.606   5.142   0.989  2.5424  0.1140 -2.0184
11143TIP3    H254845   6.644   5.241   1.097  0.9068 -0.2288 -1.0808
11144TIP3   OH254846   3.067   3.131   1.015 -0.3673  0.3699 -0.2770
11144TIP3    H154847   2.985   3.093   1.047  0.3392  0.9571  2.5228
11144TIP3    H254848   3.111   3.059   0.971 -1.4828 -0.5312  0.0200
11145TIP3   OH254849   3.816   6.030  10.347  0.5837 -0.2433  0.2265
11145TIP3    H154850   3.808   5.941  10.314  1.1599 -0.3763  0.4344
11145TIP3    H254851   3.906   6.036  10.378  0.4891  0.3492  0.3988
11146TIP3   OH254852   3.206   5.611  12.045 -0.2494 -0.3740  0.2172
11146TIP3    H154853   3.235   5.676  11.981 -0.8418 -2.0123 -1.8042
11146TIP3    H254854   3.214   5.656  12.129  1.5360  1.5166 -0.8678
11147TIP3   OH254855   3.868   3.502   0.591 -0.0247  0.2615  0.1194
11147TIP3    H154856   3.904   3.509   0.679  0.6816  0.7336 -0.2023
11147TIP3    H254857   3.933   3.544   0.535 -1.4103  1.8279 -0.3868
11148TIP3   OH254858   6.642   1.158   4.472 -0.7848  0.3821  0.3658
11148TIP3    H154859   6.621   1.071   4.438 -0.7251 -0.0872  1.4862
11148TIP3    H254860   6.731   1.150   4.505 -1.2560  0.4657  1.7155
11149TIP3   OH254861   4.859   6.086  13.709  0.0319 -0.4662  0.1337
11149TIP3    H154862   4.813   6.150  13.656  0.9705  0.9888  0.9890
11149TIP3    H254863   4.932   6.057  13.655 -0.3446 -0.7631 -0.2211
11150TIP3   OH254864   5.100   0.509   5.374  0.0570  0.0326  0.6155
11150TIP3    H154865   5.032   0.576   5.382  1.9401  2.5413 -2.0021
11150TIP3    H254866   5.177   0.548   5.415  0.6946 -1.4727  0.9261
11151TIP3   OH254867   5.151   0.985  11.946 -0.1578  0.8750 -0.7213
11151TIP3    H154868   5.199   0.988  11.864  0.9213 -0.2636 -0.1764
11151TIP3    H254869   5.080   0.922  11.930  0.8914 -0.4442 -0.4096
11152TIP3   OH254870   5.465   2.443   2.467  0.0120 -0.3781 -0.2371
11152TIP3    H154871   5.476   2.392   2.387  0.8447 -1.8531  0.7690
11152TIP3    H254872   5.489   2.382   2.537 -0.4135  0.9655  1.1158
11153TIP3   OH254873   5.539   2.067  12.880 -0.7441 -0.0456 -0.1383
11153TIP3    H154874   5.498   2.115  12.951 -2.3022 -0.7859 -0.5103
11153TIP3    H254875   5.597   2.131  12.838 -0.2660  0.5584  1.3908
11154TIP3   OH254876   3.735   6.515  16.162  0.1573  0.0598 -0.0262
11154TIP3    H154877   3.780   6.475  16.088 -0.0624 -0.8839  0.3404
11154TIP3    H254878   3.683   6.445  16.201  0.4169  0.4843  1.1504
11155TIP3   OH254879   0.575   0.073   2.331  0.1400  0.4435  0.1827
11155TIP3    H154880   0.645   0.111   2.384  0.8443  1.0690 -1.1376
11155TIP3    H254881   0.602  -0.017   2.317 -0.5727 -0.0377  1.7196
11156TIP3   OH254882   1.772   1.874   3.785  0.0175 -0.1970  0.3223
11156TIP3    H154883   1.738   1.786   3.801  0.1541 -0.8602 -2.5693
11156TIP3    H254884   1.864   1.869   3.811  0.1336 -1.0317 -0.2177
11157TIP3   OH254885   3.523   6.388  16.289 -0.5603 -0.6036 -0.6168
11157TIP3    H154886   3.502   6.340  16.209  0.6288  0.4291 -1.5978
11157TIP3    H254887   3.463   6.463  16.288 -0.4966 -0.5528 -0.5821
11158TIP3   OH254888   5.089   1.361   1.932 -0.1688 -0.6841  0.8704
11158TIP3    H154889   5.104   1.337   2.023  0.4072  0.8765  1.2325
11158TIP3    H254890   5.123   1.450   1.926 -2.2190  0.0841 -0.3154
11159TIP3   OH254891   2.739   4.667  10.789  0.2280 -0.0792 -0.2653
11159TIP3    H154892   2.677   4.658  10.716 -1.1085 -0.6136  0.9024
11159TIP3    H254893   2.707   4.743  10.838 -0.0755 -0.9086  0.8568
11160TIP3   OH254894   2.727   5.386   5.049 -0.5092 -0.0788  1.3437
11160TIP3    H154895   2.674   5.378   4.970 -1.7369  0.5574  2.0700
11160TIP3    H254896   2.812   5.348   5.025 -0.1164  1.9635 -0.9465
11161TIP3   OH254897   2.053   3.241  14.295 -0.1242  0.4808  0.0400
11161TIP3    H154898   2.015   3.189  14.366 -0.0891 -0.3831 -0.5589
11161TIP3    H254899   2.000   3.321  14.292 -1.1524 -0.1877 -0.0151
11162TIP3   OH254900   4.455   1.210  11.876 -0.4628  0.2990 -0.7687
11162TIP3    H154901   4.535   1.261  11.866  0.2413 -0.2741  1.3686
11162TIP3    H254902   4.469   1.133  11.822  0.4043  0.2673 -0.5174
11163TIP3   OH254903   5.770   4.038   2.328 -0.0072 -0.0114 -0.3652
11163TIP3    H154904   5.813   3.959   2.295  0.6947  0.7316 -1.2884
11163TIP3    H254905   5.777   4.030   2.423  0.4528 -0.8444 -0.4520
11164TIP3   OH254906   0.873   6.386   5.642  0.2306  0.1772  0.2545
11164TIP3    H154907   0.805   6.432   5.594 -2.0932 -2.0063  1.2424
11164TIP3    H254908   0.899   6.313   5.585 -1.2665 -1.3742  1.4481
11165TIP3   OH254909   1.932   2.149  17.109  0.4510  0.7043  0.0031
11165TIP3    H154910   2.010   2.134  17.163  0.4150  0.3983 -0.0250
11165TIP3    H254911   1.947   2.096  17.030 -0.6043 -0.8989  0.8039
11166TIP3   OH254912   3.564   3.593  15.482  0.3086 -0.0004 -0.5028
11166TIP3    H154913   3.659   3.591  15.468  0.2953  2.0835 -1.2938
11166TIP3    H254914   3.541   3.686  15.474 -1.5594 -0.2182  1.4035
11167TIP3   OH254915   3.206   4.414  13.956  0.7981  0.0075 -0.2615
11167TIP3    H154916   3.237   4.366  14.033  1.3214 -0.1296 -0.5454
11167TIP3    H254917   3.267   4.487  13.947  1.3677 -0.5530 -1.1274
11168TIP3   OH254918   2.596   4.830  14.797  0.2246  0.0339  0.1097
11168TIP3    H154919   2.570   4.750  14.750 -0.6593  0.7544 -0.6758
11168TIP3    H254920   2.605   4.802  14.888 -0.1946 -0.9399 -0.1301
11169TIP3   OH254921   6.143   3.922  12.050  0.0046  0.7868 -0.1556
11169TIP3    H154922   6.237   3.936  12.055  0.0369  0.8629 -0.8341
11169TIP3    H254923   6.119   3.950  11.961 -0.7662  1.3991  0.2322
11170TIP3   OH254924   6.508   5.023  17.020 -0.0803 -0.2893 -0.3639
11170TIP3    H154925   6.592   4.998  17.058 -0.6453 -1.0748  0.4265
11170TIP3    H254926   6.530   5.062  16.936  1.0664 -0.6002 -0.2258
11171TIP3   OH254927   1.396   3.936  15.125  0.0971 -0.8010  0.3845
11171TIP3    H154928   1.379   3.998  15.054 -2.5064 -0.1905  1.4258
11171TIP3    H254929   1.462   3.980  15.179 -0.6984  0.4653  0.3737
11172TIP3   OH254930   3.427   5.628  16.077 -0.1299  0.0624 -0.1791
11172TIP3    H154931   3.510   5.580  16.082 -0.1479  0.0964  0.4296
11172TIP3    H254932   3.408   5.653  16.167 -0.1122  1.2145 -0.4759
11173TIP3   OH254933   0.584   5.870  12.296 -0.2600  0.8200  0.0725
11173TIP3    H154934   0.676   5.852  12.275 -0.5347  0.5663 -0.9923
11173TIP3    H254935   0.564   5.811  12.368  0.5895  1.3363  0.7413
11174TIP3   OH254936   0.603   3.023  13.678 -0.2691  0.9066 -0.7908
11174TIP3    H154937   0.519   3.064  13.695 -0.2709  0.7307 -0.3801
11174TIP3    H254938   0.599   2.939  13.723  0.7255  1.5581  0.5640
11175TIP3   OH254939   6.686   4.758   5.144 -0.1233  0.0845  1.0520
11175TIP3    H154940   6.726   4.762   5.057  1.1082 -0.9611  1.5359
11175TIP3    H254941   6.592   4.761   5.128  0.0798 -0.3812 -0.3371
11176TIP3   OH254942   3.261   1.470  11.886  0.2707 -0.1105  0.0964
11176TIP3    H154943   3.271   1.529  11.961  1.3412 -0.2962  0.1092
11176TIP3    H254944   3.317   1.395  11.906  0.1273 -0.4232 -0.6301
11177TIP3   OH254945   0.542   2.696   1.962  0.0392  0.0489 -0.5174
11177TIP3    H154946   0.617   2.642   1.989 -1.4358 -2.8041 -1.7433
11177TIP3    H254947   0.502   2.647   1.890 -2.3025  2.1163 -0.7432
11178TIP3   OH254948   4.278   0.525   0.831 -0.1164  0.1108  0.1285
11178TIP3    H154949   4.282   0.487   0.919  1.1966  0.5789  0.2882
11178TIP3    H254950   4.304   0.453   0.774  2.9490  0.8148  0.4776
11179TIP3   OH254951   5.163   0.275   2.863 -0.4845  0.0006 -0.3608
11179TIP3    H154952   5.164   0.334   2.788  0.1195  1.1272  0.4966
11179TIP3    H254953   5.088   0.303   2.915 -0.2665 -0.0504 -0.0101
11180TIP3   OH254954   4.134   5.755   3.100  0.4411  0.0486  0.0104
11180TIP3    H154955   4.120   5.843   3.135  0.1351  0.7801 -1.8512
11180TIP3    H254956   4.046   5.723   3.079  0.5802 -0.5991  0.3662
11181TIP3   OH254957   4.461   6.141   1.190 -0.5012 -0.8891 -0.2571
11181TIP3    H154958   4.413   6.062   1.169  0.1615 -0.9683 -1.5575
11181TIP3    H254959   4.519   6.155   1.115 -0.2795  0.5707  0.1550
11182TIP3   OH254960   4.565   1.718   5.579 -0.3270 -0.7559  0.5142
11182TIP3    H154961   4.647   1.767   5.576 -0.6131 -0.2886  0.3123
11182TIP3    H254962   4.568   1.673   5.664 -0.1833 -0.1770  0.8228
11183TIP3   OH254963   2.904   3.559  17.334 -0.2560 -0.0336  0.0482
11183TIP3    H154964   2.972   3.492  17.327  0.3620  0.3750  1.6727
11183TIP3    H254965   2.942   3.637  17.293 -0.5426 -0.3548 -0.8420
11184TIP3   OH254966   6.248   1.233   0.605  0.6307  0.1423 -0.4712
11184TIP3    H154967   6.169   1.250   0.554  0.1714  0.7863  0.4309
11184TIP3    H254968   6.297   1.316   0.603  0.2317  0.4201  0.7640
11185TIP3   OH254969   2.708   3.011   0.875 -0.0416  0.3495 -0.2568
11185TIP3    H154970   2.714   3.015   0.970  0.3577 -1.2905 -0.1921
11185TIP3    H254971   2.716   3.103   0.847 -0.6555  0.9090  1.2928
11186TIP3   OH254972   3.053   2.277   4.616 -0.1644  0.0059 -0.5812
11186TIP3    H154973   2.978   2.220   4.633 -0.4365  0.0638 -1.5256
11186TIP3    H254974   3.111   2.264   4.690 -1.0446 -0.1550  0.0881
11187TIP3   OH254975   3.173   2.767  16.338 -0.2050 -0.2185 -0.1187
11187TIP3    H154976   3.148   2.693  16.283 -2.0057  0.2329  0.0354
11187TIP3    H254977   3.204   2.834  16.277  1.0611 -0.9177 -0.2845
11188TIP3   OH254978   0.616   5.878  16.039 -0.3936 -0.3315  0.5336
11188TIP3    H154979   0.660   5.911  15.960  1.6599 -1.2301  1.2342
11188TIP3    H254980   0.530   5.850  16.008 -0.2758  0.8865 -1.0486
11189TIP3   OH254981   2.603   2.042   2.797  0.9517  0.1018  0.0746
11189TIP3    H154982   2.518   2.079   2.824  1.1731  0.2349  0.6092
11189TIP3    H254983   2.608   2.060   2.703 -0.1014 -0.8905 -0.1919
11190TIP3   OH254984   0.869   5.655  17.064 -0.5440  0.2586  0.7736
11190TIP3    H154985   0.867   5.598  16.986 -0.6759  1.5923 -0.2352
11190TIP3    H254986   0.870   5.594  17.138 -0.1640 -1.0598 -0.2692
11191TIP3   OH254987   3.421   6.538  14.288  0.0000  1.0150  0.0923
11191TIP3    H154988   3.501   6.589  14.277  1.3004 -1.2046 -1.5313
11191TIP3    H254989   3.427   6.470  14.221 -3.0963  0.5500  0.1691
11192TIP3   OH254990   4.753   2.398   3.013  0.1409 -0.3232  0.1977
11192TIP3    H154991   4.704   2.333   2.963  0.5710  0.5422 -1.4689
11192TIP3    H254992   4.687   2.454   3.052 -0.2605  0.4049 -1.4344
11193TIP3   OH254993   6.640   5.659  13.738  0.5392 -0.1796  0.8124
11193TIP3    H154994   6.688   5.716  13.797  1.7264  0.3147 -0.5760
11193TIP3    H254995   6.550   5.660  13.771  0.8318  1.3537  1.6457
11194TIP3   OH254996   2.881   6.365   0.861 -0.2339 -0.1610  0.2644
11194TIP3    H154997   2.827   6.387   0.938  0.7790  2.8275  0.2709
11194TIP3    H254998   2.877   6.443   0.806  4.2015  0.4106  0.3948
11195TIP3   OH254999   2.417   0.165   5.864 -0.1582 -0.1960  0.5356
11195TIP3    H155000   2.367   0.228   5.811  0.0590 -1.3042 -1.0750
11195TIP3    H255001   2.507   0.197   5.861 -0.0449 -0.5472 -0.2963
11196TIP3   OH255002   5.925   3.674  13.867 -0.5466 -0.3742  0.4260
11196TIP3    H155003   6.006   3.663  13.917  0.4396 -0.0852 -1.0468
11196TIP3    H255004   5.875   3.594  13.884  0.6487 -1.1791  0.2932
11197TIP3   OH255005   0.646   4.307   5.359 -0.0169  0.3752  0.0513
11197TIP3    H155006   0.650   4.372   5.429  1.0567 -1.2406  1.6186
11197TIP3    H255007   0.566   4.258   5.376  1.2886 -1.3894  1.5720
11198TIP3   OH255008   1.082   1.088   6.325 -0.5256 -0.1683 -0.4162
11198TIP3    H155009   1.106   1.158   6.264 -1.2052  1.2094  0.8280
11198TIP3    H255010   0.987   1.083   6.319 -0.8546  1.5844  2.1128
11199TIP3   OH255011   0.969   5.064   5.088  0.0616 -0.7108  0.3545
11199TIP3    H155012   0.941   5.129   5.024 -0.2316 -0.6589  0.5358
11199TIP3    H255013   0.927   4.983   5.061 -2.6884 -0.0580  2.2566
11200TIP3   OH255014   4.178   5.760  11.696  0.0581 -0.4496  0.1306
11200TIP3    H155015   4.229   5.804  11.627  1.5970 -2.7771 -0.3447
11200TIP3    H255016   4.111   5.712  11.648 -0.0635 -0.5618  0.4153
11201TIP3   OH255017   5.975   6.631  16.318  0.1613 -0.2409  0.0364
11201TIP3    H155018   5.957   6.578  16.396  1.8601 -0.3955  0.3659
11201TIP3    H255019   6.066   6.660  16.329  0.3762 -0.1034 -1.7945
11202TIP3   OH255020   4.504   3.480   5.438  0.4777 -0.0960 -0.3286
11202TIP3    H155021   4.472   3.407   5.491 -2.5175  0.8532 -0.6651
11202TIP3    H255022   4.501   3.555   5.497  2.3887  0.0542 -0.3456
11203TIP3   OH255023   4.075   1.530   1.352  0.1045 -0.5722 -0.0611
11203TIP3    H155024   4.006   1.580   1.307 -0.1711 -0.5267  0.4069
11203TIP3    H255025   4.107   1.470   1.285  2.0158  1.7065 -1.3541
11204TIP3   OH255026   0.384   4.833   1.453  0.0321  0.2256 -0.2631
11204TIP3    H155027   0.414   4.791   1.533  0.3325  2.1844  0.7086
11204TIP3    H255028   0.324   4.769   1.413 -1.2709 -0.2278  2.2621
11205TIP3   OH255029   2.254   4.966  16.159  0.6790 -0.2884  0.0968
11205TIP3    H155030   2.255   4.914  16.240 -0.0910 -0.4887 -0.0099
11205TIP3    H255031   2.282   4.905  16.091  0.6949 -0.3048  0.1174
11206TIP3   OH255032   1.993   6.550   5.911 -0.3841 -0.1967 -0.2099
11206TIP3    H155033   1.939   6.471   5.908  0.2863 -0.6276 -1.5763
11206TIP3    H255034   2.078   6.523   5.877  0.2492  0.8378  0.4695
11207TIP3   OH255035   3.859   6.320   4.678  0.2349 -0.0567  0.1776
11207TIP3    H155036   3.940   6.367   4.695  0.1893 -0.5394  1.9268
11207TIP3    H255037   3.887   6.232   4.653  0.2638  0.2898 -1.1062
11208TIP3   OH255038   3.425   5.887  13.906  0.1635  0.0925  0.3452
11208TIP3    H155039   3.348   5.834  13.887 -2.1905  2.7654  1.7699
11208TIP3    H255040   3.450   5.862  13.995  0.1368  0.1769  0.3762
11209TIP3   OH255041   6.457   3.399  11.747  0.5274 -0.5203  0.2343
11209TIP3    H155042   6.409   3.317  11.738 -1.2081  0.4106  0.4610
11209TIP3    H255043   6.430   3.451  11.672  2.1325 -0.3714 -0.2768
11210TIP3   OH255044   0.056   0.625  17.178  0.9014 -0.0539  0.0592
11210TIP3    H155045   0.019   0.685  17.242  0.0444 -1.9503  1.4557
11210TIP3    H255046   0.150   0.628  17.193  0.7095 -0.4327  1.4071
11211TIP3   OH255047   3.473   5.776   1.172 -0.4277  0.5430  0.1638
11211TIP3    H155048   3.456   5.740   1.085 -1.4424  0.8534  0.2146
11211TIP3    H255049   3.479   5.871   1.158  0.7633  0.5016  0.2461
11212TIP3   OH255050   5.321   5.142  14.556  0.2659  0.2952 -0.1786
11212TIP3    H155051   5.409   5.128  14.520  1.1779 -0.4741  2.1771
11212TIP3    H255052   5.326   5.228  14.597  0.0606  0.0501  0.3591
11213TIP3   OH255053   3.885   0.475   4.972  0.1615  0.2746 -0.1328
11213TIP3    H155054   3.873   0.445   4.882 -0.9893  0.6391 -0.1078
11213TIP3    H255055   3.933   0.557   4.964  0.1565  0.2525 -0.4008
11214TIP3   OH255056   2.792   6.101  16.599  0.1952 -0.6273  0.3016
11214TIP3    H155057   2.877   6.099  16.644  0.3393 -1.4328  0.0113
11214TIP3    H255058   2.770   6.194  16.594  0.2687 -0.4971  1.8511
11215TIP3   OH255059   4.000   3.421   5.886 -0.2672 -0.0730 -0.7429
11215TIP3    H155060   3.956   3.504   5.905 -0.5848 -0.4199  0.1216
11215TIP3    H255061   3.958   3.358   5.945  0.3274 -0.7373 -1.0107
11216TIP3   OH255062   0.608   4.430  15.358  0.3491  0.2499 -0.3018
11216TIP3    H155063   0.619   4.353  15.414  1.8704  1.1421  0.7103
11216TIP3    H255064   0.627   4.398  15.269  0.4445 -0.6327  0.0234
11217TIP3   OH255065   3.381   4.018  15.893  0.1642 -0.3895 -0.3689
11217TIP3    H155066   3.339   4.056  15.815 -1.0865  4.0763  2.1248
11217TIP3    H255067   3.459   4.071  15.906 -0.7006  0.3925  2.3611
11218TIP3   OH255068   3.784   0.604  14.717 -0.5289 -1.2684 -0.1143
11218TIP3    H155069   3.700   0.587  14.675  0.2136 -1.1759 -1.7489
11218TIP3    H255070   3.849   0.574  14.653  0.7918  2.7508 -0.9875
11219TIP3   OH255071   1.882   2.501   3.305 -0.6617  0.3584 -0.1806
11219TIP3    H155072   1.842   2.446   3.237 -1.9296 -0.6734  1.3198
11219TIP3    H255073   1.931   2.440   3.359 -1.7128  0.7411  1.2489
11220TIP3   OH255074   1.582   4.894  14.187 -0.4392  0.0593  0.0197
11220TIP3    H155075   1.494   4.868  14.162 -0.8984  1.1457  0.4305
11220TIP3    H255076   1.609   4.957  14.120  0.0343 -0.2865 -0.1193
11221TIP3   OH255077   2.810   4.029  10.879  0.0032 -0.0723 -0.0510
11221TIP3    H155078   2.898   4.060  10.858  0.4281  0.9477  2.8049
11221TIP3    H255079   2.767   4.020  10.794  2.5486  0.2717 -1.4810
11222TIP3   OH255080   5.360   1.927  11.747 -0.6463 -0.2070  0.1278
11222TIP3    H155081   5.278   1.955  11.706 -0.8300  0.1685  0.7315
11222TIP3    H255082   5.362   1.974  11.831  0.4463  0.2252 -0.1159
11223TIP3   OH255083   4.573   2.522   5.551  0.2716 -0.0159 -0.1265
11223TIP3    H155084   4.619   2.581   5.611 -1.0069  0.8296  0.0446
11223TIP3    H255085   4.481   2.546   5.558 -0.2720 -1.8505 -0.2591
11224TIP3   OH255086   1.132   0.269   6.825  0.2150  0.0038 -0.4897
11224TIP3    H155087   1.119   0.331   6.897  1.6378  0.1505 -0.3220
11224TIP3    H255088   1.192   0.313   6.765  2.7192 -1.7746  0.4905
11225TIP3   OH255089   3.642   4.367   0.457  0.3296 -0.2418  0.7336
11225TIP3    H155090   3.677   4.412   0.379 -0.7054  2.5065  1.7294
11225TIP3    H255091   3.549   4.355   0.438  0.4538 -1.3668  0.7862
11226TIP3   OH255092   6.528   6.497   6.210  0.8000  0.2888  0.3388
11226TIP3    H155093   6.580   6.576   6.196 -1.3803  1.7107 -0.2168
11226TIP3    H255094   6.465   6.522   6.277 -0.0064 -0.9488  0.0629
11227TIP3   OH255095   3.597   3.216  11.876  0.1704 -0.1023 -0.2729
11227TIP3    H155096   3.600   3.149  11.944 -0.7411  0.6643  0.5439
11227TIP3    H255097   3.651   3.288  11.910  0.6849 -0.1841 -0.8946
11228TIP3   OH255098   1.738   3.097  15.752 -0.1070  0.6553  0.3459
11228TIP3    H155099   1.672   3.099  15.682  0.5681 -0.0555 -0.3298
11228TIP3    H255100   1.692   3.130  15.829 -1.0723  0.7704 -0.2617
11229TIP3   OH255101   6.415   3.960  12.099 -0.2687 -0.2359  0.1494
11229TIP3    H155102   6.453   4.023  12.160 -1.3717  0.4528  0.1477
11229TIP3    H255103   6.427   3.875  12.141  0.2084  0.0945  0.6855
11230TIP3   OH255104   2.997   4.281   5.336 -0.3040 -0.0803 -0.0880
11230TIP3    H155105   3.061   4.329   5.388  1.0547 -0.1832 -1.5634
11230TIP3    H255106   2.974   4.205   5.389 -0.7334  0.9844  1.3035
11231TIP3   OH255107   0.371   1.582   4.364  0.6790 -0.0575 -0.0806
11231TIP3    H155108   0.304   1.536   4.415  1.1154  0.9795  1.5298
11231TIP3    H255109   0.451   1.532   4.380  0.3893 -1.1030 -1.7328
11232TIP3   OH255110   3.218   1.095  14.461 -0.0719  0.1584  0.4091
11232TIP3    H155111   3.130   1.087  14.496  0.0983 -2.3990  0.4022
11232TIP3    H255112   3.255   1.007  14.467  3.1922  1.4529  2.2655
11233TIP3   OH255113   3.857   4.913  15.225  0.0787  0.5071  0.5622
11233TIP3    H155114   3.856   4.836  15.168 -2.5551 -0.4153  1.7122
11233TIP3    H255115   3.820   4.983  15.171 -1.5707 -0.1457  0.7821
11234TIP3   OH255116   0.451   2.568   1.108  0.3497 -0.1359 -0.0326
11234TIP3    H155117   0.369   2.522   1.093 -0.5801  0.9703  1.4366
11234TIP3    H255118   0.431   2.660   1.092  1.1355  0.2172  0.8951
11235TIP3   OH255119   6.567   1.703   2.704  0.1934 -0.0800 -0.3374
11235TIP3    H155120   6.635   1.660   2.651  0.6586  0.2668 -0.0303
11235TIP3    H255121   6.573   1.796   2.680  1.1861  0.2822  1.1189
11236TIP3   OH255122   1.980   0.718   5.148 -0.0425  0.5319  0.2836
11236TIP3    H155123   1.961   0.749   5.236 -0.0176 -0.6423  0.7236
11236TIP3    H255124   1.902   0.667   5.123  0.0184  0.7172 -0.3071
11237TIP3   OH255125   0.474   5.398  13.669 -0.0575 -0.0053 -0.7349
11237TIP3    H155126   0.406   5.410  13.603 -2.8830 -2.6730  1.3977
11237TIP3    H255127   0.439   5.330  13.727  3.6097 -0.0760  1.7095
11238TIP3   OH255128   6.484   0.666  11.322  0.1636  0.7346  0.2258
11238TIP3    H155129   6.531   0.610  11.260  0.9873 -0.7889  2.1351
11238TIP3    H255130   6.413   0.705  11.270 -0.3793 -1.9794 -1.2489
11239TIP3   OH255131   5.348   4.703  16.478 -0.3971  0.6233  0.0752
11239TIP3    H155132   5.359   4.691  16.384  0.2734  0.6199  0.1475
11239TIP3    H255133   5.388   4.788  16.497  4.3215 -1.4960  1.0968
11240TIP3   OH255134   5.243   1.945  13.265  0.1119  0.6253  0.1966
11240TIP3    H155135   5.270   1.853  13.265  0.3597  0.6824  1.3902
11240TIP3    H255136   5.147   1.942  13.261  0.1419  0.3421 -0.4529
11241TIP3   OH255137   4.037   3.849  12.370  0.8055 -0.1408  0.7056
11241TIP3    H155138   3.980   3.867  12.295  1.1211  0.6481  0.6488
11241TIP3    H255139   4.121   3.825  12.331  1.4200  1.7194  0.7767
11242TIP3   OH255140   3.006   3.984  14.183  0.1208  0.7490  0.3993
11242TIP3    H155141   2.935   4.042  14.154  1.3382  3.3847  2.2582
11242TIP3    H255142   2.964   3.899  14.195 -2.1733  1.6186 -0.7854
11243TIP3   OH255143   0.870   2.315  15.597  0.0167 -0.2964  0.0823
11243TIP3    H155144   0.829   2.299  15.512  0.5173  1.3132 -0.4907
11243TIP3    H255145   0.799   2.300  15.660 -1.1032  1.0239 -0.7990
11244TIP3   OH255146   4.374   6.121  10.913 -0.3477  0.3747  0.0889
11244TIP3    H155147   4.350   6.125  10.820 -0.5707 -2.2319 -0.0258
11244TIP3    H255148   4.338   6.202  10.950  0.9672  2.1944 -2.3203
11245TIP3   OH255149   6.718   2.976  12.400 -0.0998  0.4950 -0.0771
11245TIP3    H155150   6.693   3.021  12.318  1.1511  2.3038  0.4632
11245TIP3    H255151   6.699   3.040  12.468  0.3944 -0.3829  0.8991
11246TIP3   OH255152   5.558   0.066   5.226 -0.4658 -0.4263  0.6433
11246TIP3    H155153   5.471   0.102   5.209 -0.2508 -0.8127 -1.7575
11246TIP3    H255154   5.610   0.141   5.254 -1.3820 -0.0412  1.3724
11247TIP3   OH255155   6.687   3.951   5.515 -0.0640  0.1992  0.5954
11247TIP3    H155156   6.617   3.916   5.460 -1.5602 -1.2916  3.2490
11247TIP3    H255157   6.767   3.920   5.474 -1.0283 -0.0644 -1.2203
11248TIP3   OH255158   1.421   3.131  10.450 -0.0925  0.1558  0.4531
11248TIP3    H155159   1.391   3.203  10.505  0.4587 -0.1294  1.1378
11248TIP3    H255160   1.354   3.063  10.459  0.6582 -0.4414  1.8998
11249TIP3   OH255161   3.758   1.736  12.672 -0.1001  0.5447  0.0731
11249TIP3    H155162   3.776   1.643  12.684 -0.2810  0.5493  0.3964
11249TIP3    H255163   3.830   1.780  12.718  0.6502  0.5736 -1.0941
11250TIP3   OH255164   5.643   0.926   2.747  0.5218  0.0266  0.3290
11250TIP3    H155165   5.575   0.993   2.761  0.1845 -0.4602  1.0868
11250TIP3    H255166   5.721   0.976   2.724  0.3743  0.7162  1.2648
11251TIP3   OH255167   6.087   6.380   2.154  0.9139  0.1819  0.8336
11251TIP3    H155168   6.018   6.404   2.216  0.9613  1.1863  0.5074
11251TIP3    H255169   6.156   6.445   2.168  1.6231 -0.5549  0.8571
11252TIP3   OH255170   1.361   2.316   5.497 -0.5117  0.5163  0.1984
11252TIP3    H155171   1.441   2.316   5.548  0.0027  0.9668 -0.5943
11252TIP3    H255172   1.291   2.318   5.563  0.1314  1.2929  0.8843
11253TIP3   OH255173   5.940   5.226   5.495 -0.1139 -0.4264  0.2547
11253TIP3    H155174   5.956   5.132   5.509  0.9220 -0.1325  1.2130
11253TIP3    H255175   6.003   5.250   5.427 -0.5457 -0.4626 -0.1649
11254TIP3   OH255176   6.536   3.784   1.971 -0.4837  0.7086 -0.0016
11254TIP3    H155177   6.591   3.828   1.905 -0.1423  1.4431  0.7570
11254TIP3    H255178   6.502   3.855   2.026 -1.6402  0.1961 -0.0287
11255TIP3   OH255179   4.753   5.806  12.473 -0.0126 -0.5205  0.6649
11255TIP3    H155180   4.750   5.762  12.558 -1.5999 -1.0837  0.3482
11255TIP3    H255181   4.666   5.844  12.462  0.2291 -0.2971 -0.6380
11256TIP3   OH255182   0.987   0.952   2.441  0.2051  0.4475  0.4193
11256TIP3    H155183   1.043   0.902   2.381 -0.0917 -0.1453  0.6267
11256TIP3    H255184   0.905   0.904   2.442 -0.0841  0.9360  0.6451
11257TIP3   OH255185   5.073   6.005  13.568 -0.1139 -0.3765 -0.5581
11257TIP3    H155186   5.023   6.033  13.491 -0.0228 -1.7327 -1.1332
11257TIP3    H255187   5.119   5.926  13.539  0.0712 -0.8001  0.8381
11258TIP3   OH255188   0.996   5.537   4.674  0.3871 -0.3481  0.5511
11258TIP3    H155189   0.912   5.567   4.640  1.4179  1.3277 -0.6782
11258TIP3    H255190   0.983   5.444   4.691 -2.2508  0.1948  2.1710
11259TIP3   OH255191   4.472   6.452   5.901 -0.0891  0.0648  0.0073
11259TIP3    H155192   4.522   6.382   5.943  0.7264 -1.2412 -2.8768
11259TIP3    H255193   4.519   6.469   5.819 -0.6485  3.5951  0.2589
11260TIP3   OH255194   4.637   0.854   6.395  0.5062 -0.5096  0.0970
11260TIP3    H155195   4.717   0.892   6.431  0.1316 -0.5033  0.9481
11260TIP3    H255196   4.573   0.862   6.466 -0.8428  1.3343 -1.2367
11261TIP3   OH255197   5.337   2.306  11.948 -0.1019  0.2882  0.1812
11261TIP3    H155198   5.353   2.400  11.957 -0.0449  0.2463  0.5664
11261TIP3    H255199   5.372   2.283  11.862 -2.1071  1.0377 -0.8893
11262TIP3   OH255200   6.473   3.197  16.050  0.4623 -0.4841  0.1349
11262TIP3    H155201   6.500   3.120  16.100 -0.6910 -0.2404  1.1845
11262TIP3    H255202   6.479   3.169  15.959  2.7008 -0.9104  0.3482
11263TIP3   OH255203   1.136   6.613  11.885 -0.6179 -0.8477  0.2325
11263TIP3    H155204   1.127   6.577  11.973 -0.9413  1.1126  1.0571
11263TIP3    H255205   1.049   6.646  11.864 -0.2032 -0.0163 -0.2092
11264TIP3   OH255206   6.653   0.707  12.045  0.1948  0.6667  0.6031
11264TIP3    H155207   6.628   0.712  11.952  2.3621 -0.6565 -0.1195
11264TIP3    H255208   6.625   0.619  12.072  0.7154  0.5674  0.8223
11265TIP3   OH255209   0.883   1.995  12.759 -0.2912 -0.1566  0.3286
11265TIP3    H155210   0.854   2.074  12.712  0.9203  0.4534  0.5601
11265TIP3    H255211   0.808   1.936  12.755 -1.0656  0.8294 -0.2561
11266TIP3   OH255212   6.421   4.783   5.061 -0.4894  0.5085  0.3895
11266TIP3    H155213   6.351   4.826   5.111 -1.4705  0.6515 -1.0430
11266TIP3    H255214   6.420   4.827   4.976 -0.1447 -0.9809 -0.4093
11267TIP3   OH255215   2.833   2.951   3.733 -0.4307 -0.3031 -0.1246
11267TIP3    H155216   2.873   3.031   3.769  0.2277 -0.1553 -1.1545
11267TIP3    H255217   2.796   2.978   3.649 -0.7739 -0.9439 -0.1869
11268TIP3   OH255218   0.077   1.996   1.419  0.0449 -0.4730 -0.1615
11268TIP3    H155219   0.005   2.028   1.473  0.0361 -0.0167 -0.4402
11268TIP3    H255220   0.049   2.012   1.329 -0.0500 -1.4636 -0.3197
11269TIP3   OH255221   2.068   6.654  16.936  0.1532 -0.1273  0.8015
11269TIP3    H155222   2.106   6.712  16.871 -2.5748  1.2473  0.2736
11269TIP3    H255223   2.063   6.569  16.892 -1.2986  0.6895 -0.7363
11270TIP3   OH255224   5.667   4.627   2.300  0.6378 -0.3402 -0.4059
11270TIP3    H155225   5.709   4.658   2.380  0.3496  1.5899 -0.9528
11270TIP3    H255226   5.598   4.568   2.331 -0.7010  1.7680  0.9621
11271TIP3   OH255227   1.374   1.261  13.440  0.2085  0.6036 -0.6296
11271TIP3    H155228   1.463   1.249  13.407 -0.0785  0.0204 -1.2361
11271TIP3    H255229   1.353   1.352  13.422  0.9024  0.9165  0.0892
11272TIP3   OH255230   1.342   2.179   2.689  0.3029  0.1349  0.6515
11272TIP3    H155231   1.336   2.098   2.739  0.1305  0.0611  0.5107
11272TIP3    H255232   1.432   2.209   2.703  0.5741 -0.4351  0.1550
11273TIP3   OH255233   0.235   5.376   4.508  0.0157 -0.1529 -0.8610
11273TIP3    H155234   0.318   5.386   4.461 -0.1347  1.4463 -0.8231
11273TIP3    H255235   0.170   5.417   4.451 -0.3208  0.9397  0.2746
11274TIP3   OH255236   2.986   2.076   1.796  0.1942  0.3909 -0.0642
11274TIP3    H155237   2.955   1.989   1.769 -1.9416  0.6654  1.2537
11274TIP3    H255238   3.030   2.111   1.719 -0.3024 -1.2340 -1.1318
11275TIP3   OH255239   0.701   3.179   5.124 -0.0435  0.4397  0.0740
11275TIP3    H155240   0.703   3.191   5.029  0.2263 -2.9815 -0.4690
11275TIP3    H255241   0.609   3.161   5.144  0.0274  0.3751  0.3470
11276TIP3   OH255242   0.695   3.175   3.668 -0.5311 -0.1320 -0.0855
11276TIP3    H155243   0.603   3.182   3.696  0.2706 -1.4280  3.3553
11276TIP3    H255244   0.695   3.105   3.604 -2.1440  1.0435 -1.4679
11277TIP3   OH255245   0.271   4.453   0.875 -0.0926  0.4044 -0.5089
11277TIP3    H155246   0.274   4.536   0.923  0.4217  1.0958 -1.7041
11277TIP3    H255247   0.357   4.447   0.833 -0.5491 -0.1555 -1.3862
11278TIP3   OH255248   0.881   5.802  16.091  0.8484 -0.1896 -0.5587
11278TIP3    H155249   0.901   5.811  15.998  0.9377 -0.8793 -0.6121
11278TIP3    H255250   0.785   5.807  16.095  0.6566 -2.3537 -0.9826
11279TIP3   OH255251   4.395   1.723  11.784 -0.2330  0.0943  0.2714
11279TIP3    H155252   4.466   1.726  11.719 -0.6824  0.3427 -0.2184
11279TIP3    H255253   4.380   1.629  11.798 -0.4529  0.0375 -0.3398
11280TIP3   OH255254   2.631   4.769   2.632 -0.1563 -0.3227 -0.4385
11280TIP3    H155255   2.698   4.779   2.700  0.3235 -4.1248 -0.1116
11280TIP3    H255256   2.681   4.766   2.551 -0.4630  1.3332 -0.7290
11281TIP3   OH255257   1.193   3.291   4.546 -0.2816  0.7636  0.2983
11281TIP3    H155258   1.144   3.236   4.485 -0.4089  1.2095 -0.0001
11281TIP3    H255259   1.269   3.238   4.570 -0.5786  0.3205  0.2762
11282TIP3   OH255260   5.057   3.050   6.494 -0.0321  0.3419  0.0485
11282TIP3    H155261   5.051   2.964   6.454 -1.0183  0.5029 -0.1571
11282TIP3    H255262   5.068   3.110   6.420 -1.1780  0.5710  0.0569
11283TIP3   OH255263   0.593   2.075   2.342  0.1383  0.4447  0.1860
11283TIP3    H155264   0.516   2.122   2.308 -0.5543 -0.4632  0.4651
11283TIP3    H255265   0.664   2.139   2.337 -0.6837  1.3778  0.1342
11284TIP3   OH255266   0.708   1.728  12.478  0.2216  0.1576  0.1125
11284TIP3    H155267   0.793   1.719  12.434 -0.0823  0.2724 -0.5152
11284TIP3    H255268   0.719   1.682  12.561  0.8671  0.0883 -0.0042
11285TIP3   OH255269   2.797   5.506  16.666 -0.2929  0.3388 -0.5353
11285TIP3    H155270   2.743   5.580  16.695  1.3290  0.9085  1.2130
11285TIP3    H255271   2.756   5.429  16.707 -1.2990  0.3803 -1.4094
11286TIP3   OH255272   2.567   3.447  11.121  0.2187  0.2193 -0.3655
11286TIP3    H155273   2.495   3.457  11.060  0.7426  1.1371 -0.8574
11286TIP3    H255274   2.585   3.352  11.122  0.1212  0.1711 -1.5408
11287TIP3   OH255275   0.569   0.159  13.934 -0.2064 -0.2454 -0.2613
11287TIP3    H155276   0.645   0.101  13.942 -0.5103 -0.4117  2.2219
11287TIP3    H255277   0.527   0.155  14.019 -1.7411  1.6137 -0.8636
11288TIP3   OH255278   2.848   6.532   5.741  0.7224 -0.2652  0.2994
11288TIP3    H155279   2.765   6.492   5.765  1.0916 -0.8300  0.6718
11288TIP3    H255280   2.910   6.498   5.805  1.5473 -1.0418 -0.8581
11289TIP3   OH255281   5.521   1.187  16.015 -0.3363 -0.0644  0.4863
11289TIP3    H155282   5.448   1.207  15.956  0.0869  0.7531  0.2179
11289TIP3    H255283   5.481   1.180  16.102 -0.9590 -1.2100  0.1268
11290TIP3   OH255284   5.826   6.695  15.546  0.3100 -0.0877 -0.0052
11290TIP3    H155285   5.737   6.660  15.557 -0.7320  2.0674 -0.9003
11290TIP3    H255286   5.847   6.678  15.454  1.3605 -1.6583  0.4954
11291TIP3   OH255287   4.454   5.836   0.772 -0.5689 -0.1332  0.0122
11291TIP3    H155288   4.440   5.763   0.832  0.5125 -0.7233 -0.4347
11291TIP3    H255289   4.548   5.849   0.771 -0.5200 -0.3806 -1.8169
11292TIP3   OH255290   6.392   0.558   4.294  0.6501  0.7733 -0.4760
11292TIP3    H155291   6.297   0.567   4.291  0.3895 -1.3391  0.1797
11292TIP3    H255292   6.423   0.609   4.219 -1.2274 -1.0180 -2.5988
11293TIP3   OH255293   2.402   1.855   1.862 -0.2983  0.1540  0.1214
11293TIP3    H155294   2.436   1.906   1.788 -3.3054  1.0187 -0.8070
11293TIP3    H255295   2.388   1.920   1.931  0.0640 -0.2264  0.5613
11294TIP3   OH255296   3.893   5.364   5.126 -0.2612 -0.2455  0.1442
11294TIP3    H155297   3.890   5.305   5.202  0.5911 -0.7806 -0.2345
11294TIP3    H255298   3.951   5.321   5.064  1.6544  1.7213  0.4676
11295TIP3   OH255299   1.926   2.088  14.078  0.2522 -0.2243  0.0569
11295TIP3    H155300   1.965   2.130  14.155 -0.4225  2.7021 -1.0789
11295TIP3    H255301   1.934   1.994  14.096  2.1738  0.3113  2.6315
11296TIP3   OH255302   3.003   0.701   4.236 -0.1463  0.1021 -0.0450
11296TIP3    H155303   2.971   0.747   4.314  0.0473  0.1591  0.0013
11296TIP3    H255304   2.929   0.702   4.176 -0.2455  0.1984  0.0772
11297TIP3   OH255305   1.246   2.339  14.326 -0.4419  0.1736 -0.0324
11297TIP3    H155306   1.315   2.308  14.267 -1.6721 -1.7404 -0.5761
11297TIP3    H255307   1.202   2.408  14.277 -0.8246 -0.7184 -1.0090
11298TIP3   OH255308   1.312   5.403   1.877  0.4151 -0.4845  0.6464
11298TIP3    H155309   1.352   5.318   1.861  1.0255 -0.2761  1.0354
11298TIP3    H255310   1.219   5.383   1.889  0.2526 -0.8758 -1.0110
11299TIP3   OH255311   2.275   0.580  11.377  0.7002 -0.1509  0.3750
11299TIP3    H155312   2.270   0.545  11.466  0.2919  0.4733  0.6077
11299TIP3    H255313   2.229   0.664  11.382 -0.6372 -0.7692 -0.7610
11300TIP3   OH255314   3.939   0.673   3.021  0.6184  0.1903  0.3784
11300TIP3    H155315   3.986   0.595   2.990 -0.1569  0.0509 -0.5169
11300TIP3    H255316   3.984   0.746   2.978 -0.8445 -0.0453 -1.7130
11301TIP3   OH255317   2.106   2.863  13.592  0.1879  0.5333  0.3544
11301TIP3    H155318   2.096   2.769  13.577  0.8739  0.3383  1.0534
11301TIP3    H255319   2.123   2.900  13.505 -0.1803  0.0273  0.0631
11302TIP3   OH255320   3.002   2.163  12.085 -0.6224 -0.0297 -0.6827
11302TIP3    H155321   3.000   2.220  12.008 -1.4140 -0.2529 -0.8378
11302TIP3    H255322   3.054   2.087  12.057  0.1999  0.4741 -0.5627
11303TIP3   OH255323   0.335   4.289  16.490 -0.3047 -0.3771  0.1676
11303TIP3    H155324   0.371   4.212  16.447  0.4548 -0.2782  0.5975
11303TIP3    H255325   0.268   4.321  16.431  0.2586 -0.6289 -0.6225
11304TIP3   OH255326   3.184   6.445   0.561  0.6460 -0.1679  1.2018
11304TIP3    H155327   3.218   6.382   0.497  0.2467  0.5334  0.2867
11304TIP3    H255328   3.246   6.518   0.559 -0.8521  1.1197 -0.4796
11305TIP3   OH255329   0.850   5.154  16.830 -0.0662  0.1887 -0.4472
11305TIP3    H155330   0.908   5.100  16.884 -0.2284 -0.9209 -1.3527
11305TIP3    H255331   0.896   5.237  16.821 -0.4365  0.7725  2.1325
11306TIP3   OH255332   5.256   3.880   1.278  0.2552 -0.1148  0.2673
11306TIP3    H155333   5.246   3.924   1.194  0.3018 -1.1809 -0.3068
11306TIP3    H255334   5.217   3.940   1.341  0.0490  0.6097 -0.5358
11307TIP3   OH255335   6.770   5.882  13.861 -0.3061  0.8115 -0.1912
11307TIP3    H155336   6.836   5.950  13.877  0.8494  0.4925 -2.9487
11307TIP3    H255337   6.769   5.830  13.940  2.9906  0.7087 -0.0898
11308TIP3   OH255338   4.549   0.148   2.769 -0.1419  0.6782 -0.1301
11308TIP3    H155339   4.616   0.158   2.702 -0.7993  1.7844 -0.6504
11308TIP3    H255340   4.503   0.232   2.770 -0.2333  0.6443  1.6311
11309TIP3   OH255341   6.005   4.335  16.859  0.0301 -0.1680 -0.0256
11309TIP3    H155342   6.036   4.274  16.793  2.7465  0.2918  0.6858
11309TIP3    H255343   5.989   4.280  16.936  0.5726 -0.2557  0.0328
11310TIP3   OH255344   5.489   6.074  17.372  0.2484 -0.0667  0.1057
11310TIP3    H155345   5.562   6.048  17.427  0.2324 -0.2043  0.0625
11310TIP3    H255346   5.415   6.081  17.432  0.3532  0.3216  0.1910
11311TIP3   OH255347   5.908   2.720  11.731 -0.1527 -0.3348 -0.4985
11311TIP3    H155348   5.838   2.700  11.794  0.4626 -1.0881 -0.0381
11311TIP3    H255349   5.951   2.636  11.716 -0.0539 -0.0911 -1.6570
11312TIP3   OH255350   4.410   4.117   1.141  0.4291 -0.1413  0.5299
11312TIP3    H155351   4.463   4.065   1.080  0.9734  1.0192 -0.0415
11312TIP3    H255352   4.452   4.106   1.226  1.4085  0.4597  0.1516
11313TIP3   OH255353   3.853   4.577   6.426  0.5769  0.4397  0.3322
11313TIP3    H155354   3.921   4.635   6.392  0.5964  1.4077  1.9378
11313TIP3    H255355   3.790   4.635   6.468 -1.2070 -0.4473 -0.9583
11314TIP3   OH255356   2.649   1.857  10.932  0.2497 -0.2780  0.5012
11314TIP3    H155357   2.640   1.848  10.837 -3.5240  0.1108  0.6787
11314TIP3    H255358   2.606   1.779  10.968  0.7883  0.0365  1.8924
11315TIP3   OH255359   4.108   3.631   0.119 -0.2009 -0.0059 -0.1556
11315TIP3    H155360   4.024   3.640   0.164  0.2573  1.5532  0.4445
11315TIP3    H255361   4.153   3.713   0.137  1.9293 -1.2610  0.5085
11316TIP3   OH255362   3.994   0.962   4.574 -0.3469  0.0611 -0.1826
11316TIP3    H155363   4.022   1.020   4.645 -1.2560  0.0642  0.1870
11316TIP3    H255364   4.022   1.006   4.495 -0.5914  0.7826  0.1208
11317TIP3   OH255365   2.958   6.077  17.108  0.0027  0.2540  0.7658
11317TIP3    H155366   3.012   6.085  17.030 -1.8116  0.4549 -0.5536
11317TIP3    H255367   3.018   6.092  17.181  2.1592 -1.8725 -0.4492
11318TIP3   OH255368   4.401   0.095  10.393 -0.5896  0.3589 -0.4492
11318TIP3    H155369   4.479   0.086  10.448 -0.5332 -1.3376 -0.7605
11318TIP3    H255370   4.339   0.031  10.428 -2.2307  2.2756  0.3513
11319TIP3   OH255371   1.547   5.789  12.252  0.0108  0.1857 -0.3396
11319TIP3    H155372   1.562   5.880  12.278  0.7129 -0.0028 -0.0666
11319TIP3    H255373   1.560   5.738  12.333 -1.0417 -0.1006 -0.3340
11320TIP3   OH255374   2.169   2.531  15.298 -0.2252 -0.2616  0.5261
11320TIP3    H155375   2.171   2.470  15.225 -1.1797 -0.6573  0.8105
11320TIP3    H255376   2.114   2.603  15.267 -0.8180 -0.5364  0.9270
11321TIP3   OH255377   6.038   3.739  14.404 -0.1084  0.0420  0.2207
11321TIP3    H155378   6.050   3.735  14.499  1.1045  1.5384  0.1582
11321TIP3    H255379   6.017   3.830  14.386  0.4283 -0.0574 -1.0181
11322TIP3   OH255380   5.964   0.012  14.270  0.5820 -0.2822  0.4205
11322TIP3    H155381   5.918   0.043  14.193  1.4091  1.8682  0.7321
11322TIP3    H255382   5.897  -0.032  14.322 -0.2428 -0.6501 -0.9092
11323TIP3   OH255383   1.349   3.732   4.804 -0.0858 -0.2441  0.5459
11323TIP3    H155384   1.295   3.794   4.853  1.1150  0.0577  1.5391
11323TIP3    H255385   1.288   3.662   4.779 -0.8676 -0.1142  1.9605
11324TIP3   OH255386   1.707   5.260   3.692  0.4275  0.4883  0.0497
11324TIP3    H155387   1.785   5.234   3.741 -0.7708 -0.3779  1.5640
11324TIP3    H255388   1.652   5.182   3.691 -0.7844  1.3246 -0.2902
11325TIP3   OH255389   1.568   6.353  13.800  0.4034 -0.0008  0.1139
11325TIP3    H155390   1.489   6.319  13.758  0.2311 -0.0652  0.4840
11325TIP3    H255391   1.636   6.290  13.776  0.2083 -0.2947  0.3132
11326TIP3   OH255392   6.135   4.330   0.371 -0.5650 -0.2731  0.1223
11326TIP3    H155393   6.124   4.279   0.451  1.6541  0.4524  0.9865
11326TIP3    H255394   6.047   4.336   0.333 -1.3127 -2.4238  1.3703
11327TIP3   OH255395   4.215   2.311  16.627  0.4383 -0.0595  0.1994
11327TIP3    H155396   4.252   2.316  16.715  0.1030  1.2853  0.2859
11327TIP3    H255397   4.202   2.403  16.601 -1.5246 -0.4581 -0.3642
11328TIP3   OH255398   0.473   1.072   1.064 -0.0629  0.5192  0.3758
11328TIP3    H155399   0.517   1.013   1.125  0.0754 -1.2595 -1.3475
11328TIP3    H255400   0.400   1.022   1.029 -0.5316  1.7182 -0.4489
11329TIP3   OH255401   2.317   5.650   2.868 -0.3328 -0.3185  0.2963
11329TIP3    H155402   2.310   5.612   2.781 -0.7822 -0.3589  0.3484
11329TIP3    H255403   2.331   5.743   2.853  1.5499 -0.5867  0.1519
11330TIP3   OH255404   1.859   6.444   3.171  0.4505 -0.1239 -0.1333
11330TIP3    H155405   1.949   6.460   3.144  0.5025  0.9715  0.6188
11330TIP3    H255406   1.813   6.526   3.153 -0.4858 -0.7700 -0.8109
11331TIP3   OH255407   1.638   6.743  13.873  0.1097  0.4166 -0.3682
11331TIP3    H155408   1.699   6.813  13.897 -0.1618  0.4856  0.1399
11331TIP3    H255409   1.558   6.788  13.849  0.2344  0.3233 -0.9880
11332TIP3   OH255410   2.418   0.201  16.209  0.3882 -0.4596  0.2727
11332TIP3    H155411   2.512   0.219  16.212  0.2666  0.6761 -1.5032
11332TIP3    H255412   2.412   0.107  16.192  1.2726 -0.1639 -1.9433
11333TIP3   OH255413   3.175   0.324  15.635 -0.2942  0.6618  0.2802
11333TIP3    H155414   3.258   0.312  15.681  0.0991  1.5222 -0.1720
11333TIP3    H255415   3.118   0.256  15.670  0.4033  0.4625  1.0702
11334TIP3   OH255416   4.525   5.650   1.704  0.3287  0.1701 -0.4002
11334TIP3    H155417   4.438   5.675   1.735 -0.1284 -0.4213 -1.1516
11334TIP3    H255418   4.520   5.660   1.609  0.6415 -1.1378 -0.5776
11335TIP3   OH255419   0.979   6.133   6.428 -0.4979  0.0509 -0.1679
11335TIP3    H155420   0.947   6.222   6.412  2.1973  0.7976 -2.1768
11335TIP3    H255421   1.067   6.145   6.463  1.8435 -1.5364 -4.6589
11336TIP3   OH255422   5.424   5.897  16.256  0.2807  0.3608  0.2383
11336TIP3    H155423   5.395   5.988  16.254  0.6000  0.4572 -1.2233
11336TIP3    H255424   5.514   5.902  16.290  0.9277  0.8111 -1.4503
11337TIP3   OH255425   5.935   3.010   4.863 -0.1070 -0.4655 -0.5574
11337TIP3    H155426   5.951   3.104   4.876 -1.7563 -0.1484 -0.6735
11337TIP3    H255427   6.021   2.970   4.877  0.3332  0.9043  1.0268
11338TIP3   OH255428   5.968   3.979   5.073 -0.1724 -0.0110  0.2516
11338TIP3    H155429   6.044   4.004   5.021 -0.0645  0.2412  0.5269
11338TIP3    H255430   6.004   3.956   5.159 -0.3589 -0.3213  0.2498
11339TIP3   OH255431   5.811   4.771   0.775 -0.9614 -0.1797  0.3755
11339TIP3    H155432   5.794   4.856   0.734 -1.5536 -0.1570  0.6579
11339TIP3    H255433   5.903   4.754   0.757 -0.6843  0.7986  0.8030
11340TIP3   OH255434   0.585   5.548   5.435 -0.3461 -0.3614 -0.2984
11340TIP3    H155435   0.605   5.625   5.487 -2.8794  0.0605  0.1768
11340TIP3    H255436   0.653   5.485   5.458  1.2400  1.3878 -0.0112
11341TIP3   OH255437   2.024   0.595   4.098 -0.5015 -0.3558 -0.3833
11341TIP3    H155438   1.995   0.659   4.163 -0.1866 -0.4308 -0.1682
11341TIP3    H255439   1.953   0.531   4.094 -0.5445 -0.3236 -0.1502
11342TIP3   OH255440   3.689   4.285  11.086  0.5796  0.6239  0.6257
11342TIP3    H155441   3.706   4.363  11.033 -0.1093  1.0960  1.0825
11342TIP3    H255442   3.776   4.255  11.112  0.9468  0.3044 -0.8619
11343TIP3   OH255443   2.379   2.588  16.842 -0.3975  0.2169  0.0585
11343TIP3    H155444   2.471   2.560  16.841 -1.1535 -2.8407 -2.3105
11343TIP3    H255445   2.359   2.608  16.750 -2.6262 -1.5301  0.0715
11344TIP3   OH255446   4.784   5.241  15.942  0.4284  0.2412 -0.2839
11344TIP3    H155447   4.692   5.222  15.928  0.4150  0.0800  0.0193
11344TIP3    H255448   4.806   5.198  16.025  0.7594  0.3287 -0.3230
11345TIP3   OH255449   3.344   3.127   5.387 -0.7128  0.1810 -0.2380
11345TIP3    H155450   3.309   3.103   5.301  0.8906 -1.6997 -0.4437
11345TIP3    H255451   3.321   3.053   5.443 -0.4333  0.6943  0.5723
11346TIP3   OH255452   6.411   6.763  15.677  0.2299 -0.2811  0.2954
11346TIP3    H155453   6.451   6.847  15.654  0.0466 -0.3638 -0.3540
11346TIP3    H255454   6.462   6.731  15.751  2.1845 -0.9830 -1.2738
11347TIP3   OH255455   4.275   5.139  17.209 -0.0303  0.0805 -0.6510
11347TIP3    H155456   4.190   5.182  17.216 -0.1008 -0.0242 -0.8677
11347TIP3    H255457   4.332   5.190  17.267 -0.3413 -0.1073 -0.1762
11348TIP3   OH255458   3.745   2.829   3.856  0.2644 -0.2355  0.2778
11348TIP3    H155459   3.743   2.744   3.812 -0.7770  0.6636 -1.5014
11348TIP3    H255460   3.797   2.885   3.798 -0.5363  0.7881  0.5127
11349TIP3   OH255461   4.820   3.807  11.493 -0.4700 -0.4323 -0.1804
11349TIP3    H155462   4.786   3.816  11.582 -2.6168 -1.7780 -0.8037
11349TIP3    H255463   4.784   3.724  11.461 -0.7074  0.5410 -2.6909
11350TIP3   OH255464   6.302   6.547  12.959 -0.1911  0.2585  0.3417
11350TIP3    H155465   6.271   6.636  12.971 -1.0039 -0.0970  0.9375
11350TIP3    H255466   6.308   6.511  13.048 -1.2239 -0.7238  0.0462
11351TIP3   OH255467   1.620   4.788   2.790  0.0142 -0.0908 -0.3598
11351TIP3    H155468   1.696   4.730   2.789 -0.7788 -1.2064  1.0393
11351TIP3    H255469   1.545   4.730   2.802 -1.0565  1.0203 -1.3261
11352TIP3   OH255470   2.622   3.840  15.694  0.0652  0.7109 -0.3513
11352TIP3    H155471   2.609   3.891  15.774  0.5241  0.7859 -0.3211
11352TIP3    H255472   2.660   3.757  15.724 -4.4425 -1.4857  0.1037
11353TIP3   OH255473   5.366   3.848  13.794  0.3954 -0.0045  0.5869
11353TIP3    H155474   5.301   3.780  13.810  1.3446 -0.7294  1.4549
11353TIP3    H255475   5.374   3.850  13.698 -0.4280 -0.3338  0.4957
11354TIP3   OH255476   0.329   2.238   0.570  0.3416  0.2296 -0.3299
11354TIP3    H155477   0.275   2.161   0.588 -0.2628  1.0540  1.6065
11354TIP3    H255478   0.418   2.210   0.592  0.3976 -0.4169 -1.3076
11355TIP3   OH255479   2.207   2.621  12.305 -0.1724 -0.2151 -0.0769
11355TIP3    H155480   2.123   2.638  12.348  0.0051 -1.8308  0.9602
11355TIP3    H255481   2.194   2.653  12.215 -1.6348  0.2473  0.2709
11356TIP3   OH255482   5.011   5.884  14.102 -0.8131  0.2638 -0.5326
11356TIP3    H155483   4.957   5.962  14.116 -2.2314 -0.8785  0.8172
11356TIP3    H255484   5.091   5.901  14.152 -1.0426  0.9023 -0.3691
11357TIP3   OH255485   1.623   4.848   0.585  0.6876  0.3272 -0.6397
11357TIP3    H155486   1.560   4.909   0.548 -1.6367  0.5450  3.1074
11357TIP3    H255487   1.667   4.898   0.654  1.4101 -1.2002  0.0690
11358TIP3   OH255488   0.660   2.285  16.071 -0.1870  0.6521  0.0416
11358TIP3    H155489   0.572   2.254  16.090  1.0074 -3.3674 -0.1692
11358TIP3    H255490   0.677   2.351  16.138 -2.6551  0.2097  1.2235
11359TIP3   OH255491   4.501   0.383   5.602 -0.5163  0.8398 -0.3218
11359TIP3    H155492   4.509   0.449   5.534 -0.3934  2.4228  1.1461
11359TIP3    H255493   4.467   0.305   5.557  0.4292  1.5177 -2.3117
11360TIP3   OH255494   2.029   4.523  14.128  0.2426 -0.1275  0.1871
11360TIP3    H155495   1.997   4.566  14.208 -1.5790 -1.2645  0.1147
11360TIP3    H255496   1.993   4.575  14.057  0.7192  0.0785  0.0914
11361TIP3   OH255497   6.547   5.460  16.852 -0.1107 -0.2361  0.4746
11361TIP3    H155498   6.521   5.498  16.936  0.8043  0.5072  0.4303
11361TIP3    H255499   6.630   5.502  16.831 -0.2307 -0.5595 -0.7132
11362TIP3   OH255500   1.315   5.886   1.127 -0.5928 -0.0629  0.1950
11362TIP3    H155501   1.381   5.826   1.162 -1.2226 -0.7642  0.1991
11362TIP3    H255502   1.302   5.950   1.197  1.5352  1.2986 -0.5608
11363TIP3   OH255503   0.622   2.230   4.580  1.3145  0.1725  0.5949
11363TIP3    H155504   0.558   2.201   4.646  1.2622 -0.4325  0.2834
11363TIP3    H255505   0.702   2.245   4.630  0.8879  1.1309  1.0252
11364TIP3   OH255506   3.554   2.199  11.439  0.2482 -0.0297  0.2152
11364TIP3    H155507   3.560   2.107  11.415  1.7482  0.3316 -0.9455
11364TIP3    H255508   3.472   2.206  11.487 -2.0271 -1.2839 -3.0754
11365TIP3   OH255509   3.095   5.861  12.747  0.3407  0.4930 -0.0085
11365TIP3    H155510   3.082   5.789  12.686 -1.2165  1.5345 -0.9663
11365TIP3    H255511   3.129   5.933  12.693  1.4239  0.6566  0.8470
11366TIP3   OH255512   0.139   4.379   1.121 -0.4167 -0.2445 -0.2780
11366TIP3    H155513   0.213   4.370   1.182 -0.5017  0.9366  0.0203
11366TIP3    H255514   0.177   4.367   1.035 -0.3301 -2.1937 -0.0356
11367TIP3   OH255515   0.757   6.690   0.140  0.1589 -0.1016 -0.1680
11367TIP3    H155516   0.771   6.603   0.103  2.0565 -0.4850  1.3187
11367TIP3    H255517   0.664   6.706   0.127  0.0490 -1.6930 -1.8280
11368TIP3   OH255518   2.087   2.976   2.984  0.3188 -0.3613 -0.0374
11368TIP3    H155519   2.147   3.051   2.981  1.1761 -0.9841  0.6579
11368TIP3    H255520   2.142   2.902   2.957  0.7378 -1.4405  3.3079
11369TIP3   OH255521   6.235   1.279   3.383  0.5805 -0.2454 -0.6479
11369TIP3    H155522   6.176   1.353   3.397 -0.3584 -0.9226 -0.8861
11369TIP3    H255523   6.322   1.315   3.397  0.0732  0.5774  0.6562
11370TIP3   OH255524   5.727   0.216  14.344  1.2218 -0.0193  0.4560
11370TIP3    H155525   5.805   0.262  14.314  0.9550  0.6135  0.7096
11370TIP3    H255526   5.665   0.223  14.271  0.7752  1.0290  0.9135
11371TIP3   OH255527   2.028   6.388  13.283  0.1422  0.1621 -0.3135
11371TIP3    H155528   2.037   6.456  13.216 -0.3575 -0.5268 -1.0932
11371TIP3    H255529   1.952   6.417  13.335 -2.4530 -1.5501 -2.8549
11372TIP3   OH255530   1.597   2.631  11.284  0.4656  0.3485 -0.3668
11372TIP3    H155531   1.598   2.693  11.212 -1.1914 -0.6360 -1.3158
11372TIP3    H255532   1.561   2.680  11.358  1.0154  1.0405 -0.5570
11373TIP3   OH255533   1.792   1.524  12.044  0.1007 -0.0787  0.3802
11373TIP3    H155534   1.754   1.447  12.002  0.7917 -2.3896  3.5928
11373TIP3    H255535   1.720   1.561  12.095  0.1402  0.5600 -0.0158
11374TIP3   OH255536   6.485   2.224   4.068  0.4617  0.2476 -0.2056
11374TIP3    H155537   6.571   2.190   4.043  1.0284  0.4345  1.3782
11374TIP3    H255538   6.457   2.277   3.993  0.6123 -1.7280 -1.7569
11375TIP3   OH255539   1.389   6.392  13.197 -0.2230 -0.0108 -0.2601
11375TIP3    H155540   1.404   6.298  13.188  1.1589  0.0999  0.7224
11375TIP3    H255541   1.358   6.419  13.110 -0.3965 -1.3178 -0.6272
11376TIP3   OH255542   2.155   0.970   3.092  0.0843 -0.1218 -0.4308
11376TIP3    H155543   2.151   0.891   3.039  1.9030 -0.3130 -0.3309
11376TIP3    H255544   2.150   1.042   3.028  0.2463 -0.3336 -0.6841
11377TIP3   OH255545   0.968   5.729  13.557  0.1217 -0.0500 -0.0497
11377TIP3    H155546   0.939   5.819  13.563 -0.4761 -0.2591  0.2716
11377TIP3    H255547   0.900   5.685  13.505 -0.0809 -0.5151  0.5986
11378TIP3   OH255548   1.750   6.475  12.709  0.2940 -0.3182  0.9402
11378TIP3    H155549   1.716   6.533  12.778 -1.5710 -1.8825  1.4239
11378TIP3    H255550   1.752   6.389  12.749  2.4189 -0.7446  0.0300
11379TIP3   OH255551   0.801   5.152   2.520 -0.1855 -0.1678  0.7275
11379TIP3    H155552   0.767   5.233   2.482  0.2630  0.3734  1.4374
11379TIP3    H255553   0.743   5.134   2.594  0.3143  0.0744  1.1883
11380TIP3   OH255554   4.865   1.226  13.218  0.0660  0.0102  0.1382
11380TIP3    H155555   4.903   1.184  13.295  1.2337  1.1301  0.2035
11380TIP3    H255556   4.797   1.165  13.189 -0.9275 -0.1178  2.4760
11381TIP3   OH255557   3.127   4.273  13.708  0.0977  0.0989  0.1419
11381TIP3    H155558   3.166   4.298  13.792 -0.5210 -1.0017  0.7880
11381TIP3    H255559   3.183   4.314  13.642  1.8830 -0.7889  1.0457
11382TIP3   OH255560   1.472   2.875   3.306  0.1337 -0.6293 -0.0233
11382TIP3    H155561   1.535   2.916   3.247 -0.1915 -0.4130 -0.2208
11382TIP3    H255562   1.460   2.940   3.376 -0.3251 -0.4159 -0.2978
11383TIP3   OH255563   6.076   4.041   1.814  0.3210 -0.1963 -0.5956
11383TIP3    H155564   6.010   4.043   1.883  1.7258  1.1068  0.7892
11383TIP3    H255565   6.135   4.113   1.836  1.9751 -1.0647 -2.0172
11384TIP3   OH255566   4.016   6.385  16.521 -0.4048  0.0095  0.5381
11384TIP3    H155567   4.005   6.344  16.606  1.4407 -0.5515  0.5609
11384TIP3    H255568   3.938   6.360  16.472 -0.5872 -1.2923  1.4354
11385TIP3   OH255569   4.807   6.529  17.337 -0.5891 -0.3699  0.7007
11385TIP3    H155570   4.894   6.503  17.366  0.0732  2.1127  1.1893
11385TIP3    H255571   4.759   6.547  17.418 -0.9768 -0.0779  0.4098
11386TIP3   OH255572   5.604   6.762   4.373 -0.8494 -0.1139  0.3918
11386TIP3    H155573   5.683   6.728   4.329 -0.7445  0.9165 -0.2493
11386TIP3    H255574   5.542   6.690   4.369 -1.9363  0.7340 -4.2141
11387TIP3   OH255575   4.947   0.132   3.542  0.2250 -0.0470 -0.0344
11387TIP3    H155576   4.996   0.061   3.499 -0.2609 -0.9179  0.7959
11387TIP3    H255577   4.932   0.099   3.631 -0.8970  0.6739  0.0550
11388TIP3   OH255578   0.870   4.693   5.282  0.0170 -0.1577  0.1159
11388TIP3    H155579   0.817   4.617   5.256 -0.5569  0.3578 -0.2538
11388TIP3    H255580   0.840   4.714   5.371  1.4379 -1.4466  0.9491
11389TIP3   OH255581   3.560   5.844  13.172 -0.4501 -0.1908  0.1842
11389TIP3    H155582   3.494   5.890  13.225  0.4849  0.4015  0.8645
11389TIP3    H255583   3.529   5.854  13.082 -0.3768  1.6583  0.3226
11390TIP3   OH255584   4.931   5.823  14.396  0.2908  0.1006 -0.4832
11390TIP3    H155585   4.896   5.779  14.473  1.0493  0.3291  0.0096
11390TIP3    H255586   5.014   5.861  14.426  0.5528  0.2709 -1.3892
11391TIP3   OH255587   6.461   0.910   2.673 -0.0970 -0.4216  0.4834
11391TIP3    H155588   6.379   0.892   2.626 -0.6121 -1.7290  1.7839
11391TIP3    H255589   6.500   0.983   2.626 -0.4853 -1.7315 -2.0621
11392TIP3   OH255590   5.365   0.863   0.611 -0.1546 -0.0774 -0.2782
11392TIP3    H155591   5.319   0.877   0.693 -1.0008 -0.3410 -0.6877
11392TIP3    H255592   5.452   0.901   0.624 -0.5147  0.4957  0.4965
11393TIP3   OH255593   1.232   0.761   0.257 -0.4742 -0.2604  0.6051
11393TIP3    H155594   1.292   0.794   0.324 -0.7735  1.1400  0.2305
11393TIP3    H255595   1.190   0.840   0.223  0.3413 -0.8187 -1.8961
11394TIP3   OH255596   6.757   0.318  14.614 -0.3205  0.3264 -0.3759
11394TIP3    H155597   6.707   0.386  14.660 -0.1596 -1.4365  2.7094
11394TIP3    H255598   6.691   0.264  14.571 -0.6756  0.6908 -0.3019
11395TIP3   OH255599   3.532   0.485   1.515 -0.3350  0.4434 -0.0057
11395TIP3    H155600   3.573   0.568   1.540  0.2269  0.7408 -1.7937
11395TIP3    H255601   3.448   0.510   1.478 -0.7461  0.0925  0.6736
11396TIP3   OH255602   4.781   1.993  11.664 -1.0808  0.7080  0.9386
11396TIP3    H155603   4.799   1.998  11.571 -2.3019 -1.1856  0.5389
11396TIP3    H255604   4.745   1.905  11.677 -1.8785  1.2709  3.0199
11397TIP3   OH255605   2.721   4.134   4.804  0.3056  0.4566 -0.2450
11397TIP3    H155606   2.743   4.224   4.781 -0.1895  0.7642  0.4517
11397TIP3    H255607   2.801   4.084   4.785  0.5350  1.0149 -0.7601
11398TIP3   OH255608   2.139   4.055  14.458  0.3507  0.1331 -0.1932
11398TIP3    H155609   2.126   4.035  14.551  0.5576 -1.0591 -0.4090
11398TIP3    H255610   2.082   4.130  14.442 -3.1155 -2.2495 -0.1030
11399TIP3   OH255611   0.950   4.567  10.956  0.0203 -0.0563  1.1197
11399TIP3    H155612   1.034   4.524  10.939 -0.0933 -0.1714  0.8549
11399TIP3    H255613   0.895   4.544  10.881 -0.8456 -1.5069  2.1475
11400TIP3   OH255614   1.056   1.478   1.853  0.6066  0.2176  0.1052
11400TIP3    H155615   1.074   1.571   1.868  1.3509  0.0370  0.3875
11400TIP3    H255616   1.032   1.444   1.940 -1.3803  0.4927 -0.2927
11401TIP3   OH255617   3.387   3.094   4.658 -0.2743  0.1992 -0.2518
11401TIP3    H155618   3.304   3.062   4.623 -0.0883 -0.5744  0.0015
11401TIP3    H255619   3.391   3.058   4.747  0.0955  0.6594 -0.0754
11402TIP3   OH255620   6.043   0.202   4.593 -0.3333 -0.9972  0.1411
11402TIP3    H155621   6.049   0.270   4.660 -0.9479 -1.1678  0.3740
11402TIP3    H255622   6.064   0.246   4.511 -0.8488 -0.4945  0.2759
11403TIP3   OH255623   1.384   2.248  13.448  0.3101  0.5495  0.1804
11403TIP3    H155624   1.408   2.306  13.520  0.0084  2.1503 -0.9533
11403TIP3    H255625   1.334   2.178  13.489  1.9381  0.2503  1.7958
11404TIP3   OH255626   5.565   1.173  15.234 -0.5748  0.1297 -0.3949
11404TIP3    H155627   5.592   1.082  15.222 -0.3340  0.3413 -1.6261
11404TIP3    H255628   5.513   1.172  15.314 -0.1632 -0.9967 -0.1129
11405TIP3   OH255629   0.980   3.507   1.589  0.2434 -0.2995 -0.1052
11405TIP3    H155630   0.951   3.445   1.655  0.5666  0.7180  1.0305
11405TIP3    H255631   0.914   3.502   1.519  1.0698 -3.0131 -0.7957
11406TIP3   OH255632   6.329   1.578   3.673 -0.1736  0.4129 -0.5482
11406TIP3    H155633   6.263   1.645   3.690 -0.0558  0.9400 -2.0434
11406TIP3    H255634   6.294   1.498   3.713 -0.9182  1.0534  0.1147
11407TIP3   OH255635   0.440   4.230   4.787 -0.6275  0.4022 -0.2751
11407TIP3    H155636   0.429   4.316   4.827 -0.4484 -0.2115  1.1493
11407TIP3    H255637   0.355   4.211   4.747 -0.7708  1.0779 -0.3009
11408TIP3   OH255638   0.578   2.978   2.156  0.3735 -0.6037  0.4355
11408TIP3    H155639   0.647   2.927   2.114  1.2704  0.3476  0.7010
11408TIP3    H255640   0.607   3.069   2.147 -0.1576 -0.2757  1.7654
11409TIP3   OH255641   0.149   0.745   0.576 -0.4422 -0.4462  0.5920
11409TIP3    H155642   0.178   0.658   0.548  1.7979  0.2900  0.3574
11409TIP3    H255643   0.212   0.771   0.643  0.0943  1.7043 -0.6309
11410TIP3   OH255644   0.676   3.094  12.935  0.0634  0.1264  0.4472
11410TIP3    H155645   0.745   3.028  12.929  0.7221  0.7083  1.3907
11410TIP3    H255646   0.714   3.165  12.986 -0.4928  1.4315 -0.8537
11411TIP3   OH255647   4.307   1.664  15.358 -0.1246 -0.0663 -0.2632
11411TIP3    H155648   4.285   1.600  15.425 -1.5372  2.1933  1.5775
11411TIP3    H255649   4.391   1.700  15.386  0.6205 -0.9712 -1.2414
11412TIP3   OH255650   0.330   4.802  12.153  0.3027  0.1563 -0.2350
11412TIP3    H155651   0.266   4.847  12.208 -0.6833  0.0376 -1.2550
11412TIP3    H255652   0.415   4.836  12.183 -0.2361  0.5386  0.9331
11413TIP3   OH255653   6.561   5.212   1.475 -0.1236  0.3831 -0.1360
11413TIP3    H155654   6.620   5.234   1.547 -1.8537  2.3924  0.7762
11413TIP3    H255655   6.485   5.172   1.518 -0.7434  0.6798 -0.9334
11414TIP3   OH255656   1.335   2.666  13.491  0.5235 -0.3197  0.0518
11414TIP3    H155657   1.390   2.740  13.467  0.7654 -1.0396 -1.7374
11414TIP3    H255658   1.357   2.597  13.428 -2.1201 -0.7817 -0.4957
11415TIP3   OH255659   4.998   4.702   2.858  0.2840 -0.0896  0.2222
11415TIP3    H155660   4.985   4.703   2.763  1.4831  0.6449  0.0347
11415TIP3    H255661   4.913   4.724   2.895 -0.6380 -2.0068 -0.5912
11416TIP3   OH255662   3.301   1.834  16.888 -0.7639  0.4976  0.3487
11416TIP3    H155663   3.381   1.825  16.940 -0.3353 -0.2371 -0.4233
11416TIP3    H255664   3.258   1.912  16.923  0.3637  0.9801  0.6777
11417TIP3   OH255665   3.825   1.097   2.281 -0.6808 -0.3381  0.2970
11417TIP3    H155666   3.853   1.188   2.281 -2.0177  0.0897  0.6407
11417TIP3    H255667   3.902   1.048   2.310 -0.3780  0.8284  1.5700
11418TIP3   OH255668   2.581   0.310   0.717 -0.2477  0.6577  0.1883
11418TIP3    H155669   2.651   0.253   0.684 -1.6325 -0.5853 -0.7200
11418TIP3    H255670   2.591   0.307   0.812 -0.2698 -1.1312  0.1683
11419TIP3   OH255671   2.781   0.671   5.686  0.1767 -0.3205 -0.3705
11419TIP3    H155672   2.857   0.618   5.710 -0.7118 -0.9449  1.2239
11419TIP3    H255673   2.731   0.679   5.767  0.1094  2.7534 -0.6097
11420TIP3   OH255674   5.005   3.338   3.935  0.4819 -0.5511  0.4233
11420TIP3    H155675   4.969   3.265   3.885 -0.3305  0.6900 -0.8832
11420TIP3    H255676   5.094   3.349   3.902  0.6000 -0.9254  0.6109
11421TIP3   OH255677   0.100   4.488   2.631  0.3950  0.0321 -0.1655
11421TIP3    H155678   0.074   4.397   2.620  1.8054 -0.2296 -1.9086
11421TIP3    H255679   0.046   4.536   2.568 -1.5042  0.7075  1.8609
11422TIP3   OH255680   4.665   4.244   3.934  0.2785 -0.3416  0.1717
11422TIP3    H155681   4.648   4.175   3.998 -2.3712 -1.5957 -1.6936
11422TIP3    H255682   4.733   4.207   3.877  1.7317  0.2737  1.4393
11423TIP3   OH255683   6.499   2.964  16.181  0.1111 -0.5452 -0.1038
11423TIP3    H155684   6.538   2.913  16.251 -0.3378  0.3737  0.8468
11423TIP3    H255685   6.445   2.902  16.132  0.8798 -1.3110  0.0202
11424TIP3   OH255686   6.463   2.873   4.855  0.2706 -0.1170 -0.3064
11424TIP3    H155687   6.389   2.901   4.801  0.2946  0.2601 -0.1471
11424TIP3    H255688   6.529   2.845   4.791  0.4074  0.6043 -0.4872
11425TIP3   OH255689   6.053   5.941   5.420  0.0893 -0.4499  0.3703
11425TIP3    H155690   6.052   6.027   5.377  0.9814 -0.7707 -0.3309
11425TIP3    H255691   5.964   5.908   5.409  0.1914 -0.3485 -0.8989
11426TIP3   OH255692   2.225   0.701   6.554  0.5083  0.2611  0.1977
11426TIP3    H155693   2.260   0.768   6.612 -1.7016 -0.7028  2.8725
11426TIP3    H255694   2.182   0.749   6.484 -0.5389  1.6707  1.7471
11427TIP3   OH255695   3.789   3.832  16.941  0.4150 -0.8294 -0.1021
11427TIP3    H155696   3.732   3.775  16.992  0.5910 -1.2135 -0.3314
11427TIP3    H255697   3.839   3.881  17.006 -2.4820  2.0143  0.2776
11428TIP3   OH255698   0.403   4.751   2.199  0.6069  0.0683  0.0429
11428TIP3    H155699   0.375   4.664   2.229 -0.9045  0.7410  0.6892
11428TIP3    H255700   0.393   4.807   2.276 -0.7688  1.2979 -0.9743
11429TIP3   OH255701   5.093   6.316  12.178 -0.1948 -0.2262 -0.0023
11429TIP3    H155702   5.085   6.253  12.106 -1.4402 -0.4701  0.3248
11429TIP3    H255703   5.014   6.370  12.172  0.6278  1.0076  0.0178
11430TIP3   OH255704   2.339   3.820   0.634  0.4584  0.3583  0.0167
11430TIP3    H155705   2.341   3.744   0.575  1.3467  1.5812 -1.6065
11430TIP3    H255706   2.247   3.843   0.641 -0.1301 -2.1841  2.3965
11431TIP3   OH255707   2.709   3.924   5.489  0.0960  0.0607  0.2475
11431TIP3    H155708   2.656   3.960   5.560  1.3080  0.5869  0.9035
11431TIP3    H255709   2.756   3.999   5.452 -0.6135 -0.1784 -1.2224
11432TIP3   OH255710   4.310   2.209  13.789  0.1467  0.6546 -0.5925
11432TIP3    H155711   4.366   2.171  13.721 -0.3405 -0.3094 -0.4849
11432TIP3    H255712   4.356   2.287  13.817  0.1975  1.2800 -2.2780
11433TIP3   OH255713   3.582   5.819  14.498 -0.1444 -0.1049  0.2385
11433TIP3    H155714   3.554   5.731  14.472 -0.0350  0.2603 -1.1757
11433TIP3    H255715   3.651   5.842  14.435 -2.3839  2.2646 -1.5613
11434TIP3   OH255716   3.115   5.645  12.600  0.5002  0.0928 -0.0883
11434TIP3    H155717   3.169   5.589  12.656 -0.0803 -0.2244  0.1640
11434TIP3    H255718   3.049   5.586  12.564  0.5755  0.3946 -0.7302
11435TIP3   OH255719   6.616   5.181   5.561 -0.0774  0.1004  0.1310
11435TIP3    H155720   6.595   5.259   5.510 -1.6702 -0.8128 -0.6810
11435TIP3    H255721   6.707   5.161   5.539 -0.1862  0.7433 -0.9661
11436TIP3   OH255722   6.026   2.470  11.743  0.2873 -0.8311  0.7808
11436TIP3    H155723   6.112   2.429  11.735  0.7871  0.2729  0.3409
11436TIP3    H255724   5.976   2.437  11.668  0.6563 -0.7219  0.4824
11437TIP3   OH255725   3.099   5.984   0.240 -0.7636 -0.5880  0.2373
11437TIP3    H155726   3.091   6.048   0.170 -1.9887  1.5020  2.1512
11437TIP3    H255727   3.168   6.019   0.297 -0.0855 -2.0068  0.3320
11438TIP3   OH255728   4.793   3.160  12.494  0.5844  0.9397  0.0040
11438TIP3    H155729   4.716   3.211  12.469  0.1147  0.2717  0.0383
11438TIP3    H255730   4.763   3.069  12.490  1.2032  0.7026  0.5969
11439TIP3   OH255731   6.718   1.140  13.815  0.2254  0.2168 -0.5265
11439TIP3    H155732   6.643   1.125  13.872 -0.1447  1.6776 -0.5880
11439TIP3    H255733   6.681   1.176  13.735  0.8796 -0.3547 -1.1004
11440TIP3   OH255734   5.452   5.316  12.242 -0.0164 -0.0398 -0.4225
11440TIP3    H155735   5.541   5.351  12.232  0.2267 -0.9274 -1.7138
11440TIP3    H255736   5.465   5.223  12.261 -0.6220  0.5858  4.0049
11441TIP3   OH255737   3.767   3.079   0.357  0.1599  0.0314 -0.4715
11441TIP3    H155738   3.732   3.009   0.412 -2.0445  0.5935 -1.0366
11441TIP3    H255739   3.824   3.129   0.415 -1.6432  0.2679  1.2086
11442TIP3   OH255740   5.732   5.186   0.090 -0.4063  0.0022  0.4392
11442TIP3    H155741   5.671   5.116   0.069  0.5120 -0.0301 -2.7680
11442TIP3    H255742   5.746   5.179   0.184 -3.7791 -1.1865  0.9871
11443TIP3   OH255743   1.407   2.082  12.366  0.0692 -0.7770 -0.4658
11443TIP3    H155744   1.318   2.075  12.332  0.1957 -2.3573 -0.5751
11443TIP3    H255745   1.463   2.070  12.290  0.3549 -1.8026 -0.1087
11444TIP3   OH255746   4.808   1.583   0.744  0.1313 -0.1140 -0.6320
11444TIP3    H155747   4.714   1.572   0.760 -0.0386  0.1822 -1.3947
11444TIP3    H255748   4.816   1.671   0.708  0.8077  0.1759  0.2002
11445TIP3   OH255749   6.094   4.489   2.213  0.0934 -0.5200 -0.0473
11445TIP3    H155750   6.013   4.438   2.214  0.7872 -1.6523  0.8611
11445TIP3    H255751   6.163   4.425   2.228  1.0821  0.5562  0.1721
11446TIP3   OH255752   3.024   5.387   5.296  0.3746  0.1878  0.3059
11446TIP3    H155753   3.059   5.396   5.208  1.5792  2.4139  0.9328
11446TIP3    H255754   2.941   5.340   5.285  0.0627  1.1866 -2.1089
11447TIP3   OH255755   0.133   0.098   0.469 -0.0547  0.4163  0.3036
11447TIP3    H155756   0.218   0.098   0.512  0.4669  1.6449 -0.6468
11447TIP3    H255757   0.082   0.163   0.517 -0.0301  0.5664  0.1311
11448TIP3   OH255758   2.689   2.909   5.513 -0.0064  0.9430 -0.4009
11448TIP3    H155759   2.668   2.956   5.593 -0.1672  1.3145 -0.6561
11448TIP3    H255760   2.604   2.889   5.473  0.0700  0.7242 -0.4603
11449TIP3   OH255761   6.289   5.546   1.500 -0.3435 -0.6582  0.0730
11449TIP3    H155762   6.252   5.458   1.510 -0.1128 -1.2246 -3.0383
11449TIP3    H255763   6.360   5.535   1.437  0.8739  1.5084  0.9596
11450TIP3   OH255764   0.239   1.620  15.053 -0.3360  0.1955 -0.1778
11450TIP3    H155765   0.257   1.528  15.068  1.3299  0.4367 -0.5199
11450TIP3    H255766   0.325   1.660  15.043 -1.0649  1.5529 -1.4108
11451TIP3   OH255767   4.536   2.478  12.739  0.3791 -0.1416  0.6414
11451TIP3    H155768   4.625   2.457  12.710 -0.3022 -1.4951 -0.6563
11451TIP3    H255769   4.521   2.419  12.813  0.3595 -0.3363  0.4832
11452TIP3   OH255770   2.841   4.507  11.737  0.1309 -0.2608 -0.6586
11452TIP3    H155771   2.832   4.421  11.778 -1.8708 -0.7560 -1.9805
11452TIP3    H255772   2.750   4.534  11.720  0.7138  2.1212 -0.3030
11453TIP3   OH255773   1.649   6.300   1.430 -0.7447 -0.7106 -0.0059
11453TIP3    H155774   1.703   6.290   1.351  0.6156 -0.0520  0.8183
11453TIP3    H255775   1.631   6.210   1.458 -0.6096 -0.9404 -0.6411
11454TIP3   OH255776   2.905   2.155   5.742  0.2174  0.5983 -0.2872
11454TIP3    H155777   2.976   2.092   5.731 -1.6236 -2.2029  2.4417
11454TIP3    H255778   2.912   2.184   5.833 -2.2024  0.0025  0.1689
11455TIP3   OH255779   2.704   4.065  16.936  0.3094 -0.0134  0.4295
11455TIP3    H155780   2.767   4.069  17.008  0.1556 -0.9319  0.6273
11455TIP3    H255781   2.625   4.105  16.972  0.7456  1.0841  0.1995
11456TIP3   OH255782   1.989   6.470  11.534 -0.2079  0.0029 -0.4991
11456TIP3    H155783   2.023   6.411  11.467  0.7415 -1.3402  1.0871
11456TIP3    H255784   2.064   6.524  11.558 -0.0806 -0.6097  0.5606
11457TIP3   OH255785   3.911   4.307  17.059  0.1551  0.3624 -0.2244
11457TIP3    H155786   3.994   4.347  17.033  0.5676  0.6811  1.4811
11457TIP3    H255787   3.867   4.288  16.976  2.6325 -1.4134 -1.2404
11458TIP3   OH255788   5.192   5.497  16.851 -0.3666  0.3090  0.2167
11458TIP3    H155789   5.196   5.444  16.772 -0.0985 -0.2557  0.6035
11458TIP3    H255790   5.279   5.538  16.856 -0.6052  0.8642 -0.1327
11459TIP3   OH255791   5.266   0.477  15.009  0.6475  0.1906  0.6796
11459TIP3    H155792   5.303   0.391  14.989  1.5267  1.0914 -1.9926
11459TIP3    H255793   5.316   0.538  14.956 -1.0182  2.1988  1.2583
11460TIP3   OH255794   3.715   5.855  15.203  0.0313 -0.3964  0.2320
11460TIP3    H155795   3.712   5.860  15.107  2.2917 -0.6288  0.1091
11460TIP3    H255796   3.724   5.946  15.231 -0.0199 -0.3827  0.2061
11461TIP3   OH255797   3.638   1.498   0.398 -0.0621 -0.2455 -0.3191
11461TIP3    H155798   3.629   1.526   0.306 -2.6138 -1.5453 -0.5383
11461TIP3    H255799   3.548   1.490   0.430  0.7723  0.9407  2.5945
11462TIP3   OH255800   3.841   4.107  14.941  0.3303 -0.2500 -0.1050
11462TIP3    H155801   3.907   4.077  15.004 -0.1736 -1.1541  0.0153
11462TIP3    H255802   3.883   4.179  14.895  1.4418 -0.8600 -0.0927
11463TIP3   OH255803   3.900   0.095   5.227 -0.7068 -0.4680  0.5755
11463TIP3    H155804   3.990   0.127   5.222  0.1036 -1.9751  3.2526
11463TIP3    H255805   3.849   0.157   5.175  1.6785  1.1199 -0.0378
11464TIP3   OH255806   0.223   6.353  13.040 -0.0240  0.0568  0.1717
11464TIP3    H155807   0.214   6.280  13.102 -0.9907  0.8481  1.0043
11464TIP3    H255808   0.150   6.343  12.980 -0.0461  0.2196  0.1700
11465TIP3   OH255809   3.493   2.207   6.252 -0.6541 -0.2576 -0.1876
11465TIP3    H155810   3.423   2.270   6.267 -1.4129 -0.9586 -0.6571
11465TIP3    H255811   3.563   2.257   6.211 -0.5538  0.6194  1.0168
11466TIP3   OH255812   2.935   4.982   6.023 -0.0156  0.1125  0.1567
11466TIP3    H155813   2.894   4.956   6.105 -0.8991  0.9191 -0.0213
11466TIP3    H255814   3.009   4.921   6.013 -0.1835 -0.2962  1.2965
11467TIP3   OH255815   1.288   3.534   5.038 -0.1065 -0.3706  0.1775
11467TIP3    H155816   1.204   3.580   5.031 -0.5357 -0.8548  1.9147
11467TIP3    H255817   1.269   3.444   5.011  0.1392 -0.2037 -0.5860
11468TIP3   OH255818   1.279   1.154   1.277 -0.6416  0.2650  0.1317
11468TIP3    H155819   1.315   1.178   1.192 -1.2994  0.7445 -0.0163
11468TIP3    H255820   1.308   1.063   1.291  0.6880  0.6641  0.0657
11469TIP3   OH255821   1.773   4.198  12.835  0.3871  0.6708 -0.5168
11469TIP3    H155822   1.727   4.121  12.869  1.7129 -0.1152 -0.4523
11469TIP3    H255823   1.706   4.266  12.833 -0.5770 -0.2089  0.3746
11470TIP3   OH255824   3.037   4.663   5.248 -0.2498 -0.0916  0.3789
11470TIP3    H155825   3.082   4.729   5.300 -0.3496  0.2306  0.0641
11470TIP3    H255826   3.039   4.697   5.159  0.8854 -1.1514 -0.0285
11471TIP3   OH255827   3.657   0.236   0.703  0.2116 -0.4457  0.4991
11471TIP3    H155828   3.679   0.329   0.699  1.1399 -0.6608  0.5135
11471TIP3    H255829   3.594   0.224   0.632  0.1808  0.1632  0.4154
11472TIP3   OH255830   1.494   3.909  11.318  0.1014  0.0635 -0.1091
11472TIP3    H155831   1.522   4.001  11.313 -1.5453  0.6332  0.2854
11472TIP3    H255832   1.499   3.877  11.228 -2.3748  1.5571 -0.8749
11473TIP3   OH255833   5.294   6.267   4.950  0.3286  0.0971 -0.5238
11473TIP3    H155834   5.227   6.331   4.976 -1.8555 -2.2407 -0.0073
11473TIP3    H255835   5.372   6.296   4.996 -1.5123  0.3662  2.7608
11474TIP3   OH255836   5.845   4.315   5.595  0.7241 -0.4417 -0.3414
11474TIP3    H155837   5.860   4.248   5.528 -0.4222 -1.0522 -0.0103
11474TIP3    H255838   5.932   4.348   5.616  1.4000 -2.3205 -0.0064
11475TIP3   OH255839   1.303   4.559   4.748 -0.0371 -0.4431  0.2516
11475TIP3    H155840   1.346   4.477   4.723 -0.3737 -0.4641 -0.2722
11475TIP3    H255841   1.212   4.547   4.720 -0.1798 -0.0511  0.5492
11476TIP3   OH255842   0.285   5.652  17.015  0.1066  0.5506  0.1851
11476TIP3    H155843   0.206   5.648  16.961 -0.3193 -1.3828  0.8893
11476TIP3    H255844   0.325   5.736  16.992 -0.9171  0.5385 -1.8941
11477TIP3   OH255845   0.281   3.315   1.657 -0.0317  0.1188 -0.1628
11477TIP3    H155846   0.290   3.245   1.721  0.4348  0.3517  0.0255
11477TIP3    H255847   0.325   3.282   1.579  1.6218  0.8433  0.4341
11478TIP3   OH255848   2.021   5.892   1.570  1.1932 -0.0788 -0.2096
11478TIP3    H155849   2.002   5.799   1.580 -0.8106  0.3652  0.4886
11478TIP3    H255850   2.042   5.902   1.477 -3.0255 -0.5840 -1.4089
11479TIP3   OH255851   3.518   4.821   4.817 -0.1543 -0.0069  0.3597
11479TIP3    H155852   3.437   4.823   4.766 -1.1778  0.0973  1.9292
11479TIP3    H255853   3.526   4.909   4.854 -1.0666 -0.8602  2.7662
11480TIP3   OH255854   5.418   0.750  11.446  0.9216 -0.3938  0.0019
11480TIP3    H155855   5.495   0.727  11.499  0.2013  0.4212  1.4607
11480TIP3    H255856   5.396   0.669  11.399  3.2278 -0.3838 -1.2235
11481TIP3   OH255857   4.599   0.272  11.354 -0.0458  0.3141 -0.0351
11481TIP3    H155858   4.585   0.198  11.295 -0.8811 -0.0739  0.6234
11481TIP3    H255859   4.630   0.343  11.298 -1.6270  0.2122 -1.0780
11482TIP3   OH255860   4.254   2.767   1.106  0.2027 -0.0141 -0.1700
11482TIP3    H155861   4.311   2.701   1.144  0.3226  0.7523  1.0404
11482TIP3    H255862   4.188   2.783   1.174  1.1465  2.3050  0.2676
11483TIP3   OH255863   2.321   2.776  12.071 -0.1408 -0.3096  0.7464
11483TIP3    H155864   2.294   2.721  11.998  1.9935 -1.1655  0.5397
11483TIP3    H255865   2.332   2.863  12.033 -1.1547 -0.2599  0.5448
11484TIP3   OH255866   1.394   4.795  13.976 -0.1236 -0.1265  0.1978
11484TIP3    H155867   1.333   4.725  13.952 -1.9637  1.6089 -0.5321
11484TIP3    H255868   1.479   4.764  13.946 -1.0518 -1.5775 -1.1192
11485TIP3   OH255869   4.274   4.583   4.960 -0.7057  0.0685  0.2200
11485TIP3    H155870   4.254   4.591   5.053  0.6540 -1.5512  0.7147
11485TIP3    H255871   4.359   4.539   4.957 -0.6898  0.1049 -1.7952
11486TIP3   OH255872   4.489   1.981   4.351  0.5895 -0.2188 -0.3270
11486TIP3    H155873   4.527   1.928   4.421 -0.8079  0.5871  1.1208
11486TIP3    H255874   4.398   1.951   4.347  0.5169  0.1307 -1.4413
11487TIP3   OH255875   5.921   6.677  13.849 -0.2554 -0.2115  0.9987
11487TIP3    H155876   5.875   6.593  13.850 -0.7074  0.0291  0.7980
11487TIP3    H255877   6.005   6.659  13.892  0.0346 -0.9842  0.1481
11488TIP3   OH255878   4.792   2.292   3.726  0.3700  0.1248 -0.6310
11488TIP3    H155879   4.700   2.283   3.702  0.3152 -0.2255 -0.3061
11488TIP3    H255880   4.837   2.313   3.644  0.1510 -0.7945 -1.0021
11489TIP3   OH255881   0.539   5.968  11.576  0.1184  0.0993 -0.0486
11489TIP3    H155882   0.525   6.051  11.530  0.4713  0.4962  0.5484
11489TIP3    H255883   0.629   5.972  11.607  0.0894 -0.4439  0.1197
11490TIP3   OH255884   2.924   1.058  11.889  0.1028 -0.0465  0.3072
11490TIP3    H155885   2.935   1.083  11.797 -0.3916  0.8046  0.4686
11490TIP3    H255886   3.013   1.060  11.924  0.1615  0.8624  0.1434
11491TIP3   OH255887   5.589   5.130  10.839  0.4631 -0.1866  0.1099
11491TIP3    H155888   5.680   5.159  10.848  0.6741 -0.0391 -2.0202
11491TIP3    H255889   5.583   5.096  10.750 -1.7026  0.3049  0.0001
11492TIP3   OH255890   1.010   2.727  16.850  0.8423 -0.2812  0.0659
11492TIP3    H155891   1.002   2.761  16.939 -0.2425  1.2636 -0.5729
11492TIP3    H255892   1.048   2.800  16.800  0.5225 -0.7721 -0.9229
11493TIP3   OH255893   2.615   5.011  11.605  0.1043 -0.4304 -0.5403
11493TIP3    H155894   2.679   4.967  11.549 -1.9408 -1.7106 -1.9705
11493TIP3    H255895   2.593   5.091  11.557  0.2073 -0.2706 -0.3218
11494TIP3   OH255896   2.693   1.715  16.173 -0.1823  0.2767  0.1520
11494TIP3    H155897   2.642   1.639  16.144  0.3512  0.1931 -0.6145
11494TIP3    H255898   2.639   1.791  16.150 -0.1886  0.1710 -0.1911
11495TIP3   OH255899   0.919   6.746  15.554  0.6504  0.7172  0.1359
11495TIP3    H155900   0.881   6.740  15.642 -0.2112  1.4658 -0.1690
11495TIP3    H255901   0.905   6.660  15.516 -0.6156  0.9237  0.0949
11496TIP3   OH255902   6.282   4.943   2.672 -0.0250  0.3296  0.6038
11496TIP3    H155903   6.310   4.856   2.702 -0.3824 -0.4383 -1.1696
11496TIP3    H255904   6.360   4.998   2.683  1.1417 -0.9225 -0.8950
11497TIP3   OH255905   5.338   3.034   5.006 -0.0569 -0.2766  0.1092
11497TIP3    H155906   5.244   3.048   4.993 -0.0602 -0.1646  0.2455
11497TIP3    H255907   5.345   2.949   5.049  0.0130 -1.1085 -1.4844
11498TIP3   OH255908   5.133   1.395  13.238 -0.0733  0.1331  0.1994
11498TIP3    H155909   5.173   1.334  13.299 -0.7995  0.3826  0.9296
11498TIP3    H255910   5.048   1.357  13.217 -0.4743  0.8113  0.5569
11499TIP3   OH255911   5.111   4.364  13.537  0.9502  0.1478 -0.1168
11499TIP3    H155912   5.203   4.393  13.538  0.6971  0.9711  1.2352
11499TIP3    H255913   5.067   4.429  13.482  1.1261 -0.1061 -0.5632
11500TIP3   OH255914   6.468   3.467   2.605 -0.0281 -0.2177 -0.7625
11500TIP3    H155915   6.417   3.439   2.529 -1.9038  0.5514  0.1393
11500TIP3    H255916   6.433   3.416   2.678  0.2624  0.5680 -0.0504
11501TIP3   OH255917   1.434   5.071   2.079 -0.4805  0.9311 -0.1228
11501TIP3    H155918   1.497   5.134   2.113 -0.5389  0.8102  0.2100
11501TIP3    H255919   1.456   4.988   2.122  1.2223  0.0735 -2.3988
11502TIP3   OH255920   2.391   4.304  15.108 -0.0021  0.4650 -0.1232
11502TIP3    H155921   2.372   4.251  15.186  0.1338  0.0872 -0.3419
11502TIP3    H255922   2.305   4.330  15.075 -0.0868  0.0574 -0.2299
11503TIP3   OH255923   2.251   3.561  12.312  0.5635 -0.5008  0.7554
11503TIP3    H155924   2.271   3.474  12.276 -0.8993 -0.8697  0.7566
11503TIP3    H255925   2.328   3.584  12.363  1.9303 -0.7939 -1.0739
11504TIP3   OH255926   4.545   3.723   2.945 -0.9505 -0.4103 -0.4172
11504TIP3    H155927   4.588   3.650   2.989  0.7790  0.2409 -0.9759
11504TIP3    H255928   4.616   3.777   2.911 -2.1708  1.5509 -0.0399
11505TIP3   OH255929   5.522   3.973   2.902  0.2660 -0.1928 -0.1350
11505TIP3    H155930   5.566   3.941   2.981  2.8760  3.4463  0.1582
11505TIP3    H255931   5.560   3.921   2.831 -1.2723 -2.7355  0.7655
11506TIP3   OH255932   0.270   1.063   4.388  0.6869  0.4835  0.4521
11506TIP3    H155933   0.238   1.145   4.426 -1.4803 -0.0625 -0.0359
11506TIP3    H255934   0.207   1.043   4.318 -0.6539 -3.0996  2.4324
11507TIP3   OH255935   1.136   3.796  11.343  0.0061 -0.9407  0.2199
11507TIP3    H155936   1.216   3.836  11.376 -1.0260  0.9256  0.5945
11507TIP3    H255937   1.068   3.860  11.361 -1.3866 -1.9343 -1.2399
11508TIP3   OH255938   5.369   4.874  16.844  0.3153  0.0260 -0.8362
11508TIP3    H155939   5.451   4.854  16.801  0.6430  0.0236 -0.2195
11508TIP3    H255940   5.351   4.965  16.821  0.6987  0.1519 -0.6355
11509TIP3   OH255941   5.741   3.333  14.483 -0.4607  0.9956  0.0621
11509TIP3    H155942   5.771   3.316  14.572  1.3810  1.0785 -0.4885
11509TIP3    H255943   5.704   3.421  14.487  0.6210  1.4521  0.5405
11510TIP3   OH255944   1.366   0.052  15.878  0.6355  0.4097 -0.0395
11510TIP3    H155945   1.286   0.077  15.832  1.4622  0.6251 -1.4110
11510TIP3    H255946   1.368  -0.044  15.873  0.9599  0.4561 -0.8870
11511TIP3   OH255947   4.986   1.606  14.889 -0.3007 -0.0105 -0.3979
11511TIP3    H155948   4.959   1.631  14.801  0.0127  0.6730 -0.3036
11511TIP3    H255949   5.018   1.517  14.880  1.1471  0.5704 -1.2698
11512TIP3   OH255950   3.754   3.633   6.772 -0.1113 -0.3788 -0.1210
11512TIP3    H155951   3.724   3.542   6.773  0.0324 -0.4258  0.4429
11512TIP3    H255952   3.712   3.672   6.849  1.8796 -0.6573  1.1799
11513TIP3   OH255953   5.189   3.926   5.463 -0.6471  0.4844 -0.3071
11513TIP3    H155954   5.251   3.857   5.488 -0.8663  0.6298  0.6940
11513TIP3    H255955   5.244   4.001   5.441 -0.4389  0.3489 -0.2464
11514TIP3   OH255956   4.624   0.436   4.605  0.5057  0.2501  0.0723
11514TIP3    H155957   4.588   0.489   4.534 -0.1877 -0.3711 -0.0565
11514TIP3    H255958   4.589   0.348   4.590  0.2037  0.1369  1.2744
11515TIP3   OH255959   3.763   0.323   0.218  0.0199 -0.0065  0.5145
11515TIP3    H155960   3.777   0.233   0.191 -0.2848 -0.0844  0.6120
11515TIP3    H255961   3.758   0.320   0.313  3.4988  0.5892  0.8409
11516TIP3   OH255962   3.814   5.329  15.119  0.5122 -0.5333 -0.1238
11516TIP3    H155963   3.805   5.291  15.207 -0.8327 -1.3584 -0.5819
11516TIP3    H255964   3.809   5.424  15.133  0.8220 -0.6364  0.7383
11517TIP3   OH255965   5.610   0.558  14.415  0.3876  0.6026 -0.1064
11517TIP3    H155966   5.608   0.648  14.383  2.5764  0.0206 -2.1711
11517TIP3    H255967   5.699   0.527  14.394  0.0668 -1.7045  1.5303
11518TIP3   OH255968   3.572   5.027   0.518 -0.3319 -0.5268  0.3565
11518TIP3    H155969   3.661   5.019   0.551  0.0961  1.1640 -0.2405
11518TIP3    H255970   3.573   4.978   0.435  0.3574  0.3088 -0.1497
11519TIP3   OH255971   6.152   6.105   4.386 -0.3520  0.3392 -0.4087
11519TIP3    H155972   6.081   6.167   4.407 -0.6532 -0.6354  1.7917
11519TIP3    H255973   6.222   6.129   4.447  1.2646  1.2571 -2.5264
11520TIP3   OH255974   1.813   5.309  12.479  0.5396 -1.1281 -0.4588
11520TIP3    H155975   1.803   5.387  12.424  0.0650  0.5859  1.8954
11520TIP3    H255976   1.908   5.294  12.481  0.6836 -0.3163 -0.6231
11521TIP3   OH255977   2.235   1.959  16.050  0.1193  0.4265 -0.7094
11521TIP3    H155978   2.300   1.901  16.091 -1.2746 -0.9153 -0.3007
11521TIP3    H255979   2.266   1.970  15.960  0.9096 -0.2057 -0.5251
11522TIP3   OH255980   2.756   5.790  12.223  0.0057  0.4312 -0.0131
11522TIP3    H155981   2.802   5.858  12.272  0.1808  1.1551 -1.1355
11522TIP3    H255982   2.799   5.789  12.137 -1.1312  0.1265 -0.6022
11523TIP3   OH255983   2.787   3.236  15.924  0.3753  0.6750  0.5431
11523TIP3    H155984   2.843   3.163  15.899 -0.1074  0.2530  0.6837
11523TIP3    H255985   2.715   3.235  15.860  0.5454  1.2446  0.3305
11524TIP3   OH255986   5.015   5.964  12.118  0.2771 -0.0634 -0.4746
11524TIP3    H155987   5.043   5.898  12.182 -1.1899  0.4021  0.7079
11524TIP3    H255988   4.951   6.017  12.165  0.1214  1.1209 -1.9512
11525TIP3   OH255989   4.336   4.752  13.641  0.1904  0.0734 -0.3546
11525TIP3    H155990   4.390   4.701  13.702  0.3291  0.2702 -0.3146
11525TIP3    H255991   4.395   4.776  13.571 -0.2090 -1.0494 -1.1123
11526TIP3   OH255992   0.259   3.841   1.587 -0.2833  0.2465  0.4866
11526TIP3    H155993   0.179   3.819   1.539  0.1154  1.8767 -1.0411
11526TIP3    H255994   0.321   3.866   1.519  1.1332  0.2280  1.7299
11527TIP3   OH255995   4.697   2.994   1.602  0.3870  0.6231  0.1184
11527TIP3    H155996   4.720   3.087   1.603  0.5921  0.5719  0.1355
11527TIP3    H255997   4.694   2.971   1.509 -0.5243  0.8589  0.0790
11528TIP3   OH255998   0.780   6.493   4.238 -0.0375  0.1246  0.8355
11528TIP3    H155999   0.728   6.448   4.304  1.8106 -0.5297  1.9323
11528TIP3    H256000   0.756   6.451   4.155  0.3438 -1.7283  1.6126
11529TIP3   OH256001   0.975   2.106  11.664  0.3978  0.1754 -0.5796
11529TIP3    H156002   0.971   2.010  11.673  0.2829  0.0935 -1.4277
11529TIP3    H256003   0.885   2.135  11.678  0.2677  0.0764 -1.2235
11530TIP3   OH256004   5.144   5.893  17.018  0.0490  0.0575 -0.2174
11530TIP3    H156005   5.228   5.871  17.059 -0.7110 -1.4819  0.5900
11530TIP3    H256006   5.103   5.954  17.080 -0.5890 -1.3541  0.8135
11531TIP3   OH256007   0.580   2.507  11.447  0.0036  0.0463  0.0941
11531TIP3    H156008   0.642   2.536  11.380 -0.1040  0.1620  0.0421
11531TIP3    H256009   0.547   2.588  11.486 -0.2279 -0.0091  0.0152
11532TIP3   OH256010   6.097   4.382   5.630  0.7217  0.0013  0.0316
11532TIP3    H156011   6.172   4.332   5.663  0.3418  0.4257  1.6354
11532TIP3    H256012   6.099   4.464   5.679 -1.0244 -0.1536  0.4168
11533TIP3   OH256013   1.392   5.304  14.329  0.1950 -0.1168  0.3703
11533TIP3    H156014   1.409   5.361  14.404  1.7547 -0.4414  0.3035
11533TIP3    H256015   1.460   5.237  14.334 -0.5707 -0.9871 -0.5114
11534TIP3   OH256016   1.696   4.344  15.217 -0.0012  0.0682  0.1306
11534TIP3    H156017   1.648   4.267  15.186  0.1361  0.0887 -0.1365
11534TIP3    H256018   1.750   4.312  15.289 -1.1441  0.2360  1.0978
11535TIP3   OH256019   0.457   1.152  16.192 -0.3196 -0.5931 -0.1246
11535TIP3    H156020   0.479   1.242  16.170 -1.3586  0.2884  2.0629
11535TIP3    H256021   0.533   1.101  16.167  0.8818  1.1120 -0.0948
11536TIP3   OH256022   6.096   0.014   3.769 -0.0493  0.2263  0.2919
11536TIP3    H156023   6.088  -0.064   3.715 -0.8681  0.0241  0.6830
11536TIP3    H256024   6.035   0.077   3.730 -0.4924  0.1492  0.8511
11537TIP3   OH256025   6.761   5.055   3.996  0.0651 -0.7284 -0.0926
11537TIP3    H156026   6.854   5.077   3.994 -0.0732 -0.0348  0.7026
11537TIP3    H256027   6.716   5.138   3.980 -0.4233 -1.0314 -0.3343
11538TIP3   OH256028   5.941   6.649  10.983 -0.2954  0.7411  0.0230
11538TIP3    H156029   6.015   6.673  10.929 -1.1267  1.6396 -0.7442
11538TIP3    H256030   5.948   6.554  10.993 -1.5911  0.0247 -4.0097
11539TIP3   OH256031   5.962   0.725  16.387 -0.3009  0.6594 -0.4191
11539TIP3    H156032   5.893   0.757  16.445 -0.2377  0.3214 -0.1512
11539TIP3    H256033   6.023   0.798  16.378 -0.3944  0.7645 -0.1867
11540TIP3   OH256034   6.442   5.675   5.595 -0.3507 -0.0975 -0.3017
11540TIP3    H156035   6.389   5.600   5.621  1.1012 -0.1615  2.9940
11540TIP3    H256036   6.385   5.751   5.608 -0.4616 -0.3445  0.7866
11541TIP3   OH256037   1.726   4.580  16.649 -0.9845  0.5406 -0.2520
11541TIP3    H156038   1.648   4.598  16.702 -0.8494  1.6625 -0.4013
11541TIP3    H256039   1.758   4.496  16.680 -3.1815 -0.7712 -1.2678
11542TIP3   OH256040   5.224   1.808   3.463 -0.0823 -0.2276  0.3774
11542TIP3    H156041   5.181   1.723   3.459  0.0809 -0.2778 -0.3542
11542TIP3    H256042   5.245   1.820   3.556 -2.6901  0.2996  1.0068
11543TIP3   OH256043   1.602   6.319  14.823 -0.1123  0.3268 -0.0082
11543TIP3    H156044   1.526   6.277  14.785 -0.7009  0.2046  1.2441
11543TIP3    H256045   1.586   6.413  14.813  0.3287  0.2895 -1.1508
11544TIP3   OH256046   3.884   3.160   1.576 -0.1730  0.5331 -0.3727
11544TIP3    H156047   3.951   3.113   1.626 -0.8497  0.7330  0.7496
11544TIP3    H256048   3.883   3.117   1.491  1.3993  0.5382 -0.4197
11545TIP3   OH256049   5.177   2.873   0.097  0.2561  0.3507 -0.0467
11545TIP3    H156050   5.112   2.930   0.139 -0.9770 -0.5034 -0.7204
11545TIP3    H256051   5.250   2.871   0.159 -0.6316  0.8250  1.0651
11546TIP3   OH256052   3.280   2.380  12.934 -0.2727  0.5480  0.3546
11546TIP3    H156053   3.348   2.442  12.910  1.3138 -0.7086  1.3613
11546TIP3    H256054   3.282   2.314  12.865 -2.3705  1.8422 -1.0369
11547TIP3   OH256055   5.650   4.683  15.008  0.2631 -0.5876 -0.1787
11547TIP3    H156056   5.681   4.729  14.930  1.1695  1.1081  1.1176
11547TIP3    H256057   5.679   4.593  14.995  1.6157 -0.0550 -1.1834
11548TIP3   OH256058   1.091   5.724   3.846  0.4720  0.2441 -0.5197
11548TIP3    H156059   1.026   5.665   3.886 -0.7731  0.7737 -1.6736
11548TIP3    H256060   1.139   5.760   3.920 -0.0949 -0.6952  0.3355
11549TIP3   OH256061   6.026   3.724   2.011  0.6303  0.0135 -0.1863
11549TIP3    H156062   6.098   3.733   1.948  0.4116 -0.0026 -0.4378
11549TIP3    H256063   5.957   3.680   1.962  0.5863 -0.3118  0.1640
11550TIP3   OH256064   1.527   0.458  13.064 -0.2655  0.0633 -0.1656
11550TIP3    H156065   1.569   0.507  13.134  0.1099  0.8758 -0.9361
11550TIP3    H256066   1.469   0.522  13.022 -1.2217 -0.6688  0.0060
11551TIP3   OH256067   5.419   1.236   0.612 -0.0113 -0.4412 -0.1805
11551TIP3    H156068   5.333   1.200   0.591  0.6068 -1.1207 -1.7184
11551TIP3    H256069   5.401   1.317   0.659 -1.4813 -3.0115  4.2424
11552TIP3   OH256070   0.550   2.904   3.011 -0.1506  0.0038  0.1817
11552TIP3    H156071   0.562   2.836   2.944 -0.6893 -0.7232  0.8085
11552TIP3    H256072   0.639   2.934   3.030 -0.0718  1.3332 -1.9570
11553TIP3   OH256073   2.860   5.501  13.195  0.1521 -0.3942 -0.1850
11553TIP3    H156074   2.876   5.537  13.107 -1.6885  0.0131 -0.4137
11553TIP3    H256075   2.919   5.550  13.252  0.4429  0.2826 -1.0263
11554TIP3   OH256076   4.802   4.038   4.362  0.6268  0.4180 -0.0005
11554TIP3    H156077   4.774   4.111   4.416 -0.6945  0.0244 -0.1213
11554TIP3    H256078   4.881   4.005   4.405 -0.0851  0.4623  1.3773
11555TIP3   OH256079   1.212   1.158  14.072  0.1572 -0.4545  0.0688
11555TIP3    H156080   1.160   1.144  14.151  0.8842  0.5942  0.7620
11555TIP3    H256081   1.189   1.084  14.015 -1.7573 -0.2625  0.5007
11556TIP3   OH256082   1.534   3.406  11.716 -0.2481  0.4032 -0.2305
11556TIP3    H156083   1.526   3.458  11.796  1.2115  1.3528 -0.6663
11556TIP3    H256084   1.615   3.437  11.675 -0.2735 -0.9916 -1.4135
11557TIP3   OH256085   6.263   5.563  16.291  0.1494  0.2988 -0.3409
11557TIP3    H156086   6.263   5.494  16.225  0.7815  1.2395 -1.3586
11557TIP3    H256087   6.291   5.642  16.243  3.2815  0.5084  1.5275
11558TIP3   OH256088   3.122   5.745   5.070  0.3678  0.3912  0.1002
11558TIP3    H156089   3.117   5.655   5.102  0.9667  0.4515  0.3702
11558TIP3    H256090   3.096   5.738   4.978  1.4840 -0.2435 -0.1923
11559TIP3   OH256091   2.926   1.104  13.605 -0.4343 -0.4795 -0.1586
11559TIP3    H156092   2.913   1.159  13.683 -3.4043 -1.4682  0.1657
11559TIP3    H256093   2.997   1.045  13.630 -0.1677  0.3358  1.1427
11560TIP3   OH256094   4.922   5.496   3.443  0.5871 -0.3178 -0.1176
11560TIP3    H156095   4.978   5.426   3.476 -0.1125 -0.1944  1.3933
11560TIP3    H256096   4.969   5.530   3.366  1.4496 -1.7123 -0.2345
11561TIP3   OH256097   0.398   3.031  12.889 -0.1491 -0.0670 -0.2274
11561TIP3    H156098   0.489   3.004  12.899 -0.7239 -1.8311  0.6619
11561TIP3    H256099   0.364   3.035  12.978 -1.5731 -1.9222 -0.6179
11562TIP3   OH256100   5.811   3.567  13.201  0.0025 -0.1964  0.0646
11562TIP3    H156101   5.799   3.658  13.226  0.0668 -0.4321  0.9828
11562TIP3    H256102   5.723   3.528  13.205 -0.5064  0.3744 -2.7754
11563TIP3   OH256103   5.195   3.654   3.374 -0.0586 -0.3546  0.0729
11563TIP3    H156104   5.280   3.611   3.377 -1.0015 -2.3602  0.1227
11563TIP3    H256105   5.162   3.637   3.286 -0.4995  0.2072  0.1196
11564TIP3   OH256106   2.910   3.063   0.265 -0.4245  0.1948  0.9650
11564TIP3    H156107   3.001   3.033   0.260 -0.2009  1.0313 -2.2132
11564TIP3    H256108   2.914   3.143   0.318  0.8170  0.5125  0.4328
11565TIP3   OH256109   0.490   3.257  13.427  0.3109  0.1813 -0.0512
11565TIP3    H156110   0.428   3.243  13.499 -2.4270 -2.6094 -2.6356
11565TIP3    H256111   0.488   3.352  13.413 -3.0401  0.2996  0.3886
11566TIP3   OH256112   3.323   2.259  15.512  0.2421  0.1754  0.0736
11566TIP3    H156113   3.260   2.194  15.480  1.8869 -0.8811 -1.1535
11566TIP3    H256114   3.355   2.222  15.595 -1.0423  0.9473  0.9514
11567TIP3   OH256115   0.932   1.154   2.926  0.0704  0.6327  0.3654
11567TIP3    H156116   0.948   1.151   3.020  2.3229 -0.1516  0.0102
11567TIP3    H256117   1.018   1.144   2.886 -0.7664  1.3973 -1.7995
11568TIP3   OH256118   0.200   0.491  11.824 -0.0686 -0.1547  0.6724
11568TIP3    H156119   0.144   0.493  11.901 -1.8853 -0.1385 -0.5843
11568TIP3    H256120   0.258   0.417  11.839 -1.9157 -1.5902  1.0612
11569TIP3   OH256121   5.552   1.828  15.198  0.8075 -0.7527 -0.2464
11569TIP3    H156122   5.509   1.881  15.130 -1.5816 -1.7772  0.3412
11569TIP3    H256123   5.488   1.760  15.218  2.2042 -1.5569  1.7559
11570TIP3   OH256124   6.276   4.748   6.370  0.5246 -0.4661  0.2208
11570TIP3    H156125   6.181   4.757   6.364  0.3027 -3.0973 -2.3661
11570TIP3    H256126   6.291   4.654   6.381  2.8130 -0.6426 -3.0344
11571TIP3   OH256127   4.885   5.917   3.477  0.2658 -0.0141 -0.1011
11571TIP3    H156128   4.850   5.996   3.519  0.4333  0.4551 -0.8330
11571TIP3    H256129   4.943   5.879   3.543 -0.9159 -0.3203  0.8055
11572TIP3   OH256130   5.106   3.962   0.780 -0.6273  0.0050  0.1773
11572TIP3    H156131   5.131   4.019   0.852  0.2863  0.2197 -0.2916
11572TIP3    H256132   5.136   3.875   0.806 -0.6167  0.0194  0.2121
11573TIP3   OH256133   6.369   4.715   2.819  0.1649  0.3227  0.0894
11573TIP3    H156134   6.425   4.663   2.760  1.2325  0.5620  0.8529
11573TIP3    H256135   6.288   4.664   2.826  0.0911  0.1857 -1.3964
11574TIP3   OH256136   1.667   3.584   3.502 -0.0360  0.0943 -0.3452
11574TIP3    H156137   1.752   3.542   3.493 -0.6064 -0.6789 -3.1621
11574TIP3    H256138   1.630   3.549   3.583  2.1389  0.1732  0.7290
11575TIP3   OH256139   3.194   2.748   1.786 -0.8003 -0.1019  0.6460
11575TIP3    H156140   3.259   2.742   1.716 -2.4061  1.2913 -1.0823
11575TIP3    H256141   3.234   2.704   1.860  1.4767 -0.6096 -0.7913
11576TIP3   OH256142   0.641   4.877   0.351 -0.1677  0.0929  0.0679
11576TIP3    H156143   0.595   4.945   0.300  0.6546  0.4013 -0.2775
11576TIP3    H256144   0.723   4.864   0.304  0.1127 -0.4402  0.6996
11577TIP3   OH256145   4.676   0.857  16.363 -0.1571  0.8747 -0.1991
11577TIP3    H156146   4.599   0.850  16.419 -0.9411 -0.7554 -1.4082
11577TIP3    H256147   4.719   0.772  16.371 -0.7629  0.2721 -2.6696
11578TIP3   OH256148   1.009   2.601  14.546 -0.4384 -0.1631 -0.6629
11578TIP3    H156149   0.997   2.516  14.589 -0.8497  0.2440  0.0425
11578TIP3    H256150   0.947   2.600  14.474 -1.3185  0.0060  0.0727
11579TIP3   OH256151   4.634   6.183   2.876 -0.2305  0.0470 -0.1574
11579TIP3    H156152   4.563   6.120   2.889 -0.6830  0.5974  0.0488
11579TIP3    H256153   4.677   6.154   2.796 -2.3030  1.2327 -1.7784
11580TIP3   OH256154   2.207   1.236   4.950  0.2138 -0.2497  0.3853
11580TIP3    H156155   2.122   1.193   4.945  0.2912 -0.2625 -2.0481
11580TIP3    H256156   2.188   1.330   4.946  0.3059 -0.2711 -1.7267
11581TIP3   OH256157   3.632   3.222  15.040  0.3448  0.2680 -0.2117
11581TIP3    H156158   3.654   3.158  15.108 -1.9963  0.1026  0.5142
11581TIP3    H256159   3.603   3.170  14.966 -1.3626  0.3998  0.3056
11582TIP3   OH256160   0.490   0.772  15.480 -0.0213 -0.5486 -0.0398
11582TIP3    H156161   0.564   0.828  15.501 -0.2192  0.0393 -0.8809
11582TIP3    H256162   0.415   0.816  15.519 -0.1697 -0.2491 -0.6582
11583TIP3   OH256163   3.865   1.153  15.489 -0.4759 -0.0304 -0.2591
11583TIP3    H156164   3.879   1.240  15.452  0.0083  0.9109  1.9646
11583TIP3    H256165   3.895   1.160  15.580 -3.8630 -1.4241  1.1718
11584TIP3   OH256166   3.677   4.630  15.777 -0.2143 -0.0665 -0.7561
11584TIP3    H156167   3.698   4.595  15.691 -0.2852 -0.0646 -0.7747
11584TIP3    H256168   3.761   4.637  15.822 -0.2976 -1.1797 -0.4012
11585TIP3   OH256169   5.305   3.732  13.178 -0.2713  0.2092 -0.4587
11585TIP3    H156170   5.221   3.771  13.202  0.5799  1.2518  1.0252
11585TIP3    H256171   5.289   3.638  13.175 -1.3148  0.3442  0.5487
11586TIP3   OH256172   3.473   4.023   1.112  0.0176  0.0115  0.2064
11586TIP3    H156173   3.442   4.042   1.200  1.0868 -1.0021  0.8293
11586TIP3    H256174   3.519   3.940   1.120  0.0397 -0.1578 -1.3388
11587TIP3   OH256175   4.698   0.016   6.835 -0.0696 -0.2685  0.2406
11587TIP3    H156176   4.664   0.105   6.846 -1.2382 -0.8217  1.3331
11587TIP3    H256177   4.632  -0.029   6.783  2.2591  0.4394 -3.7845
11588TIP3   OH256178   4.402   2.828   5.614 -0.0616 -0.2780 -0.0717
11588TIP3    H156179   4.431   2.867   5.696 -0.1159  0.1147 -0.2357
11588TIP3    H256180   4.366   2.743   5.639 -0.0557 -0.1718  0.3052
11589TIP3   OH256181   3.139   2.709   0.955  0.3287  0.0361 -0.1622
11589TIP3    H156182   3.226   2.712   0.994  0.5679 -1.4059 -0.5279
11589TIP3    H256183   3.082   2.750   1.020  1.0755 -0.2283  0.6811
11590TIP3   OH256184   2.474   4.479  14.868  0.1057  0.5153 -0.7449
11590TIP3    H156185   2.493   4.392  14.902  1.1312  0.0777 -2.3283
11590TIP3    H256186   2.486   4.471  14.773  0.0628  2.3446 -0.9400
11591TIP3   OH256187   0.772   4.064  10.897 -0.6102  0.2145 -0.2753
11591TIP3    H156188   0.763   4.083  10.803  0.3194  0.1153 -0.3933
11591TIP3    H256189   0.692   4.099  10.936 -1.1961 -0.1062 -1.1560
11592TIP3   OH256190   3.868   5.588   6.217 -0.0316 -0.1040 -0.2370
11592TIP3    H156191   3.798   5.592   6.283  0.0129  1.2871 -0.2493
11592TIP3    H256192   3.834   5.637   6.142  0.5863 -0.2116 -0.5935
11593TIP3   OH256193   3.438   3.462  15.074  0.0944  0.5218 -0.2838
11593TIP3    H156194   3.510   3.401  15.090 -1.9658 -1.7663  1.0521
11593TIP3    H256195   3.413   3.447  14.983  0.3911  0.2664 -0.3211
11594TIP3   OH256196   1.189   1.854   4.921 -0.7064  0.1924  0.1780
11594TIP3    H156197   1.232   1.854   4.835  0.2527 -0.7924  0.6253
11594TIP3    H256198   1.098   1.831   4.902 -0.5273  0.0642 -0.5835
11595TIP3   OH256199   2.305   2.052  10.750 -0.0856  0.2654 -0.2554
11595TIP3    H156200   2.238   2.027  10.686 -0.8114 -0.3013  0.6947
11595TIP3    H256201   2.341   2.134  10.716  0.2556 -0.5266 -1.9003
11596TIP3   OH256202   2.879   3.674   1.311  0.3542  0.1291  0.6453
11596TIP3    H156203   2.917   3.744   1.257  0.8312  0.5124  1.4688
11596TIP3    H256204   2.843   3.719   1.387  2.6670 -0.7104  2.3149
11597TIP3   OH256205   4.920   0.667   2.550 -0.3341  0.1002 -0.2603
11597TIP3    H156206   4.932   0.659   2.455 -0.4967  0.0447 -0.2773
11597TIP3    H256207   4.996   0.715   2.580 -0.8289  1.1074 -0.5754
11598TIP3   OH256208   0.100   3.345   2.781 -0.5768  0.3211  0.3518
11598TIP3    H156209   0.185   3.338   2.737 -0.0261 -1.0751  1.5185
11598TIP3    H256210   0.049   3.271   2.747 -0.9812  0.5989  0.3463
11599TIP3   OH256211   1.211   0.763   5.564 -0.3211  0.6885  0.6271
11599TIP3    H156212   1.124   0.752   5.526  0.0911  0.0134 -0.1483
11599TIP3    H256213   1.196   0.763   5.659 -0.9158 -1.9447  0.5936
11600TIP3   OH256214   2.525   0.283  11.111 -0.2941  0.1672 -0.4179
11600TIP3    H156215   2.556   0.369  11.137 -1.3665  0.2588  0.6859
11600TIP3    H256216   2.429   0.292  11.108 -0.3400 -0.5185 -2.0437
11601TIP3   OH256217   5.904   4.849  15.518 -0.1986 -0.1848  0.0326
11601TIP3    H156218   5.902   4.753  15.514  0.8528 -0.2716  1.1062
11601TIP3    H256219   5.890   4.870  15.610  0.8914  0.6248  0.0320
11602TIP3   OH256220   3.972   3.552  14.725  0.2561 -0.2351 -0.5813
11602TIP3    H156221   3.995   3.632  14.772  0.0219  0.2527 -1.2818
11602TIP3    H256222   3.906   3.510  14.780 -0.0556  0.3573 -0.4930
11603TIP3   OH256223   2.567   4.439  11.705 -0.1876 -0.5829 -0.1607
11603TIP3    H156224   2.542   4.360  11.658  1.0398 -0.6778 -0.6943
11603TIP3    H256225   2.510   4.440  11.782  0.0139 -2.1751  0.0419
11604TIP3   OH256226   5.570   5.497  12.574  0.4238  0.5844 -0.3912
11604TIP3    H156227   5.504   5.432  12.551  1.8930  0.2595 -4.3626
11604TIP3    H256228   5.631   5.451  12.632 -1.1649  0.0402  0.9243
11605TIP3   OH256229   4.693   3.872  12.565  0.3757  0.3140 -0.1500
11605TIP3    H156230   4.646   3.954  12.581 -0.1776  0.2169 -1.1965
11605TIP3    H256231   4.682   3.856  12.472 -0.5520 -1.5991  0.2457
11606TIP3   OH256232   3.186   3.698   5.202 -0.2115 -0.2174 -0.7154
11606TIP3    H156233   3.130   3.640   5.150 -1.2223 -0.5622  0.7217
11606TIP3    H256234   3.254   3.641   5.236 -0.1851 -0.2048 -0.7464
11607TIP3   OH256235   0.889   2.751   3.832  0.2233  0.5495  0.2788
11607TIP3    H156236   0.829   2.821   3.858  0.4302  1.0334 -0.5397
11607TIP3    H256237   0.836   2.671   3.838 -0.3262  0.8990  0.1443
11608TIP3   OH256238   6.599   5.314   3.998  0.3912  0.0929  0.2345
11608TIP3    H156239   6.545   5.375   3.948 -1.2927 -0.4122  1.3400
11608TIP3    H256240   6.677   5.365   4.021 -0.5556  1.5486  0.3709
11609TIP3   OH256241   2.811   0.014   1.843  0.3294  0.3479 -0.0573
11609TIP3    H156242   2.733  -0.037   1.822  0.2299  0.5167 -0.0990
11609TIP3    H256243   2.821   0.074   1.769 -0.2831  1.2601  0.5688
11610TIP3   OH256244   1.829   5.422  13.751  0.0391  0.0560 -0.0161
11610TIP3    H156245   1.893   5.373  13.803 -1.6268 -0.9814  1.1598
11610TIP3    H256246   1.859   5.414  13.661  1.7322 -0.0978  0.5322
11611TIP3   OH256247   0.814   2.079   1.848  0.5123 -0.2953 -0.7346
11611TIP3    H156248   0.906   2.083   1.871  0.8114  0.5975 -2.0024
11611TIP3    H256249   0.806   2.130   1.767 -1.3323  0.8590  0.0966
11612TIP3   OH256250   0.712   3.698   3.138  0.3006  0.4177  0.1755
11612TIP3    H156251   0.636   3.677   3.192  1.2129  0.9417  1.7311
11612TIP3    H256252   0.697   3.650   3.056 -1.2626 -0.1842  0.7719
11613TIP3   OH256253   2.739   2.444   0.975  0.2951 -1.0692  0.3650
11613TIP3    H156254   2.733   2.538   0.959 -3.0064 -1.5819 -2.5588
11613TIP3    H256255   2.695   2.431   1.059  1.6674 -0.0193  1.3040
11614TIP3   OH256256   2.860   5.453   1.091  0.4751  0.2315  0.5428
11614TIP3    H156257   2.894   5.431   1.178 -0.5100 -0.2755  0.8103
11614TIP3    H256258   2.827   5.370   1.057  3.8611 -0.3971 -1.7488
11615TIP3   OH256259   0.007   4.797  16.403  0.2727  0.7287  0.2728
11615TIP3    H156260  -0.001   4.889  16.427  0.6859  0.8628 -0.1124
11615TIP3    H256261  -0.082   4.762  16.416  0.1019  1.1874  0.3709
11616TIP3   OH256262   0.416   5.716  11.907 -0.2599 -0.4714  0.4960
11616TIP3    H156263   0.400   5.759  11.991  1.3243  0.5584  0.3139
11616TIP3    H256264   0.505   5.741  11.883 -0.2853 -1.6091 -0.9969
11617TIP3   OH256265   6.621   1.955   4.754  0.5067 -0.2436  0.6835
11617TIP3    H156266   6.527   1.941   4.743  0.8010 -3.1514  0.9731
11617TIP3    H256267   6.641   1.915   4.839  2.0757 -0.0612  0.4272
11618TIP3   OH256268   1.370   2.804   4.795 -0.1640  0.8685  0.3147
11618TIP3    H156269   1.438   2.844   4.848 -0.7815  0.7296  1.2399
11618TIP3    H256270   1.408   2.798   4.707  0.8895  1.0728  0.7415
11619TIP3   OH256271   6.490   0.092   2.697  0.1691  0.4251  0.7698
11619TIP3    H156272   6.461   0.053   2.780  0.1553  0.1309  0.6267
11619TIP3    H256273   6.468   0.185   2.705 -1.4840  0.0863  0.3727
11620TIP3   OH256274   0.337   0.969  14.754  0.3978  0.2294 -0.4983
11620TIP3    H156275   0.361   0.996  14.843  0.6397  2.4348 -1.1538
11620TIP3    H256276   0.388   0.890  14.738  2.1234  1.0645  0.5336
11621TIP3   OH256277   5.666   6.118   2.996  0.1051  0.1711  0.1227
11621TIP3    H156278   5.669   6.202   3.043  2.0330  1.4541 -2.0908
11621TIP3    H256279   5.716   6.133   2.917  1.9737 -3.5784  0.3785
11622TIP3   OH256280   3.382   4.618  13.992  0.1134  0.4939  0.2414
11622TIP3    H156281   3.343   4.705  13.981  0.0632  0.1975 -2.8245
11622TIP3    H256282   3.475   4.631  13.976  0.2557  0.1106  0.7206
11623TIP3   OH256283   1.058   4.275  13.330  0.3359 -0.8580 -0.4929
11623TIP3    H156284   1.055   4.368  13.350  0.0654 -0.9967  0.1646
11623TIP3    H256285   0.989   4.262  13.265 -0.5734 -0.8149  0.4245
11624TIP3   OH256286   2.371   3.205   5.897 -0.5755 -0.0723  0.2534
11624TIP3    H156287   2.282   3.216   5.864  0.2157  1.2132 -1.6775
11624TIP3    H256288   2.363   3.202   5.992 -2.7329 -0.8288  0.0864
11625TIP3   OH256289   4.333   3.581  14.158  0.3901  0.3139  0.3483
11625TIP3    H156290   4.255   3.598  14.105 -0.0008 -1.1416  0.4186
11625TIP3    H256291   4.406   3.612  14.103 -0.2673  3.3354  0.9962
11626TIP3   OH256292   3.768   0.419  10.918  0.1159  0.1165 -0.2053
11626TIP3    H156293   3.707   0.432  10.845 -0.6924 -2.3335 -0.0336
11626TIP3    H256294   3.854   0.437  10.879 -0.4584  0.9337 -1.1762
11627TIP3   OH256295   4.337   3.920  13.964 -0.4056  0.0718 -0.0259
11627TIP3    H156296   4.391   3.844  13.945  0.1820  0.9428 -2.1316
11627TIP3    H256297   4.397   3.984  14.001 -0.8552 -0.3552  1.5289
11628TIP3   OH256298   3.645   5.610  11.829  0.3578  0.0646  0.5448
11628TIP3    H156299   3.576   5.552  11.862  0.1685 -0.0734 -0.0753
11628TIP3    H256300   3.598   5.678  11.780  0.6278  0.3082  0.6201
11629TIP3   OH256301   6.019   4.370   0.916 -0.1787 -0.5291 -0.1726
11629TIP3    H156302   5.931   4.369   0.955  0.8038 -0.7669  2.2402
11629TIP3    H256303   6.005   4.397   0.825 -3.2648 -4.8791 -1.3252
11630TIP3   OH256304   4.051   1.613   2.580  0.0742 -0.0995 -0.0832
11630TIP3    H156305   4.142   1.588   2.595 -0.3341 -0.9218  1.1785
11630TIP3    H256306   4.012   1.618   2.668 -0.9598  0.8194 -0.5571
11631TIP3   OH256307   4.139   3.955   4.996  0.1188  0.1632  0.0818
11631TIP3    H156308   4.060   3.939   5.048 -0.3692  1.3802 -0.2342
11631TIP3    H256309   4.126   3.902   4.917  0.9573 -1.8540  1.2184
11632TIP3   OH256310   5.659   5.626   2.470  0.0392 -0.1388 -0.1407
11632TIP3    H156311   5.722   5.566   2.430  0.1618 -0.0277 -0.1162
11632TIP3    H256312   5.638   5.585   2.554  0.6463  0.1852  0.1828
11633TIP3   OH256313   5.426   6.730   0.795  0.7005  0.9597 -0.4981
11633TIP3    H156314   5.374   6.809   0.785 -0.9517  0.2274  1.5757
11633TIP3    H256315   5.462   6.736   0.884 -0.6856 -1.2062  0.3080
11634TIP3   OH256316   1.069   4.463  14.168  0.1668 -0.1631  0.8118
11634TIP3    H156317   1.091   4.375  14.138  2.3993  0.5194  0.2986
11634TIP3    H256318   0.973   4.466  14.164  0.1300 -1.8763 -1.1643
11635TIP3   OH256319   5.109   0.928   4.641 -0.3460  0.0192 -0.2429
11635TIP3    H156320   5.163   0.994   4.600 -0.0724 -0.0524 -0.0030
11635TIP3    H256321   5.053   0.894   4.571  1.1919 -1.2132 -0.9338
11636TIP3   OH256322   1.665   2.082  15.271 -0.4693 -0.1097 -0.1679
11636TIP3    H156323   1.711   2.129  15.202 -0.2513  0.1904  0.1720
11636TIP3    H256324   1.638   2.150  15.332  0.2014 -0.4476  0.5392
11637TIP3   OH256325   4.565   5.997   6.510  0.3927  0.3226 -0.2199
11637TIP3    H156326   4.541   5.937   6.440  1.3026 -2.8784  1.9399
11637TIP3    H256327   4.482   6.025   6.549 -0.2324 -3.2847  1.4685
11638TIP3   OH256328   1.016   6.122  13.832 -0.2464  0.0686 -0.4643
11638TIP3    H156329   1.075   6.186  13.874 -0.4229 -0.3087  0.3823
11638TIP3    H256330   1.069   6.044  13.822 -0.5750 -0.2641  0.2763
11639TIP3   OH256331   1.327   4.905  11.708 -0.2115  0.4026 -0.5791
11639TIP3    H156332   1.336   5.000  11.713 -0.0395  0.3295  1.7845
11639TIP3    H256333   1.410   4.872  11.743 -0.0834 -0.6334 -1.8256
11640TIP3   OH256334   2.831   4.742   5.626 -0.0395  0.3978  0.2515
11640TIP3    H156335   2.924   4.727   5.610  0.0495  0.6594  0.4981
11640TIP3    H256336   2.786   4.688   5.562  0.2865  0.3944  0.0228
11641TIP3   OH256337   4.031   1.560   4.491 -0.2065  0.7087 -0.1978
11641TIP3    H156338   3.951   1.554   4.438  0.0492  3.0590 -0.9506
11641TIP3    H256339   4.036   1.475   4.535 -1.1981 -0.8638 -2.8375
11642TIP3   OH256340   2.596   2.149   5.867  0.1593 -0.3399  0.0078
11642TIP3    H156341   2.644   2.075   5.832 -1.2095 -0.7818 -1.0314
11642TIP3    H256342   2.578   2.125   5.958  1.2142 -0.4928  0.1873
11643TIP3   OH256343   0.097   1.043   0.031 -0.2248  0.4495  0.2334
11643TIP3    H156344   0.062   1.132   0.027  0.5983  0.7469 -0.4715
11643TIP3    H256345   0.189   1.054   0.053 -0.3941 -0.3021  1.4239
11644TIP3   OH256346   4.744   6.269   0.979 -0.2155  0.3472  0.4124
11644TIP3    H156347   4.673   6.274   0.916 -1.3849  2.0380  1.7775
11644TIP3    H256348   4.789   6.354   0.971 -0.2731  0.5154  1.7110
11645TIP3   OH256349   5.493   6.007  15.898 -0.3403  0.0830 -0.1704
11645TIP3    H156350   5.457   5.981  15.813 -1.6652 -0.5041  0.5571
11645TIP3    H256351   5.419   6.042  15.947  0.1801 -0.6228  1.1646
11646TIP3   OH256352   6.096   4.738   0.739 -0.0679 -0.9083  0.0922
11646TIP3    H156353   6.144   4.820   0.736  3.4054 -2.7561  0.1632
11646TIP3    H256354   6.096   4.714   0.832  1.0629 -2.0555 -0.1783
11647TIP3   OH256355   4.235   5.665   4.067  0.4519  0.5253 -0.2643
11647TIP3    H156356   4.216   5.721   4.142  0.4235 -2.3656  2.0389
11647TIP3    H256357   4.162   5.603   4.064  2.4578 -1.9770 -0.0472
11648TIP3   OH256358   2.305   6.031   0.603 -0.2858 -0.1670 -0.1438
11648TIP3    H156359   2.391   5.988   0.610 -0.2431 -0.0776 -0.1197
11648TIP3    H256360   2.277   6.044   0.693 -0.0039  0.4460 -0.1379
11649TIP3   OH256361   1.241   6.004  17.294 -0.2921  0.5265 -0.5438
11649TIP3    H156362   1.199   5.919  17.281  0.9792 -0.0977 -0.7096
11649TIP3    H256363   1.233   6.020  17.388 -1.4595  0.7311 -0.6702
11650TIP3   OH256364   3.607   0.421  10.688  0.0544  0.1033  0.8526
11650TIP3    H156365   3.519   0.413  10.650  1.2177 -2.0548 -1.7243
11650TIP3    H256366   3.656   0.473  10.624  1.6695 -2.2506  0.0481
11651TIP3   OH256367   0.506   3.791   2.554  0.2394 -1.0937  0.0514
11651TIP3    H156368   0.593   3.828   2.571 -0.1469  0.2302 -0.7199
11651TIP3    H256369   0.449   3.834   2.617 -0.3554  0.2973 -1.3708
11652TIP3   OH256370   2.931   3.817   2.525 -0.4580  0.2234 -0.4529
11652TIP3    H156371   2.842   3.850   2.515 -0.1909  0.9036 -0.6476
11652TIP3    H256372   2.948   3.769   2.444 -1.1172 -1.0656  0.1497
11653TIP3   OH256373   1.505   2.212  12.853  0.3503  0.1231  0.9777
11653TIP3    H156374   1.507   2.119  12.876 -1.4660 -0.5584 -1.2958
11653TIP3    H256375   1.480   2.214  12.761  0.1512  2.8987  1.0030
11654TIP3   OH256376   0.717   0.154  17.039  0.1846  0.2818 -0.1347
11654TIP3    H156377   0.799   0.196  17.011  0.2477  1.8589  2.1681
11654TIP3    H256378   0.702   0.187  17.128 -0.5414 -3.5318  1.3436
11655TIP3   OH256379   1.101   4.261   4.090 -0.3891 -0.5422  0.0411
11655TIP3    H156380   1.046   4.270   4.012 -1.2157 -0.3967  0.6327
11655TIP3    H256381   1.104   4.350   4.127  0.8994 -0.3765 -0.4128
11656TIP3   OH256382   3.194   2.937   4.524 -0.5253 -0.0682  0.5571
11656TIP3    H156383   3.135   2.952   4.598 -0.1431 -1.1985  1.1112
11656TIP3    H256384   3.136   2.922   4.449 -0.9263 -0.1285  0.8749
11657TIP3   OH256385   5.034   6.367  15.663 -0.0817 -0.0394  0.0988
11657TIP3    H156386   4.986   6.285  15.653 -0.3712  0.2184 -0.8032
11657TIP3    H256387   5.035   6.404  15.574  0.8511  0.4818  0.3209
11658TIP3   OH256388   1.235   3.539   1.520 -0.4442 -0.0964  0.1732
11658TIP3    H156389   1.145   3.516   1.541 -0.6489  0.2663 -0.2873
11658TIP3    H256390   1.269   3.463   1.474 -1.2980  0.6916 -1.8552
11659TIP3   OH256391   5.498   0.729   0.286  0.0649 -0.0206  0.3372
11659TIP3    H156392   5.559   0.793   0.321 -0.5073  0.6701  0.0804
11659TIP3    H256393   5.481   0.669   0.360  1.3475 -0.4632  0.2915
11660TIP3   OH256394   0.279   1.148   5.600  0.0115  0.0775  0.1373
11660TIP3    H156395   0.294   1.079   5.665 -2.9864  0.4810  1.4513
11660TIP3    H256396   0.213   1.110   5.541 -0.9496  1.4385  0.3044
11661TIP3   OH256397   0.384   2.282   6.526  0.0024  0.0657 -0.0254
11661TIP3    H156398   0.355   2.191   6.526 -1.5904  0.5401  0.1796
11661TIP3    H256399   0.327   2.326   6.589 -0.3243  1.5060 -1.2485
11662TIP3   OH256400   1.351   5.766  14.804  0.1192 -0.5008  0.2690
11662TIP3    H156401   1.345   5.690  14.862  3.4532  0.4664  2.1542
11662TIP3    H256402   1.342   5.842  14.862 -0.5662  0.5841 -1.1720
11663TIP3   OH256403   5.874   2.435  13.170 -0.1164  0.3520 -0.1768
11663TIP3    H156404   5.933   2.395  13.233 -0.1174  0.3965 -0.1482
11663TIP3    H256405   5.834   2.508  13.217  0.9894  1.3155 -0.6733
11664TIP3   OH256406   6.285   0.998   1.739  0.2323  0.5044 -0.2891
11664TIP3    H156407   6.368   0.996   1.692  1.0750 -1.8421  1.1765
11664TIP3    H256408   6.222   0.960   1.678  0.1785  2.1864 -1.3590
11665TIP3   OH256409   1.971   5.321   2.148 -0.3002 -0.1106  0.3415
11665TIP3    H156410   1.908   5.333   2.220 -1.0293 -0.9978 -0.1186
11665TIP3    H256411   1.960   5.399   2.094 -1.0571 -0.2743  0.2415
11666TIP3   OH256412   6.692   2.952  14.066  0.0287  0.2929 -1.0402
11666TIP3    H156413   6.754   2.977  14.134  0.8539 -0.5002 -1.4667
11666TIP3    H256414   6.630   2.893  14.110  0.5349 -0.1867 -0.9466
11667TIP3   OH256415   5.105   4.822  13.021 -0.1999  0.5248 -0.2281
11667TIP3    H156416   5.027   4.791  12.974 -0.1901 -0.2895  0.2601
11667TIP3    H256417   5.070   4.875  13.092 -0.2769  0.6610 -0.3661
11668TIP3   OH256418   6.391   0.788  17.161  0.0707 -0.3273 -0.2676
11668TIP3    H156419   6.331   0.801  17.235  1.3200 -0.2474  0.7587
11668TIP3    H256420   6.380   0.867  17.108 -1.4426 -0.7468 -0.6506
11669TIP3   OH256421   0.145   3.235  15.169  0.2531  0.1426  0.2017
11669TIP3    H156422   0.073   3.172  15.170  0.0242  0.3819  1.9023
11669TIP3    H256423   0.108   3.315  15.205  1.2689  0.3879  0.7430
11670TIP3   OH256424   1.431   0.024   2.404 -0.0954  0.6787  0.7354
11670TIP3    H156425   1.347  -0.013   2.376 -0.7764  1.4862  1.6477
11670TIP3    H256426   1.466  -0.041   2.466  0.5292 -0.2115 -0.5101
11671TIP3   OH256427   2.434   5.525   1.755 -0.3500  0.5907 -0.4961
11671TIP3    H156428   2.528   5.528   1.742 -0.4271 -0.1769 -1.2940
11671TIP3    H256429   2.398   5.499   1.670 -0.9598 -3.2549  0.7323
11672TIP3   OH256430   2.349   3.154  17.296  0.0358 -0.0177  0.4898
11672TIP3    H156431   2.350   3.147  17.200  1.2431 -0.0181  0.4841
11672TIP3    H256432   2.268   3.110  17.322 -0.0856 -0.4259 -0.5049
11673TIP3   OH256433   2.866   0.097   6.016 -0.1951 -0.2491  0.1534
11673TIP3    H156434   2.813   0.120   5.940  0.5957  0.8951 -0.0769
11673TIP3    H256435   2.805   0.098   6.089 -0.7225 -0.1485 -0.2814
11674TIP3   OH256436   0.417   3.125   3.752  0.0592 -0.4785 -0.0088
11674TIP3    H156437   0.347   3.078   3.796  0.2527 -1.5319 -0.8074
11674TIP3    H256438   0.395   3.218   3.764 -0.2674 -0.7461  1.6705
11675TIP3   OH256439   0.540   4.097   6.488  0.3502 -0.0678  0.1014
11675TIP3    H156440   0.456   4.088   6.533 -0.6557 -0.5194 -1.7713
11675TIP3    H256441   0.572   4.008   6.477  0.2441 -0.0247 -0.6433
11676TIP3   OH256442   4.717   1.196   1.420  0.5221  0.5472  0.0038
11676TIP3    H156443   4.729   1.102   1.428 -0.7384  0.5001  2.1517
11676TIP3    H256444   4.805   1.232   1.419  1.0650 -0.6709 -2.0339
11677TIP3   OH256445   2.545   1.353   2.464  0.3369  0.7085  0.7051
11677TIP3    H156446   2.504   1.413   2.526 -1.8237 -0.2939  0.3428
11677TIP3    H256447   2.521   1.387   2.378 -0.6954 -0.4809  0.4925
11678TIP3   OH256448   1.546   0.030  11.679  0.5417 -0.0069 -0.3046
11678TIP3    H156449   1.578   0.046  11.768  0.0171 -1.7644  0.2523
11678TIP3    H256450   1.622  -0.001  11.631  0.6790  0.2733 -0.2670
11679TIP3   OH256451   4.089   2.530  14.792 -0.4045  0.2635 -0.6410
11679TIP3    H156452   4.129   2.444  14.803  1.9127  1.3383 -0.0847
11679TIP3    H256453   4.163   2.590  14.784 -1.9601  2.1245 -1.8375
11680TIP3   OH256454   1.101   4.600  12.434 -0.1708  0.0439  0.1574
11680TIP3    H156455   1.030   4.574  12.492 -0.8962  1.5414  0.0030
11680TIP3    H256456   1.136   4.681  12.473  0.1022  0.4332 -0.8468
11681TIP3   OH256457   3.786   5.756   5.295 -0.1491 -0.8269 -0.2046
11681TIP3    H156458   3.836   5.816   5.350 -0.9863  0.4637 -0.8070
11681TIP3    H256459   3.751   5.811   5.225 -0.9887 -2.0183 -0.7508
11682TIP3   OH256460   1.157   4.083   1.135  0.3201 -0.0396  0.0840
11682TIP3    H156461   1.227   4.036   1.090 -0.5015 -0.2959 -0.9762
11682TIP3    H256462   1.121   4.141   1.068 -0.3532  0.2215  0.6657
11683TIP3   OH256463   4.733   6.580  14.042 -0.4178  0.0408  0.1120
11683TIP3    H156464   4.805   6.639  14.022 -1.0480  1.0980  0.8746
11683TIP3    H256465   4.717   6.591  14.136 -0.8778 -0.9732  0.1714
11684TIP3   OH256466   2.475   3.555   2.609 -0.1549  0.7213  0.0544
11684TIP3    H156467   2.415   3.552   2.683  0.4419  1.8999  0.6179
11684TIP3    H256468   2.440   3.493   2.546  1.1615 -2.9820  2.6595
11685TIP3   OH256469   1.504   4.342  11.586 -0.5650  0.2972  0.6677
11685TIP3    H156470   1.530   4.401  11.515 -3.3852  0.0044 -0.7489
11685TIP3    H256471   1.560   4.367  11.660  1.6026  1.4841 -1.2414
11686TIP3   OH256472   0.794   3.679  15.177  0.6654 -0.1821 -0.0867
11686TIP3    H156473   0.762   3.766  15.154  2.4115  0.4607 -0.2871
11686TIP3    H256474   0.762   3.664  15.266 -1.6197 -0.3793 -0.8821
11687TIP3   OH256475   3.267   4.170  16.305 -0.2242  0.2050  0.0157
11687TIP3    H156476   3.312   4.116  16.240 -0.0222  0.5999 -0.1707
11687TIP3    H256477   3.175   4.143  16.297  0.2201 -2.2492  1.9639
11688TIP3   OH256478   3.507   0.825   5.241 -0.1594 -0.6917 -0.4895
11688TIP3    H156479   3.484   0.901   5.187 -0.4531 -0.6936 -0.3675
11688TIP3    H256480   3.423   0.793   5.274 -0.0189 -0.9653 -0.3998
11689TIP3   OH256481   4.252   2.558   3.417 -0.0410  0.3081 -0.1338
11689TIP3    H156482   4.184   2.625   3.419 -1.5377 -1.1394  1.1663
11689TIP3    H256483   4.288   2.559   3.506  2.6426  1.9320 -1.1331
11690TIP3   OH256484   6.398   1.928   5.727  0.1655 -0.3519  0.1792
11690TIP3    H156485   6.425   1.894   5.812  0.4530 -0.3228  0.1007
11690TIP3    H256486   6.322   1.875   5.703 -0.2584  0.0138  0.7087
11691TIP3   OH256487   2.048   6.613  16.511 -0.9949  0.1728 -0.9958
11691TIP3    H156488   2.004   6.528  16.511 -2.3024  0.8258 -0.1161
11691TIP3    H256489   2.001   6.665  16.446 -0.9412  0.5959 -0.6976
11692TIP3   OH256490   2.791   5.571   5.882 -0.3192  0.0364 -0.4943
11692TIP3    H156491   2.817   5.519   5.806 -0.1753  1.2184 -1.2830
11692TIP3    H256492   2.697   5.586   5.869 -1.5674 -3.9434  2.1727
11693TIP3   OH256493   5.115   3.676   3.105  0.0991 -0.3710 -1.0056
11693TIP3    H156494   5.095   3.654   3.014  3.4639  0.2821 -2.0644
11693TIP3    H256495   5.133   3.770   3.104  0.8075 -0.4704  0.1682
11694TIP3   OH256496   0.196   0.736  12.154  0.0286  0.3315 -0.0135
11694TIP3    H156497   0.147   0.755  12.074  0.6297 -2.1975 -1.0732
11694TIP3    H256498   0.129   0.719  12.220 -0.4924  0.3740 -0.5232
11695TIP3   OH256499   4.454   5.034  16.367  0.0335 -0.2243  0.3953
11695TIP3    H156500   4.540   4.995  16.354  0.0157  0.0230 -0.5359
11695TIP3    H256501   4.434   5.018  16.459  0.7823 -0.8629  0.4552
11696TIP3   OH256502   1.657   5.417  15.062  0.9049 -0.0118 -0.1468
11696TIP3    H156503   1.602   5.492  15.043 -0.0756 -0.1348  1.9705
11696TIP3    H256504   1.638   5.354  14.992 -0.6041  0.5029 -0.2154
11697TIP3   OH256505   0.419   4.331  15.100 -0.4814 -0.1533  0.3908
11697TIP3    H156506   0.504   4.321  15.057 -1.1409 -1.3454 -0.7019
11697TIP3    H256507   0.401   4.425  15.096  0.2214 -0.0428 -0.4916
11698TIP3   OH256508   0.423   4.140  11.572  0.2368 -0.1910  0.1633
11698TIP3    H156509   0.389   4.088  11.644  2.1662 -0.8566  0.6515
11698TIP3    H256510   0.486   4.199  11.613  0.9630 -0.2003 -0.9019
11699TIP3   OH256511   6.574   3.038   1.228 -0.1594 -1.0662 -0.3387
11699TIP3    H156512   6.510   3.059   1.161 -0.5879 -1.7023 -0.1403
11699TIP3    H256513   6.645   3.100   1.214 -0.7898 -0.3850 -0.5987
11700TIP3   OH256514   2.078   5.013   6.758 -0.5131 -0.2304 -0.2401
11700TIP3    H156515   2.064   5.027   6.664 -0.6601 -0.7060 -0.2896
11700TIP3    H256516   2.087   4.918   6.767 -0.1785 -0.1619  0.1837
11701TIP3   OH256517   3.407   6.054   0.831 -0.4049  0.0544  0.2666
11701TIP3    H156518   3.471   6.006   0.777 -0.7476 -1.3280  1.0414
11701TIP3    H256519   3.323   6.037   0.788 -0.4450  0.6187  0.1122
11702TIP3   OH256520   6.337   5.708   0.261  0.6085 -0.2814 -0.4511
11702TIP3    H156521   6.245   5.690   0.280  0.4616  0.0894 -0.7723
11702TIP3    H256522   6.337   5.737   0.169  1.0369 -0.2290 -0.4379
11703TIP3   OH256523   2.939   2.603   5.284  0.0575  0.0596 -0.1688
11703TIP3    H156524   3.031   2.630   5.286  0.3406 -0.0696 -3.7412
11703TIP3    H256525   2.941   2.514   5.251 -1.3509  0.0778 -0.3625
11704TIP3   OH256526   2.802   3.079   1.653  0.3052 -0.3068 -0.2187
11704TIP3    H156527   2.827   3.126   1.574 -1.7377  0.3059 -0.5438
11704TIP3    H256528   2.810   3.145   1.723 -1.7994  0.3981 -0.5618
11705TIP3   OH256529   3.821   1.887   6.097  0.5006 -0.2683 -0.7131
11705TIP3    H156530   3.781   1.814   6.144  0.9197 -0.2042 -0.2597
11705TIP3    H256531   3.868   1.845   6.024  0.6292 -0.4424 -0.5308
11706TIP3   OH256532   2.378   3.169   0.406  0.4129 -1.0166 -0.2876
11706TIP3    H156533   2.343   3.089   0.367  0.3516 -0.0741 -2.3028
11706TIP3    H256534   2.319   3.189   0.478  1.0426 -3.3179  0.9724
11707TIP3   OH256535   1.512   3.017   4.203 -0.3228  0.2037 -0.3745
11707TIP3    H156536   1.454   2.942   4.188  0.4153 -0.2216 -1.1716
11707TIP3    H256537   1.484   3.052   4.288 -0.1357 -1.4874  0.4319
11708TIP3   OH256538   5.569   2.292  14.585 -0.1436  0.1843  0.3838
11708TIP3    H156539   5.594   2.200  14.576 -0.2597  0.1463  0.4462
11708TIP3    H256540   5.475   2.293  14.569  0.0296  0.4428 -0.6743
11709TIP3   OH256541   1.242   5.987  15.874  0.0870 -0.0444 -0.6731
11709TIP3    H156542   1.290   5.920  15.923 -2.9373 -0.5154  2.0250
11709TIP3    H256543   1.285   6.070  15.899 -0.3983 -0.4317  1.7001
11710TIP3   OH256544   2.189   6.435   2.079 -0.6028  0.2304  0.1069
11710TIP3    H156545   2.159   6.524   2.097 -1.4912  0.0260 -0.2946
11710TIP3    H256546   2.113   6.391   2.042 -0.4627 -0.9889  1.1921
11711TIP3   OH256547   2.674   4.344  12.833 -0.0506 -0.2789  0.1093
11711TIP3    H156548   2.762   4.379  12.819 -0.7185  2.2003  1.4540
11711TIP3    H256549   2.684   4.249  12.826  2.4363 -0.0090 -1.1592
11712TIP3   OH256550   3.865   3.251  17.367 -0.4087  0.0776 -0.0030
11712TIP3    H156551   3.876   3.158  17.346  0.8006  0.5080 -1.4603
11712TIP3    H256552   3.941   3.273  17.420  0.2912  0.6310 -1.1985
11713TIP3   OH256553   3.794   5.307   2.709  0.4140  0.3025 -0.0263
11713TIP3    H156554   3.805   5.288   2.615  2.4962  1.2924 -0.0224
11713TIP3    H256555   3.731   5.241   2.739  0.0228 -0.3075 -2.0220
11714TIP3   OH256556   3.298   5.555   0.779  0.2348  0.3407  0.0252
11714TIP3    H156557   3.212   5.520   0.802 -0.7949  3.0912  0.6794
11714TIP3    H256558   3.315   5.520   0.692 -1.7690  0.0896 -0.3259
11715TIP3   OH256559   4.595   3.832  15.599  0.8270 -0.1775  0.0286
11715TIP3    H156560   4.646   3.892  15.545 -1.4119  1.1957 -0.6753
11715TIP3    H256561   4.561   3.767  15.538  1.3727 -0.8486  0.4262
11716TIP3   OH256562   3.421   6.637  11.281 -0.4466 -0.3205 -0.4444
11716TIP3    H156563   3.511   6.656  11.307 -0.7337 -2.2408  2.4314
11716TIP3    H256564   3.369   6.703  11.326 -0.7386 -2.1565  2.1848
11717TIP3   OH256565   6.248   3.916  12.483  0.2034 -0.1195 -0.2272
11717TIP3    H156566   6.292   3.967  12.415  1.4083 -0.5736  0.1668
11717TIP3    H256567   6.171   3.967  12.507  0.4059  0.6132 -1.1089
11718TIP3   OH256568   6.192   4.564  16.835 -0.5128 -0.7718  0.1598
11718TIP3    H156569   6.161   4.566  16.744 -2.2830 -0.6927  0.7347
11718TIP3    H256570   6.210   4.472  16.852  2.4698 -0.5289 -1.0577
11719TIP3   OH256571   5.526   1.613   4.186 -0.0636 -0.3560  0.1366
11719TIP3    H156572   5.621   1.613   4.171 -0.0932  0.2714 -0.0789
11719TIP3    H256573   5.488   1.628   4.100 -0.2714  1.8873  0.5385
11720TIP3   OH256574   5.866   2.097  17.061  0.4835 -0.2559 -0.0642
11720TIP3    H156575   5.944   2.063  17.104  0.1239 -0.6254  0.3121
11720TIP3    H256576   5.843   2.176  17.110 -0.5167 -1.2367  1.1000
11721TIP3   OH256577   4.341   2.639  17.331  0.1329  0.5087 -0.1586
11721TIP3    H156578   4.308   2.577  17.266  1.5505 -0.9668  0.4657
11721TIP3    H256579   4.262   2.674  17.372 -0.7382  0.2380 -1.5234
11722TIP3   OH256580   6.705   1.370   3.101  0.3603 -0.4893 -0.2903
11722TIP3    H156581   6.642   1.369   3.029 -1.2016 -1.3693  1.0085
11722TIP3    H256582   6.761   1.445   3.083 -0.9983  0.2674 -1.5849
11723TIP3   OH256583   2.071   6.569  14.478  0.7449  0.6413 -0.0140
11723TIP3    H156584   1.994   6.521  14.508  1.4875  0.2078  1.2962
11723TIP3    H256585   2.044   6.610  14.396 -0.7672  0.2438  0.2618
11724TIP3   OH256586   3.890   4.221  11.423 -0.5681 -0.0150 -0.1524
11724TIP3    H156587   3.869   4.314  11.424 -2.0304 -0.3204  0.4009
11724TIP3    H256588   3.937   4.206  11.505 -1.4193  0.0251  0.3567
11725TIP3   OH256589   0.544   6.750  15.739  0.2739 -0.1104  0.2079
11725TIP3    H156590   0.527   6.844  15.750 -0.2038 -0.3530  1.7759
11725TIP3    H256591   0.487   6.723  15.667  0.3533  0.7721 -0.2008
11726TIP3   OH256592   1.307   2.300  15.229  0.4792  0.0429  0.3164
11726TIP3    H156593   1.228   2.353  15.227 -0.9605 -1.8645  2.2713
11726TIP3    H256594   1.358   2.334  15.301  0.1658 -0.3719  0.7421
11727TIP3   OH256595   6.494   6.272   4.936  0.3161 -0.0583 -0.5492
11727TIP3    H156596   6.530   6.299   4.852 -0.3812  0.2051 -0.7665
11727TIP3    H256597   6.418   6.328   4.949 -0.0871 -0.6847 -0.1519
11728TIP3   OH256598   4.984   6.263   2.742 -0.2418 -0.0047 -0.4331
11728TIP3    H156599   4.927   6.297   2.673  0.3295 -1.2128 -1.5500
11728TIP3    H256600   4.937   6.187   2.777 -1.1822  1.3788  1.5481
11729TIP3   OH256601   0.500   1.285   2.863 -0.4076  0.2906  0.4536
11729TIP3    H156602   0.529   1.220   2.799 -1.9988 -1.1274  1.0672
11729TIP3    H256603   0.581   1.316   2.905  0.5002 -0.1619 -0.9006
11730TIP3   OH256604   0.108   2.174   5.003  0.2024  0.0650 -0.6602
11730TIP3    H156605   0.151   2.131   5.076  1.1439 -0.4782 -1.5190
11730TIP3    H256606   0.115   2.268   5.023  0.1518 -0.0848  0.0966
11731TIP3   OH256607   5.420   0.974  14.649  0.5350 -0.4538  0.2332
11731TIP3    H156608   5.389   0.992  14.737 -0.7844 -1.1242 -0.0664
11731TIP3    H256609   5.348   0.925  14.608  1.4149 -0.7783 -0.9745
11732TIP3   OH256610   1.636   0.567  14.845  0.2781 -0.7472  0.3676
11732TIP3    H156611   1.635   0.480  14.887 -0.2373 -1.2896 -0.7232
11732TIP3    H256612   1.599   0.625  14.911 -1.3705 -1.7340  0.3717
11733TIP3   OH256613   3.844   4.216  14.518 -0.1251 -0.3217 -0.3034
11733TIP3    H156614   3.856   4.174  14.433  0.4282  0.1358 -0.4575
11733TIP3    H256615   3.799   4.150  14.572  0.1263 -0.8563 -0.7419
11734TIP3   OH256616   2.510   0.756   4.932 -0.4626 -0.2775  0.5312
11734TIP3    H156617   2.469   0.671   4.927 -0.6107 -0.3882  2.7064
11734TIP3    H256618   2.604   0.738   4.920 -0.4411 -0.8376  1.4181
11735TIP3   OH256619   1.910   1.996   2.393 -0.4054 -0.0562  0.3697
11735TIP3    H156620   1.975   2.029   2.330  0.9533 -2.7416  0.2280
11735TIP3    H256621   1.839   1.963   2.338  0.5132 -1.8515  0.1878
11736TIP3   OH256622   3.687   2.326   6.064 -0.0243  0.0734 -0.6046
11736TIP3    H156623   3.661   2.286   5.981  0.6542  1.4505 -1.5189
11736TIP3    H256624   3.780   2.305   6.072  0.0448  0.4238 -0.4781
11737TIP3   OH256625   6.418   5.391   4.900  0.0952  0.3903 -0.1476
11737TIP3    H156626   6.357   5.395   4.826 -0.8773 -0.7381  0.5632
11737TIP3    H256627   6.493   5.443   4.871  0.4551 -1.2707 -2.5652
11738TIP3   OH256628   3.192   3.641   0.572 -0.0222 -0.2712  0.1583
11738TIP3    H156629   3.286   3.628   0.589  0.1153  0.0311 -0.3409
11738TIP3    H256630   3.148   3.592   0.641  0.5013 -1.5885 -0.4139
11739TIP3   OH256631   1.459   2.020   4.457  0.3145 -0.0249  0.5125
11739TIP3    H156632   1.526   1.952   4.451  0.2345  0.0256 -1.4871
11739TIP3    H256633   1.410   2.014   4.375 -0.3915  1.7271  0.7513
11740TIP3   OH256634   5.100   1.201   4.777  0.0143  0.5003 -0.2906
11740TIP3    H156635   5.186   1.219   4.739  0.9303 -2.0786  0.3327
11740TIP3    H256636   5.050   1.162   4.705  0.8768 -1.9357  0.3079
11741TIP3   OH256637   4.191   3.516   3.347 -0.4020 -0.0543 -0.4637
11741TIP3    H156638   4.187   3.534   3.441 -0.3201  1.5530 -0.7485
11741TIP3    H256639   4.258   3.575   3.314  0.4002 -1.4376 -1.3689
11742TIP3   OH256640   2.000   6.641   6.591  0.2065  0.2535 -0.3047
11742TIP3    H156641   1.932   6.679   6.647 -0.2575 -0.4761 -0.3638
11742TIP3    H256642   2.081   6.683   6.621 -0.1156  0.3245  0.5072
11743TIP3   OH256643   2.577   1.697   5.594  0.4964 -0.3557  0.1572
11743TIP3    H156644   2.530   1.634   5.540 -0.0306  1.5254 -1.7171
11743TIP3    H256645   2.592   1.652   5.677 -0.2527 -2.7321 -0.9306
11744TIP3   OH256646   4.217   0.740   6.784 -0.3543 -0.7676  0.1460
11744TIP3    H156647   4.225   0.648   6.759 -0.6165 -0.3784 -1.5556
11744TIP3    H256648   4.181   0.739   6.872 -1.7215 -2.3009 -0.3801
11745TIP3   OH256649   0.935   2.978  14.495  0.6463 -0.3029 -0.2145
11745TIP3    H156650   0.981   3.058  14.471 -0.6724  0.5959  0.1155
11745TIP3    H256651   0.982   2.944  14.571  0.7849  0.5847  0.1065
11746TIP3   OH256652   5.321   5.675   5.117  0.4608 -0.5086  0.0375
11746TIP3    H156653   5.239   5.698   5.074 -0.4628 -0.3446  1.7935
11746TIP3    H256654   5.346   5.753   5.166  1.4032 -0.7283 -0.0665
11747TIP3   OH256655   5.466   4.424   2.289  0.5711  0.3574  0.1582
11747TIP3    H156656   5.504   4.337   2.284  2.6111  1.2469 -1.8274
11747TIP3    H256657   5.456   4.452   2.198  0.9953  2.5737  0.7137
11748TIP3   OH256658   1.451   6.040  15.635  0.3886 -0.3219  0.2733
11748TIP3    H156659   1.362   6.068  15.654 -0.4135 -2.4770  0.0090
11748TIP3    H256660   1.442   5.948  15.610  2.4835 -0.1493 -1.4430
11749TIP3   OH256661   5.584   5.565   3.734  0.3794  0.5610 -0.5115
11749TIP3    H156662   5.573   5.470   3.732  0.9153  0.4430  0.9891
11749TIP3    H256663   5.642   5.581   3.808 -1.9374  2.2503  1.0892
11750TIP3   OH256664   1.372   5.692   2.285 -1.2235  0.2635 -0.5635
11750TIP3    H156665   1.328   5.631   2.344  0.8314  0.9043  1.8296
11750TIP3    H256666   1.301   5.744   2.247 -2.7012 -0.5862  0.9073
11751TIP3   OH256667   0.147   1.435   3.912  0.1899  0.6972 -0.6366
11751TIP3    H156668   0.128   1.430   3.819 -0.5758  0.2738 -0.4697
11751TIP3    H256669   0.226   1.382   3.924 -0.3381 -0.1720 -0.8869
11752TIP3   OH256670   5.325   2.790   0.825  0.0077 -0.3980  0.4094
11752TIP3    H156671   5.409   2.832   0.806 -1.2728  1.8475 -0.6671
11752TIP3    H256672   5.344   2.696   0.820  1.8858  0.0010 -2.4912
11753TIP3   OH256673   5.421   6.736   6.311  0.2904 -0.5521  0.4997
11753TIP3    H156674   5.405   6.767   6.400 -2.7368 -2.1555  0.6311
11753TIP3    H256675   5.377   6.800   6.255  1.7634  0.1796  0.1277
11754TIP3   OH256676   4.785   3.132  12.210  0.1389 -0.0021 -0.2477
11754TIP3    H156677   4.806   3.103  12.299 -1.4485 -1.8276 -0.4167
11754TIP3    H256678   4.727   3.065  12.176 -0.1697  1.2314 -2.3002
11755TIP3   OH256679   0.640   1.292  14.829 -0.5563  0.8769  0.2597
11755TIP3    H156680   0.646   1.286  14.925  1.3444 -2.2833  0.1203
11755TIP3    H256681   0.568   1.233  14.807 -0.1926  0.6238 -0.2671
11756TIP3   OH256682   3.080   0.326  16.084  0.2626  0.1569 -0.1880
11756TIP3    H156683   3.158   0.311  16.031  0.4363 -0.7190  0.2991
11756TIP3    H256684   3.023   0.252  16.062  0.7755 -0.8204  1.6439
11757TIP3   OH256685   2.732   3.506  11.437 -0.2773 -0.1931 -0.1095
11757TIP3    H156686   2.692   3.585  11.400  0.3948  0.2615  0.1205
11757TIP3    H256687   2.669   3.437  11.419 -0.3424  0.1703 -1.3613
11758TIP3   OH256688   6.699   0.038  11.471 -0.5711 -0.1619 -0.0430
11758TIP3    H156689   6.667  -0.050  11.449  1.2468 -1.2352  1.2768
11758TIP3    H256690   6.643   0.067  11.542 -0.2794 -0.9230  0.5210
11759TIP3   OH256691   4.780   1.904   4.140  0.0889  0.4952 -0.2435
11759TIP3    H156692   4.737   1.901   4.054  1.7897  0.2701 -1.1209
11759TIP3    H256693   4.858   1.957   4.126  0.3333  0.5517  1.2113
11760TIP3   OH256694   0.855   6.672  16.730  0.3682  0.1266  0.1661
11760TIP3    H156695   0.797   6.604  16.696 -0.8546  0.5264  1.3950
11760TIP3    H256696   0.820   6.694  16.816  2.4696  0.2471  1.0443
11761TIP3   OH256697   5.927   1.166   4.677  0.4717  0.0271 -0.1346
11761TIP3    H156698   5.981   1.229   4.723  1.2014 -1.9734  1.9368
11761TIP3    H256699   5.989   1.117   4.622  0.5655 -1.2604  1.0775
11762TIP3   OH256700   2.847   4.469  15.063  0.4681 -0.0545 -0.3059
11762TIP3    H156701   2.875   4.389  15.019  0.0340  0.3561 -1.3689
11762TIP3    H256702   2.911   4.482  15.134  0.1185 -1.7280  0.3647
11763TIP3   OH256703   4.727   5.528  12.359 -0.6398  0.0502  0.1165
11763TIP3    H156704   4.735   5.622  12.373  0.1283  0.3458 -1.9617
11763TIP3    H256705   4.633   5.510  12.369 -0.8086  1.0530  0.4212
11764TIP3   OH256706   3.780   4.933  12.437  0.1882 -0.3154  0.1164
11764TIP3    H156707   3.807   4.970  12.353  0.0364  0.2561  0.3121
11764TIP3    H256708   3.791   5.005  12.499  0.3103 -0.7367  0.5891
11765TIP3   OH256709   0.512   0.479   4.988  0.4242  0.2383  0.1557
11765TIP3    H156710   0.604   0.505   4.984  0.0031  1.7727 -0.9346
11765TIP3    H256711   0.486   0.494   5.079  1.6731 -1.9728  0.9421
11766TIP3   OH256712   1.209   6.726  13.995 -0.3911 -0.0558 -0.3823
11766TIP3    H156713   1.130   6.700  13.948  0.5314 -0.6157 -1.6901
11766TIP3    H256714   1.274   6.740  13.926  0.9906 -0.8172  0.7131
11767TIP3   OH256715   4.169   2.654   4.837  0.2323 -0.0378 -0.2637
11767TIP3    H156716   4.102   2.718   4.862  0.6409  0.9506 -1.5776
11767TIP3    H256717   4.122   2.591   4.782  0.4233  0.8646 -1.4956
11768TIP3   OH256718   3.473   1.706  11.804 -0.2353 -0.2445 -0.2144
11768TIP3    H156719   3.419   1.779  11.834 -1.0857 -0.6998 -0.6136
11768TIP3    H256720   3.423   1.666  11.733  0.3090 -1.0993 -0.1349
11769TIP3   OH256721   1.542   5.883  11.958  0.0581 -0.6194 -0.4450
11769TIP3    H156722   1.549   5.868  12.053  0.4684  1.7256 -0.0335
11769TIP3    H256723   1.622   5.931  11.936 -0.6880  0.1091 -1.6922
11770TIP3   OH256724   3.819   6.122   1.041 -0.1150 -0.1168 -0.2897
11770TIP3    H156725   3.733   6.157   1.067 -1.0201 -1.3283 -1.5396
11770TIP3    H256726   3.877   6.145   1.114 -1.9803 -1.1838  1.6455
11771TIP3   OH256727   0.309   5.683   0.502 -0.3113 -0.1566 -0.1025
11771TIP3    H156728   0.344   5.732   0.577  0.2278 -1.4083  0.4985
11771TIP3    H256729   0.230   5.641   0.535 -0.1325 -0.6230 -0.2567
11772TIP3   OH256730   2.388   3.434  13.836 -0.5477  0.1451  0.3759
11772TIP3    H156731   2.309   3.380  13.842  0.3020 -0.9974  2.0585
11772TIP3    H256732   2.429   3.425  13.922  0.9925  1.3849 -0.1977
11773TIP3   OH256733   1.995   5.292   3.065  0.2600 -0.2793 -0.1255
11773TIP3    H156734   1.960   5.374   3.030 -0.3925 -0.7956 -0.6972
11773TIP3    H256735   2.028   5.245   2.988  0.0704 -0.8245  0.1196
11774TIP3   OH256736   6.524   4.896  11.491  0.1585 -0.1924  0.3573
11774TIP3    H156737   6.441   4.854  11.511  0.1315 -0.6563 -0.6412
11774TIP3    H256738   6.591   4.833  11.518  0.1658 -0.1752  0.3800
11775TIP3   OH256739   2.269   3.052   3.253  0.0528  0.1516 -0.0891
11775TIP3    H156740   2.325   3.071   3.178 -0.7137 -0.2534 -0.7864
11775TIP3    H256741   2.236   2.963   3.237  1.3711 -0.7275  1.6982
11776TIP3   OH256742   3.291   0.770   4.110  0.4114 -0.2591 -0.6931
11776TIP3    H156743   3.238   0.704   4.154 -0.5549  1.4020  0.7673
11776TIP3    H256744   3.327   0.824   4.180  0.1681  1.4867 -1.8228
11777TIP3   OH256745   3.109   4.918   5.303 -0.0141 -0.5369  0.1329
11777TIP3    H156746   3.085   4.965   5.222 -1.1936 -1.1070  0.1311
11777TIP3    H256747   3.040   4.941   5.365 -0.2094 -1.6755  0.3582
11778TIP3   OH256748   6.458   3.821  15.009  0.7825  0.3043 -0.7535
11778TIP3    H156749   6.483   3.913  15.019  2.1917 -0.0690 -0.6699
11778TIP3    H256750   6.446   3.789  15.098 -0.6404  0.6346 -0.8086
11779TIP3   OH256751   2.248   4.163   6.201  0.3837  0.4870 -0.4169
11779TIP3    H156752   2.333   4.119   6.200 -0.4911 -1.4254  1.2964
11779TIP3    H256753   2.231   4.178   6.294 -1.3761  0.3100 -0.6844
11780TIP3   OH256754   1.208   0.496   1.247 -0.1651 -0.0929  0.2529
11780TIP3    H156755   1.293   0.523   1.281 -0.9373 -0.3495  2.6150
11780TIP3    H256756   1.186   0.417   1.298 -0.4946 -1.8861 -2.4437
11781TIP3   OH256757   5.864   4.908   2.705 -0.0203  0.7066 -0.7159
11781TIP3    H156758   5.916   4.986   2.688 -0.5140  1.1297 -0.3159
11781TIP3    H256759   5.779   4.927   2.665 -0.0882  0.2971 -0.7745
11782TIP3   OH256760   0.295   0.955   3.230 -0.1597 -0.1824 -0.3573
11782TIP3    H156761   0.226   0.969   3.295  0.3320 -0.4956  0.2466
11782TIP3    H256762   0.292   1.033   3.175 -0.1691  0.3966  0.4407
11783TIP3   OH256763   6.269   0.235  14.113 -0.0285  0.1419 -0.1473
11783TIP3    H156764   6.357   0.246  14.076 -0.2397 -0.1213 -0.7444
11783TIP3    H256765   6.259   0.309  14.173  0.3762  0.5177 -0.5313
11784TIP3   OH256766   3.049   3.549   3.551  0.5483  0.5209  0.1535
11784TIP3    H156767   2.999   3.604   3.491 -0.9324  2.4287  2.8864
11784TIP3    H256768   3.075   3.608   3.622  1.2175 -1.7663  1.9537
11785TIP3   OH256769   0.396   2.512  13.129 -0.4814 -0.1114 -0.2655
11785TIP3    H156770   0.452   2.586  13.105 -0.5244 -0.2181 -0.7074
11785TIP3    H256771   0.430   2.438  13.078  0.5398 -0.7936  1.3209
11786TIP3   OH256772   2.926   4.096  13.274  0.4283 -0.0536  0.1019
11786TIP3    H156773   2.909   4.007  13.307 -1.2399  1.1277  2.7318
11786TIP3    H256774   2.840   4.139  13.278  1.6667  2.4810  1.5928
11787TIP3   OH256775   2.979   0.970   5.048 -0.5857 -0.0880  0.5520
11787TIP3    H156776   3.026   1.018   5.117 -0.7233  0.7670  0.0695
11787TIP3    H256777   3.004   0.879   5.061 -1.0157 -0.0214  2.0562
11788TIP3   OH256778   6.528   3.305   5.732 -0.0070  0.1247  0.1738
11788TIP3    H156779   6.434   3.320   5.724  0.0569  0.8090  0.5895
11788TIP3    H256780   6.561   3.385   5.773  1.0885  0.8157 -1.9328
11789TIP3   OH256781   4.143   0.627   1.996  0.0147 -0.3487 -0.1168
11789TIP3    H156782   4.230   0.624   1.958  0.2422 -1.7905  0.4338
11789TIP3    H256783   4.090   0.674   1.932  1.1035  0.1956 -0.6424
11790TIP3   OH256784   4.391   6.260  13.762 -0.0577 -1.1865  0.4071
11790TIP3    H156785   4.342   6.208  13.827 -3.4935 -1.2809 -1.9974
11790TIP3    H256786   4.401   6.202  13.687  2.3130 -0.5355  0.1406
11791TIP3   OH256787   2.029   3.103  12.803 -0.0076  0.3831 -0.7118
11791TIP3    H156788   1.968   3.113  12.729 -0.1336  1.2596 -0.5015
11791TIP3    H256789   1.972   3.100  12.880  0.1662  0.2702 -0.5887
11792TIP3   OH256790   1.741   4.118  14.547 -0.1474 -0.1156 -0.0799
11792TIP3    H156791   1.791   4.171  14.486  3.3848  0.5944  3.0315
11792TIP3    H256792   1.770   4.028  14.530 -1.9874 -0.4611 -1.7305
11793TIP3   OH256793   5.882   1.063   2.696  0.4457 -0.0266 -0.0373
11793TIP3    H156794   5.912   1.082   2.785 -0.2500  0.4588  0.0960
11793TIP3    H256795   5.961   1.033   2.650  1.0809  0.9500  0.3880
11794TIP3   OH256796   1.948   5.638  12.426 -0.6377  0.2338  0.4769
11794TIP3    H156797   1.858   5.640  12.458  0.4581  1.6044  3.7937
11794TIP3    H256798   1.970   5.729  12.407  0.1453 -0.0459 -0.0243
11795TIP3   OH256799   4.999   5.326   6.239 -0.1301  0.0847  0.4525
11795TIP3    H156800   5.046   5.263   6.185 -0.0079 -1.4358  2.2203
11795TIP3    H256801   5.061   5.398   6.253  0.8371 -0.8235  0.8706
11796TIP3   OH256802   0.962   3.707  12.476  0.0299  0.0649  0.2643
11796TIP3    H156803   1.005   3.792  12.464  1.2653 -0.4491  0.8860
11796TIP3    H256804   1.002   3.670  12.555 -0.7824 -0.9271  0.2398
11797TIP3   OH256805   1.633   3.054  16.579  0.5474 -0.5240 -0.7816
11797TIP3    H156806   1.551   3.011  16.556  0.5260  0.0462 -1.8667
11797TIP3    H256807   1.611   3.147  16.584  0.8465 -0.4975  0.3051
11798TIP3   OH256808   5.863   6.766  11.410  0.4176 -0.1604  0.0990
11798TIP3    H156809   5.818   6.758  11.326  0.2853 -0.9185  0.2391
11798TIP3    H256810   5.810   6.830  11.458 -1.8265 -2.5224  1.0499
11799TIP3   OH256811   3.138   1.141  15.324 -0.2289  0.0041  0.4658
11799TIP3    H156812   3.141   1.072  15.391 -0.3569 -2.1099 -1.5832
11799TIP3    H256813   3.056   1.187  15.340 -0.5535 -0.8659  1.3949
11800TIP3   OH256814   3.582   4.699   6.501  0.1509  0.4606 -0.0434
11800TIP3    H156815   3.551   4.617   6.463 -0.8339  0.8005 -0.0162
11800TIP3    H256816   3.534   4.767   6.453 -0.2580  0.9446  1.0326
11801TIP3   OH256817   5.072   6.076  15.768 -0.2699  0.3966 -0.7010
11801TIP3    H156818   5.050   5.983  15.758 -0.6989  0.2798  0.9985
11801TIP3    H256819   5.143   6.091  15.705  0.9428 -1.5036  0.1147
11802TIP3   OH256820   1.471   3.790  12.045  0.3320 -0.0476  0.3606
11802TIP3    H156821   1.465   3.884  12.023  1.0756 -0.0260  0.2411
11802TIP3    H256822   1.404   3.778  12.112 -1.3309  0.1072 -1.1583
11803TIP3   OH256823   3.350   4.807   1.349  0.0459  0.4011 -0.6615
11803TIP3    H156824   3.291   4.761   1.289  0.9846 -2.9465  0.7443
11803TIP3    H256825   3.295   4.871   1.393 -3.0928 -3.3131  1.4348
11804TIP3   OH256826   3.743   0.070  11.029  0.0687  0.0837  0.4457
11804TIP3    H156827   3.686   0.125  10.975  1.5674  0.8400 -0.4413
11804TIP3    H256828   3.827   0.073  10.985  0.5368 -1.9207  1.0878
11805TIP3   OH256829   6.271   0.563  15.980 -0.3251  0.0386 -0.0733
11805TIP3    H156830   6.203   0.517  16.029 -1.2851 -0.7140 -2.0247
11805TIP3    H256831   6.241   0.562  15.889  2.9921 -1.6960 -1.3133
11806TIP3   OH256832   3.086   4.646   3.796 -0.6906 -0.0360 -0.1193
11806TIP3    H156833   3.145   4.717   3.822 -0.2294  0.1385 -1.5461
11806TIP3    H256834   2.999   4.684   3.805 -0.4341  0.8505 -1.1861
11807TIP3   OH256835   0.472   2.093  16.923 -0.3963 -0.3229 -0.3771
11807TIP3    H156836   0.561   2.095  16.959 -0.1611  0.0457 -0.9521
11807TIP3    H256837   0.475   2.155  16.850 -0.5570 -1.7857 -1.6824
11808TIP3   OH256838   2.126   1.047  13.863 -0.3162 -0.8132  0.2581
11808TIP3    H156839   2.168   0.977  13.813 -0.1598 -0.5828  0.0635
11808TIP3    H256840   2.152   1.031  13.953  0.5054 -0.4611  0.0927
11809TIP3   OH256841   4.479   5.475   5.083 -0.1772  0.2698  0.1164
11809TIP3    H156842   4.395   5.473   5.129 -1.1326  1.3070 -1.4793
11809TIP3    H256843   4.511   5.564   5.096  0.5433 -0.0325  0.4583
11810TIP3   OH256844   5.356   1.827   4.013  0.0836 -0.3408 -0.0171
11810TIP3    H156845   5.420   1.762   3.984  1.0694  1.5107 -2.3103
11810TIP3    H256846   5.271   1.787   3.994  0.6792 -0.7493 -2.0233
11811TIP3   OH256847   3.968   2.908   6.261  0.1917  0.3414 -0.0915
11811TIP3    H156848   4.001   2.992   6.292  1.1534 -0.1107  0.1370
11811TIP3    H256849   4.045   2.862   6.228 -0.4392 -0.1567 -0.9117
11812TIP3   OH256850   5.115   0.387   0.779 -0.0324 -0.2159 -0.2998
11812TIP3    H156851   5.084   0.470   0.814  0.3184 -1.2455  2.7384
11812TIP3    H256852   5.151   0.409   0.693 -3.3832  2.0592 -1.3260
11813TIP3   OH256853   1.941   4.410  11.499 -0.2792  0.4097 -0.7744
11813TIP3    H156854   2.033   4.400  11.476 -0.0378  1.2095 -0.1911
11813TIP3    H256855   1.911   4.321  11.518  0.3722  0.1508 -0.9391
11814TIP3   OH256856   1.642   6.618  13.227 -0.6006  0.5601  0.4289
11814TIP3    H156857   1.561   6.643  13.183 -0.1348  0.1310 -0.7172
11814TIP3    H256858   1.684   6.701  13.249  0.9371  0.9760 -3.3220
11815TIP3   OH256859   2.124   5.178  15.029 -0.4138 -0.5243 -0.2117
11815TIP3    H156860   2.128   5.096  14.981  1.2225 -1.0389  0.7175
11815TIP3    H256861   2.112   5.152  15.120 -4.2090  0.4447 -0.2753
11816TIP3   OH256862   4.992   6.477  12.406 -0.0189  0.2696  0.1365
11816TIP3    H156863   5.072   6.463  12.355 -0.7029  2.6778 -1.8009
11816TIP3    H256864   5.001   6.566  12.440 -1.0469 -0.1407  1.5624
11817TIP3   OH256865   1.764   0.288  14.357  0.1016 -0.1275 -0.1069
11817TIP3    H156866   1.781   0.204  14.315 -0.0038 -0.1700 -0.0641
11817TIP3    H256867   1.792   0.353  14.293  2.1674 -0.1948  0.6258
11818TIP3   OH256868   6.513   5.512  11.654  0.0037 -0.4229  0.3565
11818TIP3    H156869   6.606   5.522  11.674  0.0020  0.2107  0.0439
11818TIP3    H256870   6.512   5.456  11.576  0.1354 -0.2249  0.2108
11819TIP3   OH256871   0.497   0.295   2.975 -0.3885 -0.2278  0.3628
11819TIP3    H156872   0.430   0.363   2.967 -0.6590 -0.5887 -0.5227
11819TIP3    H256873   0.448   0.214   2.987 -0.1231 -0.5055 -0.3741
11820TIP3   OH256874   0.169   5.488  16.597  0.0714 -0.3122 -0.5723
11820TIP3    H156875   0.233   5.487  16.668 -1.3683  0.6191  0.8051
11820TIP3    H256876   0.169   5.398  16.564  1.5748 -0.4880 -0.1410
11821TIP3   OH256877   1.539   6.047  13.600  0.2733 -0.5405  0.7400
11821TIP3    H156878   1.570   6.067  13.512 -0.8679  0.5105  0.5578
11821TIP3    H256879   1.444   6.049  13.594  0.1679 -0.3671  2.0086
11822TIP3   OH256880   2.333   1.256   6.279 -0.2866 -0.0127 -0.3928
11822TIP3    H156881   2.363   1.272   6.189 -0.9925  2.0529 -0.3094
11822TIP3    H256882   2.386   1.182   6.309 -0.4965 -1.2273 -2.7248
11823TIP3   OH256883   2.278   3.568  13.242  0.1412 -0.0089 -0.4675
11823TIP3    H156884   2.232   3.649  13.216  0.4273  1.1029  2.2057
11823TIP3    H256885   2.365   3.577  13.203 -0.6598 -0.3966 -2.4874
11824TIP3   OH256886   4.389   3.978  15.909 -0.6291  0.0672 -0.2407
11824TIP3    H156887   4.304   3.998  15.949 -0.8980  0.2878 -0.9030
11824TIP3    H256888   4.453   4.013  15.971 -1.0478  0.8010 -0.2009
11825TIP3   OH256889   1.376   0.909  14.360 -0.0323 -0.3536  0.6169
11825TIP3    H156890   1.467   0.915  14.331 -0.1283  0.0991  0.4015
11825TIP3    H256891   1.381   0.914  14.456  0.2561 -1.4973  0.6718
11826TIP3   OH256892   6.131   2.290   2.930  0.2085 -0.2293  0.1540
11826TIP3    H156893   6.087   2.317   3.011 -0.8535  0.6519 -0.6890
11826TIP3    H256894   6.075   2.323   2.860  2.0163  0.6030 -0.9762
11827TIP3   OH256895   5.875   5.954  11.193 -0.0931 -0.4482 -0.0514
11827TIP3    H156896   5.904   5.879  11.140 -1.3343  0.0354 -1.4964
11827TIP3    H256897   5.838   6.015  11.129 -0.2067  0.8710  1.2358
11828TIP3   OH256898   1.480   2.508   6.052 -0.4864  0.2646 -0.3200
11828TIP3    H156899   1.393   2.547   6.040 -0.5569 -0.2500 -1.6376
11828TIP3    H256900   1.541   2.580   6.043 -0.6892  0.3189 -1.2642
11829TIP3   OH256901   6.047   2.394  16.961  0.6842  0.0544  0.4018
11829TIP3    H156902   6.113   2.348  17.013  0.1750  2.0453  3.0605
11829TIP3    H256903   6.095   2.430  16.887  2.0922 -0.4982  1.0121
11830TIP3   OH256904   0.173   1.779  11.952  0.0981  0.2329  0.0324
11830TIP3    H156905   0.226   1.850  11.916 -0.2746  0.2087 -0.5749
11830TIP3    H256906   0.204   1.701  11.906 -0.4724  0.2220 -0.3382
11831TIP3   OH256907   4.516   0.763  13.964 -0.1309  0.0168  0.2778
11831TIP3    H156908   4.476   0.688  14.007 -1.1225 -0.0521 -0.7302
11831TIP3    H256909   4.559   0.726  13.887  1.0630  0.2292  0.8192
11832TIP3   OH256910   5.440   4.373   3.991  0.7362  0.1310 -0.3199
11832TIP3    H156911   5.380   4.334   3.928  0.7527  0.4240 -0.5186
11832TIP3    H256912   5.458   4.303   4.054 -1.0225  0.4778  0.6299
11833TIP3   OH256913   3.275   5.643  13.968 -0.3517 -0.3830 -0.2883
11833TIP3    H156914   3.298   5.562  13.924 -2.9709 -1.2244 -0.3015
11833TIP3    H256915   3.283   5.623  14.061 -0.3617 -0.4544 -0.3027
11834TIP3   OH256916   0.695   0.029  15.015  0.0210  0.3615 -0.2211
11834TIP3    H156917   0.714  -0.055  14.975 -2.8240 -0.6169  0.2015
11834TIP3    H256918   0.775   0.052  15.062  0.2893 -3.1931  1.4396
11835TIP3   OH256919   6.305   1.756   6.135 -0.4464 -0.1704  0.3303
11835TIP3    H156920   6.305   1.702   6.056 -1.1891 -3.5712  2.4480
11835TIP3    H256921   6.235   1.820   6.120 -2.5598 -2.5556 -0.7246
11836TIP3   OH256922   6.337   6.177   2.089  0.5266 -0.0417 -0.3382
11836TIP3    H156923   6.374   6.133   2.165 -1.6942  0.0998  0.8942
11836TIP3    H256924   6.339   6.270   2.112  0.0704  0.0228 -0.5565
11837TIP3   OH256925   4.333   4.783   4.771 -0.0672  0.0523  0.6216
11837TIP3    H156926   4.290   4.713   4.821  0.7277  0.1869  1.5333
11837TIP3    H256927   4.274   4.858   4.781  0.6826  0.4619  2.5262
11838TIP3   OH256928   3.931   2.097  17.257 -0.4921  0.2681  0.1459
11838TIP3    H156929   3.953   2.118  17.166 -0.3663  1.2724  0.4039
11838TIP3    H256930   3.984   2.157  17.309 -0.3556 -0.4945  0.8993
11839TIP3   OH256931   5.747   6.667   1.885 -0.5407 -0.4458 -0.3401
11839TIP3    H156932   5.721   6.575   1.893 -2.1538 -0.1165 -1.3199
11839TIP3    H256933   5.666   6.716   1.899  0.5199  0.9362  1.5079
11840TIP3   OH256934   4.831   6.380   2.523  0.1978  0.5130  0.4905
11840TIP3    H156935   4.896   6.388   2.453 -1.0504 -0.6582 -0.8803
11840TIP3    H256936   4.778   6.459   2.516 -1.2854 -0.5474 -1.4349
11841TIP3   OH256937   6.330   3.317  15.078 -0.1910 -0.2867 -0.3222
11841TIP3    H156938   6.274   3.294  15.004 -1.2917  0.7311  0.1596
11841TIP3    H256939   6.378   3.395  15.049 -0.2039 -0.2215 -0.1698
11842TIP3   OH256940   0.064   2.463   1.009  0.1720 -0.4352  0.4128
11842TIP3    H156941   0.124   2.393   0.983  0.3186 -0.0094 -0.4017
11842TIP3    H256942   0.078   2.471   1.104  0.4233 -1.2437  0.4565
11843TIP3   OH256943   1.976   5.809  11.108  0.0294  0.3818 -0.0160
11843TIP3    H156944   2.026   5.763  11.176 -1.9886  0.3622  1.5549
11843TIP3    H256945   1.901   5.752  11.090 -0.9117  1.6394 -0.2595
11844TIP3   OH256946   0.281   2.544   1.685 -0.2161  0.1256  0.0986
11844TIP3    H156947   0.252   2.459   1.719  1.5346  0.3190  2.2328
11844TIP3    H256948   0.338   2.522   1.611 -0.2202 -0.5310  0.2864
11845TIP3   OH256949   2.616   0.912   0.080  0.1143 -0.0461  0.1149
11845TIP3    H156950   2.584   0.902   0.169  1.8129 -0.8266  0.6631
11845TIP3    H256951   2.541   0.949   0.032 -0.4480  1.5753  2.1068
11846TIP3   OH256952   3.915   4.382   2.340  0.3558 -0.3529 -0.2485
11846TIP3    H156953   3.955   4.391   2.254  0.9727 -0.4618  0.0246
11846TIP3    H256954   3.988   4.388   2.402  0.1390 -1.9231  0.1958
11847TIP3   OH256955   4.962   3.209  16.366 -0.0106  0.3369 -0.0828
11847TIP3    H156956   5.019   3.239  16.296 -0.2677 -0.0075 -0.4414
11847TIP3    H256957   4.910   3.286  16.389  0.3494  0.5556  0.0046
11848TIP3   OH256958   5.991   2.749   3.704  0.0691 -0.7400  0.1986
11848TIP3    H156959   5.896   2.765   3.709  0.3793  1.2645  0.5128
11848TIP3    H256960   6.022   2.814   3.641  1.2420 -1.4601  0.0138
11849TIP3   OH256961   3.118   0.784   5.599 -0.1797  0.4267 -0.0428
11849TIP3    H156962   3.060   0.850   5.638 -1.0184  0.1219 -0.7326
11849TIP3    H256963   3.093   0.703   5.642 -0.7390  0.1808 -0.8149
11850TIP3   OH256964   2.955   5.228  15.468  0.1712 -0.2351 -0.0073
11850TIP3    H156965   2.899   5.305  15.477  0.6327  0.1227 -0.1105
11850TIP3    H256966   2.967   5.219  15.373  0.7736  0.0565  0.0356
11851TIP3   OH256967   5.769   5.571   5.204 -0.3866  0.2734  0.6264
11851TIP3    H156968   5.733   5.584   5.292  0.2552 -1.5172  1.1963
11851TIP3    H256969   5.693   5.545   5.151 -0.8950  1.9680  0.4453
11852TIP3   OH256970   2.866   0.769   0.744 -0.0175 -0.6164 -0.6657
11852TIP3    H156971   2.906   0.855   0.739 -1.5906  0.1397 -0.7517
11852TIP3    H256972   2.921   0.720   0.805  0.7487  0.5288 -0.4146
11853TIP3   OH256973   1.108   2.974   1.004 -0.0112 -0.0510  0.5767
11853TIP3    H156974   1.092   3.057   1.050 -1.5372 -0.2157  0.3843
11853TIP3    H256975   1.173   2.996   0.938  1.3961  0.4513  2.0473
11854TIP3   OH256976   0.910   3.677   5.573 -0.3133  0.1568 -0.1301
11854TIP3    H156977   0.933   3.637   5.658  0.7220 -2.0882 -1.3692
11854TIP3    H256978   0.984   3.735   5.554  0.7709 -1.3215 -0.6365
11855TIP3   OH256979   5.068   2.882  13.838  0.4464 -0.2563  0.4892
11855TIP3    H156980   5.163   2.881  13.855  0.3844  2.2242  1.4030
11855TIP3    H256981   5.061   2.912  13.747  0.5468  0.3001  0.6593
11856TIP3   OH256982   4.487   3.445  12.297  0.1313  0.0174 -0.1767
11856TIP3    H156983   4.474   3.538  12.276 -2.6768  0.0076  1.0942
11856TIP3    H256984   4.500   3.403  12.212  0.8330  1.4518 -0.8226
11857TIP3   OH256985   4.080   2.999  13.331  0.1807  0.0047 -0.2996
11857TIP3    H156986   4.022   3.042  13.394 -0.7540 -0.4336 -0.8389
11857TIP3    H256987   4.161   3.049  13.334 -0.9486  1.9842 -1.0869
11858TIP3   OH256988   6.320   6.125   3.030  0.2355  0.5353  0.1845
11858TIP3    H156989   6.368   6.127   2.947  2.6798  1.0895  1.4893
11858TIP3    H256990   6.291   6.035   3.039  1.9378 -0.0986 -0.2600
11859TIP3   OH256991   1.039   6.118  14.985 -0.2141  0.1591  0.2875
11859TIP3    H156992   0.973   6.049  14.984  0.1396 -0.1813 -0.9212
11859TIP3    H256993   1.101   6.094  14.917 -1.2789  2.7848 -1.8002
11860TIP3   OH256994   0.711   0.859   3.185 -0.5722 -0.3603  0.8624
11860TIP3    H156995   0.676   0.922   3.122  0.4484 -0.2459  0.3989
11860TIP3    H256996   0.672   0.885   3.268 -0.6806  0.4831  0.5631
11861TIP3   OH256997   3.039   4.462  16.905 -0.1440 -0.4154 -0.2340
11861TIP3    H156998   3.085   4.510  16.837  1.6203 -2.9839 -1.0177
11861TIP3    H256999   3.095   4.468  16.982 -0.0870 -0.9094 -0.2340
11862TIP3   OH257000   2.180   0.663   1.708 -0.1328  0.2121 -0.4727
11862TIP3    H157001   2.101   0.615   1.734  0.2891 -1.3377 -1.8771
11862TIP3    H257002   2.207   0.709   1.788 -0.8367 -1.5402  0.8466
11863TIP3   OH257003   1.629   3.888  15.640 -0.6355  0.1410  0.4097
11863TIP3    H157004   1.636   3.971  15.687  0.4069  0.0081  0.5045
11863TIP3    H257005   1.542   3.891  15.600  0.5872  2.7949 -2.4389
11864TIP3   OH257006   3.707   1.270  11.133 -0.0569  0.2411 -0.0161
11864TIP3    H157007   3.781   1.260  11.074  0.4896  1.9442  0.3240
11864TIP3    H257008   3.662   1.349  11.103 -0.0194  0.8949  1.5429
11865TIP3   OH257009   1.680   1.221   3.015  0.2293 -0.7389  0.4623
11865TIP3    H157010   1.721   1.135   3.021 -0.4683 -1.1869 -0.7827
11865TIP3    H257011   1.606   1.208   2.956 -1.6138  0.0951  2.4839
11866TIP3   OH257012   2.864   2.181  13.320 -0.7939 -0.0905 -0.0702
11866TIP3    H157013   2.932   2.153  13.258 -1.7214  1.1012 -1.6962
11866TIP3    H257014   2.791   2.122  13.302 -0.3809 -1.1182  1.4139
11867TIP3   OH257015   4.114   3.104   4.157  0.4365  0.2631 -0.6029
11867TIP3    H157016   4.104   3.031   4.096  0.1544  0.2334 -0.5212
11867TIP3    H257017   4.208   3.123   4.157  0.3830  0.5871 -1.4370
11868TIP3   OH257018   6.540   5.675   2.767 -0.1008 -0.3025  0.0966
11868TIP3    H157019   6.549   5.769   2.752 -2.1937 -0.0189  0.3076
11868TIP3    H257020   6.515   5.639   2.682 -1.4248 -0.3102  0.4633
11869TIP3   OH257021   6.456   1.792  14.223 -0.1846  0.0608  0.2368
11869TIP3    H157022   6.514   1.843  14.280 -0.9915  1.0367  0.1978
11869TIP3    H257023   6.378   1.776  14.277 -0.5519  0.1626 -0.2602
11870TIP3   OH257024   5.535   4.162   2.244 -0.0031  0.3544 -0.1818
11870TIP3    H157025   5.506   4.141   2.155  0.3777 -3.0290  0.3644
11870TIP3    H257026   5.617   4.114   2.254  1.3789  2.8292  1.1781
11871TIP3   OH257027   5.253   0.603   3.227 -0.2890  0.2366  0.3559
11871TIP3    H157028   5.281   0.685   3.268  2.0595  0.6571 -1.8601
11871TIP3    H257029   5.162   0.618   3.201 -0.6383  1.2492  2.0173
11872TIP3   OH257030   2.192   4.595  15.288 -0.6278 -0.1640 -0.1149
11872TIP3    H157031   2.253   4.537  15.245 -0.5807 -0.0919 -0.1449
11872TIP3    H257032   2.181   4.668  15.227 -1.4838 -0.6342 -0.5377
11873TIP3   OH257033   4.648   4.756   0.954  0.5867 -0.2975 -0.3341
11873TIP3    H157034   4.704   4.696   1.003 -0.1885 -0.1500  0.7595
11873TIP3    H257035   4.586   4.789   1.018 -1.9999 -1.8772 -1.8457
11874TIP3   OH257036   4.015   1.697  15.857 -0.2064  0.3327 -0.5661
11874TIP3    H157037   3.939   1.743  15.895 -0.4406  0.2833 -0.9728
11874TIP3    H257038   4.039   1.748  15.781 -1.7955 -1.3183 -2.2913
11875TIP3   OH257039   6.582   1.874  11.807  0.4561 -0.1283  0.0898
11875TIP3    H157040   6.490   1.898  11.824 -0.0235 -1.5081 -0.4415
11875TIP3    H257041   6.632   1.942  11.852 -0.8143  0.1688  1.1461
11876TIP3   OH257042   5.977   5.893   4.935 -0.2809  0.1064  0.8250
11876TIP3    H157043   6.053   5.902   4.992  1.3605  0.4296 -1.2641
11876TIP3    H257044   6.013   5.856   4.854 -2.7461 -1.8880  0.5146
11877TIP3   OH257045   4.135   4.529   6.110  0.0243 -0.1741 -0.4063
11877TIP3    H157046   4.106   4.563   6.195 -1.0024 -2.8112  0.4067
11877TIP3    H257047   4.226   4.557   6.103 -0.6117  2.3553  0.2834
11878TIP3   OH257048   3.490   1.466   4.968  0.4462  0.3372 -0.4221
11878TIP3    H157049   3.407   1.483   5.012  0.6044  0.5004 -0.1842
11878TIP3    H257050   3.528   1.552   4.952  0.5926  0.2620 -0.4882
11879TIP3   OH257051   3.158   6.294   5.643 -0.2134 -0.0045  0.3818
11879TIP3    H157052   3.230   6.357   5.646 -0.0915 -0.1012 -0.2988
11879TIP3    H257053   3.157   6.253   5.729  2.9549 -2.7052 -0.6747
11880TIP3   OH257054   3.865   2.147   0.785 -0.1335 -0.3023  0.4850
11880TIP3    H157055   3.854   2.061   0.744 -1.8303  0.3473 -0.5209
11880TIP3    H257056   3.917   2.130   0.863  2.1313 -1.7897 -1.2163
11881TIP3   OH257057   0.100   0.924   1.700 -0.1012  0.2323 -0.2695
11881TIP3    H157058   0.089   0.983   1.625 -0.1828  0.6627  0.0770
11881TIP3    H257059   0.025   0.943   1.757 -0.6833 -0.9071 -0.6090
11882TIP3   OH257060   6.033   5.260   2.387 -0.4536  0.0938 -0.1851
11882TIP3    H157061   6.096   5.303   2.329  0.6761  0.2744  1.1247
11882TIP3    H257062   6.079   5.185   2.422 -1.0871  0.0237  0.5324
11883TIP3   OH257063   1.064   5.942  16.253  0.2715  0.3793 -0.0338
11883TIP3    H157064   1.017   5.888  16.189  0.1359  0.7789 -0.2682
11883TIP3    H257065   1.096   6.017  16.203 -0.7588  1.2434  0.5838
11884TIP3   OH257066   2.033   3.983  16.391 -0.0161  0.8832 -0.5926
11884TIP3    H157067   2.030   3.904  16.444 -1.0509  1.2071 -0.1374
11884TIP3    H257068   2.126   4.004  16.384  0.1454  1.1888  1.6512
11885TIP3   OH257069   4.411   0.659  16.846 -0.3033 -0.2068 -0.0664
11885TIP3    H157070   4.483   0.626  16.900  0.5278 -0.9552 -1.5440
11885TIP3    H257071   4.338   0.599  16.863 -0.0290 -0.4702  0.1780
11886TIP3   OH257072   6.486   0.034   2.289  0.0752  0.6780  0.5448
11886TIP3    H157073   6.399   0.009   2.320  0.2066  0.3900  0.6864
11886TIP3    H257074   6.469   0.089   2.213 -0.2822  2.4166  1.8187
11887TIP3   OH257075   2.312   5.608   2.010 -0.9458  0.5060  0.1912
11887TIP3    H157076   2.397   5.652   2.009 -0.6064  0.1546  3.1496
11887TIP3    H257077   2.333   5.515   2.000 -1.1424  0.5331 -0.5247
11888TIP3   OH257078   6.542   1.460   0.900 -0.2807  0.3709 -0.1897
11888TIP3    H157079   6.604   1.533   0.891 -0.5883  0.4653 -1.8739
11888TIP3    H257080   6.482   1.488   0.969  0.4571  1.0814  0.1815
11889TIP3   OH257081   1.727   6.118  13.776  0.0490 -0.3623 -0.9420
11889TIP3    H157082   1.753   6.048  13.836 -0.0286 -0.2553 -0.7840
11889TIP3    H257083   1.666   6.076  13.715  0.2185 -0.4980 -1.0197
11890TIP3   OH257084   1.511   2.873  13.430 -0.1615 -0.1309 -0.0454
11890TIP3    H157085   1.606   2.883  13.418 -0.2484  1.1172  0.1739
11890TIP3    H257086   1.489   2.935  13.500 -1.1309 -0.4672 -0.0364
11891TIP3   OH257087   2.176   0.224  11.610  0.6645 -0.8610 -0.3626
11891TIP3    H157088   2.085   0.196  11.618  0.8495 -1.1564  0.9111
11891TIP3    H257089   2.171   0.315  11.580 -0.0763 -0.6508  0.3548
11892TIP3   OH257090   4.038   5.179  12.406  0.2842 -0.4384 -0.2832
11892TIP3    H157091   3.982   5.161  12.331 -1.1219  1.3499  0.2855
11892TIP3    H257092   4.093   5.101  12.413 -0.5444 -1.2686 -2.2616
11893TIP3   OH257093   6.405   2.315  12.035  0.2481  0.1114  0.2647
11893TIP3    H157094   6.469   2.329  12.104  1.5433 -0.2300 -0.8361
11893TIP3    H257095   6.390   2.221  12.034  0.0165  0.1477  0.2704
11894TIP3   OH257096   2.554   1.103  12.744 -0.1316  0.1790  0.4859
11894TIP3    H157097   2.459   1.091  12.740 -0.0679 -0.2381  0.0283
11894TIP3    H257098   2.567   1.174  12.807 -0.6835 -0.4857  1.3652
11895TIP3   OH257099   3.372   6.562  15.810  0.1046  0.4006  0.1815
11895TIP3    H157100   3.294   6.614  15.830 -0.3291 -0.8427  1.9492
11895TIP3    H257101   3.434   6.584  15.879  1.2636  1.1491 -1.0379
11896TIP3   OH257102   3.825   1.647  12.274 -0.5628 -0.1005  0.4238
11896TIP3    H157103   3.854   1.734  12.303 -0.7624 -0.9903  3.6118
11896TIP3    H257104   3.890   1.622  12.208  0.1162  1.9880  0.2050
11897TIP3   OH257105   6.121   5.884  16.565 -0.1409 -0.4053  0.1400
11897TIP3    H157106   6.111   5.888  16.470 -0.2606 -2.4292  0.0122
11897TIP3    H257107   6.168   5.802  16.580  0.3893  0.1682  1.8053
11898TIP3   OH257108   6.551   1.168   0.042  0.0794  0.2212  0.2330
11898TIP3    H157109   6.537   1.134  -0.046  2.0602 -0.7505  0.2354
11898TIP3    H257110   6.635   1.213   0.037  1.4147 -1.8301  2.0993
11899TIP3   OH257111   6.283   5.838  17.140  0.4033  0.0282 -0.1896
11899TIP3    H157112   6.376   5.859  17.144  0.0087  1.7002  1.7091
11899TIP3    H257113   6.265   5.824  17.047  2.9069 -2.2530 -0.4405
11900TIP3   OH257114   1.843   0.308  11.545  0.2769 -0.0633 -0.1066
11900TIP3    H157115   1.909   0.377  11.555 -1.0076  1.1250  0.3932
11900TIP3    H257116   1.876   0.236  11.599  1.2418  0.4443 -0.0014
11901TIP3   OH257117   3.203   1.509   5.080 -0.1003 -0.4435 -0.1905
11901TIP3    H157118   3.114   1.508   5.045 -0.3376 -0.7345  0.3965
11901TIP3    H257119   3.199   1.572   5.152  0.1748 -0.4419 -0.1767
11902TIP3   OH257120   2.663   0.626  13.026 -0.4164 -0.4537 -0.8968
11902TIP3    H157121   2.686   0.704  13.077  0.3395 -0.8069 -0.6849
11902TIP3    H257122   2.707   0.639  12.942  0.1261 -0.8805 -0.6828
11903TIP3   OH257123   1.060   5.053  15.153  0.3119  0.1727  0.0851
11903TIP3    H157124   1.034   4.992  15.083  0.7686  0.2045 -0.1140
11903TIP3    H257125   1.009   5.133  15.134 -1.2299 -0.5391  1.0606
11904TIP3   OH257126   2.882   6.535  13.327 -0.1649 -0.0753  0.2203
11904TIP3    H157127   2.865   6.442  13.318 -0.6156  0.1493 -1.9538
11904TIP3    H257128   2.802   6.571  13.365  0.1233 -0.5830  1.3525
11905TIP3   OH257129   1.591   0.241   2.515  0.3409  0.2457 -0.0555
11905TIP3    H157130   1.508   0.267   2.555  0.1007 -1.5272  0.7042
11905TIP3    H257131   1.566   0.187   2.440  0.8146  0.3013 -0.2606
11906TIP3   OH257132   4.440   1.180  16.852 -0.1382  0.3024 -0.2378
11906TIP3    H157133   4.485   1.105  16.812 -0.4503  0.4542 -0.8720
11906TIP3    H257134   4.351   1.150  16.866 -0.0710  0.3030  0.2075
11907TIP3   OH257135   0.289   4.427  11.538 -0.0564 -0.1019 -0.4585
11907TIP3    H157136   0.302   4.367  11.612 -0.1701 -0.0395 -0.3887
11907TIP3    H257137   0.351   4.498  11.553  1.9168 -1.4142 -1.8428
11908TIP3   OH257138   1.445   1.894  16.237  0.2944 -0.3425 -0.5408
11908TIP3    H157139   1.368   1.927  16.285  0.8082  0.5202 -0.2946
11908TIP3    H257140   1.413   1.815  16.193 -0.5062 -0.4787  0.2552
11909TIP3   OH257141   3.895   0.703  15.913 -0.1159  0.4573  0.1766
11909TIP3    H157142   3.859   0.777  15.864 -2.6330 -0.7832 -0.0351
11909TIP3    H257143   3.859   0.712  16.001  0.4815  0.0902  0.4673
11910TIP3   OH257144   4.502   6.681   1.784 -0.2786  0.4383 -0.0920
11910TIP3    H157145   4.551   6.731   1.849 -0.6100  0.8607 -0.1598
11910TIP3    H257146   4.495   6.593   1.821  1.2754  0.1262 -0.4819
11911TIP3   OH257147   6.297   4.774  11.548 -0.0143 -0.0144  0.4950
11911TIP3    H157148   6.282   4.681  11.529  0.9324 -0.5071  2.0436
11911TIP3    H257149   6.216   4.816  11.521 -0.0930 -1.1218 -1.2014
11912TIP3   OH257150   4.036   1.678   0.137 -0.2278  0.3570 -0.0126
11912TIP3    H157151   4.083   1.749   0.093 -0.4388 -0.1353 -1.0715
11912TIP3    H257152   4.103   1.610   0.150  0.0853  0.8889  1.4122
11913TIP3   OH257153   5.907   5.145   1.836 -0.3696  0.0156 -0.0485
11913TIP3    H157154   5.840   5.212   1.844 -0.6125 -0.2804  0.4035
11913TIP3    H257155   5.925   5.140   1.742 -0.7509  0.3177 -0.1361
11914TIP3   OH257156   6.438   4.739   1.692  0.0833 -0.1346  0.8247
11914TIP3    H157157   6.368   4.735   1.756 -2.9405  3.0445 -1.8554
11914TIP3    H257158   6.409   4.682   1.621  1.0350 -0.0256  0.3322
11915TIP3   OH257159   0.294   0.965  13.237  0.2255  0.1434  0.1623
11915TIP3    H157160   0.337   1.050  13.228 -1.2464  1.1175  1.7213
11915TIP3    H257161   0.365   0.904  13.256  1.3195  0.9846 -1.0244
11916TIP3   OH257162   0.374   2.314  13.742 -0.3887  0.1074  0.2922
11916TIP3    H157163   0.431   2.245  13.708 -2.3461 -1.0898 -0.7501
11916TIP3    H257164   0.431   2.390  13.750  1.6004 -1.3175  0.4382
11917TIP3   OH257165   6.486   6.348   3.313 -0.2865 -1.0467 -0.0304
11917TIP3    H157166   6.511   6.440   3.311 -1.1712 -0.7322  1.6610
11917TIP3    H257167   6.391   6.349   3.311 -0.3768 -1.8024  1.8608
11918TIP3   OH257168   1.269   3.476  14.390 -0.3278 -0.3233  0.4526
11918TIP3    H157169   1.300   3.386  14.398  0.5566 -0.1139 -0.3797
11918TIP3    H257170   1.186   3.469  14.342 -1.2263 -0.8319  2.0381
11919TIP3   OH257171   1.289   3.459  15.118  0.2674 -0.0960 -0.2383
11919TIP3    H157172   1.331   3.538  15.084  0.9235 -0.5548 -0.4965
11919TIP3    H257173   1.204   3.490  15.150 -0.5309  0.3006 -2.5551
11920TIP3   OH257174   2.032   0.895  16.255 -0.1722 -0.4790 -0.5786
11920TIP3    H157175   1.951   0.944  16.240  0.2663  0.6513  0.6035
11920TIP3    H257176   2.089   0.918  16.181 -0.2855  0.1151 -0.4819
11921TIP3   OH257177   6.373   6.182   4.557  0.3922 -0.1049 -0.4914
11921TIP3    H157178   6.398   6.103   4.605 -2.6395 -1.4509 -0.9037
11921TIP3    H257179   6.392   6.253   4.618 -0.2875 -1.4996  1.4658
11922TIP3   OH257180   4.385   2.117   2.366 -0.0709  0.3937  0.1748
11922TIP3    H157181   4.416   2.042   2.417 -0.1265 -1.2477 -2.0606
11922TIP3    H257182   4.290   2.109   2.367 -0.0589 -0.0099 -0.6199
11923TIP3   OH257183   1.601   3.372  14.210 -0.5051 -0.2815  0.8421
11923TIP3    H157184   1.532   3.330  14.260 -0.2612 -1.2791  0.3676
11923TIP3    H257185   1.589   3.340  14.121  0.6743 -0.6136  0.7909
11924TIP3   OH257186   5.369   4.671   3.165  1.7438  0.0184  0.3455
11924TIP3    H157187   5.331   4.748   3.125  2.3035  1.2510  2.0814
11924TIP3    H257188   5.426   4.705   3.235  2.4471 -1.9241  0.7945
11925TIP3   OH257189   4.768   6.375   6.499  0.2377 -0.5175 -0.2955
11925TIP3    H157190   4.674   6.394   6.489  0.5369  1.2781 -0.1172
11925TIP3    H257191   4.806   6.459   6.525  2.5579 -0.0108 -4.4968
11926TIP3   OH257192   1.757   0.319  15.276  0.2730 -0.4339  0.2271
11926TIP3    H157193   1.787   0.279  15.194  0.6621  0.4136 -0.0552
11926TIP3    H257194   1.712   0.248  15.322  0.5413 -1.0710 -0.4660
11927TIP3   OH257195   0.457   0.907   3.871 -0.5692  0.6342 -0.0266
11927TIP3    H157196   0.499   0.928   3.788  0.0071  1.0517  0.3676
11927TIP3    H257197   0.369   0.944   3.864  0.0810  2.2946  0.2536
11928TIP3   OH257198   1.190   5.806   0.522 -0.5051 -0.6557  0.2467
11928TIP3    H157199   1.179   5.711   0.529 -0.7853 -0.6496 -0.0966
11928TIP3    H257200   1.124   5.842   0.582  0.0008 -0.6850  0.8323
11929TIP3   OH257201   0.755   3.111  11.332  0.1732  0.2404  0.4583
11929TIP3    H157202   0.827   3.166  11.365  0.2581  0.9688 -0.8905
11929TIP3    H257203   0.798   3.046  11.277 -0.2277  1.1738 -1.0143
11930TIP3   OH257204   4.283   6.402  12.869 -0.5230  0.1339 -0.3639
11930TIP3    H157205   4.316   6.332  12.813  0.5718 -1.3360  1.9847
11930TIP3    H257206   4.357   6.464  12.875 -0.1252 -0.4220  0.5598
11931TIP3   OH257207   1.965   6.388   3.526 -1.0475  0.2890 -0.2822
11931TIP3    H157208   1.877   6.358   3.505 -1.0171  0.3209 -0.4500
11931TIP3    H257209   1.970   6.476   3.490 -1.4185  0.8261  0.9115
11932TIP3   OH257210   6.000   6.575   1.651 -0.2703 -0.2388  0.1318
11932TIP3    H157211   5.992   6.669   1.637  1.0837 -0.1213  0.0304
11932TIP3    H257212   6.057   6.567   1.728  1.6329 -0.9501 -1.2624
11933TIP3   OH257213   6.005   0.938  14.200  0.0884 -0.4406 -0.3222
11933TIP3    H157214   6.037   0.853  14.232 -0.4415 -0.3301  0.5407
11933TIP3    H257215   5.965   0.979  14.277  3.6295  2.2656  0.3178
11934TIP3   OH257216   4.738   4.593   0.585 -0.1204  0.1413  0.3190
11934TIP3    H157217   4.646   4.580   0.564 -0.0899 -2.2477  1.2866
11934TIP3    H257218   4.786   4.552   0.513  0.1109 -0.5688  0.8565
11935TIP3   OH257219   0.945   6.644   1.335 -0.0432 -0.3845  0.0372
11935TIP3    H157220   0.969   6.640   1.428 -1.7763  0.3054  0.5574
11935TIP3    H257221   0.957   6.736   1.312 -0.4581 -0.3796 -0.1669
11936TIP3   OH257222   2.481   5.998   4.147 -0.0792 -0.0084 -0.3911
11936TIP3    H157223   2.481   5.947   4.228 -1.3040  0.8291  0.1740
11936TIP3    H257224   2.400   6.048   4.151  1.1496  2.1563 -0.8018
11937TIP3   OH257225   6.337   2.012   3.940  0.8925 -0.0217 -0.2858
11937TIP3    H157226   6.403   1.942   3.944  1.6055  0.6026 -0.7494
11937TIP3    H257227   6.384   2.090   3.968  0.5017  0.5394 -1.1563
11938TIP3   OH257228   5.825   1.452   2.349  0.2193 -0.6180  0.3211
11938TIP3    H157229   5.864   1.534   2.381  1.1734 -1.6620  1.9787
11938TIP3    H257230   5.866   1.438   2.264 -2.2619  2.1620 -1.5518
11939TIP3   OH257231   1.455   0.767   5.784 -0.5261 -0.5719  0.3750
11939TIP3    H157232   1.534   0.800   5.827  0.4648 -0.2520 -1.5952
11939TIP3    H257233   1.393   0.754   5.856  0.3273  1.9008  1.6970
11940TIP3   OH257234   0.434   1.464  13.694  0.4798 -0.0568  0.0157
11940TIP3    H157235   0.395   1.387  13.735  0.1036  0.5579  0.8250
11940TIP3    H257236   0.529   1.448  13.697  0.3651 -1.8817 -2.5843
11941TIP3   OH257237   5.636   4.122  13.913  0.4484  0.3688  0.4505
11941TIP3    H157238   5.639   4.207  13.955  0.1621 -0.3442  1.9703
11941TIP3    H257239   5.616   4.141  13.821  2.1111  2.0290  0.3805
11942TIP3   OH257240   0.258   3.970  16.757 -0.5428 -0.0243  0.6317
11942TIP3    H157241   0.216   4.054  16.739 -0.9080  0.0253  1.6379
11942TIP3    H257242   0.197   3.926  16.816 -0.5732 -1.1967 -0.2477
11943TIP3   OH257243   4.776   1.297  15.002  0.9957  0.2242 -0.4525
11943TIP3    H157244   4.771   1.258  14.914  0.6004 -0.2938 -0.2028
11943TIP3    H257245   4.706   1.362  15.004  0.1793 -0.6383 -0.1019
11944TIP3   OH257246   0.390   4.902   5.080 -0.3000 -0.3455 -0.9516
11944TIP3    H157247   0.362   4.989   5.053  0.1343 -0.7425 -2.8355
11944TIP3    H257248   0.421   4.860   4.999  2.9709 -0.9764  0.4727
11945TIP3   OH257249   3.444   2.496   1.862 -0.0197 -0.0239  0.2837
11945TIP3    H157250   3.423   2.422   1.919 -0.3276  0.1388  0.3852
11945TIP3    H257251   3.518   2.539   1.906  0.7162 -0.7463 -0.2077
11946TIP3   OH257252   4.714   2.207  11.178  0.6114 -0.5038 -0.0508
11946TIP3    H157253   4.735   2.245  11.093  0.4087  0.5660  0.3564
11946TIP3    H257254   4.787   2.232  11.234 -0.1693  0.5102  0.5687
11947TIP3   OH257255   3.564   5.988  16.413  0.4979  0.0007 -0.5337
11947TIP3    H157256   3.553   6.005  16.506  2.0884 -1.1302 -0.1106
11947TIP3    H257257   3.521   6.063  16.370  0.8961  1.2302  1.1153
11948TIP3   OH257258   5.486   3.296   2.796  0.1861 -0.5810  0.4182
11948TIP3    H157259   5.500   3.246   2.716 -1.9461 -0.2297 -0.2274
11948TIP3    H257260   5.520   3.383   2.776 -0.0549 -0.5813 -0.0165
11949TIP3   OH257261   0.208   2.477  14.385  0.1207 -0.6018  0.2395
11949TIP3    H157262   0.242   2.546  14.328 -0.3491 -1.5615 -1.2501
11949TIP3    H257263   0.164   2.524  14.455  0.4878  0.6197 -0.3146
11950TIP3   OH257264   2.475   6.479   0.789 -0.0507 -0.6327  0.5669
11950TIP3    H157265   2.465   6.419   0.863 -1.4681  0.0948  1.0055
11950TIP3    H257266   2.488   6.422   0.714 -0.5205 -1.4568  1.0948
11951TIP3   OH257267   3.977   4.057  12.619  0.0037  0.1484  0.4925
11951TIP3    H157268   3.991   4.018  12.705 -1.4780 -0.7086  0.3849
11951TIP3    H257269   4.003   3.989  12.557  1.5554  0.9457  0.2256
11952TIP3   OH257270   5.438   1.589   3.907 -0.1403 -0.2131 -0.0363
11952TIP3    H157271   5.366   1.549   3.859  0.8440 -0.3689 -1.4227
11952TIP3    H257272   5.517   1.550   3.870  0.7134  0.7278  0.7298
11953TIP3   OH257273   1.355   5.289   2.765  0.2260 -0.5390 -0.0775
11953TIP3    H157274   1.418   5.220   2.744  0.6330 -0.6239  1.2999
11953TIP3    H257275   1.389   5.366   2.721  0.9873 -0.7238  0.1639
11954TIP3   OH257276   3.918   3.009   1.338  0.1856 -0.2098 -0.6043
11954TIP3    H157277   3.990   2.977   1.392  0.3985  2.0794  0.6108
11954TIP3    H257278   3.842   2.959   1.367  0.4776  0.3390  1.2267
11955TIP3   OH257279   4.532   1.674   2.328 -0.3868  0.0068  0.1114
11955TIP3    H157280   4.593   1.744   2.304 -1.1499  0.8765  0.6341
11955TIP3    H257281   4.482   1.658   2.248  0.0324 -0.1988 -0.1119
11956TIP3   OH257282   3.948   4.026   4.172  0.3685 -0.1374  0.0773
11956TIP3    H157283   3.891   4.099   4.197  2.4299  1.9909 -0.9569
11956TIP3    H257284   4.037   4.057   4.194  1.2345 -3.1051  1.2229
11957TIP3   OH257285   6.083   1.573   4.610  0.4545  0.0212 -0.3482
11957TIP3    H157286   6.020   1.501   4.616  0.7184 -0.2832 -1.0277
11957TIP3    H257287   6.167   1.532   4.631  0.5288  0.2503 -0.2044
11958TIP3   OH257288   0.400   5.263  16.074 -0.5482 -0.1073 -0.5947
11958TIP3    H157289   0.452   5.258  16.154 -0.7079 -0.5242 -0.5143
11958TIP3    H257290   0.457   5.307  16.011  1.2644 -3.5067 -1.5710
11959TIP3   OH257291   2.780   1.330   5.472  0.6017 -0.5528 -0.2329
11959TIP3    H157292   2.841   1.404   5.480 -1.5588  1.5032 -1.3313
11959TIP3    H257293   2.744   1.339   5.384 -1.6801 -1.2916  0.5574
11960TIP3   OH257294   0.735   6.315  12.388  0.3820 -0.1236  0.0892
11960TIP3    H157295   0.781   6.236  12.415  2.4400  0.7895 -0.5576
11960TIP3    H257296   0.735   6.313  12.293 -1.8415 -0.5498  0.0390
11961TIP3   OH257297   1.341   3.430  12.198 -0.3845  0.4357  0.4168
11961TIP3    H157298   1.285   3.486  12.253 -1.6858 -0.1138 -0.2957
11961TIP3    H257299   1.390   3.377  12.261 -2.5116 -0.8354  1.1238
11962TIP3   OH257300   1.762   4.041   3.920 -0.6513 -0.0795  0.0997
11962TIP3    H157301   1.689   4.075   3.868 -0.7597 -0.4661 -0.0027
11962TIP3    H257302   1.722   3.980   3.981 -0.4645  0.0279  0.3300
11963TIP3   OH257303   5.007   0.616   2.834  0.0496 -0.2592  0.1476
11963TIP3    H157304   4.957   0.698   2.836  0.7110  0.1402  1.0624
11963TIP3    H257305   4.940   0.547   2.837 -0.4843  0.2713  1.7897
11964TIP3   OH257306   4.761   0.361   1.295  0.3680 -0.4348 -0.0842
11964TIP3    H157307   4.744   0.270   1.272 -1.7990  0.2889 -1.7348
11964TIP3    H257308   4.694   0.382   1.361 -0.1476  0.3511 -0.8362
11965TIP3   OH257309   5.973   2.568   3.376  0.1857  0.4362  0.3564
11965TIP3    H157310   6.060   2.600   3.354 -0.3504  0.9313 -1.1947
11965TIP3    H257311   5.988   2.494   3.434  1.5426  2.0275  2.1949
11966TIP3   OH257312   2.939   5.726   6.358  0.0854  0.5985  0.4986
11966TIP3    H157313   2.908   5.814   6.381  0.0061  0.8677 -0.5599
11966TIP3    H257314   2.963   5.733   6.265  0.4414 -0.4013  0.5029
11967TIP3   OH257315   1.999   3.579   4.528 -0.2655 -0.4131 -0.0611
11967TIP3    H157316   2.090   3.549   4.531 -0.7571 -2.2107 -1.1182
11967TIP3    H257317   1.969   3.574   4.618  0.5221 -0.3751  0.2108
11968TIP3   OH257318   1.564   1.357  16.209  0.1098  0.5759 -0.1991
11968TIP3    H157319   1.557   1.345  16.304  0.8431 -0.4574 -0.2581
11968TIP3    H257320   1.619   1.434  16.198 -1.6183  1.9203  0.2030
11969TIP3   OH257321   1.196   0.195  13.614 -0.8183  0.7864  0.1024
11969TIP3    H157322   1.223   0.182  13.523 -0.0833 -1.8530  0.6105
11969TIP3    H257323   1.102   0.176  13.613 -0.4013 -1.5773  0.2067
11970TIP3   OH257324   6.006   6.694  16.979  0.2619 -0.0116  0.6456
11970TIP3    H157325   6.022   6.600  16.974 -0.4585 -0.1642  1.0280
11970TIP3    H257326   6.069   6.733  16.918  0.6064 -0.7324  0.5325
11971TIP3   OH257327   0.364   4.142  12.479  0.2688 -0.2244  0.0254
11971TIP3    H157328   0.358   4.046  12.484 -1.2924 -0.3089 -2.0532
11971TIP3    H257329   0.456   4.161  12.492  0.6649 -2.0458  0.1798
11972TIP3   OH257330   0.150   3.041  13.561 -0.3850 -0.7865 -0.2688
11972TIP3    H157331   0.224   2.987  13.590 -2.0377 -1.5157  3.1624
11972TIP3    H257332   0.104   2.987  13.497 -0.1250 -2.0284  0.5657
11973TIP3   OH257333   0.094   3.034  11.129 -0.2978  0.3443 -0.4512
11973TIP3    H157334   0.110   2.966  11.063  1.0452 -1.4800  1.6073
11973TIP3    H257335   0.167   3.095  11.119  0.3081 -0.3254 -0.1911
11974TIP3   OH257336   1.673   5.830  11.620 -0.4187  0.3487 -0.3341
11974TIP3    H157337   1.734   5.834  11.547  1.7210  1.1924  1.4091
11974TIP3    H257338   1.628   5.915  11.619 -0.2098  0.4561 -0.4985
11975TIP3   OH257339   3.947   2.952  13.799 -0.1290 -0.4487  0.2715
11975TIP3    H157340   3.948   3.016  13.870 -2.0575  0.3326 -0.3366
11975TIP3    H257341   3.874   2.893  13.821 -0.0696 -0.8274 -0.5172
11976TIP3   OH257342   3.167   0.831   1.000 -0.2881 -0.1646 -0.1662
11976TIP3    H157343   3.149   0.764   0.933  0.1194 -1.9551  1.4296
11976TIP3    H257344   3.235   0.885   0.961  0.7439 -1.8450 -0.8110
11977TIP3   OH257345   4.458   3.283   0.286 -0.3329  0.1721  0.1816
11977TIP3    H157346   4.386   3.343   0.270 -1.2043 -0.9625 -0.3008
11977TIP3    H257347   4.446   3.213   0.222  1.5383  0.2258 -0.3143
11978TIP3   OH257348   4.282   6.007  16.803  0.1986 -0.4861 -0.1875
11978TIP3    H157349   4.217   6.022  16.734 -1.5977  1.4025  1.7494
11978TIP3    H257350   4.264   5.919  16.834 -1.3678 -0.0923  0.1422
11979TIP3   OH257351   5.213   5.959   1.467  0.0800  0.3814  0.3897
11979TIP3    H157352   5.188   6.011   1.543 -0.1492  0.4125  0.2948
11979TIP3    H257353   5.131   5.919   1.437  0.0680  0.8101 -0.1739
11980TIP3   OH257354   0.650   3.763  12.602 -0.3788 -0.1261 -0.1903
11980TIP3    H157355   0.742   3.744  12.587 -0.0288 -0.7201  2.2499
11980TIP3    H257356   0.605   3.680  12.581 -0.3738  0.1253 -1.2523
11981TIP3   OH257357   2.604   2.021  14.807  0.3400 -0.0344 -0.3712
11981TIP3    H157358   2.603   1.959  14.879  0.3645  0.9554  0.4978
11981TIP3    H257359   2.519   2.010  14.764  0.4845 -0.9025 -0.4485
11982TIP3   OH257360   0.181   5.563  11.861  0.0903 -0.0653  0.4386
11982TIP3    H157361   0.211   5.477  11.888 -0.4777 -0.2284  0.5677
11982TIP3    H257362   0.261   5.614  11.848  0.3943  0.0518  2.5382
11983TIP3   OH257363   2.983   0.166   4.337 -0.7116  0.4910 -0.2744
11983TIP3    H157364   2.931   0.229   4.287 -3.1930 -1.9466 -1.0179
11983TIP3    H257365   3.074   0.187   4.315 -1.4474  3.3577 -0.9549
11984TIP3   OH257366   0.122   6.771  11.670 -0.2069  0.2797 -0.1768
11984TIP3    H157367   0.083   6.750  11.585  0.8383  0.7534 -0.8134
11984TIP3    H257368   0.112   6.692  11.722 -0.9057 -0.0077 -0.7316
11985TIP3   OH257369   4.679   2.901  17.127 -0.1128  0.8245  0.1731
11985TIP3    H157370   4.641   2.896  17.215  1.4370  0.2817  0.8526
11985TIP3    H257371   4.644   2.825  17.081  0.5077  0.0459  0.9520
11986TIP3   OH257372   3.860   3.285  15.620  0.8317  0.6710 -0.6154
11986TIP3    H157373   3.916   3.288  15.542 -0.7398 -0.5939 -1.8634
11986TIP3    H257374   3.850   3.377  15.646  3.3356  0.9470 -0.4120
11987TIP3   OH257375   0.872   4.699  14.740  0.3932 -0.3798 -0.2672
11987TIP3    H157376   0.793   4.645  14.741  0.8873 -1.1542 -1.5023
11987TIP3    H257377   0.864   4.753  14.662  0.2034  0.9476  0.6271
11988TIP3   OH257378   0.226   1.005   2.864 -0.5703  0.2350  0.0160
11988TIP3    H157379   0.280   0.998   2.786 -0.1784 -0.3844  0.3360
11988TIP3    H257380   0.159   1.070   2.841 -0.4502  0.0760 -0.8178
11989TIP3   OH257381   1.229   4.113   6.090 -0.5557 -0.0555  0.0236
11989TIP3    H157382   1.310   4.149   6.126  0.4004 -1.1797 -0.9320
11989TIP3    H257383   1.246   4.020   6.079 -1.9590 -0.3020 -0.2841
11990TIP3   OH257384   1.348   3.110   0.579 -0.6186 -0.3987 -0.1796
11990TIP3    H157385   1.402   3.072   0.510 -0.3865 -0.1819 -0.1217
11990TIP3    H257386   1.412   3.143   0.643 -0.8210 -0.1612 -0.0983
11991TIP3   OH257387   2.580   1.110  16.330 -0.1213 -0.0863  0.2476
11991TIP3    H157388   2.664   1.129  16.372 -0.5483 -0.0891  1.1176
11991TIP3    H257389   2.576   1.014  16.326  0.3444 -0.0737 -0.6840
11992TIP3   OH257390   0.232   2.364  16.522  0.4755 -0.2654 -0.1647
11992TIP3    H157391   0.177   2.292  16.551  0.3609 -0.2273 -0.2884
11992TIP3    H257392   0.308   2.322  16.482 -0.2092 -0.3306 -1.4467
11993TIP3   OH257393   4.301   4.800   0.117 -0.2705 -0.4260 -0.0185
11993TIP3    H157394   4.212   4.834   0.106 -0.2063 -0.0760  0.5055
11993TIP3    H257395   4.357   4.876   0.108 -0.1818 -0.1836  2.0762
11994TIP3   OH257396   2.372   2.558  13.535 -0.3830 -0.2501  0.3579
11994TIP3    H157397   2.416   2.577  13.617 -0.5088 -2.3783  0.9989
11994TIP3    H257398   2.438   2.513  13.482 -1.0381 -1.2295  0.3454
11995TIP3   OH257399   0.708   4.995   6.521  0.2438 -0.1174 -0.0657
11995TIP3    H157400   0.639   5.041   6.473 -0.9492 -2.3330 -0.6485
11995TIP3    H257401   0.737   5.057   6.587 -1.9326  1.1035 -0.1522
11996TIP3   OH257402   5.801   0.556  14.677  0.6615 -0.0166 -0.1622
11996TIP3    H157403   5.856   0.574  14.601  1.6383 -2.3877 -0.1049
11996TIP3    H257404   5.713   0.546  14.642  0.8599  0.3069 -0.7694
11997TIP3   OH257405   4.698   4.402  16.905 -0.1139  0.0079 -0.3103
11997TIP3    H157406   4.625   4.419  16.844 -0.3202 -0.5226 -0.2163
11997TIP3    H257407   4.758   4.346  16.855 -0.4019 -0.6317  0.0580
11998TIP3   OH257408   6.256   4.955   5.164 -0.1996  0.2399 -0.6918
11998TIP3    H157409   6.200   4.943   5.087 -0.1118 -0.3569 -0.6640
11998TIP3    H257410   6.287   5.045   5.156 -0.2880  0.2236 -1.2979
11999TIP3   OH257411   1.646   6.399  15.702  0.2483  0.1683  0.2933
11999TIP3    H157412   1.638   6.468  15.768 -1.8996  0.1386  0.1283
11999TIP3    H257413   1.662   6.320  15.753  2.6091  0.6940  0.4936
12000TIP3   OH257414   2.569   1.984   4.996 -0.2634  0.0934  0.0669
12000TIP3    H157415   2.561   2.069   5.039  0.8246  0.1458  0.1945
12000TIP3    H257416   2.533   1.997   4.908  0.7248  0.9460 -0.2322
12001TIP3   OH257417   0.106   4.529   3.335  0.3009  0.1642 -0.2049
12001TIP3    H157418   0.063   4.453   3.296  3.3971 -1.8822  0.0269
12001TIP3    H257419   0.059   4.543   3.417 -1.2806 -0.5428 -0.9515
12002TIP3   OH257420   3.116   4.735   4.975  0.2735  0.3156  0.4137
12002TIP3    H157421   3.078   4.804   4.920 -0.6850 -0.5370 -0.0225
12002TIP3    H257422   3.114   4.656   4.921  0.1022 -0.3553  1.3698
12003TIP3   OH257423   2.136   4.841   2.064  0.1845  0.5087 -0.6046
12003TIP3    H157424   2.096   4.828   1.977  0.7745  1.5793 -1.0624
12003TIP3    H257425   2.111   4.764   2.114  0.3174 -0.4159 -1.9156
12004TIP3   OH257426   4.070   0.839   2.217 -0.1189 -0.1799  0.0386
12004TIP3    H157427   4.052   0.894   2.293  2.9453 -0.6365  1.2313
12004TIP3    H257428   4.110   0.760   2.253 -0.4136 -1.2945 -1.9498
12005TIP3   OH257429   2.029   3.142  11.733  0.0915 -0.4171  0.4948
12005TIP3    H157430   1.937   3.157  11.754 -0.3273 -1.0593 -0.8301
12005TIP3    H257431   2.077   3.189  11.802 -1.2132  0.3060  0.9391
12006TIP3   OH257432   0.355   2.702   0.496  0.2689  0.3562 -0.7372
12006TIP3    H157433   0.296   2.745   0.433  1.3349  1.2450 -1.1557
12006TIP3    H257434   0.361   2.764   0.569 -0.5247 -0.4285  0.0217
12007TIP3   OH257435   0.221   3.180   2.372 -0.1013 -0.3481 -0.2098
12007TIP3    H157436   0.129   3.198   2.352 -0.6998 -1.0841  1.6345
12007TIP3    H257437   0.246   3.249   2.434  0.7706  0.1588 -1.1002
12008TIP3   OH257438   6.367   0.106   3.193  0.1477  0.2760  0.1390
12008TIP3    H157439   6.276   0.091   3.218  0.3552 -0.6455  0.3939
12008TIP3    H257440   6.385   0.197   3.220 -0.4747  0.2210  0.7730
12009TIP3   OH257441   5.575   0.823  13.800 -0.1153 -0.0036  0.6167
12009TIP3    H157442   5.646   0.867  13.847 -0.0376  1.9592 -1.1794
12009TIP3    H257443   5.500   0.826  13.860  0.4616  0.7993  1.3140
12010TIP3   OH257444   1.930   1.846   5.341 -0.2685 -0.6214  0.0700
12010TIP3    H157445   1.847   1.826   5.298 -0.4790  1.3379 -0.5092
12010TIP3    H257446   1.912   1.921   5.397  0.7037 -1.3211  1.3863
12011TIP3   OH257447   4.138   1.026  13.524 -0.6153  0.0997 -0.2664
12011TIP3    H157448   4.170   1.032  13.614 -1.1003 -1.2450  0.0185
12011TIP3    H257449   4.075   0.954  13.526 -0.3157 -0.2333 -1.7706
12012TIP3   OH257450   3.304   5.408   2.459 -0.4423  0.1669  0.6571
12012TIP3    H157451   3.273   5.453   2.537  1.6203  2.0257  0.5222
12012TIP3    H257452   3.381   5.459   2.431 -0.2835 -1.2414 -1.7783
12013TIP3   OH257453   5.472   0.775  17.220 -0.0739  0.4859  0.2626
12013TIP3    H157454   5.426   0.823  17.288  1.8508  3.2660 -0.2531
12013TIP3    H257455   5.553   0.746  17.261 -0.2802 -0.5764 -0.0302
12014TIP3   OH257456   4.025   5.999   5.170 -0.1666 -0.4074  0.1223
12014TIP3    H157457   4.014   5.939   5.244  0.7019  1.6557  2.0411
12014TIP3    H257458   3.943   6.048   5.166 -0.2228 -0.5346 -0.3235
12015TIP3   OH257459   0.741   6.551  15.677  0.0959  0.2335 -0.1697
12015TIP3    H157460   0.710   6.473  15.630 -0.4107  0.8829 -0.9450
12015TIP3    H257461   0.669   6.613  15.670  0.6306  0.9031  0.1332
12016TIP3   OH257462   3.425   1.722   3.219 -0.3049 -0.8124  0.3438
12016TIP3    H157463   3.481   1.744   3.293 -0.4552  1.0119 -0.0284
12016TIP3    H257464   3.479   1.738   3.142 -0.9971 -0.0334  0.0071
12017TIP3   OH257465   3.450   6.045   1.449 -0.3844 -0.2406 -0.2668
12017TIP3    H157466   3.423   5.961   1.488 -1.4000 -0.7819 -2.0249
12017TIP3    H257467   3.540   6.030   1.421 -0.0351 -0.2199  0.8082
12018TIP3   OH257468   6.683   4.447   4.275 -0.0004  0.1525  0.1364
12018TIP3    H157469   6.597   4.417   4.246  0.5309  0.0492 -1.4186
12018TIP3    H257470   6.731   4.366   4.295 -0.1014  0.1901  0.5425
12019TIP3   OH257471   0.217   0.484   6.481  0.1517  0.1032  0.2586
12019TIP3    H157472   0.239   0.392   6.499  1.7369  0.3908 -0.0244
12019TIP3    H257473   0.128   0.482   6.446  1.2363 -1.7200 -2.7963
12020TIP3   OH257474   5.970   5.631  10.894  0.2463  0.4410  0.4778
12020TIP3    H157475   5.925   5.569  10.837 -0.9194 -0.3568  2.1878
12020TIP3    H257476   5.940   5.717  10.866  0.0632  0.0968 -0.3993
12021TIP3   OH257477   1.057   6.334  12.973 -0.0805 -0.5629 -0.0705
12021TIP3    H157478   1.001   6.379  13.036  1.8394  0.5707  0.8896
12021TIP3    H257479   1.097   6.404  12.921  2.1954 -1.1313  0.7952
12022TIP3   OH257480   6.241   4.671  14.788 -0.2981  0.2434 -0.4695
12022TIP3    H157481   6.187   4.717  14.723  0.1796 -2.3434 -2.9108
12022TIP3    H257482   6.328   4.708  14.777 -0.2245 -0.1599 -1.3750
12023TIP3   OH257483   5.651   5.196   3.169  0.1944  0.0038  0.2173
12023TIP3    H157484   5.708   5.241   3.231  0.2099 -2.2755  1.9949
12023TIP3    H257485   5.695   5.113   3.150 -0.1823  0.2957 -2.3437
12024TIP3   OH257486   5.638   4.418   4.184  0.1405  0.1804 -0.7371
12024TIP3    H157487   5.700   4.365   4.234  0.2340 -0.4913 -1.5352
12024TIP3    H257488   5.663   4.404   4.093 -0.1656  1.2038 -0.9901
12025TIP3   OH257489   6.019   5.555  11.313  0.2074 -0.7614  0.0764
12025TIP3    H157490   6.009   5.471  11.268 -0.5049 -0.2830 -0.7119
12025TIP3    H257491   5.962   5.614  11.264 -0.3330 -0.1219  1.4224
12026TIP3   OH257492   5.215   5.829  12.809 -0.0028  0.1554  0.2717
12026TIP3    H157493   5.233   5.910  12.761 -1.6083  0.9758  0.9531
12026TIP3    H257494   5.139   5.791  12.764  0.8858 -1.1553 -0.1996
12027TIP3   OH257495   2.816   1.575   3.997 -0.0542 -0.2213 -0.1109
12027TIP3    H157496   2.766   1.656   4.001 -1.7644 -1.2553  0.9893
12027TIP3    H257497   2.778   1.527   3.923 -0.6611 -0.9730  0.6674
12028TIP3   OH257498   3.995   5.218  13.052  0.1620 -0.2774 -0.1707
12028TIP3    H157499   3.956   5.248  13.134 -0.3554 -0.7653 -0.2315
12028TIP3    H257500   4.038   5.135  13.074  0.4098 -0.1835 -0.2946
12029TIP3   OH257501   1.349   1.125  17.020  0.2868 -0.2056 -0.2761
12029TIP3    H157502   1.364   1.220  17.024  1.6992 -0.4124 -0.2974
12029TIP3    H257503   1.429   1.090  16.982 -1.3742 -1.1300 -3.2089
12030TIP3   OH257504   5.264   0.547  12.568 -0.1905  0.6902  0.1306
12030TIP3    H157505   5.286   0.570  12.478 -2.2682  4.2817  0.3132
12030TIP3    H257506   5.168   0.540  12.568 -0.1263 -0.8034  1.7918
12031TIP3   OH257507   0.490   3.676  14.228  0.2973 -0.3500 -0.0981
12031TIP3    H157508   0.430   3.620  14.178 -0.8982  0.5941  0.2210
12031TIP3    H257509   0.472   3.655  14.319  1.4950 -1.0751 -0.0116
12032TIP3   OH257510   6.258   3.688  16.757  0.0854  0.1994 -0.4624
12032TIP3    H157511   6.251   3.598  16.723 -0.7358 -0.1720  0.6366
12032TIP3    H257512   6.174   3.704  16.800  1.2744  0.4191  1.9198
12033TIP3   OH257513   1.849   1.506  17.293  0.0771  0.7317  0.1414
12033TIP3    H157514   1.922   1.445  17.301  0.6005  1.2396 -0.6604
12033TIP3    H257515   1.870   1.558  17.216 -1.4328  0.4762 -0.4755
12034TIP3   OH257516   1.342   6.132   2.114  0.1791  0.6667  0.0915
12034TIP3    H157517   1.315   6.132   2.206  1.2264  0.1099  0.4190
12034TIP3    H257518   1.319   6.219   2.082  0.8816  1.3046  1.2245
12035TIP3   OH257519   5.788   4.955   3.097 -0.0767 -0.4941 -0.2840
12035TIP3    H157520   5.856   4.979   3.033 -0.7817 -0.0394 -0.8700
12035TIP3    H257521   5.838   4.923   3.172  0.8446  1.0572 -0.1824
12036TIP3   OH257522   4.463   1.086   2.124  0.3681 -0.9419 -0.4667
12036TIP3    H157523   4.451   1.176   2.095 -0.1539 -0.0102  2.2803
12036TIP3    H257524   4.378   1.044   2.111 -0.1751 -0.2276  0.6467
12037TIP3   OH257525   4.163   0.400  11.911  0.7188 -0.3834  0.1983
12037TIP3    H157526   4.158   0.483  11.958  1.0759 -0.3695  0.2137
12037TIP3    H257527   4.074   0.365  11.915 -0.1742  1.3122 -2.2079
12038TIP3   OH257528   1.335   2.940  16.976 -0.0933  0.2425  0.1065
12038TIP3    H157529   1.254   2.987  16.959  0.6137  0.8045 -2.0345
12038TIP3    H257530   1.355   2.896  16.894  1.2627 -0.7152  0.9001
12039TIP3   OH257531   4.850   4.027  14.521 -0.3359 -0.1302  0.0979
12039TIP3    H157532   4.821   4.061  14.436 -1.2830  0.7837  0.7515
12039TIP3    H257533   4.936   4.066  14.535 -1.0365  1.3515  0.4367
12040TIP3   OH257534   2.665   5.904   2.648  0.4234  0.0699 -0.5815
12040TIP3    H157535   2.682   5.998   2.643  0.3089  0.2174  1.3185
12040TIP3    H257536   2.603   5.894   2.720 -2.6443 -1.1239 -3.1368
12041TIP3   OH257537   0.100   5.723  10.826  0.0830 -0.2234  0.2602
12041TIP3    H157538   0.095   5.655  10.894  0.9234  1.1985  1.8121
12041TIP3    H257539   0.180   5.772  10.847  0.6199 -0.0034 -2.0493
12042TIP3   OH257540   2.919   4.940   1.675  0.2733 -0.4452  0.3337
12042TIP3    H157541   2.960   4.854   1.660  0.0600 -0.7614  1.4475
12042TIP3    H257542   2.916   4.948   1.770  1.5638  1.4329  0.2594
12043TIP3   OH257543   5.249   2.885   4.433 -0.5861 -0.6165 -0.0030
12043TIP3    H157544   5.224   2.970   4.470  2.0772  0.3601 -0.2004
12043TIP3    H257545   5.244   2.825   4.507  2.3254  0.8307  1.5788
12044TIP3   OH257546   0.451   1.576   4.107 -0.1197  0.6946  0.1040
12044TIP3    H157547   0.484   1.666   4.104  1.6170  0.1508  1.2253
12044TIP3    H257548   0.398   1.573   4.187 -4.0996  1.8473 -2.2046
12045TIP3   OH257549   0.922   3.434   3.028 -0.2211 -0.0552  0.2375
12045TIP3    H157550   0.945   3.344   3.048  1.8170  0.6394  1.4319
12045TIP3    H257551   0.941   3.444   2.935  3.1818  0.0205  0.8125
12046TIP3   OH257552   5.447   5.929  14.912 -0.3186  0.0353  0.3408
12046TIP3    H157553   5.485   5.844  14.935 -1.7995 -0.7116  0.1629
12046TIP3    H257554   5.466   5.939  14.819  0.8313  0.4530  0.5985
12047TIP3   OH257555   2.253   5.758   1.373 -0.5321  0.1588 -0.0946
12047TIP3    H157556   2.192   5.687   1.397 -0.5130 -0.0806 -0.7368
12047TIP3    H257557   2.199   5.820   1.324 -0.3602  0.1819 -0.2520
12048TIP3   OH257558   1.039   6.644  12.264  0.2079  0.3044 -0.2412
12048TIP3    H157559   0.947   6.623  12.244  0.2587  0.1165 -0.2761
12048TIP3    H257560   1.050   6.733  12.231  0.3816 -0.1160 -1.3562
12049TIP3   OH257561   3.763   3.322  15.309  0.5626 -0.0101  0.3860
12049TIP3    H157562   3.697   3.329  15.377  0.5466  1.1812  0.2570
12049TIP3    H257563   3.763   3.229  15.285 -0.2196 -0.2301  1.2087
12050TIP3   OH257564   0.573   0.813   0.323  0.2933 -0.3993 -0.0250
12050TIP3    H157565   0.518   0.858   0.388 -0.3207 -0.3715 -0.5537
12050TIP3    H257566   0.638   0.879   0.298  1.0505 -0.6669  1.1481
12051TIP3   OH257567   3.939   2.924  17.286  0.0249  0.1713 -0.9991
12051TIP3    H157568   3.872   2.926  17.354 -0.9170 -0.5181 -1.8724
12051TIP3    H257569   3.896   2.965  17.210  0.7151  0.0223 -1.4730
12052TIP3   OH257570   3.512   1.773   2.944 -0.3765 -0.3737 -0.0522
12052TIP3    H157571   3.438   1.720   2.916 -0.1978  0.5001 -2.4696
12052TIP3    H257572   3.570   1.774   2.868  0.8554  1.1227  0.8540
12053TIP3   OH257573   1.822   5.943  11.860 -0.3216 -0.0455  0.2453
12053TIP3    H157574   1.801   6.032  11.886  0.8571  0.6503 -1.0176
12053TIP3    H257575   1.806   5.941  11.766  0.4600 -0.9132  0.1155
12054TIP3   OH257576   6.459   3.369  14.038  0.0838  0.6599 -0.2431
12054TIP3    H157577   6.398   3.339  14.106  2.6115  0.0721  1.9567
12054TIP3    H257578   6.507   3.290  14.013  1.6576  1.5022 -0.0063
12055TIP3   OH257579   2.747   0.858   2.402  0.3333  0.0666 -0.5259
12055TIP3    H157580   2.817   0.849   2.337 -0.7000  0.0888 -1.6762
12055TIP3    H257581   2.721   0.768   2.422 -0.0184  0.0753 -0.9149
12056TIP3   OH257582   5.142   4.008  15.991  0.2208 -0.4188 -0.6453
12056TIP3    H157583   5.077   4.019  16.061 -0.7628 -0.9083 -1.4559
12056TIP3    H257584   5.184   4.094  15.984  1.3248 -0.7097  1.4643
12057TIP3   OH257585   3.299   2.148   5.082  0.6139 -0.1680 -0.2810
12057TIP3    H157586   3.293   2.239   5.053 -2.8707 -0.2547 -0.2082
12057TIP3    H257587   3.302   2.153   5.177 -0.0018 -0.1266 -0.2618
12058TIP3   OH257588   4.920   6.673   1.416  0.4786  0.1666  0.1250
12058TIP3    H157589   4.880   6.630   1.341 -0.1232  1.6465 -0.4362
12058TIP3    H257590   4.888   6.624   1.492  0.2441 -0.6915 -0.5204
12059TIP3   OH257591   4.661   4.209   4.849 -0.4373 -0.1827  0.4406
12059TIP3    H157592   4.600   4.135   4.862 -0.5569 -0.1051  0.3297
12059TIP3    H257593   4.738   4.169   4.810 -0.1334 -0.3941  1.2376
12060TIP3   OH257594   5.815   2.410  14.572 -0.0155 -0.3463 -0.1791
12060TIP3    H157595   5.851   2.459  14.646  0.3225 -0.6349 -0.1466
12060TIP3    H257596   5.724   2.394  14.596  0.2955 -1.1079  0.5394
12061TIP3   OH257597   5.819   4.490   1.938 -0.5024 -0.5035 -0.0191
12061TIP3    H157598   5.912   4.504   1.919 -0.6448 -1.3328 -1.4480
12061TIP3    H257599   5.774   4.555   1.884 -0.7364  1.0196  1.8944
12062TIP3   OH257600   6.377   4.574   1.447  0.2215  0.3625 -0.4530
12062TIP3    H157601   6.443   4.582   1.378  0.0568  1.5165 -0.4878
12062TIP3    H257602   6.318   4.505   1.415 -0.2324  1.3289 -1.7994
12063TIP3   OH257603   5.661   6.724  14.439 -0.1469 -0.1036 -0.5834
12063TIP3    H157604   5.670   6.818  14.422 -0.1610 -0.1395 -0.7970
12063TIP3    H257605   5.567   6.709  14.446 -0.1090  0.0784  0.5266
12064TIP3   OH257606   2.013   4.446  15.564 -0.4952  0.0469  0.4448
12064TIP3    H157607   1.934   4.479  15.519  1.4815  5.0053 -0.0789
12064TIP3    H257608   2.068   4.411  15.494 -1.7163 -2.6531  0.7097
12065TIP3   OH257609   1.119   1.154   5.172  0.0524  0.0392  0.1506
12065TIP3    H157610   1.035   1.198   5.184 -0.8198 -1.4455 -0.2436
12065TIP3    H257611   1.170   1.177   5.249 -1.1236  0.0852  0.9303
12066TIP3   OH257612   3.223   1.810   4.142 -0.4289 -0.0440 -0.7569
12066TIP3    H157613   3.157   1.827   4.074 -0.8740  0.4153 -0.2243
12066TIP3    H257614   3.186   1.739   4.194 -1.5696  1.6421  0.8631
12067TIP3   OH257615   1.156   0.529  13.803  0.1445 -0.0555 -0.3041
12067TIP3    H157616   1.067   0.546  13.835 -0.8073  0.1757 -2.8517
12067TIP3    H257617   1.212   0.543  13.880 -2.0702 -1.2115  1.6503
12068TIP3   OH257618   4.952   5.724  16.924 -0.0091  0.1153  0.4497
12068TIP3    H157619   5.010   5.785  16.970  2.2567 -1.0503 -0.7165
12068TIP3    H257620   5.010   5.659  16.886 -1.9376 -0.1064 -2.4042
12069TIP3   OH257621   4.589   2.690   3.471 -0.3379 -0.6629  0.1101
12069TIP3    H157622   4.670   2.733   3.499 -0.2757 -1.6892  1.6214
12069TIP3    H257623   4.553   2.748   3.404  2.3757 -0.9125 -1.7072
12070TIP3   OH257624   0.295   5.690   2.233 -1.2169  0.0680 -0.1206
12070TIP3    H157625   0.320   5.602   2.204 -3.2003 -0.2767 -0.9883
12070TIP3    H257626   0.301   5.744   2.154  0.6589  0.9186  0.5528
12071TIP3   OH257627   3.944   4.909   1.513 -0.3061 -0.1186 -0.5706
12071TIP3    H157628   4.030   4.950   1.512 -0.1950 -0.3497 -0.6476
12071TIP3    H257629   3.940   4.860   1.430 -0.0899 -0.9690 -0.0890
12072TIP3   OH257630   1.276   0.623  15.138  0.3892 -0.3117  0.1746
12072TIP3    H157631   1.332   0.646  15.212 -1.2600 -0.2671  1.4696
12072TIP3    H257632   1.320   0.549  15.096  0.8526 -1.0448  1.8601
12073TIP3   OH257633   1.902   4.444   1.267  0.4498 -0.2103 -0.3109
12073TIP3    H157634   1.928   4.433   1.359 -1.9642 -1.9552  0.2576
12073TIP3    H257635   1.967   4.505   1.231  1.3729  0.6879  2.5864
12074TIP3   OH257636   4.367   5.426   1.176  0.3062  0.8721 -0.1309
12074TIP3    H157637   4.409   5.413   1.090 -1.4690 -0.3947 -0.8688
12074TIP3    H257638   4.275   5.402   1.161 -0.6404  3.2312  1.4982
12075TIP3   OH257639   2.942   3.411   1.547  0.3177 -0.2759  0.2850
12075TIP3    H157640   2.984   3.366   1.474  0.2294 -0.2246  0.2014
12075TIP3    H257641   3.003   3.401   1.620  0.2621 -0.6004  0.2888
12076TIP3   OH257642   3.836   4.613   3.690  0.1181  0.2825  0.2923
12076TIP3    H157643   3.809   4.677   3.624  0.2480  0.1091  0.0710
12076TIP3    H257644   3.780   4.631   3.766  0.9556  1.4514  0.6708
12077TIP3   OH257645   0.080   1.845  14.410 -0.4038  0.3253  0.3003
12077TIP3    H157646   0.079   1.757  14.373 -1.2837 -0.3306  1.7892
12077TIP3    H257647   0.172   1.866  14.421 -0.1635 -0.0223 -0.9207
12078TIP3   OH257648   2.212   5.109  15.278 -0.0889 -0.0130 -0.7060
12078TIP3    H157649   2.281   5.050  15.250  0.3222 -0.0105  0.2533
12078TIP3    H257650   2.193   5.082  15.368  0.3530  1.5297 -0.1201
12079TIP3   OH257651   3.581   5.460   2.852  0.0461 -0.4763 -0.5921
12079TIP3    H157652   3.630   5.450   2.770 -0.4848  1.1560 -1.1512
12079TIP3    H257653   3.646   5.442   2.920  0.7205 -1.0221 -1.3433
12080TIP3   OH257654   5.410   3.878   0.566  0.6208  0.3816 -0.1514
12080TIP3    H157655   5.403   3.790   0.603 -0.3380 -0.4901 -2.2827
12080TIP3    H257656   5.437   3.933   0.640 -1.9064 -1.0966  2.0229
12081TIP3   OH257657   2.449   6.084   3.044 -0.2810 -0.4345  0.1660
12081TIP3    H157658   2.480   6.172   3.065  0.9529 -0.6503 -0.6323
12081TIP3    H257659   2.387   6.062   3.114 -0.0862  0.7899  0.7429
12082TIP3   OH257660   0.462   3.356  15.082  0.9264  1.0166  0.1370
12082TIP3    H157661   0.554   3.329  15.078  0.4703 -0.6408  0.3145
12082TIP3    H257662   0.464   3.449  15.056  3.0859  2.1568  3.6151
12083TIP3   OH257663   0.764   1.166  13.662  0.2313  0.3202  0.0118
12083TIP3    H157664   0.769   1.164  13.758 -0.8201 -0.0476  0.0798
12083TIP3    H257665   0.841   1.119  13.633 -0.8395 -2.0332  0.7594
12084TIP3   OH257666   4.449   6.069   0.246 -0.1688 -0.3866 -0.0128
12084TIP3    H157667   4.487   6.155   0.266  0.4036 -0.7850  0.6333
12084TIP3    H257668   4.483   6.011   0.314 -1.4486 -0.8934  0.2223
12085TIP3   OH257669   4.201   3.047   4.413  0.1417 -0.4658 -0.7743
12085TIP3    H157670   4.150   2.996   4.475  0.4982  0.1098  0.0079
12085TIP3    H257671   4.139   3.068   4.343 -0.6781  0.0902  0.0870
12086TIP3   OH257672   2.426   1.741  14.467 -0.2749 -0.4770  0.4064
12086TIP3    H157673   2.385   1.655  14.477  0.5180 -1.0220 -0.8477
12086TIP3    H257674   2.475   1.735  14.385  1.0449  0.6742  1.0815
12087TIP3   OH257675   1.207   0.217   3.955  0.3614  0.1743 -0.0139
12087TIP3    H157676   1.116   0.245   3.963  0.5385  0.8090 -0.2067
12087TIP3    H257677   1.215   0.185   3.865  0.6269  1.2154 -0.3688
12088TIP3   OH257678   3.999   0.155   5.823 -0.7807  0.0535 -0.3296
12088TIP3    H157679   4.062   0.083   5.827 -1.1887 -0.2666  1.4267
12088TIP3    H257680   4.039   0.224   5.876 -0.7478  0.8561 -1.3621
12089TIP3   OH257681   3.510   5.473  16.442 -0.0508 -0.0544  0.0540
12089TIP3    H157682   3.456   5.482  16.520 -0.3879 -0.1328 -0.1706
12089TIP3    H257683   3.483   5.389  16.404 -1.8438  1.2076 -1.6400
12090TIP3   OH257684   1.020   5.447   5.485  0.3089  0.3557  0.2423
12090TIP3    H157685   1.078   5.521   5.467  0.2585  0.1656 -0.7693
12090TIP3    H257686   1.070   5.370   5.455  0.0321  0.0602  0.5306
12091TIP3   OH257687   4.133   4.833   1.925 -0.0427 -0.0551 -0.2985
12091TIP3    H157688   4.140   4.764   1.860  0.3990 -0.8910  0.6142
12091TIP3    H257689   4.199   4.812   1.990  0.6083  1.6335 -0.3507
12092TIP3   OH257690   2.561   5.504   6.329  0.3813 -0.0004  0.1844
12092TIP3    H157691   2.564   5.571   6.260  2.2315 -1.3464 -1.1543
12092TIP3    H257692   2.597   5.547   6.406  0.7683  0.7889 -0.4198
12093TIP3   OH257693   0.541   0.379  11.774 -0.4130  0.2317 -0.4370
12093TIP3    H157694   0.494   0.377  11.858  2.5649 -1.4893  1.3895
12093TIP3    H257695   0.554   0.472  11.756  0.3078  0.6965  1.9850
12094TIP3   OH257696   5.698   0.139  11.102  0.2704 -0.1492 -0.1597
12094TIP3    H157697   5.705   0.045  11.120  0.8237 -0.3898 -1.5317
12094TIP3    H257698   5.753   0.180  11.169  1.0171 -0.8954 -0.3000
12095TIP3   OH257699   2.385   2.682  15.627  0.7942 -0.1845  0.3001
12095TIP3    H157700   2.351   2.600  15.593 -2.1834  0.7686  0.7258
12095TIP3    H257701   2.352   2.688  15.717  1.9239  0.9465  0.6817
12096TIP3   OH257702   2.313   3.334   4.129 -0.9061  0.2871  0.5839
12096TIP3    H157703   2.238   3.275   4.126 -0.7369  0.0699  0.5861
12096TIP3    H257704   2.276   3.421   4.115 -0.9788  0.0249 -1.1587
12097TIP3   OH257705   3.458   1.732   4.255 -0.2911  0.2995  0.2470
12097TIP3    H157706   3.519   1.686   4.197  0.7128  0.9454  0.7680
12097TIP3    H257707   3.390   1.765   4.197  1.2201  1.8119 -0.7577
12098TIP3   OH257708   1.359   4.150   2.487 -0.3633 -0.4342 -0.1640
12098TIP3    H157709   1.269   4.118   2.481 -0.3425 -1.0166  2.0688
12098TIP3    H257710   1.411   4.072   2.506  0.0940  0.3926  2.2232
12099TIP3   OH257711   6.031   3.029  12.578  0.4704  0.1123 -0.2460
12099TIP3    H157712   6.040   2.936  12.556  0.1514 -0.1332  0.6142
12099TIP3    H257713   6.052   3.034  12.671  0.9078  0.9786 -0.3760
12100TIP3   OH257714   1.540   6.080  11.646  0.1133  0.2561 -0.8439
12100TIP3    H157715   1.548   6.163  11.694 -1.0151  0.9089 -1.7292
12100TIP3    H257716   1.451   6.049  11.667  0.1812 -0.2504 -1.2753
12101TIP3   OH257717   5.865   1.815  12.601  0.6542  0.2747 -0.2392
12101TIP3    H157718   5.940   1.797  12.657 -0.0685 -0.8369  0.4083
12101TIP3    H257719   5.863   1.911  12.594  1.0035  0.4154  1.3131
12102TIP3   OH257720   3.410   6.027   3.986  0.2926 -0.3760  0.6227
12102TIP3    H157721   3.455   6.110   3.970 -0.6590 -0.0617 -0.5825
12102TIP3    H257722   3.321   6.041   3.954 -0.1438 -1.5868  1.2123
12103TIP3   OH257723   6.578   2.718   2.655 -0.5241 -0.0005 -0.0900
12103TIP3    H157724   6.578   2.676   2.569  0.4366  1.1969 -0.7104
12103TIP3    H257725   6.668   2.750   2.666 -0.7938  0.3958  1.0973
12104TIP3   OH257726   0.792   4.499  14.243 -0.1612  0.0230 -0.2683
12104TIP3    H157727   0.711   4.501  14.192  1.5330 -1.3295 -3.2657
12104TIP3    H257728   0.832   4.584  14.229  0.1415 -0.2280 -0.9551
12105TIP3   OH257729   0.915   5.383   2.820  0.7907  0.0846  0.5078
12105TIP3    H157730   0.994   5.378   2.767  0.8059  0.6264  0.4703
12105TIP3    H257731   0.901   5.477   2.834  0.1417  0.0005  0.4874
12106TIP3   OH257732   0.363   5.954  11.784  0.1020 -0.7147  0.0954
12106TIP3    H157733   0.393   5.877  11.832  0.4513  0.7426  2.3241
12106TIP3    H257734   0.426   5.964  11.712 -0.4382 -2.9315 -0.7678
12107TIP3   OH257735   1.839   4.332  16.718  0.6214  0.3443 -0.2802
12107TIP3    H157736   1.888   4.294  16.645 -0.7799  1.0395 -1.6426
12107TIP3    H257737   1.769   4.269  16.735 -0.2653  1.1283 -0.9282
12108TIP3   OH257738   4.126   2.406   5.475  0.1780 -0.0672  0.5469
12108TIP3    H157739   4.092   2.453   5.399  0.3100 -2.7194 -1.2476
12108TIP3    H257740   4.048   2.366   5.516  0.4250 -1.1378 -0.0037
12109TIP3   OH257741   3.458   3.474  17.006 -0.1821  0.1609  0.6882
12109TIP3    H157742   3.368   3.504  17.010  0.0744  0.8636  2.3032
12109TIP3    H257743   3.453   3.385  16.970 -1.2857  0.9048 -1.1400
12110TIP3   OH257744   0.765   0.457   3.729 -0.4477  0.0374 -0.3482
12110TIP3    H157745   0.681   0.413   3.744 -2.2777  3.5862  0.7684
12110TIP3    H257746   0.759   0.538   3.778  3.0505  1.1996 -1.5590
12111TIP3   OH257747   4.197   0.018  14.893  0.1181  0.2870 -0.3556
12111TIP3    H157748   4.209   0.038  14.800  0.1658 -0.3308 -0.4847
12111TIP3    H257749   4.285   0.015  14.929  0.4457 -3.2222 -1.0921
12112TIP3   OH257750   5.247   4.485  16.224 -0.3420  0.5569 -0.2357
12112TIP3    H157751   5.338   4.513  16.231 -0.3255  0.5016 -0.2295
12112TIP3    H257752   5.218   4.521  16.139 -0.5065  1.1208  0.0526
12113TIP3   OH257753   0.107   5.537  12.150  0.4814  0.2487  0.0341
12113TIP3    H157754   0.140   5.474  12.086  3.9261 -0.5273  2.2849
12113TIP3    H257755   0.082   5.483  12.225  0.8035  1.3804  0.9696
12114TIP3   OH257756   0.215   0.197  13.866 -0.3379  0.1597 -0.5008
12114TIP3    H157757   0.147   0.168  13.927  0.4732  0.0439  0.3842
12114TIP3    H257758   0.297   0.183  13.914  0.3090  0.2720 -1.5493
12115TIP3   OH257759   5.112   1.432  14.552 -0.0832  0.5947  0.4565
12115TIP3    H157760   5.027   1.434  14.509 -0.1786 -1.1223  0.4989
12115TIP3    H257761   5.170   1.480  14.493 -1.1877  2.3676  0.7540
12116TIP3   OH257762   6.464   4.743   0.342  0.1758 -0.2370  0.3694
12116TIP3    H157763   6.387   4.730   0.286  0.7575 -0.3748 -0.4088
12116TIP3    H257764   6.516   4.809   0.297 -0.0757  0.7867  1.5239
12117TIP3   OH257765   3.073   3.686  15.732 -0.2942 -0.4486  0.1473
12117TIP3    H157766   3.131   3.730  15.794  0.4300 -0.1330 -0.7229
12117TIP3    H257767   3.035   3.614  15.782  2.7860 -2.2615  0.1797
12118TIP3   OH257768   1.420   1.219   1.794  0.2818  0.1496 -0.2115
12118TIP3    H157769   1.515   1.228   1.788  0.2797  2.4795  1.6741
12118TIP3    H257770   1.393   1.287   1.857 -2.6878 -0.0821 -1.0656
12119TIP3   OH257771   3.815   3.969   4.891  0.3371 -0.0041  0.2472
12119TIP3    H157772   3.818   3.973   4.986  3.0829  1.0324  0.1747
12119TIP3    H257773   3.747   3.903   4.873 -1.8306  1.3377  2.8066
12120TIP3   OH257774   5.723   3.529  12.189 -0.2667  0.2403  0.2102
12120TIP3    H157775   5.715   3.622  12.171 -1.6641  0.2661  0.8976
12120TIP3    H257776   5.764   3.493  12.110  1.7586  1.6325  0.5328
12121TIP3   OH257777   1.944   1.448  13.626  0.2889  0.2201  0.4261
12121TIP3    H157778   1.970   1.356  13.633  2.2843  0.6312 -0.9719
12121TIP3    H257779   2.026   1.497  13.633 -0.3153  1.7247 -2.0258
12122TIP3   OH257780   4.289   4.398  13.854 -0.5125  0.4605 -0.0600
12122TIP3    H157781   4.339   4.424  13.776  0.4808 -1.1858 -0.0236
12122TIP3    H257782   4.305   4.468  13.917  0.2588  0.8652 -0.6806
12123TIP3   OH257783   5.185   1.014  13.757  0.0602  0.3418 -0.6246
12123TIP3    H157784   5.098   1.028  13.718 -0.2280  0.9974  0.2218
12123TIP3    H257785   5.184   1.066  13.837  1.1903  0.2333 -0.5254
12124TIP3   OH257786   3.167   0.150   6.562 -0.0671 -0.6874  0.0432
12124TIP3    H157787   3.139   0.241   6.559 -0.6930 -0.8902 -0.4370
12124TIP3    H257788   3.244   0.146   6.505  0.0128 -0.4434  0.1344
12125TIP3   OH257789   6.232   0.689   5.692 -0.2724 -0.8413 -0.5738
12125TIP3    H157790   6.276   0.772   5.709 -0.2540 -1.0151  0.2790
12125TIP3    H257791   6.282   0.649   5.621  0.3392 -0.5838 -0.2966
12126TIP3   OH257792   1.263   3.975  11.513  0.0149 -0.5851  0.1054
12126TIP3    H157793   1.275   3.907  11.579  0.2902 -0.6829 -0.0409
12126TIP3    H257794   1.345   3.973  11.463  0.1443  0.0555  0.2893
12127TIP3   OH257795   1.417   2.994   1.653  0.6844 -0.5429  0.2194
12127TIP3    H157796   1.445   2.943   1.729 -0.5084 -1.0581  0.3385
12127TIP3    H257797   1.330   3.027   1.677  0.9796  0.6705 -0.2761
12128TIP3   OH257798   6.103   1.479   1.890  0.3062 -0.5232  0.4599
12128TIP3    H157799   6.172   1.421   1.921  0.1989 -0.9816 -0.1565
12128TIP3    H257800   6.081   1.447   1.803 -1.1048 -0.7494  0.8738
12129TIP3   OH257801   4.436   1.672   3.250 -0.4808  0.0898 -0.2329
12129TIP3    H157802   4.390   1.590   3.269  0.2260 -1.3036 -3.7313
12129TIP3    H257803   4.520   1.664   3.295 -0.4484 -1.1083 -0.4836
12130TIP3   OH257804   2.014   0.413   1.175 -0.0974  0.1882  0.0329
12130TIP3    H157805   1.963   0.454   1.106 -1.1803  0.1407  0.7743
12130TIP3    H257806   1.972   0.328   1.190  2.2835 -1.4510 -1.7056
12131TIP3   OH257807   0.773   3.810  16.042  0.6415 -0.0836  0.1384
12131TIP3    H157808   0.763   3.737  15.981  0.1525 -0.0113  0.1266
12131TIP3    H257809   0.684   3.844  16.054  0.9536  1.0422 -0.5274
12132TIP3   OH257810   3.076   6.319   4.971  0.2762  0.1981  0.0021
12132TIP3    H157811   3.000   6.338   4.916 -0.7561 -2.0269  0.5208
12132TIP3    H257812   3.116   6.242   4.930  0.2413 -0.7102  1.5972
12133TIP3   OH257813   6.121   0.673  12.897 -0.0678  0.2284 -0.3377
12133TIP3    H157814   6.109   0.578  12.901  1.1086 -0.0845 -2.6230
12133TIP3    H257815   6.139   0.699  12.988  0.0462 -1.7886  0.2572
12134TIP3   OH257816   3.048   3.839  12.571  0.1302  0.2457  0.2993
12134TIP3    H157817   3.071   3.863  12.481 -0.6243 -1.2485 -0.3345
12134TIP3    H257818   3.104   3.765  12.592 -2.0028 -1.6631 -0.2705
12135TIP3   OH257819   1.524   5.334  15.859  0.2108 -0.4054 -0.0551
12135TIP3    H157820   1.452   5.324  15.797  1.1380 -2.2448 -0.8888
12135TIP3    H257821   1.483   5.321  15.945 -0.6904 -0.0053 -0.4064
12136TIP3   OH257822   5.266   6.618  15.967  0.1451 -0.5333  0.1850
12136TIP3    H157823   5.346   6.601  16.017  0.7827  0.8059 -0.3323
12136TIP3    H257824   5.257   6.713  15.968 -0.6751 -0.5786 -0.9435
12137TIP3   OH257825   4.159   0.814   5.407  0.0824  0.5186 -0.4293
12137TIP3    H157826   4.210   0.735   5.389  0.7292  1.0918 -1.1429
12137TIP3    H257827   4.082   0.806   5.350  1.4894  1.6984 -2.6248
12138TIP3   OH257828   5.723   3.001  11.480  0.6045  0.2095  1.0975
12138TIP3    H157829   5.703   2.909  11.497  1.1913 -0.3993 -1.1352
12138TIP3    H257830   5.639   3.039  11.452  1.0817 -0.8050 -2.1790
12139TIP3   OH257831   2.346   5.274   0.419 -0.3715  0.2846  0.3567
12139TIP3    H157832   2.410   5.346   0.426  0.3939 -0.0445 -2.3669
12139TIP3    H257833   2.400   5.195   0.419 -0.9876 -0.1383  0.3637
12140TIP3   OH257834   6.647   3.560  14.697  0.4310  0.1796 -0.1446
12140TIP3    H157835   6.573   3.506  14.726  0.1334  0.7751  0.2140
12140TIP3    H257836   6.671   3.524  14.611  0.5134 -0.7944  0.2672
12141TIP3   OH257837   2.118   3.796  16.772  0.0788  0.2778  0.0664
12141TIP3    H157838   2.070   3.745  16.837  0.6244  0.4421  0.6079
12141TIP3    H257839   2.200   3.818  16.815  0.8046 -0.3092 -0.9783
12142TIP3   OH257840   6.135   3.327   3.810 -0.3483  0.0277 -0.1664
12142TIP3    H157841   6.094   3.274   3.741  0.7133 -2.6579  1.1051
12142TIP3    H257842   6.228   3.323   3.791 -0.1928  0.7863  0.4130
12143TIP3   OH257843   5.133   0.358   3.306  0.3691  0.4073 -0.4015
12143TIP3    H157844   5.171   0.444   3.291 -1.4218  1.1097 -1.1360
12143TIP3    H257845   5.038   0.371   3.299  0.0815 -1.9668 -2.5568
12144TIP3   OH257846   3.983   5.078   2.851 -0.0283 -0.2282  0.0399
12144TIP3    H157847   3.958   4.988   2.871  2.0326 -1.5784 -2.7873
12144TIP3    H257848   3.927   5.102   2.777 -0.9270  1.0535  1.1053
12145TIP3   OH257849   6.007   1.914  16.413 -0.6766 -0.4799  0.0709
12145TIP3    H157850   6.026   1.865  16.493 -1.2184 -1.5626 -0.4381
12145TIP3    H257851   6.091   1.919  16.367 -0.5667 -0.7306  0.2440
12146TIP3   OH257852   6.281   6.086   3.401  0.0765 -0.3431 -0.0058
12146TIP3    H157853   6.377   6.085   3.398  0.1579  2.1207 -0.0200
12146TIP3    H257854   6.261   6.109   3.492 -0.3890  1.4942 -0.5320
12147TIP3   OH257855   1.043   4.535  13.431 -0.1880 -0.4172  0.3360
12147TIP3    H157856   0.958   4.578  13.417  0.1749  0.4835  0.8070
12147TIP3    H257857   1.055   4.538  13.526  1.4562  1.6858  0.1351
12148TIP3   OH257858   6.614   0.467  11.788  0.3072  0.3108 -0.7783
12148TIP3    H157859   6.653   0.442  11.704  1.1181  1.5614 -0.7944
12148TIP3    H257860   6.605   0.562  11.784  0.6348  0.4365  0.6448
12149TIP3   OH257861   2.355   1.603  11.529 -0.8280  0.3393  0.0660
12149TIP3    H157862   2.354   1.517  11.571  0.1324  0.1130 -0.3560
12149TIP3    H257863   2.437   1.605  11.479 -1.8342  0.6800 -1.6356
12150TIP3   OH257864   0.740   4.116  11.776 -0.2932  0.3504 -0.4138
12150TIP3    H157865   0.674   4.182  11.799  0.0003  0.2615  0.7796
12150TIP3    H257866   0.810   4.166  11.734 -0.0994  0.8179  0.4263
12151TIP3   OH257867   4.033   6.429  12.750  0.4840  0.0426  0.6894
12151TIP3    H157868   4.125   6.435  12.777  0.7579  0.0960 -0.2452
12151TIP3    H257869   3.994   6.510  12.783  0.4266 -0.5941  2.3117
12152TIP3   OH257870   3.077   1.210   3.493 -0.1769  0.6212 -0.0644
12152TIP3    H157871   3.142   1.171   3.551 -0.8948  1.2139  1.1844
12152TIP3    H257872   3.045   1.136   3.440 -0.4141 -0.2122  1.1916
12153TIP3   OH257873   0.409   6.059  13.086  0.4312 -0.1846 -0.3301
12153TIP3    H157874   0.503   6.072  13.103  0.3007  0.4091 -0.0578
12153TIP3    H257875   0.366   6.101  13.160 -0.0215 -1.7733  0.3693
12154TIP3   OH257876   4.418   6.626   4.127 -0.1184 -0.0011  0.4348
12154TIP3    H157877   4.395   6.533   4.128  0.4146 -0.1307  0.8031
12154TIP3    H257878   4.448   6.645   4.215 -0.9509  0.7153  0.5885
12155TIP3   OH257879   0.192   1.860   5.171  0.2364 -0.3035 -0.0604
12155TIP3    H157880   0.109   1.858   5.219  0.6910  0.6560  0.7928
12155TIP3    H257881   0.178   1.801   5.097 -2.2299  1.9154 -1.5495
12156TIP3   OH257882   3.863   4.485   0.741 -0.1934  0.3519  0.4831
12156TIP3    H157883   3.867   4.562   0.798 -2.7659  0.8099  0.1428
12156TIP3    H257884   3.907   4.512   0.660  1.7344  0.3420  1.4566
12157TIP3   OH257885   3.373   1.332  15.856  0.0704  0.2298  0.0829
12157TIP3    H157886   3.395   1.276  15.782  0.0130 -0.3289  0.4811
12157TIP3    H257887   3.456   1.345  15.903  0.1989  0.9701 -0.3329
12158TIP3   OH257888   3.246   6.343   3.414  0.4201 -0.2800  0.0384
12158TIP3    H157889   3.254   6.373   3.323 -0.1927  0.1072  0.1062
12158TIP3    H257890   3.256   6.248   3.408 -1.7853 -0.5372 -0.7568
12159TIP3   OH257891   5.156   1.186   0.586 -0.5339 -0.1769 -0.2725
12159TIP3    H157892   5.069   1.166   0.620 -0.3001 -0.8241 -0.0279
12159TIP3    H257893   5.183   1.106   0.540 -0.0474 -0.0109 -0.2842
12160TIP3   OH257894   5.691   0.944   1.731  0.4755  0.3449 -0.8949
12160TIP3    H157895   5.725   0.960   1.643  0.0539  0.4941 -1.0371
12160TIP3    H257896   5.763   0.967   1.789  0.3892  1.3456 -1.1618
12161TIP3   OH257897   5.785   1.047   1.087  0.0660  0.1295 -0.2880
12161TIP3    H157898   5.851   1.016   1.148 -1.1218 -0.6770  0.6334
12161TIP3    H257899   5.810   1.137   1.068  0.7137  0.2514  1.0297
12162TIP3   OH257900   1.453   1.529   6.258  0.2682  1.0608 -0.3014
12162TIP3    H157901   1.527   1.495   6.207 -0.0434 -0.1821  0.0464
12162TIP3    H257902   1.381   1.534   6.195 -0.3077 -1.1266  0.1040
12163TIP3   OH257903   0.336   1.234   3.943 -0.0621 -0.3479  0.4262
12163TIP3    H157904   0.295   1.157   3.903  0.4126 -0.6356  0.4869
12163TIP3    H257905   0.430   1.220   3.930  0.1089  2.7699 -4.4775
12164TIP3   OH257906   4.275   5.900  11.463 -0.2601 -0.3546  0.5007
12164TIP3    H157907   4.226   5.932  11.388  0.1859 -1.0863 -0.1153
12164TIP3    H257908   4.348   5.961  11.472 -0.0698 -0.5215  0.0686
12165TIP3   OH257909   5.988   3.329  11.178  0.3518  0.2455  0.2195
12165TIP3    H157910   6.013   3.249  11.131  0.2370  0.2236  0.1941
12165TIP3    H257911   5.901   3.310  11.213 -0.0844  0.6932 -0.5827
12166TIP3   OH257912   3.751   0.983  11.676  0.8211  0.2217 -0.4952
12166TIP3    H157913   3.844   0.994  11.700  1.1841  0.0412 -1.7418
12166TIP3    H257914   3.747   1.013  11.585 -0.0491 -1.1524 -0.9253
12167TIP3   OH257915   4.764   1.951  16.390 -0.5513 -0.8244 -0.2487
12167TIP3    H157916   4.842   1.985  16.347 -0.4103  0.2041  0.7640
12167TIP3    H257917   4.698   1.944  16.320 -0.3744  0.9213 -0.6304
12168TIP3   OH257918   2.051   1.105  16.865 -0.2148 -0.2078 -0.2771
12168TIP3    H157919   2.095   1.189  16.849  0.9342 -0.9188 -0.9982
12168TIP3    H257920   2.051   1.061  16.779 -2.8562 -0.0276 -0.4393
12169TIP3   OH257921   0.846   1.037  16.745  0.1044  0.3439  0.4446
12169TIP3    H157922   0.811   1.043  16.833  1.0480 -0.1480  0.8750
12169TIP3    H257923   0.770   1.038  16.688 -0.4729  1.5791  1.2122
12170TIP3   OH257924   6.210   1.161  15.225 -0.3871  0.3755 -0.2127
12170TIP3    H157925   6.203   1.232  15.288  0.5954 -0.3901  0.8097
12170TIP3    H257926   6.123   1.155  15.185 -0.6871  1.6444  0.2171
12171TIP3   OH257927   4.178   2.786  14.961 -0.8693  0.0838 -0.6239
12171TIP3    H157928   4.134   2.870  14.969  0.0335  0.5285 -0.2231
12171TIP3    H257929   4.217   2.770  15.047 -0.4593 -0.4131 -0.8950
12172TIP3   OH257930   4.011   2.279   1.020 -0.2843 -0.0738 -0.2327
12172TIP3    H157931   4.043   2.294   0.931  1.0435 -1.1136  0.0196
12172TIP3    H257932   3.984   2.365   1.051  4.0738  1.4488  0.1224
12173TIP3   OH257933   3.100   3.638   3.806 -0.3096  0.4997  0.1531
12173TIP3    H157934   3.067   3.563   3.855  0.2448 -0.0087 -0.2302
12173TIP3    H257935   3.076   3.714   3.859 -1.2307  0.0867  0.3501
12174TIP3   OH257936   1.800   0.424  12.971  0.5455 -0.8796  0.0376
12174TIP3    H157937   1.715   0.398  13.006  0.9430 -3.1257 -0.5231
12174TIP3    H257938   1.780   0.465  12.887 -0.0254 -0.6913  0.2615
12175TIP3   OH257939   0.344   3.217   0.218 -0.5627 -0.8427 -0.2001
12175TIP3    H157940   0.252   3.193   0.212 -0.9575  0.2963  1.0059
12175TIP3    H257941   0.390   3.133   0.221 -1.7636 -1.5139  1.8229
12176TIP3   OH257942   1.947   4.751  17.166  0.0624  0.4356 -0.2808
12176TIP3    H157943   2.027   4.700  17.154 -1.6500 -2.6996  0.3743
12176TIP3    H257944   1.968   4.815  17.234  1.3949 -2.0965  1.8926
12177TIP3   OH257945   1.814   2.214   0.590 -0.0603  0.2353 -0.2191
12177TIP3    H157946   1.738   2.170   0.552 -1.0307  1.1293  0.6140
12177TIP3    H257947   1.877   2.218   0.519 -0.5953 -0.9738 -0.7915
12178TIP3   OH257948   1.071   2.988   0.375 -1.1563 -0.5254 -0.2432
12178TIP3    H157949   1.084   2.893   0.373 -2.4716 -0.7317 -0.5258
12178TIP3    H257950   1.056   3.012   0.284  0.5124  0.1854 -0.3471
12179TIP3   OH257951   2.308   5.612  15.176 -0.2119 -0.1481 -0.0718
12179TIP3    H157952   2.240   5.678  15.192  1.4584  1.8704 -0.7287
12179TIP3    H257953   2.389   5.654  15.205  0.8464 -2.2773  0.2381
12180TIP3   OH257954   2.908   6.333   6.018 -0.1846  0.0253 -0.6965
12180TIP3    H157955   2.984   6.362   5.967 -0.1807 -0.7676 -1.1562
12180TIP3    H257956   2.944   6.275   6.084 -0.3130  0.2306 -0.4425
12181TIP3   OH257957   0.070   3.491  11.131 -0.3108 -0.3548  0.1521
12181TIP3    H157958   0.002   3.485  11.197  0.4965 -2.3546  0.8924
12181TIP3    H257959   0.140   3.434  11.164  1.1241  0.5219 -1.2547
12182TIP3   OH257960   5.293   4.579   2.486  0.3947 -0.3247 -0.0930
12182TIP3    H157961   5.362   4.545   2.430  0.4282 -0.8322  0.2480
12182TIP3    H257962   5.327   4.663   2.518 -0.9959  1.7149 -3.4737
12183TIP3   OH257963   1.683   3.292  12.993  0.2207 -0.1323 -0.1505
12183TIP3    H157964   1.725   3.377  12.979 -1.0254  0.5076 -0.1974
12183TIP3    H257965   1.635   3.276  12.912  1.1317 -1.3236 -0.4824
12184TIP3   OH257966   6.118   1.398  17.300 -0.8267 -0.3760  0.1392
12184TIP3    H157967   6.140   1.381  17.391  0.6330  0.2732 -0.0615
12184TIP3    H257968   6.177   1.342  17.250  0.9689  1.8666 -0.4305
12185TIP3   OH257969   0.543   4.435   0.336  0.0382  0.2362  0.0716
12185TIP3    H157970   0.504   4.521   0.315 -0.6199 -0.4459 -1.6799
12185TIP3    H257971   0.490   4.373   0.286  1.4951 -1.0408  0.0654
12186TIP3   OH257972   6.098   1.698  15.037  0.0110  0.7181  0.1699
12186TIP3    H157973   6.099   1.692  14.941  0.6733 -0.3811  0.2342
12186TIP3    H257974   6.186   1.672  15.064  0.2591  2.3697  1.0269
12187TIP3   OH257975   1.820   3.271   1.445 -0.2543 -0.0621 -0.6799
12187TIP3    H157976   1.760   3.214   1.494  0.1251  1.3718  1.6140
12187TIP3    H257977   1.889   3.293   1.508  2.0629 -0.6201 -2.8439
12188TIP3   OH257978   4.452   2.869  15.910  0.3845 -0.3581 -0.4668
12188TIP3    H157979   4.379   2.872  15.971 -0.2103 -0.3557 -1.1566
12188TIP3    H257980   4.426   2.930  15.840  1.3652  0.1819 -0.3757
12189TIP3   OH257981   0.606   3.772  16.664  0.1650 -0.0996 -0.3421
12189TIP3    H157982   0.662   3.843  16.696  0.7493 -0.4546 -0.5733
12189TIP3    H257983   0.591   3.717  16.741 -2.1200  1.4321  0.3979
12190TIP3   OH257984   0.341   5.912  14.694  0.4028  0.0713  0.6627
12190TIP3    H157985   0.432   5.889  14.674 -0.2655 -1.1533 -1.2215
12190TIP3    H257986   0.321   5.984  14.634 -0.5730 -1.3205 -0.7688
12191TIP3   OH257987   0.709   0.507  11.556  0.3765 -0.4869  0.0093
12191TIP3    H157988   0.676   0.452  11.484  0.5565  2.6267 -2.7368
12191TIP3    H257989   0.803   0.513  11.540  0.1906  1.5596 -0.6411
12192TIP3   OH257990   0.934   1.034   5.399  0.7380 -0.1580 -0.4555
12192TIP3    H157991   0.999   1.033   5.469 -0.3836  0.5470  0.6280
12192TIP3    H257992   0.875   0.962   5.420  1.8358 -1.6668 -2.1655
12193TIP3   OH257993   2.026   5.596  15.447  0.6147 -1.0105  0.1977
12193TIP3    H157994   1.948   5.549  15.479 -0.3960  0.1697 -0.4195
12193TIP3    H257995   2.039   5.562  15.358 -0.4530  0.2091 -0.4581
12194TIP3   OH257996   4.607   0.026   2.052  0.2060  0.8898 -0.0319
12194TIP3    H157997   4.695  -0.007   2.035 -0.3277 -0.9983  0.6450
12194TIP3    H257998   4.613   0.069   2.138  0.5001  0.9526 -0.0840
12195TIP3   OH257999   1.445   5.172   1.811  0.2512 -0.0004  0.4515
12195TIP3    H158000   1.449   5.139   1.901  0.4176 -0.3962  0.2979
12195TIP3    H258001   1.397   5.105   1.763 -0.1369  0.3709  0.3144
12196TIP3   OH258002   4.405   6.208  15.142 -0.0647 -0.1137  0.3663
12196TIP3    H158003   4.466   6.182  15.211 -0.1666 -0.7395  0.2229
12196TIP3    H258004   4.321   6.220  15.187  0.2506  1.1866  0.6417
12197TIP3   OH258005   1.060   4.637  15.864  0.3010  0.4085 -0.3111
12197TIP3    H158006   1.121   4.567  15.841 -0.7137 -1.3577  1.9246
12197TIP3    H258007   1.109   4.693  15.924  0.2683 -0.0555  0.1601
12198TIP3   OH258008   2.054   0.883  12.634 -0.9313  0.2326  0.5001
12198TIP3    H158009   2.047   0.952  12.568 -1.0959  0.0482  0.3214
12198TIP3    H258010   2.115   0.820  12.596  1.0155  1.3561  1.6358
12199TIP3   OH258011   0.159   2.352  11.416  0.2723 -0.4350 -0.2095
12199TIP3    H158012   0.191   2.262  11.422  3.0697  0.4719 -0.0815
12199TIP3    H258013   0.196   2.385  11.334  0.9443  1.1535  0.6887
12200TIP3   OH258014   2.870   3.259   1.872  0.5653  0.4496  0.4558
12200TIP3    H158015   2.890   3.350   1.851  0.9002  0.6020  1.3606
12200TIP3    H258016   2.953   3.222   1.901  0.6637 -0.4573 -0.9224
12201TIP3   OH258017   3.827   5.209   5.420  0.9174 -0.5465 -0.1633
12201TIP3    H158018   3.840   5.270   5.493  0.4418  0.7975 -1.1654
12201TIP3    H258019   3.911   5.164   5.412  1.1460 -0.3411  0.8700
12202TIP3   OH258020   0.393   2.399  16.078  0.2992 -0.0207  0.5248
12202TIP3    H158021   0.434   2.486  16.081  0.7912 -0.0857 -2.2100
12202TIP3    H258022   0.329   2.405  16.008 -0.6430 -1.5040  1.2215
12203TIP3   OH258023   6.714   3.904  10.813 -0.3549 -0.5588  0.4728
12203TIP3    H158024   6.764   3.856  10.747  0.2569 -0.5031  0.8879
12203TIP3    H258025   6.709   3.845  10.888 -0.6984 -0.4661  0.5249
12204TIP3   OH258026   5.950   3.146  11.584  0.4049 -0.0151 -0.7337
12204TIP3    H158027   5.867   3.113  11.548  0.9355 -1.4765 -0.6678
12204TIP3    H258028   5.991   3.070  11.624  2.0871  0.5343 -1.3182
12205TIP3   OH258029   5.476   3.066  11.115 -0.8758  0.6955  0.1958
12205TIP3    H158030   5.551   3.009  11.103 -1.5665 -0.1076 -0.4694
12205TIP3    H258031   5.417   3.044  11.042 -0.6140  3.1591 -0.8765
12206TIP3   OH258032   1.803   0.272   3.258  0.1057  0.2882 -0.4558
12206TIP3    H158033   1.737   0.219   3.304  0.4503 -0.5005 -0.8600
12206TIP3    H258034   1.760   0.356   3.243 -0.7913 -0.1940 -0.6494
12207TIP3   OH258035   2.370   0.723   4.394  0.2472  0.2718  0.1875
12207TIP3    H158036   2.414   0.727   4.479  1.7389 -1.6081 -0.4181
12207TIP3    H258037   2.306   0.794   4.396  2.5371  2.4530  1.5841
12208TIP3   OH258038   4.355   0.292   1.683 -0.2489 -0.0199 -0.0827
12208TIP3    H158039   4.361   0.202   1.649 -0.9231 -0.9873  2.1722
12208TIP3    H258040   4.378   0.284   1.775 -0.1341  2.2003  0.1304
12209TIP3   OH258041   0.254   6.025   0.414 -0.2445 -0.6453 -1.2662
12209TIP3    H158042   0.343   6.057   0.400 -0.5010 -0.4734 -2.6292
12209TIP3    H258043   0.261   5.930   0.409 -0.0410 -0.6565 -0.7649
12210TIP3   OH258044   2.691   2.040   3.461  0.6787 -0.0350  0.4455
12210TIP3    H158045   2.752   2.092   3.512  1.2164  0.0169 -0.2473
12210TIP3    H258046   2.611   2.092   3.459  0.7291  0.0720  1.0233
12211TIP3   OH258047   1.820   3.854  14.417 -0.3336 -0.1274 -0.4954
12211TIP3    H158048   1.725   3.861  14.405 -0.2334 -1.0300 -1.9415
12211TIP3    H258049   1.857   3.890  14.336  0.5465 -0.6041 -0.3118
12212TIP3   OH258050   2.224   6.217  16.496  0.0281 -0.1505  0.1774
12212TIP3    H158051   2.267   6.297  16.529  0.9556 -0.1180 -1.0436
12212TIP3    H258052   2.138   6.247  16.468  1.0965  0.9409 -2.2509
12213TIP3   OH258053   3.099   2.474  14.830  0.2000 -0.5545 -0.5910
12213TIP3    H158054   3.147   2.515  14.757  0.2332 -0.8319 -0.7297
12213TIP3    H258055   3.011   2.510  14.823  0.2952 -0.3113 -0.5537
12214TIP3   OH258056   2.639   0.474  10.772 -0.5094  0.6846 -0.2065
12214TIP3    H158057   2.689   0.413  10.826 -1.1080  0.2112 -0.1853
12214TIP3    H258058   2.593   0.529  10.835  0.5173  1.5886 -0.2126
12215TIP3   OH258059   5.280   3.935   5.152 -0.5265 -0.1613  0.2191
12215TIP3    H158060   5.286   4.005   5.087 -0.9409 -0.9993 -0.7504
12215TIP3    H258061   5.207   3.961   5.208  0.1324  0.8029  0.6563
12216TIP3   OH258062   6.528   5.752   0.583  0.2309 -0.3695 -0.2494
12216TIP3    H158063   6.461   5.727   0.647 -0.2184 -0.2653 -0.6730
12216TIP3    H258064   6.504   5.705   0.503  1.6653 -1.7123  0.0771
12217TIP3   OH258065   1.707   2.563   3.651 -0.7982  0.0108 -0.3780
12217TIP3    H158066   1.702   2.595   3.562 -1.3810 -1.2831 -0.8404
12217TIP3    H258067   1.623   2.518   3.665 -1.1187  0.9962  1.1488
12218TIP3   OH258068   0.511   4.475   4.173 -0.3619  0.2919 -0.0477
12218TIP3    H158069   0.432   4.428   4.202  0.0473  1.6211  3.7761
12218TIP3    H258070   0.583   4.419   4.202  0.1689  0.2903 -1.2953
12219TIP3   OH258071   0.598   1.811  12.092  0.0766  0.2965 -0.2379
12219TIP3    H158072   0.641   1.743  12.040 -0.9218 -0.4223 -0.1366
12219TIP3    H258073   0.550   1.863  12.028 -0.3986 -0.0261 -0.1484
12220TIP3   OH258074   5.891   3.924  12.709 -0.3892  0.1290 -0.2329
12220TIP3    H158075   5.946   3.990  12.665  1.1301 -0.9029  0.0445
12220TIP3    H258076   5.949   3.849  12.721 -2.0635 -1.2489 -0.4695
12221TIP3   OH258077   0.989   1.753   3.783  0.0227 -0.8098 -0.0413
12221TIP3    H158078   0.969   1.845   3.796  0.8773 -0.6107 -0.0763
12221TIP3    H258079   0.912   1.706   3.816  0.1773 -0.1463  1.3215
12222TIP3   OH258080   4.361   0.119  16.512  0.1724 -0.1602  0.3644
12222TIP3    H158081   4.397   0.198  16.471 -3.6054  1.0838 -0.9211
12222TIP3    H258082   4.335   0.063  16.438 -1.7793 -0.3264  1.1210
12223TIP3   OH258083   5.307   5.460  14.228  0.0489  0.1129  0.0531
12223TIP3    H158084   5.237   5.489  14.287 -0.0367  1.6332 -0.7393
12223TIP3    H258085   5.282   5.371  14.204 -0.3432 -0.2432  1.6446
12224TIP3   OH258086   5.349   1.539  12.057  0.6179  0.2128 -0.0649
12224TIP3    H158087   5.391   1.486  12.125  0.4123 -0.6549 -0.6056
12224TIP3    H258088   5.280   1.484  12.022 -0.2135  1.1907 -0.0036
12225TIP3   OH258089   2.200   1.478  13.403 -0.0373  0.2826  0.2690
12225TIP3    H158090   2.177   1.545  13.467  1.2373  0.6494  0.3765
12225TIP3    H258091   2.271   1.429  13.445  1.6184  1.2400 -1.2580
12226TIP3   OH258092   1.269   5.354   3.004 -0.2372  0.7020 -0.3677
12226TIP3    H158093   1.276   5.320   2.914 -2.9402 -1.5573  0.1585
12226TIP3    H258094   1.356   5.339   3.041  0.6197  0.6794 -2.2541
12227TIP3   OH258095   0.255   5.802  12.134 -0.1322 -0.3540 -0.2699
12227TIP3    H158096   0.230   5.888  12.101  1.9836  0.0360 -0.9839
12227TIP3    H258097   0.176   5.748  12.122 -0.9344  1.0149 -1.4348
12228TIP3   OH258098   4.323   2.283  12.516  0.0697  0.0905 -0.0703
12228TIP3    H158099   4.318   2.215  12.583 -0.9381 -0.5012 -0.7249
12228TIP3    H258100   4.414   2.279  12.485  0.4717  0.1776  1.0380
12229TIP3   OH258101   5.620   2.405  11.521 -0.1581 -0.0524 -0.2462
12229TIP3    H158102   5.585   2.490  11.494 -0.2588 -0.2936 -0.8918
12229TIP3    H258103   5.578   2.388  11.605 -1.6472 -0.3485 -1.0147
12230TIP3   OH258104   6.008   3.009   5.789  0.4764 -0.1486  0.1725
12230TIP3    H158105   6.011   3.090   5.739 -1.6485  0.1267  0.4233
12230TIP3    H258106   6.051   2.944   5.732  1.3360  0.9176 -0.4271
12231TIP3   OH258107   4.663   1.505  16.146  0.0069 -0.0370 -0.1041
12231TIP3    H158108   4.711   1.429  16.179 -1.3379 -1.0712 -0.4228
12231TIP3    H258109   4.719   1.580  16.167  0.7668 -0.9727  1.4208
12232TIP3   OH258110   5.488   1.813   1.533 -0.2273  0.3501  0.4373
12232TIP3    H158111   5.549   1.785   1.601  0.5064 -2.3358 -1.1550
12232TIP3    H258112   5.465   1.732   1.487 -1.2534  1.9302 -2.0453
12233TIP3   OH258113   0.454   1.783  14.911 -0.0366  0.0259 -0.1135
12233TIP3    H158114   0.514   1.718  14.875 -0.5423 -0.2815 -0.4204
12233TIP3    H258115   0.425   1.834  14.836 -2.4689 -1.7430 -0.5126
12234TIP3   OH258116   1.434   1.168   1.038 -0.2380 -0.3230  0.4317
12234TIP3    H158117   1.429   1.078   1.007 -0.8777 -0.1016 -0.1203
12234TIP3    H258118   1.521   1.174   1.079  1.2535 -0.2791 -2.4665
12235TIP3   OH258119   2.553   0.157   1.417 -0.3289  0.4286  0.1499
12235TIP3    H158120   2.529   0.243   1.452 -0.5576 -0.0873  1.2821
12235TIP3    H258121   2.471   0.109   1.411 -0.3644  0.6430 -1.5397
12236TIP3   OH258122   4.542   6.338   0.338 -0.1010  0.1532 -0.0413
12236TIP3    H158123   4.628   6.360   0.374  0.1947 -0.5442 -0.3058
12236TIP3    H258124   4.480   6.386   0.393  0.5623  2.9472 -1.5537
12237TIP3   OH258125   1.005   5.932   5.667 -0.0610  0.2127  0.3995
12237TIP3    H158126   1.080   5.875   5.680  0.4645  1.0081  0.9071
12237TIP3    H258127   0.942   5.905   5.734  0.5396  0.8038  1.2167
12238TIP3   OH258128   1.530   5.828   4.050  0.5606  0.4193 -0.4766
12238TIP3    H158129   1.522   5.821   3.955 -0.5387  1.9588 -0.5310
12238TIP3    H258130   1.525   5.738   4.081  0.6863 -0.0866 -1.8505
12239TIP3   OH258131   4.147   4.309  15.087  0.4783 -0.6039 -0.3875
12239TIP3    H158132   4.232   4.353  15.097 -0.7210  1.5220  1.6685
12239TIP3    H258133   4.121   4.328  14.997  1.1654  0.8478 -0.3202
12240TIP3   OH258134   0.783   0.723   4.787 -0.4870 -0.9319 -0.1437
12240TIP3    H158135   0.695   0.748   4.814 -0.0566 -0.9391  1.3670
12240TIP3    H258136   0.829   0.806   4.773 -0.4494 -0.9073  0.1078
12241TIP3   OH258137   0.477   2.749  11.585  0.5908  0.0026 -0.0134
12241TIP3    H158138   0.393   2.793  11.597  1.0543  0.2057  3.5863
12241TIP3    H258139   0.540   2.820  11.571  0.5440  0.0399 -0.0350
12242TIP3   OH258140   3.060   0.105  15.774  0.4911 -0.2884  0.1534
12242TIP3    H158141   3.052   0.012  15.753 -0.7969 -0.0032 -0.8005
12242TIP3    H258142   2.981   0.125  15.824  0.0713  0.5589 -0.8068
12243TIP3   OH258143   6.071   4.855   5.681 -0.1969  0.1540  0.8427
12243TIP3    H158144   6.118   4.897   5.609 -0.1869 -0.4252  0.5022
12243TIP3    H258145   5.993   4.817   5.639  0.2836 -0.9948  0.9580
12244TIP3   OH258146   6.464   1.445   1.714  0.3268 -0.3568  0.4903
12244TIP3    H158147   6.408   1.510   1.756  2.5333  0.7683  1.9243
12244TIP3    H258148   6.435   1.442   1.623 -4.1157 -2.2545  1.6958
12245TIP3   OH258149   0.328   5.584   0.074 -0.5337  0.0305  0.1640
12245TIP3    H158150   0.395   5.568   0.007 -1.5470  1.6696 -1.3274
12245TIP3    H258151   0.278   5.502   0.078 -1.4463  0.3976 -2.3111
12246TIP3   OH258152   4.189   4.177   4.711  0.7471 -0.2532 -0.6491
12246TIP3    H158153   4.133   4.164   4.633 -1.7834 -2.8188  1.3673
12246TIP3    H258154   4.180   4.270   4.731 -3.7388 -0.5550 -0.0450
12247TIP3   OH258155   4.175   2.689   4.278  0.1799  0.1103 -0.4017
12247TIP3    H158156   4.249   2.637   4.309  0.9954  0.9517 -0.8866
12247TIP3    H258157   4.214   2.755   4.221 -0.9865  0.3490 -0.9653
12248TIP3   OH258158   0.075   5.571   0.604 -0.1120  0.5064 -0.0972
12248TIP3    H158159  -0.008   5.524   0.605 -0.3203  0.6558 -2.8897
12248TIP3    H258160   0.057   5.652   0.651 -2.2260  1.4718 -2.3620
12249TIP3   OH258161   1.160   5.791   4.121 -0.0265  0.0293  0.0963
12249TIP3    H158162   1.070   5.773   4.145  0.0633  0.3527  0.6945
12249TIP3    H258163   1.192   5.851   4.188  0.2841  0.8305 -0.7402
12250TIP3   OH258164   1.921   4.882  13.814  0.4612 -0.2328 -0.2691
12250TIP3    H158165   1.988   4.921  13.870  1.9114 -1.1195 -1.2766
12250TIP3    H258166   1.859   4.952  13.798 -0.8369 -0.2913  3.5094
12251TIP3   OH258167   5.040   4.613   1.817  0.0759 -0.2625 -0.3871
12251TIP3    H158168   5.074   4.695   1.852  0.1607 -0.3252 -0.3231
12251TIP3    H258169   4.967   4.591   1.876  0.0683 -0.2459 -0.3906
12252TIP3   OH258170   3.781   5.815   1.403 -0.6562 -0.0154 -0.4868
12252TIP3    H158171   3.707   5.755   1.406 -0.2910 -0.5015 -1.2021
12252TIP3    H258172   3.849   5.769   1.354  0.4292  0.0940  0.8423
12253TIP3   OH258173   3.941   4.530   1.606  0.1128  0.5600  0.0633
12253TIP3    H158174   3.908   4.486   1.528 -0.5256 -0.0959  0.6816
12253TIP3    H258175   3.867   4.581   1.638  0.8785  2.2022 -0.6960
12254TIP3   OH258176   6.028   2.956  17.135 -0.1927 -0.3756  0.0211
12254TIP3    H158177   6.110   2.957  17.086 -0.0156  1.4396  0.2885
12254TIP3    H258178   5.989   2.870  17.116  0.5869 -0.3096 -2.0703
12255TIP3   OH258179   6.519   2.779   5.936 -0.2633  0.4699 -0.1329
12255TIP3    H158180   6.489   2.868   5.950 -1.0935  0.2945 -0.7101
12255TIP3    H258181   6.454   2.740   5.877 -2.0991 -1.6926  3.0295
12256TIP3   OH258182   0.555   3.954   1.711 -0.0540  0.0605 -0.1253
12256TIP3    H158183   0.485   4.011   1.744  0.0478  0.8775 -1.2761
12256TIP3    H258184   0.631   4.012   1.704  0.7786 -0.8147  1.1227
12257TIP3   OH258185   1.050   5.912   2.931  0.0920 -0.1757  0.1425
12257TIP3    H158186   1.133   5.934   2.974  0.0617 -0.5211  0.3767
12257TIP3    H258187   0.983   5.955   2.983 -0.0821 -1.7813  1.3306
12258TIP3   OH258188   1.757   1.098  12.561  0.1243  0.6853  0.2206
12258TIP3    H158189   1.791   1.072  12.647  0.3084  0.5287  0.1030
12258TIP3    H258190   1.716   1.183  12.576 -0.2664  0.4411  0.5626
12259TIP3   OH258191   3.024   5.339   0.523  0.2423  0.2779 -0.3360
12259TIP3    H158192   3.012   5.314   0.432  1.3473  0.5513 -0.5815
12259TIP3    H258193   3.093   5.281   0.555 -0.1121  0.2060  0.3202
12260TIP3   OH258194   3.001   5.460  13.963  0.4863  0.5083  0.6611
12260TIP3    H158195   3.007   5.410  13.881 -2.1270 -1.1319  1.3533
12260TIP3    H258196   3.006   5.551  13.935  0.7452 -0.0194 -1.1952
12261TIP3   OH258197   5.180   0.771   2.620  0.5475 -0.5394 -0.2771
12261TIP3    H158198   5.200   0.723   2.540  0.1875  0.1205 -0.7794
12261TIP3    H258199   5.266   0.799   2.653  0.7960 -1.8960  0.2770
12262TIP3   OH258200   4.658   5.687   2.578 -0.0128  0.0433 -0.1262
12262TIP3    H158201   4.672   5.685   2.673  1.2814 -0.7014 -0.3097
12262TIP3    H258202   4.652   5.595   2.553  0.3542  0.2060 -0.8460
12263TIP3   OH258203   0.882   2.575   0.684 -0.0972 -0.1168  0.2832
12263TIP3    H158204   0.847   2.551   0.598 -0.3221 -0.0950  0.3684
12263TIP3    H258205   0.890   2.492   0.731 -2.5012  0.1087  1.1949
12264TIP3   OH258206   5.903   6.186   2.516  0.3998 -0.5749 -0.3521
12264TIP3    H158207   5.885   6.271   2.477 -1.0356 -1.0216 -0.7208
12264TIP3    H258208   5.980   6.153   2.469 -0.6368 -0.6236 -2.0645
12265TIP3   OH258209   0.851   6.134   0.836  0.5125 -0.2353 -0.5369
12265TIP3    H158210   0.840   6.217   0.883 -0.0489 -1.0247  0.8203
12265TIP3    H258211   0.934   6.100   0.868  0.4857 -0.4420 -0.6891
12266TIP3   OH258212   4.364   4.258  12.379  0.0543  0.3158 -0.0551
12266TIP3    H158213   4.322   4.289  12.299  0.1990  1.3764  0.2707
12266TIP3    H258214   4.361   4.333  12.439  1.7096  0.1811  0.2405
12267TIP3   OH258215   0.377   3.995   0.905 -0.0748  0.3699  0.5274
12267TIP3    H158216   0.429   3.919   0.878 -1.4796 -0.5492  0.2904
12267TIP3    H258217   0.442   4.061   0.928  1.2271  0.1761 -2.1401
12268TIP3   OH258218   5.411   0.324  16.081 -0.4925  0.2411  0.0861
12268TIP3    H158219   5.384   0.406  16.122  3.2603  1.2968  0.7940
12268TIP3    H258220   5.419   0.345  15.988 -1.6847 -0.0354 -0.1034
12269TIP3   OH258221   0.154   5.443  16.127 -0.9114  0.6526  0.5332
12269TIP3    H158222   0.208   5.374  16.088 -0.1422  0.1584  2.3632
12269TIP3    H258223   0.077   5.396  16.159 -1.7198  1.1132 -0.6548
12270TIP3   OH258224   1.587   0.994   0.701 -0.4280 -0.6775 -0.4085
12270TIP3    H158225   1.647   0.993   0.627  0.0293 -0.4735 -0.0461
12270TIP3    H258226   1.643   1.009   0.778 -1.0872  1.1816 -0.2235
12271TIP3   OH258227   0.361   0.394   1.171  0.4604 -0.0557  0.9521
12271TIP3    H158228   0.445   0.429   1.142  0.2913  0.4642  1.0853
12271TIP3    H258229   0.360   0.408   1.265  1.9501 -3.6726  1.6756
12272TIP3   OH258230   0.977   1.498  14.692  0.4078  0.0857 -0.3288
12272TIP3    H158231   1.016   1.572  14.737  2.0121  0.6322 -2.4440
12272TIP3    H258232   0.933   1.536  14.616 -0.7739 -0.9288 -0.1781
12273TIP3   OH258233   0.897   1.828   1.636 -0.1803  0.2891  0.7546
12273TIP3    H158234   0.977   1.879   1.627  0.8342 -1.3959 -0.2379
12273TIP3    H258235   0.843   1.878   1.698  0.5110  2.7893 -0.5659
12274TIP3   OH258236   5.165   5.268   1.975  0.3285  0.1069 -0.3853
12274TIP3    H158237   5.220   5.339   2.008  0.6014 -0.2335 -0.1063
12274TIP3    H258238   5.195   5.190   2.022 -0.3079 -0.1038 -0.3197
12275TIP3   OH258239   0.450   0.518   5.927  0.5318 -0.2369 -0.2506
12275TIP3    H158240   0.364   0.482   5.905  0.6494 -0.8351  0.2603
12275TIP3    H258241   0.505   0.442   5.942  0.6708  0.1338  1.2743
12276TIP3   OH258242   3.138   2.491   3.908 -0.0100 -0.4809 -0.2749
12276TIP3    H158243   3.089   2.421   3.952 -0.5552 -0.0310 -0.1458
12276TIP3    H258244   3.132   2.471   3.815  0.4901 -1.0180 -0.1973
12277TIP3   OH258245   2.543   0.783   4.662  0.0201 -0.0076 -0.3898
12277TIP3    H158246   2.585   0.863   4.630  2.1536  0.0071  2.1431
12277TIP3    H258247   2.496   0.810   4.741  0.6537 -1.2030  0.4228
12278TIP3   OH258248   2.178   0.395  15.718 -0.0148 -0.4978  0.0211
12278TIP3    H158249   2.183   0.459  15.789  1.2570 -0.8179  0.2317
12278TIP3    H258250   2.230   0.433  15.647 -1.0562 -0.3050 -0.6707
12279TIP3   OH258251   4.614   0.077  15.686  0.0479  0.3541 -0.6061
12279TIP3    H158252   4.622   0.170  15.665  1.5895  0.7961  1.6149
12279TIP3    H258253   4.702   0.042  15.670  0.1972 -0.1117  1.0480
12280TIP3   OH258254   6.406   5.012  14.702  0.0799 -0.2075 -0.5362
12280TIP3    H158255   6.470   5.081  14.684  0.7373 -0.4316  0.7896
12280TIP3    H258256   6.335   5.027  14.640  0.6694  1.0571 -0.9231
12281TIP3   OH258257   5.016   1.029  15.959  0.1525  0.1877 -0.0125
12281TIP3    H158258   5.010   1.044  15.864  2.0995 -1.8840 -0.5338
12281TIP3    H258259   5.034   0.936  15.968 -2.2031 -0.1714  2.5592
12282TIP3   OH258260   1.296   2.648   2.263  0.1397  0.0094  0.2953
12282TIP3    H158261   1.312   2.591   2.338 -0.4211 -1.9319 -0.9922
12282TIP3    H258262   1.222   2.702   2.289  0.4658 -0.0674  1.4281
12283TIP3   OH258263   6.226   3.593   5.338 -0.3354  0.4394 -0.0054
12283TIP3    H158264   6.303   3.545   5.368  0.6973  2.8277  1.4207
12283TIP3    H258265   6.168   3.525   5.304  1.2197 -1.7396  1.4015
12284TIP3   OH258266   6.342   0.916  11.912  0.0137  0.0966  0.0363
12284TIP3    H158267   6.271   0.869  11.868 -0.1798 -0.1512  0.5999
12284TIP3    H258268   6.350   0.872  11.997  0.3976  0.5479  0.2355
12285TIP3   OH258269   3.994   1.809  14.734  0.2871  0.4312  0.1803
12285TIP3    H158270   3.904   1.836  14.716  0.4457  0.1964 -0.9950
12285TIP3    H258271   4.007   1.833  14.826 -0.3985  2.0424 -0.1099
12286TIP3   OH258272   0.990   1.528  16.140 -0.0757  0.3860 -0.2052
12286TIP3    H158273   1.011   1.449  16.090  0.3121  0.9898 -1.0187
12286TIP3    H258274   1.055   1.530  16.211  0.2792  0.2751 -0.5229
12287TIP3   OH258275   6.536   0.086  14.502 -0.4640 -0.7061  0.3361
12287TIP3    H158276   6.470   0.038  14.553  0.0143 -1.0327  0.6553
12287TIP3    H258277   6.523   0.056  14.412 -0.5609 -0.9851  0.4416
12288TIP3   OH258278   4.993   0.300  11.995 -0.2774 -0.0185  0.3000
12288TIP3    H158279   5.039   0.272  12.073 -0.5386 -2.7602 -0.4186
12288TIP3    H258280   5.061   0.312  11.929 -0.3078 -1.9058 -0.1494
12289TIP3   OH258281   0.025   4.442  12.603  0.4114 -0.0498 -0.0162
12289TIP3    H158282   0.063   4.429  12.516  2.5437 -1.4536  1.0452
12289TIP3    H258283   0.064   4.373  12.657 -0.9032  0.7298  2.0574
12290TIP3   OH258284   3.814   5.681  12.026 -0.5290  0.0054  0.2698
12290TIP3    H158285   3.759   5.734  12.083  0.6907 -2.1962  3.8460
12290TIP3    H258286   3.754   5.642  11.963 -2.1244  1.8726  0.5478
12291TIP3   OH258287   5.147   4.616   3.972 -0.7308  0.1400  0.1136
12291TIP3    H158288   5.147   4.711   3.964  0.5760  0.2302  0.9093
12291TIP3    H258289   5.213   4.586   3.910 -0.8249 -0.2119  0.1810
12292TIP3   OH258290   2.793   5.851   3.364  0.3755  0.1415 -0.1822
12292TIP3    H158291   2.861   5.820   3.423 -0.7650 -0.7009  0.7241
12292TIP3    H258292   2.711   5.836   3.411 -0.4966  0.3835 -1.5666
12293TIP3   OH258293   2.495   5.832  17.132 -0.1337 -0.5597  0.1036
12293TIP3    H158294   2.584   5.859  17.108  0.1741 -1.2014  0.5076
12293TIP3    H258295   2.485   5.859  17.223  0.1935 -1.8237  0.5271
12294TIP3   OH258296   1.320   3.000   2.505  0.6317 -0.1769  0.3025
12294TIP3    H158297   1.351   3.086   2.533  1.8078 -0.6962  0.6655
12294TIP3    H258298   1.398   2.944   2.510 -0.1784 -1.3276  0.3482
12295TIP3   OH258299   4.671   0.619   2.701  0.1620 -0.1068  0.1422
12295TIP3    H158300   4.732   0.626   2.628 -0.0088 -2.6066 -0.3383
12295TIP3    H258301   4.704   0.681   2.766 -0.0967  2.7727 -2.2560
12296TIP3   OH258302   4.683   0.640  10.973 -1.0555 -0.2521  0.2495
12296TIP3    H158303   4.710   0.549  10.985 -0.4435 -0.0336  0.5721
12296TIP3    H258304   4.763   0.684  10.942 -1.7575 -0.1531 -1.5789
12297TIP3   OH258305   4.027   2.012  16.118 -0.2378 -0.5668 -0.4996
12297TIP3    H158306   3.932   1.999  16.110 -0.2199 -0.7552 -0.3933
12297TIP3    H258307   4.046   2.085  16.058 -1.0424  2.0045  2.0996
12298TIP3   OH258308   6.411   1.503   3.411  0.2297 -0.0788 -0.1896
12298TIP3    H158309   6.463   1.567   3.363  2.0714 -1.0778  0.3897
12298TIP3    H258310   6.392   1.546   3.495 -1.7239  1.0814 -1.1427
12299TIP3   OH258311   5.650   2.511   5.669 -0.3915  0.3419 -0.0405
12299TIP3    H158312   5.740   2.528   5.641 -0.4895  0.8487 -0.0454
12299TIP3    H258313   5.659   2.451   5.743 -0.0462  0.4298 -0.0116
12300TIP3   OH258314   2.162   3.575   2.646 -0.5696 -0.6371 -0.5120
12300TIP3    H158315   2.211   3.543   2.571 -0.7886  1.4033 -1.6067
12300TIP3    H258316   2.072   3.547   2.630 -0.7807  0.5296 -1.5104
12301TIP3   OH258317   4.752   4.581  14.416 -0.1475  0.2674 -0.1238
12301TIP3    H158318   4.742   4.633  14.336  0.8935  1.4877  0.5031
12301TIP3    H258319   4.662   4.567  14.447 -0.4304  3.2293  0.6270
12302TIP3   OH258320   6.385   4.474   6.441  0.3743  0.1691 -0.0401
12302TIP3    H158321   6.474   4.440   6.449  0.0935 -0.7493 -0.6071
12302TIP3    H258322   6.330   4.406   6.482 -0.1303  0.3547 -0.4021
12303TIP3   OH258323   5.005   5.683  12.669  0.8952 -0.7451 -0.0884
12303TIP3    H158324   4.953   5.634  12.605 -0.2438 -1.1235  1.0810
12303TIP3    H258325   5.047   5.616  12.722  0.6771 -0.4537  0.4592
12304TIP3   OH258326   0.124   4.510  17.100 -0.1765 -0.0819 -0.2375
12304TIP3    H158327   0.046   4.539  17.053  1.2118  2.3885 -1.1884
12304TIP3    H258328   0.187   4.490  17.031  0.3009 -1.3215  0.5297
12305TIP3   OH258329   3.396   0.333   5.321 -0.4355  0.2214 -0.3135
12305TIP3    H158330   3.388   0.346   5.226 -0.3868 -1.2028 -0.5289
12305TIP3    H258331   3.354   0.249   5.337  0.0854  0.1705  0.8474
12306TIP3   OH258332   5.169   1.747   2.720  0.0436 -0.0993 -0.4140
12306TIP3    H158333   5.227   1.821   2.740 -0.2667  0.6981 -2.2593
12306TIP3    H258334   5.143   1.761   2.629  1.0427 -3.2265 -1.3024
12307TIP3   OH258335   3.499   5.979   2.590  0.1571 -0.0065  0.0973
12307TIP3    H158336   3.560   6.024   2.648  0.0009  0.8045 -0.3634
12307TIP3    H258337   3.421   5.964   2.645  0.5664 -0.5941  0.5332
12308TIP3   OH258338   2.580   3.582  12.660  0.2149  0.5827 -0.1920
12308TIP3    H158339   2.642   3.641  12.704  0.1145  0.5788 -0.0451
12308TIP3    H258340   2.536   3.638  12.596  0.3766  0.5832 -0.3044
12309TIP3   OH258341   1.615   5.123  17.192 -0.0549 -0.4597 -0.1045
12309TIP3    H158342   1.687   5.138  17.131  0.8774  0.7938  1.2495
12309TIP3    H258343   1.618   5.197  17.252 -2.8678 -0.0171 -0.3335
12310TIP3   OH258344   5.737   5.629  13.072  0.1758 -0.1806 -0.0120
12310TIP3    H158345   5.694   5.589  13.147 -1.1815  0.2650 -0.5308
12310TIP3    H258346   5.686   5.708  13.054  0.3848 -0.3475 -1.4867
12311TIP3   OH258347   6.225   2.257  15.494 -0.0953 -0.6769 -0.0052
12311TIP3    H158348   6.210   2.164  15.513 -0.5725 -0.7194 -0.5495
12311TIP3    H258349   6.312   2.275  15.528 -0.1996 -1.2020  0.5567
12312TIP3   OH258350   3.787   4.418  16.665 -0.3265 -0.4515 -0.7380
12312TIP3    H158351   3.719   4.475  16.628  0.5139  0.8600 -0.3476
12312TIP3    H258352   3.856   4.479  16.692  0.9251 -1.7355 -0.9591
12313TIP3   OH258353   3.503   5.622   5.077  0.0067 -0.1289  0.3406
12313TIP3    H158354   3.474   5.562   5.008  0.1381 -1.1684  1.1717
12313TIP3    H258355   3.534   5.565   5.147 -1.7374  0.8442  1.9873
12314TIP3   OH258356   4.472   3.981   3.132 -0.1098 -0.9449  0.0604
12314TIP3    H158357   4.538   3.937   3.077 -0.4768 -1.5918  0.1242
12314TIP3    H258358   4.419   4.031   3.070 -0.6236 -1.8010 -0.2035
12315TIP3   OH258359   1.744   1.629  13.588 -0.7499  0.6389  0.0277
12315TIP3    H158360   1.811   1.561  13.601 -0.3898  0.8557 -0.6503
12315TIP3    H258361   1.760   1.661  13.499  0.2074  2.8327  0.9265
12316TIP3   OH258362   4.660   0.733   3.192  0.0620 -0.0420  0.0897
12316TIP3    H158363   4.649   0.726   3.287 -1.5177 -0.7287 -0.1154
12316TIP3    H258364   4.631   0.648   3.158  0.8707  0.0926 -0.9952
12317TIP3   OH258365   0.399   6.199  16.412  0.1901 -0.0097 -0.2713
12317TIP3    H158366   0.381   6.274  16.355  3.9494  2.0749  0.9373
12317TIP3    H258367   0.444   6.136  16.355 -1.5152 -0.7246 -0.9026
12318TIP3   OH258368   1.898   3.775  11.060  0.1367 -0.3195 -0.1355
12318TIP3    H158369   1.844   3.806  10.987  0.3683 -1.1312 -0.6634
12318TIP3    H258370   1.980   3.823  11.051 -0.1832  0.2972  0.1744
12319TIP3   OH258371   4.149   2.110  14.158  0.6331 -0.1302 -0.2158
12319TIP3    H158372   4.101   2.138  14.081  0.2528 -0.3623 -0.0689
12319TIP3    H258373   4.196   2.031  14.130  1.7828  0.6834 -0.6565
12320TIP3   OH258374   5.792   0.419   4.777  0.0676 -1.0061  0.0332
12320TIP3    H158375   5.859   0.367   4.822 -1.0720 -1.3510  1.3992
12320TIP3    H258376   5.715   0.413   4.833 -0.3739  1.5045 -0.1764
12321TIP3   OH258377   0.866   0.814  15.287 -0.3768  0.4046 -0.1111
12321TIP3    H158378   0.913   0.749  15.234  1.1281  0.4370  1.1307
12321TIP3    H258379   0.793   0.765  15.326  0.2944 -0.3524  0.2010
12322TIP3   OH258380   1.930   4.902   1.143  0.4320  0.3734  0.4196
12322TIP3    H158381   1.880   4.823   1.164 -1.1262  1.8062  2.5156
12322TIP3    H258382   2.003   4.901   1.205 -0.8086  1.6020  1.9682
12323TIP3   OH258383   2.793   2.993  12.266 -0.5462 -0.0470 -0.4474
12323TIP3    H158384   2.787   2.905  12.228  1.5049 -0.4320 -0.0015
12323TIP3    H258385   2.864   3.035  12.219 -0.3449  0.7457  0.5172
12324TIP3   OH258386   6.730   6.126   4.786  0.6411  0.1148 -0.3703
12324TIP3    H158387   6.738   6.198   4.848  0.0912 -1.4048  1.5620
12324TIP3    H258388   6.710   6.168   4.702  3.0500  2.3419  0.0577
12325TIP3   OH258389   4.426   3.398  17.264  0.5350 -0.3314  0.0617
12325TIP3    H158390   4.348   3.352  17.294  0.2423  0.4611  0.5585
12325TIP3    H258391   4.403   3.431  17.177  0.3131 -0.1123  0.2014
12326TIP3   OH258392   3.899   3.661   2.105  0.3812  0.1166 -0.5396
12326TIP3    H158393   3.836   3.627   2.168  0.7891 -2.2158 -1.2879
12326TIP3    H258394   3.845   3.698   2.035 -0.1393 -0.3681 -0.4072
12327TIP3   OH258395   5.844   0.597   5.735  0.4157  0.3377 -0.1710
12327TIP3    H158396   5.829   0.536   5.663 -3.0149  0.9571 -0.1479
12327TIP3    H258397   5.879   0.676   5.693  1.6856 -0.4518 -0.6432
12328TIP3   OH258398   1.344   3.345  10.615  0.6853  0.3774 -0.5525
12328TIP3    H158399   1.320   3.435  10.635 -0.1684  0.4533 -1.8183
12328TIP3    H258400   1.422   3.329  10.667  2.0446  2.5068 -1.7749
12329TIP3   OH258401   1.314   5.970   1.403  0.5309 -0.6689 -0.2306
12329TIP3    H158402   1.292   5.923   1.484  0.4735 -1.3389 -0.6291
12329TIP3    H258403   1.381   6.033   1.430 -0.1930 -0.2136  0.5257
12330TIP3   OH258404   1.142   0.723  15.416  0.5606  0.4766  0.0839
12330TIP3    H158405   1.154   0.670  15.495 -0.2013 -0.5965 -0.4854
12330TIP3    H258406   1.082   0.671  15.361 -1.1296  2.4195 -0.0421
12331TIP3   OH258407   6.358   3.958  13.125 -0.7336 -0.2141  1.0233
12331TIP3    H158408   6.315   3.883  13.083  0.3742  0.5044 -1.6477
12331TIP3    H258409   6.319   4.034  13.081 -0.4569  0.6836  2.3076
12332TIP3   OH258410   4.761   5.857   0.500 -0.0966  0.2920 -0.1176
12332TIP3    H158411   4.803   5.829   0.581 -0.4522 -0.0427 -0.0462
12332TIP3    H258412   4.826   5.841   0.432 -0.2789 -0.6963 -0.0779
12333TIP3   OH258413   3.900   1.371  13.620  0.2767  0.0558 -0.0151
12333TIP3    H158414   3.805   1.371  13.612  0.2414 -0.5229  0.3731
12333TIP3    H258415   3.919   1.304  13.685  0.9423  0.2870  0.0399
12334TIP3   OH258416   3.827   2.932  14.635 -0.2121 -0.9854  0.5058
12334TIP3    H158417   3.810   2.855  14.688  1.6398 -1.2743  0.7583
12334TIP3    H258418   3.821   2.901  14.544  1.1821 -1.6363  0.6022
12335TIP3   OH258419   1.603   2.819  15.461  0.0690  0.2564  0.2998
12335TIP3    H158420   1.595   2.816  15.366 -1.1484  0.3670  0.3921
12335TIP3    H258421   1.697   2.835  15.476  0.6777 -1.8377 -0.8212
12336TIP3   OH258422   6.553   1.719   0.607  0.2556  0.6648 -0.0159
12336TIP3    H158423   6.548   1.654   0.536  3.4581 -1.4877  1.4604
12336TIP3    H258424   6.608   1.788   0.571 -1.0791  1.3860 -0.7475
12337TIP3   OH258425   2.899   5.078  17.324  0.3564  0.0505 -0.4543
12337TIP3    H158426   2.826   5.044  17.272 -0.8192  0.6744  0.7186
12337TIP3    H258427   2.943   5.000  17.358  0.7624 -0.3459 -1.8564
12338TIP3   OH258428   2.150   1.878   0.053 -0.2038  0.5527 -0.2719
12338TIP3    H158429   2.239   1.861   0.084  0.7978 -1.5236 -3.7540
12338TIP3    H258430   2.096   1.812   0.097  0.4352  0.2275  0.0296
12339TIP3   OH258431   4.221   0.195   3.293  0.2905  0.2768 -0.7194
12339TIP3    H158432   4.301   0.244   3.314  0.6611 -0.9999  1.0843
12339TIP3    H258433   4.173   0.192   3.375 -1.1190  0.0927 -1.5252
12340TIP3   OH258434   0.031   5.715   4.136  0.0168  0.0448 -0.4080
12340TIP3    H158435   0.045   5.780   4.068  0.7314  0.8230  0.4523
12340TIP3    H258436   0.119   5.688   4.163 -0.1510  1.1014  1.4245
12341TIP3   OH258437   5.656   2.108   4.788 -0.5994  0.3832  0.4261
12341TIP3    H158438   5.569   2.110   4.826 -0.5559  1.6094  0.4875
12341TIP3    H258439   5.658   2.182   4.727  0.2993  0.1940  0.2032
12342TIP3   OH258440   2.140   6.336   6.163  0.4361  0.2550 -0.0531
12342TIP3    H158441   2.225   6.353   6.204  0.3179 -0.8523  0.6956
12342TIP3    H258442   2.161   6.302   6.076  0.8099 -1.1798  0.5762
12343TIP3   OH258443   5.838   6.613  14.811 -0.2876 -0.1509 -0.1449
12343TIP3    H158444   5.843   6.518  14.816  0.3621 -0.1540 -0.6931
12343TIP3    H258445   5.913   6.644  14.861  0.1853  0.0377 -0.9523
12344TIP3   OH258446   5.014   0.681   1.145  0.1231 -0.0060 -0.0173
12344TIP3    H158447   5.109   0.691   1.147  0.4909 -2.6244 -0.1765
12344TIP3    H258448   4.998   0.599   1.193 -1.8801 -0.4304 -1.2868
12345TIP3   OH258449   6.360   2.477  16.064  0.3215 -0.1227  0.2415
12345TIP3    H158450   6.347   2.438  16.151  0.7649  0.4853  0.5981
12345TIP3    H258451   6.273   2.477  16.024  0.1496 -0.6041  0.6026
12346TIP3   OH258452   4.687   4.598  16.682 -0.6732 -0.1763 -0.5721
12346TIP3    H158453   4.610   4.546  16.709 -2.4791  1.2525 -2.5961
12346TIP3    H258454   4.734   4.615  16.763 -0.6067 -3.8852  0.3678
12347TIP3   OH258455   5.263   1.656  13.250 -0.4506 -0.1925  0.8434
12347TIP3    H158456   5.260   1.682  13.158  0.2670  3.4929  1.7192
12347TIP3    H258457   5.211   1.576  13.253 -0.7331 -0.3256 -2.6967
12348TIP3   OH258458   4.302   0.487   0.414 -0.2498  0.7550 -0.5222
12348TIP3    H158459   4.298   0.582   0.423  1.0663  0.7606  0.3528
12348TIP3    H258460   4.381   0.472   0.362  1.1328  0.0798  1.6424
12349TIP3   OH258461   1.525   6.275  17.200 -0.5453  0.2778  0.2634
12349TIP3    H158462   1.436   6.243  17.185 -0.0023 -0.6523 -1.0330
12349TIP3    H258463   1.539   6.261  17.294 -0.9531 -1.6730  0.0648
12350TIP3   OH258464   0.485   4.886  10.732  0.0177  0.1761  0.5521
12350TIP3    H158465   0.454   4.869  10.643 -0.5057  1.2334  0.5072
12350TIP3    H258466   0.481   4.982  10.740  2.0643  0.2646  0.9990
12351TIP3   OH258467   6.065   5.634   5.845  0.2778  0.8119  0.0619
12351TIP3    H158468   5.974   5.628   5.816  0.0208  0.7517  0.8563
12351TIP3    H258469   6.059   5.648   5.939  1.0787  2.2960 -0.0830
12352TIP3   OH258470   2.107   2.441   5.913 -0.1866  0.0239 -0.3489
12352TIP3    H158471   2.122   2.403   5.999 -0.8317  2.0779  0.7424
12352TIP3    H258472   2.194   2.446   5.873  0.0961 -1.0836  0.0890
12353TIP3   OH258473   0.760   3.415   2.771  0.4832  0.1313  0.3772
12353TIP3    H158474   0.855   3.409   2.757  0.5010  1.2512 -0.1186
12353TIP3    H258475   0.722   3.397   2.685  0.3146  0.9297  0.2755
12354TIP3   OH258476   3.418   0.764   1.690  0.0174 -0.2396 -0.0251
12354TIP3    H158477   3.497   0.784   1.740  0.0442 -0.4426  0.0110
12354TIP3    H258478   3.435   0.798   1.602  0.7830 -1.7053 -0.4745
12355TIP3   OH258479   0.957   1.984  15.791 -0.1013 -0.1872 -0.1457
12355TIP3    H158480   1.018   2.054  15.769 -1.1722  1.1765  1.0675
12355TIP3    H258481   0.987   1.952  15.876 -1.3632  0.9014  0.7494
12356TIP3   OH258482   6.269   3.640   0.898 -0.0871 -0.4447  0.2268
12356TIP3    H158483   6.287   3.699   0.971 -0.8214 -1.2843  1.1004
12356TIP3    H258484   6.343   3.654   0.838 -0.1859  1.2635  0.4488
12357TIP3   OH258485   5.636   0.112  15.751 -0.2697 -0.0786  0.4202
12357TIP3    H158486   5.561   0.053  15.742 -0.6689  0.3908  0.6104
12357TIP3    H258487   5.666   0.128  15.662 -0.1088 -0.6302  0.3728
12358TIP3   OH258488   0.432   4.668  11.525  0.9094 -1.1310 -0.3296
12358TIP3    H158489   0.357   4.725  11.542 -0.0120 -1.7682 -1.9989
12358TIP3    H258490   0.481   4.667  11.607  0.0880  0.7678  0.2298
12359TIP3   OH258491   0.562   0.980  14.959  0.0116  0.0222 -0.2163
12359TIP3    H158492   0.628   0.929  14.912 -0.3413  1.2665 -2.1598
12359TIP3    H258493   0.579   0.960  15.052  1.1391 -2.0262 -0.7869
12360TIP3   OH258494   4.310   1.554  15.964  0.0668 -0.0907 -0.2104
12360TIP3    H158495   4.380   1.501  16.002  0.1143 -1.4413 -2.0431
12360TIP3    H258496   4.247   1.566  16.036  0.3640 -2.1074  0.4455
12361TIP3   OH258497   2.431   1.347   2.164 -0.0435 -0.3137  0.0387
12361TIP3    H158498   2.344   1.324   2.130  0.2455 -0.5139 -0.5709
12361TIP3    H258499   2.440   1.440   2.146 -0.5036 -0.0828  0.9395
12362TIP3   OH258500   6.400   5.437   4.193  0.7176  0.0403  0.0639
12362TIP3    H158501   6.320   5.385   4.183  1.3124 -1.0547  0.8344
12362TIP3    H258502   6.382   5.517   4.144 -0.9214 -0.1030  0.3508
12363TIP3   OH258503   3.056   1.094  11.626 -0.0521  0.0095  0.5442
12363TIP3    H158504   3.008   1.105  11.544  0.8374  1.9806  0.2346
12363TIP3    H258505   3.145   1.124  11.606  1.1144 -2.6224  1.3614
12364TIP3   OH258506   2.941   0.500   0.581  0.4781 -0.6410 -0.1525
12364TIP3    H158507   2.918   0.408   0.590 -0.2291 -0.5214 -0.6928
12364TIP3    H258508   2.857   0.546   0.581  0.7382 -0.1314 -1.3240
12365TIP3   OH258509   3.947   4.985   5.368  0.1051 -0.6731 -0.0766
12365TIP3    H158510   3.914   4.902   5.332  0.3034 -0.0868 -1.6999
12365TIP3    H258511   4.026   4.961   5.415 -0.4762 -1.5562  0.4761
12366TIP3   OH258512   5.985   6.346   1.408  0.5425  0.4928 -0.2590
12366TIP3    H158513   5.912   6.401   1.436 -0.1175  1.2467 -3.1667
12366TIP3    H258514   6.062   6.401   1.419  1.1242 -0.7710  4.2124
12367TIP3   OH258515   0.020   3.997  12.897  0.3350  0.0449 -0.3670
12367TIP3    H158516   0.064   3.972  12.978  0.6746 -0.2670 -0.6440
12367TIP3    H258517  -0.053   3.937  12.889  0.5963 -0.2541 -0.5455
12368TIP3   OH258518   6.689   6.495  16.411  0.1046 -0.2166  0.3575
12368TIP3    H158519   6.692   6.400  16.429 -1.4679 -0.3551  0.0205
12368TIP3    H258520   6.659   6.501  16.320  2.6363  0.5961 -0.4999
12369TIP3   OH258521   1.569   2.382   5.271  0.1150  0.0974  0.0023
12369TIP3    H158522   1.534   2.452   5.217  0.1008  0.2848  0.2546
12369TIP3    H258523   1.617   2.427   5.341  1.6165 -0.1475 -0.8317
12370TIP3   OH258524   3.380   4.234  15.696 -0.1098  0.3367 -0.4138
12370TIP3    H158525   3.417   4.321  15.711 -1.0769  0.5533  0.8379
12370TIP3    H258526   3.449   4.187  15.649  0.5455  1.6725 -0.8484
12371TIP3   OH258527   5.488   6.033   0.355  0.2051 -0.7226  0.0259
12371TIP3    H158528   5.489   6.113   0.408 -1.4434 -0.6337 -0.0226
12371TIP3    H258529   5.569   6.035   0.305 -0.4948  1.7326 -1.1318
12372TIP3   OH258530   5.549   3.406  15.526 -0.2524 -0.4222  0.3922
12372TIP3    H158531   5.521   3.385  15.437 -2.9989  1.6193  0.6312
12372TIP3    H258532   5.506   3.339  15.580 -0.6905 -0.1855  0.3477
12373TIP3   OH258533   1.504   2.706  11.535  0.2814  0.1033 -0.4971
12373TIP3    H158534   1.585   2.723  11.583  0.6485 -0.1545 -1.0121
12373TIP3    H258535   1.446   2.778  11.559 -0.0890 -0.8046  1.4791
12374TIP3   OH258536   3.619   6.169  10.576 -0.0363 -0.0299 -0.3048
12374TIP3    H158537   3.649   6.125  10.496  1.7894 -1.3607  1.0192
12374TIP3    H258538   3.690   6.228  10.600 -0.1084 -0.3829  0.8529
12375TIP3   OH258539   6.274   5.291   1.277 -0.5250  0.2430 -0.4483
12375TIP3    H158540   6.219   5.262   1.350 -0.5483 -1.7769 -1.2235
12375TIP3    H258541   6.245   5.240   1.202 -0.7445  2.5247 -2.0209
12376TIP3   OH258542   4.927   3.755  16.989  0.3224  0.8425 -0.1202
12376TIP3    H158543   4.960   3.744  16.900 -1.4226  1.4366 -0.8834
12376TIP3    H258544   4.926   3.849  17.003  1.3252  0.7276  0.8535
12377TIP3   OH258545   6.360   0.129  12.257  0.1010 -0.2651  0.2103
12377TIP3    H158546   6.293   0.197  12.253  0.6903  0.3433  0.4389
12377TIP3    H258547   6.372   0.112  12.351 -0.2816 -0.9354  0.1479
12378TIP3   OH258548   6.656   6.400   2.854 -0.2507 -0.0407 -0.8477
12378TIP3    H158549   6.620   6.395   2.942  1.2476 -0.4810 -0.2273
12378TIP3    H258550   6.580   6.396   2.796 -1.2955  0.7494  0.4205
12379TIP3   OH258551   4.989   3.410  11.845  0.1207  0.2948  0.6353
12379TIP3    H158552   4.965   3.370  11.761 -1.4493 -0.1195  1.2586
12379TIP3    H258553   5.038   3.489  11.821 -2.4558  1.5928 -0.7712
12380TIP3   OH258554   2.746   2.386  12.973 -0.9262 -0.0789 -0.4932
12380TIP3    H158555   2.835   2.420  12.970 -1.0979  0.3443 -0.9329
12380TIP3    H258556   2.693   2.453  12.930 -1.0794 -1.5122 -2.7019
12381TIP3   OH258557   0.533   3.644   5.039  0.2894  0.0909 -0.3220
12381TIP3    H158558   0.522   3.686   4.954  1.0384 -0.7484 -0.8463
12381TIP3    H258559   0.628   3.630   5.047  0.0047 -2.2090 -0.5198
12382TIP3   OH258560   4.401   0.755   5.632  0.1897 -0.3222  0.0620
12382TIP3    H158561   4.496   0.747   5.620  0.3315 -0.2893  1.0527
12382TIP3    H258562   4.384   0.848   5.619  0.3848 -0.2299  0.4531
12383TIP3   OH258563   5.447   1.155  15.494  0.1325  0.1594  0.0656
12383TIP3    H158564   5.488   1.145  15.580  0.8992 -0.4550 -0.3547
12383TIP3    H258565   5.428   1.065  15.467  1.6549  0.1858 -1.2233
12384TIP3   OH258566   0.150   6.640   0.999 -0.5367 -0.2328 -0.0867
12384TIP3    H158567   0.237   6.603   0.982 -1.1674 -1.5677 -0.5024
12384TIP3    H258568   0.089   6.567   0.985 -1.6888  0.5331  0.7280
12385TIP3   OH258569   6.467   0.091  13.301  0.4963  0.1325  0.5942
12385TIP3    H158570   6.384   0.079  13.254  0.5913  1.1728  0.1336
12385TIP3    H258571   6.441   0.123  13.387  0.4151  0.4958  0.4362
12386TIP3   OH258572   1.718   1.877   1.096  0.4718  0.0295 -0.4925
12386TIP3    H158573   1.748   1.936   1.165 -0.5760 -1.0213  0.9026
12386TIP3    H258574   1.657   1.930   1.044  1.1183  0.7709 -0.5091
12387TIP3   OH258575   4.408   6.030  14.301 -0.2306  0.2277  0.1655
12387TIP3    H158576   4.497   6.014  14.334 -0.4619  1.1438  1.2566
12387TIP3    H258577   4.384   6.116  14.336 -1.0308  0.6224 -1.2498
12388TIP3   OH258578   3.262   3.526   5.477 -0.2252 -0.0757 -0.0652
12388TIP3    H158579   3.168   3.519   5.498 -0.3191  1.7322  0.3059
12388TIP3    H258580   3.302   3.452   5.523 -1.2930 -0.0431  0.9693
12389TIP3   OH258581   3.542   4.211  14.868  0.0475  0.1669 -0.0353
12389TIP3    H158582   3.599   4.153  14.817  0.3751  0.2865  0.1920
12389TIP3    H258583   3.473   4.236  14.806  0.0545 -0.2435 -0.2157
12390TIP3   OH258584   2.568   4.640  16.324  0.4916  0.1468  0.1969
12390TIP3    H158585   2.612   4.622  16.242  0.9517  0.4903  0.3662
12390TIP3    H258586   2.619   4.593  16.390 -0.5395 -1.0999  0.1599
12391TIP3   OH258587   2.704   1.870   5.848  0.4671  0.0585  0.1738
12391TIP3    H158588   2.626   1.825   5.881  0.5832 -0.7185 -0.6009
12391TIP3    H258589   2.751   1.804   5.798  1.6764  0.4980  0.7024
12392TIP3   OH258590   2.453   2.837  16.918  0.0422  0.1699  0.3678
12392TIP3    H158591   2.544   2.852  16.893  0.1623 -0.9230  0.0833
12392TIP3    H258592   2.440   2.743  16.905 -1.3217  0.4225 -0.2586
12393TIP3   OH258593   5.230   0.584   4.767  0.0179 -0.0842  0.0377
12393TIP3    H158594   5.265   0.554   4.851 -3.8297 -2.2471  1.1103
12393TIP3    H258595   5.182   0.664   4.788 -0.9134 -0.6015 -0.0851
12394TIP3   OH258596   0.155   4.928   0.751  0.1044 -0.1691 -0.3519
12394TIP3    H158597   0.079   4.937   0.694  0.2246  1.7936 -0.2732
12394TIP3    H258598   0.170   5.017   0.785  2.2008 -0.5773 -0.0859
12395TIP3   OH258599   2.756   1.529   3.480  0.1887  0.2428  0.0791
12395TIP3    H158600   2.829   1.483   3.438  0.1039  1.9720 -2.1301
12395TIP3    H258601   2.678   1.498   3.434 -0.2091  0.2890  0.7076
12396TIP3   OH258602   0.670   5.487   1.605 -0.1080 -0.0308  0.7098
12396TIP3    H158603   0.747   5.521   1.559 -0.0968 -1.3734 -0.3232
12396TIP3    H258604   0.654   5.551   1.674  1.7645  0.4507  0.7739
12397TIP3   OH258605   3.366   6.408   1.580 -0.2389  0.4740 -0.2692
12397TIP3    H158606   3.437   6.345   1.593 -0.3912  0.5824  1.3788
12397TIP3    H258607   3.409   6.494   1.588 -0.3263  0.5550 -0.6800
12398TIP3   OH258608   1.388   2.326  15.948 -0.1310 -0.1509 -0.5826
12398TIP3    H158609   1.425   2.374  16.022  0.5898 -1.1024 -0.3057
12398TIP3    H258610   1.367   2.240  15.984 -0.3358 -0.4230 -1.3402
12399TIP3   OH258611   1.498   5.552   6.125  0.5654  0.1335 -0.5087
12399TIP3    H158612   1.461   5.507   6.201 -0.1750 -0.0017 -0.9384
12399TIP3    H258613   1.563   5.491   6.091  2.2161  0.9211  1.0368
12400TIP3   OH258614   4.734   4.253  14.396  0.0585 -0.1536  0.3212
12400TIP3    H158615   4.767   4.309  14.465  0.3506 -1.1849  1.0420
12400TIP3    H258616   4.641   4.241  14.416 -0.0237  0.1418  0.1189
12401TIP3   OH258617   1.643   4.751   3.678 -0.1369  0.2523  0.0890
12401TIP3    H158618   1.680   4.676   3.726  1.5430 -0.3765 -2.0194
12401TIP3    H258619   1.551   4.727   3.663  0.3301 -1.3544 -0.3916
12402TIP3   OH258620   6.422   1.168  13.291  0.0932  0.8216  0.0684
12402TIP3    H158621   6.372   1.088  13.306 -0.7543  1.4388  0.6354
12402TIP3    H258622   6.473   1.150  13.212 -1.3638  0.3348 -0.7917
12403TIP3   OH258623   4.472   3.039  13.448  0.2623 -0.1317 -0.4828
12403TIP3    H158624   4.439   2.949  13.449  0.8348 -0.3834  1.6528
12403TIP3    H258625   4.394   3.093  13.434 -0.3626 -0.9034 -0.0844
12404TIP3   OH258626   4.797   6.720  17.125 -0.3125 -0.0391 -0.0092
12404TIP3    H158627   4.823   6.646  17.070  0.1328  0.2119 -0.1406
12404TIP3    H258628   4.784   6.683  17.212  1.1788 -0.0529  0.2273
12405TIP3   OH258629   3.808   0.108   0.418  0.1234  0.2453 -0.3519
12405TIP3    H158630   3.726   0.116   0.467  1.1061 -0.2010  1.4622
12405TIP3    H258631   3.833   0.016   0.427  2.2008  0.9018  1.5586
12406TIP3   OH258632   6.423   5.415  12.426  0.1371 -0.6943  0.2964
12406TIP3    H158633   6.357   5.357  12.388 -0.2877 -0.7419  1.0934
12406TIP3    H258634   6.374   5.490  12.458  0.6893  0.1330 -0.7396
12407TIP3   OH258635   0.186   3.180   3.316  0.2120  0.3390 -0.4976
12407TIP3    H158636   0.184   3.174   3.221  0.3906 -2.8385 -0.4089
12407TIP3    H258637   0.246   3.110   3.343 -0.6070  0.5017  1.9877
12408TIP3   OH258638   5.169   4.050   1.039 -0.1732  0.9008  0.0533
12408TIP3    H158639   5.181   4.145   1.035 -0.7560  0.9669 -0.2839
12408TIP3    H258640   5.105   4.036   1.108 -1.1174  0.8658 -0.8084
12409TIP3   OH258641   6.214   2.629  15.750 -0.1485  0.1134 -1.1232
12409TIP3    H158642   6.222   2.659  15.659 -1.1015  0.3213 -1.1474
12409TIP3    H258643   6.244   2.538  15.748 -0.7056 -0.0621 -1.7618
12410TIP3   OH258644   2.467   1.079  13.877  0.1739  1.1592  0.0519
12410TIP3    H158645   2.550   1.120  13.852  1.0117 -0.9656 -0.8138
12410TIP3    H258646   2.432   1.043  13.796 -0.5743  0.2448  0.7624
12411TIP3   OH258647   3.395   0.534  14.087 -0.1859  0.4525 -0.3526
12411TIP3    H158648   3.324   0.570  14.034 -0.4632 -1.6715 -1.5281
12411TIP3    H258649   3.357   0.525  14.175 -1.0218  0.3546 -0.7150
12412TIP3   OH258650   3.383   4.713   0.943 -0.2746  0.7401  0.2486
12412TIP3    H158651   3.401   4.714   0.849 -0.8031  0.7132  0.1457
12412TIP3    H258652   3.470   4.715   0.984 -0.0635  2.4481 -0.2193
12413TIP3   OH258653   2.231   0.853  16.681 -0.6154  0.3003  0.4470
12413TIP3    H158654   2.266   0.913  16.747 -0.6457  1.4862 -0.5584
12413TIP3    H258655   2.188   0.911  16.617  0.5226 -0.6692 -1.2860
12414TIP3   OH258656   4.945   3.131  11.920 -0.4412  0.5746 -0.3026
12414TIP3    H158657   4.947   3.226  11.914 -1.0147  0.5178 -2.6223
12414TIP3    H258658   4.893   3.112  11.997  0.8489  2.1040  1.0179
12415TIP3   OH258659   2.666   2.899  14.891  0.5108  0.3203  0.2453
12415TIP3    H158660   2.713   2.876  14.811 -0.7833 -0.1338 -0.4211
12415TIP3    H258661   2.657   2.994  14.887 -0.1151  0.2501 -0.5199
12416TIP3   OH258662   6.225   3.490  16.351  0.4166  0.1569 -0.2364
12416TIP3    H158663   6.294   3.528  16.406  1.5849 -1.1533 -0.7506
12416TIP3    H258664   6.272   3.446  16.280 -0.8094 -2.1782  0.2845
12417TIP3   OH258665   3.352   5.228  13.241 -0.1252 -0.4024 -0.7049
12417TIP3    H158666   3.394   5.144  13.259 -1.3767 -1.0195 -0.5800
12417TIP3    H258667   3.417   5.293  13.268 -0.8929 -1.2420  3.9375
12418TIP3   OH258668   3.301   1.248  17.278 -0.2883 -0.2303 -0.4654
12418TIP3    H158669   3.216   1.207  17.290 -0.3286 -0.1635 -0.5226
12418TIP3    H258670   3.317   1.293  17.361  0.1241 -1.0297 -0.1060
12419TIP3   OH258671   0.828   1.212   2.526  0.3957  0.7828  0.3520
12419TIP3    H158672   0.896   1.152   2.495  1.0753  2.5559 -1.8479
12419TIP3    H258673   0.876   1.285   2.563 -0.4132  0.4472  2.1583
12420TIP3   OH258674   3.956   1.800  11.629 -0.7419  0.3201 -0.0902
12420TIP3    H158675   4.045   1.833  11.643 -0.4215 -0.3033 -0.5987
12420TIP3    H258676   3.908   1.827  11.707  0.5859 -1.7315  1.5332
12421TIP3   OH258677   6.249   5.988   4.137 -0.1729 -0.5433  0.3175
12421TIP3    H158678   6.203   6.008   4.218  0.1620  4.5030 -0.4136
12421TIP3    H258679   6.334   6.030   4.146  1.3108 -2.9002 -1.4072
12422TIP3   OH258680   3.466   3.989  13.793 -0.6151  0.2561 -0.2389
12422TIP3    H158681   3.469   3.897  13.818  0.4899  0.1727 -0.6158
12422TIP3    H258682   3.389   4.024  13.838  0.0862 -0.3824  1.5645
12423TIP3   OH258683   0.401   6.193  14.614 -0.1581 -0.3653 -0.1761
12423TIP3    H158684   0.474   6.254  14.628  0.3970 -1.1398  0.4505
12423TIP3    H258685   0.323   6.246  14.623  0.2971  0.1696  0.9413
12424TIP3   OH258686   6.194   2.796  10.728  0.1943 -0.4991  0.3920
12424TIP3    H158687   6.199   2.877  10.678  0.2550 -0.7556 -0.0245
12424TIP3    H258688   6.187   2.824  10.819  0.4436 -0.0293  0.2695
12425TIP3   OH258689   4.169   1.308  13.944 -0.6952 -0.0505 -0.4042
12425TIP3    H158690   4.201   1.396  13.964  2.1222 -1.0402 -0.1601
12425TIP3    H258691   4.129   1.279  14.026 -2.5285  1.2845 -0.7604
12426TIP3   OH258692   6.284   0.687  13.505 -0.6223  0.2571  0.1062
12426TIP3    H158693   6.283   0.714  13.597 -2.1934 -1.4936  0.6684
12426TIP3    H258694   6.350   0.618  13.501 -1.8641 -0.9667  0.3580
12427TIP3   OH258695   1.023   2.312   3.149 -0.1499  0.0676 -0.3635
12427TIP3    H158696   1.014   2.264   3.231 -1.4666  0.3285 -0.3454
12427TIP3    H258697   0.997   2.250   3.081  0.0223  0.1548 -0.5128
12428TIP3   OH258698   3.139   1.212  12.851 -0.2628 -0.1863  0.8646
12428TIP3    H158699   3.176   1.190  12.765  0.3692 -0.2375  1.1403
12428TIP3    H258700   3.209   1.191  12.912 -1.3035 -1.7969  1.5694
12429TIP3   OH258701   5.812   4.655  13.811 -0.1358  0.1036  0.0413
12429TIP3    H158702   5.774   4.650  13.899  2.2159  0.6323  1.1552
12429TIP3    H258703   5.851   4.569  13.797 -0.8655 -0.1186 -0.6862
12430TIP3   OH258704   0.680   4.815  11.723  0.7722  0.5481 -0.2612
12430TIP3    H158705   0.719   4.876  11.786 -0.7277  1.7333 -0.4193
12430TIP3    H258706   0.619   4.763  11.776  1.5358 -0.3642 -0.2560
12431TIP3   OH258707   1.765   2.389  14.352 -0.8413  0.0928  0.2402
12431TIP3    H158708   1.762   2.456  14.284 -1.6432 -0.4016 -0.2342
12431TIP3    H258709   1.851   2.400  14.393 -0.4452  0.5739 -0.6821
12432TIP3   OH258710   6.415   2.121  14.300 -0.2596  0.0435  0.1457
12432TIP3    H158711   6.363   2.155  14.227  1.5109  2.0586 -0.2971
12432TIP3    H258712   6.477   2.060  14.259  1.2262  1.7257 -0.2630
12433TIP3   OH258713   6.020   5.831  15.120 -0.5663  0.0789 -0.0207
12433TIP3    H158714   6.075   5.775  15.174  0.0682  0.6773 -0.0318
12433TIP3    H258715   6.009   5.782  15.038  1.2745  0.6056 -0.6411
12434TIP3   OH258716   5.113   2.023  12.195  0.4726  0.2401 -0.2401
12434TIP3    H158717   5.153   2.100  12.155 -0.3561  0.7694 -0.0874
12434TIP3    H258718   5.142   1.949  12.140 -0.4324  0.9135 -1.6900
12435TIP3   OH258719   1.698   5.901   2.086  0.1022 -0.2053  0.4843
12435TIP3    H158720   1.638   5.894   2.012 -0.0533  0.2091  0.5686
12435TIP3    H258721   1.784   5.881   2.049  0.5608  3.0980 -0.5804
12436TIP3   OH258722   2.063   0.312   3.321 -0.0926 -0.0654  0.0298
12436TIP3    H158723   1.974   0.280   3.333  0.2111 -0.5703  1.1243
12436TIP3    H258724   2.107   0.243   3.271 -0.2204  0.0023 -0.1732
12437TIP3   OH258725   4.069   6.207  11.975  0.5862 -0.4285 -0.5160
12437TIP3    H158726   4.017   6.151  12.033 -2.1772  1.8503 -0.5393
12437TIP3    H258727   4.148   6.227  12.025  0.9979 -3.0693  0.0376
12438TIP3   OH258728   5.455   6.343  16.992 -0.4589 -0.3799  0.5242
12438TIP3    H158729   5.516   6.403  17.035 -0.6228  0.2248 -0.0805
12438TIP3    H258730   5.475   6.257  17.031 -0.6196  0.1430  1.8170
12439TIP3   OH258731   2.592   4.784  17.227  0.0223  0.9997 -0.5605
12439TIP3    H158732   2.629   4.696  17.228 -0.1655  0.9139 -0.8674
12439TIP3    H258733   2.523   4.782  17.293  0.1002  0.9508 -0.4812
12440TIP3   OH258734   1.867   6.769   6.008 -1.1996  0.0890 -0.1098
12440TIP3    H158735   1.894   6.845   5.956  0.5647 -1.4637 -1.5705
12440TIP3    H258736   1.920   6.697   5.975 -4.1044 -2.2461 -0.0704
12441TIP3   OH258737   0.820   6.023  13.251  0.6009 -0.5151  0.6836
12441TIP3    H158738   0.769   6.097  13.285  0.4628 -0.0889 -0.3900
12441TIP3    H258739   0.903   6.063  13.224 -0.7842  0.0774 -3.3602
12442TIP3   OH258740   4.803   3.816  11.925 -0.1016  0.2303  0.2556
12442TIP3    H158741   4.858   3.882  11.966  0.3143 -0.0764  0.2063
12442TIP3    H258742   4.835   3.733  11.960  0.4061 -0.0570 -0.8261
12443TIP3   OH258743   4.433   5.827  16.184  0.8865 -0.4717  0.0327
12443TIP3    H158744   4.525   5.807  16.169  1.3514  1.5547 -0.2111
12443TIP3    H258745   4.427   5.843  16.278  1.3890  1.7511 -0.2406
12444TIP3   OH258746   2.106   5.447   5.403 -0.5470  0.0693  0.1644
12444TIP3    H158747   2.011   5.457   5.398 -0.5371  0.4786  0.6932
12444TIP3    H258748   2.135   5.521   5.457  0.1673  0.4418 -0.7221
12445TIP3   OH258749   2.372   5.402   2.943  0.5152 -0.2556 -0.6130
12445TIP3    H158750   2.378   5.498   2.938 -0.6260 -0.1582 -0.3960
12445TIP3    H258751   2.340   5.385   3.032  0.0600 -0.7899 -0.8694
12446TIP3   OH258752   5.334   2.981   6.553  0.7471  0.0210  0.3265
12446TIP3    H158753   5.263   3.045   6.555  0.3669 -0.3763 -0.1587
12446TIP3    H258754   5.308   2.914   6.616  0.6093 -0.2150  0.0166
12447TIP3   OH258755   4.515   4.342  12.768 -0.1466 -0.1214  0.0498
12447TIP3    H158756   4.573   4.303  12.834  1.2411  0.4276 -0.7995
12447TIP3    H258757   4.454   4.271  12.745  0.1882 -0.7218  0.9711
12448TIP3   OH258758   3.660   4.019  11.131  0.2404 -0.0342 -0.0634
12448TIP3    H158759   3.573   3.992  11.161  0.5834 -0.0717  0.9116
12448TIP3    H258760   3.655   4.114  11.122  0.4203  0.0902  1.0762
12449TIP3   OH258761   5.479   0.079   1.492  0.2326 -0.5762  0.4171
12449TIP3    H158762   5.484   0.075   1.588 -0.4262  0.1351  0.4899
12449TIP3    H258763   5.393   0.117   1.474  0.2888 -0.8537 -0.4663
12450TIP3   OH258764   0.281   1.856  15.765 -0.0775 -0.1810 -0.4050
12450TIP3    H158765   0.266   1.920  15.696  0.1356 -0.5495 -0.7923
12450TIP3    H258766   0.351   1.895  15.818  1.2823 -0.8562 -1.6306
12451TIP3   OH258767   5.218   0.469   1.455  0.0395 -0.1121  0.1086
12451TIP3    H158768   5.158   0.407   1.414 -0.1595  0.6792 -0.8612
12451TIP3    H258769   5.169   0.507   1.527 -0.0621 -0.6168  0.3054
12452TIP3   OH258770   1.169   5.725  11.932  0.3051 -0.3833  0.8348
12452TIP3    H158771   1.194   5.711  12.023  0.6546 -0.8983  0.6632
12452TIP3    H258772   1.076   5.748  11.935  0.8833  2.2589  1.5650
12453TIP3   OH258773   5.873   6.620   5.925  0.0517 -0.1819  0.1271
12453TIP3    H158774   5.800   6.573   5.887  0.2156  1.5026 -2.5242
12453TIP3    H258775   5.951   6.571   5.898  0.0785  0.1660 -0.4552
12454TIP3   OH258776   4.845   2.766   3.838 -0.2953  0.4621 -0.3737
12454TIP3    H158777   4.877   2.675   3.845 -3.1876 -0.5633  1.1658
12454TIP3    H258778   4.849   2.799   3.928  1.7786  2.3643 -1.0709
12455TIP3   OH258779   2.660   5.525   4.476  0.2209 -0.2742  0.2884
12455TIP3    H158780   2.675   5.430   4.482 -1.3470 -0.5048  1.0201
12455TIP3    H258781   2.578   5.539   4.522 -0.1586  1.2987 -0.7878
12456TIP3   OH258782   0.090   1.623  14.269  0.9926 -0.4166  0.1393
12456TIP3    H158783  -0.003   1.626  14.246  0.7360 -0.9664  1.0733
12456TIP3    H258784   0.135   1.636  14.185  0.0988  1.2440 -0.1346
12457TIP3   OH258785   2.619   0.918   0.635 -0.2365 -0.3529 -0.4958
12457TIP3    H158786   2.559   0.860   0.684  0.0423 -1.5135 -1.4776
12457TIP3    H258787   2.664   0.859   0.575  1.4035  0.6259 -0.2584
12458TIP3   OH258788   6.566   2.364  15.852 -0.6533 -0.6524 -0.6268
12458TIP3    H158789   6.504   2.430  15.884 -1.2327 -1.4616 -0.0211
12458TIP3    H258790   6.613   2.335  15.930  1.3100  0.7388 -1.2388
12459TIP3   OH258791   3.177   3.844   0.903 -0.0576  0.6465  0.2317
12459TIP3    H158792   3.158   3.766   0.955  2.0081 -1.0820 -1.3991
12459TIP3    H258793   3.122   3.835   0.825  0.2240  0.7365  0.0164
12460TIP3   OH258794   0.766   2.105  11.051 -0.7275  0.0193 -0.4016
12460TIP3    H158795   0.780   2.033  11.112 -0.3633  0.9858  0.6809
12460TIP3    H258796   0.773   2.065  10.965  1.7195 -0.8390  0.1350
12461TIP3   OH258797   0.312   0.110   5.664 -0.1733  0.0839  0.3339
12461TIP3    H158798   0.270   0.151   5.588  0.2923 -2.2940 -1.3191
12461TIP3    H258799   0.269   0.149   5.740 -2.5051  0.6756 -1.1936
12462TIP3   OH258800   4.841   4.074  14.826  0.0968  0.1639  0.8072
12462TIP3    H158801   4.852   4.068  14.731 -0.0484  1.8045  0.6614
12462TIP3    H258802   4.748   4.094  14.838  0.4325  1.5586  1.1969
12463TIP3   OH258803   3.854   4.376  13.130  0.0977  0.7074  0.3568
12463TIP3    H158804   3.858   4.282  13.116 -2.1028  0.7832 -1.2775
12463TIP3    H258805   3.765   4.392  13.163 -1.0772  2.4964 -3.0875
12464TIP3   OH258806   0.762   0.923  14.432  0.5138 -0.4540  0.0349
12464TIP3    H158807   0.710   0.962  14.362 -0.0244 -1.3378 -0.0713
12464TIP3    H258808   0.778   0.995  14.494  1.6182  0.5188 -1.3171
12465TIP3   OH258809   1.095   6.212  14.446  0.4086  0.4237 -0.1106
12465TIP3    H158810   1.034   6.154  14.491  1.2289 -0.0649  0.3973
12465TIP3    H258811   1.137   6.157  14.381  1.9669  0.1167  1.0813
12466TIP3   OH258812   0.183   4.910   3.740 -0.1336  0.0316 -0.0894
12466TIP3    H158813   0.268   4.911   3.785 -0.5289  1.0561  0.6831
12466TIP3    H258814   0.204   4.923   3.648  0.5619  0.1023  0.0725
12467TIP3   OH258815   2.940   5.111   5.746 -0.0079  0.5020  0.0045
12467TIP3    H158816   2.966   5.204   5.747 -0.7764  0.7268  0.6767
12467TIP3    H258817   2.938   5.086   5.838  0.6384 -0.3252 -0.1957
12468TIP3   OH258818   2.279   2.731  15.895  0.5174  0.0730 -0.4938
12468TIP3    H158819   2.265   2.824  15.912  0.1518 -0.1436  0.4816
12468TIP3    H258820   2.317   2.697  15.976 -0.6546 -0.8945 -0.3116
12469TIP3   OH258821   1.465   4.035   3.580  0.0674  0.0605  0.0510
12469TIP3    H158822   1.506   4.122   3.582 -0.2614  0.3088 -1.7194
12469TIP3    H258823   1.539   3.974   3.575  0.2817  0.2966  0.2881
12470TIP3   OH258824   5.004   2.511   4.547 -0.1411  0.2922 -0.4542
12470TIP3    H158825   4.929   2.532   4.602 -0.1136  0.6221 -0.5433
12470TIP3    H258826   5.004   2.578   4.480  0.4143  0.4727 -0.2780
12471TIP3   OH258827   1.707   3.646  11.752 -0.0772 -0.3413 -0.6805
12471TIP3    H158828   1.777   3.581  11.760  0.8015  0.1931 -3.2076
12471TIP3    H258829   1.752   3.730  11.758 -1.2218  0.1752  2.7352
12472TIP3   OH258830   0.046   1.833   4.587 -0.0153 -0.6784  0.0556
12472TIP3    H158831   0.123   1.828   4.643  1.0614  0.6517 -1.2003
12472TIP3    H258832  -0.020   1.876   4.641  0.9472  0.4480  0.3930
12473TIP3   OH258833   4.614   1.096   1.064  0.0388  0.0518 -0.3958
12473TIP3    H158834   4.588   1.164   1.126  0.0778 -0.6215  0.3752
12473TIP3    H258835   4.532   1.055   1.038 -0.0053  0.5390 -1.0428
12474TIP3   OH258836   6.085   6.432  11.680 -0.3602 -0.3344  0.0534
12474TIP3    H158837   6.109   6.362  11.618  1.9664  0.1961  0.2702
12474TIP3    H258838   6.167   6.476  11.700 -1.5111  1.4102  1.2628
12475TIP3   OH258839   3.370   3.741   2.750 -0.5960 -0.4069 -0.0791
12475TIP3    H158840   3.356   3.752   2.656 -1.2682 -1.9419 -0.1869
12475TIP3    H258841   3.447   3.794   2.769 -0.2119 -0.3877 -1.5702
12476TIP3   OH258842   0.440   4.990  13.935 -0.4938 -0.4617  0.3425
12476TIP3    H158843   0.370   4.934  13.969 -1.7077 -0.3318 -1.8070
12476TIP3    H258844   0.449   5.059  14.001 -1.9818 -0.8080  0.9506
12477TIP3   OH258845   5.599   2.915   2.017 -0.6526 -0.2112  0.1370
12477TIP3    H158846   5.679   2.960   2.042  0.0527 -1.8447  0.9153
12477TIP3    H258847   5.545   2.915   2.096 -0.1649 -1.7136  0.4888
12478TIP3   OH258848   1.756   2.916   5.255 -0.1237  0.3458  0.0323
12478TIP3    H158849   1.741   2.877   5.341 -0.5763 -2.1878 -1.0936
12478TIP3    H258850   1.670   2.950   5.228 -0.4840 -0.7009 -0.2122
12479TIP3   OH258851   0.680   5.720   6.321 -0.4196  0.5547  1.0604
12479TIP3    H158852   0.677   5.814   6.338 -0.2233  0.7361  0.1458
12479TIP3    H258853   0.769   5.695   6.348 -0.1090  0.8383  0.3313
12480TIP3   OH258854   5.129   3.341   4.723 -0.1185 -0.5233 -0.3890
12480TIP3    H158855   5.221   3.333   4.746 -0.1840 -1.3962 -0.3897
12480TIP3    H258856   5.126   3.413   4.660  0.4222  0.1260  0.3128
12481TIP3   OH258857   3.540   4.644   0.506  0.1856 -0.5036 -0.0289
12481TIP3    H158858   3.526   4.549   0.496  2.2704 -0.7505 -0.9750
12481TIP3    H258859   3.509   4.682   0.424  1.6605 -0.6822 -0.7038
12482TIP3   OH258860   6.600   4.964   0.997 -0.1676 -0.7742  0.3567
12482TIP3    H158861   6.657   4.931   1.066 -0.4137  0.8158  1.3702
12482TIP3    H258862   6.516   4.921   1.012 -0.5917  0.5287  1.8827
12483TIP3   OH258863   6.738   4.315   2.329 -0.2894 -0.2699 -0.6058
12483TIP3    H158864   6.788   4.260   2.268 -0.0666 -0.9625  0.1798
12483TIP3    H258865   6.751   4.273   2.414 -1.4558  0.0888 -0.2441
12484TIP3   OH258866   2.227   5.027   0.644  0.7786 -0.4206 -0.1275
12484TIP3    H158867   2.308   4.978   0.634 -0.7580 -2.9243 -1.2829
12484TIP3    H258868   2.210   5.026   0.738  1.4203 -1.0114 -0.0048
12485TIP3   OH258869   5.835   0.402  11.699  0.2594  0.1230 -0.0355
12485TIP3    H158870   5.770   0.362  11.757  0.1118 -1.3876 -1.1501
12485TIP3    H258871   5.920   0.375  11.736  0.2440  1.1330  0.7718
12486TIP3   OH258872   3.531   0.381   1.791  0.0081 -0.1191  0.2029
12486TIP3    H158873   3.535   0.286   1.780  0.9294 -0.0926  0.2405
12486TIP3    H258874   3.538   0.416   1.703 -0.9603 -0.0905  0.1273
12487TIP3   OH258875   0.496   1.009  16.504  0.4580 -0.3317  0.3652
12487TIP3    H158876   0.494   1.071  16.578 -0.1620  1.4489 -1.0754
12487TIP3    H258877   0.577   1.028  16.459  0.7534 -1.3055  0.4609
12488TIP3   OH258878   2.349   0.207  13.767 -0.6110 -0.1176 -0.3121
12488TIP3    H158879   2.392   0.240  13.688 -2.6299  1.9932 -0.6483
12488TIP3    H258880   2.417   0.207  13.834  0.7140 -0.2601 -1.6264
12489TIP3   OH258881   3.912   4.053   3.779  0.4279 -0.4229 -0.8227
12489TIP3    H158882   3.999   4.073   3.745  0.0655  0.1788 -1.4107
12489TIP3    H258883   3.873   3.995   3.713  0.1688 -0.2216 -0.8484
12490TIP3   OH258884   6.119   5.725   1.376  0.6161  0.4160 -0.3200
12490TIP3    H158885   6.183   5.665   1.414  1.8502  2.4793  1.0901
12490TIP3    H258886   6.112   5.796   1.441 -1.2532  1.4614 -1.5860
12491TIP3   OH258887   4.939   4.336   0.918 -0.1214 -0.1161  0.5095
12491TIP3    H158888   5.033   4.350   0.908 -0.3619  0.6778 -0.9749
12491TIP3    H258889   4.920   4.259   0.864 -0.5931  0.8568 -0.7515
12492TIP3   OH258890   3.916   4.208   4.952 -0.6797 -0.8279  0.4991
12492TIP3    H158891   3.931   4.124   4.908  0.6569  0.1796 -1.0828
12492TIP3    H258892   3.886   4.267   4.883  1.5623  0.8333  0.8304
12493TIP3   OH258893   0.287   3.003   2.897  0.1504  0.2191 -0.0524
12493TIP3    H158894   0.363   2.963   2.940  0.0819  1.4377  1.2649
12493TIP3    H258895   0.302   2.987   2.804  1.8047  0.0613  0.2027
12494TIP3   OH258896   2.969   2.214  12.786  0.2011 -0.2108 -0.2659
12494TIP3    H158897   2.992   2.288  12.729  0.5440 -0.5039 -0.5151
12494TIP3    H258898   3.053   2.189  12.826  0.0393 -0.2974  0.0205
12495TIP3   OH258899   2.918   1.590  13.747 -0.8628  0.4573 -0.8713
12495TIP3    H158900   2.873   1.673  13.730  0.5073  0.9851 -2.0982
12495TIP3    H258901   2.920   1.583  13.842 -2.0088  1.2373 -0.7634
12496TIP3   OH258902   0.291   3.012  11.727  0.4262 -0.3505 -0.1207
12496TIP3    H158903   0.314   3.088  11.674 -0.1430 -0.2592 -0.2440
12496TIP3    H258904   0.195   3.015  11.734  0.3450 -1.3034 -0.5279
12497TIP3   OH258905   2.105   6.773   4.093 -0.5721 -0.5632  0.7826
12497TIP3    H158906   2.097   6.724   4.175 -1.0415 -0.5220  0.7647
12497TIP3    H258907   2.135   6.709   4.029  1.4916 -0.2303  1.3481
12498TIP3   OH258908   6.187   0.937  15.800 -0.3395  0.3946  0.5016
12498TIP3    H158909   6.282   0.933  15.813  0.0306  0.9994 -1.5874
12498TIP3    H258910   6.157   1.006  15.860  0.9051  1.7741 -0.4059
12499TIP3   OH258911   0.813   0.302   0.541  0.1416  0.0984 -0.6619
12499TIP3    H158912   0.786   0.231   0.482  0.5749 -0.5247 -0.1218
12499TIP3    H258913   0.762   0.287   0.621 -1.5339  1.7823 -1.3429
12500TIP3   OH258914   3.844   5.408   4.344 -0.0254  0.0901 -0.3013
12500TIP3    H158915   3.841   5.503   4.334 -0.8161  0.3404  1.9005
12500TIP3    H258916   3.817   5.375   4.258  2.0254  1.7620 -1.7008
12501TIP3   OH258917   3.654   1.058  10.918 -0.6388  0.2452 -0.5317
12501TIP3    H158918   3.729   1.117  10.926  0.0969 -0.6206 -0.8635
12501TIP3    H258919   3.680   0.994  10.852 -1.1293 -0.8648  0.3005
12502TIP3   OH258920   4.895   5.058  13.986  0.0870  0.4261 -0.1353
12502TIP3    H158921   4.905   5.153  13.994  0.8848  0.2513  1.2341
12502TIP3    H258922   4.878   5.028  14.075 -1.5500 -0.5985 -0.7391
12503TIP3   OH258923   0.248   1.939  16.101 -0.1758  0.1670  0.4276
12503TIP3    H158924   0.287   1.917  16.185 -1.1914 -1.0655  0.6019
12503TIP3    H258925   0.319   1.930  16.038  0.4586  0.5676  1.0733
12504TIP3   OH258926   5.833   5.770  16.745  0.5422  0.0080 -0.2064
12504TIP3    H158927   5.793   5.748  16.830  3.0587 -2.1148  0.5945
12504TIP3    H258928   5.766   5.819  16.699 -1.5555 -0.1619  2.3871
12505TIP3   OH258929   3.631   3.195  17.239  0.2228 -0.6276 -0.4059
12505TIP3    H158930   3.708   3.229  17.285  0.4344 -0.0729 -1.1544
12505TIP3    H258931   3.666   3.131  17.178  0.1663  0.1057 -1.2148
12506TIP3   OH258932   2.893   5.462  12.809 -0.2838 -0.3325  0.4674
12506TIP3    H158933   2.885   5.376  12.849  3.0528 -0.3425  1.3969
12506TIP3    H258934   2.866   5.523  12.878 -1.3141 -0.5715  0.2824
12507TIP3   OH258935   0.946   5.470  12.152  0.5006 -0.2704  0.0781
12507TIP3    H158936   1.006   5.417  12.100 -1.2970  0.3173 -2.8472
12507TIP3    H258937   0.862   5.426  12.143 -0.9334  2.5540 -1.9440
12508TIP3   OH258938   4.244   6.180  10.635  1.1120  0.2825  0.5518
12508TIP3    H158939   4.173   6.141  10.685 -0.2974 -0.0520 -1.5530
12508TIP3    H258940   4.201   6.247  10.581  2.7180  1.4193  0.6005
12509TIP3   OH258941   1.937   1.686  11.190  0.5517 -0.6679 -0.5642
12509TIP3    H158942   1.869   1.754  11.186  0.9964  0.1638  2.6972
12509TIP3    H258943   1.986   1.696  11.108 -0.8062  1.4309 -1.2063
12510TIP3   OH258944   3.888   3.218  14.581  0.0452  0.2366 -0.2310
12510TIP3    H158945   3.894   3.133  14.624 -0.0851 -0.1963 -1.0678
12510TIP3    H258946   3.944   3.275  14.635 -0.0795 -0.2986  0.4871
12511TIP3   OH258947   5.750   6.052   3.948  0.3344 -0.4492 -0.2033
12511TIP3    H158948   5.812   5.981   3.962  0.8331  0.0035 -0.0841
12511TIP3    H258949   5.796   6.131   3.978 -0.8636 -0.3052  1.4278
12512TIP3   OH258950   2.884   1.757  12.418  0.1948 -0.3430  0.3827
12512TIP3    H158951   2.931   1.674  12.419 -1.0467 -1.0699  1.5810
12512TIP3    H258952   2.936   1.815  12.473  0.2127 -0.8282  0.8816
12513TIP3   OH258953   3.723   6.545   3.934 -0.5086  0.6662  0.0847
12513TIP3    H158954   3.704   6.635   3.909  1.2233  0.9320 -0.4234
12513TIP3    H258955   3.704   6.493   3.856  0.9349  0.9647 -0.5107
12514TIP3   OH258956   5.186   6.310   5.574  0.0896  0.5277  0.3562
12514TIP3    H158957   5.143   6.341   5.494 -0.4124  1.7122  1.0578
12514TIP3    H258958   5.272   6.351   5.572  0.1178  0.4678  0.3611
12515TIP3   OH258959   4.839   0.543   3.976 -0.0161  0.2223 -0.3435
12515TIP3    H158960   4.917   0.491   3.955  0.3963  0.7283 -0.1044
12515TIP3    H258961   4.786   0.484   4.030  1.1537  0.5209  1.2294
12516TIP3   OH258962   5.955   2.773  13.518 -0.3577  0.1187 -0.5493
12516TIP3    H158963   5.926   2.735  13.436 -1.3896 -1.9192  0.6979
12516TIP3    H258964   6.017   2.710  13.554  0.9819  1.5241 -0.2411
12517TIP3   OH258965   5.127   4.885   3.918  0.2650 -0.1104 -0.4187
12517TIP3    H158966   5.074   4.964   3.907 -0.2374 -0.4359 -0.3739
12517TIP3    H258967   5.210   4.905   3.875 -0.6526 -0.3647 -2.4332
12518TIP3   OH258968   2.670   3.580  15.815  0.0594 -0.1945 -0.1642
12518TIP3    H158969   2.585   3.548  15.846  0.0688 -0.6998 -0.6345
12518TIP3    H258970   2.674   3.551  15.723  0.8614 -0.4354 -0.0576
12519TIP3   OH258971   3.842   2.614  15.876  0.6551  0.4015  0.1275
12519TIP3    H158972   3.759   2.567  15.868  0.7038  0.4764 -0.9449
12519TIP3    H258973   3.861   2.644  15.787  2.5164 -0.7877  0.0595
12520TIP3   OH258974   0.398   3.328  14.159 -0.3804  0.2632  0.1439
12520TIP3    H158975   0.418   3.376  14.078 -1.0300  0.7112  0.2411
12520TIP3    H258976   0.464   3.259  14.162 -1.1165 -0.5745 -1.4520
12521TIP3   OH258977   5.319   1.277  14.676 -0.0938 -0.1568  0.2098
12521TIP3    H158978   5.244   1.322  14.637 -0.4601  0.2093  1.3237
12521TIP3    H258979   5.281   1.218  14.741  0.5290 -0.6678  0.1264
12522TIP3   OH258980   0.908   3.048   3.317  0.2062  0.1942 -0.1557
12522TIP3    H158981   0.855   2.970   3.334 -0.2060  0.5671  0.3201
12522TIP3    H258982   0.998   3.021   3.336 -0.1053  0.2529  1.5076
12523TIP3   OH258983   6.392   1.608   4.644  0.3362 -0.7223  0.3896
12523TIP3    H158984   6.441   1.537   4.601  2.8031  1.4149 -0.6546
12523TIP3    H258985   6.400   1.682   4.583 -1.6718  0.6376  1.6578
12524TIP3   OH258986   3.040   1.421  14.233  0.6196  0.0361 -0.4091
12524TIP3    H158987   3.021   1.391  14.322 -0.1588 -2.1881 -1.2698
12524TIP3    H258988   3.113   1.366  14.205  0.1633 -0.0073 -1.5204
12525TIP3   OH258989   2.916   3.063  16.873  0.2616 -0.3568 -0.1133
12525TIP3    H158990   2.987   3.020  16.921  0.9995 -0.0728 -0.9283
12525TIP3    H258991   2.950   3.074  16.784 -1.1888 -1.1203 -0.7940
12526TIP3   OH258992   0.959   3.886  14.433  0.5956  0.5007 -0.5917
12526TIP3    H158993   1.042   3.842  14.450 -0.3205 -0.8064  0.7831
12526TIP3    H258994   0.914   3.829  14.370 -0.8738 -1.0650  1.6913
12527TIP3   OH258995   1.135   6.024   4.998 -0.1800 -0.0711 -0.0071
12527TIP3    H158996   1.173   5.952   4.948  0.2179 -0.8041  1.3152
12527TIP3    H258997   1.044   5.997   5.012 -0.7958  0.9354 -1.7732
12528TIP3   OH258998   1.721   2.318  15.427 -0.5405  0.2908 -0.2125
12528TIP3    H158999   1.719   2.266  15.507  0.4180  1.9487  0.9505
12528TIP3    H259000   1.813   2.316  15.400 -0.5729  0.9955 -0.3933
12529TIP3   OH259001   5.340   3.362  11.138  0.4898  0.5200 -0.0396
12529TIP3    H159002   5.422   3.312  11.138  0.7156  0.8817  0.3757
12529TIP3    H259003   5.368   3.453  11.145  0.1926  0.9431 -3.0782
12530TIP3   OH259004   2.081   6.004   1.266 -0.5722 -0.7963  0.9239
12530TIP3    H159005   2.103   5.994   1.174  2.5667 -1.8510  1.6623
12530TIP3    H259006   2.050   6.094   1.273 -0.0290 -0.4076 -1.0397
12531TIP3   OH259007   6.313   5.928  13.616  0.2323  0.1703 -0.4366
12531TIP3    H159008   6.365   5.854  13.585  0.0427 -0.2793  0.3069
12531TIP3    H259009   6.361   6.005  13.585  0.8344 -0.2524 -0.5752
12532TIP3   OH259010   2.014   6.280   0.946 -0.1130  0.5428 -0.4398
12532TIP3    H159011   2.058   6.339   1.007 -2.2003  3.1830 -1.2992
12532TIP3    H259012   2.005   6.331   0.866  0.8222 -2.1476 -2.4028
12533TIP3   OH259013   1.313   2.594   2.959 -0.3666  0.3940 -0.6460
12533TIP3    H159014   1.325   2.685   2.987 -1.1348  0.4439 -0.4650
12533TIP3    H259015   1.326   2.542   3.038  1.9223  0.1777 -1.0950
12534TIP3   OH259016   4.659   0.627   1.188 -0.4373  0.6292  0.1773
12534TIP3    H159017   4.618   0.550   1.149 -0.6777  1.9709 -2.4861
12534TIP3    H259018   4.753   0.609   1.184 -0.5336  0.0709  0.4698
12535TIP3   OH259019   6.690   6.521   0.604 -0.0187  0.5581  0.3626
12535TIP3    H159020   6.674   6.614   0.622  0.7315  0.8861 -0.6191
12535TIP3    H259021   6.683   6.512   0.509  0.7858 -0.2162  0.3583
12536TIP3   OH259022   1.757   5.947   3.926 -0.3713  0.8961  0.2636
12536TIP3    H159023   1.755   6.042   3.938 -2.0665  1.0475 -0.8829
12536TIP3    H259024   1.703   5.931   3.849 -0.3160 -1.0303  0.5695
12537TIP3   OH259025   4.077   0.854  14.675 -0.1638 -0.1794  0.3768
12537TIP3    H159026   4.005   0.905  14.710 -1.8662 -0.7833 -2.0218
12537TIP3    H259027   4.070   0.769  14.719 -1.0769 -0.3163 -0.0262
12538TIP3   OH259028   2.361   0.600  11.747 -0.5509 -0.3433 -0.4365
12538TIP3    H159029   2.265   0.599  11.745 -0.5416 -0.7473 -1.4951
12538TIP3    H259030   2.384   0.685  11.708 -0.4874 -1.0184 -1.9592
12539TIP3   OH259031   4.724   5.375   4.310 -0.4508 -0.0157  0.2532
12539TIP3    H159032   4.763   5.395   4.395 -0.0310 -0.6864  0.2230
12539TIP3    H259033   4.637   5.414   4.314 -0.0469  0.8824  0.5887
12540TIP3   OH259034   2.792   1.014  12.126  0.2351 -0.4973  0.2300
12540TIP3    H159035   2.861   0.990  12.189  1.3674  0.1725 -0.7145
12540TIP3    H259036   2.830   0.994  12.040 -0.5366  0.4029 -0.3374
12541TIP3   OH259037   2.411   3.682  16.285 -0.3458 -0.0980 -0.0657
12541TIP3    H159038   2.386   3.701  16.195  0.6257  0.3345 -0.2583
12541TIP3    H259039   2.500   3.648  16.279  1.3508  3.5578  0.9675
12542TIP3   OH259040   4.224   6.186   5.034 -0.0048 -0.1152 -0.0985
12542TIP3    H159041   4.198   6.188   4.942 -0.0003 -1.7308 -0.1657
12542TIP3    H259042   4.190   6.102   5.066  0.9351 -0.0673  1.0824
12543TIP3   OH259043   4.270   2.300   3.473 -0.2310  0.6319 -0.1192
12543TIP3    H159044   4.360   2.279   3.447 -0.4128  0.4563 -0.6062
12543TIP3    H259045   4.253   2.386   3.434 -0.5282  0.3350 -0.6620
12544TIP3   OH259046   1.918   2.639   4.557  0.2531  0.0581 -0.8530
12544TIP3    H159047   1.946   2.650   4.648 -1.5685 -1.0617 -0.1126
12544TIP3    H259048   1.833   2.682   4.552 -0.7231 -1.8172 -1.3880
12545TIP3   OH259049   6.035   1.167   4.324 -0.4645  0.1398 -0.0679
12545TIP3    H159050   6.047   1.072   4.323 -2.1714 -0.0981 -1.0465
12545TIP3    H259051   6.118   1.201   4.359 -0.3208 -1.7578  1.5864
12546TIP3   OH259052   5.215   4.241   2.250  0.2955 -0.1793  0.5058
12546TIP3    H159053   5.289   4.277   2.299  2.3868 -1.4597 -1.4904
12546TIP3    H259054   5.156   4.315   2.237  0.9610  0.7856  2.5889
12547TIP3   OH259055   1.318   4.209   3.363 -0.1897 -0.2081  0.0119
12547TIP3    H159056   1.345   4.151   3.434 -0.8226  0.7883  1.1072
12547TIP3    H259057   1.223   4.219   3.376  0.1437  2.4810  0.9869
12548TIP3   OH259058   2.986   2.014   4.937 -0.0128 -0.1126  0.1259
12548TIP3    H159059   2.967   1.966   5.018  0.0053 -0.3361 -0.0012
12548TIP3    H259060   2.908   2.000   4.883 -0.3107  0.5930  0.3638
12549TIP3   OH259061   6.167   2.249   2.001  0.3220 -0.3715 -0.4083
12549TIP3    H159062   6.101   2.266   1.934 -0.2855 -2.0778 -0.2808
12549TIP3    H259063   6.204   2.335   2.020 -0.8517  0.4177 -1.5253
12550TIP3   OH259064   2.799   4.771   2.427 -0.1774 -0.1493  0.0275
12550TIP3    H159065   2.867   4.838   2.417  0.9147 -1.3407 -0.8290
12550TIP3    H259066   2.755   4.767   2.343 -1.8659  1.1304  0.7929
12551TIP3   OH259067   3.529   5.105   4.890  0.3159  0.1516  0.6897
12551TIP3    H159068   3.500   5.151   4.969  2.2940  1.2839  0.8331
12551TIP3    H259069   3.500   5.161   4.817 -0.7879 -0.4763  0.6216
12552TIP3   OH259070   3.040   0.713   0.413 -0.8055 -0.5187 -0.2593
12552TIP3    H159071   3.002   0.643   0.467  0.4636 -0.3364  0.9387
12552TIP3    H259072   3.128   0.724   0.448 -1.9577  3.9458  1.9227
12553TIP3   OH259073   6.248   0.652   2.794  0.4341 -0.9857 -1.1440
12553TIP3    H159074   6.295   0.622   2.716  1.9253 -3.2421  0.5009
12553TIP3    H259075   6.316   0.672   2.858 -0.7243  1.5396 -0.5606
12554TIP3   OH259076   1.787   2.621   1.957  0.0439 -0.0107 -0.1359
12554TIP3    H159077   1.813   2.655   2.043 -1.1866  2.1515 -0.5324
12554TIP3    H259078   1.750   2.697   1.912  0.9270 -1.0053 -2.7205
12555TIP3   OH259079   2.104   5.571   1.628  0.4693  0.0433  0.0399
12555TIP3    H159080   2.077   5.505   1.691 -3.9576  1.4805 -0.0075
12555TIP3    H259081   2.139   5.643   1.682 -1.8774  0.6483  0.8985
12556TIP3   OH259082   5.967   2.995   4.530 -0.5080 -0.3568  0.8157
12556TIP3    H159083   6.050   3.007   4.578  1.2184  2.2808 -2.4071
12556TIP3    H259084   5.910   3.064   4.564  0.3464  0.8282 -0.0293
12557TIP3   OH259085   5.115   3.969   3.135 -0.4448 -0.3303 -0.1813
12557TIP3    H159086   5.031   4.013   3.127  0.4406  1.5139  0.2272
12557TIP3    H259087   5.135   3.972   3.229 -0.5408 -2.0064 -0.0776
12558TIP3   OH259088   3.690   1.924   0.676 -0.0254 -0.3006  0.4030
12558TIP3    H159089   3.742   1.845   0.683  1.4679  0.5392 -0.7632
12558TIP3    H259090   3.626   1.905   0.608  0.5738 -0.3814 -0.1425
12559TIP3   OH259091   0.139   5.091   5.490 -0.5610 -0.3771  0.1522
12559TIP3    H159092   0.116   5.030   5.560 -0.5328 -1.3806 -0.6920
12559TIP3    H259093   0.114   5.047   5.409  3.4757 -1.2939 -0.8547
12560TIP3   OH259094   6.364   0.010  11.400 -0.1691 -0.1702 -0.5617
12560TIP3    H159095   6.268   0.010  11.403 -0.3004  2.7093 -1.6590
12560TIP3    H259096   6.388   0.101  11.415  2.2498 -0.3201 -2.8826
12561TIP3   OH259097   6.002   2.019  14.629 -0.4425 -0.0682 -0.1694
12561TIP3    H159098   6.013   2.056  14.717  1.0973  0.7033 -0.6620
12561TIP3    H259099   5.914   1.981  14.631 -0.9162  0.9853  1.3237
12562TIP3   OH259100   2.380   0.319  17.220  0.4295  0.4333 -0.1645
12562TIP3    H159101   2.341   0.401  17.189 -4.5055 -1.4833  0.0650
12562TIP3    H259102   2.363   0.318  17.314  2.2752 -0.0416  0.1965
12563TIP3   OH259103   2.404   1.902   0.591  0.1899 -0.1415  0.1066
12563TIP3    H159104   2.436   1.813   0.609 -0.8514 -0.4991  0.2697
12563TIP3    H259105   2.465   1.959   0.639 -0.3558 -0.8951  1.7899
12564TIP3   OH259106   1.392   4.589   2.066 -0.4348 -0.5478  0.0160
12564TIP3    H159107   1.383   4.514   2.008  2.4273 -2.8658  2.2579
12564TIP3    H259108   1.321   4.579   2.129 -1.5066  0.0710 -1.0493
12565TIP3   OH259109   0.358   4.875  16.141 -0.0903  0.3366 -0.6106
12565TIP3    H159110   0.310   4.946  16.097  1.8021  1.0138 -1.7197
12565TIP3    H259111   0.418   4.842  16.075 -0.3321 -1.7729  0.1545
12566TIP3   OH259112   0.116   3.682  10.693 -0.1064  0.1171  0.2258
12566TIP3    H159113   0.143   3.769  10.665  0.1515  0.0908  0.3843
12566TIP3    H259114   0.184   3.655  10.756 -0.3115 -0.0982  0.3572
12567TIP3   OH259115   3.182   2.459   3.382  0.6978 -0.3892  0.2783
12567TIP3    H159116   3.202   2.552   3.392  0.8375 -0.5169  1.2606
12567TIP3    H259117   3.238   2.431   3.309 -0.0669  0.4956 -0.6825
12568TIP3   OH259118   0.491   1.749   5.155  0.2731  0.4727 -0.3539
12568TIP3    H159119   0.558   1.807   5.118  1.5040 -0.7178 -0.0648
12568TIP3    H259120   0.491   1.767   5.249  0.5946  0.0878 -0.2759
12569TIP3   OH259121   1.349   4.697  13.423  0.0719 -0.7435 -0.4506
12569TIP3    H159122   1.266   4.665  13.457 -0.9393  0.4738 -1.6718
12569TIP3    H259123   1.369   4.639  13.350  0.7142 -1.5096  0.3147
12570TIP3   OH259124   4.584   2.102  17.376  0.5401 -0.1276 -0.5997
12570TIP3    H159125   4.662   2.156  17.386  0.2785  0.0352  0.7419
12570TIP3    H259126   4.511   2.164  17.384  0.2519 -0.5366  0.0372
12571TIP3   OH259127   5.105   4.543   4.229 -0.5228 -0.4989 -0.7063
12571TIP3    H159128   5.178   4.489   4.257 -0.7147 -0.7004 -0.5939
12571TIP3    H259129   5.124   4.563   4.137  0.4945  0.7994 -0.2444
12572TIP3   OH259130   2.359   0.915   1.709 -0.2329 -0.5766  0.2069
12572TIP3    H159131   2.272   0.939   1.741 -0.4083 -2.0835  0.9643
12572TIP3    H259132   2.366   0.958   1.624 -1.3780  0.2553  0.5003
12573TIP3   OH259133   0.714   4.184   0.909  0.5950 -0.6197  0.1395
12573TIP3    H159134   0.756   4.144   0.833  0.7902 -0.1950  0.0182
12573TIP3    H259135   0.721   4.118   0.978  1.9492 -0.3530  0.2795
12574TIP3   OH259136   2.244   5.981   2.734 -0.2530  0.0917 -0.3265
12574TIP3    H159137   2.298   6.036   2.677  0.6982 -1.0650 -0.5866
12574TIP3    H259138   2.266   6.011   2.823 -1.0933  1.3139 -0.5171
12575TIP3   OH259139   5.482   5.498  13.580 -0.1517 -0.5423 -0.0338
12575TIP3    H159140   5.576   5.485  13.594  0.1787 -1.0759 -2.2616
12575TIP3    H259141   5.441   5.422  13.621  0.5285 -1.0918 -0.3580
12576TIP3   OH259142   2.990   4.098  16.323  0.2532 -0.2788  0.5155
12576TIP3    H159143   2.967   4.153  16.247  0.6998 -1.9091 -0.8442
12576TIP3    H259144   2.907   4.058  16.349  0.1872 -0.1063  0.5728
12577TIP3   OH259145   4.376   1.211   0.097  0.0822  0.3233  0.1070
12577TIP3    H159146   4.466   1.229   0.122  0.2636  0.0946 -0.3554
12577TIP3    H259147   4.359   1.123   0.130 -0.5791  1.0489  1.7737
12578TIP3   OH259148   2.953   5.526  17.040 -0.0825  0.3814 -0.2108
12578TIP3    H159149   3.037   5.536  16.997 -1.1212  0.2759 -2.3862
12578TIP3    H259150   2.906   5.607  17.019 -0.1266  0.9943  2.0107
12579TIP3   OH259151   1.325   4.685   3.930 -0.1343  0.4132 -0.4209
12579TIP3    H159152   1.298   4.594   3.922  2.4533 -0.4452 -0.4398
12579TIP3    H259153   1.266   4.733   3.871 -0.8852 -1.3873 -1.2149
12580TIP3   OH259154   5.750   1.988  16.344 -0.6127  0.6291  0.7692
12580TIP3    H159155   5.845   1.978  16.353 -0.7971  0.5534  3.1795
12580TIP3    H259156   5.739   2.071  16.298  0.6063 -0.3271 -1.3785
12581TIP3   OH259157   1.304   3.993  15.841 -0.1092 -0.1952  0.0538
12581TIP3    H159158   1.236   4.054  15.868  0.5002  0.5260 -0.0018
12581TIP3    H259159   1.370   3.999  15.910  0.8185  0.6303 -0.8662
12582TIP3   OH259160   4.647   5.007  12.607  0.2275  0.0782 -0.0178
12582TIP3    H159161   4.627   5.012  12.514 -3.1663  1.3359  0.6461
12582TIP3    H259162   4.578   5.058  12.650  3.1885  1.9707  3.0660
12583TIP3   OH259163   0.769   1.503  16.736  0.5699 -0.3905 -0.2452
12583TIP3    H159164   0.675   1.483  16.735  0.5086 -0.2238  0.9080
12583TIP3    H259165   0.786   1.532  16.826  1.5145  0.6360 -0.7418
12584TIP3   OH259166   2.076   3.246  12.367  0.0142 -0.2564  0.1448
12584TIP3    H159167   2.162   3.284  12.380  0.3825 -0.2744 -1.8639
12584TIP3    H259168   2.092   3.153  12.355 -0.1523 -0.1425 -1.1058
12585TIP3   OH259169   5.864   6.683  17.240  0.1146  0.2133  0.3348
12585TIP3    H159170   5.926   6.673  17.167 -1.5012  1.1922 -1.2800
12585TIP3    H259171   5.889   6.766  17.282  0.6304 -0.0048  0.4658
12586TIP3   OH259172   0.404   3.289   5.668 -0.5067  0.2030 -0.5912
12586TIP3    H159173   0.452   3.226   5.613 -0.0981  1.6844 -2.0299
12586TIP3    H259174   0.358   3.344   5.605  0.9383  2.7563  0.4367
12587TIP3   OH259175   1.938   3.545   6.402 -0.1052  0.1240 -0.2514
12587TIP3    H159176   1.945   3.487   6.478  1.9121 -0.2941 -0.6849
12587TIP3    H259177   1.993   3.620   6.424 -1.2459  1.0343 -0.4399
12588TIP3   OH259178   3.829   0.305   1.039  0.3790  0.0957  0.0904
12588TIP3    H159179   3.840   0.264   0.953  0.8939  1.6038 -0.5838
12588TIP3    H259180   3.839   0.232   1.100 -1.9829 -1.4042 -1.1426
12589TIP3   OH259181   5.853   0.278  11.313  0.2482 -0.2923 -0.2534
12589TIP3    H159182   5.787   0.318  11.370 -0.6689 -0.4434 -1.1782
12589TIP3    H259183   5.901   0.352  11.276  0.1624 -0.1527 -0.0879
12590TIP3   OH259184   2.777   3.079   3.052 -0.3240 -0.3396 -0.1490
12590TIP3    H159185   2.757   3.028   3.131  0.9897  1.3774  1.3987
12590TIP3    H259186   2.836   3.148   3.083  1.1189 -0.2349 -2.8720
12591TIP3   OH259187   5.421   1.863   3.715 -0.2614  0.3988  0.1610
12591TIP3    H159188   5.445   1.844   3.805 -0.1611 -0.3161 -0.0133
12591TIP3    H259189   5.499   1.840   3.664 -0.7043 -0.2728 -0.2218
12592TIP3   OH259190   5.459   2.732  15.595 -0.1527 -0.1816 -0.0112
12592TIP3    H159191   5.366   2.733  15.573  0.0706 -0.9635 -1.0620
12592TIP3    H259192   5.467   2.669  15.667 -0.1688 -1.7839 -1.3549
12593TIP3   OH259193   6.005   1.730   0.624  0.1395  0.2825 -0.1609
12593TIP3    H159194   6.039   1.798   0.682 -0.4338 -0.4287  1.0516
12593TIP3    H259195   5.914   1.720   0.650 -0.0097 -0.3551 -0.9064
12594TIP3   OH259196   4.472   2.718   0.669 -0.0702  0.0252 -0.3005
12594TIP3    H159197   4.536   2.783   0.698  1.3200 -0.7143 -1.5938
12594TIP3    H259198   4.428   2.760   0.595 -0.6080  0.2570  0.1423
12595TIP3   OH259199   5.885   1.546  12.943  0.0232  0.4443  0.2634
12595TIP3    H159200   5.875   1.641  12.934  1.3994  0.5858  0.0380
12595TIP3    H259201   5.971   1.527  12.905  1.4795 -0.3710  3.6005
12596TIP3   OH259202   3.396   5.516  15.131 -0.0551  0.0674  0.1306
12596TIP3    H159203   3.363   5.604  15.145 -0.9135 -0.1823 -0.2465
12596TIP3    H259204   3.413   5.511  15.037  0.9736  0.1501  0.2953
12597TIP3   OH259205   5.976   2.438  16.550  0.2451  0.0276 -0.1228
12597TIP3    H159206   5.922   2.429  16.629 -0.7780  2.5442 -0.4304
12597TIP3    H259207   5.942   2.372  16.490 -1.7756  0.7583  0.1277
12598TIP3   OH259208   6.233   6.689   0.682  0.1216  0.2123 -0.1823
12598TIP3    H159209   6.155   6.638   0.662  0.1102  0.5607 -1.0559
12598TIP3    H259210   6.298   6.660   0.619 -0.0081  1.5609 -0.9708
12599TIP3   OH259211   3.470   4.483   2.149  0.2394  0.0306  0.2575
12599TIP3    H159212   3.531   4.415   2.123  0.8095  1.0789 -1.2805
12599TIP3    H259213   3.525   4.553   2.184 -0.1240  0.6963 -0.4713
12600TIP3   OH259214   0.881   5.257  15.104 -0.2748 -0.5904 -0.2830
12600TIP3    H159215   0.819   5.283  15.173  0.7977 -1.0723  0.8994
12600TIP3    H259216   0.827   5.214  15.038 -1.2319 -0.8974  0.6677
12601TIP3   OH259217   6.662   3.566  11.635  0.3527 -0.0087  0.5351
12601TIP3    H159218   6.587   3.548  11.691 -0.0370  0.1642  0.0764
12601TIP3    H259219   6.734   3.518  11.675 -0.4916 -1.9932 -0.2358
12602TIP3   OH259220   2.130   3.655   1.734 -0.0720  0.6067 -0.3466
12602TIP3    H159221   2.108   3.746   1.714  0.5334  0.8852  0.2023
12602TIP3    H259222   2.209   3.662   1.788 -0.2273 -0.2314 -0.0132
12603TIP3   OH259223   3.838   4.393   6.619 -0.0740  0.9568  0.3531
12603TIP3    H159224   3.866   4.443   6.542 -1.2514  0.8931 -0.1212
12603TIP3    H259225   3.918   4.385   6.671  1.0017  0.1152 -1.3300
12604TIP3   OH259226   6.008   2.624  10.944 -0.4909 -0.0222 -0.1512
12604TIP3    H159227   6.054   2.585  10.869  0.8058 -0.9247  1.0632
12604TIP3    H259228   6.045   2.712  10.952  0.9895 -0.6956  0.7387
12605TIP3   OH259229   0.118   3.966   0.677  0.5507  0.2001 -0.8134
12605TIP3    H159230   0.104   4.050   0.721  0.9963  1.5210 -3.0488
12605TIP3    H259231   0.169   3.987   0.599  1.0219 -2.2212 -1.2564
12606TIP3   OH259232   1.082   4.995  13.903 -0.2842  0.3485 -0.6856
12606TIP3    H159233   1.124   4.929  13.959 -0.1635  0.3837 -0.7336
12606TIP3    H259234   1.111   5.079  13.939 -0.7759  0.3828 -0.3645
12607TIP3   OH259235   0.511   1.993  11.566 -0.3273 -0.6497 -0.1851
12607TIP3    H159236   0.423   1.955  11.570 -0.1697 -0.9427  1.9885
12607TIP3    H259237   0.569   1.920  11.590  0.2315  0.1791  1.1042
12608TIP3   OH259238   3.615   4.348  12.719  0.3633 -0.2387 -0.2009
12608TIP3    H159239   3.590   4.286  12.786  0.7016 -1.0729 -0.8210
12608TIP3    H259240   3.707   4.367  12.737  0.4566 -0.4697 -0.4271
12609TIP3   OH259241   0.242   2.529   4.803  0.2943 -0.6258  1.0859
12609TIP3    H159242   0.231   2.624   4.795  2.9743 -0.2351  1.2491
12609TIP3    H259243   0.202   2.508   4.888 -1.1546  0.1585  0.6367
12610TIP3   OH259244   1.669   0.341   3.826 -0.1250 -0.2708  0.0639
12610TIP3    H159245   1.673   0.252   3.791 -2.8407  0.4305 -2.4651
12610TIP3    H259246   1.744   0.386   3.786 -1.4001 -0.3174 -2.6115
12611TIP3   OH259247   2.089   6.632  13.112 -0.1938  0.1569  0.4155
12611TIP3    H159248   2.124   6.557  13.063  1.1174 -0.8575  2.7233
12611TIP3    H259249   2.157   6.699  13.104 -1.2188  1.0724 -1.3652
12612TIP3   OH259250   2.456   4.555  13.801  0.3188 -0.4787 -0.4406
12612TIP3    H159251   2.523   4.495  13.835  0.0376 -1.4992 -1.5750
12612TIP3    H259252   2.478   4.564  13.708 -0.1728  0.4880 -0.4756
12613TIP3   OH259253   1.530   5.367   3.334  0.3506  0.2479 -0.4680
12613TIP3    H159254   1.482   5.319   3.401  0.4870 -0.7833 -1.0952
12613TIP3    H259255   1.463   5.412   3.283  0.3386  2.6694  1.5295
12614TIP3   OH259256   6.278   6.028  16.752 -0.1516 -0.2100  0.4769
12614TIP3    H159257   6.248   5.992  16.836 -1.4086 -0.6497 -0.1411
12614TIP3    H259258   6.220   5.990  16.687  1.4452 -0.6770 -0.7494
12615TIP3   OH259259   2.542   4.818   4.773  0.1153  0.7054  0.0255
12615TIP3    H159260   2.513   4.896   4.725 -0.6829  0.2439 -0.2528
12615TIP3    H259261   2.463   4.764   4.782  0.8686 -0.5500 -0.6790
12616TIP3   OH259262   5.921   1.286   5.519  0.2018 -0.1080 -0.1353
12616TIP3    H159263   5.862   1.229   5.568  0.2668  0.8472  1.1224
12616TIP3    H259264   5.974   1.227   5.465 -1.0490 -1.0699 -0.3589
12617TIP3   OH259265   2.691   5.676   4.249 -0.4143 -0.4982 -0.1553
12617TIP3    H159266   2.691   5.622   4.329 -1.0497 -0.3268 -0.0373
12617TIP3    H259267   2.615   5.733   4.258  0.7644  1.1175  0.1808
12618TIP3   OH259268   2.337   5.637  14.460  0.0284  0.2202 -0.1045
12618TIP3    H159269   2.250   5.643  14.499 -0.2571 -0.2695 -0.6524
12618TIP3    H259270   2.350   5.722  14.418  0.3713  0.7845  1.0902
12619TIP3   OH259271   5.787   0.662  17.142  0.0514  0.4531  0.0848
12619TIP3    H159272   5.785   0.568  17.165  0.3739  0.4704  0.1893
12619TIP3    H259273   5.763   0.706  17.223  1.8768  0.5471  0.6247
12620TIP3   OH259274   6.225   2.168   4.347 -0.0467 -0.0397  0.2766
12620TIP3    H159275   6.152   2.192   4.405 -1.2450 -1.6040 -0.4832
12620TIP3    H259276   6.199   2.083   4.311  2.5754 -1.0798  0.6334
12621TIP3   OH259277   6.561   1.709   3.334  0.1654 -0.5272  0.1216
12621TIP3    H159278   6.647   1.713   3.375 -0.5897  1.2990  1.7111
12621TIP3    H259279   6.575   1.746   3.247  1.1858 -1.3252 -0.0698
12622TIP3   OH259280   5.237   4.270   3.096  0.1031  0.5305 -0.0358
12622TIP3    H159281   5.196   4.345   3.051  1.2336  0.8982 -0.4988
12622TIP3    H259282   5.169   4.238   3.156 -1.2455  0.4117 -1.5464
12623TIP3   OH259283   0.810   3.523   3.657 -0.0236 -0.0845  1.0831
12623TIP3    H159284   0.886   3.490   3.705  1.3846 -1.4045 -1.8153
12623TIP3    H259285   0.746   3.453   3.662  0.9078 -1.1185 -0.5398
12624TIP3   OH259286   1.715   3.634   2.846  0.0710 -0.2782  0.4746
12624TIP3    H159287   1.671   3.674   2.920 -0.1032 -0.4849  0.4859
12624TIP3    H259288   1.806   3.625   2.874 -0.0021 -0.3918  0.6794
12625TIP3   OH259289   2.928   5.848  14.853 -0.1089  0.0041 -0.0559
12625TIP3    H159290   2.852   5.902  14.874 -0.8827 -0.5100 -1.3895
12625TIP3    H259291   2.895   5.758  14.851  0.2114 -0.1228 -1.8547
12626TIP3   OH259292   0.473   1.567  11.793 -0.2683 -0.2062 -0.1504
12626TIP3    H159293   0.378   1.575  11.794 -0.3797 -1.0460 -1.5561
12626TIP3    H259294   0.498   1.558  11.885 -1.5346  0.0530  0.2280
12627TIP3   OH259295   3.923   4.742  14.550  0.0521  0.3842  0.1644
12627TIP3    H159296   3.939   4.835  14.570 -0.3440  0.8663 -1.5845
12627TIP3    H259297   3.832   4.740  14.520  0.5450 -0.2897 -1.3539
12628TIP3   OH259298   2.922   5.764   0.591  0.1992  0.1100 -0.2321
12628TIP3    H159299   2.860   5.798   0.526  0.1269  0.3552 -0.0363
12628TIP3    H259300   2.918   5.827   0.663  0.8615  0.2612 -0.3196
12629TIP3   OH259301   2.318   0.573  13.886  0.3716 -0.0483 -0.3196
12629TIP3    H159302   2.388   0.586  13.949  0.8845  0.4879 -0.9867
12629TIP3    H259303   2.276   0.491  13.914  1.4229 -0.5178 -0.0543
12630TIP3   OH259304   4.765   0.168   0.954 -0.3044 -1.1515 -0.7709
12630TIP3    H159305   4.779   0.081   0.917 -2.3672 -1.1627 -1.6960
12630TIP3    H259306   4.736   0.151   1.044 -0.7979 -1.4493 -0.9790
12631TIP3   OH259307   3.789   2.295  11.571  0.0243  0.2282 -0.2288
12631TIP3    H159308   3.710   2.286  11.518  0.1549  1.5916 -0.7188
12631TIP3    H259309   3.859   2.263  11.515 -0.1307 -0.6710  0.0812
12632TIP3   OH259310   2.003   2.499   5.126 -0.4224  0.2772 -0.6842
12632TIP3    H159311   1.914   2.511   5.090 -0.9862  0.6042  0.7542
12632TIP3    H259312   2.032   2.588   5.145 -1.4393  0.0264  2.6056
12633TIP3   OH259313   3.865   4.695  11.989 -1.0422  0.0089  0.0959
12633TIP3    H159314   3.908   4.615  11.958 -0.1205  0.3318  0.4848
12633TIP3    H259315   3.918   4.722  12.065 -0.7902  1.4618 -0.5559
12634TIP3   OH259316   3.104   6.353  15.199 -0.8759  0.3717 -0.1509
12634TIP3    H159317   3.055   6.290  15.147 -1.1513 -0.0297  0.5743
12634TIP3    H259318   3.068   6.438  15.175 -2.6368  0.0339  1.0494
12635TIP3   OH259319   0.175   4.120   0.407 -0.0965  0.5564 -0.5456
12635TIP3    H159320   0.173   4.094   0.314 -0.4216  0.7298 -0.5862
12635TIP3    H259321   0.267   4.143   0.422 -0.2917  1.8239 -1.1845
12636TIP3   OH259322   2.689   5.545   3.674  0.6368 -0.0812 -0.3738
12636TIP3    H159323   2.679   5.639   3.655 -0.9269 -0.4369 -1.4715
12636TIP3    H259324   2.700   5.505   3.588  1.1060 -0.9392  0.0779
12637TIP3   OH259325   2.667   6.391   6.127  0.1929  0.5369 -0.1434
12637TIP3    H159326   2.636   6.424   6.043 -2.4842 -2.1782 -0.3520
12637TIP3    H259327   2.750   6.349   6.107 -0.7538 -0.7118 -1.6287
12638TIP3   OH259328   2.890   6.720   6.435  0.4272  0.2745 -0.2301
12638TIP3    H159329   2.844   6.771   6.369 -0.2501 -1.7593 -1.4314
12638TIP3    H259330   2.908   6.636   6.392  1.3824 -0.5445  1.6547
12639TIP3   OH259331   3.173   4.531  17.359  0.2632 -0.0681 -0.0335
12639TIP3    H159332   3.161   4.591  17.285  0.2588 -1.3382 -1.1158
12639TIP3    H259333   3.267   4.535  17.377  0.2830  0.1741 -0.1744
12640TIP3   OH259334   5.585   6.291  11.831  0.1834 -0.0306  0.1368
12640TIP3    H159335   5.501   6.253  11.804  1.6372 -2.6177 -1.1212
12640TIP3    H259336   5.623   6.325  11.750 -0.6555  3.5530  1.0917
12641TIP3   OH259337   1.280   4.445  16.301  0.2307 -0.0956  0.3016
12641TIP3    H159338   1.319   4.359  16.319 -0.7309 -0.2568  1.8145
12641TIP3    H259339   1.322   4.504  16.364  0.1925  0.3484 -0.0834
12642TIP3   OH259340   4.987   0.524  13.127 -0.0910 -0.1192  0.2089
12642TIP3    H159341   4.892   0.518  13.130 -0.0862 -0.0506  0.4493
12642TIP3    H259342   5.006   0.554  13.038 -0.2750 -0.5420  0.0244
12643TIP3   OH259343   4.214   6.584  12.114  0.0940 -0.7835 -0.5303
12643TIP3    H159344   4.205   6.535  12.033 -3.2305 -1.1947 -0.0254
12643TIP3    H259345   4.212   6.518  12.183  0.2091 -0.2487  0.0000
12644TIP3   OH259346   5.629   4.465   0.516 -0.4453 -0.3170 -0.1745
12644TIP3    H159347   5.628   4.509   0.601 -0.0392  0.0788 -0.3643
12644TIP3    H259348   5.699   4.400   0.524 -0.6185 -0.4949 -0.1032
12645TIP3   OH259349   0.640   2.960  14.589  0.4965  0.2345  0.6193
12645TIP3    H159350   0.608   3.050  14.580  3.0570  1.3552  1.5308
12645TIP3    H259351   0.735   2.969  14.587  0.9187 -2.0913  3.4302
12646TIP3   OH259352   3.370   0.389  11.600  0.0527  0.2731  1.0376
12646TIP3    H159353   3.463   0.390  11.576  0.0646 -0.9469  0.9526
12646TIP3    H259354   3.364   0.324  11.670 -0.8585 -0.2769  0.4714
12647TIP3   OH259355   5.020   1.740  16.853 -0.5838  0.2749  0.1438
12647TIP3    H159356   5.112   1.767  16.847 -1.0348  1.5394 -2.2575
12647TIP3    H259357   4.972   1.808  16.807 -2.5253 -1.3583 -0.3841
12648TIP3   OH259358   1.057   6.587   5.571  0.1110 -0.4918 -0.6525
12648TIP3    H159359   1.025   6.503   5.604 -2.1375  0.9630  1.1250
12648TIP3    H259360   0.980   6.644   5.570  1.0490  0.9938 -4.0050
12649TIP3   OH259361   4.886   3.778  15.279  0.2690  0.5652 -0.3164
12649TIP3    H159362   4.868   3.688  15.308  1.6020  0.8025  1.4234
12649TIP3    H259363   4.959   3.769  15.218 -0.4131  0.3736 -1.1245
12650TIP3   OH259364   1.842   4.147  16.254  0.1731 -0.5968  0.8222
12650TIP3    H159365   1.894   4.088  16.309 -1.2075 -0.8698  1.9057
12650TIP3    H259366   1.904   4.212  16.222  1.3579 -1.4912  1.2208
12651TIP3   OH259367   4.143   6.478  15.662  0.0101  0.0733  0.3614
12651TIP3    H159368   4.077   6.514  15.722  0.0744 -1.6794  1.5464
12651TIP3    H259369   4.130   6.528  15.581 -2.0273  0.5560  0.9036
12652TIP3   OH259370   5.458   1.611   0.360  0.3458  0.3665 -0.0104
12652TIP3    H159371   5.495   1.579   0.443 -1.4593 -0.6870  0.4418
12652TIP3    H259372   5.422   1.697   0.382  0.1299  0.2164  0.2276
12653TIP3   OH259373   4.451   3.080  14.630  0.2081  0.1596 -0.2376
12653TIP3    H159374   4.404   3.047  14.553 -2.6536  4.2387 -0.5467
12653TIP3    H259375   4.397   3.054  14.704  1.0523 -0.7362  0.0701
12654TIP3   OH259376   5.322   3.325   5.176  0.3782 -0.5994  0.3174
12654TIP3    H159377   5.237   3.367   5.168  0.5393 -0.3671 -0.2049
12654TIP3    H259378   5.319   3.251   5.116  0.1342 -1.2899  1.1581
12655TIP3   OH259379   6.667   1.837  11.557 -0.7396  0.5261  0.2515
12655TIP3    H159380   6.613   1.831  11.636 -1.0949 -0.5991 -0.0537
12655TIP3    H259381   6.638   1.764  11.503  0.1645  0.7143 -0.5119
12656TIP3   OH259382   2.282   2.104   3.683 -0.0406  0.1183  0.2127
12656TIP3    H159383   2.314   2.124   3.595 -1.3087 -2.3353 -0.9086
12656TIP3    H259384   2.205   2.159   3.695  0.2072  0.5461 -0.1618
12657TIP3   OH259385   3.748   1.629   3.179 -0.0440  0.0075  0.4573
12657TIP3    H159386   3.755   1.640   3.274  0.4673 -0.7481  0.5125
12657TIP3    H259387   3.731   1.717   3.146 -0.8884  0.1766  1.3080
12658TIP3   OH259388   0.528   3.109   5.474 -0.1064 -0.7928  0.0750
12658TIP3    H159389   0.579   3.039   5.516 -0.1595  0.1386  1.7675
12658TIP3    H259390   0.593   3.159   5.424  0.4011 -0.5019  1.0040
12659TIP3   OH259391   0.509   5.213   2.294  0.4946  0.4112 -0.1731
12659TIP3    H159392   0.478   5.289   2.344 -0.5893  0.0414 -0.2484
12659TIP3    H259393   0.492   5.138   2.351  2.8009  0.2928  0.4698
12660TIP3   OH259394   6.674   4.232   3.768  0.4328 -0.2201  0.5923
12660TIP3    H159395   6.748   4.218   3.828  1.0508 -1.2792 -0.3708
12660TIP3    H259396   6.675   4.155   3.711 -1.3726 -0.1990  0.4918
12661TIP3   OH259397   1.071   1.000  13.438 -0.6367 -0.1063  0.2062
12661TIP3    H159398   1.062   0.914  13.397 -2.1856  0.1207 -0.0190
12661TIP3    H259399   1.141   1.043  13.389 -1.4706 -0.3797 -1.2841
12662TIP3   OH259400   6.296   3.193  13.257  0.5177 -0.5170 -0.0167
12662TIP3    H159401   6.378   3.149  13.282  1.0230  0.4708  0.1209
12662TIP3    H259402   6.237   3.121  13.232  1.5741 -1.2290 -0.5637
12663TIP3   OH259403   3.218   2.473  15.877 -0.0725  0.1302 -0.1208
12663TIP3    H159404   3.125   2.475  15.897 -0.7989 -0.8936 -2.9670
12663TIP3    H259405   3.227   2.525  15.798  1.8792  0.5587  0.3277
12664TIP3   OH259406   2.227   2.872  16.748 -0.3151 -0.3171  0.1584
12664TIP3    H159407   2.300   2.846  16.804  0.7638  1.4638 -0.3422
12664TIP3    H259408   2.150   2.837  16.792  0.7300 -1.3080  1.2923
12665TIP3   OH259409   6.319   4.406  14.377 -0.5702  0.1809 -0.1257
12665TIP3    H159410   6.377   4.474  14.412 -1.7679 -0.0226  2.4731
12665TIP3    H259411   6.373   4.328  14.373  0.0845  0.6387 -0.5136
12666TIP3   OH259412   3.665   2.695  16.951  0.0729  0.3913 -0.2631
12666TIP3    H159413   3.593   2.738  16.997 -0.1514 -1.2661  1.0340
12666TIP3    H259414   3.706   2.765  16.899 -2.3129  1.4237 -0.8949
12667TIP3   OH259415   6.125   0.483   0.358  0.1217  0.1553  0.2486
12667TIP3    H159416   6.060   0.414   0.346  0.7329 -0.2342 -0.9729
12667TIP3    H259417   6.201   0.454   0.308  0.8750  1.0941  0.7993
12668TIP3   OH259418   4.875   2.338  14.528 -0.0363 -0.0270 -0.1092
12668TIP3    H159419   4.880   2.308  14.619 -0.7082  0.6330  0.1481
12668TIP3    H259420   4.782   2.337  14.507  0.0611  0.4621 -0.5753
12669TIP3   OH259421   4.888   4.974  11.798  0.6950  0.0798  0.4329
12669TIP3    H159422   4.978   5.008  11.793  0.8991 -0.6631 -1.8769
12669TIP3    H259423   4.896   4.881  11.780 -0.4585 -0.2183  1.3091
12670TIP3   OH259424   0.077   4.680   4.601  0.5908 -0.4414  0.3215
12670TIP3    H159425   0.153   4.627   4.623  1.4089 -0.1167 -1.5110
12670TIP3    H259426   0.016   4.619   4.560  1.1027 -0.2045 -0.8421
12671TIP3   OH259427   2.062   2.266   1.641  0.6680  0.0519 -0.2883
12671TIP3    H159428   2.004   2.239   1.713 -0.2949  0.7918 -0.7535
12671TIP3    H259429   2.003   2.280   1.567  1.6335 -0.5559 -1.1921
12672TIP3   OH259430   0.168   2.104  12.972  0.4175 -0.8661  0.6874
12672TIP3    H159431   0.166   2.064  13.059  0.0614  0.8478  1.4947
12672TIP3    H259432   0.080   2.136  12.958  0.9303  0.4941  0.4833
12673TIP3   OH259433   3.421   0.840  11.504  0.2471 -0.0373  0.1794
12673TIP3    H159434   3.327   0.821  11.498 -0.2202  1.5157  1.7770
12673TIP3    H259435   3.451   0.789  11.580  0.8925 -1.0835 -0.7417
12674TIP3   OH259436   0.954   4.674  13.868 -0.2992  0.1006 -0.2830
12674TIP3    H159437   0.958   4.759  13.825  0.8234  1.1413  1.7085
12674TIP3    H259438   0.869   4.673  13.912 -0.2377  0.2610 -0.1624
12675TIP3   OH259439   6.285   5.937   3.833 -0.2507  0.0760 -0.7527
12675TIP3    H159440   6.257   5.955   3.923 -1.0370 -1.4238 -0.6612
12675TIP3    H259441   6.328   5.852   3.838 -3.0359 -1.5617 -2.2329
12676TIP3   OH259442   2.460   3.307   4.417  0.0186  0.2170 -0.5084
12676TIP3    H159443   2.435   3.399   4.426 -0.5670 -0.0135  0.3386
12676TIP3    H259444   2.555   3.307   4.421 -0.0112  0.6896  0.5532
12677TIP3   OH259445   4.429   6.239   4.557  0.0554 -0.3421  0.1078
12677TIP3    H159446   4.401   6.301   4.624  1.3915  0.0302  0.3520
12677TIP3    H259447   4.473   6.169   4.605 -1.4623 -1.5453 -0.1584
12678TIP3   OH259448   1.278   2.032   5.527 -0.3835 -0.6557 -0.2038
12678TIP3    H159449   1.362   2.070   5.502 -0.7235  0.1225 -0.1853
12678TIP3    H259450   1.258   2.071   5.612 -0.2223 -1.7170  0.3375
12679TIP3   OH259451   2.695   2.535  15.954 -0.3134  0.2904 -0.0431
12679TIP3    H159452   2.669   2.610  16.008  0.7146 -0.0142  0.9048
12679TIP3    H259453   2.613   2.492  15.932 -0.7161 -0.7395  2.9853
12680TIP3   OH259454   4.658   3.257   2.511 -0.0868 -0.0824 -0.7532
12680TIP3    H159455   4.657   3.263   2.606 -0.6732 -0.6004 -0.7239
12680TIP3    H259456   4.739   3.301   2.485 -0.1079  0.3820 -0.0419
12681TIP3   OH259457   1.818   5.762  15.160 -0.0122 -0.0881 -0.1351
12681TIP3    H159458   1.747   5.792  15.218  0.0997 -0.1461  0.0317
12681TIP3    H259459   1.834   5.671  15.187 -0.6548 -0.4563 -0.9331
12682TIP3   OH259460   4.315   5.290  15.307 -0.1193  0.5457  0.0772
12682TIP3    H159461   4.345   5.275  15.397  1.2291 -0.0440 -0.4343
12682TIP3    H259462   4.302   5.385  15.302 -2.0424  0.4028  1.3968
12683TIP3   OH259463   5.406   2.289   0.280  0.3043  0.6173  0.0178
12683TIP3    H159464   5.348   2.217   0.256  1.3896 -0.2621 -0.0505
12683TIP3    H259465   5.454   2.258   0.357  5.1676 -1.3867 -3.2903
12684TIP3   OH259466   1.249   4.070  17.265  0.4465 -0.5487  0.4842
12684TIP3    H159467   1.314   4.074  17.194  2.2994  0.6376  2.1417
12684TIP3    H259468   1.300   4.083  17.345 -1.9985  1.9079  1.8182
12685TIP3   OH259469   5.311   2.349  16.666  0.2239  1.1103  0.3702
12685TIP3    H159470   5.312   2.254  16.662  2.9070  1.1106 -0.8432
12685TIP3    H259471   5.394   2.376  16.626 -0.0492  3.9253  1.4750
12686TIP3   OH259472   1.656   5.742  10.413  0.0233 -0.5783  0.0702
12686TIP3    H159473   1.703   5.802  10.471  1.4010 -0.0682 -1.4665
12686TIP3    H259474   1.575   5.721  10.459  0.0688  1.5002  1.1986
12687TIP3   OH259475   0.310   1.157   4.809  0.1144  0.4370  0.1544
12687TIP3    H159476   0.354   1.218   4.750 -0.4904  1.3123  0.6064
12687TIP3    H259477   0.250   1.109   4.753  1.2073 -0.3849 -0.3670
12688TIP3   OH259478   4.627   6.323   4.369  0.8668  0.4543  0.3307
12688TIP3    H159479   4.545   6.282   4.395  0.1894  0.7188 -1.3107
12688TIP3    H259480   4.665   6.264   4.304  0.2716  1.9496 -1.4599
12689TIP3   OH259481   0.989   0.646  11.501  0.4629  0.0545 -0.2246
12689TIP3    H159482   1.040   0.701  11.560  0.0076  1.0966 -0.7946
12689TIP3    H259483   1.055   0.592  11.457  0.7900 -1.0554  1.4969
12690TIP3   OH259484   0.016   5.167   4.568  0.1969  0.1651  0.1603
12690TIP3    H159485   0.060   5.084   4.582 -0.3594  0.1804  2.3054
12690TIP3    H259486   0.085   5.226   4.538  0.5240 -1.1079 -1.7531
12691TIP3   OH259487   2.547   2.423  13.397 -0.6027 -0.1814 -0.0375
12691TIP3    H159488   2.640   2.443  13.402 -0.1411 -2.2670  0.6530
12691TIP3    H259489   2.531   2.404  13.305  0.1618 -1.7497  0.1070
12692TIP3   OH259490   5.581   2.851  15.362  0.3294 -0.1197 -0.2116
12692TIP3    H159491   5.580   2.937  15.403 -0.2745  0.1312 -0.7404
12692TIP3    H259492   5.545   2.792  15.428 -1.1413  0.3641 -0.5413
12693TIP3   OH259493   3.854   2.304   2.292 -0.8933  0.0319  0.1691
12693TIP3    H159494   3.779   2.361   2.273 -2.2882 -1.5695  0.6508
12693TIP3    H259495   3.824   2.216   2.270  0.2514 -0.8710  1.9573
12694TIP3   OH259496   0.704   0.932  12.732 -0.0291 -0.7388  0.4748
12694TIP3    H159497   0.618   0.975  12.736  1.3502  2.2463  0.6891
12694TIP3    H259498   0.765   0.996  12.768  2.4321 -2.5136 -0.2347
12695TIP3   OH259499   3.293   3.777  14.921 -0.4971 -0.0041  0.2416
12695TIP3    H159500   3.326   3.691  14.895 -1.1555 -0.4651  0.8950
12695TIP3    H259501   3.242   3.807  14.846  2.7611  1.5396 -1.5792
12696TIP3   OH259502   3.908   3.623   6.303 -0.3176 -0.7432 -0.5305
12696TIP3    H159503   3.941   3.687   6.366 -1.8586 -1.1770  0.7811
12696TIP3    H259504   3.910   3.540   6.350 -0.8301 -1.2112 -1.3146
12697TIP3   OH259505   4.715   2.709   4.256  0.0280  0.7328  0.2963
12697TIP3    H159506   4.645   2.773   4.260 -0.9741 -0.2838 -0.2737
12697TIP3    H259507   4.674   2.630   4.219  1.0024 -0.5146  1.7408
12698TIP3   OH259508   1.789   5.759   5.936  0.3425  0.1492 -0.6752
12698TIP3    H159509   1.703   5.746   5.896 -0.0015  0.3961 -0.0258
12698TIP3    H259510   1.779   5.835   5.993  0.3488 -1.1361  1.1494
12699TIP3   OH259511   6.713   3.008   5.199  0.3069 -0.0209  0.4705
12699TIP3    H159512   6.691   2.916   5.209  1.9269 -0.7085 -1.5830
12699TIP3    H259513   6.659   3.038   5.126  0.4034  0.4413  0.5850
12700TIP3   OH259514   5.353   0.787  13.633  0.2475  0.8013 -0.4050
12700TIP3    H159515   5.290   0.848  13.672 -1.8772 -0.7304 -1.2608
12700TIP3    H259516   5.436   0.807  13.677 -1.3573  1.1138  2.7813
12701TIP3   OH259517   1.193   5.697   0.043  0.6780 -0.0672  0.0410
12701TIP3    H159518   1.113   5.739   0.012  1.3459  0.5732 -0.8531
12701TIP3    H259519   1.185   5.697   0.139 -0.3843 -0.0229 -0.0402
12702TIP3   OH259520   0.225   4.853   0.469  0.2481 -0.1583  0.3711
12702TIP3    H159521   0.142   4.806   0.471 -0.1591  0.5391  0.2367
12702TIP3    H259522   0.221   4.912   0.544 -0.0043  0.9079 -0.4592
12703TIP3   OH259523   4.601   2.006  13.992  0.1349 -0.5123 -0.3139
12703TIP3    H159524   4.631   2.091  14.024 -1.3772 -0.5870  1.5589
12703TIP3    H259525   4.681   1.957  13.975  1.0424  0.6881  0.2868
12704TIP3   OH259526   4.305   1.641  16.667 -0.7178  0.0522  0.1187
12704TIP3    H159527   4.215   1.657  16.694 -0.5434 -1.0497  1.5005
12704TIP3    H259528   4.358   1.673  16.740  0.1524  2.2026 -1.3553
12705TIP3   OH259529   4.127   1.587  12.294  0.2567 -0.0036 -0.4643
12705TIP3    H159530   4.114   1.666  12.242  1.0457  0.4911  0.0724
12705TIP3    H259531   4.169   1.617  12.374 -2.8154 -0.4378  1.4886
12706TIP3   OH259532   6.051   3.339   2.664 -0.0734  0.2024 -0.0340
12706TIP3    H159533   6.055   3.384   2.580 -0.6497  1.5031  0.6068
12706TIP3    H259534   5.958   3.319   2.677  0.1163 -0.7857 -0.0895
12707TIP3   OH259535   2.384   0.848   6.708  0.5430  0.1334 -0.3123
12707TIP3    H159536   2.421   0.936   6.715  0.0298  0.2610  1.4479
12707TIP3    H259537   2.417   0.814   6.625  3.5832  0.6901  0.5535
12708TIP3   OH259538   6.469   3.332   3.994  0.0841 -0.0231  0.1659
12708TIP3    H159539   6.525   3.256   3.979  1.2034  0.7081  0.5128
12708TIP3    H259540   6.490   3.393   3.923  0.5457  0.7109  0.9132
12709TIP3   OH259541   0.144   0.178  12.244 -0.1262 -0.2517 -0.0065
12709TIP3    H159542   0.167   0.126  12.167  3.5916  0.5978  0.3496
12709TIP3    H259543   0.194   0.259  12.233 -2.1048  1.2900  1.7345
12710TIP3   OH259544   3.881   5.837  17.132 -0.0238 -0.1285 -0.4652
12710TIP3    H159545   3.908   5.745  17.140 -2.2633 -0.6969  2.4574
12710TIP3    H259546   3.920   5.880  17.208 -3.3894 -0.0734  1.4769
12711TIP3   OH259547   2.871   1.015  15.514 -0.0408 -0.3194 -0.1240
12711TIP3    H159548   2.965   1.003  15.499 -0.2619 -3.5221  0.4593
12711TIP3    H259549   2.844   1.079  15.448  2.6204  1.1610  0.0986
12712TIP3   OH259550   4.514   3.717   5.558  0.5121 -0.0504 -0.1488
12712TIP3    H159551   4.571   3.715   5.481 -0.0033 -0.5419 -0.5266
12712TIP3    H259552   4.513   3.809   5.585  1.3145  0.0027 -0.2520
12713TIP3   OH259553   4.650   5.815   1.984  0.1966 -0.0008  0.2161
12713TIP3    H159554   4.633   5.773   1.900 -1.1261 -1.3758  1.1274
12713TIP3    H259555   4.610   5.902   1.975  0.7578  0.1720 -0.8175
12714TIP3   OH259556   6.223   0.181   1.068 -0.2918  0.4005  0.3134
12714TIP3    H159557   6.300   0.127   1.088 -1.2017 -0.4967  1.5575
12714TIP3    H259558   6.210   0.171   0.974  1.2797  0.8146  0.0242
12715TIP3   OH259559   0.670   0.387  15.767 -0.0896  0.4152 -0.8083
12715TIP3    H159560   0.644   0.478  15.781 -0.1380  0.6025 -1.9902
12715TIP3    H259561   0.588   0.337  15.772 -0.1167  0.4878 -0.5467
12716TIP3   OH259562   3.687   5.934  16.904 -0.5962  0.0166  0.0138
12716TIP3    H159563   3.729   6.015  16.874 -0.7981 -0.2373 -0.9691
12716TIP3    H259564   3.727   5.917  16.989  0.5867  0.2963 -0.4711
12717TIP3   OH259565   4.975   6.490  13.076 -0.1336 -0.0525  0.3377
12717TIP3    H159566   5.023   6.564  13.113  0.3649  0.1353 -0.6246
12717TIP3    H259567   5.038   6.418  13.076  0.0289  0.0731 -0.5226
12718TIP3   OH259568   0.075   4.883   4.365 -0.5796 -0.5584  0.0125
12718TIP3    H159569  -0.017   4.866   4.349 -0.7661 -1.5672  1.9784
12718TIP3    H259570   0.112   4.799   4.392  0.6406  0.0889  0.4592
12719TIP3   OH259571   4.809   3.429  16.370  0.0705  0.1574 -0.0123
12719TIP3    H159572   4.872   3.498  16.348  0.6316  0.0964  1.2961
12719TIP3    H259573   4.725   3.462  16.337  0.1772  1.8810  1.2810
12720TIP3   OH259574   1.794   2.118   2.613 -0.1247 -0.1095  0.4390
12720TIP3    H159575   1.774   2.027   2.633  2.1670 -0.6444  0.5837
12720TIP3    H259576   1.815   2.119   2.520 -1.6551  0.6090  0.0656
12721TIP3   OH259577   6.701   1.649  14.806 -0.6623  0.1582 -1.1634
12721TIP3    H159578   6.756   1.696  14.868  0.8276 -0.3032 -2.0880
12721TIP3    H259579   6.642   1.716  14.772 -2.0607  0.2728  1.2605
12722TIP3   OH259580   6.646   3.911   3.595  0.3411 -0.0709  0.6969
12722TIP3    H159581   6.740   3.900   3.613  0.7945  1.8622 -0.2848
12722TIP3    H259582   6.629   3.853   3.522  0.6850 -0.6905  1.0964
12723TIP3   OH259583   2.546   0.351  12.833 -0.0683  0.0704  0.1350
12723TIP3    H159584   2.541   0.441  12.801  1.3506  1.3091  3.0347
12723TIP3    H259585   2.476   0.345  12.899 -0.6768 -1.2563 -0.5933
12724TIP3   OH259586   3.616   6.471   1.136 -0.2070 -0.1946  0.2238
12724TIP3    H159587   3.686   6.472   1.071  0.5017 -0.1631  0.9684
12724TIP3    H259588   3.654   6.425   1.211 -0.1655  1.8346  1.5270
12725TIP3   OH259589   3.941   1.523  11.181  0.4369  0.0155 -0.5709
12725TIP3    H159590   3.852   1.499  11.207  0.2058 -0.6205 -1.8908
12725TIP3    H259591   3.998   1.469  11.236  0.0223  0.2005  0.0583
12726TIP3   OH259592   5.767   6.523   1.408  0.3270 -0.3297  0.3366
12726TIP3    H159593   5.672   6.530   1.418  0.1639 -0.9807 -0.6217
12726TIP3    H259594   5.794   6.607   1.371  0.1921  0.0174  1.0128
12727TIP3   OH259595   4.473   0.898  12.349 -0.1295 -0.1890 -0.0148
12727TIP3    H159596   4.550   0.937  12.308 -0.3538 -0.4491 -0.6950
12727TIP3    H259597   4.399   0.947  12.313 -0.3442 -0.5507 -0.0676
12728TIP3   OH259598   0.295   3.077  11.366  0.3857  0.2409 -0.3505
12728TIP3    H159599   0.272   3.158  11.321 -0.3000  0.3048  0.1019
12728TIP3    H259600   0.240   3.010  11.325 -0.1438  0.2754  0.2726
12729TIP3   OH259601   5.359   1.650  12.760  0.0965 -0.2228  0.0150
12729TIP3    H159602   5.442   1.604  12.765  0.5184  0.1209 -2.6649
12729TIP3    H259603   5.381   1.737  12.727 -1.3055 -0.1032 -0.6862
12730TIP3   OH259604   0.531   0.786  13.295  0.0262 -0.5991 -0.1289
12730TIP3    H159605   0.554   0.693  13.301 -0.1909 -0.5923  1.0792
12730TIP3    H259606   0.608   0.832  13.328 -0.1331 -0.3858 -0.0552
12731TIP3   OH259607   2.695   3.002  15.388 -0.6494 -0.2948 -0.4628
12731TIP3    H159608   2.636   3.028  15.459 -0.5974 -0.5940 -0.3041
12731TIP3    H259609   2.671   2.912  15.369 -2.3073  0.5157 -2.5155
12732TIP3   OH259610   1.880   2.370  12.064 -0.0443  0.0394 -0.1324
12732TIP3    H159611   1.957   2.406  12.019  0.6403  0.7290  1.5023
12732TIP3    H259612   1.905   2.368  12.156 -1.3290 -1.4955  0.2278
12733TIP3   OH259613   1.877   1.352   4.205 -0.0584 -0.2859 -0.1669
12733TIP3    H159614   1.836   1.277   4.249  2.1983 -1.2523  0.4454
12733TIP3    H259615   1.877   1.328   4.112  2.6083 -2.2118  0.2032
12734TIP3   OH259616   0.797   6.632  12.836  0.0746 -0.3914 -0.3172
12734TIP3    H159617   0.758   6.719  12.826  1.3872  0.1286 -0.9788
12734TIP3    H259618   0.862   6.643  12.906  0.2755 -0.8410 -0.4342
12735TIP3   OH259619   1.286   3.162  13.724  0.4095 -0.0521  0.8838
12735TIP3    H159620   1.364   3.108  13.720  0.0199 -0.5420 -0.3843
12735TIP3    H259621   1.219   3.104  13.760 -0.1180 -0.5946 -0.8763
12736TIP3   OH259622   0.935   5.470  12.467  0.3032  0.4551  0.3309
12736TIP3    H159623   0.949   5.455  12.374  2.3287  0.3998  0.6048
12736TIP3    H259624   0.933   5.565  12.477 -0.7957  0.4629  0.1355
12737TIP3   OH259625   1.806   2.141   1.825  0.2033 -0.0992 -0.4287
12737TIP3    H159626   1.830   2.057   1.866 -0.1713 -0.5282 -1.0645
12737TIP3    H259627   1.838   2.207   1.886  3.0518 -0.6142 -1.2048
12738TIP3   OH259628   0.663   6.670   4.009 -0.0257 -0.0665 -0.3525
12738TIP3    H159629   0.584   6.696   4.057  0.1626 -0.6670  0.2900
12738TIP3    H259630   0.721   6.746   4.016  0.6350 -0.6847  1.7682
12739TIP3   OH259631   2.347   3.241   3.446 -0.4971  0.1299 -0.6428
12739TIP3    H159632   2.272   3.194   3.483 -1.1003  1.9968  0.6546
12739TIP3    H259633   2.349   3.213   3.354 -2.1471 -0.7620 -0.4550
12740TIP3   OH259634   6.618   1.289   1.390  0.2617 -0.1517  0.2361
12740TIP3    H159635   6.666   1.347   1.332 -0.5246  0.1639 -0.1109
12740TIP3    H259636   6.533   1.331   1.402  0.1480 -0.5781  1.0306
12741TIP3   OH259637   6.158   3.914  15.890  0.4735 -0.3621  0.0912
12741TIP3    H159638   6.232   3.934  15.832 -0.3125  0.2395 -0.7257
12741TIP3    H259639   6.123   4.000  15.914 -0.8359 -0.6436 -0.6996
12742TIP3   OH259640   1.178   3.508  11.152  0.0849  0.0639 -0.5581
12742TIP3    H159641   1.180   3.563  11.230  1.8135  1.4759 -1.5221
12742TIP3    H259642   1.270   3.484  11.137 -0.1991 -0.1398 -2.1739
12743TIP3   OH259643   4.354   3.885   2.773 -0.7554  0.2257 -0.3285
12743TIP3    H159644   4.291   3.828   2.817 -1.6301 -0.1388 -1.9933
12743TIP3    H259645   4.436   3.869   2.819 -1.1675 -1.7347 -0.1953
12744TIP3   OH259646   2.110   5.185   4.991 -0.3844 -0.1794  0.6636
12744TIP3    H159647   2.065   5.106   4.960 -1.6681 -0.1779  2.3759
12744TIP3    H259648   2.191   5.153   5.029 -1.4477 -0.9009  2.4697
12745TIP3   OH259649   6.651   3.801   0.578 -0.4267 -0.8909 -0.1438
12745TIP3    H159650   6.670   3.726   0.521 -0.6021  0.0953 -1.5351
12745TIP3    H259651   6.728   3.857   0.570 -1.6428  0.6441 -1.7479
12746TIP3   OH259652   4.311   6.173   5.774 -0.7414 -0.0878 -0.3931
12746TIP3    H159653   4.395   6.131   5.756  0.3380  1.5574  0.5741
12746TIP3    H259654   4.285   6.212   5.691 -0.6210 -0.7191 -0.7313
12747TIP3   OH259655   2.384   3.507  11.658  0.3684  0.1691 -0.0859
12747TIP3    H159656   2.404   3.464  11.575  3.6293 -1.2728  1.2977
12747TIP3    H259657   2.349   3.593  11.632 -0.9940 -1.0943 -2.8801
12748TIP3   OH259658   0.208   2.876  10.652 -0.0649  0.1951 -0.1773
12748TIP3    H159659   0.274   2.945  10.640  2.6014 -2.1753 -0.3197
12748TIP3    H259660   0.132   2.906  10.602  0.4798  3.5091  0.7374
12749TIP3   OH259661   6.303   5.423  16.767 -0.2298 -0.2016 -0.0220
12749TIP3    H159662   6.377   5.464  16.813  0.3366 -4.3127  3.4538
12749TIP3    H259663   6.344   5.367  16.701 -0.4232 -0.5680  0.1685
12750TIP3   OH259664   0.442   1.247   3.446  0.4817 -0.0964 -0.2071
12750TIP3    H159665   0.362   1.195   3.441  0.7933 -0.4663 -3.3537
12750TIP3    H259666   0.441   1.284   3.534 -3.0156 -0.2532 -0.0558
12751TIP3   OH259667   5.115   6.168   4.421 -0.1749 -0.0685 -0.6117
12751TIP3    H159668   5.202   6.185   4.459 -0.3117 -3.0459  1.4542
12751TIP3    H259669   5.058   6.158   4.497 -2.1055  0.5729 -1.9040
12752TIP3   OH259670   2.888   3.817  12.253  0.3667  0.5126  0.3246
12752TIP3    H159671   2.848   3.734  12.278  0.9528 -0.0516 -0.5537
12752TIP3    H259672   2.969   3.821  12.303  0.9215 -0.0194 -0.5144
12753TIP3   OH259673   5.374   1.364   4.600 -0.2411 -0.3050 -0.1286
12753TIP3    H159674   5.369   1.450   4.641  0.9651 -0.1553 -0.2555
12753TIP3    H259675   5.386   1.383   4.507  1.7226 -0.5502  0.0319
12754TIP3   OH259676   0.154   4.363  13.064  0.0625 -0.3804  0.3857
12754TIP3    H159677   0.179   4.302  13.134  1.6469 -0.0321  0.1585
12754TIP3    H259678   0.178   4.449  13.098 -0.6521 -0.0426  0.0508
12755TIP3   OH259679   5.318   0.506  12.961 -0.0085  1.0173 -0.3343
12755TIP3    H159680   5.299   0.583  13.016 -1.1259  0.4217  0.1476
12755TIP3    H259681   5.396   0.467  13.001  0.2276  1.5735 -0.2384
12756TIP3   OH259682   0.458   2.025   1.899  0.2165 -0.3365  0.3571
12756TIP3    H159683   0.489   2.101   1.850 -1.7391  0.9217  0.9663
12756TIP3    H259684   0.500   2.033   1.984  0.4740 -0.2791  0.2270
12757TIP3   OH259685   3.421   6.206   0.001  0.2938  0.2169 -0.4946
12757TIP3    H159686   3.475   6.168   0.070  1.1940 -0.4657 -1.5287
12757TIP3    H259687   3.356   6.259   0.047  2.4858  1.9476  0.7795
12758TIP3   OH259688   1.975   3.383   0.781 -0.2087  0.1786 -0.0261
12758TIP3    H159689   1.911   3.361   0.714 -0.5657 -1.1318  0.6977
12758TIP3    H259690   2.005   3.298   0.814  1.2752  0.7695  0.2484
12759TIP3   OH259691   5.951   5.107   4.558 -0.9931  0.2705 -0.7438
12759TIP3    H159692   5.926   5.022   4.522 -1.0294 -0.2661  0.4886
12759TIP3    H259693   6.047   5.108   4.552 -1.0346  0.4553 -1.4201
12760TIP3   OH259694   3.635   1.862  14.492 -0.4831  0.1045  0.0947
12760TIP3    H159695   3.699   1.798  14.462 -0.6182  0.5634 -1.2748
12760TIP3    H259696   3.597   1.898  14.411 -2.7091 -0.3890  0.8368
12761TIP3   OH259697   6.308   3.214   6.410  0.2227  0.4354  0.2168
12761TIP3    H159698   6.343   3.298   6.380  1.0024  0.5719  1.4244
12761TIP3    H259699   6.213   3.227   6.412  0.1842  0.5851 -1.5852
12762TIP3   OH259700   5.349   3.084  12.553 -0.1749 -0.2613 -0.0711
12762TIP3    H159701   5.332   3.178  12.548 -0.4676 -0.2464  0.9824
12762TIP3    H259702   5.269   3.047  12.591  0.3169 -0.8044  0.4621
12763TIP3   OH259703   3.595   0.128  12.619  0.1010 -0.1591 -0.3043
12763TIP3    H159704   3.564   0.054  12.567 -0.2194 -1.3101  1.4188
12763TIP3    H259705   3.690   0.128  12.607 -0.0039 -0.1303 -1.1956
12764TIP3   OH259706   1.388   0.150  15.078 -0.0239  0.0948 -0.2341
12764TIP3    H159707   1.430   0.233  15.100  1.8884 -0.7096 -0.6669
12764TIP3    H259708   1.295   0.167  15.090  0.4671  1.4240  2.6715
12765TIP3   OH259709   2.554   6.498  11.186 -0.2705 -0.1042 -0.3614
12765TIP3    H159710   2.502   6.419  11.172  0.0687 -0.6805  1.4162
12765TIP3    H259711   2.621   6.494  11.117 -0.1650 -1.4457 -0.2129
12766TIP3   OH259712   4.542   4.189  13.670 -0.4467 -0.3201 -0.3150
12766TIP3    H159713   4.584   4.264  13.627 -0.2129 -0.3902 -0.2125
12766TIP3    H259714   4.457   4.222  13.699 -1.2078 -0.6514 -2.0660
12767TIP3   OH259715   1.747   5.055  13.729 -0.6277 -0.3057  0.1540
12767TIP3    H159716   1.759   5.109  13.651 -3.0655  0.9678  0.5846
12767TIP3    H259717   1.662   5.013  13.717 -0.6903 -0.7120  1.7678
12768TIP3   OH259718   5.517   1.316  11.791  0.5866  0.4356 -0.2075
12768TIP3    H159719   5.551   1.318  11.881 -0.0223 -1.1664  0.0959
12768TIP3    H259720   5.589   1.282  11.739  0.4586 -0.0424 -0.0750
12769TIP3   OH259721   3.366   6.319  13.896  0.5349 -0.3825 -0.7469
12769TIP3    H159722   3.447   6.370  13.894 -0.0770  0.6337 -0.1428
12769TIP3    H259723   3.388   6.238  13.849  2.0098 -0.3088 -0.2294
12770TIP3   OH259724   1.259   1.720   3.190 -0.5470 -0.0386 -0.0842
12770TIP3    H159725   1.281   1.778   3.263 -1.1371  1.4372 -1.0251
12770TIP3    H259726   1.164   1.718   3.189 -0.6671  2.0676 -2.3146
12771TIP3   OH259727   2.761   2.674  14.428  0.8185 -0.2911 -0.0547
12771TIP3    H159728   2.724   2.725  14.500  0.6366 -1.1946  0.5191
12771TIP3    H259729   2.759   2.583  14.460 -0.1025 -0.8337 -1.5411
12772TIP3   OH259730   0.277   4.030  10.371  0.4203  0.4659 -0.2478
12772TIP3    H159731   0.233   3.974  10.308  0.5424  0.6768 -0.5192
12772TIP3    H259732   0.237   4.008  10.455 -0.4332  0.8794 -0.5301
12773TIP3   OH259733   1.209   4.355   1.634  0.5948 -0.8375 -0.0341
12773TIP3    H159734   1.123   4.323   1.609  0.8746 -1.5286 -0.1339
12773TIP3    H259735   1.270   4.290   1.599  1.3046  0.6641 -1.7516
12774TIP3   OH259736   1.770   5.476  15.471  0.0904  0.2400 -0.1317
12774TIP3    H159737   1.736   5.489  15.383  1.6819  1.1022 -0.6618
12774TIP3    H259738   1.777   5.381  15.480  0.5882  0.1563 -1.2338
12775TIP3   OH259739   4.530   5.651   5.410 -0.2019  0.4378 -0.2808
12775TIP3    H159740   4.455   5.699   5.446 -0.7030  0.2278 -1.0144
12775TIP3    H259741   4.512   5.559   5.430  0.7256  0.5128  1.0638
12776TIP3   OH259742   1.970   1.268  10.520 -0.2438 -0.1058 -0.2303
12776TIP3    H159743   2.032   1.319  10.573  0.1421  1.0781 -1.7754
12776TIP3    H259744   1.891   1.262  10.574  0.5550 -0.0395  0.9931
12777TIP3   OH259745   4.944   6.730   5.936  0.4328  0.6067 -0.6358
12777TIP3    H159746   4.951   6.822   5.961  1.1176 -0.0418  1.8449
12777TIP3    H259747   5.035   6.699   5.931  0.2092  0.0476 -1.4134
12778TIP3   OH259748   3.370   1.943   4.486 -0.0298  0.1451  0.0600
12778TIP3    H159749   3.319   2.023   4.490  0.0210  0.1343  1.4693
12778TIP3    H259750   3.308   1.873   4.508  0.5392  0.1368  1.8103
12779TIP3   OH259751   0.853   5.276  11.482 -0.3289  0.3209 -0.1691
12779TIP3    H159752   0.947   5.283  11.495 -0.3485  0.5750 -0.1655
12779TIP3    H259753   0.843   5.239  11.394 -0.2404  1.2332 -0.5767
12780TIP3   OH259754   3.584   5.860   2.380 -0.7087 -0.2504  0.2617
12780TIP3    H159755   3.568   5.915   2.456  0.5750  0.9332 -0.2783
12780TIP3    H259756   3.655   5.904   2.332  0.1518 -2.1828 -0.3733
12781TIP3   OH259757   4.220   4.661  14.969  0.3640  0.3360 -0.0906
12781TIP3    H159758   4.250   4.583  15.015  0.2618 -1.5485 -2.9277
12781TIP3    H259759   4.153   4.628  14.908  0.5891  2.5441 -1.6486
12782TIP3   OH259760   0.729   1.103   3.941  0.3168 -0.2435  0.1692
12782TIP3    H159761   0.808   1.126   3.892  0.2857 -0.5386 -0.0166
12782TIP3    H259762   0.665   1.169   3.916 -0.3784 -1.6087 -1.8383
12783TIP3   OH259763   6.165   1.158  13.022  0.4033 -0.1564  0.1107
12783TIP3    H159764   6.246   1.207  13.038  0.5524 -0.6636  0.9808
12783TIP3    H259765   6.190   1.090  12.959  0.3023  0.5800 -0.7455
12784TIP3   OH259766   0.173   2.871  15.290  0.0288  0.2352 -0.2330
12784TIP3    H159767   0.265   2.890  15.269  0.1943 -0.3772 -0.0629
12784TIP3    H259768   0.150   2.797  15.235  0.8256 -2.1931  2.4604
12785TIP3   OH259769   1.060   6.488  10.683  0.0724  1.2552 -0.4686
12785TIP3    H159770   1.080   6.469  10.591  0.3611  1.7707 -0.5111
12785TIP3    H259771   1.083   6.407  10.729 -3.5695 -0.5019 -1.2859
12786TIP3   OH259772   0.618   3.309   4.882  0.0932  0.2127 -0.0084
12786TIP3    H159773   0.562   3.232   4.875  0.2063  0.2238 -1.4123
12786TIP3    H259774   0.598   3.360   4.803  1.0334  0.9198  0.1918
12787TIP3   OH259775   4.418   6.351  16.413 -0.8442 -0.2538 -0.0850
12787TIP3    H159776   4.373   6.269  16.393  0.1033 -0.8064  0.0196
12787TIP3    H259777   4.498   6.325  16.459 -1.1165  0.7918  1.0473
12788TIP3   OH259778   5.050   5.753   2.283 -0.2521 -0.2249 -0.6434
12788TIP3    H159779   5.132   5.729   2.239 -0.8611 -2.5098 -0.6778
12788TIP3    H259780   5.010   5.669   2.305 -1.2938  0.8355  1.8453
12789TIP3   OH259781   5.680   0.371  17.181  0.1064  0.0874  0.0310
12789TIP3    H159782   5.590   0.338  17.189 -0.0681  0.6077  0.2289
12789TIP3    H259783   5.704   0.353  17.090  0.7602 -2.4526  0.6276
12790TIP3   OH259784   6.307   5.167  15.179 -0.3440  0.8082  0.1095
12790TIP3    H159785   6.364   5.110  15.129 -0.3144  0.7670  0.1904
12790TIP3    H259786   6.219   5.134  15.163 -0.1311 -1.6588  3.1174
12791TIP3   OH259787   1.127   1.406  10.964  0.1163  0.5060 -0.2643
12791TIP3    H159788   1.076   1.373  11.039  0.8315  1.1204  0.5155
12791TIP3    H259789   1.085   1.489  10.941  0.1631  0.5298 -0.2637
12792TIP3   OH259790   6.533   6.706   1.841 -0.0219  0.3983  0.2893
12792TIP3    H159791   6.445   6.709   1.803  0.5035  2.2723 -0.8941
12792TIP3    H259792   6.586   6.761   1.784  1.2977  1.6593  2.5693
12793TIP3   OH259793   1.641   0.800  11.317  0.0479 -0.6671  0.3054
12793TIP3    H159794   1.692   0.797  11.236 -1.5157 -2.4395 -0.7083
12793TIP3    H259795   1.609   0.710  11.328  1.4657 -0.8779  3.7630
12794TIP3   OH259796   0.567   4.534   1.986  0.1167  0.0772  0.5681
12794TIP3    H159797   0.496   4.472   1.972  0.8460 -1.0171  1.5232
12794TIP3    H259798   0.637   4.504   1.929  1.2553 -1.3636  2.5644
12795TIP3   OH259799   1.936   5.050   3.751  0.1821 -0.2977 -0.1422
12795TIP3    H159800   1.937   4.978   3.689  1.2859 -1.4758  1.1708
12795TIP3    H259801   2.021   5.092   3.740 -0.7168  1.2940 -1.3862
12796TIP3   OH259802   5.580   4.183  13.631  0.1044 -0.1671  0.8370
12796TIP3    H159803   5.605   4.108  13.577 -1.7373 -0.8020  0.7828
12796TIP3    H259804   5.507   4.223  13.584  1.7157  2.3787  0.2908
12797TIP3   OH259805   2.625   2.257  14.134 -0.1392 -0.4434 -0.5987
12797TIP3    H159806   2.573   2.324  14.091  2.5887  1.0081 -1.8700
12797TIP3    H259807   2.676   2.304  14.200 -1.2321 -2.0165  1.5122
12798TIP3   OH259808   5.769   0.998   5.983  0.1925 -0.0448 -0.4260
12798TIP3    H159809   5.840   0.973   5.925  1.1102 -1.0011  1.0310
12798TIP3    H259810   5.801   0.977   6.071 -1.8776 -0.4869  0.2934
12799TIP3   OH259811   2.094   1.414   4.649  0.0248 -0.2803  0.5197
12799TIP3    H159812   2.036   1.383   4.718  1.2968  0.7674  2.1193
12799TIP3    H259813   2.099   1.341   4.587 -1.8296 -0.9204  1.0499
12800TIP3   OH259814   0.200   5.756   5.070  0.0970 -0.2882  0.1477
12800TIP3    H159815   0.247   5.805   5.003  0.0628 -0.2203  0.1729
12800TIP3    H259816   0.167   5.678   5.025 -1.2711  0.5182 -0.3131
12801TIP3   OH259817   4.550   2.865   5.022 -0.4867 -0.1936  0.1635
12801TIP3    H159818   4.455   2.871   5.020 -0.4009  2.2532 -0.2249
12801TIP3    H259819   4.572   2.803   4.953 -1.8113 -2.4418  1.6467
12802TIP3   OH259820   5.844   4.778  12.465  0.3756 -0.1319 -0.3088
12802TIP3    H159821   5.832   4.683  12.469 -3.4920  0.1978 -0.3228
12802TIP3    H259822   5.841   4.798  12.371  0.8703  0.0692 -0.2856
12803TIP3   OH259823   4.914   1.820   0.610 -0.0874  0.4062  0.1951
12803TIP3    H159824   4.835   1.873   0.602 -0.2714  0.0140 -0.7548
12803TIP3    H259825   4.960   1.856   0.685 -1.3155  0.4539  0.9528
12804TIP3   OH259826   5.062   1.732  14.308  0.1791 -0.7065  0.2379
12804TIP3    H159827   5.126   1.785  14.260  0.7019 -0.7208  0.9098
12804TIP3    H259828   5.002   1.796  14.346  0.4326 -0.6240  0.5071
12805TIP3   OH259829   4.076   2.062   3.924  0.2971 -0.0207 -0.3336
12805TIP3    H159830   4.093   2.000   3.853  0.3091  1.0367 -1.2870
12805TIP3    H259831   4.005   2.117   3.892 -0.6021 -0.3310  1.0249
12806TIP3   OH259832   3.536   3.584   1.701 -0.1418  0.0283  0.0839
12806TIP3    H159833   3.586   3.570   1.621  0.1238 -0.4697  0.3341
12806TIP3    H259834   3.562   3.512   1.759  1.1154  1.4335  1.3443
12807TIP3   OH259835   3.957   3.497  13.004 -0.3187 -0.5680  0.1396
12807TIP3    H159836   4.041   3.521  12.965  0.4592 -0.8911  1.5490
12807TIP3    H259837   3.967   3.405  13.029 -1.2650 -0.7484 -0.0759
12808TIP3   OH259838   2.253   5.966  10.747 -0.3971  0.1360  0.2682
12808TIP3    H159839   2.342   5.981  10.779  0.8179 -0.4774 -2.5159
12808TIP3    H259840   2.262   5.893  10.685 -2.6516  0.6783 -0.8104
12809TIP3   OH259841   5.077   5.271   4.249 -0.2642 -0.1390  0.6147
12809TIP3    H159842   5.153   5.230   4.290  0.7659 -0.2703 -1.3115
12809TIP3    H259843   5.084   5.364   4.271  1.0667  0.0219 -0.3839
12810TIP3   OH259844   1.595   0.048  11.225  0.6840 -0.0026  0.1039
12810TIP3    H159845   1.672   0.025  11.174  1.8880  0.0036  1.8362
12810TIP3    H259846   1.563  -0.036  11.260  1.3335  0.2246  1.2958
12811TIP3   OH259847   4.508   2.301   1.554 -0.1229 -0.1752  0.0820
12811TIP3    H159848   4.460   2.220   1.574  1.0734 -0.3167  2.7785
12811TIP3    H259849   4.528   2.339   1.640  0.1186  2.5712 -1.0825
12812TIP3   OH259850   1.842   2.012  11.909 -0.3106 -0.2749  0.7462
12812TIP3    H159851   1.867   2.084  11.966  1.6623 -0.0242 -0.3449
12812TIP3    H259852   1.889   2.028  11.827 -2.7654 -0.8070 -0.8752
12813TIP3   OH259853   3.560   2.871   0.871  0.1418  0.1034 -0.0974
12813TIP3    H159854   3.645   2.844   0.837 -1.0714 -3.0773 -0.9480
12813TIP3    H259855   3.569   2.965   0.886  3.2990  0.1552 -1.5489
12814TIP3   OH259856   3.929   1.870  11.368 -0.0028 -0.2555  0.2701
12814TIP3    H159857   3.929   1.842  11.459 -1.2315 -0.6793  0.1476
12814TIP3    H259858   4.022   1.884  11.348  0.3447 -0.8991  1.3443
12815TIP3   OH259859   0.206   4.149  11.040  0.6026 -0.5915  0.1500
12815TIP3    H159860   0.297   4.176  11.050 -0.0326  1.0942  2.7103
12815TIP3    H259861   0.169   4.158  11.129 -2.0916 -0.9799 -0.8253
12816TIP3   OH259862   4.075   1.701   5.302  0.8111  0.5211 -0.1330
12816TIP3    H159863   4.092   1.697   5.396 -0.3053 -0.4111  0.0525
12816TIP3    H259864   4.134   1.635   5.265  0.6656  0.3178 -0.0011
12817TIP3   OH259865   3.364   3.657   1.247  0.4394  0.3500 -0.2415
12817TIP3    H159866   3.280   3.665   1.294 -0.4673  1.7175 -1.9541
12817TIP3    H259867   3.424   3.618   1.311 -1.5322 -0.8316  0.9925
12818TIP3   OH259868   5.144   0.303  14.219  0.3582  0.2245  0.2377
12818TIP3    H159869   5.162   0.268  14.132 -0.0232 -1.0088  0.6265
12818TIP3    H259870   5.161   0.397  14.212  3.9577 -0.3271 -0.1956
12819TIP3   OH259871   2.446   2.912   5.408 -0.2864  0.2793 -0.3453
12819TIP3    H159872   2.410   2.983   5.461 -0.4987  0.2458 -0.4425
12819TIP3    H259873   2.449   2.949   5.319 -1.2070 -0.1218 -0.5523
12820TIP3   OH259874   0.195   2.907   6.604 -0.2315 -0.6537  0.1723
12820TIP3    H159875   0.129   2.837   6.611 -1.9979  0.9363  0.1556
12820TIP3    H259876   0.227   2.902   6.514 -3.2860  1.0004 -1.1362
12821TIP3   OH259877   0.532   5.019   3.006  0.0629  0.7851  0.4376
12821TIP3    H159878   0.600   5.086   3.007 -0.4944  1.4364 -1.4436
12821TIP3    H259879   0.455   5.062   3.044  0.4580  0.2508  1.9477
12822TIP3   OH259880   2.029   1.057  13.036  0.5747 -0.3429 -0.0170
12822TIP3    H159881   1.980   0.992  12.985 -0.0912  0.1059  0.0404
12822TIP3    H259882   2.117   1.019  13.045  0.3357 -1.0057 -0.4078
12823TIP3   OH259883   1.000   2.772  13.419 -0.0119  0.7624 -0.2350
12823TIP3    H159884   1.061   2.710  13.378 -0.1497 -0.1388  0.8858
12823TIP3    H259885   0.915   2.728  13.417  0.1246  0.3184  1.7500
12824TIP3   OH259886   3.324   3.089   3.772 -0.2290 -0.2982 -0.2178
12824TIP3    H159887   3.361   3.177   3.771 -2.5541  0.8864  2.7798
12824TIP3    H259888   3.378   3.040   3.834 -0.0349 -0.4387 -0.4959
12825TIP3   OH259889   2.277   4.687  14.599 -0.2313 -0.2592 -0.0739
12825TIP3    H159890   2.282   4.779  14.572 -1.8722 -0.5809 -1.7037
12825TIP3    H259891   2.345   4.643  14.549  0.3860  0.0131  0.5158
12826TIP3   OH259892   0.706   3.367   2.065  0.6106 -0.4652  0.0800
12826TIP3    H159893   0.742   3.434   2.006  1.8379 -1.4303 -0.3119
12826TIP3    H259894   0.619   3.349   2.029  0.5678  0.3539 -0.2636
12827TIP3   OH259895   3.300   2.223   4.411  0.7569 -0.0770  0.0988
12827TIP3    H159896   3.364   2.285   4.445  0.8448 -0.8382  1.3573
12827TIP3    H259897   3.215   2.261   4.435  0.7710  0.2049 -0.2892
12828TIP3   OH259898   4.635   4.383  15.743  0.5789  0.2837 -0.3230
12828TIP3    H159899   4.653   4.471  15.774  1.6508  0.0029 -0.1233
12828TIP3    H259900   4.539   4.377  15.742  0.5066  1.1228  0.5694
12829TIP3   OH259901   5.649   2.256  11.258  0.3864 -0.1153 -0.0108
12829TIP3    H159902   5.609   2.313  11.323  1.2804  0.9984 -0.3947
12829TIP3    H259903   5.649   2.309  11.178 -0.0867 -1.2131 -0.7491
12830TIP3   OH259904   5.102   4.314   5.142 -0.2810 -0.1101  0.3365
12830TIP3    H159905   5.071   4.272   5.223  0.2705 -0.9766  0.1145
12830TIP3    H259906   5.049   4.275   5.073  0.3570 -0.5954  0.1064
12831TIP3   OH259907   1.678   5.748  10.807 -0.4126  0.7362 -0.1287
12831TIP3    H159908   1.654   5.672  10.754 -0.7883  0.8971 -0.1921
12831TIP3    H259909   1.722   5.711  10.884  0.9561  0.5384 -0.9577
12832TIP3   OH259910   2.945   3.166   4.506 -0.5080 -0.3561 -0.0542
12832TIP3    H159911   3.034   3.193   4.528  0.0125 -3.3868  2.1235
12832TIP3    H259912   2.891   3.243   4.526  1.4853  1.3990 -1.0071
12833TIP3   OH259913   3.696   0.251   3.806  0.1223 -0.1313 -0.5044
12833TIP3    H159914   3.724   0.207   3.726  0.7329 -0.0628 -0.3354
12833TIP3    H259915   3.675   0.180   3.866 -1.4922 -0.1923 -1.1008
12834TIP3   OH259916   3.756   5.500   0.935 -0.3529 -0.2910 -0.5293
12834TIP3    H159917   3.802   5.464   0.859 -1.0918 -0.7688 -0.7680
12834TIP3    H259918   3.737   5.423   0.989 -0.5842 -0.0582 -0.2824
12835TIP3   OH259919   1.464   0.565  11.916  0.5990 -0.3829  0.5531
12835TIP3    H159920   1.499   0.543  11.830  1.0400  0.6158  0.4571
12835TIP3    H259921   1.476   0.486  11.969 -1.6239 -1.7792 -0.8422
12836TIP3   OH259922   1.246   2.431   5.235  0.1159 -0.3338  0.3776
12836TIP3    H159923   1.190   2.490   5.284  0.7428  1.0596 -0.5220
12836TIP3    H259924   1.333   2.443   5.273  0.7526  1.2873 -1.4203
12837TIP3   OH259925   1.514   3.413   5.171  0.5876 -0.3541  0.1823
12837TIP3    H159926   1.443   3.352   5.153  1.8649 -1.2581 -2.3673
12837TIP3    H259927   1.511   3.475   5.097  2.1805 -0.1962  0.2184
12838TIP3   OH259928   4.021   5.722   1.588  0.6311 -0.5606 -0.4845
12838TIP3    H159929   3.979   5.637   1.574 -0.6256 -0.1014  0.3135
12838TIP3    H259930   4.029   5.760   1.500 -1.2817 -0.3829 -0.6177
12839TIP3   OH259931   1.093   4.270  12.133  0.5273  0.0088 -0.2143
12839TIP3    H159932   1.176   4.267  12.180 -0.6369  1.9606  2.2334
12839TIP3    H259933   1.107   4.334  12.063  1.2205 -0.0278 -0.1159
12840TIP3   OH259934   3.595   1.081  15.149  0.2426  0.2230 -0.9871
12840TIP3    H159935   3.673   1.133  15.132  2.5505 -1.9805  1.8371
12840TIP3    H259936   3.621   0.991  15.128 -0.5828 -0.9324  2.2910
12841TIP3   OH259937   6.556   6.269  15.499 -0.5526  0.4012  0.2865
12841TIP3    H159938   6.522   6.241  15.415 -1.1524  3.0147 -0.4301
12841TIP3    H259939   6.496   6.231  15.563 -1.3321  0.1034 -0.6032
12842TIP3   OH259940   1.494   1.716   0.975 -0.5905 -0.1351  0.0407
12842TIP3    H159941   1.423   1.695   0.914 -0.0704  1.6843 -1.2727
12842TIP3    H259942   1.574   1.713   0.921  0.0943 -0.1908  1.0355
12843TIP3   OH259943   1.794   3.268  13.939  0.2188 -0.1715  0.6926
12843TIP3    H159944   1.840   3.246  13.858  1.1829  0.9422  0.9217
12843TIP3    H259945   1.702   3.277  13.913  0.3720 -0.7543 -0.0832
12844TIP3   OH259946   3.567   4.555  11.946 -0.2847 -0.3605  0.0410
12844TIP3    H159947   3.661   4.572  11.952 -0.5263  1.2661 -0.3648
12844TIP3    H259948   3.529   4.601  12.021 -0.8802  0.1186 -0.5365
12845TIP3   OH259949   2.849   4.376  15.676 -0.3995  0.3408 -0.0977
12845TIP3    H159950   2.849   4.451  15.616 -2.5989 -0.0757 -0.7014
12845TIP3    H259951   2.928   4.389  15.730  0.8964  1.4530 -2.1311
12846TIP3   OH259952   0.956   2.786   3.075  0.1201 -0.4549  0.3174
12846TIP3    H159953   0.966   2.786   2.980 -0.8452 -1.2242  0.1928
12846TIP3    H259954   1.044   2.770   3.109  0.9478  2.2108 -0.3296
12847TIP3   OH259955   4.388   5.525   5.926 -0.8067  0.0604  0.8446
12847TIP3    H159956   4.457   5.531   5.859  1.1259 -0.9264  2.6218
12847TIP3    H259957   4.402   5.601   5.982 -2.0871  0.6054  0.4622
12848TIP3   OH259958   2.183   2.127  15.306 -0.8417  0.0957  0.2224
12848TIP3    H159959   2.245   2.137  15.379 -1.7008  0.2102  0.9529
12848TIP3    H259960   2.148   2.038  15.318 -1.9369  0.5838  0.7204
12849TIP3   OH259961   1.964   6.370  14.045  0.0003  0.3783  0.2946
12849TIP3    H159962   1.887   6.415  14.011 -0.5852 -1.5464 -1.1107
12849TIP3    H259963   1.931   6.319  14.120 -0.5182 -1.5663 -1.1552
12850TIP3   OH259964   3.258   4.872   3.892 -0.5219 -0.2736  0.3399
12850TIP3    H159965   3.280   4.905   3.979 -0.9838  0.2622  0.2578
12850TIP3    H259966   3.311   4.925   3.832  0.4689 -1.2306  0.3293
12851TIP3   OH259967   2.591   2.423   3.115  0.5532  0.4068  0.1001
12851TIP3    H159968   2.679   2.453   3.094  0.5770  0.6459  0.5403
12851TIP3    H259969   2.545   2.422   3.031  0.0657  3.2319  0.2600
12852TIP3   OH259970   5.047   2.327  11.947  0.0447  0.9791  0.0244
12852TIP3    H159971   5.134   2.335  11.985  0.1416  0.8522 -0.1701
12852TIP3    H259972   5.051   2.249  11.892 -0.1896  0.9751  0.0092
12853TIP3   OH259973   0.530   6.594  15.228 -0.3842  0.3893  0.0334
12853TIP3    H159974   0.441   6.562  15.247 -1.4573  0.3400 -4.0935
12853TIP3    H259975   0.571   6.522  15.180  0.9009  1.3775 -0.3991
12854TIP3   OH259976   1.226   0.206  16.215 -0.7653  0.0116 -0.2171
12854TIP3    H159977   1.271   0.130  16.176 -1.4409 -0.1265 -0.7423
12854TIP3    H259978   1.133   0.183  16.211 -0.9771  0.9028 -0.4420
12855TIP3   OH259979   5.912   3.184   4.286 -0.2608  0.0667  0.1833
12855TIP3    H159980   5.853   3.149   4.353 -0.5486  0.0111 -0.0978
12855TIP3    H259981   5.992   3.133   4.297 -0.6488 -0.6456 -0.1731
12856TIP3   OH259982   0.517   3.383   0.368  0.3547 -0.1045 -0.5146
12856TIP3    H159983   0.471   3.411   0.447 -0.7503  0.9478 -1.4984
12856TIP3    H259984   0.485   3.294   0.351 -1.2228  0.5389 -1.0776
12857TIP3   OH259985   4.567   3.365  13.978  0.3891  0.6908  0.3295
12857TIP3    H159986   4.542   3.417  14.054 -1.4554 -0.1947  0.3928
12857TIP3    H259987   4.555   3.274  14.006  1.2615  0.3047 -0.5131
12858TIP3   OH259988   4.080   4.857   0.376 -0.1061  0.0526 -0.8398
12858TIP3    H159989   4.042   4.776   0.410 -0.4679  1.0062  1.1693
12858TIP3    H259990   4.163   4.868   0.424 -0.4455  1.2430 -0.4697
12859TIP3   OH259991   5.649   4.973   0.655  0.1633  0.6706  0.4910
12859TIP3    H159992   5.579   4.997   0.595  0.8151  1.3750 -0.0106
12859TIP3    H259993   5.614   4.991   0.742 -0.8643 -0.5517  0.3544
12860TIP3   OH259994   3.672   6.592   5.778  0.3618 -0.3269 -0.0820
12860TIP3    H159995   3.766   6.585   5.762  0.1553  0.3713 -1.8298
12860TIP3    H259996   3.655   6.687   5.779 -0.3764 -0.4490 -0.1519
12861TIP3   OH259997   0.673   0.166  14.245  0.1218  0.5787  0.3641
12861TIP3    H159998   0.616   0.098  14.209  0.6844  0.2038  0.1701
12861TIP3    H259999   0.726   0.195  14.170  2.3434 -1.2224  1.1019
12862TIP3   OH260000   4.113   5.823   4.239 -0.2230  0.3146 -0.3786
12862TIP3    H160001   4.046   5.779   4.292 -0.0919  0.3487 -0.1816
12862TIP3    H260002   4.145   5.893   4.295 -0.5996  0.8166 -0.7854
12863TIP3   OH260003   6.760   1.458  12.462  0.3916 -0.0307 -0.1749
12863TIP3    H160004   6.811   1.399  12.407  0.5013  1.4524 -1.7344
12863TIP3    H260005   6.677   1.412  12.476  1.6850 -2.0027  1.5140
12864TIP3   OH260006   3.200   6.291  11.732  0.3735  0.4994 -0.2859
12864TIP3    H160007   3.280   6.244  11.710  0.5645  1.8547 -2.8310
12864TIP3    H260008   3.129   6.229  11.711  0.6854  0.0784 -0.1091
12865TIP3   OH260009   4.980   4.669  13.549 -0.8813 -0.1715 -0.2869
12865TIP3    H160010   5.074   4.687  13.557 -0.6559 -2.0776  2.8621
12865TIP3    H260011   4.940   4.717  13.622 -1.9035 -1.7437  0.2407
12866TIP3   OH260012   6.391   5.524   2.954 -0.5394  0.3056  0.1123
12866TIP3    H160013   6.429   5.597   2.905 -0.5351  0.6641  0.6422
12866TIP3    H260014   6.406   5.447   2.899  1.0136  0.4205  0.3339
12867TIP3   OH260015   1.897   2.164  11.500 -0.0190  0.2638  0.5497
12867TIP3    H160016   1.872   2.249  11.538  0.6381 -0.2998  2.3427
12867TIP3    H260017   1.849   2.160  11.417 -1.9286  1.3508  1.5312
12868TIP3   OH260018   6.478   5.627   2.237  0.0017 -0.6620 -0.5596
12868TIP3    H160019   6.495   5.714   2.200 -0.1898 -0.5760 -0.4488
12868TIP3    H260020   6.383   5.615   2.226 -0.2785 -0.1059  1.0163
12869TIP3   OH260021   1.786   4.969   1.723  0.1037  0.0985  0.3188
12869TIP3    H160022   1.760   5.023   1.649  2.2708  1.2922  0.3369
12869TIP3    H260023   1.767   5.023   1.800 -1.2365 -0.7426  0.6022
12870TIP3   OH260024   2.832   2.311   0.542  0.0485  0.2279 -0.6609
12870TIP3    H160025   2.766   2.362   0.590 -0.7531 -0.5686 -0.8819
12870TIP3    H260026   2.780   2.251   0.488  0.8525  1.8926 -3.4995
12871TIP3   OH260027   3.593   1.897  13.908  0.2089  0.1105 -0.1814
12871TIP3    H160028   3.675   1.862  13.943  0.5240 -2.0503 -2.8514
12871TIP3    H260029   3.525   1.857  13.963  0.8001 -0.6112  0.0408
12872TIP3   OH260030   1.515   0.510   1.009 -0.4530 -0.2666  0.2231
12872TIP3    H160031   1.500   0.419   1.036 -3.1170 -0.2866 -1.0018
12872TIP3    H260032   1.428   0.544   0.989  0.7114  1.6673 -2.1308
12873TIP3   OH260033   5.497   1.744  14.307  0.1334 -0.4579 -0.0423
12873TIP3    H160034   5.479   1.838  14.300 -1.4796 -0.6859  0.6104
12873TIP3    H260035   5.588   1.739  14.335  0.1086  0.9279  0.3551
12874TIP3   OH260036   4.041   2.351   1.394  0.6089  0.0128  0.2022
12874TIP3    H160037   3.998   2.417   1.340  0.5896 -0.9169 -0.9525
12874TIP3    H260038   4.134   2.375   1.390  0.7382 -0.6107 -1.0979
12875TIP3   OH260039   4.162   4.216  10.724  0.2693  0.7048 -0.3151
12875TIP3    H160040   4.166   4.267  10.643 -0.1926 -0.3759 -1.0400
12875TIP3    H260041   4.093   4.258  10.775 -0.8042  0.2544 -1.3307
12876TIP3   OH260042   2.288   2.553  11.675  0.3598 -0.6798  0.5202
12876TIP3    H160043   2.246   2.499  11.608  0.5840  1.7343 -1.7524
12876TIP3    H260044   2.381   2.553  11.651  0.1678  1.8605 -0.5585
12877TIP3   OH260045   2.995   2.637   2.533  0.1063 -0.2526 -0.0815
12877TIP3    H160046   2.912   2.684   2.546  0.5485  0.2273  1.1566
12877TIP3    H260047   3.045   2.654   2.612  1.8613  0.4043 -1.2626
12878TIP3   OH260048   1.973   0.637  10.971  0.8851 -0.8671  0.4021
12878TIP3    H160049   2.059   0.616  10.935  0.1692 -0.6063 -1.5670
12878TIP3    H260050   1.933   0.552  10.990  0.3691 -1.1548 -1.7423
12879TIP3   OH260051   5.857   4.770  16.120  0.0005 -0.5931 -0.5709
12879TIP3    H160052   5.784   4.785  16.061 -0.5205  1.5352  0.5078
12879TIP3    H260053   5.821   4.784  16.208  1.2843 -1.3179  0.1144
12880TIP3   OH260054   2.538   6.208   4.802  0.5110  0.4946 -0.2193
12880TIP3    H160055   2.558   6.143   4.870 -1.8786 -0.6084 -0.4871
12880TIP3    H260056   2.494   6.279   4.849 -1.6044 -0.4936 -0.5764
12881TIP3   OH260057   4.947   3.539   5.390 -0.1567  0.6598 -0.3068
12881TIP3    H160058   4.969   3.504   5.476 -0.5531  2.3546  0.5411
12881TIP3    H260059   4.877   3.483   5.358  0.3527 -0.3076  0.2366
12882TIP3   OH260060   6.481   4.462  16.611  0.0552 -0.9036 -0.1583
12882TIP3    H160061   6.465   4.427  16.698  0.2407 -1.8074 -0.4767
12882TIP3    H260062   6.506   4.386  16.558 -1.2793 -0.5948 -1.3193
12883TIP3   OH260063   4.314   3.614  12.555  0.4430  0.0089 -0.0376
12883TIP3    H160064   4.353   3.682  12.610 -0.7615  1.7076 -1.1683
12883TIP3    H260065   4.334   3.532  12.599  0.5667  1.2123  2.2681
12884TIP3   OH260066   3.008   4.342   4.681  0.0814  0.1582 -0.0900
12884TIP3    H160067   3.049   4.288   4.749 -0.8757 -1.4435 -0.7245
12884TIP3    H260068   2.916   4.316   4.683  0.3832 -1.7639 -3.5707
12885TIP3   OH260069   0.845   6.401   0.982  0.0245  0.3036 -0.2060
12885TIP3    H160070   0.805   6.368   1.062 -1.0300  2.0949  0.0789
12885TIP3    H260071   0.919   6.453   1.012  0.2193  0.1740 -0.4611
12886TIP3   OH260072   0.806   6.573  14.906 -0.6185  0.0602  0.1176
12886TIP3    H160073   0.828   6.481  14.900  0.3840  0.2171  1.1021
12886TIP3    H260074   0.886   6.619  14.880 -0.8527  0.6434  0.4102
12887TIP3   OH260075   1.884   3.440  11.796 -0.0551 -0.1938  0.4453
12887TIP3    H160076   1.850   3.379  11.862  1.3136 -1.7303 -0.2072
12887TIP3    H260077   1.960   3.480  11.837  0.5785 -0.8767 -0.0418
12888TIP3   OH260078   1.192   6.394  12.122 -0.0523 -0.0777  0.0961
12888TIP3    H160079   1.218   6.316  12.172  0.9367  0.2465  0.1091
12888TIP3    H260080   1.145   6.448  12.184  1.2387  0.3604  0.7360
12889TIP3   OH260081   4.850   5.204  12.620 -0.0803  0.4522  0.1487
12889TIP3    H160082   4.837   5.205  12.525  1.0863  1.0154 -0.0255
12889TIP3    H260083   4.816   5.120  12.648 -0.2411  0.1853 -0.7982
12890TIP3   OH260084   4.960   2.810  15.175 -0.3177 -0.2030  0.0881
12890TIP3    H160085   4.886   2.870  15.164 -1.1439 -0.7336  2.1750
12890TIP3    H260086   5.005   2.812  15.091 -0.8603  2.5774 -0.2329
12891TIP3   OH260087   6.253   4.281   1.024 -0.2615 -0.5081 -0.2311
12891TIP3    H160088   6.169   4.302   0.984 -2.2932 -2.6008  2.4986
12891TIP3    H260089   6.280   4.200   0.981 -0.1396 -0.3390 -0.4705
12892TIP3   OH260090   6.255   4.407  15.921 -0.4780 -0.7273  0.3844
12892TIP3    H160091   6.164   4.436  15.923 -0.2340  0.0787  2.0729
12892TIP3    H260092   6.254   4.321  15.962 -0.5090 -0.7563  0.3213
12893TIP3   OH260093   0.060   2.421  13.772 -0.1634  0.3308  0.2066
12893TIP3    H160094   0.105   2.337  13.770  1.6734  1.2716  0.2568
12893TIP3    H260095   0.041   2.441  13.681  0.7238  0.5263  0.0566
12894TIP3   OH260096   0.127   6.223   2.189 -0.3164  0.5370  0.4492
12894TIP3    H160097   0.037   6.209   2.160 -0.1923 -0.4678  0.5147
12894TIP3    H260098   0.118   6.248   2.281 -0.4815 -0.7142  0.7890
12895TIP3   OH260099   1.830   6.618  12.176 -0.3551 -0.6381 -0.2733
12895TIP3    H160100   1.849   6.608  12.269 -0.4842  0.6370 -0.0993
12895TIP3    H260101   1.809   6.711  12.165 -0.0804 -0.7144 -1.6242
12896TIP3   OH260102   1.783   0.626   4.847 -0.1185 -0.1895  0.0548
12896TIP3    H160103   1.728   0.548   4.853  0.4739 -0.6624 -0.5607
12896TIP3    H260104   1.871   0.593   4.833 -0.0291  0.5907 -1.4297
12897TIP3   OH260105   5.763   4.683   2.555  0.8199 -0.5576  0.1095
12897TIP3    H160106   5.715   4.623   2.611  0.9276 -0.1922  0.6054
12897TIP3    H260107   5.779   4.759   2.610 -1.0855  0.8133 -1.0916
12898TIP3   OH260108   4.547   4.580  14.834 -0.7195 -0.2689  0.2204
12898TIP3    H160109   4.518   4.594  14.744 -1.3082  1.4185  0.6463
12898TIP3    H260110   4.635   4.543  14.825 -0.0401  1.5422 -1.0540
12899TIP3   OH260111   1.683   2.967  14.361 -1.0106 -0.4386  0.0613
12899TIP3    H160112   1.719   2.943  14.275 -0.0583 -0.7929  0.5503
12899TIP3    H260113   1.589   2.951  14.352 -0.9524 -0.3132 -0.9667
12900TIP3   OH260114   5.894   0.312   3.786  0.3738  0.0761  0.1503
12900TIP3    H160115   5.821   0.367   3.757  0.1355 -0.1515  0.3096
12900TIP3    H260116   5.852   0.233   3.819  0.6057  0.4460  1.3833
12901TIP3   OH260117   4.305   6.498  13.638 -0.2022  0.3397 -0.3276
12901TIP3    H160118   4.338   6.435  13.702  0.1385  0.9755  0.1322
12901TIP3    H260119   4.285   6.446  13.561 -0.1876 -0.3700  0.1449
12902TIP3   OH260120   4.488   5.357   2.039  0.7833 -0.2215 -0.2151
12902TIP3    H160121   4.401   5.354   2.080  1.8005 -0.3481  2.0693
12902TIP3    H260122   4.501   5.268   2.006  0.0466 -0.1812 -0.6645
12903TIP3   OH260123   2.633   6.402   3.366  0.6917  0.3361  0.1766
12903TIP3    H160124   2.639   6.460   3.290 -1.7951  2.4465  1.4328
12903TIP3    H260125   2.553   6.352   3.353  0.9774 -0.3008  0.7618
12904TIP3   OH260126   4.846   3.686   0.059 -0.3998  0.3797  0.0478
12904TIP3    H160127   4.754   3.668   0.040 -0.6927  1.2538  0.5764
12904TIP3    H260128   4.878   3.605   0.099 -0.3625 -0.6709 -2.0099
12905TIP3   OH260129   3.187   2.706  12.921 -0.3428  0.7223 -0.0869
12905TIP3    H160130   3.222   2.688  13.008 -3.2458  0.2754  1.1190
12905TIP3    H260131   3.142   2.790  12.929  0.0312  1.0791 -1.4032
12906TIP3   OH260132   5.351   2.857  13.830 -0.4491  0.2169  0.1493
12906TIP3    H160133   5.364   2.950  13.847  1.0311  0.1461 -0.4942
12906TIP3    H260134   5.343   2.817  13.917 -0.7446  0.8784  0.4309
12907TIP3   OH260135   5.948   6.269   6.371  0.3777  0.4810 -0.1446
12907TIP3    H160136   5.923   6.178   6.362  1.7849  0.0768 -0.2458
12907TIP3    H260137   5.990   6.274   6.457  0.0940  1.0858 -0.0342
12908TIP3   OH260138   4.910   6.698   0.313 -0.0166  0.1582  0.1603
12908TIP3    H160139   4.915   6.782   0.269 -0.0430  0.5946  0.9623
12908TIP3    H260140   4.837   6.653   0.271  0.0120  0.5222 -0.2876
12909TIP3   OH260141   4.574   4.131   0.575 -0.1753  0.1449  0.0794
12909TIP3    H160142   4.583   4.043   0.538 -0.3307  1.1607 -2.5987
12909TIP3    H260143   4.650   4.179   0.543  0.4963  0.7850  2.3969
12910TIP3   OH260144   6.138   5.623   5.197 -0.2694  0.8979  0.1556
12910TIP3    H160145   6.197   5.636   5.271 -0.7857  0.1550  0.7061
12910TIP3    H260146   6.076   5.556   5.226 -1.1900  1.4285 -0.5279
12911TIP3   OH260147   5.848   5.571   5.591  0.1911 -0.2185  0.3651
12911TIP3    H160148   5.766   5.542   5.552  0.1276 -1.2892  1.2303
12911TIP3    H260149   5.823   5.644   5.647  0.0786  0.4515 -0.5442
12912TIP3   OH260150   3.856   0.328  16.719  0.4245 -0.1479 -0.4893
12912TIP3    H160151   3.772   0.330  16.766  0.5099 -2.1678 -0.1457
12912TIP3    H260152   3.836   0.363  16.632 -0.5330  0.3552 -0.0838
12913TIP3   OH260153   2.598   1.066  12.468  0.0836 -0.0399  0.0544
12913TIP3    H160154   2.556   1.100  12.547 -0.6215  0.5792 -0.5686
12913TIP3    H260155   2.628   1.144  12.421 -2.4333 -0.0794 -1.8810
12914TIP3   OH260156   2.574   1.309  12.926 -0.4196  0.0278  0.0828
12914TIP3    H160157   2.670   1.302  12.926 -0.3764  0.0672 -1.6519
12914TIP3    H260158   2.557   1.396  12.891 -1.0770 -0.4359 -0.7820
12915TIP3   OH260159   2.695   4.231  15.878  0.2361  0.5234  0.2738
12915TIP3    H160160   2.754   4.228  15.803 -0.6696  0.9309 -0.4607
12915TIP3    H260161   2.607   4.226  15.841 -0.1980 -0.5070  1.3910
12916TIP3   OH260162   3.591   0.183   5.033  0.6267 -0.3772  0.1525
12916TIP3    H160163   3.509   0.231   5.048  1.3187  0.1139  2.9848
12916TIP3    H260164   3.623   0.215   4.948 -0.1812  2.3543  0.7781
12917TIP3   OH260165   2.030   3.125   0.857  0.0102 -0.2185  0.7114
12917TIP3    H160166   1.958   3.076   0.816 -1.4676  1.4274  1.2200
12917TIP3    H260167   2.024   3.103   0.950  1.4006 -1.5205  0.5414
12918TIP3   OH260168   4.261   0.267  14.446 -0.2818  0.3989  0.9438
12918TIP3    H160169   4.302   0.327  14.508 -1.1696 -0.5148  2.4698
12918TIP3    H260170   4.317   0.270  14.369  1.6285  0.5455  2.2809
12919TIP3   OH260171   4.855   1.653  16.279  0.5781 -0.3674 -0.2076
12919TIP3    H160172   4.883   1.706  16.354  1.6458  1.3309 -1.7423
12919TIP3    H260173   4.927   1.593  16.264  0.9354  0.1747 -0.6710
12920TIP3   OH260174   3.745   1.051   6.502 -0.4923 -0.2123 -0.2524
12920TIP3    H160175   3.701   1.136   6.494 -1.7423 -0.8894 -0.8587
12920TIP3    H260176   3.690   1.001   6.561 -0.8251 -1.2451 -1.3953
12921TIP3   OH260177   1.631   0.704  15.080 -0.3543  0.3149  0.8657
12921TIP3    H160178   1.713   0.688  15.126  0.5779  1.2288 -0.4073
12921TIP3    H260179   1.564   0.700  15.148  0.6091 -1.4227  1.7900
12922TIP3   OH260180   6.454   3.405  13.233  0.1584 -0.2702 -0.1218
12922TIP3    H160181   6.412   3.486  13.205  0.7457 -0.3230 -1.1899
12922TIP3    H260182   6.389   3.337  13.215  0.1447 -0.1837 -0.4003
12923TIP3   OH260183   2.179   6.742   0.316 -0.5103 -0.1814 -0.2031
12923TIP3    H160184   2.160   6.833   0.336 -0.1229  0.0494 -0.8546
12923TIP3    H260185   2.094   6.698   0.323 -0.7163  0.2465  0.0182
12924TIP3   OH260186   0.868   3.111   1.326 -0.1754  0.0378 -0.5321
12924TIP3    H160187   0.811   3.138   1.398 -1.8120 -1.0511 -1.3389
12924TIP3    H260188   0.809   3.066   1.265  1.3739 -0.1356 -1.9738
12925TIP3   OH260189   3.032   0.797   1.884 -0.0414 -0.2237 -0.2140
12925TIP3    H160190   2.990   0.799   1.798 -2.4410 -1.0742  0.8792
12925TIP3    H260191   3.015   0.710   1.918 -0.3164  0.5093  1.6780
12926TIP3   OH260192   6.497   4.181   0.625 -0.6906 -0.7367 -0.3123
12926TIP3    H160193   6.548   4.199   0.704 -1.1934 -0.8460  0.0395
12926TIP3    H260194   6.549   4.218   0.553 -1.2667  1.3140  0.2771
12927TIP3   OH260195   2.553   4.522   3.337  0.0058  0.0049  0.1017
12927TIP3    H160196   2.648   4.508   3.344  0.1775  0.9133 -0.1943
12927TIP3    H260197   2.535   4.518   3.243 -0.0641  0.8789  0.0697
12928TIP3   OH260198   6.049   3.555   2.488  0.4617  0.3627 -0.1029
12928TIP3    H160199   5.955   3.561   2.502  0.0878 -0.2749 -1.9538
12928TIP3    H260200   6.084   3.639   2.517 -0.7578  0.8362  0.0397
12929TIP3   OH260201   2.631   2.379   0.693  0.0298  0.0954 -0.2046
12929TIP3    H160202   2.548   2.424   0.703 -0.2487 -0.8363  2.6796
12929TIP3    H260203   2.675   2.391   0.778  2.4138 -0.2926 -1.2940
12930TIP3   OH260204   2.923   0.670  16.281  0.3087 -0.1931 -0.8584
12930TIP3    H160205   2.906   0.576  16.289 -0.1900  0.0275  1.4124
12930TIP3    H260206   2.995   0.677  16.219  0.4522 -2.0806 -0.9473
12931TIP3   OH260207   3.254   3.154   0.577  0.4814  0.7166 -0.2604
12931TIP3    H160208   3.168   3.172   0.539  0.7999  0.7087 -1.0239
12931TIP3    H260209   3.315   3.189   0.511  1.1031 -1.3273 -0.8235
12932TIP3   OH260210   3.824   3.715  15.477  0.3729  0.1770  0.1423
12932TIP3    H160211   3.816   3.773  15.402  1.1812 -0.0375 -0.1207
12932TIP3    H260212   3.841   3.774  15.551 -0.8427  0.4185  0.2407
12933TIP3   OH260213   3.785   4.543  12.454  0.0930 -0.0871  0.3955
12933TIP3    H160214   3.772   4.465  12.400 -2.8922  0.6441 -0.1312
12933TIP3    H260215   3.696   4.572  12.476  1.0791  3.1732  0.5770
12934TIP3   OH260216   5.847   3.131  11.909  0.0496 -0.4289 -0.2718
12934TIP3    H160217   5.919   3.130  11.846  0.9191  0.0567  0.6899
12934TIP3    H260218   5.794   3.054  11.886  0.9204 -0.8478 -0.9423
12935TIP3   OH260219   5.904   3.903   5.464  0.6307  0.3120 -0.0569
12935TIP3    H160220   5.810   3.891   5.449  0.3761  0.6233  1.2278
12935TIP3    H260221   5.918   3.877   5.555  1.8423  0.0118 -0.3061
12936TIP3   OH260222   2.228   1.857   5.499  0.1432  0.4149 -0.0307
12936TIP3    H160223   2.184   1.772   5.494  2.5663 -0.9168 -0.1015
12936TIP3    H260224   2.303   1.842   5.556  0.6428  2.5427 -0.0428
12937TIP3   OH260225   5.060   3.622   3.627  0.0769  0.0131  0.8854
12937TIP3    H160226   5.125   3.672   3.577  0.6684 -0.4914  1.1399
12937TIP3    H260227   5.007   3.689   3.671 -0.4422  0.4650 -0.3717
12938TIP3   OH260228   2.505   0.032   0.954 -0.4019  0.0404 -0.2172
12938TIP3    H160229   2.466   0.038   0.867  1.5910 -1.6532 -1.3135
12938TIP3    H260230   2.514   0.123   0.982 -0.6844  0.6498 -1.9678
12939TIP3   OH260231   1.482   2.918   2.254 -0.4412  0.6158 -0.3540
12939TIP3    H160232   1.469   2.830   2.290 -0.0604  0.5607 -0.3501
12939TIP3    H260233   1.539   2.961   2.318 -1.5390  1.2453  0.2358
12940TIP3   OH260234   0.698   4.769  12.460 -0.0800 -0.0647 -0.3821
12940TIP3    H160235   0.752   4.796  12.533 -1.8569  0.4987  0.8032
12940TIP3    H260236   0.637   4.705  12.497 -1.7355  1.0502 -1.0563
12941TIP3   OH260237   4.994   1.473   0.244  0.4382 -0.2940  0.5441
12941TIP3    H160238   5.001   1.561   0.280  0.7522  0.8547 -2.1129
12941TIP3    H260239   5.027   1.416   0.314 -0.4456  1.5736  2.6039
12942TIP3   OH260240   4.777   0.179   2.612  0.2033  0.4239  0.3399
12942TIP3    H160241   4.749   0.090   2.590 -0.2080  0.3544  1.1353
12942TIP3    H260242   4.807   0.215   2.528 -1.6474  0.2890 -0.4245
12943TIP3   OH260243   0.765   3.949  15.635 -0.2164 -0.5806  0.2310
12943TIP3    H160244   0.740   4.039  15.654  0.0529 -0.4945  0.1690
12943TIP3    H260245   0.820   3.923  15.709  0.7935 -0.2592 -0.3922
12944TIP3   OH260246   0.162   6.564  14.267 -0.2868 -0.3810 -0.9381
12944TIP3    H160247   0.146   6.638  14.325  1.2900  0.7322 -1.8454
12944TIP3    H260248   0.129   6.593  14.181  1.6313 -0.0792 -1.6337
12945TIP3   OH260249   2.431   2.849  13.306  0.2346 -0.0554 -0.4947
12945TIP3    H160250   2.400   2.833  13.395 -0.9270 -0.0731 -0.8939
12945TIP3    H260251   2.523   2.823  13.308  0.9531  2.2406  1.3446
12946TIP3   OH260252   3.765   0.451  12.575  0.2630 -0.2071 -0.2950
12946TIP3    H160253   3.798   0.479  12.489  1.6108 -3.1800 -0.8451
12946TIP3    H260254   3.670   0.455  12.566  0.3735  1.3542 -1.2350
12947TIP3   OH260255   4.085   3.163   6.002  0.4008  0.4765 -0.4045
12947TIP3    H160256   4.124   3.232   5.950  0.7679  0.3780 -0.2618
12947TIP3    H260257   4.012   3.205   6.048  1.4666  1.1042  0.7524
12948TIP3   OH260258   1.697   4.964   3.304  0.6667  0.2312  0.1225
12948TIP3    H160259   1.685   5.036   3.366 -0.8877  0.7812 -0.7845
12948TIP3    H260260   1.792   4.947   3.305  0.8918  1.4507  1.2667
12949TIP3   OH260261   2.912   1.420   0.258  0.3955 -0.0724  0.2914
12949TIP3    H160262   2.840   1.359   0.277  0.1702 -0.1347 -0.7166
12949TIP3    H260263   2.895   1.450   0.169  1.3388  0.3199  0.2340
12950TIP3   OH260264   2.674   6.010   3.923 -0.2317 -0.1627 -0.1801
12950TIP3    H160265   2.620   6.019   4.002  0.2212 -2.5812  0.4893
12950TIP3    H260266   2.730   6.088   3.923 -2.4653  1.5469  0.0381
12951TIP3   OH260267   3.353   2.769   2.056 -0.1273  0.6530  0.4797
12951TIP3    H160268   3.264   2.802   2.057 -0.5426 -0.4183  0.4322
12951TIP3    H260269   3.345   2.678   2.084  0.7560  0.1358 -0.8320
12952TIP3   OH260270   4.817   2.743   2.528  0.3000 -0.2335  0.1992
12952TIP3    H160271   4.900   2.719   2.488  1.5016 -0.2907  2.5091
12952TIP3    H260272   4.792   2.666   2.578 -1.6808 -0.5522 -1.1819
12953TIP3   OH260273   3.220   5.734   5.872  0.7052  0.1558 -0.2065
12953TIP3    H160274   3.229   5.697   5.785  1.2804 -1.5401  0.5233
12953TIP3    H260275   3.290   5.693   5.923  2.5181  3.5717  0.3033
12954TIP3   OH260276   1.037   5.005  12.086 -0.3193 -0.0564  0.1779
12954TIP3    H160277   0.982   5.016  12.164  0.1955 -0.7518  0.6541
12954TIP3    H260278   1.007   4.923  12.047  0.9978 -0.9832  0.9980
12955TIP3   OH260279   6.731   3.077   2.315 -0.8653 -0.1395  0.0168
12955TIP3    H160280   6.749   3.062   2.223 -0.1537 -0.7416  0.2413
12955TIP3    H260281   6.693   3.165   2.319 -1.3617 -0.3057 -0.8964
12956TIP3   OH260282   6.558   5.888  10.820 -0.3654 -0.3147 -0.3308
12956TIP3    H160283   6.492   5.834  10.777 -1.8542 -0.1108  1.5769
12956TIP3    H260284   6.521   5.908  10.906  2.0169  0.1578  0.6712
12957TIP3   OH260285   6.731   0.308   1.326 -0.2669  0.3390 -0.2851
12957TIP3    H160286   6.787   0.384   1.313  0.1173  0.1450  0.1999
12957TIP3    H260287   6.787   0.233   1.304 -0.7318  0.2043 -1.0505
12958TIP3   OH260288   0.665   5.917   0.134  0.5798 -0.0175  0.5821
12958TIP3    H160289   0.586   5.888   0.180 -0.3298  0.1805 -0.7918
12958TIP3    H260290   0.727   5.936   0.204 -0.8972  0.7167  1.7651
12959TIP3   OH260291   6.618   2.905   5.500 -0.0665 -0.1354 -0.2882
12959TIP3    H160292   6.545   2.886   5.442  0.1023 -0.2945 -0.4470
12959TIP3    H260293   6.695   2.875   5.453  0.0970 -0.0200 -0.0962
12960TIP3   OH260294   6.635   4.211   0.876  0.5897  0.3555  0.2427
12960TIP3    H160295   6.639   4.138   0.938 -0.6152 -0.1963 -0.2890
12960TIP3    H260296   6.725   4.241   0.867  1.0374 -0.7852  0.8164
12961TIP3   OH260297   3.439   6.397  13.149 -0.0116  0.2845  0.1165
12961TIP3    H160298   3.455   6.472  13.206 -0.6021  0.4024  0.1367
12961TIP3    H260299   3.361   6.356  13.185  0.3409 -0.3777  0.1371
12962TIP3   OH260300   1.176   1.234   4.869 -1.1550  0.2713 -0.2703
12962TIP3    H160301   1.099   1.196   4.911 -0.6924 -1.4740 -0.9209
12962TIP3    H260302   1.146   1.260   4.782 -1.0101 -0.5065 -0.5627
12963TIP3   OH260303   0.455   5.748   1.624 -0.1052 -0.1975  0.7103
12963TIP3    H160304   0.395   5.703   1.684 -0.6261  0.0776  0.4018
12963TIP3    H260305   0.474   5.683   1.556 -0.6629 -0.0365  0.3968
12964TIP3   OH260306   2.262   1.571  16.319 -0.4707  0.0545  0.3182
12964TIP3    H160307   2.306   1.539  16.240 -1.9249  2.5433 -1.6482
12964TIP3    H260308   2.205   1.499  16.346 -1.3034 -0.2459 -2.0281
12965TIP3   OH260309   1.288   5.088  12.147 -0.2595 -0.1552 -0.6242
12965TIP3    H160310   1.246   5.153  12.204 -0.2472 -1.3019  0.7367
12965TIP3    H260311   1.215   5.041  12.108 -0.2552 -0.2056 -0.5704
12966TIP3   OH260312   5.840   1.018  16.363 -0.3676  0.1866 -0.1576
12966TIP3    H160313   5.828   1.112  16.347 -0.3991  0.0849 -0.7730
12966TIP3    H260314   5.833   0.978  16.276  0.4513 -0.3033 -0.0116
12967TIP3   OH260315   0.209   3.480   4.116 -0.0655 -0.4001  0.4546
12967TIP3    H160316   0.116   3.464   4.132 -0.0748 -1.0202 -0.1883
12967TIP3    H260317   0.243   3.511   4.201 -1.0525  0.8419  0.4294
12968TIP3   OH260318   1.729   2.572   5.039  0.2929  0.4934  0.2044
12968TIP3    H160319   1.684   2.596   5.120 -1.9908 -0.8705 -0.5411
12968TIP3    H260320   1.704   2.641   4.977 -3.5900 -1.7032 -1.0457
12969TIP3   OH260321   1.488   1.124   2.826  0.0943  0.7788 -0.2124
12969TIP3    H160322   1.465   1.075   2.747 -1.2726  0.1280  0.5391
12969TIP3    H260323   1.454   1.070   2.897  0.3519  1.8644  0.7570
12970TIP3   OH260324   4.526   6.627   4.368 -0.0229  0.0731 -0.2397
12970TIP3    H160325   4.448   6.651   4.418 -0.0015  0.8975 -0.5814
12970TIP3    H260326   4.546   6.538   4.395 -0.7157  0.0823  0.3198
12971TIP3   OH260327   5.130   3.931   3.649  1.0486  0.1340 -0.2041
12971TIP3    H160328   5.205   3.874   3.665  1.4735  0.5550 -0.6930
12971TIP3    H260329   5.124   3.985   3.728  0.1806 -1.0674  0.6059
12972TIP3   OH260330   4.223   4.402   3.765  0.3936 -0.3086  0.0437
12972TIP3    H160331   4.160   4.388   3.836  0.4794 -1.0698 -0.0248
12972TIP3    H260332   4.290   4.334   3.778  0.8451  0.0666 -0.2804
12973TIP3   OH260333   2.299   1.263  15.796 -0.4970 -0.7511 -0.2312
12973TIP3    H160334   2.248   1.332  15.755  1.2601 -0.4143 -2.0377
12973TIP3    H260335   2.377   1.308  15.829 -1.1475 -1.2868  2.1783
12974TIP3   OH260336   0.720   2.796  15.119 -0.7826 -0.1430  0.1231
12974TIP3    H160337   0.791   2.849  15.155  0.1789  0.8908 -2.9582
12974TIP3    H260338   0.652   2.859  15.095 -0.5114 -0.4768 -1.6604
12975TIP3   OH260339   5.157   4.983  14.250  0.4015 -0.7536 -0.3160
12975TIP3    H160340   5.249   4.962  14.233  0.7047  1.1540 -1.3069
12975TIP3    H260341   5.147   4.972  14.345  1.3869 -1.8928 -0.3295
12976TIP3   OH260342   6.677   0.898   0.618 -0.4880 -0.3182  0.0385
12976TIP3    H160343   6.768   0.874   0.634 -0.0518  0.9145 -0.4831
12976TIP3    H260344   6.678   0.941   0.532 -2.0981 -3.2714 -1.6550
12977TIP3   OH260345   6.352   3.316   1.550 -0.2982 -0.8825  0.4084
12977TIP3    H160346   6.355   3.396   1.498 -0.6925 -1.8384 -1.1667
12977TIP3    H260347   6.433   3.270   1.529  0.0026 -0.8588  1.4270
12978TIP3   OH260348   5.887   1.023   1.909 -0.9439  0.1264  0.0537
12978TIP3    H160349   5.886   1.022   2.005 -1.3982  1.3811  0.0846
12978TIP3    H260350   5.894   1.116   1.887  1.0168 -0.2391 -1.1336
12979TIP3   OH260351   5.295   2.153  12.411 -0.5165 -0.7639  0.4275
12979TIP3    H160352   5.285   2.058  12.401 -0.3061 -0.8128  0.6778
12979TIP3    H260353   5.370   2.163  12.470  0.3962 -0.4199 -0.7440
12980TIP3   OH260354   4.574   6.446   3.910  0.3525 -0.4455 -0.3257
12980TIP3    H160355   4.504   6.494   3.865  1.0727  1.4560  0.4905
12980TIP3    H260356   4.590   6.495   3.990  0.7915 -2.3770  0.8472
12981TIP3   OH260357   3.775   6.099   5.128  0.1301 -0.0960 -0.0985
12981TIP3    H160358   3.767   6.168   5.063 -0.5499 -1.4236 -1.4615
12981TIP3    H260359   3.713   6.032   5.101  0.5453 -1.1247  1.3639
12982TIP3   OH260360   3.898   4.609   1.001  0.3447 -0.0327  0.5679
12982TIP3    H160361   3.817   4.641   1.040 -0.1076  1.4224 -1.4142
12982TIP3    H260362   3.888   4.514   0.998 -2.8457  0.2118 -2.6066
12983TIP3   OH260363   1.673   4.807  17.197  0.4770 -0.1036 -0.0866
12983TIP3    H160364   1.687   4.894  17.158  0.3206 -0.6421 -1.3811
12983TIP3    H260365   1.761   4.775  17.217  0.6316 -0.2624 -1.0029
12984TIP3   OH260366   2.796   4.830  16.519 -0.1516 -0.1361 -0.2958
12984TIP3    H160367   2.792   4.856  16.611 -0.1317 -0.6244 -0.1567
12984TIP3    H260368   2.765   4.740  16.518 -1.5280  0.3289 -0.9731
12985TIP3   OH260369   3.452   5.063  10.622  0.1462 -0.0096 -0.3033
12985TIP3    H160370   3.370   5.013  10.621 -0.7163  1.3558 -1.3216
12985TIP3    H260371   3.519   5.000  10.597 -0.4906 -1.2735  1.0255
12986TIP3   OH260372   4.729   2.686  14.877  0.0978  0.2399  0.3058
12986TIP3    H160373   4.659   2.676  14.813 -0.3515 -0.3440  0.8822
12986TIP3    H260374   4.810   2.676  14.826 -0.2139  1.0470 -0.3857
12987TIP3   OH260375   5.509   0.027   1.871  0.4447 -0.1531  0.6690
12987TIP3    H160376   5.531   0.093   1.938 -0.2585  2.7981 -1.7825
12987TIP3    H260377   5.431  -0.017   1.906 -0.8757  2.3942  1.2423
12988TIP3   OH260378   4.891   2.017  15.571  0.1200  0.2581  0.0606
12988TIP3    H160379   4.961   1.952  15.566 -0.0573  0.1207 -0.8408
12988TIP3    H260380   4.820   1.972  15.617  1.1063  0.8731  2.2861
12989TIP3   OH260381   0.076   4.122  12.523 -0.1405 -0.0963 -0.1271
12989TIP3    H160382   0.099   4.192  12.462 -0.9286  0.3379  0.0522
12989TIP3    H260383   0.147   4.123  12.588  0.2894 -0.0300 -0.5960
12990TIP3   OH260384   2.071   2.000  10.628  0.1697  0.0298 -0.9679
12990TIP3    H160385   2.014   2.074  10.607 -0.3494  0.2432  1.0276
12990TIP3    H260386   2.013   1.935  10.668  1.3282  0.5065  1.7159
12991TIP3   OH260387   0.654   1.784   1.857 -0.4699 -0.3180  1.0080
12991TIP3    H160388   0.658   1.858   1.917  0.9771 -0.6830  1.4025
12991TIP3    H260389   0.564   1.784   1.824 -0.9568  0.5949  2.2752
12992TIP3   OH260390   1.593   4.148  11.434  0.2155 -0.0614  0.2404
12992TIP3    H160391   1.542   4.179  11.360  0.2348 -1.2103 -0.2718
12992TIP3    H260392   1.582   4.216  11.501 -0.8511  0.3616 -0.3457
12993TIP3   OH260393   5.651   0.544  16.508  0.0425 -0.0396 -0.1808
12993TIP3    H160394   5.680   0.622  16.556  0.1746 -0.7933  1.0151
12993TIP3    H260395   5.732   0.502  16.480 -0.0458  0.6953 -1.5956
12994TIP3   OH260396   1.804   1.043  12.808  0.1558  0.0407  0.1365
12994TIP3    H160397   1.855   0.963  12.819 -0.2837 -0.1473  0.9046
12994TIP3    H260398   1.769   1.061  12.896 -0.3413  0.6646 -0.1833
12995TIP3   OH260399   5.730   6.432   0.364  0.4906  0.0996 -0.2443
12995TIP3    H160400   5.781   6.432   0.283  1.1025 -1.0584  0.1092
12995TIP3    H260401   5.646   6.471   0.340  0.6087 -0.3642 -1.4716
12996TIP3   OH260402   4.572   4.196  11.324 -0.0289  0.8920 -0.3338
12996TIP3    H160403   4.648   4.145  11.296 -0.5350  1.5579 -3.3085
12996TIP3    H260404   4.607   4.260  11.385  2.1808  2.1483 -2.7378
12997TIP3   OH260405   5.430   5.262  13.267  0.1769 -0.0199 -0.7117
12997TIP3    H160406   5.342   5.270  13.303  0.4090 -1.3320  0.2184
12997TIP3    H260407   5.418   5.214  13.185  0.0598 -0.5926 -0.3655
12998TIP3   OH260408   0.277   3.958   2.335 -0.0764 -0.5856 -0.1159
12998TIP3    H160409   0.350   3.902   2.311 -1.2129 -1.6273 -1.3326
12998TIP3    H260410   0.205   3.927   2.280 -2.0043 -0.9787  2.4429
12999TIP3   OH260411   2.150   1.507   4.955 -0.5619 -0.2264 -0.2258
12999TIP3    H160412   2.189   1.594   4.941  0.0400 -0.2099  1.3993
12999TIP3    H260413   2.060   1.516   4.924 -0.3502  0.8074 -0.5905
13000TIP3   OH260414   1.848   0.015   0.917 -0.1527 -0.3599 -0.3529
13000TIP3    H160415   1.822   0.084   0.978  1.5077  0.6395 -0.7062
13000TIP3    H260416   1.845  -0.065   0.968 -2.9397 -0.2395 -0.1450
13001TIP3   OH260417   5.437   0.547   1.965  0.3621  0.2719 -0.0822
13001TIP3    H160418   5.480   0.630   1.942 -2.4050  1.7291 -0.4048
13001TIP3    H260419   5.448   0.540   2.060  3.3861 -0.7611 -0.3862
13002TIP3   OH260420   5.133   6.054   2.457  1.0046  0.0649 -0.0084
13002TIP3    H160421   5.188   6.068   2.535  0.5216 -0.4099  0.4208
13002TIP3    H260422   5.046   6.036   2.492  0.4173  1.4086 -0.6993
13003TIP3   OH260423   4.707   2.309   5.707  0.7993 -0.7955  0.9022
13003TIP3    H160424   4.642   2.332   5.639  0.6133  0.3167  1.4286
13003TIP3    H260425   4.776   2.375   5.697  0.5525 -0.3405  2.0715
13004TIP3   OH260426   1.869   5.490  16.508 -0.3725 -0.0620 -0.0329
13004TIP3    H160427   1.863   5.510  16.415 -1.1920 -1.3974 -0.2946
13004TIP3    H260428   1.806   5.419  16.521 -0.8658  0.6433  1.6949
13005TIP3   OH260429   0.926   0.998  15.842 -0.1876  0.2530 -0.0362
13005TIP3    H160430   0.911   1.088  15.815  0.0515  0.4407  0.4495
13005TIP3    H260431   0.999   1.003  15.904 -1.0082 -0.1184  0.9894
13006TIP3   OH260432   0.326   5.163   5.223 -0.1494 -0.0324 -0.1127
13006TIP3    H160433   0.241   5.124   5.243 -0.0335 -0.0395  0.3721
13006TIP3    H260434   0.335   5.236   5.284  1.5981 -1.9875  2.1518
13007TIP3   OH260435   5.965   1.792   6.222 -0.6242 -0.1429  0.1034
13007TIP3    H160436   6.007   1.722   6.273 -1.1241  0.6519  1.6729
13007TIP3    H260437   6.027   1.865   6.227 -1.4212  0.4890  1.0185
13008TIP3   OH260438   0.954   0.296  16.971  0.6166  0.1936  0.1179
13008TIP3    H160439   1.048   0.292  16.987  1.0056 -0.7516 -1.9912
13008TIP3    H260440   0.943   0.366  16.906 -0.4012  1.5368  1.6614
13009TIP3   OH260441   6.606   2.660  14.365 -0.2796 -0.1291  0.5649
13009TIP3    H160442   6.581   2.570  14.342 -0.0609  0.0612 -0.4489
13009TIP3    H260443   6.536   2.689  14.424 -0.4795 -0.8802  0.7126
13010TIP3   OH260444   4.089   4.887  13.518 -0.0440 -0.2605  0.1370
13010TIP3    H160445   4.137   4.932  13.448 -0.1581 -0.5148 -0.1094
13010TIP3    H260446   4.155   4.832  13.561 -0.0996 -0.5635 -0.1622
13011TIP3   OH260447   6.262   5.053  13.352  0.1317 -0.3094  0.0164
13011TIP3    H160448   6.267   5.122  13.287 -2.0261 -0.7058 -0.6336
13011TIP3    H260449   6.233   5.096  13.432 -1.6129 -0.4965 -0.4959
13012TIP3   OH260450   1.984   4.917  14.273 -0.1399  0.0729 -0.2248
13012TIP3    H160451   1.995   4.922  14.178 -0.7541  2.9901 -0.2118
13012TIP3    H260452   1.901   4.871  14.285 -0.4173  0.3166 -1.1078
13013TIP3   OH260453   5.370   4.995   5.871  0.0043 -0.2462 -0.1083
13013TIP3    H160454   5.325   5.073   5.902  2.2016  0.6892  0.9527
13013TIP3    H260455   5.401   4.952   5.950  0.7734 -0.9648 -0.7771
13014TIP3   OH260456   3.882   4.141   1.428  0.4355 -0.2131 -0.3646
13014TIP3    H160457   3.943   4.214   1.417  0.4286 -0.4451 -2.3075
13014TIP3    H260458   3.837   4.135   1.343 -0.9827 -1.2148  0.4246
13015TIP3   OH260459   1.518   6.545  14.707  0.1522 -0.5697 -0.3201
13015TIP3    H160460   1.544   6.636  14.695  1.0531 -0.9881 -1.7062
13015TIP3    H260461   1.512   6.509  14.619  0.7450 -2.1049  0.2288
13016TIP3   OH260462   2.671   0.128  11.543  0.0765 -0.7619 -0.1076
13016TIP3    H160463   2.679   0.034  11.530  0.6307 -0.6081 -0.9891
13016TIP3    H260464   2.761   0.162  11.532  0.0072 -0.2174  0.9222
13017TIP3   OH260465   1.094   2.076   0.536 -0.0767  0.4880  0.5699
13017TIP3    H160466   1.114   2.058   0.628  2.0319  0.4421  0.1631
13017TIP3    H260467   1.110   1.994   0.491 -3.0468 -0.0642  0.3521
13018TIP3   OH260468   3.379   2.351  16.823  0.0485 -0.0931 -0.2488
13018TIP3    H160469   3.364   2.417  16.755  1.7153  1.3941  0.7103
13018TIP3    H260470   3.440   2.289  16.783 -0.2465 -0.1494 -0.6196
13019TIP3   OH260471   4.210   4.392  11.639 -0.2200  0.1121  0.2228
13019TIP3    H160472   4.205   4.299  11.616 -0.5200  0.3683 -0.7747
13019TIP3    H260473   4.262   4.432  11.569 -0.0557  0.6980  0.6681
13020TIP3   OH260474   1.237   1.161  11.157  0.3525  0.3706 -0.2625
13020TIP3    H160475   1.147   1.183  11.179  0.1379 -1.0097  0.3404
13020TIP3    H260476   1.289   1.235  11.189 -0.5158  0.9983 -0.2789
13021TIP3   OH260477   6.399   4.741   0.910 -0.4775 -0.0919  0.5413
13021TIP3    H160478   6.386   4.727   1.003 -1.6910 -0.6977  0.3121
13021TIP3    H260479   6.349   4.820   0.890  2.4394  1.9843  0.9551
13022TIP3   OH260480   3.676   1.077   4.392  0.6958 -0.2093  0.2753
13022TIP3    H160481   3.737   1.144   4.424 -0.9666  0.8141  1.5238
13022TIP3    H260482   3.620   1.124   4.330 -0.6462 -0.3391  1.3446
13023TIP3   OH260483   3.236   5.227  10.731  0.0259 -0.2698  0.3249
13023TIP3    H160484   3.308   5.198  10.674  0.5210 -0.5128  1.0536
13023TIP3    H260485   3.268   5.308  10.770  0.2273 -0.7773  1.2381
13024TIP3   OH260486   0.741   2.116   3.982 -0.5264  0.4907  0.2254
13024TIP3    H160487   0.666   2.148   3.933 -1.6915 -0.3304  1.4028
13024TIP3    H260488   0.777   2.195   4.024 -2.3122  0.6082  1.6995
13025TIP3   OH260489   3.491   5.124  11.768  0.5053 -0.4108  0.4368
13025TIP3    H160490   3.439   5.197  11.735  0.3053  0.6084  2.7884
13025TIP3    H260491   3.569   5.123  11.714 -0.4520  0.1700 -1.0101
13026TIP3   OH260492   5.447   0.083   4.149 -0.0701 -0.2495  0.1814
13026TIP3    H160493   5.421   0.009   4.095  1.8726  0.1421 -1.3950
13026TIP3    H260494   5.504   0.046   4.217  1.8863 -0.1392 -1.3182
13027TIP3   OH260495   2.893   1.380  10.450  0.6050 -0.6559 -0.5856
13027TIP3    H160496   2.929   1.298  10.416 -1.8412 -2.1112  0.0294
13027TIP3    H260497   2.852   1.356  10.533  0.8786  1.4924  0.2382
13028TIP3   OH260498   0.110   2.358   6.626 -0.2928  0.6785  0.6633
13028TIP3    H160499   0.052   2.366   6.550  0.2646 -0.3659  0.1063
13028TIP3    H260500   0.050   2.353   6.700 -0.8948  0.4659  0.1755
13029TIP3   OH260501   5.864   5.590   1.515  0.6778  0.1687  0.1087
13029TIP3    H160502   5.860   5.674   1.469  1.3068  0.0870 -0.1152
13029TIP3    H260503   5.886   5.614   1.605  0.3606  0.2759  0.1574
13030TIP3   OH260504   5.863   1.788  16.741  0.0059 -0.4689 -0.5950
13030TIP3    H160505   5.870   1.883  16.748  0.1875 -0.5867  2.6909
13030TIP3    H260506   5.911   1.755  16.817 -1.8053 -3.0637 -0.4288
13031TIP3   OH260507   4.805   4.148  16.467  0.5674 -0.1435 -0.2377
13031TIP3    H160508   4.715   4.156  16.436  0.4564  1.2831  0.4033
13031TIP3    H260509   4.845   4.085  16.407 -1.2531 -2.0425  0.4013
13032TIP3   OH260510   2.363   0.382  15.327  0.1319 -0.4075  0.1169
13032TIP3    H160511   2.361   0.287  15.333 -1.6242 -0.5628 -1.8256
13032TIP3    H260512   2.433   0.401  15.264 -0.8201 -0.5774 -1.0273
13033TIP3   OH260513   6.383   4.836  13.194  0.7284  0.1081  0.1131
13033TIP3    H160514   6.412   4.856  13.105  3.4630 -1.0498  0.6550
13033TIP3    H260515   6.391   4.919  13.241  2.5944  0.0160  0.0374
13034TIP3   OH260516   4.825   3.047   5.757 -0.3787  0.2205  0.5241
13034TIP3    H160517   4.741   3.058   5.712 -0.3290  0.4998  0.4939
13034TIP3    H260518   4.803   3.057   5.850 -0.5203 -0.6005  0.5837
13035TIP3   OH260519   5.628   2.597   4.036  0.1432  0.0528  0.4275
13035TIP3    H160520   5.557   2.585   3.973 -1.2145  0.5575  1.7829
13035TIP3    H260521   5.647   2.690   4.034 -0.5725  0.2432  1.3891
13036TIP3   OH260522   5.168   0.737   3.908  0.6359  0.2171 -0.3503
13036TIP3    H160523   5.152   0.653   3.951 -3.7322  0.2720 -1.3931
13036TIP3    H260524   5.199   0.794   3.978  3.2476 -2.0372  0.4755
13037TIP3   OH260525   3.032   6.235   1.033  0.1141 -0.2159 -0.0647
13037TIP3    H160526   2.974   6.294   0.984 -0.3527  0.5238  1.2883
13037TIP3    H260527   2.987   6.151   1.032 -0.5827  0.1429  0.2546
13038TIP3   OH260528   4.664   6.281   2.243 -0.1475  1.0813  0.5823
13038TIP3    H160529   4.603   6.206   2.236  1.1378  0.1428 -2.2070
13038TIP3    H260530   4.705   6.270   2.328 -0.6539 -0.9166  0.6394
13039TIP3   OH260531   1.496   5.423  12.596 -0.3478  0.0951  0.1764
13039TIP3    H160532   1.546   5.501  12.570 -0.8257  0.4586  0.3368
13039TIP3    H260533   1.489   5.371  12.515 -2.6978  1.6889 -0.7424
13040TIP3   OH260534   3.764   2.047   1.694 -0.1440 -0.3428  0.6380
13040TIP3    H160535   3.845   2.015   1.734  0.3814 -1.3088 -1.0992
13040TIP3    H260536   3.739   1.978   1.632 -1.0687  0.9566 -0.4990
13041TIP3   OH260537   3.581   4.331   1.847  0.0347 -0.1078 -0.0747
13041TIP3    H160538   3.649   4.306   1.785 -0.4631  0.9443 -1.0793
13041TIP3    H260539   3.628   4.380   1.915  0.0860  2.7154 -1.9574
13042TIP3   OH260540   5.625   5.986  11.359 -0.0735 -0.1859  0.0381
13042TIP3    H160541   5.708   5.983  11.312  0.4743  0.4905  0.9226
13042TIP3    H260542   5.627   6.070  11.406 -0.8988 -0.5301  0.7161
13043TIP3   OH260543   3.653   2.249  15.041 -0.4567  0.2821 -0.0761
13043TIP3    H160544   3.580   2.243  15.103 -0.4437  2.4243  0.2003
13043TIP3    H260545   3.724   2.202  15.084 -1.2020 -0.5186  0.3287
13044TIP3   OH260546   5.301   0.831   1.521  0.0698  0.3015  0.1266
13044TIP3    H160547   5.355   0.785   1.586  1.0975  0.6230 -0.4732
13044TIP3    H260548   5.350   0.823   1.440 -2.0460 -1.6362 -1.0743
13045TIP3   OH260549   0.636   6.666  16.917  0.0056 -0.0416 -0.1357
13045TIP3    H160550   0.600   6.730  16.855  0.1490  0.3714  0.2008
13045TIP3    H260551   0.674   6.719  16.986 -0.5568 -0.5082  0.5444
13046TIP3   OH260552   6.662   1.012   1.917  0.2309  0.2078 -0.4040
13046TIP3    H160553   6.740   1.059   1.946  1.3429 -1.8233  0.0842
13046TIP3    H260554   6.605   1.008   1.994  1.1257 -1.1228  0.2254
13047TIP3   OH260555   3.607   4.523   2.956 -0.7430 -0.3586  0.3199
13047TIP3    H160556   3.672   4.586   2.985  0.2592 -1.3276  0.2349
13047TIP3    H260557   3.590   4.546   2.865 -1.6977  0.8504  0.7748
13048TIP3   OH260558   3.586   0.608  15.805  0.0383 -0.6009 -0.5007
13048TIP3    H160559   3.567   0.524  15.763 -1.0077  0.6855 -2.7649
13048TIP3    H260560   3.629   0.659  15.737 -0.4941  1.1277  0.4159
13049TIP3   OH260561   2.560   4.997  12.339  0.5869  0.0058 -0.0440
13049TIP3    H160562   2.509   4.947  12.275  0.2622 -1.2338  1.1315
13049TIP3    H260563   2.651   4.974  12.321  0.5527  0.2519 -0.5356
13050TIP3   OH260564   0.999   0.594   3.542 -0.3018  0.0801 -0.0284
13050TIP3    H160565   1.006   0.589   3.637  0.0607 -5.0253 -0.0478
13050TIP3    H260566   1.051   0.671   3.519  1.1976  0.4639  3.7989
13051TIP3   OH260567   6.043   1.870   0.899 -0.3604  0.0516 -0.0743
13051TIP3    H160568   6.018   1.864   0.991 -2.6172 -3.4760 -0.7264
13051TIP3    H260569   6.129   1.829   0.895 -0.1587  0.4117  0.4606
13052TIP3   OH260570   4.986   5.909   5.585 -0.5202  0.0252 -0.2034
13052TIP3    H160571   5.009   5.982   5.527 -2.0440  0.1595 -0.6609
13052TIP3    H260572   4.984   5.832   5.527  0.4555 -0.2982  0.1641
13053TIP3   OH260573   6.113   2.023   3.073 -0.5588  0.1071  0.0910
13053TIP3    H160574   6.059   2.092   3.035 -1.1663  0.3375  1.3241
13053TIP3    H260575   6.108   1.951   3.010 -0.2728  1.0229 -0.9938
13054TIP3   OH260576   1.438   1.090  12.541  0.3780 -0.8677 -0.2629
13054TIP3    H160577   1.462   1.022  12.604  0.2385 -1.2305 -0.5942
13054TIP3    H260578   1.344   1.103  12.553 -0.0010 -2.1655 -1.5473
13055TIP3   OH260579   3.276   6.255   2.731  0.0443  0.3344 -0.1176
13055TIP3    H160580   3.203   6.213   2.777  1.0119 -2.4580 -0.8638
13055TIP3    H260581   3.245   6.263   2.640  0.3458 -0.0831 -0.2617
13056TIP3   OH260582   5.033   0.412  12.664 -0.2429  0.4049  0.3106
13056TIP3    H160583   5.128   0.414  12.673  0.0879 -1.4493 -1.6979
13056TIP3    H260584   5.003   0.356  12.735  0.4631 -0.9002 -0.3822
13057TIP3   OH260585   0.380   4.113  15.606 -0.3371  0.7492  0.3036
13057TIP3    H160586   0.335   4.170  15.544 -0.6499  0.2770  0.0859
13057TIP3    H260587   0.411   4.040  15.552 -1.5459 -0.2174  0.8642
13058TIP3   OH260588   0.021   0.918  13.244 -0.4195  0.4444  0.5530
13058TIP3    H160589   0.039   0.825  13.237 -0.2186  0.5538 -0.6156
13058TIP3    H260590   0.107   0.960  13.234 -0.6546  0.7945 -0.0288
13059TIP3   OH260591   1.274   1.388   0.619  0.1626  0.9091  0.7082
13059TIP3    H160592   1.191   1.407   0.662 -0.1464  0.9997  0.0942
13059TIP3    H260593   1.295   1.298   0.645 -1.5267 -0.1491 -1.2450
13060TIP3   OH260594   2.126   5.558   4.049  0.2171 -0.0536  0.0234
13060TIP3    H160595   2.206   5.612   4.043 -0.1162  0.4362 -0.0818
13060TIP3    H260596   2.060   5.610   4.004 -0.1680 -0.4539  0.1300
13061TIP3   OH260597   5.357   1.516   6.869 -0.0972 -0.2482 -0.7529
13061TIP3    H160598   5.389   1.426   6.878 -0.3173 -0.4306 -1.6289
13061TIP3    H260599   5.288   1.524   6.934 -0.0486 -0.7031 -0.6430
13062TIP3   OH260600   3.176   4.211   5.110 -0.4746  0.2499  0.1415
13062TIP3    H160601   3.191   4.305   5.122 -0.7516  0.2166  0.8306
13062TIP3    H260602   3.088   4.196   5.147  0.1513 -0.5205  1.4104
13063TIP3   OH260603   6.640   0.171  15.033 -0.0570  0.1656  0.1665
13063TIP3    H160604   6.555   0.179  14.990  0.7552  2.1429 -1.2632
13063TIP3    H260605   6.691   0.114  14.975 -0.1437 -0.2969  0.5479
13064TIP3   OH260606   4.944   4.775  13.796 -0.4517 -0.2144 -0.1578
13064TIP3    H160607   4.950   4.845  13.861 -0.9096 -0.4829  0.1800
13064TIP3    H260608   4.916   4.698  13.845 -2.2332 -0.0862 -0.8753
13065TIP3   OH260609   6.067   2.258   4.915  0.2398  0.7946  0.2191
13065TIP3    H160610   6.034   2.229   4.830  2.8175  0.0139 -0.6241
13065TIP3    H260611   6.161   2.271   4.900  0.4647  2.3661  2.5241
13066TIP3   OH260612   4.029   3.654  11.658 -0.1395  0.0259 -0.3601
13066TIP3    H160613   4.109   3.670  11.608  0.2499  0.1210  0.2753
13066TIP3    H260614   3.964   3.630  11.592  0.5077 -0.4147 -0.8549
13067TIP3   OH260615   3.152   4.198   4.853 -0.4504  0.2663 -0.0769
13067TIP3    H160616   3.168   4.175   4.945  1.3281  2.4850  0.2378
13067TIP3    H260617   3.198   4.131   4.803 -0.2692 -0.1678  0.6516
13068TIP3   OH260618   6.414   3.741   3.453 -0.1937 -0.6059  0.2004
13068TIP3    H160619   6.445   3.665   3.503 -0.2961 -0.8574 -0.1118
13068TIP3    H260620   6.465   3.739   3.372 -1.5938 -1.5393 -0.7154
13069TIP3   OH260621   2.425   0.541  16.458 -0.2457  0.3646  0.0767
13069TIP3    H160622   2.357   0.601  16.430 -0.5020  0.3220  0.6003
13069TIP3    H260623   2.486   0.538  16.384 -0.2048  1.3019  0.0628
13070TIP3   OH260624   5.076   4.411  16.747  0.4608  0.3993 -0.1168
13070TIP3    H160625   5.087   4.426  16.653 -0.1493  0.1580 -0.2318
13070TIP3    H260626   5.165   4.409  16.781  0.7325 -0.4267 -0.8348
13071TIP3   OH260627   4.204   0.618   2.334  0.4139 -0.0948  0.0479
13071TIP3    H160628   4.191   0.525   2.313  1.9430 -0.0280 -1.4490
13071TIP3    H260629   4.276   0.645   2.277 -0.0635  2.0474  0.3829
13072TIP3   OH260630   4.093   4.030  16.945  0.3635 -0.7351 -0.4745
13072TIP3    H160631   4.016   4.037  17.001 -0.1183 -0.7878 -1.1198
13072TIP3    H260632   4.160   3.990  17.001  0.9187  2.0375  1.0353
13073TIP3   OH260633   0.139   5.556  11.036 -0.1225  0.1143 -0.6466
13073TIP3    H160634   0.101   5.469  11.051  2.7398 -1.3045 -0.8837
13073TIP3    H260635   0.177   5.581  11.120  1.0646  0.0612 -1.1568
13074TIP3   OH260636   5.223   6.317  13.094  0.1765 -0.1049  0.1318
13074TIP3    H160637   5.253   6.343  13.007 -0.2733  1.6274  0.4445
13074TIP3    H260638   5.225   6.221  13.093 -1.6298 -0.2211 -2.4226
13075TIP3   OH260639   6.131   1.569   5.245 -0.6302  0.2196  0.4148
13075TIP3    H160640   6.147   1.629   5.318 -0.4995 -0.2094  0.7426
13075TIP3    H260641   6.218   1.537   5.220 -0.7675 -0.4715  0.7928
13076TIP3   OH260642   6.641   4.351  15.972 -0.2078  0.0087 -0.7239
13076TIP3    H160643   6.641   4.421  16.037  2.4929  0.4216 -1.0570
13076TIP3    H260644   6.598   4.278  16.015 -0.5366  0.9849  0.6658
13077TIP3   OH260645   2.903   3.101  16.167 -0.2635 -0.2084 -0.0057
13077TIP3    H160646   2.865   3.017  16.141  0.3371 -0.4331 -0.1951
13077TIP3    H260647   2.896   3.156  16.089 -0.2769 -0.2253 -0.0157
13078TIP3   OH260648   5.274   3.976   6.474 -0.1883  0.7851 -0.4661
13078TIP3    H160649   5.359   3.983   6.517 -0.3825  1.3598 -0.1656
13078TIP3    H260650   5.211   3.970   6.546 -0.3896  0.0592 -0.6871
13079TIP3   OH260651   0.342   1.462  13.225 -0.2986 -0.3853  0.0760
13079TIP3    H160652   0.367   1.517  13.151  0.7707 -1.5015 -0.4284
13079TIP3    H260653   0.308   1.523  13.290  2.6668  1.1545  0.3450
13080TIP3   OH260654   6.055   0.827  13.463 -0.3360  0.4386 -0.3369
13080TIP3    H160655   6.138   0.781  13.450 -1.4205 -1.3638 -1.3660
13080TIP3    H260656   6.068   0.877  13.544  1.5925 -0.1297 -0.2349
13081TIP3   OH260657   2.228   1.424  15.546  0.3454  0.3968 -0.0534
13081TIP3    H160658   2.220   1.336  15.510  2.0775  0.8003 -1.6371
13081TIP3    H260659   2.147   1.468  15.521  0.5769 -0.0055 -1.6807
13082TIP3   OH260660   0.543   2.006  11.875 -0.5161 -0.0745  0.1183
13082TIP3    H160661   0.508   2.059  11.946  0.6047  0.9811 -0.0851
13082TIP3    H260662   0.469   1.993  11.816 -0.7179  1.6591 -0.0520
13083TIP3   OH260663   0.591   1.581   1.024 -0.7311  0.1769  0.2256
13083TIP3    H160664   0.576   1.572   1.118  1.2144 -0.1343  0.5476
13083TIP3    H260665   0.552   1.665   1.001 -2.0668 -0.1668  1.0900
13084TIP3   OH260666   2.702   0.473   5.364  0.3290 -0.0892  0.0254
13084TIP3    H160667   2.716   0.381   5.388  0.1274 -0.7732 -2.1997
13084TIP3    H260668   2.654   0.510   5.438 -2.2561 -2.5869 -0.2217
13085TIP3   OH260669   6.565   2.314  17.306 -0.1559  0.0171 -0.9723
13085TIP3    H160670   6.493   2.339  17.363 -0.0783  2.7555 -1.9164
13085TIP3    H260671   6.639   2.369  17.334  1.1017 -1.5547 -1.0608
13086TIP3   OH260672   5.864   1.587  12.456  0.5984  0.7609 -0.0179
13086TIP3    H160673   5.847   1.660  12.516  2.4887 -0.0851  1.6713
13086TIP3    H260674   5.829   1.511  12.500  0.1007  0.3966 -1.0152
13087TIP3   OH260675   2.768   3.046   5.183  0.8176  0.0419  0.1612
13087TIP3    H160676   2.801   3.005   5.263 -0.4841 -0.1552  0.6319
13087TIP3    H260677   2.677   3.067   5.203 -0.6880 -3.1254 -2.3290
13088TIP3   OH260678   0.944   3.731   0.935  0.6750  0.5510 -0.5890
13088TIP3    H160679   0.915   3.665   0.872  1.0591  0.1241 -0.3235
13088TIP3    H260680   1.039   3.722   0.936  0.7203  1.0395 -0.4709
13089TIP3   OH260681   6.206   3.784   2.369 -0.0122  0.0919 -0.6070
13089TIP3    H160682   6.298   3.805   2.383  0.3220  0.6570 -3.2082
13089TIP3    H260683   6.207   3.700   2.323 -0.7432  0.4707 -1.3353
13090TIP3   OH260684   6.291   4.770   1.908 -0.2444  0.2008  0.2178
13090TIP3    H160685   6.312   4.799   1.997 -0.3963  0.2966  0.2225
13090TIP3    H260686   6.214   4.822   1.883 -1.1713 -0.9529  0.6179
13091TIP3   OH260687   1.389   3.971  15.562 -0.1258  0.1711  0.0510
13091TIP3    H160688   1.309   3.949  15.514 -0.0851 -1.8838  0.8077
13091TIP3    H260689   1.359   4.007  15.645 -0.3258 -1.0033  0.5145
13092TIP3   OH260690   2.944   2.826   5.016  0.1462  0.0391  0.6784
13092TIP3    H160691   2.863   2.871   5.042 -1.3722  0.0161 -3.3427
13092TIP3    H260692   2.920   2.734   5.012  0.7248 -0.1067  0.5227
13093TIP3   OH260693   0.684   5.561  16.841  0.8705 -0.4914  0.3701
13093TIP3    H160694   0.646   5.534  16.757 -0.5565 -3.2307  1.7788
13093TIP3    H260695   0.642   5.645  16.861  1.4442  0.3645 -1.7078
13094TIP3   OH260696   6.465   2.102  13.726 -0.0708  0.0513 -0.1812
13094TIP3    H160697   6.494   2.191  13.704  0.3993 -0.1760 -0.5192
13094TIP3    H260698   6.531   2.045  13.686 -1.5887 -0.5462 -1.9692
13095TIP3   OH260699   1.075   5.269  12.044  0.2373 -1.0357  0.1335
13095TIP3    H160700   1.093   5.181  12.076  0.0994 -0.9650  0.4156
13095TIP3    H260701   1.015   5.257  11.970 -0.4629 -1.1330  0.7074
13096TIP3   OH260702   1.825   2.236   3.646 -0.0887  0.1754 -0.2692
13096TIP3    H160703   1.798   2.328   3.642  1.5067  0.7574  1.1089
13096TIP3    H260704   1.917   2.237   3.620  0.5015 -0.7109  1.6282
13097TIP3   OH260705   2.895   4.308   5.059 -0.4233 -0.4721  0.0324
13097TIP3    H160706   2.939   4.317   5.144  0.4003  0.4561 -0.4703
13097TIP3    H260707   2.873   4.215   5.053  0.7809 -0.8197  0.6439
13098TIP3   OH260708   5.250   6.086  16.021 -0.9072 -0.0122  0.0150
13098TIP3    H160709   5.205   6.071  16.104 -1.1023 -0.7833 -0.2209
13098TIP3    H260710   5.185   6.130  15.966 -1.2503 -0.7236 -0.1729
13099TIP3   OH260711   3.387   5.571   0.433 -0.3108  0.0192 -0.4821
13099TIP3    H160712   3.326   5.637   0.467  0.1072  0.5643 -0.7701
13099TIP3    H260713   3.342   5.533   0.357 -0.0375  0.8668 -1.0786
13100TIP3   OH260714   2.168   5.138   1.541 -0.6753  0.1256  0.1673
13100TIP3    H160715   2.141   5.146   1.633 -1.5325 -0.6327 -0.0054
13100TIP3    H260716   2.207   5.051   1.535  0.7039  0.7145  0.1139
13101TIP3   OH260717   1.963   4.128   1.455 -0.8223 -0.1602 -0.4214
13101TIP3    H160718   1.964   4.218   1.487 -1.4684  1.0185 -3.3990
13101TIP3    H260719   1.871   4.102   1.460 -0.8829 -0.0697 -1.0445
13102TIP3   OH260720   5.540   3.517  10.985  0.2428 -0.3592 -0.0752
13102TIP3    H160721   5.461   3.569  10.972 -0.2379 -0.9496  0.4050
13102TIP3    H260722   5.534   3.449  10.918 -0.2219 -1.0486  0.6456
13103TIP3   OH260723   6.584   1.766   3.658 -0.2814  0.4647  0.0466
13103TIP3    H160724   6.634   1.784   3.579 -1.7476  0.2780 -0.9629
13103TIP3    H260725   6.597   1.673   3.674 -0.5898  0.3365 -0.4285
13104TIP3   OH260726   6.082   1.293   6.256 -0.5826  0.1837  0.5110
13104TIP3    H160727   6.134   1.271   6.333 -0.3228  0.1431  0.3233
13104TIP3    H260728   5.994   1.259   6.276 -0.2430 -0.8488  0.3076
13105TIP3   OH260729   2.903   3.237  13.861 -0.5530  0.1410  0.0841
13105TIP3    H160730   2.826   3.285  13.831 -1.0758 -0.0290  1.1233
13105TIP3    H260731   2.869   3.175  13.926  0.3562 -0.4486  0.0174
13106TIP3   OH260732   6.545   4.372  11.588 -0.2069  0.2642 -0.1276
13106TIP3    H160733   6.525   4.281  11.569 -0.7686  0.3108  0.2147
13106TIP3    H260734   6.640   4.378  11.578 -0.0363 -0.5893  0.7945
13107TIP3   OH260735   6.638   2.595   4.352  0.1279 -0.4923 -0.1231
13107TIP3    H160736   6.716   2.651   4.348 -0.7025  0.9427  1.8156
13107TIP3    H260737   6.666   2.511   4.318  2.4755  0.0541  0.3159
13108TIP3   OH260738   0.971   3.617  11.010 -0.5676 -0.1400 -0.6329
13108TIP3    H160739   1.050   3.582  11.050 -1.1000 -0.8728 -0.1857
13108TIP3    H260740   0.984   3.605  10.916 -0.4394 -0.8992 -0.5214
13109TIP3   OH260741   6.646   2.077   5.669  0.1590  0.0411 -0.4886
13109TIP3    H160742   6.552   2.065   5.683  0.2980  0.3198  0.8546
13109TIP3    H260743   6.686   2.050   5.751  1.1680  0.9360 -0.6567
13110TIP3   OH260744   4.537   6.537  12.840 -0.2715 -0.4192  0.6217
13110TIP3    H160745   4.561   6.579  12.758  1.3215 -1.4447  0.5373
13110TIP3    H260746   4.598   6.573  12.904 -0.5164 -0.7599  1.0527
13111TIP3   OH260747   2.610   6.353   1.309 -0.2609  0.7494 -0.0358
13111TIP3    H160748   2.649   6.285   1.363  1.0724  1.2488 -0.3395
13111TIP3    H260749   2.580   6.419   1.372 -1.2902  0.0374  0.2404
13112TIP3   OH260750   5.621   4.998   3.858  0.2566 -0.1502  0.3396
13112TIP3    H160751   5.643   4.977   3.767  1.9023  1.3296  0.3280
13112TIP3    H260752   5.688   5.062   3.884 -2.1020  2.0186  1.5069
13113TIP3   OH260753   0.763   3.783  10.644  0.1390  0.0898  0.2939
13113TIP3    H160754   0.667   3.783  10.641  0.1316 -0.3008  0.4897
13113TIP3    H260755   0.787   3.875  10.629 -0.2986  0.3576  1.1187
13114TIP3   OH260756   5.906   3.578   1.797 -0.1135 -0.5583  0.3775
13114TIP3    H160757   5.987   3.562   1.747  1.2942  2.8142  1.2829
13114TIP3    H260758   5.842   3.602   1.731  0.2216 -1.1864 -0.1913
13115TIP3   OH260759   6.391   2.689  16.767 -0.1916  0.6091 -0.3241
13115TIP3    H160760   6.321   2.648  16.716  0.6702 -0.4389 -0.7024
13115TIP3    H260761   6.436   2.615  16.808 -0.2218  1.3654  1.1309
13116TIP3   OH260762   4.075   0.524  13.136  0.2102  0.7543  0.0052
13116TIP3    H160763   4.003   0.462  13.126  0.4077  0.2897  1.3043
13116TIP3    H260764   4.049   0.599  13.082  0.0315 -0.4877 -1.6977
13117TIP3   OH260765   5.350   1.500   4.354 -0.0428  0.5306 -0.2546
13117TIP3    H160766   5.409   1.540   4.290  1.7484 -0.1563  0.8946
13117TIP3    H260767   5.317   1.575   4.405 -1.5529  1.0932 -1.9395
13118TIP3   OH260768   0.934   0.349   6.098 -0.4260  0.2200  0.2607
13118TIP3    H160769   0.982   0.417   6.145  1.1457 -0.4693 -0.2704
13118TIP3    H260770   1.001   0.285   6.074 -1.7350 -1.1173  0.0442
13119TIP3   OH260771   5.803   3.442   4.501 -0.0621  0.1764  0.2054
13119TIP3    H160772   5.726   3.450   4.445  0.6915 -2.4976 -1.3672
13119TIP3    H260773   5.791   3.360   4.548  1.3910  0.1688  0.6061
13120TIP3   OH260774   1.917   1.475  12.528 -0.0508 -0.3102  0.3446
13120TIP3    H160775   1.828   1.474  12.562 -0.5996  2.4814 -0.7168
13120TIP3    H260776   1.909   1.448  12.436  0.2603 -0.4564  0.3579
13121TIP3   OH260777   1.391   0.602  14.365  0.0491 -0.2268  0.3467
13121TIP3    H160778   1.456   0.541  14.331  1.0179  0.3287  1.1309
13121TIP3    H260779   1.315   0.591  14.308  0.9716 -0.6042 -0.8547
13122TIP3   OH260780   2.405   6.754   0.708  0.2689 -0.2836 -0.2447
13122TIP3    H160781   2.459   6.675   0.703 -0.5318 -0.8510 -0.2288
13122TIP3    H260782   2.442   6.812   0.642  0.4110 -0.9749 -0.7923
13123TIP3   OH260783   6.330   5.163  16.397  0.5378 -0.1462 -0.2220
13123TIP3    H160784   6.354   5.102  16.467  3.4575  0.1178 -0.8723
13123TIP3    H260785   6.346   5.116  16.316 -3.9304 -0.8725 -0.9565
13124TIP3   OH260786   6.282   0.238  13.489  0.0631  0.2811  0.6658
13124TIP3    H160787   6.320   0.226  13.576 -1.2987 -0.0267  1.2384
13124TIP3    H260788   6.204   0.292  13.504 -0.5473 -0.3213 -0.2608
13125TIP3   OH260789   1.583   3.844   4.896 -0.2077  1.0018  0.2832
13125TIP3    H160790   1.569   3.832   4.990 -1.1409  1.7708  0.2576
13125TIP3    H260791   1.496   3.836   4.858  0.4030 -1.5136 -0.8094
13126TIP3   OH260792   0.602   0.071  15.305  0.0526  0.0500  0.2309
13126TIP3    H160793   0.573  -0.017  15.282 -0.6127  0.4429 -0.4905
13126TIP3    H260794   0.644   0.105  15.226  1.6887 -0.1619  0.9785
13127TIP3   OH260795   5.381   4.675   4.943 -0.5263  0.0110 -0.1496
13127TIP3    H160796   5.289   4.696   4.959  0.0438  0.4304  3.3514
13127TIP3    H260797   5.385   4.580   4.946 -0.7870  0.0109  0.2232
13128TIP3   OH260798   0.523   5.184   5.731 -0.2143  0.0105  0.4049
13128TIP3    H160799   0.534   5.147   5.643 -0.3495 -0.0134  0.3992
13128TIP3    H260800   0.448   5.243   5.723  0.6917  1.1842  0.1090
13129TIP3   OH260801   3.586   2.707   3.153 -0.0268 -0.8308  0.4225
13129TIP3    H160802   3.528   2.782   3.165 -1.0922 -1.3091 -1.3694
13129TIP3    H260803   3.647   2.711   3.227 -0.3025  1.5582  0.5876
13130TIP3   OH260804   2.434   3.032   5.178  0.1806  0.1961  0.0760
13130TIP3    H160805   2.452   3.125   5.188 -0.1570  0.3474 -0.6326
13130TIP3    H260806   2.351   3.028   5.130  0.7696 -0.4348 -0.9485
13131TIP3   OH260807   5.256   6.681   1.849 -0.2792 -0.0817 -0.3459
13131TIP3    H160808   5.302   6.610   1.895 -0.4398 -0.2695 -0.4703
13131TIP3    H260809   5.164   6.657   1.855 -0.4429  0.7242  0.6314
13132TIP3   OH260810   2.491   6.758   3.785  0.0354  0.5204 -0.0943
13132TIP3    H160811   2.548   6.741   3.709 -0.1157  0.9683 -0.3136
13132TIP3    H260812   2.423   6.816   3.750 -0.2887  0.3642  0.2806
13133TIP3   OH260813   5.600   4.041   0.333  0.0003 -0.5473 -0.0404
13133TIP3    H160814   5.601   3.992   0.251  1.8046 -0.7150  0.0403
13133TIP3    H260815   5.678   4.011   0.380  0.7965  1.8707  0.3255
13134TIP3   OH260816   0.351   5.151   1.756 -0.0603 -0.3922 -0.2084
13134TIP3    H160817   0.376   5.145   1.848  1.7999  0.4402 -0.6212
13134TIP3    H260818   0.277   5.090   1.748 -1.4345  0.8054  2.1784
13135TIP3   OH260819   5.243   3.365   1.217  1.0130 -0.0434  0.0154
13135TIP3    H160820   5.253   3.276   1.183  0.1220 -0.3782  0.6021
13135TIP3    H260821   5.159   3.364   1.264  1.9624  0.5170  1.8188
13136TIP3   OH260822   5.507   2.023   3.132 -0.5818 -0.7030  0.0400
13136TIP3    H160823   5.499   2.032   3.227 -0.0926 -1.8392  0.2059
13136TIP3    H260824   5.419   2.038   3.099 -1.2756 -2.5124  0.8917
13137TIP3   OH260825   2.783   3.530  13.057 -0.1064  0.2893 -0.3345
13137TIP3    H160826   2.785   3.622  13.081 -0.9222  0.1346  0.3714
13137TIP3    H260827   2.778   3.483  13.141  0.1392 -0.3904 -0.6885
13138TIP3   OH260828   1.384   0.289   3.357 -0.3357  0.5995  0.3351
13138TIP3    H160829   1.385   0.196   3.335 -1.9521  0.7164 -0.3414
13138TIP3    H260830   1.399   0.292   3.452  2.3712 -0.1496  0.0297
13139TIP3   OH260831   2.595   5.097  14.622  0.3347  0.5395  0.0449
13139TIP3    H160832   2.512   5.145  14.628  0.7479  1.1496  1.1924
13139TIP3    H260833   2.569   5.005  14.624 -0.3194  0.7204  0.5064
13140TIP3   OH260834   1.264   3.131   5.431  0.3890  0.3485  0.3609
13140TIP3    H160835   1.279   3.183   5.509 -1.7165  0.9579  0.4190
13140TIP3    H260836   1.178   3.091   5.445  0.3347 -0.1912 -1.2904
13141TIP3   OH260837   5.021   0.858   3.167  0.4959 -0.1055  0.9986
13141TIP3    H160838   5.036   0.951   3.149 -0.5674  0.1068  1.1281
13141TIP3    H260839   5.086   0.813   3.114  1.3308  0.7183  1.2784
13142TIP3   OH260840   2.649   4.016  11.111 -0.5090 -0.4957  0.1496
13142TIP3    H160841   2.644   3.921  11.110  1.8672 -0.6970  0.3879
13142TIP3    H260842   2.722   4.037  11.053  0.1880  1.0270  1.4696
13143TIP3   OH260843   0.097   0.072   6.093 -0.1212 -1.0854  0.0167
13143TIP3    H160844   0.126   0.088   6.183  0.2884  0.1807 -0.3200
13143TIP3    H260845   0.015   0.024   6.103 -0.3987 -0.4462  1.0899
13144TIP3   OH260846   2.833   2.664   2.902  0.0966  0.1563  0.6560
13144TIP3    H160847   2.874   2.578   2.902 -0.1224 -0.1214 -3.4672
13144TIP3    H260848   2.896   2.720   2.948  1.5448 -1.6572  1.0068
13145TIP3   OH260849   3.284   1.825   1.374  0.5199 -0.5156  0.3922
13145TIP3    H160850   3.208   1.883   1.380  2.2322  1.9556 -0.5133
13145TIP3    H260851   3.280   1.789   1.285  0.1004 -0.8903  0.5572
13146TIP3   OH260852   2.663   0.494  10.497 -0.4001  0.4008 -0.3612
13146TIP3    H160853   2.656   0.589  10.501  0.6772  0.4484  2.3581
13146TIP3    H260854   2.655   0.465  10.588  0.5381 -2.0209 -0.9588
13147TIP3   OH260855   1.038   1.302   0.947  0.4126  0.1694  0.1198
13147TIP3    H160856   0.948   1.308   0.977  1.1929  0.3871  2.6603
13147TIP3    H260857   1.065   1.213   0.967  0.2290 -0.5477 -2.4811
13148TIP3   OH260858   3.625   5.474   3.904  0.1824 -0.0554 -0.4428
13148TIP3    H160859   3.573   5.482   3.985  1.9154  0.9720  0.6337
13148TIP3    H260860   3.634   5.380   3.890 -0.7679 -0.2463  0.1337
13149TIP3   OH260861   0.083   0.851   4.512  0.3733  0.5768 -0.1101
13149TIP3    H160862   0.047   0.915   4.572 -0.0583  0.9632 -0.7763
13149TIP3    H260863   0.153   0.897   4.466  0.5313  0.3598 -0.0907
13150TIP3   OH260864   2.661   3.870   2.426  0.2019 -0.3715 -0.6889
13150TIP3    H160865   2.710   3.919   2.360 -0.6331 -1.0425 -1.8472
13150TIP3    H260866   2.654   3.782   2.390 -1.0675 -0.5157 -0.1373
13151TIP3   OH260867   2.768   3.646   2.806  0.7442  0.1126  0.0987
13151TIP3    H160868   2.729   3.559   2.812 -0.0476  0.4858  0.5264
13151TIP3    H260869   2.721   3.688   2.733  1.2195  0.1393 -0.1969
13152TIP3   OH260870   4.854   0.702   0.295  0.3190  0.2239  0.1544
13152TIP3    H160871   4.854   0.785   0.342  1.6767  2.4234 -3.2915
13152TIP3    H260872   4.767   0.698   0.254 -0.5920 -1.3125  2.0992
13153TIP3   OH260873   3.807   0.969   2.987  0.7492 -0.7198 -0.2429
13153TIP3    H160874   3.763   0.985   2.903  0.1275 -1.1998 -0.0107
13153TIP3    H260875   3.758   0.897   3.027  1.2688 -0.7399  0.3701
13154TIP3   OH260876   0.691   5.517  11.476  0.2254  0.3257  0.4084
13154TIP3    H160877   0.762   5.452  11.471 -0.1235 -0.2023  1.7921
13154TIP3    H260878   0.674   5.525  11.570 -1.7494  0.2332  0.0812
13155TIP3   OH260879   1.478   5.410   0.653  0.5640  0.5609  0.2523
13155TIP3    H160880   1.549   5.378   0.709 -0.7622  2.3316  3.1850
13155TIP3    H260881   1.491   5.505   0.650 -2.1709  1.1043  1.8513
13156TIP3   OH260882   5.211   6.075  15.158  0.7236 -0.0887 -0.1952
13156TIP3    H160883   5.257   6.096  15.076 -2.8247 -0.1299 -2.4066
13156TIP3    H260884   5.175   5.988  15.143  0.5892 -0.3992  1.7768
13157TIP3   OH260885   1.763   1.878   0.088 -0.3506  0.2654  0.3858
13157TIP3    H160886   1.764   1.783   0.075  1.5512  0.1841  0.8234
13157TIP3    H260887   1.702   1.911   0.022 -2.8015 -1.3969  1.6387
13158TIP3   OH260888   1.664   2.019   2.262  0.2261  0.2458 -0.0142
13158TIP3    H160889   1.584   2.041   2.309  0.3641  1.2843 -0.2311
13158TIP3    H260890   1.689   2.101   2.218  1.0652 -0.2284 -0.4468
13159TIP3   OH260891   3.419   0.774   2.190 -0.0128  0.2572  0.0410
13159TIP3    H160892   3.369   0.763   2.109 -0.4655  1.1938  0.1811
13159TIP3    H260893   3.508   0.792   2.160 -0.0933  0.1982 -0.2410
13160TIP3   OH260894   0.442   3.691  14.588  0.2717  0.5684  0.6955
13160TIP3    H160895   0.425   3.626  14.520 -0.3608 -2.2942  3.3320
13160TIP3    H260896   0.526   3.664  14.626 -0.5035  0.5920  2.5284
13161TIP3   OH260897   5.558   4.725  14.392  0.3888 -0.1318  0.4059
13161TIP3    H160898   5.649   4.727  14.361  0.0797  1.1634 -0.4605
13161TIP3    H260899   5.564   4.746  14.485  0.8406  1.8289 -0.0355
13162TIP3   OH260900   5.756   5.803  14.358 -0.0832  0.0561  0.6594
13162TIP3    H160901   5.686   5.810  14.293  1.2970  0.8678 -0.8138
13162TIP3    H260902   5.792   5.892  14.365  3.4263 -0.9631 -1.7518
13163TIP3   OH260903   0.368   6.668  13.419 -0.0269 -0.3849 -0.0096
13163TIP3    H160904   0.386   6.758  13.389  1.4102 -0.5709  0.1945
13163TIP3    H260905   0.301   6.678  13.485  1.0692  0.7315  0.9944
13164TIP3   OH260906   4.336   5.401   2.592 -0.3279  0.2121 -0.1674
13164TIP3    H160907   4.296   5.471   2.539  0.4029 -0.1477 -1.2286
13164TIP3    H260908   4.430   5.412   2.578 -0.0924  0.4063  1.4724
13165TIP3   OH260909   4.564   4.468  11.408 -0.2172 -0.2618  0.7032
13165TIP3    H160910   4.469   4.480  11.407  0.0039  2.0299 -0.7820
13165TIP3    H260911   4.599   4.556  11.401  1.9896 -1.1470 -0.3063
13166TIP3   OH260912   6.326   0.200   3.763 -0.0065 -0.1916 -0.0271
13166TIP3    H160913   6.245   0.151   3.779 -2.6530  3.7983  0.2442
13166TIP3    H260914   6.325   0.218   3.669  0.6683 -0.2324 -0.0462
13167TIP3   OH260915   4.623   3.678  11.749 -0.0874  0.1803 -0.4984
13167TIP3    H160916   4.665   3.592  11.742  2.2063  1.1859  0.0937
13167TIP3    H260917   4.664   3.719  11.826  0.6946  2.7200 -2.1410
13168TIP3   OH260918   0.059   3.852  12.427  0.3788 -0.0079  0.0547
13168TIP3    H160919   0.071   3.946  12.426 -0.5085  0.1346  1.1051
13168TIP3    H260920   0.114   3.821  12.499 -1.1893  0.0279  1.3360
13169TIP3   OH260921   0.810   6.362   3.214 -0.7977 -0.0610  0.0152
13169TIP3    H160922   0.759   6.303   3.159 -1.7850  0.2197  0.5952
13169TIP3    H260923   0.745   6.413   3.261 -0.0129 -0.4483  1.6140
13170TIP3   OH260924   0.999   0.324  13.366  0.0443  0.4812  0.0009
13170TIP3    H160925   1.010   0.337  13.272  0.7980 -1.3925 -0.2175
13170TIP3    H260926   1.043   0.240  13.384 -3.0247 -0.9730  1.4183
13171TIP3   OH260927   1.399   4.947  12.487 -0.1059  0.2865  0.1742
13171TIP3    H160928   1.315   4.902  12.495  0.1793 -1.0933 -2.9193
13171TIP3    H260929   1.464   4.878  12.503  0.4475  0.9553  0.8779
13172TIP3   OH260930   4.355   3.927   3.847  0.1606 -0.0090 -0.0712
13172TIP3    H160931   4.286   3.877   3.890 -1.4441  1.0234 -1.2800
13172TIP3    H260932   4.365   4.006   3.901  0.8458 -0.4352  0.4336
13173TIP3   OH260933   3.999   0.429  11.291 -0.1907 -0.1508 -0.1605
13173TIP3    H160934   3.982   0.522  11.282  0.6848 -0.0229 -0.4913
13173TIP3    H260935   3.928   0.386  11.243  0.3728  0.3750 -1.4769
13174TIP3   OH260936   2.880   0.347   2.380 -0.0932  0.0413 -0.1149
13174TIP3    H160937   2.819   0.314   2.313 -0.3858  0.1098  0.1163
13174TIP3    H260938   2.882   0.277   2.446  0.5366 -0.2216 -0.4047
13175TIP3   OH260939   5.345   5.172  11.650  0.0555 -0.4014 -0.0572
13175TIP3    H160940   5.384   5.163  11.737  2.8757  0.3893 -1.1262
13175TIP3    H260941   5.368   5.260  11.622  1.4193 -1.4499 -2.5546
13176TIP3   OH260942   0.560   3.096  14.129 -0.6574 -0.5419 -0.1580
13176TIP3    H160943   0.509   3.062  14.056  1.5544  0.1781 -2.1839
13176TIP3    H260944   0.625   3.029  14.147 -0.7294 -0.3995  0.6669
13177TIP3   OH260945   4.556   3.091   3.878 -0.1127 -0.0087  0.4445
13177TIP3    H160946   4.491   3.036   3.834 -2.8513  1.1750  2.6637
13177TIP3    H260947   4.609   3.030   3.929 -1.4802 -0.8105  0.9510
13178TIP3   OH260948   0.928   0.921   0.645 -0.0381 -0.2942 -0.3047
13178TIP3    H160949   0.849   0.954   0.687  0.6142  2.1411 -0.8534
13178TIP3    H260950   0.911   0.930   0.551  0.4985 -0.7315 -0.4511
13179TIP3   OH260951   0.927   2.440   4.299  0.3046 -0.0180  0.2194
13179TIP3    H160952   0.937   2.385   4.377 -0.4089 -1.2944 -0.5588
13179TIP3    H260953   1.011   2.483   4.289 -0.0029  1.3070  2.5041
13180TIP3   OH260954   6.381   4.404  16.965 -0.2568  0.4505 -0.4107
13180TIP3    H160955   6.379   4.359  17.049 -2.0177  0.1965 -0.5451
13180TIP3    H260956   6.392   4.497  16.987 -2.0992  0.5580  0.2343
13181TIP3   OH260957   0.329   2.219  14.471  0.3827  0.2710 -0.4318
13181TIP3    H160958   0.305   2.167  14.395 -0.0517  0.6958 -0.5865
13181TIP3    H260959   0.347   2.306  14.436 -0.9478  0.7768  0.0918
13182TIP3   OH260960   3.013   2.459  13.483  0.7606  0.1447  0.4519
13182TIP3    H160961   2.951   2.457  13.410  3.4089  2.1008 -2.0818
13182TIP3    H260962   2.984   2.388  13.541 -1.5242 -1.5583 -2.4891
13183TIP3   OH260963   2.380   5.693   4.038  0.2840 -0.3459 -0.1255
13183TIP3    H160964   2.420   5.778   4.054 -0.7027 -0.2084  2.0999
13183TIP3    H260965   2.452   5.635   4.014  1.1513  0.8025 -0.3303
13184TIP3   OH260966   3.264   1.827  13.039  0.8131  0.0058 -0.2362
13184TIP3    H160967   3.228   1.740  13.058  2.0029 -0.4960 -0.1908
13184TIP3    H260968   3.331   1.840  13.105  0.4889  1.0708 -0.1095
13185TIP3   OH260969   2.811   5.996  13.996 -0.0456  1.1381  0.8396
13185TIP3    H160970   2.839   6.082  14.029  3.3604  0.7870 -0.6667
13185TIP3    H260971   2.872   5.978  13.924  0.6592 -3.3697  2.2722
13186TIP3   OH260972   2.405   2.025   1.222  0.2273  0.8110 -0.2554
13186TIP3    H160973   2.384   1.970   1.297 -0.5241  2.9563  1.2204
13186TIP3    H260974   2.336   2.091   1.221  0.7912  1.4450 -2.2518
13187TIP3   OH260975   1.963   5.405  11.486  0.5172  0.0696 -0.5357
13187TIP3    H160976   2.010   5.468  11.432  0.2508  1.4086  0.7352
13187TIP3    H260977   1.986   5.427  11.576 -1.3579 -0.1562  0.0586
13188TIP3   OH260978   3.235   4.869  13.868  0.8418 -0.0040 -0.2618
13188TIP3    H160979   3.316   4.920  13.866 -0.1721  1.6917 -1.6349
13188TIP3    H260980   3.172   4.922  13.818 -0.8585 -1.6951 -0.0486
13189TIP3   OH260981   2.965   0.247  13.151  0.0624  0.5259  0.5237
13189TIP3    H160982   2.896   0.307  13.123 -0.0954 -0.9264 -2.5004
13189TIP3    H260983   3.021   0.301  13.208 -0.6218  3.2572 -1.1884
13190TIP3   OH260984   0.928   3.278  12.968  0.0878  0.2302 -0.5682
13190TIP3    H160985   0.955   3.200  13.016  0.4879  0.8002  0.1477
13190TIP3    H260986   1.000   3.340  12.979  0.5289  0.1202 -2.5416
13191TIP3   OH260987   3.320   0.197  15.886  0.1369  0.3095  0.2254
13191TIP3    H160988   3.325   0.145  15.965  0.9221 -0.8157 -0.5383
13191TIP3    H260989   3.269   0.143  15.825  0.5790  0.6239 -0.4324
13192TIP3   OH260990   3.102   6.529   4.205 -0.4204  0.2221 -0.4293
13192TIP3    H160991   3.133   6.504   4.117  2.1342 -0.9865  0.7132
13192TIP3    H260992   3.088   6.445   4.249 -1.1762  0.8285  0.5041
13193TIP3   OH260993   1.839   0.544  11.327 -0.0614 -0.1134 -0.0775
13193TIP3    H160994   1.788   0.525  11.249  0.3637 -2.8319  0.2091
13193TIP3    H260995   1.793   0.499  11.398  0.6192  0.6528  0.8888
13194TIP3   OH260996   2.762   5.428   1.669  0.4688 -0.8696 -0.1190
13194TIP3    H160997   2.706   5.422   1.592 -0.4823 -1.8692  0.6353
13194TIP3    H260998   2.809   5.345   1.672  0.3237 -0.9363  0.5018
13195TIP3   OH260999   5.433   4.562  13.054  0.3410  0.0194  0.1632
13195TIP3    H161000   5.360   4.588  13.110 -0.0117 -0.5272 -0.0284
13195TIP3    H261001   5.429   4.466  13.054  0.7466  0.0021 -0.2659
13196TIP3   OH261002   4.712   3.957  12.953 -0.0616  0.3395 -0.9122
13196TIP3    H161003   4.713   3.864  12.931 -0.3705  0.0864  0.0650
13196TIP3    H261004   4.794   3.992  12.919  0.7671 -0.6298  0.0218
13197TIP3   OH261005   4.578   0.183  15.310 -0.2758  0.8091  0.1645
13197TIP3    H161006   4.546   0.095  15.293  0.1899  0.9528 -1.6020
13197TIP3    H261007   4.517   0.219  15.375 -0.9475 -0.5022  0.2825
13198TIP3   OH261008   1.849   6.172  14.770  0.3384  0.0829  0.1202
13198TIP3    H161009   1.775   6.232  14.777  0.9516  0.7748  0.8215
13198TIP3    H261010   1.815   6.089  14.804  0.0030  0.5141  0.8634
13199TIP3   OH261011   2.952   2.257  14.033 -0.5592 -0.1018  0.4584
13199TIP3    H161012   2.981   2.200  14.105 -1.9731 -2.1237 -0.4786
13199TIP3    H261013   2.882   2.310  14.072  0.2050  0.4316  1.1347
13200TIP3   OH261014   4.380   3.131   4.123 -0.2616  0.1889  0.1665
13200TIP3    H161015   4.426   3.140   4.040  0.5072  0.1202  0.5776
13200TIP3    H261016   4.429   3.063   4.170 -1.1828 -0.3647  0.3462
13201TIP3   OH261017   2.945   6.759  11.800  0.2291 -0.0494  0.4486
13201TIP3    H161018   3.011   6.740  11.868  1.7452  1.7669 -0.4209
13201TIP3    H261019   2.941   6.678  11.749  0.9601 -0.5841  1.1905
13202TIP3   OH261020   4.902   4.765   2.329 -0.0137 -0.5102  0.2377
13202TIP3    H161021   4.828   4.766   2.269 -0.9701  1.3554  1.3658
13202TIP3    H261022   4.939   4.853   2.324  1.2335 -0.9808  0.7791
13203TIP3   OH261023   4.631   3.686   1.043 -0.4930  0.6556 -0.0126
13203TIP3    H161024   4.578   3.622   1.089 -1.4836  0.8463 -0.8543
13203TIP3    H261025   4.696   3.634   0.995 -1.4602  0.2438 -0.9092
13204TIP3   OH261026   3.766   5.674  13.068  0.5265 -0.0744 -0.1291
13204TIP3    H161027   3.839   5.727  13.101 -0.4916  0.7995  0.8170
13204TIP3    H261028   3.688   5.722  13.095 -0.4949 -2.4503  1.5219
13205TIP3   OH261029   1.923   0.833   0.020  0.0495  0.2487 -0.2110
13205TIP3    H161030   1.867   0.861  -0.052 -0.8565 -0.0440  0.3604
13205TIP3    H261031   1.990   0.780  -0.022 -1.6205 -1.6381 -0.6733
13206TIP3   OH261032   6.277   5.000  12.134 -0.2294 -0.2182  0.0412
13206TIP3    H161033   6.199   5.033  12.180 -0.3839 -0.5303  0.0096
13206TIP3    H261034   6.244   4.925  12.085  0.4872 -1.5832  1.5740
13207TIP3   OH261035   6.352   3.568   5.995  0.0579  0.7800  0.7187
13207TIP3    H161036   6.265   3.538   6.021 -1.0377  3.0277 -0.0854
13207TIP3    H261037   6.361   3.654   6.036  1.6375  0.8623  0.2685
13208TIP3   OH261038   1.326   4.547   2.340  0.2449 -0.2449 -0.5574
13208TIP3    H161039   1.234   4.564   2.360 -0.0366  0.1987 -2.1332
13208TIP3    H261040   1.328   4.457   2.308  0.0188  0.3789 -2.4052
13209TIP3   OH261041   3.989   6.029  16.055  0.8092  0.2744 -0.4358
13209TIP3    H161042   4.045   5.954  16.077  0.1344 -0.6197 -1.6960
13209TIP3    H261043   3.952   6.008  15.970 -0.9172  1.1710  0.0481
13210TIP3   OH261044   4.328   3.493   2.003 -0.0003 -0.0751 -0.6772
13210TIP3    H161045   4.287   3.482   1.917  0.1814  0.4269 -0.8284
13210TIP3    H261046   4.292   3.421   2.056 -0.6136  0.0060 -0.9793
13211TIP3   OH261047   2.945   2.018   0.301  0.0665 -0.3828 -0.1768
13211TIP3    H161048   2.888   2.079   0.349  1.0978 -0.4329  1.1496
13211TIP3    H261049   2.889   1.986   0.230 -0.8634  1.2332 -0.2391
13212TIP3   OH261050   5.071   2.633  13.739 -0.0197 -0.0786 -0.4028
13212TIP3    H161051   5.063   2.717  13.784  0.1771  0.4654 -1.3338
13212TIP3    H261052   5.005   2.577  13.779  0.7917  0.0670  1.1947
13213TIP3   OH261053   3.403   3.287  11.683 -0.0927 -0.5528 -0.0032
13213TIP3    H161054   3.455   3.355  11.641 -0.7570 -0.4579 -0.6994
13213TIP3    H261055   3.463   3.245  11.744  1.4162 -1.7418 -2.1666
13214TIP3   OH261056   6.125   6.476   0.368  0.5415  0.3270 -0.0153
13214TIP3    H161057   6.044   6.462   0.319  0.1150  0.8828  0.5187
13214TIP3    H261058   6.163   6.555   0.330  1.7985 -0.9225 -1.5082
13215TIP3   OH261059   3.532   6.716   2.025  0.0930  0.2060 -0.3101
13215TIP3    H161060   3.446   6.749   2.050 -0.2724 -0.3002 -0.8748
13215TIP3    H261061   3.589   6.739   2.099 -1.0691 -1.7882  1.3102
13216TIP3   OH261062   1.892   1.959   3.410 -0.3495  0.0196  0.4012
13216TIP3    H161063   1.814   1.972   3.464 -0.1064  2.0855  0.3257
13216TIP3    H261064   1.943   1.892   3.456 -2.1897 -1.4827  0.3863
13217TIP3   OH261065   5.254   4.307   4.324 -0.7456  0.3292 -0.3813
13217TIP3    H161066   5.277   4.217   4.346 -3.1969 -0.5652 -1.1580
13217TIP3    H261067   5.335   4.356   4.336  0.6715 -1.9687  0.0426
13218TIP3   OH261068   1.468   1.470   0.197 -0.4877 -0.4372 -0.1262
13218TIP3    H161069   1.508   1.395   0.242 -1.4784 -0.2772  1.0752
13218TIP3    H261070   1.421   1.517   0.266  1.4250  2.2322 -0.4657
13219TIP3   OH261071   6.556   4.368  17.262  0.2924 -0.2881 -0.2506
13219TIP3    H161072   6.556   4.344  17.355 -0.1459  0.1013 -0.1476
13219TIP3    H261073   6.566   4.284  17.216  0.4721 -0.4862  0.1436
13220TIP3   OH261074   3.704   1.975   2.482 -0.7203  0.4243  0.1929
13220TIP3    H161075   3.726   1.895   2.435  1.9984  1.0986  0.1604
13220TIP3    H261076   3.659   2.030   2.417 -0.1266 -0.0108 -0.5993
13221TIP3   OH261077   3.510   1.663   2.245 -0.5189 -0.4521  0.1707
13221TIP3    H161078   3.530   1.579   2.204 -1.4436 -0.7470  0.2999
13221TIP3    H261079   3.482   1.640   2.334 -0.0197  0.0572  0.4651
13222TIP3   OH261080   4.721   0.342   0.679  0.4430  0.0284 -0.4374
13222TIP3    H161081   4.811   0.349   0.711 -0.0393  2.1508  0.6924
13222TIP3    H261082   4.709   0.420   0.625 -0.9293  0.1922  0.0600
13223TIP3   OH261083   1.838   6.122   4.343 -0.5648  0.6406  0.3902
13223TIP3    H161084   1.802   6.044   4.302  1.0761  0.5034 -0.8713
13223TIP3    H261085   1.901   6.089   4.407  1.4324  0.8658 -1.3584
13224TIP3   OH261086   0.807   6.151  11.312  0.6001 -0.0255  0.3266
13224TIP3    H161087   0.873   6.221  11.310  0.7798 -0.1917  0.4017
13224TIP3    H261088   0.833   6.092  11.241  0.3713  0.0529  0.1764
13225TIP3   OH261089   0.685   1.187   1.431 -0.3869 -0.4934 -0.5990
13225TIP3    H161090   0.657   1.169   1.520  0.1408 -0.4607 -0.4225
13225TIP3    H261091   0.773   1.224   1.440 -0.6880  0.3522 -1.0780
13226TIP3   OH261092   5.047   6.213  15.371 -0.3797  0.5009  0.0801
13226TIP3    H161093   5.019   6.137  15.421  0.1612  1.6116  2.2023
13226TIP3    H261094   5.083   6.177  15.290 -0.1998 -1.4851  0.9896
13227TIP3   OH261095   3.833   6.662  14.485  0.2389 -0.2189 -0.4174
13227TIP3    H161096   3.755   6.631  14.531 -0.6369  0.9332 -1.0768
13227TIP3    H261097   3.850   6.749  14.521  1.9256 -0.8886  0.5246
13228TIP3   OH261098   5.391   6.355   4.539 -0.2735  0.3387  0.1645
13228TIP3    H161099   5.465   6.367   4.598  0.8719 -1.1041 -0.9094
13228TIP3    H261100   5.375   6.260   4.539 -3.1517  0.7081  1.5379
13229TIP3   OH261101   6.312   3.416   4.206 -0.0799 -0.5697  0.4384
13229TIP3    H161102   6.227   3.393   4.167 -0.0469 -0.7281  0.4592
13229TIP3    H261103   6.374   3.409   4.133 -0.1663  0.0630  0.3003
13230TIP3   OH261104   5.965   3.174   3.160  0.9345  0.0204 -0.6140
13230TIP3    H161105   5.968   3.091   3.112 -0.3805 -0.2707 -0.2262
13230TIP3    H261106   5.880   3.212   3.139  0.3253 -0.0913  1.4078
13231TIP3   OH261107   0.935   1.169   3.743  0.2753 -0.1505 -0.2117
13231TIP3    H161108   0.899   1.247   3.702  0.1060  0.5178  1.1563
13231TIP3    H261109   1.011   1.200   3.791 -0.2189 -0.6783  0.9491
13232TIP3   OH261110   6.427   3.946   2.168  0.7889  0.0686 -0.4247
13232TIP3    H161111   6.366   4.001   2.120  0.8599  0.1335 -0.4403
13232TIP3    H261112   6.428   3.983   2.257 -1.5146 -1.7156  0.4821
13233TIP3   OH261113   0.069   0.842  13.835 -0.5189 -0.0650 -0.1507
13233TIP3    H161114   0.019   0.878  13.908  0.2317  0.3178  0.1848
13233TIP3    H261115   0.043   0.750  13.831 -2.8086  0.5434 -1.3030
13234TIP3   OH261116   2.712   2.688   5.163 -0.4042 -0.5506  0.5154
13234TIP3    H161117   2.634   2.638   5.189  0.0861 -1.6207  0.0059
13234TIP3    H261118   2.779   2.661   5.226 -0.8370  1.6592  2.0358
13235TIP3   OH261119   1.481   4.429   1.024 -0.2738 -0.0582 -0.1063
13235TIP3    H161120   1.507   4.518   1.047  0.3006 -0.4358  0.7455
13235TIP3    H261121   1.442   4.394   1.104 -0.8792 -0.4401 -0.5577
13236TIP3   OH261122   5.005   1.956   3.040  0.4045  0.6039 -0.5798
13236TIP3    H161123   4.942   1.999   3.098  1.3951  1.0693  0.1889
13236TIP3    H261124   5.044   2.027   2.990 -0.1581  0.2445 -1.5550
13237TIP3   OH261125   0.388   5.244   1.380  0.4296  0.4671  0.1132
13237TIP3    H161126   0.483   5.254   1.386  0.5188 -0.1822 -0.1380
13237TIP3    H261127   0.362   5.302   1.309  0.8906 -0.7627 -1.0933
13238TIP3   OH261128   0.323   0.372  15.098  0.1933 -0.8216 -0.2645
13238TIP3    H161129   0.276   0.293  15.124 -0.1679 -1.0546 -1.5630
13238TIP3    H261130   0.342   0.359  15.005 -0.6518  0.9939 -0.7346
13239TIP3   OH261131   4.765   2.126   2.438  0.3108  0.4252  0.2577
13239TIP3    H161132   4.775   2.204   2.385  0.9720  0.4388  0.3999
13239TIP3    H261133   4.795   2.152   2.525  1.0434 -0.1334  0.1791
13240TIP3   OH261134   4.396   3.475  13.761 -0.2383  0.2516 -0.5775
13240TIP3    H161135   4.327   3.414  13.735 -0.3887  0.5113 -0.7891
13240TIP3    H261136   4.472   3.420  13.778 -0.3193  0.0218 -0.9548
13241TIP3   OH261137   3.867   0.908   0.395 -0.3201  0.4245  0.0310
13241TIP3    H161138   3.927   0.950   0.333 -0.7459  0.8392 -0.1080
13241TIP3    H261139   3.854   0.820   0.360 -0.5101  0.6368 -0.4379
13242TIP3   OH261140   0.282   6.400  15.285 -0.4693 -0.0692 -0.8661
13242TIP3    H161141   0.296   6.363  15.198  2.2659  2.3333 -1.6089
13242TIP3    H261142   0.187   6.414  15.290 -0.7707 -0.8215 -3.2009
13243TIP3   OH261143   3.836   5.098   1.678 -0.1991 -0.3149 -0.3593
13243TIP3    H161144   3.893   5.172   1.700  0.3917 -1.3489  1.9750
13243TIP3    H261145   3.884   5.049   1.612 -0.4532  1.1585 -1.6947
13244TIP3   OH261146   6.390   3.691   0.298  0.0768  0.0793  0.2177
13244TIP3    H161147   6.349   3.618   0.251  0.9726 -0.5494  0.3765
13244TIP3    H261148   6.462   3.650   0.346  0.0788  0.9494  0.9690
13245TIP3   OH261149   1.382   2.121   3.846 -0.4045  0.1581  0.0451
13245TIP3    H161150   1.361   2.213   3.836 -1.1806  0.0426  0.5228
13245TIP3    H261151   1.310   2.075   3.803 -0.9023 -0.2423  1.2555
13246TIP3   OH261152   4.605   3.218  17.312  0.3430  0.6846  0.2726
13246TIP3    H161153   4.556   3.152  17.361 -0.0127 -1.1394 -2.3467
13246TIP3    H261154   4.541   3.284  17.289  0.3227  1.0782  1.3810
13247TIP3   OH261155   1.932   1.965  13.695 -0.3612 -0.3421  0.4685
13247TIP3    H161156   2.019   1.931  13.672 -0.2024 -0.2321  0.8963
13247TIP3    H261157   1.895   1.996  13.612 -0.7598 -2.1118 -0.0698
13248TIP3   OH261158   1.110   0.959  17.097  0.2217  0.4877 -0.6729
13248TIP3    H161159   1.126   0.991  17.186 -3.9315  0.1700  0.3748
13248TIP3    H261160   1.186   0.989  17.047  2.9668  0.3049  2.9892
13249TIP3   OH261161   5.986   5.279  12.922  0.3423  0.1517  1.1009
13249TIP3    H161162   5.913   5.241  12.970  0.1929 -0.2960  0.5330
13249TIP3    H261163   5.996   5.223  12.845  0.9381  0.5225  0.8984
13250TIP3   OH261164   1.772   5.188  12.999 -0.3014 -0.2106  0.3642
13250TIP3    H161165   1.818   5.242  12.935 -0.1934 -0.5783  0.1289
13250TIP3    H261166   1.834   5.117  13.020 -0.2946 -0.0406  0.9507
13251TIP3   OH261167   0.851   4.916  14.564 -0.2314 -0.2273  0.1085
13251TIP3    H161168   0.938   4.893  14.530  0.0623 -0.8608  1.2472
13251TIP3    H261169   0.848   5.011  14.558  0.5628 -0.1904  0.0884
13252TIP3   OH261170   6.100   3.126  14.065  0.2037  0.4005  0.2149
13252TIP3    H161171   6.037   3.086  14.124  0.2534 -0.6008 -0.3836
13252TIP3    H261172   6.154   3.053  14.033  0.0867  0.8771 -1.1636
13253TIP3   OH261173   5.652   1.706   1.969  0.2312 -0.4325  0.1378
13253TIP3    H161174   5.738   1.668   1.988 -0.5777 -1.7687  1.3717
13253TIP3    H261175   5.662   1.747   1.884  2.8437  1.8799  1.4168
13254TIP3   OH261176   1.015   1.431   2.140 -0.3737  0.1096 -0.1307
13254TIP3    H161177   1.000   1.525   2.142  1.0085  0.3489  0.7644
13254TIP3    H261178   1.011   1.404   2.232  1.5178 -0.2688 -0.1130
13255TIP3   OH261179   3.996   5.137   4.198 -0.1753  0.1803 -0.6526
13255TIP3    H161180   3.928   5.204   4.199 -0.3316  0.0964  2.4275
13255TIP3    H261181   3.957   5.062   4.243  1.3623 -0.5394 -0.4607
13256TIP3   OH261182   0.195   4.230  12.834  0.0675 -0.1477  0.1201
13256TIP3    H161183   0.153   4.146  12.850 -1.2869  0.9253  2.5826
13256TIP3    H261184   0.182   4.280  12.914 -0.1114  2.8387 -1.6344
13257TIP3   OH261185   3.561   1.194  16.041 -0.2297  0.6555  0.2673
13257TIP3    H161186   3.550   1.264  16.105  1.8966  0.6904  0.6707
13257TIP3    H261187   3.655   1.191  16.025 -0.1205 -2.5594  0.8114
13258TIP3   OH261188   1.366   6.390   6.066 -0.0956  0.6401 -0.4986
13258TIP3    H161189   1.386   6.319   6.127  0.9319  0.9687 -0.4303
13258TIP3    H261190   1.313   6.451   6.117 -0.2735  0.3271 -0.3056
13259TIP3   OH261191   2.685   1.984  13.223  0.3421 -0.1447 -0.4046
13259TIP3    H161192   2.615   2.010  13.164  0.5857  1.7132  0.0669
13259TIP3    H261193   2.750   1.943  13.166  0.1971  0.8541 -1.3264
13260TIP3   OH261194   5.211   1.475   2.842 -0.2151 -0.1325  0.6570
13260TIP3    H161195   5.159   1.398   2.818  1.1387 -0.8450 -0.0755
13260TIP3    H261196   5.162   1.549   2.806 -0.4231 -0.8333 -0.5396
13261TIP3   OH261197   4.400   2.683   0.297  0.1306  0.1462  0.7060
13261TIP3    H161198   4.459   2.634   0.240 -0.6050  0.7070 -0.5744
13261TIP3    H261199   4.450   2.762   0.320  0.5050 -0.1777  1.0400
13262TIP3   OH261200   6.524   0.511  12.157 -0.4559  0.5397 -0.1536
13262TIP3    H161201   6.440   0.557  12.152  0.6451  2.7010  0.1523
13262TIP3    H261202   6.557   0.531  12.245  1.2956  1.4815 -0.9639
13263TIP3   OH261203   0.511   5.114  13.034 -0.1098 -0.3606  0.2721
13263TIP3    H161204   0.498   5.172  12.959 -0.1483  0.6711  1.0562
13263TIP3    H261205   0.604   5.091  13.030 -0.1363 -0.4098 -0.1514
13264TIP3   OH261206   5.527   3.801  17.064  0.2281  0.5541 -0.0223
13264TIP3    H161207   5.444   3.811  17.016  1.0568  0.8089 -1.4527
13264TIP3    H261208   5.528   3.709  17.091 -0.9946  0.7993  0.9546
13265TIP3   OH261209   5.630   1.294  12.048  0.5252 -0.5015  0.2736
13265TIP3    H161210   5.607   1.214  12.095  0.2477 -0.8144 -0.3743
13265TIP3    H261211   5.702   1.332  12.098  0.6730 -1.1683  0.5785
13266TIP3   OH261212   5.794   3.267   2.736 -1.0214 -0.4365 -0.4491
13266TIP3    H161213   5.799   3.176   2.709 -0.0351 -0.0473 -1.6730
13266TIP3    H261214   5.739   3.266   2.815  0.4421 -2.3139  0.6367
13267TIP3   OH261215   2.648   4.653  11.502 -0.0648  0.3736  0.3451
13267TIP3    H161216   2.652   4.705  11.582  1.7184  0.0461  0.5118
13267TIP3    H261217   2.621   4.566  11.531  0.1103  0.3784  0.5227
13268TIP3   OH261218   2.344   3.549   4.481  0.5536  1.0780  0.0274
13268TIP3    H161219   2.327   3.531   4.574  1.0069  0.9955  0.0992
13268TIP3    H261220   2.316   3.640   4.469 -1.1268  0.5670 -0.1751
13269TIP3   OH261221   4.299   5.368  16.106 -0.3856 -0.0205  0.2462
13269TIP3    H161222   4.287   5.285  16.059 -0.4998 -1.1395  2.1772
13269TIP3    H261223   4.348   5.344  16.185 -0.3597  1.7775  0.8039
13270TIP3   OH261224   6.702   0.284  12.411 -0.0994 -0.4508  0.1289
13270TIP3    H161225   6.777   0.255  12.358  1.0822 -2.6595  2.7551
13270TIP3    H261226   6.625   0.257  12.361  0.9321 -1.3729 -1.0157
13271TIP3   OH261227   2.732   5.203  13.610 -0.1792 -0.4876 -0.0189
13271TIP3    H161228   2.702   5.235  13.695  0.5699  2.0376 -0.6077
13271TIP3    H261229   2.714   5.275  13.550  1.0791 -1.4561 -1.6358
13272TIP3   OH261230   6.599   2.478   0.239  0.6539 -0.0537 -0.0530
13272TIP3    H161231   6.676   2.430   0.208 -1.0835 -1.7354 -2.1263
13272TIP3    H261232   6.534   2.410   0.257 -0.7134  1.3519  0.6032
13273TIP3   OH261233   1.316   1.425  11.703  0.4408 -0.9707 -0.0400
13273TIP3    H161234   1.351   1.498  11.653  0.1890 -0.5604  0.3842
13273TIP3    H261235   1.265   1.374  11.638 -0.2665 -0.1916 -0.1132
13274TIP3   OH261236   4.707   3.521  14.848 -0.2746  0.2838  0.0746
13274TIP3    H161237   4.615   3.532  14.870 -0.7511 -0.5008 -1.4385
13274TIP3    H261238   4.734   3.606  14.812 -0.0244  0.9279  1.6896
13275TIP3   OH261239   6.523   3.400  15.348  0.4523 -0.5994  0.7253
13275TIP3    H161240   6.433   3.405  15.317 -0.0768 -0.0656  2.2763
13275TIP3    H261241   6.573   3.451  15.285 -0.3589 -0.7132 -0.0253
13276TIP3   OH261242   2.202   2.897   0.670 -0.1294 -0.3232  0.0016
13276TIP3    H161243   2.245   2.831   0.617 -2.5559  0.1067 -2.7472
13276TIP3    H261244   2.134   2.849   0.718  1.0165 -0.4470  1.5819
13277TIP3   OH261245   1.959   0.952  11.665 -0.2028 -0.6081 -0.3263
13277TIP3    H161246   2.050   0.935  11.690 -0.0082  1.7081  0.8082
13277TIP3    H261247   1.963   1.033  11.614 -1.5747 -0.7611 -0.7085
13278TIP3   OH261248   6.009   0.320  13.961  0.3249 -0.0264  0.1539
13278TIP3    H161249   6.073   0.392  13.964  0.3037  0.1909 -2.1723
13278TIP3    H261250   5.947   0.347  13.894 -1.0456 -1.1865  0.9153
13279TIP3   OH261251   2.712   6.196   2.700  0.0280  0.2855  0.6372
13279TIP3    H161252   2.721   6.284   2.737 -1.6638  0.3116  1.0621
13279TIP3    H261253   2.764   6.140   2.758  0.9918  0.9493  0.4518
13280TIP3   OH261254   1.632   0.634   3.048 -0.2158 -0.2671 -0.5093
13280TIP3    H161255   1.566   0.686   3.003  0.9989  2.4360  0.6360
13280TIP3    H261256   1.645   0.558   2.991 -2.3603  0.4398 -2.0696
13281TIP3   OH261257   2.339   5.623   3.441  0.3172 -0.0181  0.3263
13281TIP3    H161258   2.257   5.671   3.454 -0.5009 -0.7653 -1.6440
13281TIP3    H261259   2.328   5.543   3.493  0.2068  0.3309  0.8417
13282TIP3   OH261260   4.970   1.112   1.831 -0.1700  0.4156  0.2156
13282TIP3    H161261   4.969   1.200   1.869  1.6943 -0.0074  1.3696
13282TIP3    H261262   5.062   1.095   1.811 -0.7611 -0.4761 -2.0073
13283TIP3   OH261263   0.401   2.270  11.601  0.1514  0.3984  0.3043
13283TIP3    H161264   0.428   2.189  11.557  1.3698  0.2144  1.3107
13283TIP3    H261265   0.415   2.339  11.536  1.3750  0.0696  0.1970
13284TIP3   OH261266   0.483   0.129   3.683 -0.4761 -0.0537  0.6705
13284TIP3    H161267   0.509   0.182   3.759  0.5829 -0.6605  0.7470
13284TIP3    H261268   0.391   0.107   3.700 -1.0843  2.0724  0.4472
13285TIP3   OH261269   0.941   4.149  14.308 -0.7569 -1.0376 -0.9700
13285TIP3    H161270   0.855   4.190  14.321  0.3868  0.7181  2.5693
13285TIP3    H261271   0.940   4.073  14.366  0.8576  0.6061  1.4297
13286TIP3   OH261272   0.577   3.777   1.923  0.3517 -0.1473  0.0958
13286TIP3    H161273   0.565   3.852   1.865 -1.6656  0.3511  1.0532
13286TIP3    H261274   0.582   3.814   2.011 -1.0030 -1.0820  0.6197
13287TIP3   OH261275   1.983   2.224  15.834 -0.0133 -0.3414 -0.4790
13287TIP3    H161276   2.067   2.269  15.826  0.9426 -0.9139  3.8217
13287TIP3    H261277   2.004   2.132  15.817  0.2105 -0.4399  0.2846
13288TIP3   OH261278   2.514   3.392  17.361  0.4934  0.6645 -0.1056
13288TIP3    H161279   2.566   3.446  17.302  1.1338 -0.3196 -0.4684
13288TIP3    H261280   2.453   3.453  17.402  1.6487  1.7740  0.0210
13289TIP3   OH261281   6.511   2.957   4.415 -0.1967 -0.2059  0.7345
13289TIP3    H161282   6.534   2.951   4.322  1.4166 -0.4777  1.1200
13289TIP3    H261283   6.579   3.013   4.453  0.9617 -2.4808  2.2576
13290TIP3   OH261284   5.672   0.489   4.302 -0.2841  0.1247  0.4393
13290TIP3    H161285   5.657   0.584   4.300  0.8792  0.3483  1.4537
13290TIP3    H261286   5.587   0.452   4.279 -1.4892  1.3656  2.5001
13291TIP3   OH261287   5.779   5.908   5.405  0.1471 -0.1155 -0.9520
13291TIP3    H161288   5.709   5.882   5.464  0.7498  0.7998  0.2293
13291TIP3    H261289   5.760   5.864   5.323 -2.0223  0.4185 -0.7933
13292TIP3   OH261290   1.250   2.367  12.023 -0.0068 -0.6334 -0.2605
13292TIP3    H161291   1.327   2.315  12.042 -1.8684 -2.8343  1.8056
13292TIP3    H261292   1.218   2.396  12.108 -0.1242  2.4128 -1.2164
13293TIP3   OH261293   0.269   6.568   3.104 -0.3068 -0.6623  0.0124
13293TIP3    H161294   0.226   6.484   3.122  0.2310 -1.2588 -1.3446
13293TIP3    H261295   0.282   6.568   3.009  0.2041  0.7219  0.0681
13294TIP3   OH261296   0.709   0.841   5.339  0.0039 -0.2472  0.0404
13294TIP3    H161297   0.634   0.823   5.396  0.5602  0.2598  0.9545
13294TIP3    H261298   0.673   0.839   5.251 -1.2666  0.8152  0.5092
13295TIP3   OH261299   2.824   4.498   3.333  0.2135  0.5342  0.1580
13295TIP3    H161300   2.806   4.446   3.255 -2.4272 -1.1366  1.7193
13295TIP3    H261301   2.891   4.448   3.380 -0.2350  0.0332  0.2767
13296TIP3   OH261302   6.328   4.277   5.762  0.1125  0.2210  0.6149
13296TIP3    H161303   6.413   4.238   5.783 -0.6984 -2.5141 -0.7707
13296TIP3    H261304   6.269   4.243   5.828 -0.8275 -1.9490 -1.2283
13297TIP3   OH261305   0.828   5.995   1.135 -0.0662  0.5540  0.0445
13297TIP3    H161306   0.836   5.900   1.123 -1.5755  0.4758 -0.5431
13297TIP3    H261307   0.747   6.007   1.185 -0.7134  1.5927 -1.1881
13298TIP3   OH261308   4.665   6.691  15.943  0.9921  0.2909  0.6865
13298TIP3    H161309   4.723   6.635  15.891  0.7620  1.2121 -0.6145
13298TIP3    H261310   4.623   6.749  15.879 -1.0474 -0.0446  1.6264
13299TIP3   OH261311   4.104   6.562   2.536 -0.0945  0.6663 -0.3735
13299TIP3    H161312   4.184   6.613   2.528  0.6159 -0.1977  0.8984
13299TIP3    H261313   4.135   6.471   2.542 -1.1450  0.3641  0.5978
13300TIP3   OH261314   3.380   1.281  17.026  0.0801 -0.0013 -0.2745
13300TIP3    H161315   3.335   1.294  17.110 -0.8672  2.0024 -1.0383
13300TIP3    H261316   3.469   1.314  17.040  0.0877 -0.1709  0.0824
13301TIP3   OH261317   6.587   1.928  12.339 -0.1244 -0.5550  0.3885
13301TIP3    H161318   6.662   1.869  12.343 -0.2403 -0.7826 -0.5313
13301TIP3    H261319   6.514   1.875  12.371  0.3977  0.2624  3.2506
13302TIP3   OH261320   3.285   0.134  12.568 -0.3035 -1.2008  0.4406
13302TIP3    H161321   3.309   0.148  12.476 -0.0358  0.4707  0.7363
13302TIP3    H261322   3.267   0.040  12.574 -0.7619 -1.2675 -1.4210
13303TIP3   OH261323   2.537   3.222   3.770 -0.1683 -0.1081  0.7758
13303TIP3    H161324   2.616   3.276   3.773 -0.6578  0.5907  1.3289
13303TIP3    H261325   2.466   3.284   3.752 -0.3475 -0.9952 -2.2570
13304TIP3   OH261326   5.128   5.082  11.196 -0.1361 -0.2337 -0.7111
13304TIP3    H161327   5.194   5.038  11.142  0.1522 -2.4738  1.3038
13304TIP3    H261328   5.044   5.054  11.159  0.0256  0.4948 -1.6616
13305TIP3   OH261329   4.954   1.441  17.161  0.0715 -0.2056 -0.0375
13305TIP3    H161330   4.998   1.525  17.147 -0.3400 -0.1449 -1.0525
13305TIP3    H261331   4.972   1.390  17.082 -0.6876 -0.6201  0.0408
13306TIP3   OH261332   4.513   3.752  13.124 -0.1566 -0.1017 -0.2974
13306TIP3    H161333   4.455   3.716  13.191  0.5240  0.1182  0.4309
13306TIP3    H261334   4.600   3.724  13.150  0.3050  1.3407 -0.1750
13307TIP3   OH261335   4.104   4.674   6.333 -0.2463 -0.1354  0.4600
13307TIP3    H161336   4.044   4.748   6.336 -0.0775  0.5539 -4.5147
13307TIP3    H261337   4.189   4.713   6.312  0.6109 -1.5455  1.1366
13308TIP3   OH261338   1.988   5.234   2.778  0.0308  0.1251  0.1704
13308TIP3    H161339   1.975   5.226   2.683 -1.2599 -1.5587  0.4383
13308TIP3    H261340   1.990   5.143   2.809  1.2591  0.6315  1.6729
13309TIP3   OH261341   0.856   5.262  12.925 -0.0669  0.4452 -0.3743
13309TIP3    H161342   0.849   5.346  12.971 -2.7160 -0.2090  0.6409
13309TIP3    H261343   0.823   5.281  12.837 -0.9678  0.4444 -0.0507
13310TIP3   OH261344   5.345   0.972  12.655  0.7935  0.0708 -0.3104
13310TIP3    H161345   5.253   0.987  12.677  1.1828  0.8797  0.8988
13310TIP3    H261346   5.392   1.035  12.709  2.0270  0.0924 -1.3773
13311TIP3   OH261347   6.073   0.146  17.288  0.1434  0.2165 -0.2136
13311TIP3    H161348   6.145   0.112  17.236  0.6850  0.0924  0.6006
13311TIP3    H261349   6.107   0.149  17.378 -1.1278 -0.6771  0.3295
13312TIP3   OH261350   4.923   1.689  13.239 -0.2528  0.6984 -0.2266
13312TIP3    H161351   4.827   1.692  13.242 -0.4160  0.4531 -2.6965
13312TIP3    H261352   4.942   1.657  13.151  2.0981 -1.5560  0.9637
13313TIP3   OH261353   1.308   6.545   6.563  0.4098 -0.0890 -0.2955
13313TIP3    H161354   1.299   6.479   6.632  1.9476 -2.0453 -1.8442
13313TIP3    H261355   1.387   6.594   6.587  1.2764 -1.1490 -0.9392
13314TIP3   OH261356   6.430   0.387   4.951  0.1682  0.1843 -0.3058
13314TIP3    H161357   6.520   0.402   4.923 -0.1557  0.6430 -1.1510
13314TIP3    H261358   6.437   0.339   5.033  1.2270 -3.1943 -2.1593
13315TIP3   OH261359   0.469   5.223  12.754 -0.1487 -0.5304 -0.4225
13315TIP3    H161360   0.453   5.167  12.679  2.0956 -0.8740 -0.7041
13315TIP3    H261361   0.546   5.275  12.730  0.1472 -0.0812  1.3070
13316TIP3   OH261362   4.183   0.062  17.339 -0.4883  0.0299 -0.0272
13316TIP3    H161363   4.139   0.036  17.420 -1.1927 -1.0187 -0.7204
13316TIP3    H261364   4.231  -0.016  17.312 -0.2686  0.3647 -0.6244
13317TIP3   OH261365   5.885   2.509   5.424  0.1613  0.3080 -0.0307
13317TIP3    H161366   5.882   2.460   5.506 -0.8629 -0.0872 -0.2857
13317TIP3    H261367   5.951   2.463   5.372 -0.3721 -0.4671 -0.0434
13318TIP3   OH261368   2.875   0.434   2.685  0.5282  0.3493 -0.0764
13318TIP3    H161369   2.963   0.460   2.658  1.1553  0.0254  1.5791
13318TIP3    H261370   2.876   0.339   2.685 -0.2047  0.3213 -1.1738
13319TIP3   OH261371   3.116   3.463  13.293  0.6219  0.6014  0.2445
13319TIP3    H161372   3.113   3.555  13.321  0.5360  0.4053  0.8778
13319TIP3    H261373   3.025   3.436  13.290  0.6890  0.2784  0.9291
13320TIP3   OH261374   1.510   5.014   5.282  0.3169 -0.0296 -0.8293
13320TIP3    H161375   1.560   4.940   5.246  0.1413 -0.1352 -0.8563
13320TIP3    H261376   1.422   5.002   5.247 -0.2086 -0.8781  0.6795
13321TIP3   OH261377   2.244   0.841  13.460  0.0404  0.0200  0.0883
13321TIP3    H161378   2.212   0.862  13.547  1.3788 -0.2639  0.6796
13321TIP3    H261379   2.165   0.825  13.408 -0.7639 -0.0779  1.3105
13322TIP3   OH261380   0.768   6.747  13.928  0.3510  0.0345  0.1280
13322TIP3    H161381   0.755   6.652  13.925  0.9685 -0.0295 -1.7017
13322TIP3    H261382   0.859   6.759  13.902  0.2694  1.1387  0.3255
13323TIP3   OH261383   6.609   5.200  13.299  0.0877  0.3280 -0.7299
13323TIP3    H161384   6.537   5.192  13.362  0.3656 -0.6956 -0.5152
13323TIP3    H261385   6.612   5.293  13.277 -0.8244  0.4989 -0.1832
13324TIP3   OH261386   0.780   2.803  17.181  0.0523 -0.1399 -0.7064
13324TIP3    H161387   0.727   2.728  17.153 -1.0472 -0.3348  1.6687
13324TIP3    H261388   0.795   2.789  17.274  0.2596  2.3347 -0.2928
13325TIP3   OH261389   1.861   4.998   5.215 -0.2556 -0.6275  0.0380
13325TIP3    H161390   1.857   5.074   5.157 -0.3388 -0.4594  0.2627
13325TIP3    H261391   1.954   4.974   5.216  0.0618  0.5229  1.3030
13326TIP3   OH261392   0.842   2.710  15.972  0.1356 -0.3130 -0.0338
13326TIP3    H161393   0.862   2.621  15.942  1.9331  0.1439 -0.2642
13326TIP3    H261394   0.806   2.698  16.060  0.7131 -1.2620  0.0869
13327TIP3   OH261395   3.651   4.295   2.814  0.8520  0.2741  0.1253
13327TIP3    H161396   3.746   4.285   2.811  0.9791  1.5352 -0.7690
13327TIP3    H261397   3.635   4.356   2.886  0.6314 -0.6139  0.8522
13328TIP3   OH261398   5.899   4.156   5.353  0.0552  0.6058  0.2483
13328TIP3    H161399   5.824   4.155   5.294  1.9927  0.4284 -2.3669
13328TIP3    H261400   5.906   4.066   5.385 -0.4809  0.4904  0.0513
13329TIP3   OH261401   5.776   4.307  17.106  0.1208 -0.2138 -0.6187
13329TIP3    H161402   5.759   4.233  17.047  0.9602  0.2492 -1.4542
13329TIP3    H261403   5.764   4.384  17.052  2.3198  0.1986 -0.6162
13330TIP3   OH261404   5.058   1.773  15.823  0.4461 -0.0584  0.3656
13330TIP3    H161405   5.095   1.747  15.907 -0.5742  2.5083  1.7333
13330TIP3    H261406   5.130   1.819  15.779  0.5312 -0.0217  0.5414
13331TIP3   OH261407   1.803   6.591  11.303 -0.3593 -0.1333  0.0814
13331TIP3    H161408   1.877   6.602  11.364  0.3903 -3.4804 -0.0609
13331TIP3    H261409   1.845   6.582  11.217 -1.1122 -0.0732 -0.2945
13332TIP3   OH261410   5.839   3.421  17.368  0.3007  0.8418 -0.1371
13332TIP3    H161411   5.853   3.410  17.462 -1.6713  3.1814  0.5162
13332TIP3    H261412   5.789   3.343  17.343 -0.4782  0.9190  1.0929
13333TIP3   OH261413   1.595   4.797  16.551  0.1754  0.0085 -0.1510
13333TIP3    H161414   1.554   4.806  16.465  1.3388  1.6351 -0.5940
13333TIP3    H261415   1.658   4.725  16.540  0.2431  0.1391 -0.6411
13334TIP3   OH261416   2.132   5.426  12.966 -0.5056  0.0732 -0.3111
13334TIP3    H161417   2.053   5.406  12.916 -0.3978  0.4203 -0.6240
13334TIP3    H261418   2.200   5.373  12.924 -0.8950 -1.5685  1.0352
13335TIP3   OH261419   0.242   0.572  14.475 -0.1162  0.0163  0.1469
13335TIP3    H161420   0.276   0.485  14.454  3.5697  0.6600  2.5693
13335TIP3    H261421   0.261   0.624  14.397 -1.1385 -0.9954 -0.8142
13336TIP3   OH261422   2.520   2.512  12.109 -0.0466 -0.3116 -0.2142
13336TIP3    H161423   2.546   2.421  12.122  1.6184  0.2194  0.4003
13336TIP3    H261424   2.453   2.508  12.040 -3.7520 -2.4834  3.1051
13337TIP3   OH261425   1.988   5.552   1.968 -0.1451  0.3751  0.3501
13337TIP3    H161426   1.998   5.644   1.991  2.3151 -0.2228  2.1046
13337TIP3    H261427   2.077   5.516   1.974 -1.1972 -2.3662  1.0411
13338TIP3   OH261428   5.339   2.276  15.775 -0.5318  0.1266  0.2416
13338TIP3    H161429   5.350   2.332  15.698  1.2833  1.6618  1.5218
13338TIP3    H261430   5.424   2.233  15.786 -1.3921 -1.6620  0.2662
13339TIP3   OH261431   4.947   3.363   3.636 -0.1729 -0.3268  0.3065
13339TIP3    H161432   4.863   3.386   3.677  0.8383 -0.2040  2.4907
13339TIP3    H261433   4.991   3.447   3.623 -0.3249 -0.3980 -0.7249
13340TIP3   OH261434   5.847   0.495   2.891 -0.4409 -0.0910  0.2312
13340TIP3    H161435   5.756   0.468   2.903 -1.5222  1.6173 -3.0606
13340TIP3    H261436   5.847   0.546   2.810  3.2740  0.9681  0.7128
13341TIP3   OH261437   2.101   1.453   4.069 -0.4414 -0.0580  0.1242
13341TIP3    H161438   2.054   1.437   4.150 -1.4458  1.2015 -0.1718
13341TIP3    H261439   2.144   1.370   4.049 -0.4425 -0.4839  1.7557
13342TIP3   OH261440   0.783   5.601   6.091  0.1282  0.0020 -0.0590
13342TIP3    H161441   0.773   5.516   6.134  3.5974  0.5308  2.2218
13342TIP3    H261442   0.754   5.664   6.156  1.5189  0.6641 -0.0462
13343TIP3   OH261443   0.110   5.349   3.903 -0.3640 -0.4610  0.2373
13343TIP3    H161444   0.153   5.429   3.874  0.8895 -1.6482 -1.3676
13343TIP3    H261445   0.154   5.326   3.985 -2.7093  1.9598  2.3513
13344TIP3   OH261446   3.010   3.711  13.950  0.4534  0.3149  0.0191
13344TIP3    H161447   3.077   3.753  14.004  2.1694  0.3392 -1.9971
13344TIP3    H261448   2.953   3.784  13.923  0.1372  0.4410  0.9828
13345TIP3   OH261449   4.579   2.071   5.785 -0.3046 -0.4539 -0.8058
13345TIP3    H161450   4.644   2.137   5.762 -0.5981  0.0755 -0.1547
13345TIP3    H261451   4.627   1.989   5.787  0.2840 -0.1103 -0.6432
13346TIP3   OH261452   3.065   0.227  15.151  0.6731 -0.1385 -0.3179
13346TIP3    H161453   3.078   0.217  15.245 -0.8403 -1.6810 -0.2336
13346TIP3    H261454   3.009   0.304  15.142 -0.1770 -0.6976  0.1377
13347TIP3   OH261455   3.159   2.966   2.506 -0.6428  0.4316  0.0150
13347TIP3    H161456   3.114   3.023   2.443 -4.0518 -0.6811  1.1932
13347TIP3    H261457   3.203   2.900   2.452 -0.1002  1.7823 -1.2408
13348TIP3   OH261458   3.048   5.969  12.481 -0.0577  0.1908  1.0521
13348TIP3    H161459   3.102   6.004  12.411  0.2293  0.7232  1.5254
13348TIP3    H261460   2.961   6.005  12.465  0.0318  0.3953  1.0256
13349TIP3   OH261461   4.911   5.288  11.522 -0.5954  0.6670  0.6500
13349TIP3    H161462   4.820   5.264  11.539 -0.9004  1.0832 -0.3493
13349TIP3    H261463   4.906   5.359  11.457  0.5030 -0.9524 -1.3051
13350TIP3   OH261464   6.122   6.676  11.369  0.4012 -0.4733 -0.4755
13350TIP3    H161465   6.032   6.707  11.362  0.6941  0.5485  0.1508
13350TIP3    H261466   6.115   6.590  11.409 -0.3001 -0.4619 -0.5686
13351TIP3   OH261467   2.060   6.017  13.615 -0.0240  0.4316  0.0673
13351TIP3    H161468   2.037   5.929  13.587  2.1542  0.2610 -1.4699
13351TIP3    H261469   1.987   6.072  13.585 -1.0629 -0.7243  0.3992
13352TIP3   OH261470   6.181   6.003   0.501  0.1896 -0.2285 -0.3439
13352TIP3    H161471   6.103   6.031   0.453  0.9584  0.8275 -1.0241
13352TIP3    H261472   6.195   6.072   0.566  0.6183 -0.3424 -0.3127
13353TIP3   OH261473   4.602   4.762  16.926  0.2403  0.4699 -0.6386
13353TIP3    H161474   4.585   4.815  16.849  1.6876 -1.8172 -2.6681
13353TIP3    H261475   4.698   4.755  16.930  0.2693  1.2105  1.9291
13354TIP3   OH261476   4.998   4.507  13.332 -0.2063 -0.0496 -0.4132
13354TIP3    H161477   4.923   4.476  13.282  0.4280 -0.0337 -1.4034
13354TIP3    H261478   4.961   4.567  13.397 -1.2066 -1.2080  0.1138
13355TIP3   OH261479   3.084   6.436  16.655 -0.0283  0.1277 -0.2403
13355TIP3    H161480   3.121   6.373  16.593  1.9979 -0.1002  1.0851
13355TIP3    H261481   3.127   6.415  16.738 -4.2097 -0.9900  1.8779
13356TIP3   OH261482   5.348   4.767   0.280 -0.1166  0.1267 -0.0669
13356TIP3    H161483   5.373   4.687   0.327 -0.8239 -1.5446 -2.3555
13356TIP3    H261484   5.275   4.802   0.330  0.4713 -0.3877  1.2217
13357TIP3   OH261485   2.686   6.602  11.950 -0.6882  0.2987 -0.0186
13357TIP3    H161486   2.669   6.587  11.857 -0.7267 -0.0822  0.0483
13357TIP3    H261487   2.756   6.668  11.951 -0.2148 -0.1941 -0.3276
13358TIP3   OH261488   2.782   2.128  11.829  0.6444  0.4095 -0.2147
13358TIP3    H161489   2.874   2.152  11.837  0.9594 -1.0463  1.0449
13358TIP3    H261490   2.780   2.062  11.760  0.6775 -0.1386  0.3018
13359TIP3   OH261491   1.372   0.011   0.961  0.2943  0.2676 -0.3161
13359TIP3    H161492   1.340   0.014   1.051  1.0661  1.9543 -0.0676
13359TIP3    H261493   1.295   0.030   0.908  0.1691  0.9598  0.0974
13360TIP3   OH261494   3.757   6.157  16.210  0.0148  0.4491  0.2056
13360TIP3    H161495   3.746   6.075  16.257 -0.1172 -0.0541 -0.6725
13360TIP3    H261496   3.843   6.150  16.169  1.2304  1.9103  2.3014
13361TIP3   OH261497   0.455   4.862  16.748  0.0476  0.0623  0.0806
13361TIP3    H161498   0.450   4.776  16.707 -0.2364 -0.3388  0.9169
13361TIP3    H261499   0.450   4.844  16.842  0.4595  0.9580  0.2911
13362TIP3   OH261500   2.895   0.428   3.936  0.1069  0.4444 -0.5023
13362TIP3    H161501   2.809   0.386   3.932  0.5701 -0.6151  0.2461
13362TIP3    H261502   2.949   0.369   3.989  1.0616  1.5154 -0.2260
13363TIP3   OH261503   1.328   6.595  15.558 -0.1404 -0.6203 -0.0679
13363TIP3    H161504   1.387   6.651  15.609 -1.9215 -0.4066  1.9574
13363TIP3    H261505   1.287   6.655  15.495 -1.5516  0.3501  1.6499
13364TIP3   OH261506   6.681   5.816   5.536  0.1187 -0.0006 -0.0475
13364TIP3    H161507   6.615   5.747   5.537  0.0459  0.0481 -1.0340
13364TIP3    H261508   6.749   5.786   5.597  0.5954 -1.4577 -1.2348
13365TIP3   OH261509   0.957   3.558   5.826 -0.0319  0.1319 -0.2736
13365TIP3    H161510   1.045   3.539   5.857 -0.1938  0.5685  0.4998
13365TIP3    H261511   0.900   3.522   5.894 -0.4544 -0.2986 -0.8521
13366TIP3   OH261512   2.451   6.525  16.827 -0.1537 -0.3079  0.2946
13366TIP3    H161513   2.469   6.618  16.841  1.2118 -0.5639  0.3560
13366TIP3    H261514   2.535   6.487  16.800 -1.2068 -1.1012 -2.1094
13367TIP3   OH261515   0.843   6.636   2.010 -0.3284 -0.5656  0.1711
13367TIP3    H161516   0.876   6.652   1.921 -0.8022 -1.1074 -0.1046
13367TIP3    H261517   0.915   6.664   2.067 -0.0961 -0.0230 -0.3722
13368TIP3   OH261518   1.876   5.660   6.420  0.0019 -0.2061  0.0293
13368TIP3    H161519   1.839   5.719   6.486 -1.7491 -0.6700 -0.4707
13368TIP3    H261520   1.814   5.665   6.347  0.3650 -1.8731 -0.4252
13369TIP3   OH261521   6.668   3.613  13.391 -0.0335  0.4746 -0.1602
13369TIP3    H161522   6.657   3.628  13.297 -1.4408  0.2811 -0.0509
13369TIP3    H261523   6.760   3.589  13.401  0.0568  0.1680 -1.5322
13370TIP3   OH261524   4.874   4.742   6.486 -0.0999  0.5605 -0.1067
13370TIP3    H161525   4.845   4.832   6.474  0.5868  0.8658  0.4211
13370TIP3    H261526   4.845   4.696   6.407 -0.4736  1.2365 -0.3675
13371TIP3   OH261527   2.519   5.436   2.555  1.1614  0.1888  0.4759
13371TIP3    H161528   2.519   5.432   2.651 -0.0939  1.3055  0.5497
13371TIP3    H261529   2.476   5.355   2.528 -0.4712  0.8454  0.9640
13372TIP3   OH261530   2.764   6.012  15.172 -0.3434 -0.5592 -0.4327
13372TIP3    H161531   2.729   5.941  15.117 -0.8176 -0.2705 -0.5084
13372TIP3    H261532   2.722   5.999  15.257  0.2080 -0.8622 -0.2033
13373TIP3   OH261533   5.709   2.510   0.112 -0.0709  0.3549 -0.6872
13373TIP3    H161534   5.627   2.523   0.065  0.6442 -0.1312 -2.1154
13373TIP3    H261535   5.773   2.564   0.065  0.5035  0.4809  0.2111
13374TIP3   OH261536   4.784   1.656   1.693 -0.2980  0.8901  0.0969
13374TIP3    H161537   4.767   1.669   1.600 -1.1601  0.3864  0.1720
13374TIP3    H261538   4.856   1.593   1.696 -1.7276 -0.8571 -0.2554
13375TIP3   OH261539   3.220   5.975  14.142 -0.0009 -0.5936 -0.2136
13375TIP3    H161540   3.174   5.893  14.159 -0.8728 -0.1320 -0.2652
13375TIP3    H261541   3.310   5.958  14.169 -1.0188 -0.1772  4.1553
13376TIP3   OH261542   0.456   0.917   4.162  0.2017  0.0241 -0.0392
13376TIP3    H161543   0.439   0.934   4.069 -2.6939  0.6422  0.5209
13376TIP3    H261544   0.393   0.849   4.186  0.9992 -0.2243  1.4689
13377TIP3   OH261545   6.434   0.259   4.591  0.4685 -0.1529 -0.0522
13377TIP3    H161546   6.386   0.245   4.509 -0.9244  0.4070  0.6507
13377TIP3    H261547   6.466   0.349   4.585  1.7497 -0.6223 -0.6554
13378TIP3   OH261548   5.269   2.457   1.912  0.4405  0.0108 -0.1413
13378TIP3    H161549   5.284   2.418   1.998 -0.3904  0.2000  0.1007
13378TIP3    H261550   5.185   2.502   1.921  1.6414  2.4123 -0.2134
13379TIP3   OH261551   4.319   3.471  14.883 -0.0439  0.5021 -0.2365
13379TIP3    H161552   4.232   3.458  14.845  0.1712  1.6216 -1.1632
13379TIP3    H261553   4.380   3.445  14.813  0.3616  0.3997  0.1503
13380TIP3   OH261554   1.576   2.599   0.169  0.9328 -0.2246 -0.0174
13380TIP3    H161555   1.506   2.658   0.141  1.7276  0.7160 -0.0709
13380TIP3    H261556   1.554   2.515   0.128  1.2545  0.7225 -2.3167
13381TIP3   OH261557   2.209   1.113   5.868  0.0881  0.0799  0.3403
13381TIP3    H161558   2.241   1.103   5.778  1.0042 -0.4838  0.7126
13381TIP3    H261559   2.236   1.033   5.912  2.4004  1.5951  1.9131
13382TIP3   OH261560   3.553   4.912  16.310  0.2787  1.0339  0.1266
13382TIP3    H161561   3.576   4.909  16.403 -0.1670  1.3971  0.2500
13382TIP3    H261562   3.457   4.917  16.309 -0.0602 -2.5923 -0.3976
13383TIP3   OH261563   0.438   6.125  12.157 -0.3928 -0.0813 -0.1608
13383TIP3    H161564   0.475   6.052  12.208  1.9246  0.7247 -0.5584
13383TIP3    H261565   0.393   6.179  12.222  0.0739 -0.5398  0.5642
13384TIP3   OH261566   3.638   5.845   5.102 -0.6192  0.1173  0.0213
13384TIP3    H161567   3.555   5.875   5.140 -0.6911 -1.0520  0.8337
13384TIP3    H261568   3.623   5.754   5.079  1.0417 -0.8124  2.1961
13385TIP3   OH261569   3.035   0.762  17.256 -0.1597  0.3151 -0.2327
13385TIP3    H161570   2.947   0.784  17.226  0.8205  1.7054 -2.3384
13385TIP3    H261571   3.068   0.843  17.294 -0.1113 -0.4762  1.4858
13386TIP3   OH261572   3.539   0.131   2.692 -0.0244  0.6188 -0.0210
13386TIP3    H161573   3.596   0.068   2.737 -1.4877  1.3036  3.0460
13386TIP3    H261574   3.515   0.087   2.610  3.4055 -0.3974 -0.6443
13387TIP3   OH261575   1.868   4.647   6.656  0.6198  0.0175 -0.0078
13387TIP3    H161576   1.875   4.552   6.670  0.7683 -0.0646 -0.6022
13387TIP3    H261577   1.943   4.684   6.702  1.4553 -0.3016 -1.0817
13388TIP3   OH261578   5.812   4.491  12.435 -0.3733 -0.9342  0.4661
13388TIP3    H161579   5.801   4.442  12.516 -3.8652 -2.2066 -0.5721
13388TIP3    H261580   5.794   4.427  12.366  1.6970  0.2817 -1.3294
13389TIP3   OH261581   1.023   0.607   2.466 -0.5192  0.2838  0.8119
13389TIP3    H161582   1.086   0.661   2.419  1.6438 -2.3910  0.3589
13389TIP3    H261583   0.938   0.632   2.430  0.6593  1.3061 -1.4678
13390TIP3   OH261584   5.090   3.782   0.563  0.2997  0.2981 -0.2835
13390TIP3    H161585   5.099   3.868   0.604  1.8032 -0.7029  1.6773
13390TIP3    H261586   5.158   3.728   0.604  0.3397 -1.4747 -2.4634
13391TIP3   OH261587   6.427   6.620  16.548 -0.3569 -0.2506  0.1763
13391TIP3    H161588   6.340   6.589  16.574 -0.5580 -0.5817 -0.8567
13391TIP3    H261589   6.482   6.541  16.550 -0.6777 -0.5664 -1.6369
13392TIP3   OH261590   3.923   3.789   4.547  0.0944  0.3372 -0.1951
13392TIP3    H161591   3.891   3.863   4.598  0.5789  1.3288 -1.2573
13392TIP3    H261592   3.883   3.801   4.461 -1.5937 -1.9131  0.1963
13393TIP3   OH261593   2.366   0.990  15.745  0.0179 -0.0962 -0.0086
13393TIP3    H161594   2.349   1.071  15.793 -0.8722 -0.4928  0.3600
13393TIP3    H261595   2.434   1.014  15.681  0.3483  0.7267  0.6405
13394TIP3   OH261596   3.279   3.453   2.788 -0.0963  0.0618 -0.0243
13394TIP3    H161597   3.222   3.461   2.712  0.7315  1.1634 -0.5486
13394TIP3    H261598   3.303   3.543   2.811 -0.4423 -0.2326  1.6383
13395TIP3   OH261599   4.532   2.894  11.785  0.2023 -0.2248  0.4808
13395TIP3    H161600   4.597   2.827  11.805  0.2889 -0.6517 -1.0766
13395TIP3    H261601   4.568   2.942  11.711 -0.5489  0.5675  0.6066
13396TIP3   OH261602   4.376   0.412  16.662 -0.0783  0.3290  0.1850
13396TIP3    H161603   4.443   0.345  16.679  0.6054  1.3446  1.8435
13396TIP3    H261604   4.339   0.431  16.748 -2.7940 -0.4106 -0.7263
13397TIP3   OH261605   4.737   1.412   1.009  0.5794  0.3399 -0.4754
13397TIP3    H161606   4.726   1.410   0.914 -1.2066 -0.7532 -0.2906
13397TIP3    H261607   4.810   1.352   1.025  0.0607 -0.4654 -1.0640
13398TIP3   OH261608   6.612   6.529  13.891  0.2396 -0.2464 -0.5500
13398TIP3    H161609   6.656   6.582  13.824 -0.5192 -1.0952 -1.7757
13398TIP3    H261610   6.543   6.586  13.926  0.9272  0.3561 -0.1651
13399TIP3   OH261611   6.533   2.763  16.362 -0.0748 -0.0511  0.1683
13399TIP3    H161612   6.494   2.677  16.378 -0.5526  0.1446  0.0681
13399TIP3    H261613   6.561   2.792  16.449  2.0308 -1.2059 -0.0450
13400TIP3   OH261614   1.789   1.371   2.210 -0.9039 -0.0211  0.1361
13400TIP3    H161615   1.867   1.337   2.253 -0.8462  0.5427  0.4888
13400TIP3    H261616   1.806   1.465   2.201 -1.0584 -0.0741 -0.8190
13401TIP3   OH261617   3.692   0.118  11.809  0.4735 -0.2452 -0.4975
13401TIP3    H161618   3.724   0.066  11.883  2.3954  1.5175  0.0239
13401TIP3    H261619   3.674   0.054  11.740 -1.7954 -1.9860  1.5541
13402TIP3   OH261620   3.452   0.622   5.691 -0.1832 -0.0791 -0.3466
13402TIP3    H161621   3.409   0.595   5.610  2.1165 -2.0882 -1.0269
13402TIP3    H261622   3.429   0.555   5.755  1.9098 -1.2699 -0.7655
13403TIP3   OH261623   0.932   3.189  12.283 -0.7841  0.4322 -0.0661
13403TIP3    H161624   0.957   3.200  12.375 -1.9483  0.8276  0.2147
13403TIP3    H261625   0.994   3.244  12.235 -1.4545  1.8950  0.6738
13404TIP3   OH261626   3.543   3.441   2.680  0.3341 -0.3147 -0.1358
13404TIP3    H161627   3.514   3.485   2.600  0.3165  0.2114  0.1550
13404TIP3    H261628   3.463   3.411   2.721  0.1503  1.2731  0.7460
13405TIP3   OH261629   5.048   0.280   0.358 -0.1900  0.4212 -0.1535
13405TIP3    H161630   5.092   0.217   0.301 -0.5676  1.5062 -1.7027
13405TIP3    H261631   5.085   0.264   0.444  0.9142 -0.8111 -0.8187
13406TIP3   OH261632   0.277   6.663  13.082  0.6583 -0.0466  0.0317
13406TIP3    H161633   0.182   6.669  13.068  0.8123  1.2510 -0.5778
13406TIP3    H261634   0.315   6.678  12.995  1.4211 -1.3471  0.1159
13407TIP3   OH261635   3.510   4.550   5.912 -0.3306  0.1469  0.1688
13407TIP3    H161636   3.561   4.471   5.896 -1.0814  0.2834 -4.1478
13407TIP3    H261637   3.545   4.615   5.850 -3.6338  1.1522 -0.8794
13408TIP3   OH261638   4.737   6.028  11.343 -0.6129  0.7227 -0.2965
13408TIP3    H161639   4.801   6.044  11.413  0.7554 -2.8915 -0.5060
13408TIP3    H261640   4.775   6.071  11.266 -1.3478  3.3844  0.7112
13409TIP3   OH261641   4.820   4.356  11.199  0.2430 -0.3858  0.0894
13409TIP3    H161642   4.759   4.376  11.271  0.8889 -0.3331  0.6295
13409TIP3    H261643   4.767   4.366  11.120 -1.0267 -2.3602  0.6165
13410TIP3   OH261644   6.623   1.207   1.027  0.4473  0.1872 -0.0141
13410TIP3    H161645   6.537   1.165   1.016  0.9618 -0.7583 -0.5534
13410TIP3    H261646   6.610   1.296   0.993 -1.1901  1.2052  2.9749
13411TIP3   OH261647   1.886   3.117  13.060  0.5033 -0.1488 -0.0974
13411TIP3    H161648   1.811   3.175  13.050  1.6096  1.5429  0.9573
13411TIP3    H261649   1.855   3.032  13.029 -0.9189  1.1517 -2.5273
13412TIP3   OH261650   6.612   5.928   2.925  0.4812 -0.2267 -0.5878
13412TIP3    H161651   6.685   5.989   2.940 -1.0159  1.2989  0.9815
13412TIP3    H261652   6.563   5.967   2.853 -1.2572  1.3128  1.3150
13413TIP3   OH261653   1.346   5.298  10.961 -0.2823  0.6843  0.2992
13413TIP3    H161654   1.326   5.293  11.054  0.2360 -0.2894  0.3720
13413TIP3    H261655   1.436   5.267  10.954 -0.6524 -0.2449 -0.6319
13414TIP3   OH261656   4.605   4.977   3.160 -0.4179  0.0221  0.3412
13414TIP3    H161657   4.566   4.996   3.245 -1.9366 -4.4869  0.9400
13414TIP3    H261658   4.543   5.013   3.096 -1.6558 -0.4513  1.2334
13415TIP3   OH261659   1.865   0.650  12.049  0.4514  0.2462 -0.4307
13415TIP3    H161660   1.879   0.745  12.051  0.2904  0.2566  0.7575
13415TIP3    H261661   1.844   0.631  11.958  0.3792  1.3687 -0.6625
13416TIP3   OH261662   1.429   4.937  15.666  0.1365 -0.7908  0.2296
13416TIP3    H161663   1.463   5.025  15.651 -2.3827  0.0315 -1.4526
13416TIP3    H261664   1.504   4.886  15.695  1.8244  1.7398  0.5990
13417TIP3   OH261665   6.739   2.044  15.957 -0.2297  0.1996  0.3299
13417TIP3    H161666   6.717   2.000  15.874 -0.4575  1.4302 -0.2931
13417TIP3    H261667   6.751   1.973  16.019  0.2257 -0.7788 -0.8273
13418TIP3   OH261668   5.232   5.720  13.502  0.5580 -0.3041 -0.5086
13418TIP3    H161669   5.169   5.656  13.537  1.7454 -1.1715  0.0913
13418TIP3    H261670   5.312   5.704  13.551  0.4322  2.8749  0.9784
13419TIP3   OH261671   2.225   0.342  11.212  0.6608  0.1115 -0.2440
13419TIP3    H161672   2.265   0.283  11.276  1.2291 -0.7580 -1.3645
13419TIP3    H261673   2.218   0.426  11.258 -0.3140 -0.8280  1.4382
13420TIP3   OH261674   6.107   0.796  12.213  0.3029 -0.2625  0.1000
13420TIP3    H161675   6.034   0.841  12.170 -0.1455  0.9603  1.9723
13420TIP3    H261676   6.177   0.861  12.217  0.8021 -0.7880  0.0346
13421TIP3   OH261677   6.435   4.053   5.532 -0.1482 -0.6784 -0.4194
13421TIP3    H161678   6.526   4.081   5.527 -0.1549 -0.7761 -1.2209
13421TIP3    H261679   6.410   4.068   5.623 -0.3946  2.6613 -0.9278
13422TIP3   OH261680   1.118   2.198   4.244  0.1306  0.3242  0.4894
13422TIP3    H161681   1.107   2.215   4.150  1.5911  0.3374  0.3010
13422TIP3    H261682   1.208   2.224   4.263 -0.6534  1.9804  2.2832
13423TIP3   OH261683   5.428   2.402   3.285 -0.1298  0.0427 -0.8423
13423TIP3    H161684   5.447   2.430   3.375 -0.8856  0.0523 -0.6780
13423TIP3    H261685   5.339   2.366   3.290  0.6525 -2.0518 -1.1249
13424TIP3   OH261686   2.970   3.559  14.835  0.0056  0.1527  0.5493
13424TIP3    H161687   2.954   3.587  14.925 -0.1474  0.4629  0.4293
13424TIP3    H261688   2.908   3.610  14.783  1.6172  1.6905  0.0260
13425TIP3   OH261689   5.268   3.572   1.976 -0.0551 -1.0751 -0.5129
13425TIP3    H161690   5.233   3.640   2.034  0.7270  0.7387 -2.0596
13425TIP3    H261691   5.268   3.612   1.889  2.1822 -2.3718 -1.2066
13426TIP3   OH261692   5.996   0.853   5.850 -0.4844 -0.1277  1.0567
13426TIP3    H161693   5.927   0.860   5.783  0.2819 -0.1851  0.2479
13426TIP3    H261694   6.063   0.798   5.810  0.9992  1.6248  0.9810
13427TIP3   OH261695   6.443   4.333  16.365  0.2831 -0.0123 -0.3382
13427TIP3    H161696   6.521   4.303  16.318  2.7236  3.4715  0.9774
13427TIP3    H261697   6.393   4.381  16.299 -0.2464 -1.3453 -0.9456
13428TIP3   OH261698   5.525   1.374  14.518 -0.8202 -1.1055 -0.0064
13428TIP3    H161699   5.591   1.370  14.588 -0.9140 -0.4758  0.1203
13428TIP3    H261700   5.446   1.337  14.558 -1.0258 -0.2532  0.4063
13429TIP3   OH261701   4.429   2.072   0.745 -0.1679 -0.5230 -0.5503
13429TIP3    H161702   4.334   2.070   0.762 -0.1598  1.8838  0.0263
13429TIP3    H261703   4.442   2.150   0.691  1.3763 -1.5056 -1.6775
13430TIP3   OH261704   4.344   1.603   1.333  0.7083  0.6507 -0.0179
13430TIP3    H161705   4.333   1.610   1.238 -0.1494 -0.5927 -0.0335
13430TIP3    H261706   4.263   1.561   1.363  1.5061 -0.1561  1.0874
13431TIP3   OH261707   1.045   0.133   4.549  0.3403 -0.1624 -0.4198
13431TIP3    H161708   0.959   0.104   4.521  0.5190 -0.3369 -0.7899
13431TIP3    H261709   1.096   0.053   4.560  0.3963 -0.0711 -0.0075
13432TIP3   OH261710   0.932   6.516   5.892 -0.6381  0.0854 -0.6492
13432TIP3    H161711   0.951   6.451   5.960 -2.6680  0.0197 -0.1025
13432TIP3    H261712   0.939   6.466   5.810 -2.3079 -0.8969 -0.2312
13433TIP3   OH261713   5.806   4.324  16.253 -0.3990 -0.6214 -0.6538
13433TIP3    H161714   5.761   4.385  16.311 -0.5693 -0.9931 -0.3906
13433TIP3    H261715   5.738   4.263  16.225 -0.8231  0.7817 -2.9684
13434TIP3   OH261716   6.336   1.516  15.175 -0.8539 -0.1672  0.1455
13434TIP3    H161717   6.316   1.482  15.262 -1.8075  0.1082  0.0397
13434TIP3    H261718   6.418   1.564  15.186 -2.5797  2.6684  1.6436
13435TIP3   OH261719   4.272   4.482  11.878  0.7104  0.0107  0.3421
13435TIP3    H161720   4.233   4.444  11.799  1.7092  0.0201 -0.1786
13435TIP3    H261721   4.256   4.576  11.870 -0.2391 -0.1079  0.7601
13436TIP3   OH261722   6.037   2.760  14.000 -0.3133 -0.3321 -0.0963
13436TIP3    H161723   6.039   2.666  13.985  0.0115 -0.5915  1.4373
13436TIP3    H261724   5.989   2.795  13.925  0.7957 -1.5474 -1.4215
13437TIP3   OH261725   5.923   3.368   1.582 -0.0734  0.0938  0.2596
13437TIP3    H161726   5.841   3.321   1.597  0.3087 -0.2281  1.4345
13437TIP3    H261727   5.991   3.305   1.604  0.4762  0.7360  0.4271
13438TIP3   OH261728   3.066   4.396  15.895  0.1990  0.3591 -0.2543
13438TIP3    H161729   3.033   4.457  15.961  1.8927 -0.0522  1.0475
13438TIP3    H261730   3.131   4.448  15.847  2.0347 -0.4598  1.1989
13439TIP3   OH261731   5.230   0.535  11.327 -0.8112  0.1828  0.2539
13439TIP3    H161732   5.245   0.440  11.330 -0.0198  0.3190  0.9372
13439TIP3    H261733   5.188   0.555  11.411 -1.5932  0.3475 -0.1663
13440TIP3   OH261734   0.850   4.159  12.097  0.0783  0.5369  0.0222
13440TIP3    H161735   0.841   4.134  12.005  1.0183 -0.9351  0.2870
13440TIP3    H261736   0.941   4.190  12.105  0.4718 -0.7071  0.7097
13441TIP3   OH261737   6.194   0.383  16.414 -0.2030  0.4588  0.7338
13441TIP3    H161738   6.099   0.385  16.429 -0.1401 -2.7390  2.5748
13441TIP3    H261739   6.226   0.320  16.478  2.8339 -0.5904 -1.5976
13442TIP3   OH261740   3.346   2.105   1.700 -0.1779  0.2443 -0.2512
13442TIP3    H161741   3.411   2.102   1.630  0.7524 -0.0315  0.6098
13442TIP3    H261742   3.263   2.117   1.654  0.3016 -0.8075 -1.4658
13443TIP3   OH261743   6.577   2.356  12.927  0.0219  0.1476 -0.4446
13443TIP3    H161744   6.532   2.276  12.899  1.4055 -1.3044  1.1941
13443TIP3    H261745   6.638   2.375  12.856  2.1099 -2.3552  0.4775
13444TIP3   OH261746   5.944   2.027  12.820  0.5714 -0.1444 -0.2197
13444TIP3    H161747   5.933   1.950  12.876 -0.0691 -0.7552 -1.1405
13444TIP3    H261748   6.005   1.998  12.752 -1.9923 -0.9558 -2.3736
13445TIP3   OH261749   6.175   1.443   1.122  0.0885 -0.3858 -0.4272
13445TIP3    H161750   6.248   1.430   1.183  0.1776 -0.2752 -0.5086
13445TIP3    H261751   6.188   1.375   1.055 -0.4594 -1.0125  0.0990
13446TIP3   OH261752   5.278   4.889  12.193  0.3644  0.0215 -0.1597
13446TIP3    H161753   5.316   4.913  12.277  0.3105 -0.2980 -0.0438
13446TIP3    H261754   5.288   4.967  12.139 -1.1683  0.8487  0.6728
13447TIP3   OH261755   4.930   1.345   2.924  0.4713 -0.4473  0.3214
13447TIP3    H161756   4.951   1.270   2.979  1.8663 -0.3197 -0.0150
13447TIP3    H261757   4.877   1.308   2.852  2.7300 -1.4957 -0.8988
13448TIP3   OH261758   6.260   3.768  16.133  0.1033  0.9867  0.2455
13448TIP3    H161759   6.243   3.855  16.098 -0.9906  1.3825  1.6462
13448TIP3    H261760   6.268   3.781  16.228  2.7730 -0.0544  0.2540
13449TIP3   OH261761   6.395   1.759   2.905  0.2755 -0.1828  0.0467
13449TIP3    H161762   6.410   1.851   2.886 -0.2793 -0.2094 -0.5668
13449TIP3    H261763   6.438   1.712   2.833  0.7479 -0.4178  0.4728
13450TIP3   OH261764   3.555   6.430   5.199 -0.0073  0.1061 -0.5937
13450TIP3    H161765   3.523   6.467   5.116  1.1127  0.6272 -0.8061
13450TIP3    H261766   3.612   6.358   5.172 -1.4284 -1.2382 -0.1992
13451TIP3   OH261767   5.759   3.294  11.325 -0.2834 -0.0464  0.3366
13451TIP3    H161768   5.736   3.202  11.341 -0.3805 -0.3449 -1.3427
13451TIP3    H261769   5.675   3.337  11.309 -0.2044  0.2520  0.7095
13452TIP3   OH261770   2.371   4.776   1.770  0.5193 -0.3305  0.0290
13452TIP3    H161771   2.286   4.749   1.806 -1.4888  2.2425 -2.3912
13452TIP3    H261772   2.390   4.859   1.813  1.7717 -0.7711  0.3786
13453TIP3   OH261773   4.953   1.676   3.530 -0.3665 -0.5993  0.2528
13453TIP3    H161774   4.986   1.600   3.482 -0.2467 -0.8559  0.7322
13453TIP3    H261775   4.865   1.650   3.558 -0.6321 -0.2576 -0.2602
13454TIP3   OH261776   5.781   1.820  11.482  0.3705  0.6500 -0.1028
13454TIP3    H161777   5.700   1.812  11.430 -0.3756 -0.1459  1.1227
13454TIP3    H261778   5.763   1.770  11.561  1.2807  2.2828  1.1855
13455TIP3   OH261779   2.575   2.273  12.292 -0.5362 -0.7262 -0.5331
13455TIP3    H161780   2.482   2.265  12.312 -0.4219 -0.6332  0.0553
13455TIP3    H261781   2.587   2.219  12.214 -0.9604 -1.2711 -0.2373
13456TIP3   OH261782   0.139   3.426  12.966  0.0078  0.1929  0.5682
13456TIP3    H161783   0.078   3.377  13.021  1.1337 -0.8738  0.9282
13456TIP3    H261784   0.219   3.431  13.019  0.2760  1.4568  0.0758
13457TIP3   OH261785   5.184   5.918  14.401  0.4730  0.1819 -0.4084
13457TIP3    H161786   5.224   5.945  14.318  0.5629  0.0928 -0.3936
13457TIP3    H261787   5.258   5.888  14.455  0.2300 -1.6263 -1.0001
13458TIP3   OH261788   3.262   6.455  14.717  0.0155  0.3650  0.0628
13458TIP3    H161789   3.232   6.376  14.761  0.5779  1.3626  2.3989
13458TIP3    H261790   3.333   6.425  14.660 -0.2164 -0.9077  0.4037
13459TIP3   OH261791   4.849   3.709   2.515 -0.3839 -0.1621 -1.0275
13459TIP3    H161792   4.809   3.759   2.444 -1.3714  1.9509  0.9009
13459TIP3    H261793   4.927   3.760   2.539 -1.4366  0.5946  1.0170
13460TIP3   OH261794   0.333   6.321   1.456  0.1498 -0.0487 -0.2094
13460TIP3    H161795   0.328   6.234   1.416  0.3637 -0.0574 -0.2195
13460TIP3    H261796   0.340   6.381   1.382  0.2454 -0.0425 -0.1960
13461TIP3   OH261797   6.409   0.115  11.908 -0.0371  0.1054 -0.1424
13461TIP3    H161798   6.332   0.085  11.859  0.1733  1.0821 -1.1105
13461TIP3    H261799   6.388   0.204  11.935  0.7854  0.4283 -0.5252
13462TIP3   OH261800   2.198   6.256  11.678  0.1557  0.0054 -0.4818
13462TIP3    H161801   2.282   6.230  11.640  0.0219 -0.4825 -0.4499
13462TIP3    H261802   2.215   6.262  11.772 -0.0639 -1.0425 -0.3513
13463TIP3   OH261803   3.854   4.109  14.278 -0.1174  0.0544 -0.0120
13463TIP3    H161804   3.936   4.157  14.265 -1.3101  1.6265 -2.4326
13463TIP3    H261805   3.857   4.038  14.214  0.1943 -1.1415  1.2935
13464TIP3   OH261806   3.174   3.663   3.085  0.1925  0.2373 -0.1479
13464TIP3    H161807   3.116   3.592   3.057 -0.0192 -0.3817  1.7380
13464TIP3    H261808   3.262   3.626   3.079  0.1578  0.1461 -0.0976
13465TIP3   OH261809   2.523   3.104  16.685  0.6657 -0.3263 -0.0762
13465TIP3    H161810   2.564   3.018  16.671  1.7261 -0.0485  1.2013
13465TIP3    H261811   2.569   3.141  16.760  0.9132  1.8003 -1.1940
13466TIP3   OH261812   1.596   0.135   4.191 -0.1130  0.5623  0.0455
13466TIP3    H161813   1.521   0.189   4.169 -1.8367  0.1371  4.0463
13466TIP3    H261814   1.587   0.057   4.136 -2.0606  0.9656 -0.2735
13467TIP3   OH261815   6.602   2.763   5.233 -0.4042  0.6257 -0.2263
13467TIP3    H161816   6.689   2.740   5.201 -0.3143  0.6369  0.0126
13467TIP3    H261817   6.542   2.729   5.166 -0.2711 -0.2617  0.1019
13468TIP3   OH261818   1.814   2.282   1.452 -0.1243  0.2487 -0.0099
13468TIP3    H161819   1.784   2.359   1.499 -0.0196  1.3197 -1.6497
13468TIP3    H261820   1.739   2.223   1.451 -0.1252  0.1945  1.4750
13469TIP3   OH261821   3.138   6.679   3.289 -0.1241  0.1689 -0.2963
13469TIP3    H161822   3.172   6.718   3.369 -1.9698  1.0863  0.0957
13469TIP3    H261823   3.197   6.711   3.220 -0.1997  1.7731  0.3370
13470TIP3   OH261824   5.730   2.233   2.776 -0.5268 -0.3656 -0.9003
13470TIP3    H161825   5.805   2.229   2.717 -0.8170  0.4696 -1.3376
13470TIP3    H261826   5.714   2.327   2.789 -1.4258 -0.5307 -0.7287
13471TIP3   OH261827   4.211   2.585  11.160  0.5033 -0.3594 -0.3809
13471TIP3    H161828   4.267   2.663  11.152  2.1765 -1.5981 -1.4061
13471TIP3    H261829   4.172   2.575  11.073  0.8347 -1.0435 -0.4549
13472TIP3   OH261830   1.560   0.468  11.195 -0.0035  0.2237  0.1441
13472TIP3    H161831   1.560   0.428  11.282 -0.1133 -0.7580 -0.2982
13472TIP3    H261832   1.473   0.508  11.188 -0.4553 -0.7548  0.0198
13473TIP3   OH261833   3.850   0.516   0.015  0.1758 -0.1625  0.6593
13473TIP3    H161834   3.831   0.474  -0.069  0.3296 -0.8417  0.9568
13473TIP3    H261835   3.855   0.444   0.077  0.6625  0.2830  1.1487
13474TIP3   OH261836   0.693   3.997  17.269  0.1631  0.5109 -0.1649
13474TIP3    H161837   0.757   3.961  17.208 -1.1271 -1.3883 -0.5109
13474TIP3    H261838   0.634   4.048  17.214  0.7079  1.3002 -0.0250
13475TIP3   OH261839   0.123   1.828  11.296 -0.0442  0.3117  0.6913
13475TIP3    H161840   0.165   1.786  11.221  0.7056  2.4721 -0.1728
13475TIP3    H261841   0.030   1.809  11.285  0.1651 -0.2896 -0.1888
13476TIP3   OH261842   4.240   0.733  13.815  0.1535  0.2909 -1.0782
13476TIP3    H161843   4.203   0.819  13.834 -1.9114 -0.7131 -0.2868
13476TIP3    H261844   4.334   0.749  13.803  0.3264  2.2209  1.9689
13477TIP3   OH261845   6.021   4.022   0.953 -0.1098  0.3811  0.1365
13477TIP3    H161846   6.074   3.968   0.895  0.0296 -0.6166  1.1654
13477TIP3    H261847   6.006   4.103   0.903 -0.1363 -0.5002 -1.3406
13478TIP3   OH261848   0.588   0.714  17.262  0.4820 -0.5956  0.9008
13478TIP3    H161849   0.498   0.695  17.234  0.6171  0.2550 -0.1721
13478TIP3    H261850   0.586   0.807  17.286  1.2244 -0.3781  0.1778
13479TIP3   OH261851   1.507   2.624   0.444  0.5000 -1.4620 -0.2774
13479TIP3    H161852   1.449   2.551   0.468  0.4808 -1.5787 -0.6750
13479TIP3    H261853   1.541   2.600   0.358  0.3279 -0.8982 -0.5039
13480TIP3   OH261854   6.359   4.080   0.883  0.2260  0.3916  0.3961
13480TIP3    H161855   6.367   3.997   0.836 -2.9127  1.8892 -3.3084
13480TIP3    H261856   6.419   4.139   0.839  1.6123  0.5089  2.2949
13481TIP3   OH261857   4.455   3.757   6.029  0.5244  0.0261 -0.1786
13481TIP3    H161858   4.387   3.747   6.096 -0.8002  0.7094 -1.3649
13481TIP3    H261859   4.529   3.796   6.076 -0.5186  0.8721  0.8295
13482TIP3   OH261860   4.323   6.757  13.679  0.5849  0.5871  0.0110
13482TIP3    H161861   4.300   6.671  13.645  0.5468  1.4384 -2.2942
13482TIP3    H261862   4.291   6.757  13.769 -0.4925 -1.3644 -0.3297
13483TIP3   OH261863   3.981   0.770   2.707  0.2240  0.1291 -0.2394
13483TIP3    H161864   3.957   0.681   2.680 -0.9960  0.5659 -0.6270
13483TIP3    H261865   4.068   0.783   2.670 -0.1876 -0.3791 -1.4250
13484TIP3   OH261866   4.370   1.655  15.672  0.2032 -0.1350  0.0997
13484TIP3    H161867   4.463   1.673  15.663  0.0783  0.9758  0.8951
13484TIP3    H261868   4.352   1.666  15.766 -0.7572 -0.2174 -0.0638
13485TIP3   OH261869   1.482   1.660   4.729 -0.0643 -0.4490 -0.0980
13485TIP3    H161870   1.485   1.737   4.785 -0.1302  0.5514 -1.4189
13485TIP3    H261871   1.402   1.614   4.755 -2.5385  2.2846 -2.2024
13486TIP3   OH261872   4.905   6.650  14.552 -0.2629 -0.1929 -0.6926
13486TIP3    H161873   4.917   6.651  14.647 -0.1377 -1.8288 -0.6696
13486TIP3    H261874   4.993   6.664  14.517 -0.2737  0.1818 -0.5796
13487TIP3   OH261875   3.082   5.704   0.193  0.2676  0.0220 -0.5557
13487TIP3    H161876   3.090   5.787   0.238 -1.0507  0.5661 -1.2724
13487TIP3    H261877   2.990   5.679   0.204  0.1512 -0.3087 -2.0793
13488TIP3   OH261878   0.419   1.426  16.381  0.1876 -0.2630  0.0416
13488TIP3    H161879   0.416   1.355  16.317 -0.9828 -1.7109  1.6269
13488TIP3    H261880   0.338   1.418  16.430  1.2458  0.4610  2.0296
13489TIP3   OH261881   0.775   3.968  13.961  0.0259  0.2731  0.2888
13489TIP3    H161882   0.692   3.956  14.006  0.0646  1.6124  0.7622
13489TIP3    H261883   0.818   3.882  13.966 -0.0059  0.3355  2.7676
13490TIP3   OH261884   3.550   0.109   1.786  0.2369  0.0778 -0.6378
13490TIP3    H161885   3.513   0.064   1.862  0.6337  1.4419  0.3868
13490TIP3    H261886   3.645   0.106   1.800  0.3336  0.0247 -1.2712
13491TIP3   OH261887   0.867   3.276  13.335  0.3636  0.0440  0.5602
13491TIP3    H161888   0.946   3.254  13.285  0.3060 -0.7805  0.8218
13491TIP3    H261889   0.828   3.192  13.357 -0.4532  0.4393  0.6651
13492TIP3   OH261890   3.785   3.211   1.871 -0.4700 -0.4927  0.2540
13492TIP3    H161891   3.867   3.244   1.909  0.3265 -1.4184 -0.5905
13492TIP3    H261892   3.807   3.122   1.842 -1.6029 -0.5214 -0.5563
13493TIP3   OH261893   6.678   5.264  13.017  0.3523 -0.2610 -0.2121
13493TIP3    H161894   6.728   5.200  12.968 -0.7213  0.6244 -2.6156
13493TIP3    H261895   6.658   5.221  13.100 -1.5516 -3.6159 -2.2380
13494TIP3   OH261896   5.579   3.511   5.001  0.0990  0.0296 -0.3541
13494TIP3    H161897   5.547   3.434   4.956 -0.2514 -0.7112  1.1037
13494TIP3    H261898   5.656   3.539   4.951  0.1065 -1.1407 -1.0053
13495TIP3   OH261899   4.793   5.055   1.903 -0.2620 -0.0427  0.6516
13495TIP3    H161900   4.832   5.059   1.991 -0.2620 -2.2584  0.8008
13495TIP3    H261901   4.855   5.103   1.848  3.3430 -3.9605  0.7231
13496TIP3   OH261902   4.895   2.078  16.004  0.3100  0.2295  0.3870
13496TIP3    H161903   4.915   2.060  16.096  0.9344 -0.3860  0.1404
13496TIP3    H261904   4.980   2.087  15.963  0.0319  1.5147  0.0452
13497TIP3   OH261905   6.271   6.505  13.451  0.4688 -0.2248  0.3438
13497TIP3    H161906   6.269   6.571  13.520 -0.4955 -0.7612  0.8590
13497TIP3    H261907   6.179   6.486  13.434  0.6944 -0.2870 -0.9277
13498TIP3   OH261908   4.908   3.002   2.210  0.0934  0.2337 -0.1105
13498TIP3    H161909   4.821   3.041   2.201 -0.2106 -0.0317  1.3381
13498TIP3    H261910   4.934   3.022   2.300 -0.0065 -2.6684  0.6760
13499TIP3   OH261911   5.082   2.993  11.731  0.3525  0.5046 -0.2389
13499TIP3    H161912   5.009   3.048  11.759  0.7335  0.8474  0.0909
13499TIP3    H261913   5.075   2.915  11.785  0.2449  0.5469 -0.1909
13500TIP3   OH261914   0.096   6.617   5.468  0.1215  0.0603 -0.8938
13500TIP3    H161915   0.121   6.709   5.477 -0.0237  0.0318 -0.0305
13500TIP3    H261916   0.121   6.578   5.552 -2.2860 -0.0798 -0.1634
13501TIP3   OH261917   6.702   4.820  13.051  0.2926 -0.1925  0.0476
13501TIP3    H161918   6.632   4.875  13.017 -0.9242 -0.6407  1.6912
13501TIP3    H261919   6.758   4.880  13.101  1.2347  0.1952 -1.4025
13502TIP3   OH261920   0.526   2.142  12.269  0.0018  0.0894  0.4261
13502TIP3    H161921   0.621   2.133  12.260 -0.1603 -1.5038 -0.0272
13502TIP3    H261922   0.500   2.068  12.324 -0.9268  0.7553  0.8945
13503TIP3   OH261923   0.329   0.223   4.667  0.3038 -0.2041 -0.4074
13503TIP3    H161924   0.373   0.306   4.683 -0.8075  0.5523 -1.1166
13503TIP3    H261925   0.295   0.197   4.753 -1.2615  1.2313 -0.5519
13504TIP3   OH261926   6.099   5.554  12.935 -0.0751  0.2503 -0.0269
13504TIP3    H161927   6.134   5.565  12.847  2.9959 -0.8756  0.9322
13504TIP3    H261928   6.075   5.462  12.940  0.1048  0.2244  0.4120
13505TIP3   OH261929   4.305   5.720   2.852  0.3752 -0.8956  0.4010
13505TIP3    H161930   4.259   5.724   2.935 -0.8983 -0.2168 -0.3004
13505TIP3    H261931   4.237   5.700   2.787  1.0878 -0.0832 -0.6394
13506TIP3   OH261932   5.567   5.313   2.910 -0.0154  0.0148 -0.0664
13506TIP3    H161933   5.502   5.253   2.873  0.4877 -0.1905 -0.6361
13506TIP3    H261934   5.598   5.269   2.989 -0.9151  0.3403  0.4826
13507TIP3   OH261935   0.135   3.225   0.615 -0.3248 -0.2546 -0.1343
13507TIP3    H161936   0.127   3.139   0.574 -0.7331 -0.9961  1.4177
13507TIP3    H261937   0.196   3.273   0.559 -0.5062 -1.3494 -1.3287
13508TIP3   OH261938   3.507   0.510   4.743 -0.1495  0.4497 -0.2159
13508TIP3    H161939   3.513   0.563   4.663  1.8408 -0.7195 -0.8895
13508TIP3    H261940   3.572   0.549   4.802  1.0283 -0.9199 -0.5654
13509TIP3   OH261941   5.378   5.669   3.035 -0.2057  0.1277 -0.0496
13509TIP3    H161942   5.320   5.730   3.080  1.4141  2.1893 -0.6139
13509TIP3    H261943   5.358   5.681   2.942  0.2057 -0.1410 -0.1765
13510TIP3   OH261944   5.377   3.546   0.396 -0.4862  0.5489  0.5233
13510TIP3    H161945   5.313   3.528   0.327 -0.7050 -1.4135  1.1614
13510TIP3    H261946   5.453   3.581   0.350 -0.9100 -0.0060 -0.6380
13511TIP3   OH261947   5.859   0.121  13.411  0.0509 -0.2445 -0.2090
13511TIP3    H161948   5.836   0.092  13.323 -0.1161 -1.5048  0.2359
13511TIP3    H261949   5.954   0.134  13.408  0.0177 -0.0873 -0.6218
13512TIP3   OH261950   3.157   0.653   3.857  0.6414  0.7057  0.1507
13512TIP3    H161951   3.148   0.562   3.828 -0.4651  0.3667  1.4280
13512TIP3    H261952   3.215   0.648   3.933 -1.3136  0.6578  1.7377
13513TIP3   OH261953   2.696   5.213   5.557 -0.2285  0.0058 -0.8663
13513TIP3    H161954   2.712   5.158   5.633 -0.0296  0.5440 -0.5113
13513TIP3    H261955   2.602   5.227   5.556 -0.3566 -0.8884 -1.3442
13514TIP3   OH261956   2.981   3.527   5.174 -0.3866 -0.4648  0.4664
13514TIP3    H161957   3.004   3.543   5.266 -0.1712  1.6135  0.1124
13514TIP3    H261958   2.918   3.596   5.153 -0.5378 -0.9880 -0.9234
13515TIP3   OH261959   4.646   6.410  12.423  0.8898 -0.3064 -0.3893
13515TIP3    H161960   4.674   6.348  12.491 -0.1315  3.3497  3.8933
13515TIP3    H261961   4.559   6.380  12.397  1.1092 -1.5695  0.2725
13516TIP3   OH261962   1.979   2.511   2.285  0.0530 -0.1676 -0.0618
13516TIP3    H161963   1.995   2.605   2.277 -1.6814  0.3134  1.4430
13516TIP3    H261964   1.961   2.498   2.378  1.1544 -2.1678 -0.0859
13517TIP3   OH261965   6.112   2.601   0.593  0.0549  1.0255 -0.3437
13517TIP3    H161966   6.047   2.637   0.653 -0.6795 -1.7115  0.7003
13517TIP3    H261967   6.166   2.545   0.649  1.3965  0.8877 -1.7268
13518TIP3   OH261968   0.095   5.809   3.846 -0.3212 -0.0682  0.3739
13518TIP3    H161969   0.025   5.874   3.856  0.0654  0.7723 -1.8177
13518TIP3    H261970   0.175   5.858   3.867 -0.0736  0.0597 -0.8208
13519TIP3   OH261971   4.719   3.901   2.832 -0.1087  0.3199  0.1741
13519TIP3    H161972   4.680   3.983   2.862  0.2155 -0.6212  3.6421
13519TIP3    H261973   4.813   3.916   2.837 -0.0366 -0.4669  1.6768
13520TIP3   OH261974   3.155   6.150   1.897 -0.0135 -0.2658 -0.9375
13520TIP3    H161975   3.097   6.074   1.899 -2.0451  1.1539 -1.9382
13520TIP3    H261976   3.147   6.183   1.807 -0.5806  2.1057 -0.0831
13521TIP3   OH261977   5.068   2.460   0.249 -0.1517 -0.4635 -0.7966
13521TIP3    H161978   5.012   2.384   0.239 -2.2993  1.2267 -2.6610
13521TIP3    H261979   5.030   2.508   0.323  1.8092 -1.5578  1.0652
13522TIP3   OH261980   0.099   2.179  17.256 -0.6974 -0.6777  0.2250
13522TIP3    H161981   0.159   2.153  17.326  1.5315 -0.0702 -1.3378
13522TIP3    H261982   0.033   2.233  17.300  0.6663 -0.2347  1.8683
13523TIP3   OH261983   6.519   1.199  14.538  0.0596  0.1300 -0.0254
13523TIP3    H161984   6.451   1.250  14.495 -0.0007  1.2403  1.2879
13523TIP3    H261985   6.496   1.204  14.631  0.6679 -1.4156  0.2279
13524TIP3   OH261986   0.690   6.465   5.453 -0.6817 -0.4290  0.4824
13524TIP3    H161987   0.707   6.412   5.376  0.0066  0.1788  0.2011
13524TIP3    H261988   0.609   6.512   5.433  0.5606  1.2895 -0.7607
13525TIP3   OH261989   3.754   1.543   2.589 -0.3725 -0.0721 -0.0686
13525TIP3    H161990   3.849   1.542   2.580 -0.2121 -0.1988  1.3540
13525TIP3    H261991   3.733   1.458   2.629 -0.7900  0.8738  1.8704
13526TIP3   OH261992   6.543   6.753  11.149  0.2300  0.1265 -0.6219
13526TIP3    H161993   6.619   6.695  11.159 -1.8868 -2.4782  1.7935
13526TIP3    H261994   6.532   6.793  11.235 -1.3374  0.1133 -0.7909
13527TIP3   OH261995   0.921   1.434  12.505  0.8024  0.3164  0.3500
13527TIP3    H161996   0.977   1.412  12.430 -0.4134  0.1213 -0.5292
13527TIP3    H261997   0.923   1.356  12.560  1.0694  0.1620  0.1221
13528TIP3   OH261998   3.670   4.836  16.065  0.5145 -0.3023 -0.1857
13528TIP3    H161999   3.748   4.874  16.106  0.2274  0.3727 -0.2483
13528TIP3    H262000   3.599   4.854  16.126  0.2745 -0.2463 -0.4769
13529TIP3   OH262001   5.082   3.186  14.898 -0.0288 -0.1383 -0.0141
13529TIP3    H162002   5.126   3.155  14.819 -0.2939 -0.0504 -0.1966
13529TIP3    H262003   5.153   3.218  14.954  0.0715  0.8028 -0.6568
13530TIP3   OH262004   2.851   2.468  13.238 -0.3549  0.3282  0.4359
13530TIP3    H162005   2.840   2.373  13.232 -0.0114  0.3267 -0.2665
13530TIP3    H262006   2.846   2.498  13.147  0.2925  0.8927  0.5847
13531TIP3   OH262007   6.142   1.561   6.255 -0.2643  0.2235  0.1758
13531TIP3    H162008   6.152   1.478   6.208 -2.4822 -1.4577  2.4175
13531TIP3    H262009   6.186   1.626   6.199  3.1179 -2.6476 -0.8661
13532TIP3   OH262010   5.473   1.378  12.266  0.1162 -0.6206  0.6189
13532TIP3    H162011   5.539   1.369  12.198  0.8433 -0.2403  1.2541
13532TIP3    H262012   5.495   1.311  12.331 -1.6636 -2.2327 -0.3451
13533TIP3   OH262013   6.268   1.622  13.623 -0.2270 -0.0039 -0.1260
13533TIP3    H162014   6.265   1.527  13.611 -0.2153  0.1145 -1.1590
13533TIP3    H262015   6.216   1.638  13.702 -2.6673 -0.6341 -1.4802
13534TIP3   OH262016   2.483   2.506   5.263 -0.2313  0.3887 -0.4504
13534TIP3    H162017   2.434   2.447   5.205 -1.2795 -0.3972  1.1577
13534TIP3    H262018   2.557   2.453   5.292 -0.8030  0.0710  0.4646
13535TIP3   OH262019   5.809   6.080  15.878 -0.2610  0.5316 -0.1609
13535TIP3    H162020   5.820   6.030  15.798 -0.2820  0.4815 -0.1315
13535TIP3    H262021   5.716   6.076  15.898 -0.2933  0.7401 -0.2626
13536TIP3   OH262022   1.794   2.337   4.914  1.1875  0.5556  0.0305
13536TIP3    H162023   1.880   2.365   4.883  1.4460  0.4094  0.6131
13536TIP3    H262024   1.755   2.417   4.950  0.7750  0.7894 -0.8919
13537TIP3   OH262025   1.321   0.744   3.833 -0.5230  0.0530 -0.2305
13537TIP3    H162026   1.311   0.835   3.806 -0.7854  0.6537  1.7130
13537TIP3    H262027   1.392   0.745   3.898  0.1744 -1.3146 -0.9143
13538TIP3   OH262028   1.015   3.639   5.023  0.4208 -0.5834 -0.6630
13538TIP3    H162029   0.947   3.620   4.957 -0.1842 -1.5956  0.2182
13538TIP3    H262030   0.966   3.657   5.103  1.1189  1.5516 -0.6647
13539TIP3   OH262031   3.738   0.932   2.750  0.1671  0.5489 -0.2106
13539TIP3    H162032   3.809   0.870   2.733  0.4826  1.0319 -0.6725
13539TIP3    H262033   3.723   0.975   2.666 -2.0596 -0.9538 -0.6864
13540TIP3   OH262034   0.770   3.682   3.949  0.3217  0.1102 -0.3661
13540TIP3    H162035   0.855   3.705   3.911  0.0492  0.6517 -0.6543
13540TIP3    H262036   0.710   3.748   3.916 -0.5693 -1.2081 -1.4956
13541TIP3   OH262037   5.812   6.540   6.292  0.2420 -0.3133 -0.0076
13541TIP3    H162038   5.854   6.623   6.314 -0.1176  0.4525 -2.0135
13541TIP3    H262039   5.875   6.473   6.320  0.8783  0.6522  0.9275
13542TIP3   OH262040   6.271   5.429   3.623 -0.0140 -0.5795  0.2621
13542TIP3    H162041   6.288   5.346   3.578 -0.0804 -0.4430 -0.0159
13542TIP3    H262042   6.340   5.487   3.590 -0.3728 -0.3326 -0.0516
13543TIP3   OH262043   2.420   1.897   5.709  0.5686 -0.1797  0.5339
13543TIP3    H162044   2.409   1.838   5.784 -0.8368  0.1708  0.6320
13543TIP3    H262045   2.499   1.865   5.665 -1.5047 -3.8850 -0.9734
13544TIP3   OH262046   4.989   6.364   1.494  0.0956  0.0317 -0.1731
13544TIP3    H162047   4.994   6.270   1.512  0.4913  0.2042  0.6291
13544TIP3    H262048   4.921   6.371   1.427 -1.7196 -0.6004  1.5190
13545TIP3   OH262049   0.029   6.380  17.292  0.0713  0.1950 -0.0976
13545TIP3    H162050  -0.028   6.444  17.250 -1.0259  0.5234  1.7348
13545TIP3    H262051  -0.029   6.308  17.316  1.5651 -2.5516 -3.7906
13546TIP3   OH262052   0.706   5.502  15.636  0.3123  1.0712 -0.1789
13546TIP3    H162053   0.724   5.563  15.564  0.5571  0.7841 -0.3589
13546TIP3    H262054   0.644   5.550  15.692 -2.6128  0.0859 -2.2947
13547TIP3   OH262055   1.760   2.891   1.874 -0.2094 -0.6862 -0.3990
13547TIP3    H162056   1.856   2.888   1.869 -0.1777  0.1750 -0.5446
13547TIP3    H262057   1.742   2.963   1.935 -0.7752 -0.1618 -1.1782
13548TIP3   OH262058   4.789   2.694  14.507  0.2633  0.1252  0.0466
13548TIP3    H162059   4.864   2.649  14.467  0.4195  0.0737  0.4007
13548TIP3    H262060   4.768   2.763  14.444 -0.1426 -0.5909 -0.6310
13549TIP3   OH262061   1.404   1.386  17.308  0.2014  0.0306  0.5469
13549TIP3    H162062   1.375   1.358  17.394 -0.0095 -2.4329 -0.2684
13549TIP3    H262063   1.345   1.458  17.285 -1.1600 -0.7244  1.5482
13550TIP3   OH262064   6.741   4.253  14.671 -0.2605  0.1273 -0.0065
13550TIP3    H162065   6.742   4.158  14.677 -0.4447 -0.0605 -2.1918
13550TIP3    H262066   6.813   4.282  14.728 -0.3980 -1.2883  0.9121
13551TIP3   OH262067   2.286   1.203   4.044  0.6262 -0.0405 -0.4438
13551TIP3    H162068   2.245   1.135   4.097  1.2759  0.5573  0.8596
13551TIP3    H262069   2.357   1.158   3.998  1.0321 -0.2658  0.3841
13552TIP3   OH262070   6.591   6.590   5.497  0.0297  0.0766  0.1412
13552TIP3    H162071   6.564   6.557   5.412 -0.4148 -1.5906  0.8962
13552TIP3    H262072   6.686   6.601   5.490  0.2768 -1.8627 -0.0114
13553TIP3   OH262073   5.359   6.266   2.909 -0.5577 -0.6179  0.2271
13553TIP3    H162074   5.391   6.271   2.999 -0.7053 -1.4674  0.3348
13553TIP3    H262075   5.292   6.333   2.903  1.2364  1.2408 -0.0088
13554TIP3   OH262076   3.625   6.445  11.581  0.1565 -0.0930  0.3948
13554TIP3    H162077   3.614   6.457  11.486 -0.7036  0.0869  0.5108
13554TIP3    H262078   3.692   6.377  11.588  2.4486  1.9428 -0.3097
13555TIP3   OH262079   6.688   1.129   5.938 -0.1623  0.6874  0.1376
13555TIP3    H162080   6.597   1.146   5.963  0.6140  0.4012  3.7607
13555TIP3    H262081   6.735   1.127   6.021  2.9163 -0.7911 -1.4877
13556TIP3   OH262082   2.525   6.579   5.408  0.0560 -0.2341  0.1893
13556TIP3    H162083   2.555   6.664   5.375 -2.9022  0.1875 -1.8072
13556TIP3    H262084   2.503   6.595   5.500  0.3935  0.9071  0.0855
13557TIP3   OH262085   4.616   3.872   0.467  0.0179 -0.2772  0.0791
13557TIP3    H162086   4.602   3.887   0.373  0.9453 -1.7859 -0.3222
13557TIP3    H262087   4.685   3.806   0.471 -0.7451 -1.0207  1.8062
13558TIP3   OH262088   4.843   0.870   1.793 -0.1320 -0.4846 -0.7243
13558TIP3    H162089   4.763   0.890   1.842  0.1745  1.0560 -0.8189
13558TIP3    H262090   4.874   0.954   1.761  2.0103 -0.9298  0.0310
13559TIP3   OH262091   0.645   1.843   3.541 -0.3719  0.7530 -0.0072
13559TIP3    H162092   0.689   1.770   3.498 -1.4225  0.4791 -0.6348
13559TIP3    H262093   0.583   1.802   3.601  1.2547  1.1191  2.0512
13560TIP3   OH262094   0.043   4.795  15.038 -0.1815 -0.5228  0.1258
13560TIP3    H162095   0.030   4.830  15.126 -0.5143  0.6911 -0.3902
13560TIP3    H262096  -0.038   4.749  15.018  0.8195 -3.0007  1.3982
13561TIP3   OH262097   5.971   1.793   3.907  0.8045 -0.0272  0.2405
13561TIP3    H162098   5.992   1.782   3.814 -0.2500 -0.3239  0.0208
13561TIP3    H262099   6.033   1.736   3.952 -0.1514 -1.6795 -0.4470
13562TIP3   OH262100   0.720   3.675  15.504  0.5354 -0.1856  0.1921
13562TIP3    H162101   0.761   3.747  15.552  1.9371 -1.4453  0.9893
13562TIP3    H262102   0.654   3.640  15.564  2.7038 -2.1571  1.6469
13563TIP3   OH262103   1.247   1.878  13.929 -0.6407 -0.0206  0.3664
13563TIP3    H162104   1.216   1.889  14.019  0.7439  1.6500  0.6949
13563TIP3    H262105   1.323   1.935  13.923  1.4865 -2.7504 -0.8467
13564TIP3   OH262106   5.391   1.408  15.431  0.0511  0.6885 -0.4853
13564TIP3    H162107   5.325   1.397  15.362  0.8772  0.9174 -1.3378
13564TIP3    H262108   5.414   1.318  15.457  1.3943  0.4905 -2.1650
13565TIP3   OH262109   5.968   5.618  17.369  0.7437 -0.3443  0.4994
13565TIP3    H162110   5.973   5.632  17.464 -1.9465 -1.1653  0.8569
13565TIP3    H262111   5.933   5.529  17.360 -1.2693  0.5346 -1.1620
13566TIP3   OH262112   2.599   1.409  14.534 -0.0273  0.3059 -0.5949
13566TIP3    H162113   2.662   1.381  14.600  0.0252  1.1182 -0.2843
13566TIP3    H262114   2.647   1.470  14.479  0.9595 -2.7850 -3.5037
13567TIP3   OH262115   6.511   3.653  16.078 -0.1023 -0.2720  0.3601
13567TIP3    H162116   6.573   3.719  16.110 -0.1697 -0.6938  1.4034
13567TIP3    H262117   6.425   3.694  16.088 -0.0611 -0.0681 -0.1244
13568TIP3   OH262118   3.106   2.680   4.727  0.2392 -0.2252  0.2140
13568TIP3    H162119   3.103   2.640   4.814  1.0407  1.7799  1.2325
13568TIP3    H262120   3.192   2.656   4.693  0.1753 -0.4803  0.2253
13569TIP3   OH262121   2.126   0.813  11.411  0.3269  0.3163  1.2307
13569TIP3    H162122   2.093   0.829  11.323 -1.5153  1.3085  2.0382
13569TIP3    H262123   2.137   0.901  11.448  2.0736 -0.0557  1.6717
13570TIP3   OH262124   4.102   6.759   0.818 -0.2950  0.1014 -0.2886
13570TIP3    H162125   4.192   6.743   0.846 -0.4492  0.7204  0.5926
13570TIP3    H262126   4.093   6.854   0.818 -1.0526  0.0390 -0.0018
13571TIP3   OH262127   0.520   4.976  14.879  0.1421  0.5257 -0.4980
13571TIP3    H162128   0.436   4.932  14.873  0.0398  0.5303  0.5663
13571TIP3    H262129   0.580   4.909  14.913  0.8700  0.1774 -2.3753
13572TIP3   OH262130   4.901   0.236   5.930 -0.3721  0.1391 -0.2807
13572TIP3    H162131   4.822   0.286   5.951  1.3140  2.6998  0.4862
13572TIP3    H262132   4.908   0.242   5.835  0.2594  2.2512 -0.1470
13573TIP3   OH262133   1.111   4.975  15.645  0.4300 -0.3074 -0.3142
13573TIP3    H162134   1.092   4.937  15.560  0.1500 -1.4232  0.2269
13573TIP3    H262135   1.206   4.983  15.648  0.5967 -2.0889 -0.0001
13574TIP3   OH262136   3.264   5.007   4.571 -0.6259  0.5329 -0.6551
13574TIP3    H162137   3.211   4.930   4.551 -1.1245  0.7120 -0.0350
13574TIP3    H262138   3.245   5.068   4.499 -2.9702  1.4529  0.6354
13575TIP3   OH262139   5.739   1.325   0.409 -0.0257  0.2670  0.6767
13575TIP3    H162140   5.776   1.388   0.347 -0.3744 -1.1319 -1.0305
13575TIP3    H262141   5.675   1.375   0.460 -2.7150  0.7428 -2.8238
13576TIP3   OH262142   2.324   4.150  16.895 -0.3983  0.2479 -0.2601
13576TIP3    H162143   2.242   4.174  16.853 -1.2241 -1.5298  0.2119
13576TIP3    H262144   2.365   4.089  16.834  0.5000  0.9742 -0.4016
13577TIP3   OH262145   0.644   4.154  15.919  0.4628 -0.5827 -0.1113
13577TIP3    H162146   0.584   4.228  15.916  0.1909 -0.7989 -0.0957
13577TIP3    H262147   0.689   4.162  16.003 -0.8740 -1.4421  0.7364
13578TIP3   OH262148   5.733   4.159   5.812  0.4906 -0.3159 -0.6218
13578TIP3    H162149   5.817   4.145   5.857 -0.5050  0.0414  1.4841
13578TIP3    H262150   5.756   4.209   5.734  2.3432 -1.1077 -0.6426
13579TIP3   OH262151   2.569   1.920  11.617 -0.2457  0.1548 -0.1598
13579TIP3    H162152   2.626   1.850  11.648  0.1545 -0.4870 -2.2133
13579TIP3    H262153   2.615   1.958  11.542 -1.9516  0.3816 -1.1538
13580TIP3   OH262154   3.637   4.621  11.272  0.0700  0.0659 -0.3564
13580TIP3    H162155   3.620   4.653  11.184  0.6355 -0.8255 -0.8043
13580TIP3    H262156   3.698   4.549  11.260 -1.8743 -1.8485  0.4716
13581TIP3   OH262157   2.335   2.053  13.838  0.4194 -0.3643  0.1380
13581TIP3    H162158   2.395   2.039  13.911 -1.2924 -1.0015  1.4979
13581TIP3    H262159   2.248   2.058  13.879 -0.4473  0.8539 -1.7106
13582TIP3   OH262160   2.052   0.798  12.310  0.4499 -0.1033  0.3004
13582TIP3    H162161   2.097   0.739  12.370  0.8559  0.8730  0.9840
13582TIP3    H262162   2.046   0.881  12.358 -0.5562  0.2684 -0.4412
13583TIP3   OH262163   6.702   4.811   1.207 -0.0817 -0.4135  0.0907
13583TIP3    H162164   6.792   4.843   1.215 -0.3249  0.9249 -1.8783
13583TIP3    H262165   6.661   4.836   1.290  1.1491 -0.3541  0.7094
13584TIP3   OH262166   6.505   5.812   3.159 -0.3404 -0.2893  0.1448
13584TIP3    H162167   6.545   5.862   3.230 -0.9227 -0.4120  0.5695
13584TIP3    H262168   6.550   5.843   3.080  1.4100 -1.2532  0.7018
13585TIP3   OH262169   6.574   0.762   2.043 -0.0420  0.5557 -0.3133
13585TIP3    H162170   6.584   0.817   1.966  1.8154 -0.3646 -0.7716
13585TIP3    H262171   6.569   0.673   2.009 -0.1314  0.2056  0.5840
13586TIP3   OH262172   5.675   5.181   1.564 -0.0937 -0.0151 -0.9174
13586TIP3    H162173   5.662   5.265   1.521  3.2104  1.0224 -0.1515
13586TIP3    H262174   5.594   5.167   1.614 -0.6173  2.8966 -0.7710
13587TIP3   OH262175   3.647   5.132  17.115  0.7625  0.1746 -0.0766
13587TIP3    H162176   3.656   5.220  17.078 -0.1569  0.4050  0.2029
13587TIP3    H262177   3.555   5.110  17.101  0.9295 -0.6389  0.0879
13588TIP3   OH262178   1.248   2.628  15.406 -0.1211  0.0661 -0.6455
13588TIP3    H162179   1.297   2.703  15.373  0.2850  0.6643  1.2207
13588TIP3    H262180   1.184   2.609  15.337 -0.4623  2.3432 -1.0397
13589TIP3   OH262181   4.313   1.798  15.127 -0.2026 -0.5596 -0.4804
13589TIP3    H162182   4.308   1.725  15.189 -2.7589 -0.5414 -0.5465
13589TIP3    H262183   4.248   1.861  15.159 -0.3441  0.2394 -2.2136
13590TIP3   OH262184   3.438   0.620   2.775 -0.1412 -0.1706 -0.5144
13590TIP3    H162185   3.402   0.540   2.735 -3.1516  1.8626 -2.2575
13590TIP3    H262186   3.532   0.614   2.759 -0.1187 -3.6073  0.0421
13591TIP3   OH262187   6.739   4.501   1.671 -0.4753  0.2694 -0.5068
13591TIP3    H162188   6.721   4.431   1.608  2.3032 -0.6193 -0.4236
13591TIP3    H262189   6.780   4.570   1.619  2.3776 -0.6998  0.2450
13592TIP3   OH262190   3.913   0.306  11.901  0.4502  0.3482 -0.3484
13592TIP3    H162191   3.881   0.324  11.812 -0.2504  1.5075  0.1240
13592TIP3    H262192   3.846   0.250  11.940  0.9391 -0.4721 -0.6569
13593TIP3   OH262193   3.039   0.683  13.706 -0.0738  0.5547  0.3588
13593TIP3    H162194   3.029   0.639  13.622 -1.0381  0.3134  0.5893
13593TIP3    H262195   3.127   0.720  13.704  0.2747 -0.3030 -0.3460
13594TIP3   OH262196   4.854   6.281   1.241  0.1467 -0.4442  0.0238
13594TIP3    H162197   4.787   6.310   1.179 -1.8461 -0.0711  2.1990
13594TIP3    H262198   4.828   6.191   1.263  0.9115 -0.6211  0.2333
13595TIP3   OH262199   5.418   6.141  16.775  0.2282  0.1390 -0.2277
13595TIP3    H162200   5.325   6.126  16.792  0.8788 -1.4775  2.3409
13595TIP3    H262201   5.443   6.210  16.836  1.2536 -1.3999  1.1939
13596TIP3   OH262202   2.620   4.703  15.051 -0.2295  0.0210  0.1813
13596TIP3    H162203   2.558   4.659  15.108  1.0670 -0.7491  1.0497
13596TIP3    H262204   2.687   4.637  15.032  0.0484  0.6416 -1.1973
13597TIP3   OH262205   0.008   1.915   0.321 -0.3527  0.0337  0.5459
13597TIP3    H162206   0.056   1.874   0.249 -2.8227 -3.7444  0.8100
13597TIP3    H262207  -0.057   1.971   0.279  0.7239  0.9894  0.0735
13598TIP3   OH262208   2.304   3.940   6.555 -0.5916  0.8069 -0.1680
13598TIP3    H162209   2.269   4.019   6.515 -0.7543  1.5894  1.4493
13598TIP3    H262210   2.393   3.964   6.583 -0.0260 -0.0950 -1.1248
13599TIP3   OH262211   1.222   0.733   2.693 -0.1413 -0.0879 -0.2775
13599TIP3    H162212   1.138   0.717   2.735  0.1356  2.2865  1.3883
13599TIP3    H262213   1.199   0.758   2.603 -1.1050 -0.6240 -0.1947
13600TIP3   OH262214   5.571   1.126   6.147 -0.1487  0.7987  0.7738
13600TIP3    H162215   5.579   1.220   6.134 -0.7724  0.7867  0.1814
13600TIP3    H262216   5.638   1.088   6.090  1.6176  0.9214  2.6715
13601TIP3   OH262217   2.424   1.369  11.226 -0.5709 -0.6594 -0.6350
13601TIP3    H162218   2.345   1.423  11.218 -0.2664 -0.3191 -1.4690
13601TIP3    H262219   2.496   1.429  11.210 -0.0767 -0.7933  0.9423
13602TIP3   OH262220   2.102   4.335  12.457  0.0923  0.0558 -0.7790
13602TIP3    H162221   2.039   4.332  12.385  2.0789 -2.1763 -2.5641
13602TIP3    H262222   2.065   4.279  12.525 -0.6290  0.1936 -1.0499
13603TIP3   OH262223   4.861   0.633  14.806  0.2741  0.2499  0.2825
13603TIP3    H162224   4.879   0.628  14.712 -0.2949 -1.4748  0.2401
13603TIP3    H262225   4.778   0.680  14.812  1.0829  1.7731  0.0498
13604TIP3   OH262226   5.953   0.269   0.363  0.9190  0.4977 -0.0800
13604TIP3    H162227   5.867   0.276   0.322  0.0499 -0.2347  1.5168
13604TIP3    H262228   5.950   0.186   0.411  0.6168  2.6740  4.1129
13605TIP3   OH262229   4.061   4.371  13.694 -0.7225  0.1394  0.4126
13605TIP3    H162230   4.034   4.280  13.688  0.3553 -0.1077 -1.7032
13605TIP3    H262231   4.122   4.374  13.767 -1.9328 -0.4823  1.4879
13606TIP3   OH262232   1.524   1.623  12.630  0.3482 -0.1812  0.8063
13606TIP3    H162233   1.551   1.714  12.635 -0.5840  0.1005  0.7439
13606TIP3    H262234   1.440   1.625  12.585 -1.1360 -0.7843  3.3726
13607TIP3   OH262235   0.806   4.861   4.107 -0.6330  0.4581 -0.2815
13607TIP3    H162236   0.719   4.898   4.119  0.0553  2.5143 -1.1807
13607TIP3    H262237   0.855   4.888   4.185 -0.9593 -1.3824  0.6214
13608TIP3   OH262238   3.234   0.573   1.742 -0.1485  0.2962 -0.3800
13608TIP3    H162239   3.288   0.642   1.704 -2.0804  1.1751 -1.6258
13608TIP3    H262240   3.288   0.538   1.814  0.9014  3.0692  0.3115
13609TIP3   OH262241   6.076   4.801  13.328 -0.5013  0.0765  0.2513
13609TIP3    H162242   6.096   4.721  13.376  0.9349 -0.2872 -0.8736
13609TIP3    H262243   6.158   4.850  13.328 -0.8777  0.7334 -0.5724
13610TIP3   OH262244   1.177   5.833   2.157 -0.3048  0.2008  0.1492
13610TIP3    H162245   1.084   5.837   2.180 -0.2242 -0.1789  0.5485
13610TIP3    H262246   1.178   5.823   2.062 -0.6908 -0.8364  0.2491
13611TIP3   OH262247   3.345   0.141  12.301 -0.0629  0.5073 -0.2046
13611TIP3    H162248   3.418   0.198  12.276 -0.0100  1.0474  1.0869
13611TIP3    H262249   3.279   0.156  12.233  0.2106  1.6339 -0.2415
13612TIP3   OH262250   5.266   3.187   0.578  0.1601  0.1861 -0.1464
13612TIP3    H162251   5.237   3.188   0.487  2.1040  0.5433 -0.8211
13612TIP3    H262252   5.361   3.177   0.573  0.5064  1.6689  1.7822
13613TIP3   OH262253   3.569   5.051  12.679 -0.7377 -0.0195  0.5538
13613TIP3    H162254   3.643   5.092  12.633 -0.2162 -1.9695 -0.4532
13613TIP3    H262255   3.594   4.959  12.686 -2.3463 -0.3967  1.7297
13614TIP3   OH262256   3.778   1.353   1.690  0.2027  0.5945  0.1627
13614TIP3    H162257   3.796   1.260   1.698 -1.1435  0.2625 -0.4827
13614TIP3    H262258   3.854   1.388   1.644  0.8099 -0.1390  0.5874
13615TIP3   OH262259   0.020   0.559  16.169  0.5246 -0.1135  0.0210
13615TIP3    H162260   0.050   0.513  16.248 -0.5643 -3.6970 -1.4423
13615TIP3    H262261  -0.065   0.519  16.149  0.3312  1.3442 -2.4563
13616TIP3   OH262262   5.076   1.978   4.523  0.0847  0.2649  0.1937
13616TIP3    H162263   4.988   1.944   4.538  0.3424  0.1233  1.5970
13616TIP3    H262264   5.063   2.064   4.485 -0.6647  0.1861  0.2548
13617TIP3   OH262265   3.096   2.029  11.435  0.1500  0.4200 -0.4807
13617TIP3    H162266   3.033   1.964  11.406 -0.8206  1.4937 -0.8535
13617TIP3    H262267   3.086   2.033  11.530 -0.3821  0.6286 -0.5466
13618TIP3   OH262268   3.183   3.399  15.587  0.3436  0.1963 -0.0742
13618TIP3    H162269   3.160   3.480  15.632 -0.8161 -0.5042  0.6512
13618TIP3    H262270   3.112   3.338  15.609 -0.0477 -0.3334 -2.4922
13619TIP3   OH262271   2.743   0.592  14.345 -0.4211  0.2982  0.3648
13619TIP3    H162272   2.787   0.676  14.330  0.4610 -0.0907  0.6960
13619TIP3    H262273   2.650   0.611  14.333 -0.2753  1.4342  0.9016
13620TIP3   OH262274   1.901   4.278  14.050  0.0736 -0.1822  0.1026
13620TIP3    H162275   1.958   4.354  14.062 -1.3540  1.0141 -0.4141
13620TIP3    H262276   1.856   4.295  13.967 -1.4131 -0.8422  0.7546
13621TIP3   OH262277   3.774   4.862   4.908  0.3311  0.6167 -0.0362
13621TIP3    H162278   3.706   4.797   4.895 -1.0076  2.1766 -1.3367
13621TIP3    H262279   3.742   4.918   4.978 -0.0999  1.7477 -1.0916
13622TIP3   OH262280   6.424   3.774   6.384  0.2024  0.1916 -0.2883
13622TIP3    H162281   6.336   3.766   6.422 -0.1819  2.5009 -0.5516
13622TIP3    H262282   6.409   3.794   6.292  1.0895 -1.5971 -0.8659
13623TIP3   OH262283   0.290   2.040   4.838 -0.2017 -0.7610  0.2626
13623TIP3    H162284   0.291   2.071   4.747  0.8027  3.5403  1.4834
13623TIP3    H262285   0.209   2.076   4.875  1.2031  0.9846  1.8965
13624TIP3   OH262286   3.797   4.326  15.794 -0.3821  0.1578  0.9458
13624TIP3    H162287   3.852   4.401  15.819  0.0748 -0.0671  0.6218
13624TIP3    H262288   3.762   4.350  15.708  0.7824 -0.5464  0.2652
13625TIP3   OH262289   1.731   2.758   4.844 -0.0226  0.3109  0.8025
13625TIP3    H162290   1.667   2.818   4.884 -1.1707 -0.0806 -0.3785
13625TIP3    H262291   1.808   2.813   4.828 -0.1713  0.8824  1.8929
13626TIP3   OH262292   0.691   4.946  11.116  0.0556 -0.3539 -0.3343
13626TIP3    H162293   0.682   4.986  11.029 -1.1846  1.9747  0.8000
13626TIP3    H262294   0.602   4.920  11.140  0.3803 -0.9338  0.2895
13627TIP3   OH262295   6.193   5.809   3.346  0.8876 -0.2173  1.1064
13627TIP3    H162296   6.201   5.791   3.439 -2.5566  1.6746  1.9391
13627TIP3    H262297   6.241   5.891   3.333  3.0193 -1.4458  0.6818
13628TIP3   OH262298   4.788   4.381  14.636  0.4301  0.6706  0.0058
13628TIP3    H162299   4.809   4.458  14.582 -1.5507  1.6227  0.4937
13628TIP3    H262300   4.850   4.385  14.709  0.2104  1.9881  0.1534
13629TIP3   OH262301   5.441   5.908  13.490  0.2775 -0.8755  0.0281
13629TIP3    H162302   5.466   5.979  13.549  2.4695 -1.5454  0.0040
13629TIP3    H262303   5.363   5.870  13.530 -1.1900  1.7240 -0.1601
13630TIP3   OH262304   3.103   1.644  13.185 -0.1856 -0.3373 -0.3199
13630TIP3    H162305   3.156   1.624  13.262  1.0261  2.7520 -0.1924
13630TIP3    H262306   3.029   1.695  13.220  0.6856  1.6032 -1.1395
13631TIP3   OH262307   2.859   4.231   5.835  0.2432 -0.8304 -0.5461
13631TIP3    H162308   2.899   4.313   5.862 -0.1902 -0.5844 -0.6463
13631TIP3    H262309   2.806   4.253   5.759 -0.6890 -0.9919  0.0361
13632TIP3   OH262310   0.544   1.131  13.503 -0.6889 -0.3495  0.2780
13632TIP3    H162311   0.567   1.189  13.431 -0.8658 -0.5270  0.0779
13632TIP3    H262312   0.609   1.149  13.571  0.0268 -0.8179 -0.2659
13633TIP3   OH262313   4.066   5.279   5.765  0.0703  0.4202 -0.1568
13633TIP3    H162314   3.986   5.294   5.715  0.0927 -3.1098 -1.5394
13633TIP3    H262315   4.130   5.252   5.700  1.3762 -0.1694  1.3084
13634TIP3   OH262316   0.282   2.443  17.271 -0.3505 -0.3558 -0.0851
13634TIP3    H162317   0.304   2.464  17.180 -1.1025 -0.8775 -0.3995
13634TIP3    H262318   0.311   2.353  17.282  0.0003 -0.2007  0.2876
13635TIP3   OH262319   1.164   2.780  11.184  0.8084 -1.0681 -0.1508
13635TIP3    H162320   1.160   2.716  11.113  0.4229 -2.0940  0.7646
13635TIP3    H262321   1.079   2.824  11.181  0.5012 -1.6388  0.1517
13636TIP3   OH262322   4.586   1.113   1.670 -0.5694  0.4220 -0.4485
13636TIP3    H162323   4.641   1.136   1.595  4.1610 -1.6749  1.9595
13636TIP3    H262324   4.568   1.196   1.714 -0.2684  1.2796 -1.8748
13637TIP3   OH262325   4.168   4.619   2.533 -0.4178 -0.5776  0.1789
13637TIP3    H162326   4.154   4.524   2.532  1.5593 -0.9151 -0.7702
13637TIP3    H262327   4.220   4.636   2.611  0.3699 -0.4980 -0.3454
13638TIP3   OH262328   4.214   4.466   6.509 -0.2338  0.4517 -0.0114
13638TIP3    H162329   4.169   4.508   6.435  1.2122  2.0098 -0.0783
13638TIP3    H262330   4.304   4.500   6.504  0.7128 -1.7769  0.6744
13639TIP3   OH262331   2.654   1.071   1.438  0.0650  0.2809  0.5181
13639TIP3    H162332   2.670   1.158   1.400  0.4371 -0.6230 -1.5371
13639TIP3    H262333   2.565   1.076   1.472 -0.5326  0.9935 -1.0563
13640TIP3   OH262334   1.460   6.655  13.563 -0.0137 -0.4510  0.0088
13640TIP3    H162335   1.527   6.586  13.561 -0.0871 -0.5040 -0.9200
13640TIP3    H262336   1.391   6.624  13.504  0.2905  0.7389 -1.0337
13641TIP3   OH262337   2.376   4.466   2.572 -0.1812  0.6637  0.3249
13641TIP3    H162338   2.385   4.419   2.489  1.6237  0.1811  0.7581
13641TIP3    H262339   2.429   4.417   2.634 -3.2925 -0.3498  2.4314
13642TIP3   OH262340   3.908   0.835  13.343 -0.1648 -0.4625 -0.0021
13642TIP3    H162341   3.873   0.845  13.255  0.9704 -0.4985 -0.4738
13642TIP3    H262342   3.910   0.923  13.379 -0.8839 -0.4814  0.1010
13643TIP3   OH262343   1.706   0.059  12.706  0.6564 -0.4373 -0.3121
13643TIP3    H162344   1.714   0.028  12.796 -0.1647  0.9036  0.2591
13643TIP3    H262345   1.783   0.114  12.693  1.6725 -1.9632 -1.0411
13644TIP3   OH262346   4.414   3.199  16.899  0.7781  0.0245 -0.0403
13644TIP3    H162347   4.391   3.284  16.860  0.2886 -1.1164 -2.4183
13644TIP3    H262348   4.499   3.214  16.940  0.3793  1.8227  0.2322
13645TIP3   OH262349   6.674   5.790   1.505 -0.4531  0.0849 -0.1330
13645TIP3    H162350   6.639   5.769   1.591 -1.8575  0.4503 -0.5905
13645TIP3    H262351   6.756   5.740   1.499 -1.4459 -1.7016  0.5385
13646TIP3   OH262352   1.036   6.640  15.293  0.3999 -0.1853 -0.1566
13646TIP3    H162353   1.107   6.702  15.313 -0.3121  1.8182 -3.2102
13646TIP3    H262354   1.068   6.591  15.218 -1.2258  0.4770 -1.3266
13647TIP3   OH262355   2.905   2.817  11.471 -0.2627 -0.6418 -0.0017
13647TIP3    H162356   2.834   2.753  11.476 -0.4068 -0.4081  1.1242
13647TIP3    H262357   2.970   2.786  11.534  0.2488 -0.3782 -0.3921
13648TIP3   OH262358   0.297   5.180   2.648 -0.3048  0.2380  0.2394
13648TIP3    H162359   0.224   5.228   2.611 -0.9131 -1.5288 -0.9527
13648TIP3    H262360   0.320   5.229   2.728 -0.4095  2.8511 -1.2265
13649TIP3   OH262361   2.359   4.399  11.970  0.2898 -0.8402 -0.1960
13649TIP3    H162362   2.325   4.328  11.916 -0.0819 -0.4814 -0.4442
13649TIP3    H262363   2.398   4.356  12.046  0.4641 -1.3290 -0.5625
13650TIP3   OH262364   4.350   2.081   1.545 -0.4999  0.1555 -0.6390
13650TIP3    H162365   4.350   1.993   1.582 -1.7390  0.2929 -0.2681
13650TIP3    H262366   4.276   2.125   1.588  0.4810  1.5803 -0.3554
13651TIP3   OH262367   2.362   1.051   1.483  0.1641  0.0077  0.6517
13651TIP3    H162368   2.386   1.068   1.392 -0.0493 -0.2732  0.5423
13651TIP3    H262369   2.271   1.081   1.490 -0.5777 -2.0184  0.1798
13652TIP3   OH262370   1.622   1.906   5.362 -0.6211  0.2449  0.7322
13652TIP3    H162371   1.696   1.938   5.414  1.1645 -0.1158 -1.3788
13652TIP3    H262372   1.592   1.983   5.314 -0.1673 -0.0121  0.0081
13653TIP3   OH262373   4.429   4.946   2.960  0.1921 -0.2172 -0.7165
13653TIP3    H162374   4.346   4.973   2.921 -0.2814 -0.4376  0.0935
13653TIP3    H262375   4.403   4.886   3.030  1.0300 -0.1772 -0.3640
13654TIP3   OH262376   6.535   5.670   5.858 -0.1506  0.2132 -0.2638
13654TIP3    H162377   6.474   5.601   5.885  0.9047 -1.0108 -0.8965
13654TIP3    H262378   6.499   5.703   5.776 -0.6497  0.4060  0.0284
13655TIP3   OH262379   3.210   3.233   2.959 -0.0768  0.4818  0.3608
13655TIP3    H162380   3.285   3.248   3.017 -2.4826  2.5029  3.2241
13655TIP3    H262381   3.222   3.297   2.889  3.2725 -2.4930 -2.1575
13656TIP3   OH262382   6.697   0.143  11.796  0.6267  0.0455  0.1732
13656TIP3    H162383   6.694   0.105  11.884 -0.3149  1.3374  0.7302
13656TIP3    H262384   6.760   0.089  11.749 -1.1353 -2.6845  0.6838
13657TIP3   OH262385   6.071   0.423   1.037  0.2946 -0.3458 -0.0778
13657TIP3    H162386   6.079   0.434   0.943 -0.3710 -0.3072 -0.1371
13657TIP3    H262387   6.124   0.346   1.057  0.5378 -0.2800 -0.4609
13658TIP3   OH262388   1.879   2.644  14.246 -0.0748 -0.0610 -1.0241
13658TIP3    H162389   1.961   2.690  14.265  0.0706  0.2443 -2.2602
13658TIP3    H262390   1.831   2.646  14.328 -0.1361  2.4469 -1.0227
13659TIP3   OH262391   5.390   2.446  14.169 -0.2221 -0.2739  0.2571
13659TIP3    H162392   5.483   2.428  14.150 -0.0358 -1.3149  1.9409
13659TIP3    H262393   5.385   2.542  14.175  0.7213 -0.1972  0.0249
13660TIP3   OH262394   1.701   6.433   0.178  0.7847 -0.3088 -0.1446
13660TIP3    H162395   1.659   6.516   0.200  1.5250  0.3256 -1.0305
13660TIP3    H262396   1.628   6.373   0.161  0.2431  0.1993  0.3358
13661TIP3   OH262397   6.712   6.396   3.819 -0.1095 -0.6147  0.4755
13661TIP3    H162398   6.732   6.380   3.911  0.0525  0.7908  0.7120
13661TIP3    H262399   6.788   6.361   3.772  0.8099  0.5021  1.0506
13662TIP3   OH262400   2.993   1.114   0.947 -0.0178 -0.0498 -0.1347
13662TIP3    H162401   2.989   1.101   0.853 -0.9715 -0.7973 -0.0050
13662TIP3    H262402   2.933   1.049   0.983 -1.4405  1.7129  0.8592
13663TIP3   OH262403   3.959   2.707  14.075  0.0882 -0.0943  0.2529
13663TIP3    H162404   3.870   2.741  14.066  1.2020  2.5788 -2.3578
13663TIP3    H262405   3.948   2.613  14.088 -3.1080  0.4553  2.9547
13664TIP3   OH262406   6.182   0.462   3.394 -0.7143 -0.1426 -0.2214
13664TIP3    H162407   6.099   0.480   3.438 -0.7131 -0.1732 -0.2066
13664TIP3    H262408   6.215   0.548   3.368  0.1121  0.0513  1.3316
13665TIP3   OH262409   2.231   0.490   6.739  0.1995 -0.6383  0.4439
13665TIP3    H162410   2.233   0.544   6.660 -3.4165  1.2811  1.4287
13665TIP3    H262411   2.267   0.547   6.808 -1.3666 -0.3124  1.0373
13666TIP3   OH262412   4.697   1.519  13.527  0.3701  0.3882 -0.1517
13666TIP3    H162413   4.630   1.489  13.589  0.2190 -0.5022 -0.7344
13666TIP3    H262414   4.661   1.601  13.492  0.8709  1.4054  1.5818
13667TIP3   OH262415   5.625   3.973   3.713 -0.1906  0.2433 -0.3541
13667TIP3    H162416   5.608   3.966   3.619 -0.8040  0.0318 -0.2289
13667TIP3    H262417   5.632   3.883   3.744  1.0016  0.3159 -0.3639
13668TIP3   OH262418   2.137   4.119  13.672  0.4646  0.4827  0.1086
13668TIP3    H162419   2.042   4.111  13.674  0.5916 -1.1449  2.0147
13668TIP3    H262420   2.169   4.029  13.669  1.9954  1.0009 -1.8551
13669TIP3   OH262421   2.329   5.087  13.699  0.1108 -0.3123  0.6134
13669TIP3    H162422   2.371   5.076  13.613  0.1202 -0.3977  0.6280
13669TIP3    H262423   2.392   5.049  13.761  0.6099  0.7475  0.7759
13670TIP3   OH262424   1.476   3.838  11.071  0.4185  0.0782  0.4640
13670TIP3    H162425   1.543   3.778  11.039 -0.2267 -0.7685  0.6430
13670TIP3    H262426   1.437   3.875  10.992  1.0320  0.5083  0.3586
13671TIP3   OH262427   3.081   6.401  17.144 -0.5081 -0.0794  0.0337
13671TIP3    H162428   3.164   6.364  17.172  0.4741  1.2607 -0.9428
13671TIP3    H262429   3.069   6.479  17.198  1.3627  2.4771 -2.8584
13672TIP3   OH262430   5.067   4.914   4.202  0.3946  0.2498  0.7370
13672TIP3    H162431   5.119   4.896   4.124  0.0891  0.8202  0.3919
13672TIP3    H262432   5.125   4.894   4.275  0.6088 -0.5001  0.3679
13673TIP3   OH262433   1.092   0.803  16.231  0.5481  0.0904  0.5600
13673TIP3    H162434   1.183   0.783  16.254  0.2627  1.0549  2.7989
13673TIP3    H262435   1.045   0.721  16.249  0.3436  0.7835  3.7424
13674TIP3   OH262436   2.426   3.687   1.021 -0.4933 -0.4048  0.2424
13674TIP3    H162437   2.355   3.664   0.962 -0.3694  0.0431 -0.0820
13674TIP3    H262438   2.400   3.650   1.106 -1.0061 -0.4320  0.0724
13675TIP3   OH262439   3.868   0.157   4.915 -0.3567  0.0425 -0.6337
13675TIP3    H162440   3.813   0.080   4.901  0.4011 -0.8015  0.7736
13675TIP3    H262441   3.808   0.231   4.903 -2.3748 -0.8492  2.6083
13676TIP3   OH262442   3.427   0.164   6.441  0.0573  0.1667 -0.9361
13676TIP3    H162443   3.451   0.244   6.488  1.0734 -0.6837  0.0625
13676TIP3    H262444   3.507   0.110   6.444 -1.7227 -2.6909  2.2054
13677TIP3   OH262445   4.790   2.209  14.022 -0.3837  0.3671  0.8161
13677TIP3    H162446   4.834   2.238  14.102 -1.4131  2.1253  0.8008
13677TIP3    H262447   4.860   2.210  13.955 -0.0526  1.4717  1.1467
13678TIP3   OH262448   6.678   4.060   1.104  0.1240 -0.3863  0.1513
13678TIP3    H162449   6.769   4.031   1.091  0.4243  0.3593  0.4795
13678TIP3    H262450   6.684   4.125   1.174 -0.6706 -0.3329  0.1788
13679TIP3   OH262451   1.694   3.799   0.949 -0.4362 -0.8178  0.0053
13679TIP3    H162452   1.788   3.785   0.960 -0.1969  0.5800 -0.0904
13679TIP3    H262453   1.666   3.728   0.891  0.7058 -0.8091 -0.5991
13680TIP3   OH262454   5.068   1.096  16.452  0.0076  0.1674  0.1695
13680TIP3    H162455   5.048   1.159  16.382  0.1437 -0.5356 -0.5085
13680TIP3    H262456   5.105   1.020  16.407 -0.0236 -0.3500  0.9929
13681TIP3   OH262457   0.507   1.100  11.921 -0.6544  0.0250  0.4322
13681TIP3    H162458   0.417   1.118  11.947 -0.8440  0.0209 -0.2022
13681TIP3    H262459   0.551   1.073  12.002 -1.0167  0.7995  0.8916
13682TIP3   OH262460   3.583   0.561   5.328  0.1149  0.3318  0.4403
13682TIP3    H162461   3.610   0.652   5.323  0.2359  0.2833  0.1884
13682TIP3    H262462   3.492   0.564   5.357  0.0111  0.5444  0.0939
13683TIP3   OH262463   4.960   4.319   4.229  1.1803  0.1166 -0.0386
13683TIP3    H162464   4.955   4.408   4.193  0.8176  1.2036  2.5131
13683TIP3    H262465   5.052   4.305   4.247  1.3868 -0.4985 -1.4437
13684TIP3   OH262466   2.816   1.724  12.134  0.2365 -0.1687  0.2532
13684TIP3    H162467   2.791   1.811  12.102  0.2036 -0.3573 -0.2432
13684TIP3    H262468   2.832   1.736  12.227 -0.6115  0.1885  0.3521
13685TIP3   OH262469   2.882   6.307   0.557  0.7126  0.5869  0.1917
13685TIP3    H162470   2.799   6.270   0.586  0.2603  1.7171  0.4133
13685TIP3    H262471   2.948   6.250   0.594  0.0398 -0.9283 -0.8284
13686TIP3   OH262472   0.843   0.993   4.884  0.4938 -0.1872 -0.8227
13686TIP3    H162473   0.774   1.013   4.821  1.0012 -1.1113 -1.6994
13686TIP3    H262474   0.808   1.022   4.968 -0.0632  1.3729 -1.5543
13687TIP3   OH262475   4.199   3.352   3.897 -0.8418 -0.0222  0.1158
13687TIP3    H162476   4.260   3.422   3.875 -2.4666  1.5713  0.4237
13687TIP3    H262477   4.199   3.350   3.993 -1.1809 -0.0644  0.1168
13688TIP3   OH262478   0.749   4.881  13.227 -0.2060  0.4746 -0.2818
13688TIP3    H162479   0.742   4.876  13.323 -1.1221  0.6910 -0.3265
13688TIP3    H262480   0.761   4.974  13.209  0.4886  0.3759 -0.3551
13689TIP3   OH262481   3.968   3.058  12.445 -0.1740  0.2836  0.7567
13689TIP3    H162482   3.981   3.124  12.377  1.3607 -1.0406 -0.3123
13689TIP3    H262483   3.873   3.049  12.453 -0.3755  1.0511 -0.6354
13690TIP3   OH262484   4.228   6.105  12.378 -0.1833 -0.5516  0.2862
13690TIP3    H162485   4.148   6.061  12.348  0.6181 -0.8536 -1.5580
13690TIP3    H262486   4.279   6.036  12.419  0.4561 -1.1140 -1.3512
13691TIP3   OH262487   0.218   0.649   2.742 -0.2972 -0.5200 -0.1591
13691TIP3    H162488   0.181   0.612   2.822  1.6335 -2.4318 -0.0442
13691TIP3    H262489   0.304   0.681   2.768  0.7004 -1.9038 -1.5599
13692TIP3   OH262490   1.983   1.593   3.854 -0.1380 -0.0205  0.1656
13692TIP3    H162491   2.013   1.543   3.930 -1.0529 -0.8552 -0.0162
13692TIP3    H262492   2.001   1.684   3.878  0.9013 -0.3645  0.7846
13693TIP3   OH262493   0.746   0.457   4.767 -0.0733 -0.0380 -0.1752
13693TIP3    H162494   0.778   0.547   4.762 -2.9101  1.1337  0.5301
13693TIP3    H262495   0.689   0.448   4.691 -0.6382 -0.8643  0.3311
13694TIP3   OH262496   0.604   0.535   1.097 -0.1614 -0.0937 -0.7922
13694TIP3    H162497   0.692   0.524   1.134 -0.5909 -1.0620 -0.0159
13694TIP3    H262498   0.613   0.509   1.006  0.7617  1.6337 -1.2342
13695TIP3   OH262499   1.806   6.582   4.368  0.2161 -0.0867 -0.3508
13695TIP3    H162500   1.865   6.656   4.355 -0.9481  0.6901 -1.3665
13695TIP3    H262501   1.724   6.620   4.397  0.1098 -1.1494  0.8594
13696TIP3   OH262502   2.873   2.188   0.945 -0.4181 -0.0756  0.0937
13696TIP3    H162503   2.862   2.282   0.927 -1.3511 -0.1710  0.0966
13696TIP3    H262504   2.885   2.148   0.859  0.6320  0.1081  0.1367
13697TIP3   OH262505   5.993   1.303  10.618 -0.0763 -0.2113  0.1411
13697TIP3    H162506   6.047   1.322  10.694  0.4309  0.2344 -0.3220
13697TIP3    H262507   5.906   1.336  10.641  0.0744 -0.0862  0.5264
13698TIP3   OH262508   4.525   5.797   3.556  0.3047 -0.3498 -0.0575
13698TIP3    H162509   4.436   5.824   3.535  0.4828 -0.2247 -0.6900
13698TIP3    H262510   4.515   5.727   3.620 -0.3124 -1.3493 -1.2160
13699TIP3   OH262511   2.698   4.405  12.144  0.2817 -0.2274 -0.3887
13699TIP3    H162512   2.628   4.415  12.079  1.4680 -1.1342 -1.8738
13699TIP3    H262513   2.699   4.488  12.191 -1.8751 -0.2512 -0.2147
13700TIP3   OH262514   1.451   4.975   0.910  0.3407  0.3176  0.2876
13700TIP3    H162515   1.376   5.030   0.931  1.5917  1.6778  1.3690
13700TIP3    H262516   1.527   5.023   0.942  1.5907 -1.6325  0.4700
13701TIP3   OH262517   6.626   5.382  13.908 -0.0668 -0.3037 -0.1228
13701TIP3    H162518   6.645   5.445  13.839 -0.9112  0.2106  0.1080
13701TIP3    H262519   6.559   5.424  13.962 -1.4607 -1.8099 -0.5892
13702TIP3   OH262520   2.194   4.756  12.760  0.1717  0.0968 -0.2079
13702TIP3    H162521   2.120   4.758  12.821  0.3283  0.6159 -0.0268
13702TIP3    H262522   2.159   4.717  12.680 -0.1189 -0.2928  0.1070
13703TIP3   OH262523   4.678   5.935  16.526 -0.1151 -0.1465 -0.0964
13703TIP3    H162524   4.734   5.902  16.597  2.6011  2.2948 -0.9029
13703TIP3    H262525   4.712   5.893  16.448 -0.9369 -0.3333 -0.3620
13704TIP3   OH262526   4.923   0.034  11.910 -0.2515  0.4185  0.3388
13704TIP3    H162527   4.954   0.124  11.905  3.1036 -0.6163 -0.1510
13704TIP3    H262528   4.951   0.004  11.997 -2.3511  0.1133  0.9609
13705TIP3   OH262529   6.455   3.720   2.501  0.6642  0.4252  0.4356
13705TIP3    H162530   6.546   3.728   2.473  0.7544 -1.0529  0.2172
13705TIP3    H262531   6.454   3.644   2.558 -0.3058  0.9049  1.0860
13706TIP3   OH262532   0.193   3.462   5.539 -0.1086 -0.4832  0.3688
13706TIP3    H162533   0.141   3.391   5.577 -1.7826  0.3878 -0.1890
13706TIP3    H262534   0.133   3.536   5.535  0.8431  0.2499 -1.3909
13707TIP3   OH262535   5.915   2.894   1.891  0.3140  0.0566  0.1775
13707TIP3    H162536   5.880   2.913   1.978  0.1926  1.3891 -0.1393
13707TIP3    H262537   5.899   2.800   1.879 -3.3186  0.5420  0.0312
13708TIP3   OH262538   2.809   3.951  15.497  1.4649  0.4549 -0.4234
13708TIP3    H162539   2.862   3.872  15.508  1.3095  0.3281 -0.5521
13708TIP3    H262540   2.748   3.949  15.571  1.5975  0.5663 -0.3117
13709TIP3   OH262541   3.456   0.892   2.655  0.0735  0.3941  0.4096
13709TIP3    H162542   3.517   0.930   2.719 -0.1958  0.2758  0.7413
13709TIP3    H262543   3.412   0.822   2.703 -1.2828  1.3268  0.6042
13710TIP3   OH262544   1.807   5.302  14.393 -0.0008  0.1378 -0.0807
13710TIP3    H162545   1.735   5.240  14.403 -0.5264  0.3395 -2.1779
13710TIP3    H262546   1.765   5.389  14.396  0.5584  0.3950  1.4867
13711TIP3   OH262547   3.653   1.474   5.755  0.8072  0.8587 -0.4204
13711TIP3    H162548   3.611   1.448   5.837 -0.8791  1.3382 -1.0840
13711TIP3    H262549   3.721   1.408   5.741  1.8085  1.3316  1.8448
13712TIP3   OH262550   5.530   3.742   3.921  0.1253 -0.3477 -0.3907
13712TIP3    H162551   5.503   3.657   3.955 -1.2733  0.3240  0.2595
13712TIP3    H262552   5.450   3.793   3.917  0.8876  0.8439 -1.0930
13713TIP3   OH262553   4.066   0.233   2.868  0.0180  0.3258  0.2021
13713TIP3    H162554   4.033   0.165   2.927  1.5608  0.6651  1.5125
13713TIP3    H262555   4.012   0.224   2.789  1.0188 -3.3044 -0.2427
13714TIP3   OH262556   4.775   3.364   0.487  0.2995  0.6289 -0.1334
13714TIP3    H162557   4.816   3.369   0.401 -0.3841 -1.2718 -0.6064
13714TIP3    H262558   4.703   3.428   0.483  0.5977  0.9323 -0.7664
13715TIP3   OH262559   1.276   4.531   4.442 -0.5008 -0.0916  0.5210
13715TIP3    H162560   1.333   4.462   4.474  2.3317  0.4810 -2.6930
13715TIP3    H262561   1.270   4.593   4.515  2.7569 -0.4244  1.2349
13716TIP3   OH262562   2.631   5.651   2.358  0.3333  0.5452  0.0063
13716TIP3    H162563   2.657   5.646   2.266 -0.6582  0.4263 -0.2813
13716TIP3    H262564   2.592   5.565   2.376 -0.6559  1.0121  0.1556
13717TIP3   OH262565   4.590   2.350  11.915 -0.1868  0.4472 -0.2297
13717TIP3    H162566   4.584   2.415  11.985 -1.6456 -0.3041  0.3861
13717TIP3    H262567   4.663   2.294  11.941 -0.3795  0.4880  0.4112
13718TIP3   OH262568   0.182   0.739   3.847 -0.4974  0.0365  0.9638
13718TIP3    H162569   0.153   0.665   3.901 -1.4813 -0.7903 -0.6080
13718TIP3    H262570   0.181   0.704   3.757  2.1876  0.9983  0.4713
13719TIP3   OH262571   1.180   2.704  10.668  0.0990 -0.5657 -0.3574
13719TIP3    H162572   1.207   2.630  10.613 -0.4155 -0.3761 -0.8832
13719TIP3    H262573   1.248   2.770  10.655  0.5439 -0.9329  0.0896
13720TIP3   OH262574   5.242   5.663   0.133 -0.2411 -0.3285  0.8841
13720TIP3    H162575   5.155   5.628   0.153 -0.5664  1.0421  2.0281
13720TIP3    H262576   5.230   5.710   0.051 -0.1763 -1.4780  0.1930
13721TIP3   OH262577   3.328   6.612  12.690 -0.2726 -0.8107 -0.1939
13721TIP3    H162578   3.239   6.596  12.720 -0.2247 -2.7096 -0.9353
13721TIP3    H262579   3.372   6.652  12.765 -1.1039 -2.0788  1.0044
13722TIP3   OH262580   4.355   6.349  16.003 -0.1837  0.1921 -0.0794
13722TIP3    H162581   4.359   6.261  15.964  0.6738  0.6103 -0.9821
13722TIP3    H262582   4.325   6.334  16.093  0.9481 -1.1400  0.1122
13723TIP3   OH262583   2.753   4.548  16.515 -0.2241 -1.2174 -0.2221
13723TIP3    H162584   2.831   4.519  16.467  0.7575 -1.4353  1.4076
13723TIP3    H262585   2.757   4.499  16.597 -1.7026 -0.6777  0.1942
13724TIP3   OH262586   3.672   2.109   6.476  0.4756  0.3988 -0.1828
13724TIP3    H162587   3.753   2.151   6.448  0.8822 -1.3842 -1.9513
13724TIP3    H262588   3.603   2.160   6.433  0.7998  0.7414 -0.2991
13725TIP3   OH262589   6.614   5.386   3.353 -0.4432 -0.3570 -0.0301
13725TIP3    H162590   6.578   5.372   3.266  0.3681 -0.9874 -0.2807
13725TIP3    H262591   6.571   5.466   3.384 -0.5296  0.0431 -1.1203
13726TIP3   OH262592   2.778   4.583   5.316 -0.2176  0.3169 -0.1932
13726TIP3    H162593   2.869   4.603   5.297  0.1596 -0.7672  0.3952
13726TIP3    H262594   2.743   4.550   5.233  0.2961 -0.5097 -0.0898
13727TIP3   OH262595   3.126   2.803  16.003 -0.3023  0.6444  0.0759
13727TIP3    H162596   3.033   2.821  16.011 -0.0800  2.5293 -0.8168
13727TIP3    H262597   3.133   2.746  15.927 -0.7959 -0.5106  0.8749
13728TIP3   OH262598   4.034   2.235   0.287  0.2691 -0.1616  0.1775
13728TIP3    H162599   3.952   2.279   0.263  0.8882  1.5924  1.0640
13728TIP3    H262600   4.007   2.155   0.332 -1.0567  1.2661  2.1023
13729TIP3   OH262601   3.779   4.574   5.539 -0.3096 -0.5507 -0.1409
13729TIP3    H162602   3.767   4.616   5.454 -0.0305 -1.0515 -0.4356
13729TIP3    H262603   3.691   4.549   5.567 -0.2214 -2.4253 -1.3633
13730TIP3   OH262604   4.075   2.849  13.065  0.1303 -0.7665 -0.6027
13730TIP3    H162605   4.080   2.757  13.089  0.4672 -0.9307 -1.2890
13730TIP3    H262606   4.107   2.896  13.143 -0.0673 -1.2182 -0.2432
13731TIP3   OH262607   0.329   6.573   4.338 -0.1728  0.3013 -0.2675
13731TIP3    H162608   0.277   6.576   4.258  1.3354  2.0523 -1.2880
13731TIP3    H262609   0.285   6.634   4.398  0.1596  1.1046 -0.8107
13732TIP3   OH262610   3.525   0.572  17.266 -0.0849  0.2332  0.8070
13732TIP3    H162611   3.588   0.560  17.194 -1.3624 -0.2766 -0.2605
13732TIP3    H262612   3.501   0.664  17.262  0.3079  0.3488  0.9967
13733TIP3   OH262613   6.294   0.669   4.699 -0.3995 -0.7994  0.1711
13733TIP3    H162614   6.199   0.657   4.701 -0.6891  1.0011 -0.9036
13733TIP3    H262615   6.319   0.674   4.792 -1.2776 -1.7187  0.4722
13734TIP3   OH262616   0.363   0.091   3.284  0.2026  0.2826  0.0968
13734TIP3    H162617   0.429   0.159   3.265 -0.2518  0.2984 -1.5367
13734TIP3    H262618   0.281   0.128   3.253  0.1546 -1.5425 -2.1646
13735TIP3   OH262619   5.190   5.358  11.238 -0.0577 -0.0069 -0.5617
13735TIP3    H162620   5.104   5.399  11.250 -0.1673 -0.9409  2.6325
13735TIP3    H262621   5.171   5.265  11.227  0.5210 -0.0787 -1.0255
13736TIP3   OH262622   5.793   3.029   0.887  0.4850 -0.2837  0.6963
13736TIP3    H162623   5.787   2.954   0.945  1.6905  0.3778  1.7306
13736TIP3    H262624   5.763   3.103   0.940  2.6448  0.5103  0.9171
13737TIP3   OH262625   2.802   2.099  16.572  0.1344 -0.1895  0.0493
13737TIP3    H162626   2.765   2.172  16.621  1.8164  0.9557 -0.2752
13737TIP3    H262627   2.745   2.089  16.496 -0.2284  0.6689  0.2024
13738TIP3   OH262628   2.529   2.375   4.566 -0.0416  0.0539 -0.1127
13738TIP3    H162629   2.610   2.369   4.618 -0.1745 -2.4984 -0.0664
13738TIP3    H262630   2.466   2.321   4.614 -0.9478 -0.2394 -1.5731
13739TIP3   OH262631   2.281   2.942   5.680  0.1091  0.2979 -0.2064
13739TIP3    H162632   2.374   2.962   5.669 -0.0443  0.4900 -1.2182
13739TIP3    H262633   2.279   2.873   5.747  0.9991  0.1071 -0.3697
13740TIP3   OH262634   5.765   4.698   1.059 -0.5325 -0.0579 -0.2292
13740TIP3    H162635   5.722   4.781   1.078 -3.2594 -0.4978 -3.4584
13740TIP3    H262636   5.782   4.700   0.965  3.2586 -1.5709  0.2225
13741TIP3   OH262637   1.713   2.472   5.484 -0.5863  0.2730 -0.0032
13741TIP3    H162638   1.808   2.467   5.474 -0.6092 -1.1686  0.3009
13741TIP3    H262639   1.700   2.503   5.574 -0.3577 -2.4354  1.0484
13742TIP3   OH262640   2.019   6.096  12.255  0.2451  0.2459  0.3593
13742TIP3    H162641   1.956   6.026  12.236 -1.1102  1.1171  1.3516
13742TIP3    H262642   2.008   6.158  12.183 -0.8665  0.9148  1.0745
13743TIP3   OH262643   6.312   2.345   3.285 -0.0648  0.0802  0.1907
13743TIP3    H162644   6.318   2.251   3.270  0.2969  0.0762  0.3630
13743TIP3    H262645   6.347   2.385   3.206 -1.5226  0.0876 -0.4833
13744TIP3   OH262646   5.534   2.992   0.813 -0.3159 -0.5119 -0.2498
13744TIP3    H162647   5.629   2.995   0.827 -0.6638 -1.5262  3.4095
13744TIP3    H262648   5.509   3.082   0.795  1.1177  0.1405  0.8297
13745TIP3   OH262649   1.477   0.458   0.550  0.1559  0.3267  0.3027
13745TIP3    H162650   1.393   0.459   0.597  0.1570  2.1653  0.3658
13745TIP3    H262651   1.533   0.516   0.601  1.0847  0.0525 -0.3899
13746TIP3   OH262652   6.201   1.770  16.796  0.2542  0.1983 -0.0810
13746TIP3    H162653   6.136   1.739  16.860  3.6899 -0.7150  3.3521
13746TIP3    H262654   6.214   1.862  16.819  0.2290  0.3637 -0.7257
13747TIP3   OH262655   5.758   2.564   2.202 -0.1214 -0.4050  0.0858
13747TIP3    H162656   5.687   2.520   2.155  0.3934  0.7646 -1.8715
13747TIP3    H262657   5.714   2.611   2.273 -1.1753 -0.5910 -0.4260
13748TIP3   OH262658   6.130   0.398  16.155 -0.1713  0.3608  0.5471
13748TIP3    H162659   6.186   0.400  16.232  1.5747 -0.6900 -0.6068
13748TIP3    H262660   6.094   0.309  16.153  0.7402 -0.0186 -0.4228
13749TIP3   OH262661   0.056   0.934  14.703  0.1675  0.2840  0.3585
13749TIP3    H162662   0.070   0.840  14.691  0.1865  0.5291 -1.9996
13749TIP3    H262663   0.142   0.973  14.687 -0.4652  0.8881 -1.8988
13750TIP3   OH262664   2.424   1.600   1.030  0.1160  0.3944 -0.1032
13750TIP3    H162665   2.427   1.695   1.019 -1.1986  0.5941  0.9258
13750TIP3    H262666   2.355   1.586   1.095 -0.1892 -1.3141 -0.7454
13751TIP3   OH262667   5.768   0.677   3.547  0.0278  0.9693 -0.0426
13751TIP3    H162668   5.758   0.760   3.593  0.2621  1.7648 -1.3905
13751TIP3    H262669   5.779   0.701   3.455  2.9242 -0.3523 -0.1612
13752TIP3   OH262670   3.755   3.631  14.539  0.7452  0.1214  0.0929
13752TIP3    H162671   3.785   3.645  14.449 -0.3707 -0.2523 -0.3629
13752TIP3    H262672   3.834   3.610  14.588  1.2239 -1.0931 -1.1133
13753TIP3   OH262673   2.525   1.666   2.892  0.9443  0.0629 -0.1540
13753TIP3    H162674   2.600   1.725   2.900  0.0741  1.4924 -1.7991
13753TIP3    H262675   2.534   1.627   2.805 -1.2809  1.9375 -1.3398
13754TIP3   OH262676   6.294   5.270   5.570 -0.6401 -0.0612 -0.4509
13754TIP3    H162677   6.319   5.182   5.541  0.2203  0.1880 -0.4589
13754TIP3    H262678   6.351   5.329   5.523 -0.2078  0.4289  0.6512
13755TIP3   OH262679   1.497   2.489  12.552  0.1184  0.3083  0.1446
13755TIP3    H162680   1.408   2.524  12.548 -0.2672 -0.7722 -2.7085
13755TIP3    H262681   1.486   2.399  12.583  0.3008  0.3225  0.2553
13756TIP3   OH262682   4.597   2.762  10.824 -0.6052  0.2298 -0.4770
13756TIP3    H162683   4.516   2.713  10.837  0.0150 -0.6025  0.4400
13756TIP3    H262684   4.663   2.695  10.805 -0.3933  1.0040 -2.7874
13757TIP3   OH262685   4.877   1.734   4.657  0.1511 -0.1087  0.8513
13757TIP3    H162686   4.901   1.797   4.725 -0.2055 -0.7006  1.5342
13757TIP3    H262687   4.933   1.658   4.674  0.3282 -0.1153  0.2473
13758TIP3   OH262688   0.547   5.057   6.054  0.3949 -0.0374 -0.2329
13758TIP3    H162689   0.531   5.011   6.137 -0.1972  0.1856 -0.2130
13758TIP3    H262690   0.539   4.990   5.987 -1.8278  0.2296 -0.3201
13759TIP3   OH262691   5.669   0.718   5.979  0.4312  0.5130  0.4913
13759TIP3    H162692   5.583   0.681   5.999 -0.3383  2.1705  0.3783
13759TIP3    H262693   5.698   0.669   5.902 -0.5051  0.0761  0.3951
13760TIP3   OH262694   4.140   1.351  12.136  0.4241 -1.0946  0.1144
13760TIP3    H162695   4.068   1.376  12.077 -0.8569 -0.5011  1.8224
13760TIP3    H262696   4.152   1.427  12.192  1.2230 -1.8333  0.9796
13761TIP3   OH262697   5.808   1.737  14.221  0.0071 -0.0177 -0.0001
13761TIP3    H162698   5.834   1.662  14.167 -0.9825 -0.2238 -0.2262
13761TIP3    H262699   5.865   1.808  14.193 -0.5882 -0.0741 -1.4569
13762TIP3   OH262700   5.746   2.989  12.664  0.2728 -0.0894  0.1801
13762TIP3    H162701   5.693   3.010  12.587 -0.2220  0.4831  0.6634
13762TIP3    H262702   5.833   2.970  12.628 -0.1102 -0.4703 -0.5729
13763TIP3   OH262703   4.716   0.349  11.591 -0.6467 -0.5986  0.1827
13763TIP3    H162704   4.674   0.308  11.515 -0.7068  1.0150 -0.6804
13763TIP3    H262705   4.803   0.309  11.594 -0.5319 -0.4571 -0.9267
13764TIP3   OH262706   3.968   4.397   1.852  0.1138  0.3033  0.0976
13764TIP3    H162707   4.040   4.336   1.833 -1.5276 -0.8891 -2.9623
13764TIP3    H262708   3.964   4.454   1.775 -0.1294  2.6305  1.7235
13765TIP3   OH262709   3.966   6.445  14.770  0.0384 -0.2538 -0.2534
13765TIP3    H162710   3.903   6.514  14.748  1.5348  1.2956  0.0518
13765TIP3    H262711   3.996   6.467  14.858  0.8591 -1.0394 -0.3191
13766TIP3   OH262712   5.151   0.794  16.647 -0.0978 -0.1770  0.8906
13766TIP3    H162713   5.172   0.763  16.735 -0.9357  0.6975  1.4031
13766TIP3    H262714   5.232   0.835  16.616  0.7181 -1.8790  0.5919
13767TIP3   OH262715   6.078   2.257  15.240  0.1072 -0.2048  0.5587
13767TIP3    H162716   6.041   2.340  15.212 -0.5954 -0.6127  0.2684
13767TIP3    H262717   6.071   2.258  15.336 -0.4339 -0.1740  0.5207
13768TIP3   OH262718   1.595   3.841  17.101 -0.1939  0.0058 -0.1058
13768TIP3    H162719   1.531   3.856  17.171  1.5448  3.5029  0.9627
13768TIP3    H262720   1.675   3.816  17.147  0.1792 -0.7327 -1.1279
13769TIP3   OH262721   2.680   1.857  11.206  0.2748  0.1353 -0.4113
13769TIP3    H162722   2.715   1.769  11.224 -2.2109 -0.7518  0.5200
13769TIP3    H262723   2.692   1.869  11.112  0.1519 -1.4772 -0.6611
13770TIP3   OH262724   2.708   2.107  12.781  0.8495  0.2374  0.0709
13770TIP3    H162725   2.730   2.186  12.832 -1.9269  1.7669 -0.8722
13770TIP3    H262726   2.765   2.111  12.705  0.9336  1.2441  0.1672
13771TIP3   OH262727   4.178   1.976  13.593 -0.3377 -0.1890  0.0594
13771TIP3    H162728   4.178   2.039  13.665 -2.1939 -1.0279  0.8780
13771TIP3    H262729   4.167   2.029  13.514 -0.1475  0.6154  0.5677
13772TIP3   OH262730   5.662   2.939  11.787 -0.0856  0.0758 -0.2373
13772TIP3    H162731   5.696   2.885  11.715  3.8387 -2.3352  2.9847
13772TIP3    H262732   5.580   2.896  11.813  1.2250 -2.4359  0.0664
13773TIP3   OH262733   5.533   0.343   0.336 -0.2100  0.3134  0.8342
13773TIP3    H162734   5.613   0.394   0.322 -0.9164  1.2535  0.0884
13773TIP3    H262735   5.466   0.408   0.357 -1.8368  0.1598 -3.0231
13774TIP3   OH262736   4.550   2.868   0.420 -0.2889 -0.5752  0.1603
13774TIP3    H162737   4.568   2.958   0.449  1.2727 -0.0943 -2.0158
13774TIP3    H262738   4.637   2.829   0.407 -0.9438 -2.1072  0.1584
13775TIP3   OH262739   0.361   2.662  15.488  0.7622 -0.7772 -0.1578
13775TIP3    H162740   0.266   2.673  15.482  0.9059  0.6549 -0.2108
13775TIP3    H262741   0.383   2.604  15.416  0.0664 -0.0213 -1.0045
13776TIP3   OH262742   4.930   2.322   2.300  0.7518 -0.3717  0.5642
13776TIP3    H162743   4.930   2.264   2.224  0.1185 -0.7957  0.8853
13776TIP3    H262744   4.974   2.273   2.369  0.7372 -0.2452  0.6655
13777TIP3   OH262745   2.558   6.114   1.599 -0.1661 -0.7141 -0.2000
13777TIP3    H162746   2.552   6.033   1.547  0.9956 -0.7140 -0.3686
13777TIP3    H262747   2.612   6.090   1.674 -1.8767 -0.7268  1.0817
13778TIP3   OH262748   3.837   5.241   1.999 -0.4443 -0.2869 -0.3190
13778TIP3    H162749   3.788   5.249   2.080 -1.2228 -1.9295 -0.5782
13778TIP3    H262750   3.897   5.168   2.014  0.5577  0.4332 -0.6900
13779TIP3   OH262751   2.287   3.502  11.279 -0.0684  0.4277 -0.4427
13779TIP3    H162752   2.311   3.502  11.186 -0.4805 -1.2796 -0.5850
13779TIP3    H262753   2.191   3.495  11.279 -0.2006  1.8225  0.1372
13780TIP3   OH262754   2.058   2.453   4.382  0.1474  0.4455  0.1462
13780TIP3    H162755   2.063   2.524   4.318 -1.5083 -1.7033 -2.6183
13780TIP3    H262756   1.990   2.480   4.443 -0.1723  1.4190 -0.6225
13781TIP3   OH262757   4.609   1.678   3.017 -0.0095 -0.2161  0.0975
13781TIP3    H162758   4.538   1.657   3.079  0.0091  0.4117  0.3473
13781TIP3    H262759   4.599   1.772   3.002 -1.6278 -0.7492 -2.8803
13782TIP3   OH262760   1.928   0.489  13.786 -0.0645 -0.1731  0.1094
13782TIP3    H162761   1.874   0.411  13.773  0.3431 -0.3598 -0.5242
13782TIP3    H262762   1.952   0.516  13.697  1.0858 -0.2432  0.3812
13783TIP3   OH262763   2.041   0.842  11.139 -0.0627 -0.0965 -0.4814
13783TIP3    H162764   2.101   0.896  11.088  2.0400 -2.1195 -0.3124
13783TIP3    H262765   1.995   0.789  11.074 -0.3827  0.1695 -0.4812
13784TIP3   OH262766   2.029   0.007   3.008 -0.0707  0.0543 -0.1314
13784TIP3    H162767   1.948  -0.013   3.055 -0.6836  1.0988 -0.7082
13784TIP3    H262768   2.088   0.043   3.074 -0.3214 -0.0591  0.1534
13785TIP3   OH262769   2.277   1.530   2.798 -0.2737 -0.0866  0.1111
13785TIP3    H162770   2.237   1.454   2.841  0.3111  0.4192  1.6307
13785TIP3    H262771   2.206   1.593   2.791 -0.6243 -0.5493 -0.6373
13786TIP3   OH262772   0.775   6.135   0.554 -0.2404  0.7162  0.5019
13786TIP3    H162773   0.775   6.112   0.647  2.5632  0.7722  0.6205
13786TIP3    H262774   0.732   6.221   0.550 -0.4766  0.6730  1.7258
13787TIP3   OH262775   5.504   3.082   5.504 -0.0384 -0.3372  0.1686
13787TIP3    H162776   5.592   3.056   5.530 -0.4538 -0.9878  1.0097
13787TIP3    H262777   5.463   3.112   5.585 -0.9745 -1.2323  0.0588
13788TIP3   OH262778   6.257   0.727   0.178 -0.0867 -0.0247 -0.2779
13788TIP3    H162779   6.240   0.633   0.175  0.4193 -0.1114 -0.5057
13788TIP3    H262780   6.179   0.767   0.138  0.4672 -0.4464 -1.8463
13789TIP3   OH262781   2.443   5.866   2.407 -0.1244 -0.2662 -0.0099
13789TIP3    H162782   2.454   5.930   2.477 -3.8179 -1.3441  1.7891
13789TIP3    H262783   2.530   5.825   2.398  0.8624  0.9565  2.8580
13790TIP3   OH262784   0.519   0.269   5.565 -0.1001  0.4879 -0.2480
13790TIP3    H162785   0.608   0.236   5.579 -0.6973 -0.9543  0.4212
13790TIP3    H262786   0.463   0.205   5.609 -1.6109  0.0722 -2.5699
13791TIP3   OH262787   6.743   5.943   4.445  0.2139  0.8656  0.2956
13791TIP3    H162788   6.669   5.941   4.505 -0.3943 -0.3184 -0.4534
13791TIP3    H262789   6.811   5.891   4.488 -0.3273 -0.2371 -0.1371
13792TIP3   OH262790   3.126   5.579  13.625 -0.0043 -0.3778 -0.4346
13792TIP3    H162791   3.220   5.561  13.632 -0.2219 -1.3878  0.1389
13792TIP3    H262792   3.085   5.492  13.623 -1.1390 -0.0501  2.4743
13793TIP3   OH262793   4.635   0.694   3.461 -0.1218  0.6594  0.0519
13793TIP3    H162794   4.543   0.675   3.481 -0.3073  1.2120 -0.2760
13793TIP3    H262795   4.683   0.655   3.534 -0.6289  0.5226  0.3177
13794TIP3   OH262796   4.048   0.558  13.955 -0.3132 -0.0055 -0.1946
13794TIP3    H162797   4.103   0.546  13.877  3.0310  1.2024  1.7699
13794TIP3    H262798   4.042   0.470  13.994 -0.2194 -0.2417 -0.7029
13795TIP3   OH262799   0.361   5.687   1.326 -0.1719  0.0120  0.2361
13795TIP3    H162800   0.435   5.717   1.273  0.0567 -0.3563  0.3407
13795TIP3    H262801   0.347   5.597   1.297 -1.3914  0.4743 -0.6800
13796TIP3   OH262802   0.674   2.763  12.109  0.2666 -0.0886 -0.0859
13796TIP3    H162803   0.645   2.849  12.079  0.5660  0.5031  1.2177
13796TIP3    H262804   0.608   2.736  12.173 -0.4485 -1.3768 -1.3248
13797TIP3   OH262805   3.506   6.328  15.342 -0.2860 -0.0891  0.2311
13797TIP3    H162806   3.533   6.281  15.263 -1.2349 -0.6109  0.2013
13797TIP3    H262807   3.543   6.416  15.332 -0.3329 -0.1752 -0.7480
13798TIP3   OH262808   4.079   2.627  12.774 -0.0533  0.2388 -0.0203
13798TIP3    H162809   4.114   2.716  12.767 -1.9346  1.0130 -0.1340
13798TIP3    H262810   4.106   2.585  12.692  3.6078 -0.4323  1.3354
13799TIP3   OH262811   4.044   0.886  11.509  0.1075  0.1846 -0.2774
13799TIP3    H162812   4.076   0.975  11.525 -3.1545  1.2472  1.1129
13799TIP3    H262813   4.024   0.884  11.415 -1.0006  1.3995 -0.0885
13800TIP3   OH262814   0.806   2.263   2.293 -0.0231  0.3520  0.3527
13800TIP3    H162815   0.901   2.277   2.295 -0.1446  1.3175  2.9886
13800TIP3    H262816   0.768   2.349   2.310 -1.5165  0.3488 -2.3256
13801TIP3   OH262817   0.994   0.126  16.492  0.2258 -0.2647  0.0922
13801TIP3    H162818   0.905   0.094  16.501 -0.2640  0.5664 -1.4732
13801TIP3    H262819   1.042   0.083  16.563 -0.8108 -2.7822 -0.6314
13802TIP3   OH262820   2.221   4.109   2.938 -0.1745 -0.0966  0.0595
13802TIP3    H162821   2.198   4.112   2.845 -0.8379  0.7030  0.2330
13802TIP3    H262822   2.157   4.050   2.977 -0.6560  0.5022  0.1961
13803TIP3   OH262823   4.166   5.506  11.795  0.1095  0.0662  0.0181
13803TIP3    H162824   4.253   5.467  11.808  0.2575  0.1196 -0.7442
13803TIP3    H262825   4.183   5.600  11.785  0.0699 -0.0189 -0.9799
13804TIP3   OH262826   6.699   2.483  12.473 -0.7389  0.3476 -0.4145
13804TIP3    H162827   6.683   2.568  12.431 -0.7112  0.9430  0.7582
13804TIP3    H262828   6.697   2.502  12.566  0.2844 -0.7638 -0.1556
13805TIP3   OH262829   2.050   2.396  13.280 -0.1029  0.0336 -0.2317
13805TIP3    H162830   2.016   2.347  13.205  2.1422 -2.2645  0.1132
13805TIP3    H262831   2.105   2.465  13.242 -2.4035  1.7372 -0.6948
13806TIP3   OH262832   0.373   4.858   3.943  0.1382  0.4872 -0.0279
13806TIP3    H162833   0.402   4.828   4.029  0.8561  0.3726 -0.3011
13806TIP3    H262834   0.330   4.783   3.904  0.0211  0.4680  0.1348
13807TIP3   OH262835   3.306   5.380   2.918  0.0196 -0.1831  0.5978
13807TIP3    H162836   3.389   5.389   2.871  0.8733  2.2213  2.3362
13807TIP3    H262837   3.251   5.450   2.883 -1.4577 -1.9192 -0.7200
13808TIP3   OH262838   2.857   1.690  10.686  0.0649 -0.4574  0.8961
13808TIP3    H162839   2.769   1.726  10.670  1.3013  1.7428 -1.6484
13808TIP3    H262840   2.844   1.596  10.688 -2.4175 -0.1837  1.0160
13809TIP3   OH262841   1.510   0.254   1.156 -0.0175 -0.1949  0.1104
13809TIP3    H162842   1.508   0.292   1.243 -2.3044  1.3284 -0.4957
13809TIP3    H262843   1.424   0.212   1.146  0.3935 -0.7925 -1.2036
13810TIP3   OH262844   5.526   5.304   3.795 -0.2959 -0.1076 -0.0542
13810TIP3    H162845   5.576   5.247   3.736 -1.5317 -0.1050 -1.1532
13810TIP3    H262846   5.449   5.252   3.818  0.4275 -0.3192  2.0538
13811TIP3   OH262847   0.482   0.613  15.063  0.3610 -0.4162 -0.3032
13811TIP3    H162848   0.558   0.659  15.026  1.9488 -0.9149  2.0859
13811TIP3    H262849   0.513   0.524  15.079 -0.2337 -0.2992  1.8977
13812TIP3   OH262850   6.418   5.214   5.109 -0.4532  0.1025 -0.2175
13812TIP3    H162851   6.322   5.211   5.108 -0.4239 -0.7509 -0.5061
13812TIP3    H262852   6.440   5.279   5.043 -0.8139 -0.1869 -0.6291
13813TIP3   OH262853   2.453   5.288   3.848 -0.4322 -0.2718 -0.2416
13813TIP3    H162854   2.531   5.340   3.866 -0.8658  0.3441 -0.1067
13813TIP3    H262855   2.476   5.235   3.772 -0.3515  0.9116 -1.0623
13814TIP3   OH262856   6.531   0.106  10.911  0.1254  0.0973  0.2930
13814TIP3    H162857   6.489   0.042  10.854  1.1707 -0.4056  0.0503
13814TIP3    H262858   6.535   0.063  10.996  1.0817 -0.2981  0.0635
13815TIP3   OH262859   0.035   5.016  16.640 -0.2689 -0.0309 -0.4274
13815TIP3    H162860   0.120   5.058  16.653 -0.4235  0.3822 -0.7267
13815TIP3    H262861   0.002   5.054  16.559 -2.1417  2.2081  1.2251
13816TIP3   OH262862   6.513   2.324   3.803 -0.5810  0.3348 -0.1134
13816TIP3    H162863   6.493   2.391   3.737  0.2317  1.4714  0.7552
13816TIP3    H262864   6.521   2.243   3.753  0.2878  1.2147 -1.4633
13817TIP3   OH262865   3.811   4.478  14.431  0.1516  0.7021 -0.0327
13817TIP3    H162866   3.825   4.390  14.466  0.8975 -0.8672 -3.7850
13817TIP3    H262867   3.747   4.465  14.361  0.4818  3.1103 -0.8507
13818TIP3   OH262868   1.342   0.863   1.282  0.4199 -0.3259  0.4673
13818TIP3    H162869   1.376   0.796   1.341 -0.7294 -0.8814  0.5281
13818TIP3    H262870   1.399   0.859   1.205  0.9461 -0.6985  0.8686
13819TIP3   OH262871   0.299   4.559   4.716  0.0542  0.0060 -0.2434
13819TIP3    H162872   0.332   4.537   4.803 -0.6098 -1.0377 -0.2373
13819TIP3    H262873   0.360   4.517   4.656 -0.4661 -0.7806 -0.2447
13820TIP3   OH262874   0.264   4.375   1.337 -0.3818 -0.0744 -0.4347
13820TIP3    H162875   0.353   4.410   1.337 -0.1076 -0.6801 -2.2857
13820TIP3    H262876   0.265   4.309   1.406  1.3822 -1.8194 -2.0074
13821TIP3   OH262877   1.971   2.527  13.994  0.3707  0.5158  0.5438
13821TIP3    H162878   1.925   2.556  14.073  0.4948 -1.7416  1.5280
13821TIP3    H262879   2.064   2.533  14.017  0.4003 -0.4501  0.7173
13822TIP3   OH262880   0.840   4.763  13.487 -0.5666  0.0255  0.1907
13822TIP3    H162881   0.791   4.681  13.492 -1.3424  0.3225 -1.7783
13822TIP3    H262882   0.806   4.816  13.560 -1.7129 -0.5359  0.0836
13823TIP3   OH262883   6.220   0.505  13.964  0.6427 -0.5906  0.3052
13823TIP3    H162884   6.228   0.519  14.059  0.9893  0.5408  0.1233
13823TIP3    H262885   6.304   0.536  13.929  0.5874 -1.1826 -0.3557
13824TIP3   OH262886   5.547   0.361  15.544 -0.2935 -0.8857  0.1270
13824TIP3    H162887   5.641   0.343  15.550  0.3335  1.8592 -0.3688
13824TIP3    H262888   5.533   0.384  15.453 -1.3937 -0.8540  0.2925
13825TIP3   OH262889   2.991   2.275  16.425  0.0059 -0.3427  0.0730
13825TIP3    H162890   2.956   2.214  16.489 -0.3581  0.5442  0.7496
13825TIP3    H262891   2.953   2.360  16.450  1.7638  0.4547  0.1448
13826TIP3   OH262892   6.162   4.830  16.070  0.0767  0.2145 -0.0796
13826TIP3    H162893   6.185   4.768  16.001  0.2680 -0.2328  0.3812
13826TIP3    H262894   6.070   4.811  16.090  0.0048  0.3815 -0.2434
13827TIP3   OH262895   6.636   5.081   3.051  0.1435 -0.0570  0.2446
13827TIP3    H162896   6.577   5.016   3.013 -0.5697 -1.6311  3.7177
13827TIP3    H262897   6.724   5.043   3.040  0.2349  0.5922 -1.6835
13828TIP3   OH262898   0.285   2.539   4.530 -0.1878  0.1291  0.0349
13828TIP3    H162899   0.257   2.536   4.621 -1.7951 -0.3418 -0.4420
13828TIP3    H262900   0.233   2.609   4.491 -0.3704 -0.4335 -0.7737
13829TIP3   OH262901   1.539   3.261  12.269  0.2721 -0.1295 -0.3285
13829TIP3    H162902   1.601   3.255  12.342 -0.8696  0.4721  0.7314
13829TIP3    H262903   1.584   3.312  12.203  1.0708 -0.0872  0.2383
13830TIP3   OH262904   6.417   3.500   5.486 -0.3478 -0.1669  0.6121
13830TIP3    H162905   6.355   3.452   5.541 -1.1114 -0.6155 -0.6207
13830TIP3    H262906   6.419   3.588   5.524 -0.8988 -0.4519  1.3219
13831TIP3   OH262907   0.217   2.621  14.647  0.4955 -0.2153  0.1899
13831TIP3    H162908   0.125   2.614  14.673  0.2969  2.1762  0.3862
13831TIP3    H262909   0.250   2.698  14.695  2.4733 -0.7428 -0.2239
13832TIP3   OH262910   6.678   0.469   5.529  0.3637  0.4848  0.1695
13832TIP3    H162911   6.693   0.442   5.438  2.1448  3.9743 -0.7274
13832TIP3    H262912   6.636   0.393   5.570  0.6274 -1.6738 -3.2131
13833TIP3   OH262913   5.424   2.578  15.833 -0.0577 -0.2822  0.2496
13833TIP3    H162914   5.459   2.649  15.887 -1.3792  0.3447  0.3219
13833TIP3    H262915   5.331   2.572  15.857  0.1182 -2.4000  0.6180
13834TIP3   OH262916   6.638   5.557   4.835  0.3167  0.7306  0.1229
13834TIP3    H162917   6.593   5.625   4.885 -0.4944 -0.8701  1.7066
13834TIP3    H262918   6.708   5.528   4.892 -0.6962 -1.2221  0.4556
13835TIP3   OH262919   4.898   4.729   0.072  0.4501  0.1505 -0.2351
13835TIP3    H162920   4.970   4.792   0.077 -0.7676  1.5973 -0.1094
13835TIP3    H262921   4.824   4.775   0.112 -0.3875 -1.5348  0.2248
13836TIP3   OH262922   3.789   2.940   5.869 -1.2048 -0.3586 -0.2343
13836TIP3    H162923   3.728   3.014   5.866 -1.4199 -0.5687 -1.8558
13836TIP3    H262924   3.829   2.939   5.782 -0.1554 -1.2894  0.2424
13837TIP3   OH262925   2.970   6.368   6.569  0.0079  0.0915 -0.1327
13837TIP3    H162926   2.971   6.329   6.656 -0.2825 -0.2378 -0.2737
13837TIP3    H262927   2.882   6.351   6.536 -0.1979  1.0873 -0.1008
13838TIP3   OH262928   2.915   4.427  11.244  0.1768 -0.0178  0.6615
13838TIP3    H162929   2.923   4.423  11.339  0.4868 -1.5175  0.6081
13838TIP3    H262930   2.952   4.344  11.214 -0.4793  0.1649 -0.7342
13839TIP3   OH262931   4.471   4.270   4.615 -0.0914  0.3365  0.1606
13839TIP3    H162932   4.407   4.232   4.674  1.1167 -1.9228  0.1358
13839TIP3    H262933   4.458   4.365   4.622 -1.7397  0.0251  1.9926
13840TIP3   OH262934   6.377   5.096  14.120 -0.0765 -0.2130  0.5063
13840TIP3    H162935   6.460   5.144  14.121 -0.7169  1.0600 -1.6300
13840TIP3    H262936   6.375   5.053  14.034 -1.1181 -1.2179  1.0022
13841TIP3   OH262937   2.864   0.110   3.807 -0.4026 -0.9389  0.0512
13841TIP3    H162938   2.791   0.089   3.865 -1.8089 -0.6271 -1.5139
13841TIP3    H262939   2.896   0.025   3.777 -0.4762 -1.0673  0.3367
13842TIP3   OH262940   2.487   1.001   2.525  0.2164  0.2329 -0.2535
13842TIP3    H162941   2.544   0.998   2.448 -0.8955 -1.1595 -1.0656
13842TIP3    H262942   2.522   0.934   2.583 -1.0557 -1.2436 -1.1315
13843TIP3   OH262943   4.357   6.337   1.745  0.4545  0.4295  0.1089
13843TIP3    H162944   4.420   6.280   1.789 -0.8358  0.3637  2.0131
13843TIP3    H262945   4.299   6.367   1.815 -1.3916  0.8061 -1.4871
13844TIP3   OH262946   3.513   4.780  11.749  0.6345  0.2173 -0.0303
13844TIP3    H162947   3.446   4.715  11.771  1.0762 -0.0172  0.6439
13844TIP3    H262948   3.520   4.834  11.827 -0.7844  2.0442 -1.0818
13845TIP3   OH262949   3.983   0.203  13.904  0.7265  0.5124 -0.2790
13845TIP3    H162950   4.054   0.144  13.878 -1.2866 -2.3640  0.2784
13845TIP3    H262951   3.943   0.229  13.821 -0.8843 -2.3824 -0.5452
13846TIP3   OH262952   4.687   5.021  11.963 -0.4386 -0.2798 -0.1043
13846TIP3    H162953   4.705   4.995  12.053  1.5901 -0.5878 -0.5591
13846TIP3    H262954   4.771   5.014  11.919 -1.0887  1.2361 -1.6949
13847TIP3   OH262955   1.532   1.805  15.794 -0.7871 -0.2374 -0.3806
13847TIP3    H162956   1.602   1.778  15.735 -0.3947 -0.8472  0.3447
13847TIP3    H262957   1.487   1.723  15.817 -1.8458  0.1601 -0.9618
13848TIP3   OH262958   0.845   1.791   4.286  0.3181  0.6674 -0.2674
13848TIP3    H162959   0.755   1.796   4.320 -0.1146  0.6076 -1.3524
13848TIP3    H262960   0.890   1.866   4.323 -0.1294  0.5876  0.4465
13849TIP3   OH262961   4.055   6.392   3.739 -0.2679  0.3604 -0.0890
13849TIP3    H162962   4.077   6.464   3.798 -1.5156 -0.0809  0.9407
13849TIP3    H262963   3.960   6.397   3.729 -0.2760 -0.6600 -0.6344
13850TIP3   OH262964   6.557   5.760   4.254  0.0533  0.1969  0.2061
13850TIP3    H162965   6.633   5.751   4.198  0.0318  2.5810 -0.3297
13850TIP3    H262966   6.593   5.765   4.343  0.5090  0.9978 -0.0169
13851TIP3   OH262967   5.097   5.026   6.107  0.8932 -0.0594 -0.6410
13851TIP3    H162968   5.044   4.948   6.121  0.3839  0.4408  0.2661
13851TIP3    H262969   5.188   4.996   6.115  0.6831 -0.2399  1.5423
13852TIP3   OH262970   2.135   2.562  11.249 -0.1645  0.1059  0.7283
13852TIP3    H162971   2.040   2.570  11.254 -0.1006  0.9902  0.7154
13852TIP3    H262972   2.167   2.649  11.273  0.6613 -0.3842  1.4591
13853TIP3   OH262973   1.517   5.597   4.617  0.1424 -0.0024  0.3485
13853TIP3    H162974   1.580   5.645   4.671  1.1340  0.3857 -1.1158
13853TIP3    H262975   1.568   5.527   4.578 -0.8492 -1.0373  0.8512
13854TIP3   OH262976   2.761   0.291   2.126 -0.4163 -0.6479  0.2102
13854TIP3    H162977   2.838   0.239   2.105 -0.5917 -0.2536 -1.5920
13854TIP3    H262978   2.687   0.238   2.097 -0.5610  0.8348 -2.4234
13855TIP3   OH262979   3.431   2.923  10.511 -0.1961 -0.5722 -0.4487
13855TIP3    H162980   3.396   2.963  10.591  0.8025  1.2029 -0.8280
13855TIP3    H262981   3.356   2.880  10.471 -1.1257  0.0653  0.5484
13856TIP3   OH262982   0.842   0.323  14.070  0.3291 -0.2841 -0.1672
13856TIP3    H162983   0.926   0.290  14.102  1.2369  1.1583 -0.9582
13856TIP3    H262984   0.865   0.375  13.993 -1.2532  0.4981 -0.1396
13857TIP3   OH262985   3.711   0.123   3.009  0.5789  0.2363 -0.5180
13857TIP3    H162986   3.717   0.051   2.946 -2.1486 -0.9347  0.4279
13857TIP3    H262987   3.791   0.116   3.060  1.3012 -0.8675 -1.7184
13858TIP3   OH262988   2.550   2.174  16.343  0.0659  0.5590 -0.2504
13858TIP3    H162989   2.486   2.209  16.405  0.6412  0.3545  0.4691
13858TIP3    H262990   2.621   2.238  16.344  0.7722 -0.2063  0.4826
13859TIP3   OH262991   5.482   6.612   2.805  0.0097 -0.6811 -0.3614
13859TIP3    H162992   5.563   6.661   2.795 -0.4316  0.3581  0.9444
13859TIP3    H262993   5.500   6.551   2.877 -1.0924  1.2539  1.6580
13860TIP3   OH262994   2.908   1.356  16.504 -0.6129 -0.2185  0.1888
13860TIP3    H162995   2.910   1.435  16.558 -0.1231 -0.5482  0.6680
13860TIP3    H262996   2.901   1.388  16.415 -0.9219  0.3498  0.4126
13861TIP3   OH262997   1.180   0.425   5.649  0.1876 -0.8714  0.3490
13861TIP3    H162998   1.192   0.331   5.661 -4.1712 -1.3806  2.7394
13861TIP3    H262999   1.122   0.432   5.573  0.4164 -0.1139  0.2412
13862TIP3   OH263000   2.033   5.198   4.407  0.1420 -0.0490  0.4926
13862TIP3    H163001   2.075   5.113   4.391  1.0882  0.2359  1.3540
13862TIP3    H263002   2.073   5.257   4.343 -0.3334 -0.1775  0.0634
13863TIP3   OH263003   0.165   6.399   5.989  1.0397  0.1412  0.5016
13863TIP3    H163004   0.109   6.322   5.992  2.1340 -0.8403 -1.8737
13863TIP3    H263005   0.247   6.371   6.031  0.7627  0.6628  1.4102
13864TIP3   OH263006   2.543   0.980   2.078  0.3344  0.2178 -0.1623
13864TIP3    H163007   2.609   1.012   2.139  0.2234  0.6051 -0.2466
13864TIP3    H263008   2.566   1.018   1.994  0.8091 -0.7558 -0.4891
13865TIP3   OH263009   3.317   1.901   0.658 -0.3208 -0.0265  0.2671
13865TIP3    H163010   3.387   1.887   0.595 -0.6257  0.6305 -0.2260
13865TIP3    H263011   3.322   1.994   0.680 -1.8325  0.3352 -0.7515
13866TIP3   OH263012   2.470   0.503   5.892 -0.3161  0.0374 -0.1309
13866TIP3    H163013   2.512   0.588   5.909 -0.5970  0.2026 -0.2562
13866TIP3    H263014   2.385   0.509   5.936 -0.6221  0.0823 -0.7164
13867TIP3   OH263015   1.565   0.187   1.893  0.1847 -0.6018  0.1149
13867TIP3    H163016   1.611   0.133   1.957  1.5651 -0.1480 -0.4598
13867TIP3    H263017   1.556   0.129   1.816 -0.0184 -0.6281  0.1598
13868TIP3   OH263018   5.515   1.867  16.231 -0.0426  0.2754  0.0241
13868TIP3    H163019   5.505   1.953  16.191 -2.0457  0.6858  1.2859
13868TIP3    H263020   5.586   1.878  16.294 -0.6123  1.1738  0.5301
13869TIP3   OH263021   0.340   1.880  14.474 -0.5476 -0.2810 -0.4556
13869TIP3    H163022   0.395   1.887  14.552  1.3764  0.0391 -1.7521
13869TIP3    H263023   0.368   1.952  14.418 -0.9383 -1.2432 -1.9746
13870TIP3   OH263024   4.171   2.114  12.143 -0.4590  0.0311  0.1512
13870TIP3    H163025   4.255   2.157  12.157 -0.8374  0.1447  2.5272
13870TIP3    H263026   4.171   2.040  12.203 -0.8124 -1.9134 -2.1278
13871TIP3   OH263027   4.969   3.420   1.228  0.0659 -0.2849 -0.3911
13871TIP3    H163028   5.008   3.464   1.152 -1.6189 -0.6802 -1.5245
13871TIP3    H263029   4.944   3.492   1.287 -0.5554  0.1630 -1.1843
13872TIP3   OH263030   1.659   4.451  14.409  0.1837  0.0313  0.4391
13872TIP3    H163031   1.617   4.392  14.347 -1.3952  1.3137  0.2293
13872TIP3    H263032   1.752   4.427  14.405 -0.2314 -1.5586 -0.5670
13873TIP3   OH263033   3.288   6.543  11.785  0.0358  0.4369  0.2375
13873TIP3    H163034   3.259   6.614  11.728 -1.4974  0.6183  1.1804
13873TIP3    H263035   3.246   6.465  11.750 -0.1898  0.4002  0.5839
13874TIP3   OH263036   0.561   2.725   4.715  0.0847  0.9796  0.2962
13874TIP3    H163037   0.471   2.753   4.729 -0.3900 -0.4897  0.3238
13874TIP3    H263038   0.554   2.637   4.677  1.4883  0.3018  1.4839
13875TIP3   OH263039   4.999   2.113   1.878  0.5607 -0.3443 -0.3184
13875TIP3    H163040   4.946   2.041   1.844  0.6287 -1.0277  0.9628
13875TIP3    H263041   4.976   2.188   1.823 -0.4690 -1.0367 -0.8605
13876TIP3   OH263042   1.369   2.830  15.978 -0.0205 -0.0588 -0.4761
13876TIP3    H163043   1.367   2.849  15.884  0.5785  0.4541 -0.3906
13876TIP3    H263044   1.287   2.867  16.011  0.1764  0.5560 -0.6571
13877TIP3   OH263045   2.053   2.287   3.541 -0.2579 -0.2496 -0.3611
13877TIP3    H163046   2.100   2.290   3.458 -1.4063 -1.1417 -1.0636
13877TIP3    H263047   2.094   2.355   3.594  2.6084 -1.7394 -0.4977
13878TIP3   OH263048   1.728   0.217  14.711  0.3212 -0.0382 -0.7536
13878TIP3    H163049   1.653   0.256  14.667 -0.9766 -1.0210  0.4731
13878TIP3    H263050   1.765   0.155  14.648 -0.9656 -0.7904 -0.7961
13879TIP3   OH263051   0.555   2.286  11.300 -0.2948  0.2072  0.0185
13879TIP3    H163052   0.595   2.353  11.356 -0.2254  0.2281 -0.0555
13879TIP3    H263053   0.629   2.235  11.268 -0.0824  1.6109 -1.9289
13880TIP3   OH263054   1.171   6.741   2.060  0.2135 -0.9759 -0.0000
13880TIP3    H163055   1.178   6.763   1.967 -2.4346  1.3784  0.2161
13880TIP3    H263056   1.254   6.771   2.098  0.8369 -0.8458 -1.4051
13881TIP3   OH263057   2.899   4.130   3.920 -0.0828 -0.8949 -0.5084
13881TIP3    H163058   2.902   4.188   3.997 -2.0551  1.1221 -1.8449
13881TIP3    H263059   2.969   4.162   3.863 -0.1617 -0.8406 -0.5749
13882TIP3   OH263060   3.233   4.295  11.624 -0.3328  0.5769  0.5803
13882TIP3    H163061   3.283   4.300  11.706 -0.6985  0.1904  0.8307
13882TIP3    H263062   3.262   4.213  11.584 -0.8233  0.3046  0.7700
13883TIP3   OH263063   3.831   4.243  13.555  0.4365  1.0094 -0.2647
13883TIP3    H163064   3.738   4.222  13.563 -0.0741  2.7012 -1.3448
13883TIP3    H263065   3.839   4.333  13.584  1.8935  0.6635  0.5260
13884TIP3   OH263066   6.122   3.321  11.431  0.4899  0.7416 -0.1707
13884TIP3    H163067   6.081   3.314  11.345  0.8176 -0.4036 -0.2527
13884TIP3    H263068   6.071   3.262  11.487  1.0054  0.5612  0.1185
13885TIP3   OH263069   4.756   3.544  15.424 -0.4153  0.2599 -0.0577
13885TIP3    H163070   4.744   3.553  15.330  0.7465  2.7661 -0.0360
13885TIP3    H263071   4.675   3.579  15.462  0.0366  1.4389 -0.1339
13886TIP3   OH263072   3.169   6.734   5.658  0.0610  0.0641  0.3975
13886TIP3    H163073   3.115   6.813   5.658 -0.8071 -0.5083  1.1928
13886TIP3    H263074   3.107   6.663   5.678  0.7711 -0.8549 -0.5640
13887TIP3   OH263075   3.353   2.770   2.829  0.1287  0.4209  0.4621
13887TIP3    H163076   3.373   2.841   2.890  0.7980  1.7736 -1.2118
13887TIP3    H263077   3.269   2.795   2.790  0.6139  0.6252 -0.5098
13888TIP3   OH263078   5.710   4.832  13.620  0.1526  0.2686 -0.2475
13888TIP3    H163079   5.772   4.827  13.547 -0.9027  0.1125 -1.1524
13888TIP3    H263080   5.725   4.751  13.668  0.3867  0.0533 -0.6716
13889TIP3   OH263081   1.787   1.722  12.325  0.7404 -0.1059 -0.2632
13889TIP3    H163082   1.717   1.656  12.331  1.0794 -0.5153 -0.7545
13889TIP3    H263083   1.747   1.795  12.278  0.3508  0.0559  0.3148
13890TIP3   OH263084   4.146   4.424  16.875  0.1176  0.1343  0.5572
13890TIP3    H163085   4.182   4.499  16.828  0.5882 -0.1089  0.5141
13890TIP3    H263086   4.192   4.424  16.959 -2.4756  2.0353  2.1149
13891TIP3   OH263087   2.945   6.497  10.908  0.3155 -0.2310  0.2344
13891TIP3    H163088   3.002   6.512  10.832  1.3867 -1.2319  0.8055
13891TIP3    H263089   3.003   6.507  10.983  0.0500 -2.3700  0.7952
13892TIP3   OH263090   1.783   3.855  15.047  0.1503  0.5834 -0.1508
13892TIP3    H163091   1.741   3.939  15.029 -1.3590  0.0379  0.6796
13892TIP3    H263092   1.765   3.838  15.139 -1.1932 -1.4861 -0.7100
13893TIP3   OH263093   5.610   1.572  11.948  0.1704 -0.1133  0.6426
13893TIP3    H163094   5.520   1.581  11.979  0.5562  2.6181  1.2153
13893TIP3    H263095   5.635   1.483  11.973 -2.5282 -1.2268 -0.1390
13894TIP3   OH263096   4.394   5.709   6.462  0.1981  0.1663 -0.7318
13894TIP3    H163097   4.407   5.637   6.524 -1.2022  0.2719 -0.2793
13894TIP3    H263098   4.476   5.712   6.412  0.4397 -1.4878 -0.5106
13895TIP3   OH263099   4.145   1.890   3.690  0.4063 -0.2595  0.2574
13895TIP3    H163100   4.145   1.982   3.666 -0.4026 -0.2237  0.3958
13895TIP3    H263101   4.205   1.849   3.627  1.2966  0.4579  0.6189
13896TIP3   OH263102   3.897   4.317   2.917  0.1968  0.7878  0.0563
13896TIP3    H163103   3.923   4.244   2.974 -0.9842  0.3533  0.0579
13896TIP3    H263104   3.905   4.394   2.973  0.6146  0.5603  0.3218
13897TIP3   OH263105   5.653   4.394  13.999  0.2542 -0.4836 -0.3387
13897TIP3    H163106   5.692   4.481  14.009  0.7058 -0.5622 -1.2453
13897TIP3    H263107   5.597   4.383  14.075  2.2938 -0.5167  1.2613
13898TIP3   OH263108   5.838   1.118   6.459 -0.4620 -0.3913  0.0043
13898TIP3    H163109   5.850   1.199   6.508  1.2130 -0.5619 -0.0809
13898TIP3    H263110   5.849   1.049   6.524  1.5101 -0.6106 -0.5188
13899TIP3   OH263111   5.689   0.220   5.453 -0.4463 -0.3009  0.6050
13899TIP3    H163112   5.763   0.237   5.395 -0.9929 -1.2101 -0.3836
13899TIP3    H263113   5.659   0.307   5.481 -0.8740  0.2282 -1.3790
13900TIP3   OH263114   3.988   1.502   2.820 -0.5242  0.1020 -0.2137
13900TIP3    H163115   3.960   1.527   2.908 -0.9590  1.3875 -0.6799
13900TIP3    H263116   4.074   1.463   2.831 -1.1658 -1.0768  0.9260
13901TIP3   OH263117   4.246   0.546  13.362  0.2674 -0.6084 -0.1153
13901TIP3    H163118   4.203   0.523  13.279 -0.3857  0.3468 -0.0577
13901TIP3    H263119   4.181   0.596  13.410  0.1975 -2.1835  1.5358
13902TIP3   OH263120   2.772   0.529   5.004  0.0716  0.2067  0.0668
13902TIP3    H163121   2.784   0.557   5.095  1.8662 -0.8336  0.2070
13902TIP3    H263122   2.789   0.607   4.952  0.1294  0.5411  0.5798
13903TIP3   OH263123   4.752   1.446  16.448 -0.2318  0.0309  0.6578
13903TIP3    H163124   4.722   1.532  16.418  0.6240  0.1341  0.0444
13903TIP3    H263125   4.757   1.393  16.368 -1.7489 -0.9163  1.1701
13904TIP3   OH263126   5.000   4.055   2.093 -0.6993 -0.0033 -0.6426
13904TIP3    H163127   4.998   3.995   2.019  0.0578  0.2353 -0.8608
13904TIP3    H263128   5.038   4.135   2.059  1.3271 -0.4546  0.3930
13905TIP3   OH263129   1.758   1.117   1.767  0.4745 -0.1092 -0.0861
13905TIP3    H163130   1.710   1.130   1.686  0.4906  0.2576 -0.0369
13905TIP3    H263131   1.760   1.203   1.809  1.3138 -0.0792 -0.1664
13906TIP3   OH263132   4.509   2.939   6.303 -0.0495  0.5799 -0.2071
13906TIP3    H163133   4.486   2.858   6.348 -1.1725  2.5988  3.1771
13906TIP3    H263134   4.605   2.942   6.305 -0.0142 -0.4274 -0.0056
13907TIP3   OH263135   6.151   2.836   0.396 -0.0858  0.1512 -0.4296
13907TIP3    H163136   6.172   2.801   0.309 -2.1841  0.3355 -1.0707
13907TIP3    H263137   6.178   2.767   0.456  3.3593  0.8494 -0.9613
13908TIP3   OH263138   4.580   3.088   3.108  0.4786 -0.0423 -0.0188
13908TIP3    H163139   4.570   3.181   3.128  2.1642  0.5663 -1.7861
13908TIP3    H263140   4.506   3.068   3.051  0.1826  0.2257  0.2629
13909TIP3   OH263141   4.647   3.371  15.672  0.1999  0.5344  0.1260
13909TIP3    H163142   4.570   3.399  15.721 -0.7571 -0.5195 -0.7026
13909TIP3    H263143   4.720   3.416  15.713 -0.8979  1.8170  0.7375
13910TIP3   OH263144   0.868   2.540  12.932  0.6081 -0.0523 -0.2442
13910TIP3    H163145   0.787   2.499  12.960 -0.4431  2.0207 -0.0491
13910TIP3    H263146   0.891   2.601  13.003  1.7596  0.1674 -0.7677
13911TIP3   OH263147   0.335   2.261   1.252 -0.7368 -0.1697 -0.1277
13911TIP3    H163148   0.239   2.258   1.250 -0.7343 -0.0728 -0.4491
13911TIP3    H263149   0.362   2.200   1.183 -0.5530 -0.8738  0.5536
13912TIP3   OH263150   0.708   3.742   2.242  0.4524 -0.1693  0.1912
13912TIP3    H163151   0.790   3.727   2.196  1.2032  0.2889  1.3339
13912TIP3    H263152   0.693   3.661   2.291 -0.2341 -0.5764 -0.6691
13913TIP3   OH263153   4.252   1.703  14.800 -0.4098  0.4085  0.2247
13913TIP3    H163154   4.182   1.742  14.748  0.7180  1.1376 -0.8218
13913TIP3    H263155   4.278   1.773  14.860  1.7322  1.4721 -1.7693
13914TIP3   OH263156   4.812   4.144   3.738 -0.1757  0.3152 -0.2060
13914TIP3    H163157   4.794   4.082   3.667  1.2663  0.0565 -0.3638
13914TIP3    H263158   4.849   4.221   3.693  0.6099  0.2064  0.2478
13915TIP3   OH263159   4.535   1.405   4.887  0.1209 -0.2537  0.3458
13915TIP3    H163160   4.442   1.388   4.875  0.3710 -1.6697  0.2367
13915TIP3    H263161   4.539   1.494   4.922 -1.4345 -0.9428  2.5054
13916TIP3   OH263162   1.835   6.330   2.349 -0.5660  0.6079  0.3025
13916TIP3    H163163   1.746   6.362   2.364 -0.1924  2.0173 -0.2854
13916TIP3    H263164   1.888   6.410   2.340  0.2629 -0.1170 -2.2739
13917TIP3   OH263165   4.013   4.695   2.892 -0.2151  0.3247 -0.0908
13917TIP3    H163166   4.018   4.764   2.958 -1.9972  1.3589 -0.9611
13917TIP3    H263167   4.001   4.614   2.942  0.5094  0.8091  0.8938
13918TIP3   OH263168   2.441   6.095  16.924 -0.3229 -0.3662 -0.3735
13918TIP3    H163169   2.530   6.118  16.953 -0.3149 -0.6631 -0.1547
13918TIP3    H263170   2.449   6.084  16.830  0.1123 -1.4521 -0.2242
13919TIP3   OH263171   5.686   4.716  12.721  0.1992 -0.1131 -0.1746
13919TIP3    H163172   5.761   4.758  12.762 -0.3395  0.1245  0.5770
13919TIP3    H263173   5.625   4.787  12.703 -0.0329 -0.3626 -0.3925
13920TIP3   OH263174   6.319   2.556  12.752 -0.7312  1.4289 -0.6229
13920TIP3    H163175   6.369   2.482  12.717  0.3223  0.8168  1.9268
13920TIP3    H263176   6.318   2.620  12.681  2.2010  0.7468 -1.4169
13921TIP3   OH263177   4.085   0.145   1.388 -0.1944 -0.5518  0.4648
13921TIP3    H163178   4.071   0.075   1.452 -2.1639 -1.4121 -0.8093
13921TIP3    H263179   4.024   0.214   1.416  0.2483 -0.1859  0.5325
13922TIP3   OH263180   0.271   6.357   0.603 -0.0741  0.3112  0.2574
13922TIP3    H163181   0.240   6.448   0.600 -0.4548  0.1676 -1.4247
13922TIP3    H263182   0.284   6.334   0.511  0.8902 -1.0585  0.7073
13923TIP3   OH263183   4.325   6.742  11.698  0.1145  0.5356 -0.6049
13923TIP3    H163184   4.349   6.830  11.671  1.6968  1.4101  3.0541
13923TIP3    H263185   4.399   6.687  11.673  1.0984  1.1356  0.8610
13924TIP3   OH263186   2.829   1.511   3.153 -0.3127  0.2043 -0.3234
13924TIP3    H163187   2.895   1.492   3.219 -0.8806  0.8788  0.4474
13924TIP3    H263188   2.746   1.486   3.194 -0.5831 -0.3382 -1.1655
13925TIP3   OH263189   4.370   4.240  14.087 -0.0702  0.0430 -0.2931
13925TIP3    H163190   4.349   4.270  13.999 -0.3685  0.3772 -0.1158
13925TIP3    H263191   4.417   4.314  14.127 -1.5230  0.6192  0.4210
13926TIP3   OH263192   2.970   5.832   2.766 -0.3298 -0.0793  0.2517
13926TIP3    H163193   3.006   5.768   2.827 -0.9873 -1.2517 -0.5612
13926TIP3    H263194   2.997   5.801   2.680 -0.1013  1.1114 -0.1316
13927TIP3   OH263195   1.641   4.349   5.575 -0.5129 -0.2172  0.6987
13927TIP3    H163196   1.603   4.278   5.627 -1.0638 -2.2088 -2.1591
13927TIP3    H263197   1.735   4.342   5.588 -0.4703 -2.2712 -0.3410
13928TIP3   OH263198   4.710   2.671   2.028  0.1915 -0.0024  0.2470
13928TIP3    H163199   4.691   2.627   2.111  0.5700 -0.0141  0.3259
13928TIP3    H263200   4.667   2.757   2.037 -0.8140 -0.4589 -0.0304
13929TIP3   OH263201   1.040   6.100  13.125 -0.1339 -0.6078  0.1474
13929TIP3    H163202   1.064   6.183  13.084 -0.1707 -1.0640 -0.8278
13929TIP3    H263203   1.114   6.042  13.107  0.6787 -0.3510  2.2846
13930TIP3   OH263204   1.579   3.626  10.962 -0.0189 -0.1527  0.2799
13930TIP3    H163205   1.649   3.579  10.916  1.0153 -0.3132  1.9456
13930TIP3    H263206   1.534   3.558  11.011 -0.5046  0.1548  0.2618
13931TIP3   OH263207   4.816   2.431  13.489 -0.3088 -0.3555  0.7426
13931TIP3    H163208   4.768   2.349  13.476  2.1755 -2.0891  1.5047
13931TIP3    H263209   4.810   2.448  13.583  0.3640 -0.5159  0.8252
13932TIP3   OH263210   4.587   1.985  10.881  0.3878  0.4130  0.6667
13932TIP3    H163211   4.603   1.935  10.961 -0.5862  0.1169  0.6940
13932TIP3    H263212   4.532   1.928  10.827 -0.3793  1.2639  0.5135
13933TIP3   OH263213   6.660   3.581  15.847  0.4192  0.3472  0.4794
13933TIP3    H163214   6.634   3.600  15.937  1.3553  0.0745  0.8210
13933TIP3    H263215   6.700   3.662  15.815  1.2352  0.0615  0.7495
13934TIP3   OH263216   1.114   1.336   3.531 -0.3593  0.3419 -0.0585
13934TIP3    H163217   1.107   1.408   3.593  0.5733  0.5572 -0.1736
13934TIP3    H263218   1.060   1.362   3.457  0.8454  1.4718 -0.5756
13935TIP3   OH263219   4.233   1.842  12.740 -0.3520 -0.1395  0.0179
13935TIP3    H163220   4.287   1.834  12.819 -0.3299  1.6850  0.2392
13935TIP3    H263221   4.144   1.855  12.773 -0.3387  0.6473 -0.2231
13936TIP3   OH263222   2.527   3.470   0.745 -0.0937  0.1990 -0.4921
13936TIP3    H163223   2.439   3.479   0.708  0.4213 -0.7697 -2.0340
13936TIP3    H263224   2.529   3.380   0.779 -0.4535  0.9647  1.7292
13937TIP3   OH263225   2.813   3.067   6.114  0.4108 -0.0155 -0.1841
13937TIP3    H163226   2.902   3.037   6.134  0.2222 -0.0765  0.6336
13937TIP3    H263227   2.824   3.158   6.085  0.8194 -0.3125 -0.9881
13938TIP3   OH263228   3.328   1.239   4.889 -0.2345 -0.0099 -0.6488
13938TIP3    H163229   3.383   1.317   4.876  0.7444 -0.5701 -0.0350
13938TIP3    H263230   3.298   1.216   4.801  2.4606 -1.0471 -1.3966
13939TIP3   OH263231   2.874   3.817   0.809 -0.3051  0.1174  0.0618
13939TIP3    H163232   2.839   3.829   0.721  0.0091  1.1655  0.0753
13939TIP3    H263233   2.819   3.747   0.847 -0.5472 -0.2209 -0.8898
13940TIP3   OH263234   4.060   5.402   0.468 -0.0720 -0.2066  0.4356
13940TIP3    H163235   4.002   5.349   0.413  0.1407 -0.2052  0.2083
13940TIP3    H263236   4.010   5.417   0.548 -1.1636  1.3781 -0.4748
13941TIP3   OH263237   6.681   3.542  11.361  0.3337 -0.0244 -0.0135
13941TIP3    H163238   6.614   3.474  11.363 -1.0137  1.2699  0.8105
13941TIP3    H263239   6.700   3.559  11.453  1.1572  0.2347 -0.2258
13942TIP3   OH263240   4.274   5.754   1.985 -0.9505 -0.2614  0.2376
13942TIP3    H163241   4.320   5.679   2.022 -1.7642 -1.7756 -1.6484
13942TIP3    H263242   4.212   5.780   2.053 -0.2428 -0.8944  1.1529
13943TIP3   OH263243   5.335   5.304  13.701 -0.1468 -0.5750  0.0431
13943TIP3    H163244   5.342   5.208  13.699  1.0635 -0.6457  3.0862
13943TIP3    H263245   5.261   5.321  13.759 -0.6103  0.3766 -0.8045
13944TIP3   OH263246   4.547   4.850   1.605 -0.2881 -0.4300  0.1048
13944TIP3    H163247   4.530   4.765   1.647 -0.8884  0.9044  2.7563
13944TIP3    H263248   4.642   4.861   1.611 -0.0831 -1.2673 -1.1087
13945TIP3   OH263249   4.577   3.458  13.044 -0.2113 -0.0542  0.1974
13945TIP3    H163250   4.563   3.394  12.974 -0.5986 -0.0259  0.2490
13945TIP3    H263251   4.519   3.531  13.022 -1.7420 -0.8085  1.5110
13946TIP3   OH263252   6.695   4.484   0.659  0.1414 -0.2318 -0.0382
13946TIP3    H163253   6.752   4.438   0.720  1.5395 -0.6732 -1.5884
13946TIP3    H263254   6.687   4.424   0.584 -0.5085  0.7776 -0.8093
13947TIP3   OH263255   5.056   2.934  14.303  0.3371  0.4943 -0.1387
13947TIP3    H163256   5.101   3.001  14.253 -0.0946 -1.2672 -3.1290
13947TIP3    H263257   4.990   2.981  14.355  0.6041  2.4189 -1.4679
13948TIP3   OH263258   3.362   2.056  16.688  0.0278 -0.5265 -0.2565
13948TIP3    H163259   3.285   2.035  16.636  0.2035 -1.6564 -0.0827
13948TIP3    H263260   3.328   2.072  16.776 -0.1535  0.3760 -0.4791
13949TIP3   OH263261   0.922   3.920   5.057  0.2379 -0.0142  0.1805
13949TIP3    H163262   0.930   3.851   5.123  1.8786  0.7669  0.8765
13949TIP3    H263263   0.874   3.990   5.102  0.1314 -0.0245  0.0814
13950TIP3   OH263264   0.539   2.743  12.889 -0.4949  0.2928 -0.5277
13950TIP3    H163265   0.454   2.701  12.880 -0.0302 -0.6636 -0.6630
13950TIP3    H263266   0.554   2.785  12.804 -0.1732 -0.8411 -1.0500
13951TIP3   OH263267   4.030   5.389  14.157 -0.0957 -0.6961  0.0540
13951TIP3    H163268   3.981   5.368  14.078  0.0980  1.4301 -0.6973
13951TIP3    H263269   4.024   5.484  14.165  0.0922 -0.8088  2.4862
13952TIP3   OH263270   3.858   2.019  16.540 -0.1381  0.3247 -0.1288
13952TIP3    H163271   3.820   2.028  16.453  1.1454  0.5901 -0.6920
13952TIP3    H263272   3.783   2.003  16.598 -1.0769  0.7996 -1.1722
13953TIP3   OH263273   6.379   0.989   0.372  0.2200  0.2024  0.9712
13953TIP3    H163274   6.430   0.912   0.348  0.0726  0.2978  0.3174
13953TIP3    H263275   6.298   0.955   0.410 -0.0724  0.0197  0.2039
13954TIP3   OH263276   2.215   1.027  14.159  0.5256  0.3538 -0.5038
13954TIP3    H163277   2.190   1.104  14.210 -1.7436  0.0187 -0.9567
13954TIP3    H263278   2.204   0.954  14.219 -0.2556  0.1450 -0.8749
13955TIP3   OH263279   0.692   3.100  12.180 -0.1890  0.4764 -0.4278
13955TIP3    H163280   0.776   3.123  12.219 -0.1345  0.8872 -0.7764
13955TIP3    H263281   0.706   3.107  12.085 -0.8008  1.2611 -0.4729
13956TIP3   OH263282   1.454   2.953   1.138 -0.7588  0.0979 -0.1252
13956TIP3    H163283   1.539   2.991   1.117  0.3338 -1.0559  1.8735
13956TIP3    H263284   1.456   2.867   1.097 -1.3743  0.4071 -0.8339
13957TIP3   OH263285   2.473   2.349  11.104 -0.4384 -0.1376  0.0524
13957TIP3    H163286   2.512   2.361  11.018 -0.3584 -2.9732 -0.3887
13957TIP3    H263287   2.386   2.312  11.087 -0.5171 -0.5270  1.1794
13958TIP3   OH263288   1.665   2.356  16.514  0.2278 -0.1685 -0.3634
13958TIP3    H163289   1.645   2.375  16.606  2.6987 -2.3936  0.8251
13958TIP3    H263290   1.755   2.388  16.503 -0.0398  0.0608 -2.0292
13959TIP3   OH263291   5.245   5.206  14.112 -0.7845 -0.0589 -0.6155
13959TIP3    H163292   5.289   5.151  14.047 -1.4718 -1.3157 -0.0642
13959TIP3    H263293   5.210   5.143  14.176 -0.9368  1.0816  0.4602
13960TIP3   OH263294   5.168   1.234   2.175  0.3925  0.2857 -0.4676
13960TIP3    H163295   5.207   1.231   2.262  0.2933  3.4226 -0.2062
13960TIP3    H263296   5.077   1.208   2.188 -0.3154  3.1170  0.9423
13961TIP3   OH263297   4.922   4.469   4.457 -0.5020 -0.3904 -0.0989
13961TIP3    H163298   4.960   4.405   4.397 -0.0176  0.0576 -0.2816
13961TIP3    H263299   4.840   4.430   4.487 -0.2261 -1.0773 -0.2340
13962TIP3   OH263300   1.916   2.804   0.426 -0.3316  0.2943 -0.1617
13962TIP3    H163301   1.943   2.730   0.480 -0.3319  1.1615  1.0725
13962TIP3    H263302   1.951   2.881   0.472  0.8348  0.9962 -2.1079
13963TIP3   OH263303   3.315   1.151  16.256  0.1771  0.1305 -0.6473
13963TIP3    H163304   3.363   1.072  16.235  0.8245  0.5619 -0.8104
13963TIP3    H263305   3.364   1.191  16.328  0.7584  1.1741 -1.5828
13964TIP3   OH263306   2.675   5.230  16.465 -0.0135 -0.0023  0.3661
13964TIP3    H163307   2.683   5.232  16.370  0.6340  0.2233  0.4258
13964TIP3    H263308   2.583   5.208  16.480 -0.5500  1.6077 -0.3145
13965TIP3   OH263309   1.126   0.780  12.888 -0.1290 -0.2504 -0.2528
13965TIP3    H163310   1.088   0.841  12.952  2.2604  1.3427 -0.2060
13965TIP3    H263311   1.097   0.814  12.803 -0.6878 -0.4511 -0.1476
13966TIP3   OH263312   4.687   4.119  15.660 -0.3643  0.7862 -0.3660
13966TIP3    H163313   4.773   4.103  15.700 -1.3257  0.3296  1.6496
13966TIP3    H263314   4.671   4.212  15.675 -0.4054  0.7769 -0.3527
13967TIP3   OH263315   6.630   2.842   4.627  0.1295 -0.3116 -0.5387
13967TIP3    H163316   6.592   2.832   4.540 -1.6099  1.1624 -0.0266
13967TIP3    H263317   6.653   2.935   4.632 -0.6600 -0.1666  0.8740
13968TIP3   OH263318   2.917   4.999  12.635 -0.3461 -0.1650 -0.3978
13968TIP3    H163319   2.949   4.977  12.547  2.4392 -1.0383  0.7272
13968TIP3    H263320   2.872   5.082  12.624 -2.0035 -1.2668 -2.9945
13969TIP3   OH263321   2.299   4.031  11.861 -0.0460  0.2258 -0.2525
13969TIP3    H163322   2.380   3.986  11.835  1.5955  1.7627  1.8238
13969TIP3    H263323   2.236   3.961  11.878  0.6387 -0.9995 -2.3723
13970TIP3   OH263324   4.138   1.761   6.873  0.3542  0.0199 -0.3063
13970TIP3    H163325   4.164   1.689   6.931 -1.0876  0.2651  0.7238
13970TIP3    H263326   4.159   1.730   6.785  0.5811 -1.3057  0.1834
13971TIP3   OH263327   4.388   2.837   6.667  0.2109  0.1188  0.0463
13971TIP3    H163328   4.338   2.815   6.746  0.1565 -2.3046 -0.5941
13971TIP3    H263329   4.480   2.823   6.693  0.1150 -2.8035 -0.7941
13972TIP3   OH263330   6.640   0.643   0.430  0.0254  0.0262 -0.2238
13972TIP3    H163331   6.667   0.718   0.482 -0.5242  1.4553 -1.9054
13972TIP3    H263332   6.547   0.632   0.450 -0.3279  0.9367 -1.2673
13973TIP3   OH263333   0.667   4.079   4.644  0.4305 -0.2742 -0.8468
13973TIP3    H163334   0.604   4.111   4.708 -0.7299 -0.5679 -1.8047
13973TIP3    H263335   0.720   4.016   4.692 -0.7604 -0.8929 -0.2844
13974TIP3   OH263336   5.915   6.304  13.877  0.0935 -0.0507 -0.3365
13974TIP3    H163337   5.965   6.284  13.798  0.1576 -0.9529 -0.0806
13974TIP3    H263338   5.829   6.330  13.845  0.7078  1.5238 -0.7809
13975TIP3   OH263339   1.224   6.726   4.087  0.1920 -0.1474 -0.3028
13975TIP3    H163340   1.240   6.807   4.039  0.6420 -1.1219 -1.8753
13975TIP3    H263341   1.133   6.733   4.116  0.6148  1.4861  0.7917
13976TIP3   OH263342   4.854   5.685  14.610 -0.0199 -0.1773 -0.0716
13976TIP3    H163343   4.925   5.623  14.624  1.1828  0.9654 -0.9067
13976TIP3    H263344   4.811   5.692  14.696  1.5904 -0.0413  0.7533
13977TIP3   OH263345   4.357   4.542   0.210 -0.2146  0.1023 -0.6227
13977TIP3    H163346   4.307   4.562   0.289  1.8500  1.2282  0.4824
13977TIP3    H263347   4.342   4.617   0.153  1.0737  1.0290  0.1977
13978TIP3   OH263348   3.065   5.450   2.745  0.2758  0.1685 -0.2792
13978TIP3    H163349   3.080   5.377   2.686  1.0787  0.6003 -0.6137
13978TIP3    H263350   2.973   5.441   2.771  0.1732 -0.5480 -0.8643
13979TIP3   OH263351   5.529   1.038  13.431 -0.2039  0.2639 -1.0975
13979TIP3    H163352   5.497   1.128  13.431  0.4803  0.5668  1.1027
13979TIP3    H263353   5.622   1.046  13.455 -0.6390 -1.1140  1.2928
13980TIP3   OH263354   3.423   6.276  14.183  0.1766 -0.3462 -0.5343
13980TIP3    H163355   3.442   6.183  14.192  1.4211 -0.1784 -1.2264
13980TIP3    H263356   3.370   6.282  14.103  0.1443 -0.4506 -0.5200
13981TIP3   OH263357   1.334   4.293   2.251 -0.2491  0.0767  0.0000
13981TIP3    H163358   1.349   4.222   2.314 -0.7333  0.7058  0.8385
13981TIP3    H263359   1.243   4.281   2.223 -0.4731  0.6347  0.4874
13982TIP3   OH263360   3.217   0.410   3.726  0.2777 -0.0528  0.1337
13982TIP3    H163361   3.157   0.394   3.653 -0.8992  0.8077  0.8981
13982TIP3    H263362   3.184   0.355   3.797 -1.5552  2.7112  1.5731
13983TIP3   OH263363   4.965   5.820   0.710  0.6836  0.0636  0.2889
13983TIP3    H163364   5.037   5.809   0.647  1.0903  1.0445  0.5617
13983TIP3    H263365   5.003   5.800   0.795  0.1753 -1.0950  0.2652
13984TIP3   OH263366   1.719   1.014  16.203  0.3093  0.2030  0.5104
13984TIP3    H163367   1.754   1.002  16.114  0.5630  1.3906  0.4255
13984TIP3    H263368   1.631   1.048  16.189 -0.2445 -1.0901  0.7271
13985TIP3   OH263369   0.607   5.444  14.366  0.1125  0.3874  0.0766
13985TIP3    H163370   0.682   5.449  14.307  0.0192 -1.4317 -0.2605
13985TIP3    H263371   0.547   5.383  14.323 -0.3197 -0.3611  1.6592
13986TIP3   OH263372   2.353   4.846  17.084 -0.0081 -0.2596 -0.0843
13986TIP3    H163373   2.411   4.890  17.145 -0.1877 -2.2375  1.6277
13986TIP3    H263374   2.317   4.916  17.030  1.6125  1.3452  0.8101
13987TIP3   OH263375   2.919   2.462   6.183 -0.0733 -0.4397  0.2272
13987TIP3    H163376   2.993   2.467   6.243  0.3710 -0.6491 -0.2937
13987TIP3    H263377   2.847   2.430   6.237  0.3168 -0.6258  0.6487
13988TIP3   OH263378   1.321   4.018   5.131 -0.3427  0.2399  0.2767
13988TIP3    H163379   1.272   4.068   5.065  0.0039  1.1623  0.7069
13988TIP3    H263380   1.323   4.075   5.208  0.5343 -0.2088  0.5989
13989TIP3   OH263381   0.570   1.101   2.446 -0.2245 -0.3820 -0.2621
13989TIP3    H163382   0.599   1.029   2.389  0.6313 -1.4445  1.4184
13989TIP3    H263383   0.650   1.136   2.484 -0.8309 -2.1402  3.0430
13990TIP3   OH263384   4.683   2.927  13.035  0.1475 -0.8423  0.3217
13990TIP3    H163385   4.728   2.886  12.961 -0.4104  0.3063 -0.6782
13990TIP3    H263386   4.629   2.856  13.071 -1.0295 -0.9888 -1.5610
13991TIP3   OH263387   5.458   3.819  14.918  0.2010  0.2396 -0.0208
13991TIP3    H163388   5.402   3.817  14.995 -0.5392 -0.4639 -0.5626
13991TIP3    H263389   5.535   3.870  14.945 -0.0092 -0.0678  1.1885
13992TIP3   OH263390   3.306   5.244   1.585  0.1226 -0.7507 -0.5011
13992TIP3    H163391   3.390   5.201   1.570  0.4441 -0.5606  0.6571
13992TIP3    H263392   3.243   5.172   1.593  0.4666 -0.9732  0.2974
13993TIP3   OH263393   0.969   5.646   5.104 -0.0925  0.2117 -0.3303
13993TIP3    H163394   1.048   5.598   5.127  0.9849  1.0308 -2.0486
13993TIP3    H263395   0.929   5.669   5.187  1.1704 -0.7190  0.5671
13994TIP3   OH263396   4.030   3.674   4.758  0.2409  0.2533 -0.0525
13994TIP3    H163397   4.093   3.746   4.750 -0.6635  1.0101 -0.5803
13994TIP3    H263398   3.969   3.688   4.686  0.5264 -1.5464 -0.6828
13995TIP3   OH263399   1.880   2.668  11.706 -0.3667 -0.2769 -0.5287
13995TIP3    H163400   1.969   2.646  11.734  0.3328  2.7122 -0.1591
13995TIP3    H263401   1.884   2.665  11.610  0.1637 -0.0791 -0.5158
13996TIP3   OH263402   5.894   6.721  15.279 -0.1425  0.2834 -0.7269
13996TIP3    H163403   5.960   6.781  15.246 -0.2380 -0.0707 -1.6082
13996TIP3    H263404   5.811   6.757  15.249 -0.4405  1.1602  1.0599
13997TIP3   OH263405   4.955   2.801   5.599  0.4320 -0.5817 -0.3749
13997TIP3    H163406   4.922   2.891   5.595 -0.8515 -1.0386 -0.5314
13997TIP3    H263407   5.008   2.791   5.519 -2.5589 -1.1064 -2.4674
13998TIP3   OH263408   5.263   3.054   3.464  0.3455 -0.2358 -0.2929
13998TIP3    H163409   5.282   3.008   3.382  1.5119 -0.5723  0.1455
13998TIP3    H263410   5.261   3.147   3.440  2.2004 -0.2043 -0.4746
13999TIP3   OH263411   1.853   1.415  14.371 -0.1053  0.1206  0.1606
13999TIP3    H163412   1.775   1.398  14.424 -0.1849  0.1619  0.0588
13999TIP3    H263413   1.842   1.359  14.294  0.9063 -1.3357  1.0333
14000TIP3   OH263414   4.368   6.383  13.249 -0.3626  0.0205 -0.0397
14000TIP3    H163415   4.316   6.344  13.178  0.9947 -1.2556 -0.3686
14000TIP3    H263416   4.304   6.401  13.318 -1.3159 -1.0571 -0.6097
14001TIP3   OH263417   5.381   2.862   5.739 -0.1460 -0.2588  0.6662
14001TIP3    H163418   5.398   2.949   5.775  0.2603 -0.4744  1.0096
14001TIP3    H263419   5.425   2.802   5.800  2.2296 -0.5386 -1.1764
14002TIP3   OH263420   5.803   6.367   1.720  0.7297 -0.1818 -0.1064
14002TIP3    H163421   5.787   6.373   1.814 -0.9636 -0.3503 -0.3540
14002TIP3    H263422   5.857   6.443   1.700  2.2074 -0.8417  1.1917
14003TIP3   OH263423   5.257   2.659   4.881  0.1499 -0.1869  0.5511
14003TIP3    H163424   5.295   2.572   4.884 -0.4507 -0.4462  0.8277
14003TIP3    H263425   5.293   2.704   4.957 -0.0933 -0.4323  0.8139
14004TIP3   OH263426   6.705   6.725  12.297 -0.0833  0.0099 -0.8351
14004TIP3    H163427   6.668   6.722  12.386  0.7230  1.2847 -0.4253
14004TIP3    H263428   6.798   6.742  12.311 -0.1189  1.2358 -1.9504
14005TIP3   OH263429   6.039   3.647   3.397  0.7138 -0.3634  0.0696
14005TIP3    H163430   6.006   3.565   3.434  0.5018 -0.2571  0.1112
14005TIP3    H263431   6.069   3.698   3.473  1.4430 -0.6646 -0.0021
14006TIP3   OH263432   3.797   5.190   4.788 -0.9681  0.1049 -0.0836
14006TIP3    H163433   3.733   5.129   4.823  0.0375  0.0801  1.8085
14006TIP3    H263434   3.859   5.205   4.859 -0.2950  2.1240 -0.9990
14007TIP3   OH263435   2.255   3.238  14.674 -0.2466 -0.1990  0.2273
14007TIP3    H163436   2.327   3.244  14.611  0.5759  0.1694  1.1640
14007TIP3    H263437   2.233   3.329  14.694  0.2632 -0.2868  1.2781
14008TIP3   OH263438   4.679   4.209  12.313  0.4987 -0.3873  0.5134
14008TIP3    H163439   4.738   4.173  12.378 -0.6648  0.7570  2.2790
14008TIP3    H263440   4.591   4.193  12.348 -0.1299  1.2260 -0.2115
14009TIP3   OH263441   6.473   1.576   4.286  0.6031 -0.5635 -0.4692
14009TIP3    H163442   6.518   1.501   4.325 -0.4016  0.5636  3.2940
14009TIP3    H263443   6.529   1.651   4.307 -0.1878  0.1557 -0.8781
14010TIP3   OH263444   2.604   1.243   4.195  0.4310  0.1440  0.4175
14010TIP3    H163445   2.563   1.173   4.245 -1.1538  0.4433 -0.4098
14010TIP3    H263446   2.673   1.200   4.145 -1.7827 -1.3024 -1.6421
14011TIP3   OH263447   6.689   2.580   3.926  0.1961  0.2301 -0.3006
14011TIP3    H163448   6.593   2.577   3.924  0.1828 -1.2621  0.7441
14011TIP3    H263449   6.714   2.495   3.964  1.9580  0.2915 -1.2542
14012TIP3   OH263450   0.467   0.738  12.117 -0.3159 -0.0595 -0.3815
14012TIP3    H163451   0.373   0.726  12.134 -0.1796 -0.6879 -0.0141
14012TIP3    H263452   0.504   0.760  12.202 -0.1327  0.2415 -0.5366
14013TIP3   OH263453   0.591   5.090   1.648 -0.0562  0.6253 -0.6493
14013TIP3    H163454   0.497   5.072   1.648  0.6000 -4.2653  0.4824
14013TIP3    H263455   0.613   5.104   1.740  0.4754  0.3669 -0.7334
14014TIP3   OH263456   4.138   0.997  17.300  0.4852 -0.3956 -0.2896
14014TIP3    H163457   4.056   0.972  17.343 -0.0204  0.6821 -0.6060
14014TIP3    H263458   4.206   0.972  17.363 -0.2238  0.9300  1.0663
14015TIP3   OH263459   3.578   0.393  12.874 -0.2260  0.0298  0.0950
14015TIP3    H163460   3.556   0.483  12.897 -1.9167 -0.6485  1.4012
14015TIP3    H263461   3.667   0.380  12.907 -0.0445  1.1464  0.0739
14016TIP3   OH263462   2.869   5.131   3.655  0.2425 -0.5951 -0.5003
14016TIP3    H163463   2.859   5.205   3.715  0.2914 -0.8024 -0.2334
14016TIP3    H263464   2.833   5.162   3.572  0.5056 -0.1822 -0.4616
14017TIP3   OH263465   0.747   0.065  14.647  0.5599  0.2123 -0.1314
14017TIP3    H163466   0.828   0.095  14.689 -1.3174  1.4998  2.9040
14017TIP3    H263467   0.708   0.005  14.711 -1.8147  1.1780 -0.6037
14018TIP3   OH263468   2.340   4.227   0.853 -0.5204  0.6110 -0.1800
14018TIP3    H163469   2.347   4.131   0.857 -4.5842  0.1439 -0.6481
14018TIP3    H263470   2.373   4.257   0.938 -1.7838 -1.4952  1.1398
14019TIP3   OH263471   4.999   5.376   3.144  0.0849  0.5602  0.4600
14019TIP3    H163472   4.915   5.374   3.098  0.1701  0.5157  0.3067
14019TIP3    H263473   5.032   5.287   3.139  0.6419  0.8001 -0.4097
14020TIP3   OH263474   6.272   5.173  10.923 -0.0395  0.2064  0.4466
14020TIP3    H163475   6.270   5.079  10.908  1.0384  0.1828  0.3430
14020TIP3    H263476   6.363   5.192  10.946  0.3727  1.5406 -1.8849
14021TIP3   OH263477   3.508   2.195  12.541 -0.3257 -0.1275 -0.3959
14021TIP3    H163478   3.569   2.220  12.472 -0.4052 -0.2205 -0.5017
14021TIP3    H263479   3.482   2.105  12.518  0.3660 -0.5045  0.2775
14022TIP3   OH263480   5.301   5.736   2.124  0.3202  0.2060 -0.0067
14022TIP3    H163481   5.355   5.797   2.075  0.8484 -0.6594 -0.5242
14022TIP3    H263482   5.355   5.710   2.199  0.0467  0.4726  0.2859
14023TIP3   OH263483   1.576   4.499   4.374  0.1704  0.4460  0.4189
14023TIP3    H163484   1.503   4.557   4.398  0.7923  0.7994  1.5359
14023TIP3    H263485   1.653   4.555   4.375  0.6697 -0.2265  0.7184
14024TIP3   OH263486   1.165   3.022   5.775 -0.2419 -0.2334  0.5276
14024TIP3    H163487   1.158   3.110   5.738 -1.5556 -0.4586  0.1690
14024TIP3    H263488   1.109   3.024   5.852  2.7230  0.3308  2.8333
14025TIP3   OH263489   1.507   2.312  17.027 -0.3959 -0.3937 -0.2998
14025TIP3    H163490   1.525   2.406  17.032 -0.9937 -0.3134  0.4301
14025TIP3    H263491   1.412   2.305  17.030 -0.3441 -1.1446  2.4013
14026TIP3   OH263492   4.842   0.844  12.188  0.2896 -0.7230 -0.2564
14026TIP3    H163493   4.831   0.908  12.117 -1.6716 -0.7267  0.0021
14026TIP3    H263494   4.834   0.759  12.145 -1.1551 -0.7231 -0.0285
14027TIP3   OH263495   3.815   3.681  12.162 -0.4266 -0.0492  0.0121
14027TIP3    H163496   3.884   3.710  12.102  1.7115 -1.6803  1.5267
14027TIP3    H263497   3.804   3.754  12.223 -0.2444  0.3307 -0.4029
14028TIP3   OH263498   0.007   6.686  13.756  0.2394 -0.0132 -0.2784
14028TIP3    H163499   0.010   6.675  13.661  1.2679 -0.9181 -0.1698
14028TIP3    H263500   0.074   6.751  13.775  1.7662 -1.5842 -0.0014
14029TIP3   OH263501   1.344   5.649  16.378 -0.1182  0.2599  0.3080
14029TIP3    H163502   1.267   5.617  16.330 -0.0920 -0.6378  0.8393
14029TIP3    H263503   1.418   5.609  16.334 -0.1767 -1.9524  2.0534
14030TIP3   OH263504   4.564   0.320  13.330  0.1554  0.0785 -0.1532
14030TIP3    H163505   4.504   0.317  13.256  2.0511 -1.0618 -1.7693
14030TIP3    H263506   4.541   0.243  13.383 -1.5295  1.1692  0.8059
14031TIP3   OH263507   6.391   3.844  16.488 -0.6420  0.0227 -0.3396
14031TIP3    H163508   6.400   3.751  16.468 -0.1918  0.2525 -1.2449
14031TIP3    H263509   6.305   3.850  16.530  0.3914 -1.1759  2.2204
14032TIP3   OH263510   1.398   0.244   0.398 -0.2445  0.1940 -0.2765
14032TIP3    H163511   1.318   0.292   0.378 -0.9759 -1.0237 -0.3217
14032TIP3    H263512   1.444   0.300   0.460 -0.1782  1.8303 -1.7205
14033TIP3   OH263513   3.961   3.274   0.478 -0.1490 -0.1842  0.1448
14033TIP3    H163514   3.913   3.335   0.534 -2.1896 -1.4683 -0.1062
14033TIP3    H263515   4.042   3.256   0.526  0.0034  1.8379  0.7283
14034TIP3   OH263516   1.283   2.851  15.074  0.2731 -0.3020 -0.1680
14034TIP3    H163517   1.269   2.897  14.992  0.7680 -0.2806 -0.2417
14034TIP3    H263518   1.234   2.769  15.064 -1.1275  0.4518  0.2076
14035TIP3   OH263519   0.256   6.319   4.365 -0.4178  0.3876  0.1718
14035TIP3    H163520   0.316   6.271   4.422 -1.7532 -0.4423  0.9424
14035TIP3    H263521   0.285   6.410   4.371  1.5063 -0.1325 -0.4681
14036TIP3   OH263522   4.170   3.033   6.912  0.0235 -0.6013  0.0828
14036TIP3    H163523   4.161   2.940   6.893  1.4760 -1.6831  3.8159
14036TIP3    H263524   4.262   3.045   6.933 -0.2981  1.4967  0.5700
14037TIP3   OH263525   1.457   3.961  10.812  0.2759 -0.4188 -0.7836
14037TIP3    H163526   1.412   4.034  10.769  0.8224  0.1686 -0.3769
14037TIP3    H263527   1.494   3.910  10.741  0.1853 -0.0987 -1.0631
14038TIP3   OH263528   6.741   2.065   2.168  0.0134 -0.2497 -0.6366
14038TIP3    H163529   6.688   2.129   2.120  0.2849 -0.2601 -0.9533
14038TIP3    H263530   6.825   2.064   2.122  0.2219 -0.3765 -0.2537
14039TIP3   OH263531   0.910   4.616   4.052  0.3859  0.4710 -0.4832
14039TIP3    H163532   0.964   4.562   4.109  0.4883  0.4600 -0.5888
14039TIP3    H263533   0.912   4.703   4.091 -1.4256 -0.0183  0.8257
14040TIP3   OH263534   5.856   6.725   4.638  0.1599  0.0606  0.4041
14040TIP3    H163535   5.766   6.754   4.652  0.2639  0.1884  0.8502
14040TIP3    H263536   5.903   6.804   4.611  0.1799  0.0436  0.3894
14041TIP3   OH263537   1.697   2.835  16.349  0.3278 -0.5742 -0.1276
14041TIP3    H163538   1.728   2.824  16.439 -0.3492 -0.1568  0.1628
14041TIP3    H263539   1.603   2.818  16.353 -0.2530  2.1146 -0.2094
14042TIP3   OH263540   1.920   0.914   1.057  0.3646 -0.0841  0.8583
14042TIP3    H163541   1.956   0.896   1.144  0.2542 -0.3174  0.8552
14042TIP3    H263542   1.920   0.829   1.013  0.6480  0.0784  0.5451
14043TIP3   OH263543   3.613   6.281   1.614  0.0947  0.1595  0.5286
14043TIP3    H163544   3.686   6.343   1.607 -1.5151  1.9512 -4.3013
14043TIP3    H263545   3.653   6.195   1.599  1.3182  1.0855 -1.9567
14044TIP3   OH263546   0.056   5.013  16.207 -0.3456  0.1936 -0.0266
14044TIP3    H163547   0.117   5.016  16.281  0.0061  1.3528 -0.3429
14044TIP3    H263548   0.102   5.059  16.136 -1.5884  1.1016 -0.2678
14045TIP3   OH263549   3.731   1.095   2.544 -0.3287  0.4893 -0.3533
14045TIP3    H163550   3.736   1.079   2.449 -0.1040  0.3801 -0.3233
14045TIP3    H263551   3.822   1.090   2.574 -0.4943 -0.4947  0.0291
14046TIP3   OH263552   3.403   0.355   1.198  0.2822  0.2821 -0.5865
14046TIP3    H163553   3.485   0.365   1.245 -1.0870  2.0427  1.6021
14046TIP3    H263554   3.381   0.443   1.167 -0.7220 -0.1693 -1.2367
14047TIP3   OH263555   6.351   3.546   5.025  0.1719 -0.1781  1.0146
14047TIP3    H163556   6.283   3.613   5.025 -1.5910 -1.8375 -0.6685
14047TIP3    H263557   6.330   3.492   5.101  0.5899  0.2020  1.4071
14048TIP3   OH263558   0.050   2.696   6.661  0.3504 -0.4464  0.1241
14048TIP3    H163559  -0.006   2.630   6.622  1.4840 -0.2447 -1.9865
14048TIP3    H263560   0.043   2.681   6.756 -2.4456 -1.0259 -0.0941
14049TIP3   OH263561   2.337   3.125   1.355 -0.3436 -0.3005 -0.5981
14049TIP3    H163562   2.401   3.167   1.297 -1.9143  1.2896 -1.2657
14049TIP3    H263563   2.381   3.119   1.440  0.9688  0.0103 -1.2369
14050TIP3   OH263564   4.244   2.150  16.980 -0.0688  0.1190  0.6053
14050TIP3    H163565   4.273   2.102  16.903  0.4239  1.6995 -0.2368
14050TIP3    H263566   4.149   2.142  16.980 -0.1092  0.4829 -0.4335
14051TIP3   OH263567   3.845   5.265  12.819 -0.7117 -0.2649  0.6285
14051TIP3    H163568   3.819   5.356  12.835 -0.4784  0.1647 -1.2363
14051TIP3    H263569   3.883   5.236  12.902  1.0607  2.0089  0.7246
14052TIP3   OH263570   2.832   3.411  12.825  0.2440 -0.3418  0.1704
14052TIP3    H163571   2.802   3.436  12.913  1.0383 -3.3294  1.4350
14052TIP3    H263572   2.753   3.382  12.780  0.0285 -0.1265  0.4080
14053TIP3   OH263573   4.210   2.930  13.702  0.0638  0.3258 -0.0524
14053TIP3    H163574   4.123   2.936  13.741  0.3806  2.0359  0.4858
14053TIP3    H263575   4.265   2.894  13.771 -0.1352 -0.4849 -0.2996
14054TIP3   OH263576   1.968   4.426   1.556 -0.2774  0.1371 -0.9565
14054TIP3    H163577   1.950   4.517   1.531  0.3649  0.8992  1.1670
14054TIP3    H263578   1.929   4.417   1.642  2.2688 -0.6473  0.2033
14055TIP3   OH263579   6.493   6.651   3.298 -0.2975 -0.6296 -0.4267
14055TIP3    H163580   6.481   6.681   3.388  0.2423  0.3167 -0.6526
14055TIP3    H263581   6.447   6.715   3.245  1.5155  0.3141 -0.9672
14056TIP3   OH263582   4.118   2.730   0.086  0.2373  0.2742 -0.1299
14056TIP3    H163583   4.157   2.718   0.173  0.4691  0.9631 -0.1344
14056TIP3    H263584   4.055   2.801   0.098  0.2277  0.3295 -0.5129
14057TIP3   OH263585   5.466   4.689  16.195 -0.2653 -0.4762 -0.2090
14057TIP3    H163586   5.407   4.740  16.139  0.1215  0.3435  0.1080
14057TIP3    H263587   5.538   4.750  16.215 -0.8569 -0.4354  1.9437
14058TIP3   OH263588   5.820   3.565   2.964 -0.2910 -0.3744 -0.2694
14058TIP3    H163589   5.814   3.474   2.993 -0.7467 -0.1251  0.4481
14058TIP3    H263590   5.865   3.610   3.036 -0.7743  0.1136 -0.2680
14059TIP3   OH263591   2.911   4.414   4.146  0.1298  0.1645  0.5838
14059TIP3    H163592   2.971   4.483   4.174  1.3352 -0.3181 -0.7095
14059TIP3    H263593   2.824   4.449   4.165  0.7574  1.5936  0.9257
14060TIP3   OH263594   6.525   6.578   5.763 -0.1458 -0.3043  0.1232
14060TIP3    H163595   6.575   6.657   5.782 -0.7097 -0.2187  1.3243
14060TIP3    H263596   6.545   6.559   5.671  1.8233 -0.0822  0.4509
14061TIP3   OH263597   5.362   1.820  16.592 -0.4709  0.1468 -0.1462
14061TIP3    H163598   5.443   1.833  16.542 -0.2347  0.3883  0.2898
14061TIP3    H263599   5.373   1.735  16.633 -0.3236  0.2904  0.1169
14062TIP3   OH263600   5.340   5.172  17.066 -0.4507  0.5834  0.3445
14062TIP3    H163601   5.303   5.085  17.081  1.3763 -0.4990 -0.9854
14062TIP3    H263602   5.399   5.186  17.140  1.1016 -0.4480 -0.6253
14063TIP3   OH263603   1.997   0.947   0.255 -0.3403  0.2487  1.0007
14063TIP3    H163604   1.976   0.912   0.168 -0.2679  0.7661  0.7719
14063TIP3    H263605   2.074   0.899   0.282 -0.1259  0.3652  0.6027
14064TIP3   OH263606   6.565   4.441  13.599  0.4431  0.6530  0.0839
14064TIP3    H163607   6.480   4.438  13.555  0.8236  0.5040 -0.6468
14064TIP3    H263608   6.589   4.349  13.612 -0.5523  0.6325  2.3845
14065TIP3   OH263609   5.793   6.487  14.390  0.4623  0.0681 -0.1792
14065TIP3    H163610   5.756   6.573  14.412  1.9420  0.6061  0.2870
14065TIP3    H263611   5.878   6.486  14.433 -0.6913 -2.8526  2.4122
14066TIP3   OH263612   0.021   5.535   1.838  0.3815 -0.3805  0.4078
14066TIP3    H163613   0.058   5.450   1.862  2.0782 -0.3917 -1.8498
14066TIP3    H263614  -0.051   5.514   1.778 -0.5004 -0.2357  1.3869
14067TIP3   OH263615   4.012   3.557   6.625  0.5930  0.3890  0.4108
14067TIP3    H163616   3.938   3.608   6.659  1.0864  1.9332 -0.7310
14067TIP3    H263617   3.974   3.502   6.556  0.5273  1.3595 -0.3416
14068TIP3   OH263618   0.694   3.081  13.422  0.3009  0.6106 -0.0489
14068TIP3    H163619   0.696   3.032  13.504  1.3149 -0.1272 -0.4892
14068TIP3    H263620   0.611   3.128  13.424 -1.4902 -2.2784 -0.2617
14069TIP3   OH263621   2.477   6.589  15.945 -0.0268 -0.3221 -0.1555
14069TIP3    H163622   2.400   6.624  15.900  0.1523 -0.3082 -0.4535
14069TIP3    H263623   2.484   6.499  15.913  0.3598 -0.1742 -0.4942
14070TIP3   OH263624   4.724   2.182   6.450  0.4875  0.1963  0.0410
14070TIP3    H163625   4.765   2.104   6.412  1.9259 -0.0818  1.9609
14070TIP3    H263626   4.787   2.252   6.436 -0.1390  0.6845 -0.3796
14071TIP3   OH263627   6.482   3.324  14.703 -0.0376 -0.2258 -0.1849
14071TIP3    H163628   6.407   3.273  14.672  0.0952 -0.8958  0.5792
14071TIP3    H263629   6.542   3.259  14.739  0.2877  0.4392  0.4874
14072TIP3   OH263630   5.572   5.111   0.902 -0.1874 -0.2250  0.4838
14072TIP3    H163631   5.520   5.148   0.973  0.1934  1.4660 -0.0857
14072TIP3    H263632   5.656   5.087   0.943 -0.4769 -0.5865  0.8768
14073TIP3   OH263633   0.247   1.406   2.900  0.2950  0.2876  0.2935
14073TIP3    H163634   0.334   1.378   2.871  0.1657  0.0685  0.1119
14073TIP3    H263635   0.261   1.441   2.988  0.5001 -0.1446  0.4368
14074TIP3   OH263636   3.471   1.045   2.014  0.3872  0.3591  0.0576
14074TIP3    H163637   3.538   1.011   1.955  0.1956  0.0775  0.0028
14074TIP3    H263638   3.401   0.980   2.012  0.9033 -0.3103  1.5582
14075TIP3   OH263639   4.616   3.332   4.656 -0.4078 -0.2571  0.8077
14075TIP3    H163640   4.671   3.254   4.654 -1.1949 -0.8144  0.6938
14075TIP3    H263641   4.543   3.311   4.598  0.0279  1.0562 -0.2817
14076TIP3   OH263642   3.543   6.208   5.631  0.2519  0.0985 -0.2015
14076TIP3    H163643   3.618   6.261   5.601 -0.4294  1.4138  0.3286
14076TIP3    H263644   3.485   6.272   5.673 -0.8827 -1.0053 -0.0656
14077TIP3   OH263645   1.445   4.573   2.820  0.1246 -0.7758 -0.3951
14077TIP3    H163646   1.474   4.484   2.804  0.1907 -1.0824  1.2833
14077TIP3    H263647   1.441   4.581   2.916 -0.6078  0.7760 -0.5152
14078TIP3   OH263648   5.075   3.515  14.121 -0.4134  0.2909  0.2465
14078TIP3    H163649   4.988   3.503  14.085 -0.9558  0.5244  1.4269
14078TIP3    H263650   5.096   3.432  14.164 -0.0056  0.1959 -0.1279
14079TIP3   OH263651   1.064   4.968  15.918 -0.2706  0.2989 -0.0590
14079TIP3    H163652   1.084   4.933  15.832 -0.3382 -1.4373  0.5976
14079TIP3    H263653   1.149   4.987  15.957 -0.1636 -0.4339  0.0805
14080TIP3   OH263654   0.948   4.978   4.307  0.4203 -0.2334 -0.6808
14080TIP3    H163655   0.992   4.961   4.390 -0.1299 -0.1964 -0.3776
14080TIP3    H263656   0.905   5.063   4.319  1.9181  0.7052 -1.6784
14081TIP3   OH263657   4.344   3.453   6.055 -0.1139 -0.0096  0.1839
14081TIP3    H163658   4.339   3.544   6.083 -2.4352  0.1453 -0.5566
14081TIP3    H263659   4.380   3.406   6.131  1.6273  1.5381  0.3866
14082TIP3   OH263660   3.250   3.369  16.607 -0.8799 -0.5113  1.0049
14082TIP3    H163661   3.225   3.365  16.515 -0.0221  0.0263  0.7341
14082TIP3    H263662   3.326   3.312  16.614  0.9742  1.7533  0.6833
14083TIP3   OH263663   3.409   1.046   5.072  0.2083  0.2613  0.0296
14083TIP3    H163664   3.376   1.120   5.020 -0.1396  1.0494  1.3326
14083TIP3    H263665   3.429   0.978   5.007 -0.3949  1.1428 -1.1114
14084TIP3   OH263666   2.361   3.935   0.905  0.3135  0.4359  0.1609
14084TIP3    H163667   2.351   3.905   0.814  4.5954  2.6451 -1.3623
14084TIP3    H263668   2.386   3.856   0.953 -0.3286 -0.4855 -0.9523
14085TIP3   OH263669   6.554   5.752   5.023  0.3261  0.4088  0.0409
14085TIP3    H163670   6.619   5.769   5.092 -1.3980 -0.1906  1.9253
14085TIP3    H263671   6.507   5.835   5.014  0.2988  0.3736 -0.1501
14086TIP3   OH263672   5.697   3.352  11.855  0.0570 -0.2863  0.1111
14086TIP3    H163673   5.632   3.299  11.809 -0.3498  0.0895  0.2492
14086TIP3    H263674   5.754   3.288  11.898 -0.6271 -0.6111  0.5449
14087TIP3   OH263675   4.079   4.444   6.742 -0.4221  0.5744 -0.2683
14087TIP3    H163676   4.135   4.445   6.665  1.3775 -0.5051  0.9471
14087TIP3    H263677   4.104   4.523   6.791 -0.5963  0.5676 -0.1694
14088TIP3   OH263678   5.600   0.002  15.295 -0.1910 -0.0405 -0.0870
14088TIP3    H163679   5.514   0.042  15.284 -0.0766  1.3946  3.1692
14088TIP3    H263680   5.586  -0.068  15.360  1.0989  0.3713  0.6768
14089TIP3   OH263681   2.557   6.098   1.132  0.2054  0.0058 -0.0944
14089TIP3    H163682   2.565   6.190   1.156  0.2180  0.0658 -0.3235
14089TIP3    H263683   2.567   6.051   1.215  0.0021  0.2176  0.0536
14090TIP3   OH263684   2.544   3.039   5.738 -0.2165  0.2516 -0.5151
14090TIP3    H163685   2.602   2.986   5.793 -0.2887  0.3955 -0.2963
14090TIP3    H263686   2.515   3.109   5.796 -2.7403 -1.2778  0.2020
14091TIP3   OH263687   0.094   5.978   2.043  0.9353  0.4257 -0.2405
14091TIP3    H163688   0.075   6.011   1.954  1.6238  3.1076  0.5034
14091TIP3    H263689   0.130   6.054   2.089  0.0442 -0.7137  2.5311
14092TIP3   OH263690   4.875   5.075   4.445 -0.5382  0.2518  0.6059
14092TIP3    H163691   4.935   5.003   4.427  0.1027  0.5253  1.5672
14092TIP3    H263692   4.874   5.083   4.541 -2.7406 -0.2736  0.6906
14093TIP3   OH263693   0.706   0.479   2.476  0.0580 -0.4486  0.2065
14093TIP3    H163694   0.711   0.435   2.561  0.7553 -1.8174 -0.5021
14093TIP3    H263695   0.613   0.498   2.463 -0.3678 -2.2634  0.3128
14094TIP3   OH263696   6.688   5.783   5.264  0.2706 -0.6159 -0.5924
14094TIP3    H163697   6.648   5.817   5.344  0.5801 -1.0583 -0.2473
14094TIP3    H263698   6.747   5.713   5.294  2.9260  1.3639 -0.8737
14095TIP3   OH263699   3.493   1.392   2.374 -0.0898  0.3324 -0.3374
14095TIP3    H163700   3.505   1.316   2.318 -0.6141 -0.7459  0.9613
14095TIP3    H263701   3.562   1.385   2.441  0.5171  1.5845 -0.7932
14096TIP3   OH263702   1.032   5.743  12.470 -0.3333  0.0133  0.3495
14096TIP3    H163703   1.122   5.714  12.454 -0.4388 -0.2361  0.2071
14096TIP3    H263704   1.040   5.838  12.482  0.1545 -0.1848  1.8247
14097TIP3   OH263705   2.508   5.138   5.272 -0.3032 -0.3493 -0.1307
14097TIP3    H163706   2.487   5.113   5.361  1.3679  0.2881  0.4812
14097TIP3    H263707   2.423   5.151   5.230 -1.1126 -0.2412  1.4703
14098TIP3   OH263708   6.691   1.419  13.954  0.4941  0.0457 -0.0842
14098TIP3    H163709   6.689   1.464  14.038  1.9974  2.2889 -1.1461
14098TIP3    H263710   6.599   1.410  13.929  0.0393 -0.4626  1.6672
14099TIP3   OH263711   1.163   5.521  16.920 -0.0523 -0.3769 -0.0177
14099TIP3    H163712   1.180   5.563  17.004  0.5739 -0.0572 -0.3038
14099TIP3    H263713   1.234   5.549  16.863  0.9107 -2.5221  0.0249
14100TIP3   OH263714   4.133   4.447   4.740 -0.1843  0.4247 -0.1185
14100TIP3    H163715   4.201   4.507   4.769 -0.1249  1.4893 -2.2619
14100TIP3    H263716   4.052   4.481   4.776  0.1343  0.4266  0.6054
14101TIP3   OH263717   2.351   1.918  11.818 -0.0588 -0.1482  0.4992
14101TIP3    H163718   2.434   1.925  11.772  1.7600 -1.5957  3.2481
14101TIP3    H263719   2.301   1.854  11.768  1.7744 -1.5831  0.3826
14102TIP3   OH263720   5.912   3.908  14.225 -0.5280  0.0942  0.4591
14102TIP3    H163721   5.854   3.831  14.221 -0.6075  0.1806 -3.1111
14102TIP3    H263722   5.858   3.976  14.264 -0.8918 -1.2518  2.4663
14103TIP3   OH263723   2.902   1.714  12.812 -0.0872 -0.1511  0.6946
14103TIP3    H163724   2.833   1.768  12.774 -0.6744 -1.0968  0.3734
14103TIP3    H263725   2.904   1.636  12.757  1.7839  0.1777  0.2301
14104TIP3   OH263726   4.866   2.178   0.496 -0.2771  0.3355  0.6192
14104TIP3    H163727   4.862   2.152   0.404 -2.3654  1.9214  0.1962
14104TIP3    H263728   4.914   2.261   0.495  0.9825 -0.3423  1.2050
14105TIP3   OH263729   6.308   5.388  15.319 -0.1296  0.1356  0.3458
14105TIP3    H163730   6.329   5.303  15.280 -1.8797  0.2068 -0.8533
14105TIP3    H263731   6.360   5.391  15.399 -1.1954 -2.7323  1.2565
14106TIP3   OH263732   4.623   2.236  14.686  0.0616 -0.2442  0.2094
14106TIP3    H163733   4.602   2.233  14.592  0.0691 -2.4535  0.2323
14106TIP3    H263734   4.539   2.226  14.730  0.0995  0.4415  0.4529
14107TIP3   OH263735   0.185   4.855   3.471 -0.1404  0.1103  0.6002
14107TIP3    H163736   0.164   4.933   3.419  0.9550  0.1546  0.1965
14107TIP3    H263737   0.236   4.800   3.412  2.0293  0.6068  1.8924
14108TIP3   OH263738   4.422   2.332   0.009  0.1719 -0.4724  0.7371
14108TIP3    H163739   4.427   2.336  -0.087  1.8348 -1.7560  0.7223
14108TIP3    H263740   4.474   2.406   0.039 -0.9989  0.4013  0.6839
14109TIP3   OH263741   4.700   5.898   1.392 -0.0748  0.3990 -0.1955
14109TIP3    H163742   4.635   5.920   1.459  0.5547 -1.1989  1.0092
14109TIP3    H263743   4.703   5.802   1.392  1.0972  0.4023 -1.4006
14110TIP3   OH263744   2.805   4.124   3.583  0.2749  0.8355  0.7787
14110TIP3    H163745   2.752   4.152   3.658 -1.3126 -1.7633  0.7598
14110TIP3    H263746   2.747   4.130   3.508  0.2476 -1.1134  0.5854
14111TIP3   OH263747   2.261   5.504   1.062  0.6248  0.8896  0.7282
14111TIP3    H163748   2.329   5.565   1.034  2.1801 -0.8871  0.3868
14111TIP3    H263749   2.310   5.427   1.093 -1.1353 -1.7973 -2.4693
14112TIP3   OH263750   0.829   5.195  14.366 -0.2233  0.3393 -0.1812
14112TIP3    H163751   0.797   5.156  14.285  0.7325 -0.4456 -0.1985
14112TIP3    H263752   0.924   5.203  14.354 -0.2374  1.5859  0.2930
14113TIP3   OH263753   1.818   0.856   1.806 -0.3116 -0.4432 -0.1140
14113TIP3    H163754   1.802   0.941   1.764  1.8192 -0.3070 -0.7860
14113TIP3    H263755   1.765   0.794   1.757 -1.5069  0.4062  0.0602
14114TIP3   OH263756   2.482   2.136  16.079 -0.2606 -0.2217  0.8227
14114TIP3    H163757   2.522   2.122  16.164  0.2639 -0.8143  0.4854
14114TIP3    H263758   2.393   2.164  16.099 -0.5482 -1.5722  1.5570
14115TIP3   OH263759   2.336   1.354  13.825 -0.4223 -0.0968  0.2321
14115TIP3    H163760   2.398   1.293  13.864 -0.7570  0.2094  1.2589
14115TIP3    H263761   2.377   1.439  13.832 -0.0564 -0.1561 -0.9969
14116TIP3   OH263762   1.017   1.465   4.383 -0.4568  0.5194  0.5300
14116TIP3    H163763   1.092   1.420   4.346  0.7864  1.5684  1.6741
14116TIP3    H263764   0.951   1.397   4.393  0.0884 -0.2963 -1.0775
14117TIP3   OH263765   5.656   2.352  10.978 -0.7929 -0.2662  0.4453
14117TIP3    H163766   5.713   2.276  10.967 -1.2401 -0.3777 -1.4961
14117TIP3    H263767   5.585   2.339  10.915 -1.1298  1.5237  0.3818
14118TIP3   OH263768   2.200   6.245  15.725 -0.0894  0.2602 -0.3418
14118TIP3    H163769   2.158   6.162  15.747  0.8487 -0.5552 -1.5147
14118TIP3    H263770   2.187   6.300  15.803 -0.0243 -1.2538  0.7820
14119TIP3   OH263771   6.375   3.827  10.939 -0.1620  0.3706  0.5434
14119TIP3    H163772   6.365   3.761  10.871 -0.3477  0.0656  0.8636
14119TIP3    H263773   6.337   3.906  10.901 -0.4259  0.1580  0.3536
14120TIP3   OH263774   3.733   3.091  12.576  0.3898  0.1847 -0.4470
14120TIP3    H163775   3.729   3.179  12.614 -0.2148  0.3190 -0.8118
14120TIP3    H263776   3.650   3.080  12.530 -0.7249 -1.6343  1.8270
14121TIP3   OH263777   4.502   0.519  15.724 -0.0007 -0.1017 -0.1054
14121TIP3    H163778   4.467   0.469  15.798 -0.1763  1.8051  1.1547
14121TIP3    H263779   4.437   0.507  15.654 -0.4393 -0.9338  0.4291
14122TIP3   OH263780   6.055   4.713   2.391 -0.2018 -0.3941 -0.2421
14122TIP3    H163781   6.021   4.655   2.459 -3.0733  1.7710  0.3759
14122TIP3    H263782   6.063   4.657   2.314  1.7210 -2.5717  1.3856
14123TIP3   OH263783   0.404   2.937   1.929  0.0351  0.8106 -0.1740
14123TIP3    H163784   0.423   2.989   2.007 -0.9627 -0.4934  1.0037
14123TIP3    H263785   0.440   2.851   1.948  0.1919  0.5961 -1.3707
14124TIP3   OH263786   6.173   4.118  13.454 -0.1071 -0.0292  0.7018
14124TIP3    H163787   6.249   4.063  13.434  0.3489  0.6571  0.5257
14124TIP3    H263788   6.126   4.069  13.521 -1.3121 -2.0478 -1.4943
14125TIP3   OH263789   0.721   6.239  13.373  0.2170  0.0409  1.2253
14125TIP3    H163790   0.650   6.301  13.358  1.5402  1.3670  0.0365
14125TIP3    H263791   0.742   6.247  13.466 -1.0649 -0.2678  1.5534
14126TIP3   OH263792   1.991   6.301   1.918  0.7739  0.2700  0.1998
14126TIP3    H163793   1.930   6.334   1.853  1.8094  0.2871 -0.7876
14126TIP3    H263794   2.018   6.215   1.885  1.8878  0.6085  0.2121
14127TIP3   OH263795   1.525   2.996  12.977  0.0632 -0.1984 -0.0668
14127TIP3    H163796   1.619   3.002  12.959  0.7732 -2.2061  2.3676
14127TIP3    H263797   1.493   2.929  12.917  0.7692 -1.3105  0.7450
14128TIP3   OH263798   4.023   0.214  16.527  0.2130 -0.2372 -0.2822
14128TIP3    H163799   4.055   0.124  16.538  1.3863  0.4001  2.2539
14128TIP3    H263800   3.964   0.228  16.601 -0.2066  0.9945 -0.8193
14129TIP3   OH263801   0.073   1.573   4.480  0.0923  0.0949 -0.3690
14129TIP3    H163802   0.001   1.576   4.416  1.1772  1.7902 -1.6042
14129TIP3    H263803   0.065   1.655   4.528 -0.8328 -1.2467  1.9493
14130TIP3   OH263804   0.878   4.764   2.712 -0.2485 -0.7075  0.1315
14130TIP3    H163805   0.874   4.734   2.621 -0.3537 -0.4594  0.0535
14130TIP3    H263806   0.804   4.722   2.755 -0.5028 -0.4177 -0.0209
14131TIP3   OH263807   2.238   6.235  14.424 -0.1990 -0.5171  0.0283
14131TIP3    H163808   2.149   6.203  14.438  0.3723 -2.9950 -1.4497
14131TIP3    H263809   2.256   6.218  14.332  1.7066  0.2124  0.2214
14132TIP3   OH263810   0.242   2.925   2.216 -0.1312  0.2026  0.5325
14132TIP3    H163811   0.268   3.016   2.203 -2.9886  1.3603  2.0784
14132TIP3    H263812   0.189   2.926   2.296 -1.1211 -2.6451  0.0235
14133TIP3   OH263813   6.532   1.918  15.320 -0.6225  0.0794 -0.5410
14133TIP3    H163814   6.520   1.905  15.226  0.5960  1.6284 -0.9605
14133TIP3    H263815   6.463   1.865  15.361  0.2234 -2.4863 -2.1746
14134TIP3   OH263816   3.386   4.451  15.173 -0.1140  0.4163  0.0915
14134TIP3    H163817   3.441   4.376  15.149 -2.0334 -1.3912  0.9536
14134TIP3    H263818   3.321   4.414  15.232  0.7878  3.4478  3.2956
14135TIP3   OH263819   0.909   1.863   1.330  0.7673  0.2267 -0.1833
14135TIP3    H163820   0.963   1.811   1.389  0.2670 -1.4890 -1.1595
14135TIP3    H263821   0.829   1.880   1.379 -0.1133 -2.1583 -0.6816
14136TIP3   OH263822   0.744   4.534  13.576 -0.2528 -0.3832 -0.3790
14136TIP3    H163823   0.650   4.538  13.595  0.0220 -1.2979  1.4081
14136TIP3    H263824   0.774   4.455  13.621  1.3732 -0.1478 -0.9855
14137TIP3   OH263825   2.241   6.047  13.413 -0.9474 -0.5653  0.3809
14137TIP3    H163826   2.213   5.980  13.351 -4.8876  1.7787 -0.7417
14137TIP3    H263827   2.169   6.053  13.475  0.9908  0.1461  2.7011
14138TIP3   OH263828   3.556   0.591  16.307 -0.1940 -0.2173 -0.1319
14138TIP3    H163829   3.538   0.579  16.213 -0.8432  0.5823 -0.1231
14138TIP3    H263830   3.633   0.649  16.309 -1.4062  1.4515 -0.1955
14139TIP3   OH263831   5.475   1.552   6.607  0.0898  0.3363  0.2302
14139TIP3    H163832   5.523   1.471   6.627  0.8001  1.1182  1.8986
14139TIP3    H263833   5.423   1.569   6.686 -1.9305  0.2641 -1.0117
14140TIP3   OH263834   3.220   1.037   2.627  0.0869 -0.0706 -0.5838
14140TIP3    H163835   3.175   0.953   2.635  0.2451 -0.2833 -1.8292
14140TIP3    H263836   3.302   1.017   2.582  0.7231  0.5650  0.2444
14141TIP3   OH263837   2.118   6.423   0.435  0.4134  0.3642  0.0659
14141TIP3    H163838   2.055   6.383   0.494  1.2602 -1.2811 -0.1047
14141TIP3    H263839   2.092   6.516   0.432 -0.0833  0.3685  2.4267
14142TIP3   OH263840   6.385   0.862   1.236 -0.0382  0.0783  0.6624
14142TIP3    H163841   6.472   0.834   1.263 -0.8441 -1.4602  1.8069
14142TIP3    H263842   6.366   0.937   1.293  0.5866  0.5588  0.2621
14143TIP3   OH263843   5.133   6.642  15.172  0.6123  0.1116  0.1453
14143TIP3    H163844   5.122   6.723  15.121  3.1505  0.7687  0.5025
14143TIP3    H263845   5.065   6.646  15.238 -1.7259  0.0593 -2.0948
14144TIP3   OH263846   5.192   2.396   3.092 -0.5071 -0.4403 -0.3996
14144TIP3    H163847   5.273   2.393   3.143 -1.4997 -3.1072  1.2126
14144TIP3    H263848   5.214   2.447   3.014  2.0164  0.9477  1.1156
14145TIP3   OH263849   5.216   0.370  11.860  0.6443  0.7696 -0.0663
14145TIP3    H163850   5.199   0.463  11.869  2.4859  1.1615 -0.2341
14145TIP3    H263851   5.298   0.365  11.809  1.5614 -0.8703  1.4475
14146TIP3   OH263852   6.221   0.378   5.228 -0.4858  0.5819  0.0773
14146TIP3    H163853   6.313   0.356   5.240 -0.9229 -0.3730  2.1221
14146TIP3    H263854   6.218   0.473   5.224  0.5628  0.6214  0.1481
14147TIP3   OH263855   0.672   5.913  10.687  0.1571  0.4230  0.3193
14147TIP3    H163856   0.666   5.860  10.607  1.4007 -0.4254  0.7507
14147TIP3    H263857   0.760   5.948  10.685 -0.0246  0.9178  1.0134
14148TIP3   OH263858   6.626   2.492   3.123  0.2052 -0.0428 -0.3238
14148TIP3    H163859   6.694   2.558   3.138 -0.8617  1.2025 -0.7798
14148TIP3    H263860   6.674   2.409   3.123  1.3837  0.5431  1.8363
14149TIP3   OH263861   4.242   5.049   4.444  0.3687  0.3929  0.2269
14149TIP3    H163862   4.238   5.111   4.371  0.7240  0.4239  0.2345
14149TIP3    H263863   4.200   4.970   4.410  1.9118 -0.1361 -0.5488
14150TIP3   OH263864   3.953   6.496   2.120  0.2646 -0.5319  0.5670
14150TIP3    H163865   3.932   6.583   2.085 -1.5452  0.2436  3.2013
14150TIP3    H263866   4.033   6.470   2.075 -0.5150  1.3654 -2.1397
14151TIP3   OH263867   0.216   0.964  14.118 -0.1864  0.1684  0.5197
14151TIP3    H163868   0.183   1.053  14.107 -1.8319 -0.5549 -0.7174
14151TIP3    H263869   0.270   0.948  14.040  1.2365  0.5143  1.3923
14152TIP3   OH263870   1.620   6.428   2.867  0.0293  0.0523 -0.2095
14152TIP3    H163871   1.594   6.485   2.795  1.1825  0.1352 -0.5865
14152TIP3    H263872   1.705   6.393   2.841  0.7192  0.4818  1.3156
14153TIP3   OH263873   5.128   3.513   5.180  0.2252  0.0338 -0.5089
14153TIP3    H163874   5.099   3.602   5.159  1.5192  0.3757 -0.9363
14153TIP3    H263875   5.088   3.495   5.265  0.3977  1.2587 -0.1468
14154TIP3   OH263876   0.653   0.986  12.140 -0.5254 -0.1113 -0.6486
14154TIP3    H163877   0.563   0.960  12.159  0.1147 -2.4185 -0.4928
14154TIP3    H263878   0.703   0.905  12.143  1.6168  1.1255 -0.5836
14155TIP3   OH263879   1.260   2.495   0.243  0.2028  0.3319 -1.2704
14155TIP3    H163880   1.281   2.582   0.209  3.0901 -0.2578 -1.3225
14155TIP3    H263881   1.282   2.436   0.171 -0.1528 -0.5349 -0.6767
14156TIP3   OH263882   1.462   0.639  11.502  0.3186 -0.2171  0.1845
14156TIP3    H163883   1.481   0.555  11.544  1.1655  0.1822  0.6289
14156TIP3    H263884   1.451   0.701  11.575  2.8182  0.6989 -0.1160
14157TIP3   OH263885   2.969   2.362   1.491  0.0099  0.2404  0.5720
14157TIP3    H163886   2.945   2.382   1.400 -2.1150  0.4723  1.1098
14157TIP3    H263887   2.992   2.446   1.529  1.0389  0.1237  0.2404
14158TIP3   OH263888   4.720   1.268  16.785  0.4315 -0.1751  0.0147
14158TIP3    H163889   4.787   1.207  16.754  0.2353  0.3986 -1.6326
14158TIP3    H263890   4.769   1.349  16.803  0.1737  0.2973 -1.3551
14159TIP3   OH263891   5.908   3.283   4.996  0.1833  0.6014 -0.3423
14159TIP3    H163892   5.927   3.318   5.083  0.1574  0.5660 -0.3225
14159TIP3    H263893   5.953   3.342   4.936  1.2380 -0.0896 -0.2423
14160TIP3   OH263894   3.387   6.273   0.385 -0.4357 -0.1743  0.0247
14160TIP3    H163895   3.480   6.283   0.405 -0.0012 -1.0079 -1.4204
14160TIP3    H263896   3.371   6.179   0.394 -1.4355  0.1077  1.3928
14161TIP3   OH263897   1.396   5.612   3.562  0.2511 -0.3054 -0.1551
14161TIP3    H163898   1.306   5.591   3.590  0.1189  0.2455 -0.1572
14161TIP3    H263899   1.425   5.534   3.515 -0.0092 -0.7280  0.3632
14162TIP3   OH263900   0.712   1.151   4.593 -0.7864  0.4798 -0.6691
14162TIP3    H163901   0.665   1.167   4.675  0.8806 -1.3316  0.7323
14162TIP3    H263902   0.660   1.083   4.550 -0.6755  0.0995 -0.2127
14163TIP3   OH263903   1.383   1.556   3.451  0.0874  0.1867 -0.3217
14163TIP3    H163904   1.415   1.541   3.540  0.5133 -0.3082 -0.5567
14163TIP3    H263905   1.377   1.651   3.444  1.1075  0.2753 -0.1336
14164TIP3   OH263906   5.166   0.943   6.195  0.2524  0.3273 -0.0056
14164TIP3    H163907   5.195   1.034   6.181 -2.2804  1.2665  0.3657
14164TIP3    H263908   5.087   0.951   6.249 -0.3187 -2.0874 -0.3805
14165TIP3   OH263909   6.675   5.275  15.137 -0.6723  0.2920  0.4561
14165TIP3    H163910   6.649   5.241  15.222 -0.8020  1.4994  0.9188
14165TIP3    H263911   6.701   5.366  15.154  1.3301 -0.0680 -0.4333
14166TIP3   OH263912   4.531   1.251  12.212  0.3834 -0.3334  0.5396
14166TIP3    H163913   4.497   1.317  12.152  1.6262  0.2188  0.4294
14166TIP3    H263914   4.589   1.298  12.270 -0.8829 -0.8420  2.3041
14167TIP3   OH263915   3.743   6.453  17.306 -0.5738  0.1299  0.5671
14167TIP3    H163916   3.719   6.369  17.268 -0.9540  0.3253  0.3622
14167TIP3    H263917   3.714   6.448  17.397 -1.4935  0.3883  0.3058
14168TIP3   OH263918   5.730   4.425   1.047  0.2945 -0.0928 -0.6635
14168TIP3    H163919   5.741   4.520   1.052 -1.8655  0.2229 -0.8039
14168TIP3    H263920   5.731   4.395   1.138  1.1643  0.0264 -0.6285
14169TIP3   OH263921   5.983   2.367  15.524  0.0811 -0.6307  0.0069
14169TIP3    H163922   6.074   2.343  15.541 -0.0771 -1.6834 -0.5819
14169TIP3    H263923   5.934   2.332  15.599  0.2615  0.7601  0.8059
14170TIP3   OH263924   2.406   6.772   5.158 -0.4712 -1.0261  0.1730
14170TIP3    H163925   2.416   6.689   5.112 -0.2979 -1.7134  1.4068
14170TIP3    H263926   2.495   6.806   5.167 -0.6248 -0.1709 -1.2334
14171TIP3   OH263927   1.291   0.640  14.006  0.1385  0.0836 -0.7970
14171TIP3    H163928   1.378   0.607  14.029  0.2152  0.4685 -0.5384
14171TIP3    H263929   1.254   0.671  14.088 -1.6643 -3.2561 -0.1725
14172TIP3   OH263930   6.188   3.389   0.825  0.3908 -0.5503  0.0599
14172TIP3    H163931   6.214   3.384   0.733  2.5826 -1.6556  0.6614
14172TIP3    H263932   6.203   3.481   0.849  0.4876 -0.4152 -0.5048
14173TIP3   OH263933   2.159   0.399  16.323 -0.2809  0.3021  0.2904
14173TIP3    H163934   2.201   0.485  16.319 -0.6880  0.5040  0.2535
14173TIP3    H263935   2.226   0.338  16.294  0.4515  0.4494  1.5982
14174TIP3   OH263936   1.148   3.654   0.063 -0.6996  0.0363  0.0559
14174TIP3    H163937   1.100   3.737   0.071  0.6006  0.6271  2.6478
14174TIP3    H263938   1.079   3.587   0.058 -1.7735  1.1782 -1.7040
14175TIP3   OH263939   6.203   5.947  11.035  0.1914 -0.0696  0.1092
14175TIP3    H163940   6.199   5.853  11.019 -0.4865 -0.3276  1.6452
14175TIP3    H263941   6.295   5.969  11.023  0.1846 -0.7006 -1.3410
14176TIP3   OH263942   4.881   0.133  15.049  0.0305 -0.2324  0.1887
14176TIP3    H163943   4.875   0.224  15.020 -1.4152 -0.3789 -0.0537
14176TIP3    H263944   4.918   0.086  14.974 -1.2224 -0.1773 -0.4835
14177TIP3   OH263945   6.666   2.343   4.213  0.5433  0.2321 -0.3254
14177TIP3    H163946   6.718   2.338   4.133  0.4264  0.3871 -0.4112
14177TIP3    H263947   6.582   2.303   4.190  0.6522 -0.0971 -0.1625
14178TIP3   OH263948   4.226   1.121  12.012 -0.5512 -0.2450  0.3602
14178TIP3    H163949   4.199   1.204  12.051 -0.9510 -0.0015 -0.4083
14178TIP3    H263950   4.294   1.145  11.949 -0.4801 -0.5322  0.3262
14179TIP3   OH263951   4.833   3.636   0.843 -0.2193  0.2381 -0.3410
14179TIP3    H163952   4.804   3.715   0.797  0.4068  1.2397  0.9036
14179TIP3    H263953   4.776   3.566   0.811 -1.0365  1.2689 -1.1896
14180TIP3   OH263954   0.377   1.986  12.811 -0.2340  0.0362  0.6250
14180TIP3    H163955   0.316   2.002  12.884  0.3008  1.2137  0.8318
14180TIP3    H263956   0.321   1.957  12.739 -0.7910 -0.9883  1.4414
14181TIP3   OH263957   2.086   2.701   4.173  0.6618  0.6030  0.4303
14181TIP3    H163958   2.030   2.763   4.126 -0.6423 -1.2010 -0.5045
14181TIP3    H263959   2.174   2.719   4.140  0.1670  1.2629 -0.5882
14182TIP3   OH263960   4.137   1.252   4.587 -0.6570 -0.1683  0.4528
14182TIP3    H163961   4.102   1.264   4.499  0.7919 -1.5451 -0.3664
14182TIP3    H263962   4.074   1.295   4.644 -1.6309  0.7667 -1.2490
14183TIP3   OH263963   5.207   3.410  16.505 -0.1944 -0.1685  0.2197
14183TIP3    H163964   5.292   3.431  16.465  0.0576 -1.3083  0.1187
14183TIP3    H263965   5.196   3.316  16.490 -1.7744  0.0717 -0.3156
14184TIP3   OH263966   2.315   2.343  14.344  0.1759 -0.0963 -1.0423
14184TIP3    H163967   2.409   2.327  14.353 -0.0831 -0.7942  0.7606
14184TIP3    H263968   2.289   2.379  14.429 -1.2405 -0.1835 -1.4232
14185TIP3   OH263969   5.906   6.423   5.277  0.0486 -0.2701  0.0565
14185TIP3    H163970   5.845   6.494   5.258  0.5976  0.1103 -0.3018
14185TIP3    H263971   5.890   6.358   5.209  0.0384 -0.1759 -0.0303
14186TIP3   OH263972   0.613   5.667   5.206  0.1631  0.2218  0.2608
14186TIP3    H163973   0.585   5.607   5.274  1.7295 -0.3898  0.4130
14186TIP3    H263974   0.622   5.752   5.250  1.3507 -0.2095  0.8843
14187TIP3   OH263975   5.992   6.500  14.554  0.1006  0.6891  0.2483
14187TIP3    H163976   6.073   6.460  14.522 -0.1943  0.0458  0.2883
14187TIP3    H263977   6.016   6.590  14.574  0.7465  0.5728  0.0173
14188TIP3   OH263978   5.306   0.887   5.457 -0.8011 -0.1049  0.0742
14188TIP3    H163979   5.325   0.804   5.499 -0.2187 -0.0848 -0.1459
14188TIP3    H263980   5.249   0.933   5.519  1.1432  0.5131  1.5205
14189TIP3   OH263981   1.294   2.092  17.213 -0.1860  0.1736 -0.1052
14189TIP3    H163982   1.238   2.015  17.220  0.3307 -0.1876  0.1785
14189TIP3    H263983   1.380   2.061  17.242 -0.3085  1.2175  1.4911
14190TIP3   OH263984   1.504   3.977   3.200 -0.4378 -0.6800 -0.7795
14190TIP3    H163985   1.440   3.992   3.130 -2.7078 -1.5085  0.9759
14190TIP3    H263986   1.490   4.050   3.261  1.6971  0.1849 -1.2518
14191TIP3   OH263987   1.752   6.617  13.628 -0.0674 -0.2423  0.1709
14191TIP3    H163988   1.702   6.649  13.703  0.2651 -0.5677  0.5358
14191TIP3    H263989   1.833   6.667  13.631 -0.1907 -0.0165 -0.1734
14192TIP3   OH263990   3.051   1.104  14.253  0.4154  0.2860  0.2762
14192TIP3    H163991   3.116   1.087  14.185  0.7076  0.3343  0.5394
14192TIP3    H263992   3.079   1.050  14.327  0.4218  0.6700  0.5543
14193TIP3   OH263993   0.531   4.770   4.867 -0.7105 -0.0444 -0.2473
14193TIP3    H163994   0.607   4.779   4.809 -1.3384  0.6760 -0.9799
14193TIP3    H263995   0.464   4.728   4.812 -0.6285 -1.3469  0.6033
14194TIP3   OH263996   0.455   3.648   3.236  0.7417  0.1115 -0.4557
14194TIP3    H163997   0.501   3.566   3.254  0.3166 -0.2121 -0.8283
14194TIP3    H263998   0.381   3.648   3.296  2.4198  1.7095  1.8184
14195TIP3   OH263999   3.411   5.851   2.064  0.2809  0.1928  0.2124
14195TIP3    H164000   3.435   5.941   2.044  0.5012  0.0239 -0.3049
14195TIP3    H264001   3.377   5.816   1.981 -1.4037  0.3095  0.8125
14196TIP3   OH264002   0.408   0.634   6.626  0.0493  0.6136 -0.1058
14196TIP3    H164003   0.333   0.600   6.576  1.1363  1.3320 -2.3316
14196TIP3    H264004   0.389   0.727   6.639 -0.5152  0.3196  1.4761
14197TIP3   OH264005   3.034   6.060   5.589  0.2128  0.7753  0.5892
14197TIP3    H164006   3.047   6.022   5.676  2.5180  0.5311  0.2061
14197TIP3    H264007   3.081   6.144   5.592  1.5569  0.1233 -0.7905
14198TIP3   OH264008   6.203   6.069   2.702 -0.8262  0.1758  0.6368
14198TIP3    H164009   6.200   6.082   2.608  2.4935 -1.3532  0.1828
14198TIP3    H264010   6.224   5.976   2.713 -0.8649  0.3549  2.8753
14199TIP3   OH264011   3.568   6.256  12.414 -0.2695  0.0274  0.3633
14199TIP3    H164012   3.552   6.290  12.326 -0.9169 -0.0092  0.4686
14199TIP3    H264013   3.566   6.333  12.470  0.7888  0.1445  0.2780
14200TIP3   OH264014   1.863   0.680   3.232  0.2514 -0.6724 -0.0511
14200TIP3    H164015   1.818   0.684   3.148 -1.9155 -2.5350  0.9327
14200TIP3    H264016   1.844   0.765   3.273 -1.9097 -1.1626  0.0679
14201TIP3   OH264017   0.936   4.074  12.618  0.2786 -0.1739 -0.2700
14201TIP3    H164018   0.954   4.013  12.690 -1.7456 -1.5423 -0.8351
14201TIP3    H264019   0.984   4.037  12.543  0.8139  0.1698 -0.1030
14202TIP3   OH264020   1.215   1.325   0.185 -0.4597  0.7773 -0.3553
14202TIP3    H164021   1.139   1.303   0.132 -0.4414  0.8959 -0.4320
14202TIP3    H264022   1.219   1.421   0.181 -0.4873  0.7897 -0.1004
14203TIP3   OH264023   1.128   0.851   3.518  0.2593  0.1513  0.1927
14203TIP3    H164024   1.108   0.919   3.454 -2.1096 -1.7244 -1.2438
14203TIP3    H264025   1.178   0.896   3.586  0.4272  2.8668 -1.5662
14204TIP3   OH264026   2.095   1.106  12.129 -0.4608  0.2877  0.6271
14204TIP3    H164027   2.188   1.083  12.121 -0.3599  0.8702 -0.0141
14204TIP3    H264028   2.093   1.201  12.115 -1.3650  0.0260 -1.2104
14205TIP3   OH264029   4.896   5.465  12.560  0.3697 -0.0242  0.4208
14205TIP3    H164030   4.835   5.478  12.487 -1.1428  2.1144  1.9550
14205TIP3    H264031   4.854   5.400  12.615  0.7573 -0.4891  0.1700
14206TIP3   OH264032   4.044   6.107   0.838  0.0441 -0.3639  0.3189
14206TIP3    H164033   3.990   6.145   0.908  0.3921 -1.1115  1.0124
14206TIP3    H264034   3.991   6.117   0.759  0.1545  1.6141  0.4380
14207TIP3   OH264035   3.117   1.247   0.655 -0.1292  0.4332 -0.2767
14207TIP3    H164036   3.115   1.332   0.699  0.2310  1.2810 -1.7948
14207TIP3    H264037   3.209   1.236   0.631 -0.0286 -0.7862  0.6060
14208TIP3   OH264038   1.994   6.609   2.461  0.2951 -0.1583 -0.3423
14208TIP3    H164039   2.030   6.643   2.542 -1.6788  1.6473 -0.1164
14208TIP3    H264040   2.068   6.571   2.415  1.6900 -0.0770  1.7361
14209TIP3   OH264041   2.710   0.579   2.422  0.1989  0.2561 -0.3437
14209TIP3    H164042   2.669   0.585   2.508  0.4196  0.5342 -0.2580
14209TIP3    H264043   2.779   0.513   2.433  0.2781  0.3483 -0.2875
14210TIP3   OH264044   6.196   4.291   3.253  0.1551  0.0898 -0.3144
14210TIP3    H164045   6.182   4.301   3.347 -1.7181  1.6607 -0.7058
14210TIP3    H264046   6.115   4.253   3.220  0.9823 -0.9396 -1.2676
14211TIP3   OH264047   5.238   3.969  14.367  0.0056  0.1439  0.0994
14211TIP3    H164048   5.278   3.951  14.452 -0.1439  1.5068  0.4809
14211TIP3    H264049   5.145   3.980  14.386  0.0512  0.9993 -0.1528
14212TIP3   OH264050   6.644   0.955  15.755  0.7261  0.4784  0.6400
14212TIP3    H164051   6.567   0.964  15.811  0.0914  1.2758 -0.3230
14212TIP3    H264052   6.632   0.870  15.712  0.1800  0.7472  0.2365
14213TIP3   OH264053   2.231   5.994  14.626  0.3262  0.2316 -0.3850
14213TIP3    H164054   2.270   5.952  14.549  1.3556  1.8727 -0.8313
14213TIP3    H264055   2.145   6.024  14.596  0.7010  0.8173 -0.9186
14214TIP3   OH264056   2.896   6.677   4.312 -0.4716 -0.7588  0.3354
14214TIP3    H164057   2.938   6.763   4.324  1.6285 -1.8020  0.9313
14214TIP3    H264058   2.963   6.623   4.270 -0.4228 -3.0942  3.1222
14215TIP3   OH264059   0.941   2.878   1.471  0.3569  0.5427  0.1301
14215TIP3    H164060   0.927   2.947   1.407 -0.9623  0.8807  0.7637
14215TIP3    H264061   0.854   2.847   1.494  0.9078 -2.0402 -0.8600
14216TIP3   OH264062   5.001   6.678  11.655  0.1832 -0.7108  0.0352
14216TIP3    H164063   4.932   6.697  11.718 -0.9442  1.8971 -1.7823
14216TIP3    H264064   5.080   6.718  11.693 -0.7212  1.8592 -0.5516
14217TIP3   OH264065   6.187   1.476  14.078 -0.4573 -0.2455  0.2081
14217TIP3    H164066   6.233   1.495  14.161  1.3326 -1.0768 -0.5336
14217TIP3    H264067   6.095   1.470  14.103  0.0288 -0.4751  2.1501
14218TIP3   OH264068   5.933   1.070  15.551  0.1739  0.3751  0.1523
14218TIP3    H164069   6.013   1.099  15.595 -0.6556  1.0734  1.2629
14218TIP3    H264070   5.888   1.151  15.527 -0.4417 -0.0019  0.0018
14219TIP3   OH264071   3.862   4.385   6.094 -0.4105 -0.1543  0.1926
14219TIP3    H164072   3.940   4.439   6.076 -0.8428  0.3251 -0.2728
14219TIP3    H264073   3.807   4.396   6.017 -0.2727 -1.7130 -0.1671
14220TIP3   OH264074   2.684   0.402   4.723  0.3279 -0.9946  0.4817
14220TIP3    H164075   2.731   0.320   4.734  0.5415 -0.7595  1.4383
14220TIP3    H264076   2.680   0.440   4.811 -1.1537 -0.7367  0.3367
14221TIP3   OH264077   4.893   3.884  14.255 -0.3795 -0.1615  0.5310
14221TIP3    H164078   4.834   3.810  14.238 -0.0194 -0.6966  1.5796
14221TIP3    H264079   4.929   3.868  14.342  0.7174  0.5762  0.2370
14222TIP3   OH264080   4.348   5.628  11.384  0.2470 -0.4780 -0.1909
14222TIP3    H164081   4.440   5.649  11.396  0.1254  0.0532 -0.1593
14222TIP3    H264082   4.302   5.711  11.399 -0.1011 -0.2825 -2.0480
14223TIP3   OH264083   2.188   3.909   3.831 -0.1719  0.2381  0.3043
14223TIP3    H164084   2.201   4.003   3.845 -1.5811  0.8439 -1.9473
14223TIP3    H264085   2.121   3.884   3.895  0.6078  0.6048  1.2941
14224TIP3   OH264086   0.153   0.012  13.514 -0.0380 -0.4406  0.4134
14224TIP3    H164087   0.195   0.089  13.551  1.8643 -1.0729 -0.3193
14224TIP3    H264088   0.128   0.038  13.425  1.2017 -0.8278 -0.0694
14225TIP3   OH264089   6.736   6.559  16.682 -0.8743 -0.1608  0.2701
14225TIP3    H164090   6.668   6.516  16.733 -1.5320  0.6683  0.1005
14225TIP3    H264091   6.704   6.559  16.592 -1.2611  1.3790  0.3819
14226TIP3   OH264092   0.674   0.569  13.322  0.0159 -0.5949  0.1551
14226TIP3    H164093   0.635   0.498  13.373  2.0704 -2.5139 -0.7882
14226TIP3    H264094   0.749   0.598  13.374 -1.1112  1.3566  0.7951
14227TIP3   OH264095   4.582   3.701   6.359 -0.5417  0.0995 -0.0116
14227TIP3    H164096   4.578   3.766   6.290 -1.2324  0.1714  0.0931
14227TIP3    H264097   4.522   3.733   6.426 -0.3520 -0.2863  0.3476
14228TIP3   OH264098   6.240   5.107  14.494  0.4306 -0.3956  0.5336
14228TIP3    H164099   6.198   5.075  14.414  1.1795 -0.3323  0.1130
14228TIP3    H264100   6.174   5.164  14.534  0.1045 -0.3133 -0.1081
14229TIP3   OH264101   0.258   0.870   0.326  0.0925  0.2680 -0.1221
14229TIP3    H164102   0.188   0.831   0.378  0.2787 -0.0788 -0.1333
14229TIP3    H264103   0.308   0.796   0.293  3.0063  0.4858  3.2529
14230TIP3   OH264104   3.521   1.091  11.440  0.0181  0.3742  0.8341
14230TIP3    H164105   3.503   1.000  11.464  1.7885  0.0885  1.2161
14230TIP3    H264106   3.586   1.084  11.370  0.6168  1.3507  1.2776
14231TIP3   OH264107   1.178   0.223   6.335 -0.5864 -0.2367 -0.2402
14231TIP3    H164108   1.224   0.149   6.376 -0.1825 -0.2950 -0.7819
14231TIP3    H264109   1.090   0.220   6.371 -0.3395 -0.5040  0.3482
14232TIP3   OH264110   5.192   6.518   0.560 -0.0800  0.5355 -0.0738
14232TIP3    H164111   5.231   6.584   0.504  0.2713  0.6876  0.3463
14232TIP3    H264112   5.213   6.435   0.517 -2.0549  0.7358 -1.5778
14233TIP3   OH264113   4.037   3.553   0.848  0.3067 -0.0166 -0.0927
14233TIP3    H164114   4.017   3.646   0.836 -1.6985 -0.2252  1.0982
14233TIP3    H264115   4.058   3.546   0.941 -1.6789 -1.0386  0.3295
14234TIP3   OH264116   5.942   2.900  15.423 -0.2317 -0.2106 -0.2490
14234TIP3    H164117   5.967   2.985  15.459  0.2123  0.3915 -1.8630
14234TIP3    H264118   5.877   2.865  15.484  0.1955  0.9105  0.8740
14235TIP3   OH264119   3.550   6.617  12.855  0.3930  0.0924 -0.0622
14235TIP3    H164120   3.638   6.624  12.818  0.8430 -0.0997  0.9450
14235TIP3    H264121   3.554   6.541  12.913 -0.2249  0.5046  0.5426
14236TIP3   OH264122   2.412   4.674   2.751  0.0555 -0.1017  0.2505
14236TIP3    H164123   2.491   4.701   2.704  1.1528 -0.8696  1.5596
14236TIP3    H264124   2.385   4.594   2.708  0.4056 -0.2085  0.2212
14237TIP3   OH264125   3.780   3.486  16.460  0.0034 -0.3741 -0.4256
14237TIP3    H164126   3.746   3.569  16.494 -0.1480 -0.6005 -0.0198
14237TIP3    H264127   3.770   3.494  16.365  0.4394  0.2665 -0.4266
14238TIP3   OH264128   0.019   1.115   2.252 -0.3319  0.2561 -0.8625
14238TIP3    H164129  -0.001   1.021   2.241  0.7160  0.0522 -1.0948
14238TIP3    H264130   0.041   1.145   2.164 -0.3180  0.6447 -0.7275
14239TIP3   OH264131   2.859   3.913   1.953  0.2023  0.9668 -0.7654
14239TIP3    H164132   2.823   3.917   1.864 -0.3269 -0.0333 -0.6182
14239TIP3    H264133   2.834   3.826   1.985 -1.3917  2.0286  1.1116
14240TIP3   OH264134   6.345   6.763   4.159 -0.0769  0.0247  0.4792
14240TIP3    H164135   6.323   6.687   4.105  1.8652 -0.7052  0.6315
14240TIP3    H264136   6.289   6.755   4.236 -1.9564  0.3719 -0.7901
14241TIP3   OH264137   0.099   1.306  12.232  0.3671 -0.0802 -0.3241
14241TIP3    H164138   0.041   1.354  12.173  1.2192  1.0989 -0.2353
14241TIP3    H264139   0.187   1.324  12.200  0.7138 -2.3474 -0.8353
14242TIP3   OH264140   2.596   5.968  13.321 -0.0350 -0.5420 -0.5592
14242TIP3    H164141   2.665   5.947  13.259  1.1498  1.7060 -0.1074
14242TIP3    H264142   2.625   5.929  13.403  3.4793  4.3725  0.9501
14243TIP3   OH264143   5.340   3.767  12.877  0.2521 -0.1223  0.3402
14243TIP3    H164144   5.389   3.848  12.863  0.0965 -0.0755  0.0605
14243TIP3    H264145   5.338   3.756  12.972  2.7977 -1.3125  0.3397
14244TIP3   OH264146   2.991   0.990   0.617 -0.2932 -0.2330  0.1201
14244TIP3    H164147   2.994   1.080   0.651 -2.1323  0.1444 -0.5860
14244TIP3    H264148   2.931   0.995   0.542 -1.5518 -2.2876  0.8965
14245TIP3   OH264149   1.364   0.495   4.894  0.4477  0.1884  0.5303
14245TIP3    H164150   1.356   0.555   4.820  4.0448  0.2369 -0.0055
14245TIP3    H264151   1.311   0.419   4.869  1.2119  0.3829 -1.9483
14246TIP3   OH264152   0.545   6.169  15.010  0.6157  0.0515 -0.0210
14246TIP3    H164153   0.584   6.213  15.085 -0.1056  1.3376 -0.3701
14246TIP3    H264154   0.582   6.215  14.934 -0.7042  0.5892 -0.3750
14247TIP3   OH264155   4.885   2.116   2.689  0.5863  0.0637 -0.3846
14247TIP3    H164156   4.970   2.134   2.648  0.4769  0.2083 -0.5462
14247TIP3    H264157   4.879   2.021   2.690  1.6318 -0.0436  1.4010
14248TIP3   OH264158   6.764   5.109   3.652  0.0080  0.0816 -0.0930
14248TIP3    H164159   6.829   5.056   3.699 -0.4638  0.7198  1.3367
14248TIP3    H264160   6.683   5.096   3.701 -1.7248 -2.8030 -3.3311
14249TIP3   OH264161   2.001   6.282   1.277  0.1333 -1.0041  0.3045
14249TIP3    H164162   1.913   6.299   1.245 -0.3294  1.0268  2.3215
14249TIP3    H264163   2.059   6.328   1.216 -0.6410  1.8198  1.4947
14250TIP3   OH264164   0.666   1.269  11.745 -0.0182  0.0775  0.2932
14250TIP3    H164165   0.647   1.362  11.756 -0.3685  0.0760 -0.2881
14250TIP3    H264166   0.620   1.226  11.817  0.5272  0.3944  0.8399
14251TIP3   OH264167   5.030   4.698  14.127 -0.1062 -0.0054 -0.1990
14251TIP3    H164168   4.987   4.646  14.059  0.5130 -0.8884  0.0618
14251TIP3    H264169   5.083   4.634  14.176  0.0639  0.7417  0.6241
14252TIP3   OH264170   0.256   1.188  15.324 -0.7654  0.3624  0.0346
14252TIP3    H164171   0.241   1.140  15.406 -2.1464 -1.3721 -1.1609
14252TIP3    H264172   0.330   1.245  15.343  0.7056 -1.9442  1.6965
14253TIP3   OH264173   3.835   1.216  15.977  0.2721 -0.3138  0.6028
14253TIP3    H164174   3.916   1.172  16.002  1.3260  1.3208  0.2032
14253TIP3    H264175   3.856   1.309  15.982 -0.4303  0.1826 -3.0739
14254TIP3   OH264176   3.168   0.145  16.910 -0.0980 -0.1442  0.0920
14254TIP3    H164177   3.099   0.124  16.972  0.4665 -3.3385 -0.1847
14254TIP3    H264178   3.232   0.195  16.962 -2.0617  2.0780  0.5610
14255TIP3   OH264179   1.495   4.071  16.018  0.2528  0.0057 -0.4202
14255TIP3    H164180   1.566   4.019  16.054  0.9414  1.2270  0.0510
14255TIP3    H264181   1.532   4.113  15.941  0.4514  1.5754  0.4860
14256TIP3   OH264182   4.178   5.486  11.252 -0.8320 -0.2751  0.0346
14256TIP3    H164183   4.242   5.541  11.297 -1.6175  0.0501  0.7957
14256TIP3    H264184   4.213   5.398  11.258 -1.7646 -0.5595  3.0205
14257TIP3   OH264185   0.576   6.699   2.630 -0.1480 -0.0674 -0.1638
14257TIP3    H164186   0.501   6.756   2.616 -0.0629 -0.1671 -1.0955
14257TIP3    H264187   0.650   6.759   2.645 -0.0187  0.1042 -1.3322
14258TIP3   OH264188   5.599   6.273  12.872 -0.3376 -0.4891  0.0216
14258TIP3    H164189   5.586   6.190  12.827  0.8864 -0.4331 -0.4742
14258TIP3    H264190   5.511   6.307  12.886 -1.0183 -2.8103  2.1137
14259TIP3   OH264191   2.701   5.612   6.557  0.0521 -0.3846  0.5318
14259TIP3    H164192   2.646   5.651   6.624 -1.1327 -0.2694 -0.4734
14259TIP3    H264193   2.757   5.685   6.527 -0.5541 -0.0243  0.2644
14260TIP3   OH264194   4.864   4.394  15.616 -0.1957  0.0211 -0.2192
14260TIP3    H164195   4.876   4.466  15.553 -1.0116 -0.1523 -0.5896
14260TIP3    H264196   4.774   4.404  15.647 -0.4281 -1.0336 -0.5217
14261TIP3   OH264197   0.710   1.686  11.876 -1.1237  0.0698 -0.0445
14261TIP3    H164198   0.758   1.613  11.915  0.5794  0.6342 -0.9761
14261TIP3    H264199   0.676   1.650  11.794  0.1344  0.4217 -0.7435
14262TIP3   OH264200   3.598   3.091  12.178  0.5385 -0.1953  0.4597
14262TIP3    H164201   3.584   3.126  12.266  1.2987 -1.5419  1.1471
14262TIP3    H264202   3.557   3.005  12.179 -0.6102  0.2885 -0.9498
14263TIP3   OH264203   0.299   3.852  16.469 -0.2123  0.0249  0.2655
14263TIP3    H164204   0.374   3.794  16.482  0.2332  0.5465  0.0745
14263TIP3    H264205   0.278   3.886  16.556 -0.0088  0.1419  0.2686
14264TIP3   OH264206   0.313   0.636  13.376  0.0556  0.0163 -0.3470
14264TIP3    H164207   0.254   0.670  13.444  0.6782 -1.2463  0.8747
14264TIP3    H264208   0.386   0.698  13.375 -0.1409  0.2559 -0.1378
14265TIP3   OH264209   6.770   3.239  15.981 -0.0691 -0.1595 -0.3078
14265TIP3    H164210   6.685   3.246  16.026  0.0250 -0.4061 -0.0867
14265TIP3    H264211   6.790   3.145  15.983  2.1811  0.1918  3.3501
14266TIP3   OH264212   0.630   4.336  16.670  0.8492  0.2223  0.5183
14266TIP3    H164213   0.667   4.311  16.586  2.2749  0.9712  0.9040
14266TIP3    H264214   0.563   4.269  16.687 -1.2246  1.3866 -2.2887
14267TIP3   OH264215   4.080   5.011  15.883 -0.1357 -0.6168 -0.4161
14267TIP3    H164216   4.057   4.959  15.806 -0.1265 -1.8371  0.3879
14267TIP3    H264217   4.175   5.000  15.892 -0.2222 -0.9918  0.1161
14268TIP3   OH264218   3.423   4.324   5.300  0.5256 -0.0429 -0.0706
14268TIP3    H164219   3.494   4.387   5.313  0.3590  0.2632 -0.6146
14268TIP3    H264220   3.366   4.365   5.235 -0.1369 -0.3032  0.3355
14269TIP3   OH264221   1.339   2.461  13.271 -0.3370 -0.1800 -0.5447
14269TIP3    H164222   1.250   2.436  13.243  0.0462 -2.8383  0.2899
14269TIP3    H264223   1.373   2.382  13.314  1.2918  1.7709  2.0210
14270TIP3   OH264224   4.300   4.498   1.831 -0.0565 -0.3745 -0.2499
14270TIP3    H164225   4.274   4.500   1.923 -1.2008 -0.2133 -0.5638
14270TIP3    H264226   4.324   4.406   1.815  3.0422  0.1086  0.9411
14271TIP3   OH264227   0.351   2.445   0.399  0.1775  0.2680  0.3841
14271TIP3    H164228   0.373   2.517   0.458  2.6378 -1.4850  1.7960
14271TIP3    H264229   0.345   2.368   0.455 -1.3505 -0.8608 -1.2029
14272TIP3   OH264230   5.151   4.826   5.821  0.3055  0.3601  0.0686
14272TIP3    H164231   5.230   4.877   5.841 -0.2669  2.1888 -1.9306
14272TIP3    H264232   5.091   4.889   5.781 -0.5975 -1.8024 -2.2419
14273TIP3   OH264233   0.223   5.758  12.439  0.0112 -0.2844  0.3058
14273TIP3    H164234   0.148   5.700  12.426 -0.2097  0.2813 -1.1373
14273TIP3    H264235   0.250   5.782  12.350  0.9935  0.6775  0.8446
14274TIP3   OH264236   3.514   0.153  17.204 -0.3842 -0.4351 -0.0806
14274TIP3    H164237   3.607   0.166  17.223 -0.5149  0.2990  0.0583
14274TIP3    H264238   3.491   0.221  17.141 -1.2009  0.4231  1.0930
14275TIP3   OH264239   1.875   5.998   0.509  0.0624  0.1272  0.1445
14275TIP3    H164240   1.800   6.057   0.505  0.5505  0.9762  2.0913
14275TIP3    H264241   1.836   5.911   0.521 -0.6542  0.5481  1.0593
14276TIP3   OH264242   4.567   6.477   5.385  0.2595 -0.4719  0.2301
14276TIP3    H164243   4.498   6.526   5.340  0.0523 -2.3236 -1.6594
14276TIP3    H264244   4.623   6.445   5.314  1.5944 -1.1351  1.5469
14277TIP3   OH264245   5.551   6.498   5.356  0.4107 -0.2659 -0.3572
14277TIP3    H164246   5.599   6.536   5.283  0.3101  0.1902 -0.1893
14277TIP3    H264247   5.554   6.565   5.424 -0.0121 -0.4473 -0.1573
14278TIP3   OH264248   3.503   0.481   3.799 -1.2792  0.0007  0.5811
14278TIP3    H164249   3.546   0.399   3.824 -1.6361 -0.3766 -0.0009
14278TIP3    H264250   3.412   0.456   3.782 -1.4495  0.5668  0.6360
14279TIP3   OH264251   4.981   3.950  13.838 -0.3085  0.1584  0.2254
14279TIP3    H164252   5.039   4.025  13.826  0.6479 -0.2479  1.9324
14279TIP3    H264253   4.893   3.984  13.820  0.3280  1.0526 -1.3570
14280TIP3   OH264254   2.539   6.164   2.397 -0.0091 -0.4628  0.2100
14280TIP3    H164255   2.605   6.111   2.352  0.8049  0.3870  0.3658
14280TIP3    H264256   2.479   6.190   2.327  0.1053 -0.8310 -0.0303
14281TIP3   OH264257   2.067   0.965   1.803 -0.6448  0.0898  0.6354
14281TIP3    H164258   2.013   1.039   1.829 -0.7140  1.0522 -1.9836
14281TIP3    H264259   2.011   0.888   1.815 -3.2798  1.1607 -3.2659
14282TIP3   OH264260   5.583   3.852   1.243  0.5702 -0.0227  0.1498
14282TIP3    H164261   5.544   3.927   1.289 -0.4877 -0.3971 -0.1038
14282TIP3    H264262   5.647   3.891   1.184 -1.5580  0.9410 -1.6688
14283TIP3   OH264263   1.992   4.916  12.015  0.0459 -0.1035 -0.1872
14283TIP3    H164264   2.019   5.002  11.982  0.1657 -0.1528 -0.2198
14283TIP3    H264265   2.073   4.878  12.050  0.7919 -1.6178 -3.2241
14284TIP3   OH264266   5.275   5.163   4.433 -0.5243  0.1587  0.7838
14284TIP3    H164267   5.362   5.137   4.403 -0.5645  0.7408  0.1414
14284TIP3    H264268   5.240   5.085   4.476 -1.7629 -1.8893 -3.4712
14285TIP3   OH264269   3.158   3.061   0.241 -0.2265  0.1968 -0.4961
14285TIP3    H164270   3.210   3.027   0.314 -1.6086 -1.4660 -0.2140
14285TIP3    H264271   3.221   3.076   0.171  0.6323 -2.1021 -0.3069
14286TIP3   OH264272   1.227   6.642  16.988  0.0869  0.7012  0.4512
14286TIP3    H164273   1.137   6.674  16.991  0.1199  0.7439  1.0948
14286TIP3    H264274   1.267   6.673  17.070  0.3179 -0.3739  0.7688
14287TIP3   OH264275   0.980   0.395   3.894 -1.2622  0.1792  0.1082
14287TIP3    H164276   0.902   0.373   3.843 -0.0554 -0.8983 -1.3191
14287TIP3    H264277   1.003   0.484   3.866 -0.3983 -0.5342 -1.5631
14288TIP3   OH264278   3.842   2.707  11.791 -0.3028 -0.1779  0.0827
14288TIP3    H164279   3.911   2.722  11.727 -1.4618  0.4182 -1.0924
14288TIP3    H264280   3.887   2.675  11.869  1.1356 -1.2594 -1.1356
14289TIP3   OH264281   0.915   0.019  13.561  0.2497  0.0531  0.0332
14289TIP3    H164282   0.877   0.088  13.616 -0.9932 -0.1497 -0.5306
14289TIP3    H264283   0.871   0.030  13.476  0.1745 -1.3098 -0.1259
14290TIP3   OH264284   4.693   4.984  14.670  0.6347  0.3319  0.3495
14290TIP3    H164285   4.667   5.074  14.651 -0.2808 -0.0324 -0.2096
14290TIP3    H264286   4.657   4.933  14.597  0.9737 -0.5146  0.7601
14291TIP3   OH264287   6.238   2.287  14.100 -0.2197 -0.4778 -0.6462
14291TIP3    H164288   6.250   2.235  14.020  1.0166 -2.3540  0.6723
14291TIP3    H264289   6.146   2.313  14.098 -0.5579 -1.6316 -2.0216
14292TIP3   OH264290   1.181   0.246  11.295  0.1538 -0.4516  0.1737
14292TIP3    H164291   1.105   0.294  11.262 -0.9813 -1.3119  1.4620
14292TIP3    H264292   1.169   0.242  11.389  1.7304 -0.7588  0.4033
14293TIP3   OH264293   1.409   6.012   2.556 -0.6241  0.9958  0.2114
14293TIP3    H164294   1.478   6.059   2.602 -0.0506 -0.5426  0.9850
14293TIP3    H264295   1.454   5.970   2.482 -0.9969  1.1029 -0.0818
14294TIP3   OH264296   0.219   3.121  17.212 -0.5729  0.7172  0.0882
14294TIP3    H164297   0.256   3.203  17.246  0.3493  1.2034 -1.9849
14294TIP3    H264298   0.292   3.078  17.168 -1.6101 -0.1010 -0.8691
14295TIP3   OH264299   0.991   4.557  12.792  0.3177  0.5056 -0.0946
14295TIP3    H164300   0.955   4.529  12.708  1.1858  1.0111 -0.6477
14295TIP3    H264301   0.999   4.477  12.843 -2.4727  0.4424  0.4388
14296TIP3   OH264302   5.570   5.326  12.964 -0.3160 -0.1664 -0.3412
14296TIP3    H164303   5.525   5.321  12.880  0.0367  0.8676 -0.6055
14296TIP3    H264304   5.560   5.418  12.991 -1.0434 -0.6437  1.0925
14297TIP3   OH264305   1.287   2.302   1.014 -0.0690 -0.2797 -0.2191
14297TIP3    H164306   1.295   2.349   0.931  2.0883  0.1855  0.1873
14297TIP3    H264307   1.265   2.371   1.078  4.4317  0.7116  0.6313
14298TIP3   OH264308   2.932   2.889  13.780  0.6297  0.2110  0.3919
14298TIP3    H164309   2.983   2.821  13.736 -0.7509 -0.2551 -0.5829
14298TIP3    H264310   2.988   2.966  13.778  1.4508 -0.3791 -0.2758
14299TIP3   OH264311   5.335   0.885   3.299  0.3788  0.2650  0.4824
14299TIP3    H164312   5.267   0.948   3.321 -0.1419 -0.4518  0.9954
14299TIP3    H264313   5.369   0.855   3.384  1.1753  0.4483  0.2353
14300TIP3   OH264314   5.329   6.452   0.843 -0.0901 -0.0553  0.3406
14300TIP3    H164315   5.274   6.395   0.789  0.0744 -1.2883  1.4297
14300TIP3    H264316   5.357   6.522   0.783 -1.4910 -0.2947 -0.6518
14301TIP3   OH264317   2.662   2.744  12.145  0.9785  0.3418  0.1034
14301TIP3    H164318   2.582   2.709  12.106  0.4954 -1.0490  2.1928
14301TIP3    H264319   2.733   2.693  12.106  0.4454 -1.5408  1.4713
14302TIP3   OH264320   4.319   1.078   6.415  0.0212  0.3375 -0.4879
14302TIP3    H164321   4.353   1.019   6.482  0.4362  0.8273 -0.2610
14302TIP3    H264322   4.267   1.142   6.463 -1.4742 -0.5493 -0.8523
14303TIP3   OH264323   6.465   6.482   3.681 -0.4485 -0.3455  0.3777
14303TIP3    H164324   6.471   6.429   3.601  4.3085  1.0282 -0.4948
14303TIP3    H264325   6.545   6.461   3.729 -1.6210  1.2583  3.2609
14304TIP3   OH264326   2.454   4.323   4.527 -0.9735  0.0874 -0.1683
14304TIP3    H164327   2.474   4.246   4.475  2.3718 -0.0890  1.1540
14304TIP3    H264328   2.500   4.309   4.610 -0.4633  3.3180  0.2290
14305TIP3   OH264329   4.825   5.683   5.688  0.0802  0.1121 -0.9036
14305TIP3    H164330   4.917   5.685   5.662  1.0285 -3.7585  1.2782
14305TIP3    H264331   4.811   5.767   5.731  3.4137 -0.0010  0.7728
14306TIP3   OH264332   3.059   2.734  11.693 -0.5520  0.2007  0.2280
14306TIP3    H164333   3.060   2.749  11.787 -1.5723 -2.4193  0.7545
14306TIP3    H264334   3.120   2.662  11.679 -0.3599  0.5907 -1.1293
14307TIP3   OH264335   4.993   2.228  16.687 -0.0239  0.1423 -0.6530
14307TIP3    H164336   5.047   2.230  16.766  0.6196 -0.6639 -1.0519
14307TIP3    H264337   4.933   2.302  16.697  0.2059  0.2014  0.4685
14308TIP3   OH264338   2.298   2.961  12.800  0.5927  0.2007  0.6069
14308TIP3    H164339   2.300   2.976  12.706  0.0911 -0.1591  0.5332
14308TIP3    H264340   2.215   2.999  12.829  0.9994  0.8138  0.9973
14309TIP3   OH264341   5.597   6.008   1.734  0.4089 -0.0739  0.1144
14309TIP3    H164342   5.582   6.089   1.684  0.1603 -1.4557 -2.1907
14309TIP3    H264343   5.681   6.022   1.777 -0.0594  1.7532  0.5179
14310TIP3   OH264344   2.276   4.966  14.546  0.0204  0.1501  0.2319
14310TIP3    H164345   2.296   5.031  14.614  1.0123  2.2095 -1.8768
14310TIP3    H264346   2.317   5.001  14.467  0.6188 -3.1101 -1.0585
14311TIP3   OH264347   5.950   3.457  16.313 -0.1476 -0.0644  0.6933
14311TIP3    H164348   6.044   3.439  16.314 -0.2478 -0.6605  0.1706
14311TIP3    H264349   5.940   3.537  16.363  0.7625  0.5489 -0.0744
14312TIP3   OH264350   1.905   2.537   5.708  0.3684  0.0967  0.1566
14312TIP3    H164351   1.980   2.524   5.766  0.7066 -0.5859 -0.4228
14312TIP3    H264352   1.928   2.491   5.627  0.5194  2.1986 -1.0707
14313TIP3   OH264353   2.329   2.153  12.300 -0.4803  0.1923 -0.3093
14313TIP3    H164354   2.379   2.081  12.261 -0.3090 -0.4740  1.0898
14313TIP3    H264355   2.267   2.178  12.231  0.1940 -0.5466 -1.2230
14314TIP3   OH264356   2.389   3.256   6.722  0.0578  0.2510  0.0257
14314TIP3    H164357   2.471   3.286   6.762  1.0451 -0.9972 -0.9676
14314TIP3    H264358   2.393   3.160   6.728 -0.5208  0.0977 -1.5521
14315TIP3   OH264359   3.800   4.908  11.295 -0.6142 -0.2481  0.1839
14315TIP3    H164360   3.736   4.858  11.346 -0.8409 -0.4120 -0.2543
14315TIP3    H264361   3.883   4.863  11.308 -0.4209  0.4025  1.3741
14316TIP3   OH264362   0.236   3.049  16.839 -0.1282 -0.1434  0.4225
14316TIP3    H164363   0.262   3.005  16.759 -0.2958  0.2038  0.1758
14316TIP3    H264364   0.161   2.998  16.872  1.0978 -1.4294  1.3814
14317TIP3   OH264365   3.563   0.615   5.001  0.0479  0.3558  0.0604
14317TIP3    H164366   3.506   0.691   5.011 -4.6478 -2.7028 -0.4360
14317TIP3    H264367   3.566   0.575   5.088  2.4866  0.9695  0.3273
14318TIP3   OH264368   5.260   1.840   0.408 -0.4907  0.2832  0.4963
14318TIP3    H164369   5.268   1.888   0.490 -2.2109  2.8766 -0.7477
14318TIP3    H264370   5.298   1.897   0.342 -0.2845 -1.1983 -0.7323
14319TIP3   OH264371   3.163   0.298  14.192  0.0128 -0.6480  0.4408
14319TIP3    H164372   3.164   0.203  14.202  1.0176 -0.5620  1.3793
14319TIP3    H264373   3.099   0.314  14.123  0.3790 -2.0542 -0.2800
14320TIP3   OH264374   3.669   0.557  14.053 -0.0393 -0.1128  0.0829
14320TIP3    H164375   3.700   0.503  13.980  0.2556  0.5167 -0.2654
14320TIP3    H264376   3.575   0.540  14.057  0.0845 -0.8109  0.1151
14321TIP3   OH264377   6.716   2.552  14.750 -0.4071 -0.4981  0.2414
14321TIP3    H164378   6.641   2.531  14.695  0.0705 -0.3772 -0.4748
14321TIP3    H264379   6.726   2.476  14.808 -0.7903 -0.7182  0.0208
14322TIP3   OH264380   3.456   5.734  12.949  0.4783 -0.4183  0.0226
14322TIP3    H164381   3.462   5.787  12.869 -0.0793  0.2919  0.4394
14322TIP3    H264382   3.370   5.756  12.986  0.8451 -0.5285  0.9655
14323TIP3   OH264383   0.944   5.905   0.628  0.5337 -0.2643 -0.0651
14323TIP3    H164384   0.874   5.840   0.621  1.1641 -1.2118  1.8238
14323TIP3    H264385   0.910   5.981   0.581 -0.6003 -1.6087 -1.5858
14324TIP3   OH264386   4.799   6.502   2.166  0.2667 -0.3225 -0.0947
14324TIP3    H164387   4.739   6.433   2.194  0.6430 -0.0701  1.3960
14324TIP3    H264388   4.774   6.578   2.219  0.3405  0.4841 -1.1847
14325TIP3   OH264389   1.311   0.307  14.241 -0.4731 -0.4766 -0.3462
14325TIP3    H164390   1.378   0.374  14.228 -0.6103 -0.0526  0.9771
14325TIP3    H264391   1.352   0.226  14.210  0.1766 -0.0067 -0.7394
14326TIP3   OH264392   5.533   0.726   4.037  0.0403 -0.3865  0.2172
14326TIP3    H164393   5.464   0.724   4.104 -1.2255  1.6714 -0.9127
14326TIP3    H264394   5.582   0.806   4.056 -0.9830  0.7990 -1.8584
14327TIP3   OH264395   6.176   0.173   0.194 -0.2686  0.2239  0.2126
14327TIP3    H164396   6.201   0.088   0.230  0.0242  0.4535  0.5546
14327TIP3    H264397   6.131   0.218   0.265 -1.1555  0.0437 -0.2209
14328TIP3   OH264398   0.183   1.432  16.841  0.3636 -0.3070  0.3171
14328TIP3    H164399   0.171   1.509  16.786 -0.0010  0.1244  0.9898
14328TIP3    H264400   0.257   1.455  16.898 -0.7004  0.1560  1.5449
14329TIP3   OH264401   1.247   4.742   3.322 -0.2461  0.5287  0.8223
14329TIP3    H164402   1.291   4.782   3.397  2.5935 -0.3057 -0.2683
14329TIP3    H264403   1.238   4.814   3.259  0.5810  0.4772  0.6385
14330TIP3   OH264404   2.292   1.219  12.544  0.6636  0.2957  0.3880
14330TIP3    H164405   2.202   1.226  12.575  0.8964  1.7210  0.8096
14330TIP3    H264406   2.297   1.280  12.470  0.9378 -0.7719 -0.4965
14331TIP3   OH264407   1.867   3.808   4.836  0.5388 -0.7015  0.0193
14331TIP3    H164408   1.868   3.748   4.760  0.2994 -1.7596  0.8233
14331TIP3    H264409   1.775   3.813   4.860  0.5439  0.1226 -0.1256
14332TIP3   OH264410   2.381   5.274   0.858 -0.2649  0.3384 -0.5082
14332TIP3    H164411   2.466   5.313   0.878 -1.2779  1.5072  1.9723
14332TIP3    H264412   2.346   5.327   0.786 -0.0102  1.6382  0.2897
14333TIP3   OH264413   0.468   0.997   0.583 -0.0171 -0.5458 -0.1817
14333TIP3    H164414   0.400   1.052   0.544 -0.8989 -1.8130 -0.4949
14333TIP3    H264415   0.420   0.936   0.639  0.9805 -0.6606  0.5580
14334TIP3   OH264416   0.434   0.229   2.003  0.1247 -0.3915 -0.3601
14334TIP3    H164417   0.494   0.294   2.037  0.7797 -0.9733 -0.3753
14334TIP3    H264418   0.489   0.172   1.949 -0.1333 -1.8071  0.7990
14335TIP3   OH264419   3.644   5.734  14.764  0.1090  0.0614  0.0534
14335TIP3    H164420   3.722   5.680  14.776 -0.3727 -1.0330 -1.4682
14335TIP3    H264421   3.656   5.777  14.680 -0.2417  1.1107  0.5215
14336TIP3   OH264422   1.296   0.649   5.305  0.0988  0.1090  0.3587
14336TIP3    H164423   1.268   0.735   5.274  1.1976  1.1161  1.9941
14336TIP3    H264424   1.279   0.651   5.399  0.7371 -1.2106  0.5230
14337TIP3   OH264425   3.632   0.358  16.889  0.3371 -0.6958  0.2226
14337TIP3    H164426   3.576   0.427  16.852 -0.2324 -0.9765  0.5431
14337TIP3    H264427   3.570   0.289  16.914  0.8608 -1.1244  0.3360
14338TIP3   OH264428   1.214   3.999   5.787 -0.5811  0.2202  0.1019
14338TIP3    H164429   1.239   3.946   5.711 -0.6222 -0.9115  0.8559
14338TIP3    H264430   1.120   3.984   5.797 -0.4190 -0.3318  0.8852
14339TIP3   OH264431   6.287   1.247  12.523 -0.1617 -0.1136  0.1232
14339TIP3    H164432   6.318   1.316  12.465 -3.0162  2.3493  1.2556
14339TIP3    H264433   6.308   1.279  12.611  0.1791 -1.6398  0.6170
14340TIP3   OH264434   1.868   4.318  12.281 -0.4334  0.0839 -0.5404
14340TIP3    H164435   1.796   4.302  12.342 -2.3971  1.0651 -2.4061
14340TIP3    H264436   1.861   4.412  12.262 -0.7812 -0.3982 -3.1675
14341TIP3   OH264437   4.095   2.138   5.127 -0.5697 -0.6536  0.2053
14341TIP3    H164438   4.166   2.145   5.190 -1.1732 -0.5748  0.8822
14341TIP3    H264439   4.082   2.227   5.095 -0.9406 -0.5170  0.7264
14342TIP3   OH264440   1.074   4.932   0.519  0.8831 -0.2009  0.8245
14342TIP3    H164441   1.151   4.934   0.575  1.6774 -1.5470 -0.1638
14342TIP3    H264442   1.053   4.839   0.511  0.0648  0.0545 -0.1324
14343TIP3   OH264443   4.036   4.330   3.960 -1.2599 -0.5104 -0.4601
14343TIP3    H164444   3.972   4.264   3.936  0.7583 -1.9680 -2.1938
14343TIP3    H264445   3.994   4.380   4.030 -3.6705 -2.2842 -0.5263
14344TIP3   OH264446   4.586   2.312   5.392 -0.2908  0.2969 -0.1497
14344TIP3    H164447   4.497   2.309   5.357 -0.2237 -0.0552 -0.2973
14344TIP3    H264448   4.591   2.396   5.436  0.1567  1.4886 -2.3490
14345TIP3   OH264449   0.616   4.793   2.035 -0.0885 -0.0845 -0.2110
14345TIP3    H164450   0.613   4.700   2.012 -0.6669 -0.7296  2.2270
14345TIP3    H264451   0.540   4.807   2.091  1.0608  1.3617  1.0989
14346TIP3   OH264452   5.515   0.873   2.422 -0.0111  0.4716 -0.1429
14346TIP3    H164453   5.476   0.943   2.475  0.4080  0.1976  0.5320
14346TIP3    H264454   5.461   0.797   2.439 -0.2183  0.5232 -0.5583
14347TIP3   OH264455   2.010   2.678   1.653  0.3170  0.1876 -0.4451
14347TIP3    H164456   2.043   2.607   1.598  1.1110  0.6841 -0.6335
14347TIP3    H264457   2.077   2.688   1.721 -0.0629  0.3850 -0.0952
14348TIP3   OH264458   1.220   5.556  13.178 -0.1672  0.2920 -0.0238
14348TIP3    H164459   1.235   5.642  13.140  0.2377 -0.0771 -0.7205
14348TIP3    H264460   1.203   5.573  13.271 -0.4606  1.1442 -0.2278
14349TIP3   OH264461   3.795   2.655   0.180  0.7261 -0.3499  0.4177
14349TIP3    H164462   3.831   2.743   0.185  0.6324 -0.2604 -0.3333
14349TIP3    H264463   3.702   2.665   0.203  0.2855  0.0551 -1.3682
14350TIP3   OH264464   5.214   1.637   6.665 -0.1170  0.5627  0.0949
14350TIP3    H164465   5.166   1.573   6.613 -0.5829  0.7674  0.2666
14350TIP3    H264466   5.241   1.589   6.743 -1.2654  0.8138  0.6534
14351TIP3   OH264467   0.642   2.233   5.513 -0.2490  0.0395  0.0564
14351TIP3    H164468   0.625   2.219   5.606 -0.4245 -0.7004 -0.0823
14351TIP3    H264469   0.718   2.177   5.494 -0.0016  0.4442 -0.1738
14352TIP3   OH264470   3.506   1.473  11.374 -0.5655  0.3349 -0.2923
14352TIP3    H164471   3.492   1.383  11.343 -1.1202  0.8687 -1.6686
14352TIP3    H264472   3.531   1.463  11.466  3.7578 -1.5435 -1.4194
14353TIP3   OH264473   4.681   3.027   1.008  0.0076  0.8935  0.5515
14353TIP3    H164474   4.761   2.999   0.962 -0.1380  0.6489  0.4440
14353TIP3    H264475   4.642   3.092   0.951 -1.2054 -0.8048 -0.6521
14354TIP3   OH264476   6.648   6.542  11.436  0.0920  0.4834 -0.5387
14354TIP3    H164477   6.630   6.459  11.480  0.9776  1.2742  1.4020
14354TIP3    H264478   6.645   6.521  11.343  0.0771 -1.6696 -0.0901
14355TIP3   OH264479   6.725   1.905   1.102 -0.1623  0.2919  0.3130
14355TIP3    H164480   6.789   1.976   1.098 -0.3803  0.4928  0.3975
14355TIP3    H264481   6.772   1.834   1.146  1.1051 -0.7407 -2.4949
14356TIP3   OH264482   1.577   3.159  15.992  0.3606 -0.2525 -0.6494
14356TIP3    H164483   1.598   3.253  15.996 -1.0747  0.0583  1.1684
14356TIP3    H264484   1.619   3.121  16.069 -0.1248 -0.8593 -0.6765
14357TIP3   OH264485   6.687   4.685  13.299  0.1771 -0.0929 -0.5081
14357TIP3    H164486   6.678   4.723  13.212  0.4705  0.4153 -0.3228
14357TIP3    H264487   6.623   4.614  13.301 -0.3843  0.3956 -0.8607
14358TIP3   OH264488   4.075   5.102  15.317 -0.3176 -0.3661 -0.6247
14358TIP3    H164489   4.007   5.035  15.324 -0.4502 -0.0559  1.5918
14358TIP3    H264490   4.039   5.178  15.363  0.4431  0.7476 -1.7879
14359TIP3   OH264491   6.470   2.777  12.821 -0.2029 -0.5925  0.0103
14359TIP3    H164492   6.447   2.824  12.740 -0.9791  0.2053  0.6745
14359TIP3    H264493   6.412   2.701  12.822 -3.1830  1.4852  1.7532
14360TIP3   OH264494   1.713   2.118   5.710  0.8569  0.1364  0.0392
14360TIP3    H164495   1.686   2.054   5.776  2.3775  0.8436  1.4042
14360TIP3    H264496   1.686   2.203   5.747 -0.8828  0.3796 -1.6178
14361TIP3   OH264497   0.009   2.310   1.327  0.4836 -0.1772 -0.6116
14361TIP3    H164498  -0.019   2.397   1.298 -0.1164 -0.7521 -1.8770
14361TIP3    H264499   0.026   2.319   1.420  2.3051  1.7440 -1.0808
14362TIP3   OH264500   3.721   3.808   1.075 -0.1594  0.0925  0.4442
14362TIP3    H164501   3.776   3.778   1.002  0.3356  1.9577  0.0092
14362TIP3    H264502   3.636   3.767   1.059 -0.6414  1.8488 -2.2644
14363TIP3   OH264503   6.667   5.341  16.237 -0.0394  0.2009 -0.3721
14363TIP3    H164504   6.641   5.420  16.285  0.8983  0.5539 -0.4384
14363TIP3    H264505   6.676   5.274  16.305  0.7415  0.5575 -0.1199
14364TIP3   OH264506   5.363   1.953  15.427 -0.0204 -0.7214 -0.3145
14364TIP3    H164507   5.417   1.973  15.350  1.5179  0.6682  1.0347
14364TIP3    H264508   5.341   1.860  15.418 -0.2462 -0.5051 -2.6060
14365TIP3   OH264509   5.397   6.413   4.063  0.3848 -0.0267 -0.0390
14365TIP3    H164510   5.476   6.361   4.079  0.7107 -0.1146 -1.7207
14365TIP3    H264511   5.350   6.365   3.995 -0.7410  0.4296  0.3898
14366TIP3   OH264512   3.172   1.405  11.139 -0.4981  0.2754 -0.1015
14366TIP3    H164513   3.139   1.394  11.229 -2.2090 -1.5925 -0.8657
14366TIP3    H264514   3.103   1.453  11.094  0.2970  1.0960 -0.4647
14367TIP3   OH264515   2.272   5.918  12.177 -0.4904  0.4620 -0.2514
14367TIP3    H164516   2.207   5.980  12.212  0.6666  1.6020 -0.0248
14367TIP3    H264517   2.340   5.915  12.244  0.8063  1.1263 -1.4809
14368TIP3   OH264518   2.274   0.877   6.004  0.5600  0.0304  0.1192
14368TIP3    H164519   2.359   0.856   5.966  0.9585  1.7900 -0.0568
14368TIP3    H264520   2.292   0.888   6.098  0.8665  1.8406 -0.1158
14369TIP3   OH264521   4.450   1.475  12.061 -0.3037  0.2547 -0.4006
14369TIP3    H164522   4.420   1.526  12.136 -1.3237 -0.4574 -0.3088
14369TIP3    H264523   4.375   1.473  12.002 -0.6995 -2.0478  0.0916
14370TIP3   OH264524   1.236   3.185  12.937 -0.1571  0.1428  0.3883
14370TIP3    H164525   1.253   3.094  12.912  0.0038  0.3390 -0.2356
14370TIP3    H264526   1.178   3.178  13.013  0.4072 -0.4849  0.7751
14371TIP3   OH264527   6.053   4.473  11.313  0.2832 -0.2180 -1.0304
14371TIP3    H164528   5.958   4.467  11.303  0.2113  0.9122 -1.0966
14371TIP3    H264529   6.088   4.430  11.235 -0.2225  2.6580 -2.9950
14372TIP3   OH264530   5.666   2.751  11.544 -0.0057  0.1713 -0.0585
14372TIP3    H164531   5.688   2.693  11.471  0.7786 -0.2482  0.4972
14372TIP3    H264532   5.587   2.712  11.583  0.8688 -0.9118  0.6992
14373TIP3   OH264533   1.703   1.100   2.576  0.7021 -0.2857  0.3438
14373TIP3    H164534   1.737   1.015   2.549  0.9667 -0.1280  0.1744
14373TIP3    H264535   1.613   1.082   2.603 -0.2011 -0.2142 -2.2667
14374TIP3   OH264536   2.835   0.007   2.117  0.2181 -0.6394  0.1708
14374TIP3    H164537   2.910  -0.053   2.109  0.6835 -0.2265  1.2955
14374TIP3    H264538   2.808   0.021   2.026  0.9556 -1.4763 -0.2081
14375TIP3   OH264539   1.037   0.367  14.298 -0.2236 -0.5564  0.0356
14375TIP3    H164540   1.001   0.309  14.364  1.2785  0.9757  2.3378
14375TIP3    H264541   1.127   0.338  14.286 -0.2788 -0.4014 -0.8613
14376TIP3   OH264542   4.288   3.333  15.832  0.1135  0.3915 -0.2710
14376TIP3    H164543   4.332   3.399  15.886 -1.0064  1.0428 -0.1191
14376TIP3    H264544   4.300   3.251  15.880  2.1960  0.2868 -0.8406
14377TIP3   OH264545   1.118   2.825  13.067 -0.6449  0.4978  0.2513
14377TIP3    H164546   1.186   2.833  13.134 -0.7042  0.6108  0.2973
14377TIP3    H264547   1.160   2.775  12.996 -0.6038  0.3179  0.4014
14378TIP3   OH264548   5.577   0.824  16.310 -0.4623  0.4521 -0.4872
14378TIP3    H164549   5.638   0.783  16.249 -1.1117  0.2546 -1.0181
14378TIP3    H264550   5.621   0.819  16.395  0.4921  0.7932 -0.9372
14379TIP3   OH264551   5.484   3.803   2.480  0.5548 -0.0073  0.1653
14379TIP3    H164552   5.424   3.731   2.499 -1.3862  1.2534 -0.8044
14379TIP3    H264553   5.426   3.877   2.461  2.4712  1.7951  1.0582
14380TIP3   OH264554   0.324   4.134  14.718  0.8201  0.1612  0.4636
14380TIP3    H164555   0.319   4.201  14.650  1.3316 -1.3611 -1.1484
14380TIP3    H264556   0.274   4.060  14.683  1.4834 -0.8269  1.5300
14381TIP3   OH264557   3.853   3.455   1.589  0.1691 -0.2114 -0.4010
14381TIP3    H164558   3.898   3.370   1.591 -1.6782 -1.2345 -0.4843
14381TIP3    H264559   3.924   3.519   1.589  1.6241 -1.7465 -0.4643
14382TIP3   OH264560   0.536   6.349  12.609  0.3988  0.2259 -0.1813
14382TIP3    H164561   0.597   6.351  12.535 -0.4090 -0.7879 -0.9127
14382TIP3    H264562   0.568   6.276  12.664  0.9299  0.9034  0.4316
14383TIP3   OH264563   2.868   0.586   3.233  0.1032 -0.4573  0.0787
14383TIP3    H164564   2.803   0.631   3.179 -0.3244 -0.2545  0.7503
14383TIP3    H264565   2.948   0.638   3.222 -0.1854  0.0301  0.2461
14384TIP3   OH264566   1.680   4.127   0.395  0.2919  0.4358  0.5013
14384TIP3    H164567   1.634   4.210   0.385 -1.4626 -0.4574  0.8783
14384TIP3    H264568   1.696   4.097   0.306 -1.1801  0.0753  0.3355
14385TIP3   OH264569   6.761   2.680   0.856  0.2178  0.4068 -0.2882
14385TIP3    H164570   6.747   2.754   0.915  1.2876  1.8020 -1.6952
14385TIP3    H264571   6.822   2.623   0.902 -0.9712  0.1339  1.0053
14386TIP3   OH264572   4.491   4.870   1.167  0.5103 -0.2924 -0.1544
14386TIP3    H164573   4.532   4.954   1.185  0.1704 -0.0722 -0.3845
14386TIP3    H264574   4.400   4.892   1.145  0.2576 -0.7696  0.3914
14387TIP3   OH264575   1.798   0.223   4.598  0.2920 -0.1389  0.1357
14387TIP3    H164576   1.745   0.274   4.538 -0.7607 -0.7242  0.5504
14387TIP3    H264577   1.857   0.174   4.541  0.3680  0.4807 -0.3302
14388TIP3   OH264578   5.260   6.447  15.327  0.1909 -0.0798 -0.2898
14388TIP3    H164579   5.186   6.399  15.363 -0.8146  1.7903  0.2308
14388TIP3    H264580   5.221   6.520  15.280  1.6616 -0.0922 -1.6144
14389TIP3   OH264581   1.089   2.513   2.012 -0.0000 -0.1046  0.3892
14389TIP3    H164582   1.093   2.467   1.928 -4.4565 -0.3544  0.1221
14389TIP3    H264583   1.145   2.590   1.999  0.8678 -1.0394 -2.1334
14390TIP3   OH264584   5.033   4.772  12.091 -0.3373  0.2232  0.3488
14390TIP3    H164585   5.118   4.805  12.120  0.8904 -1.4697 -1.0957
14390TIP3    H264586   5.054   4.699  12.033 -2.8418 -1.8013  1.7722
14391TIP3   OH264587   2.811   2.567  14.721 -0.1037  0.3246 -0.2907
14391TIP3    H164588   2.760   2.514  14.660  1.0665 -0.8662 -0.2883
14391TIP3    H264589   2.800   2.525  14.806 -0.0282  0.7228 -0.0774
14392TIP3   OH264590   4.882   5.247   6.457  0.6940  0.0429  0.1467
14392TIP3    H164591   4.925   5.244   6.371  1.1365 -2.1022  0.3835
14392TIP3    H264592   4.949   5.281   6.516  1.7461 -2.1604  0.2961
14393TIP3   OH264593   4.697   5.961   5.192 -0.1940 -0.5319 -0.4835
14393TIP3    H164594   4.662   6.040   5.151 -0.5352 -0.1657  0.4927
14393TIP3    H264595   4.776   5.941   5.141 -0.7865 -0.2976 -1.5294
14394TIP3   OH264596   2.294   0.038   2.163  0.9192  0.1345  0.2636
14394TIP3    H164597   2.277   0.119   2.114 -0.6124  0.9837  2.0876
14394TIP3    H264598   2.372   0.058   2.215  0.5617  0.4537  0.6877
14395TIP3   OH264599   1.875   5.925  16.095  0.2382  0.1154 -0.1010
14395TIP3    H164600   1.903   5.876  16.173  0.7184 -0.0997 -0.4042
14395TIP3    H264601   1.863   6.015  16.127  1.3239  0.2250  0.0491
14396TIP3   OH264602   3.683   6.131  12.139  0.6883  0.4281  0.0030
14396TIP3    H164603   3.611   6.188  12.112  1.3653  0.6909 -1.2759
14396TIP3    H264604   3.759   6.188  12.145  0.9055  0.0666  0.9242
14397TIP3   OH264605   0.756   1.580   2.495  0.3251  0.0445  0.3575
14397TIP3    H164606   0.802   1.640   2.553  1.3165  2.3046 -2.5371
14397TIP3    H264607   0.821   1.513   2.473 -0.4668 -1.6714  2.7363
14398TIP3   OH264608   1.679   5.205   2.182  0.5226 -0.4668  0.1200
14398TIP3    H164609   1.685   5.294   2.216  0.3401 -0.6924  0.7438
14398TIP3    H264610   1.748   5.201   2.115 -0.4663  0.6145 -1.0243
14399TIP3   OH264611   4.230   4.744  11.839  0.1338  0.5254  0.3237
14399TIP3    H164612   4.181   4.826  11.851  2.2629  2.2493 -1.8552
14399TIP3    H264613   4.313   4.771  11.799  0.4762 -2.8237 -1.5682
14400TIP3   OH264614   1.383   0.781  16.220  0.3937 -0.3278  0.2589
14400TIP3    H164615   1.469   0.742  16.237  0.4233  0.4226  2.0829
14400TIP3    H264616   1.394   0.873  16.243 -1.3074 -0.5496  2.1937
14401TIP3   OH264617   1.844   2.110   0.831  0.1010 -1.1584  0.2445
14401TIP3    H164618   1.757   2.102   0.869  0.2225 -2.3225  0.3277
14401TIP3    H264619   1.829   2.143   0.742 -0.3032 -0.0049  0.7295
14402TIP3   OH264620   1.595   6.101  13.318 -0.2545 -0.3298  0.4944
14402TIP3    H164621   1.656   6.159  13.274  1.4511 -0.6677  2.2813
14402TIP3    H264622   1.520   6.095  13.258  0.6309  1.5899 -0.9065
14403TIP3   OH264623   2.141   0.007   6.136 -0.2887  0.0293  0.1420
14403TIP3    H164624   2.146   0.010   6.232 -0.4232 -0.2158  0.1577
14403TIP3    H264625   2.056  -0.032   6.118 -0.9638  1.5436 -0.0993
14404TIP3   OH264626   5.087   5.258  16.104  0.3498 -0.5351  0.1688
14404TIP3    H164627   5.115   5.211  16.182 -2.0380 -1.9618  0.2677
14404TIP3    H264628   5.028   5.326  16.136  0.4503 -0.2199 -0.3004
14405TIP3   OH264629   1.226   1.713  15.875 -0.5252  0.5242 -0.1078
14405TIP3    H164630   1.165   1.679  15.810 -1.0794  1.7115 -0.2339
14405TIP3    H264631   1.239   1.804  15.851  0.1424  0.6861  0.7937
14406TIP3   OH264632   5.797   5.232  14.165  0.3393  0.2817  0.8307
14406TIP3    H164633   5.756   5.291  14.102  0.4043 -0.3174  0.2121
14406TIP3    H264634   5.871   5.281  14.200 -0.7090  1.2776  1.7516
14407TIP3   OH264635   4.811   5.447  17.362  0.2158  0.1155 -0.0074
14407TIP3    H164636   4.733   5.471  17.313  0.8713  1.9739 -0.2126
14407TIP3    H264637   4.778   5.394  17.435 -1.2012  0.6278 -0.2466
14408TIP3   OH264638   3.238   3.292  11.471  0.0639 -0.1582 -0.5311
14408TIP3    H164639   3.268   3.210  11.433  1.3455  0.4236 -0.8103
14408TIP3    H264640   3.286   3.299  11.554 -2.3255 -1.1676  1.0584
14409TIP3   OH264641   1.535   2.605  17.152 -0.4267 -0.0031 -0.8328
14409TIP3    H164642   1.443   2.630  17.160  0.0498  1.2924  1.2062
14409TIP3    H264643   1.565   2.595  17.242  1.4727 -0.2955 -1.4588
14410TIP3   OH264644   2.465   1.745  15.203 -0.1621  0.1855 -0.1386
14410TIP3    H164645   2.449   1.796  15.283 -0.0790 -0.1671  0.1036
14410TIP3    H264646   2.378   1.716  15.176 -0.2330  0.6208 -0.3904
14411TIP3   OH264647   1.106   3.019   3.699 -0.3298  0.6925 -0.4479
14411TIP3    H164648   1.074   2.938   3.661  0.2418  0.8020 -1.1742
14411TIP3    H264649   1.029   3.077   3.700 -0.3168  0.7403 -1.5946
14412TIP3   OH264650   3.413   4.801  17.294  0.0617 -0.2609  0.2660
14412TIP3    H164651   3.376   4.813  17.381 -2.0562 -0.1568 -0.5884
14412TIP3    H264652   3.507   4.788  17.309 -0.2212 -0.0518  2.5193
14413TIP3   OH264653   4.388   5.632  16.684 -0.2296 -0.1921  0.1184
14413TIP3    H164654   4.393   5.580  16.764  1.0154  0.8588  0.7757
14413TIP3    H264655   4.295   5.651  16.673 -0.4511 -0.5891  1.1641
14414TIP3   OH264656   0.008   2.088  11.585  0.1035  0.3178 -0.1363
14414TIP3    H164657  -0.008   2.145  11.660  0.2187 -0.1568  0.2504
14414TIP3    H264658  -0.060   2.021  11.590  1.3438 -0.9329  0.7509
14415TIP3   OH264659   2.061   1.608  12.149 -0.3543 -0.3492 -0.1921
14415TIP3    H164660   1.991   1.652  12.197 -0.1936 -0.0281 -0.2492
14415TIP3    H264661   2.091   1.673  12.086 -0.7473 -0.8620 -0.9187
14416TIP3   OH264662   3.891   2.277  15.667 -0.0711 -0.1733 -0.0735
14416TIP3    H164663   3.880   2.188  15.632 -0.7468 -0.4203  0.7283
14416TIP3    H264664   3.905   2.264  15.761  0.5094  0.5380 -0.0599
14417TIP3   OH264665   1.573   5.294   5.295  0.4368 -0.1209  0.1513
14417TIP3    H164666   1.565   5.204   5.325 -0.6748  0.3597  1.4138
14417TIP3    H264667   1.541   5.292   5.205 -0.8602 -0.7817  0.5956
14418TIP3   OH264668   5.884   2.845  13.795 -0.1562  0.0266 -0.2320
14418TIP3    H164669   5.888   2.804  13.709 -0.2623 -1.2023  0.3269
14418TIP3    H264670   5.930   2.928  13.784  1.6805 -1.0259 -0.9709
14419TIP3   OH264671   4.659   5.952  14.798 -0.2377  0.8879  0.2032
14419TIP3    H164672   4.743   5.976  14.839 -0.9648  1.9941  1.1472
14419TIP3    H264673   4.646   5.860  14.821  1.4430  0.2296 -1.3077
14420TIP3   OH264674   2.074   3.863   0.481 -0.8981  0.2828 -0.1961
14420TIP3    H164675   2.047   3.890   0.569 -2.4936  2.8179 -1.3221
14420TIP3    H264676   2.131   3.934   0.451 -1.4542  0.1357 -1.6681
14421TIP3   OH264677   6.146   3.260  12.411 -0.4287  0.1882 -0.1506
14421TIP3    H164678   6.122   3.198  12.480 -2.2296  0.1628 -0.7514
14421TIP3    H264679   6.072   3.320  12.406  0.6921  1.5814 -0.5129
14422TIP3   OH264680   2.772   0.530  12.402 -0.1165  0.7090 -0.2063
14422TIP3    H164681   2.778   0.469  12.329 -0.4384 -0.8399  0.9867
14422TIP3    H264682   2.852   0.514  12.453 -0.6453  0.5938  0.6121
14423TIP3   OH264683   5.015   6.416  11.609  0.2030 -0.1148 -0.1970
14423TIP3    H164684   4.989   6.507  11.621 -2.1368 -0.8406  0.7425
14423TIP3    H264685   4.941   6.376  11.564  1.0304 -1.6439 -0.2507
14424TIP3   OH264686   3.830   6.693   3.396  0.2344 -0.4371  0.5815
14424TIP3    H164687   3.822   6.598   3.399 -0.1294 -0.5681 -2.0295
14424TIP3    H264688   3.902   6.710   3.336 -2.1637  0.8239 -2.2323
14425TIP3   OH264689   5.097   0.536   1.705  0.3759  0.5757 -0.0699
14425TIP3    H164690   5.126   0.592   1.777 -0.7429  0.5359  0.4315
14425TIP3    H264691   5.008   0.512   1.728  0.0908  0.3406 -1.3502
14426TIP3   OH264692   0.886   5.192   6.362 -0.6716  0.3506 -0.6343
14426TIP3    H164693   0.893   5.209   6.456  1.5617 -1.3414 -0.4105
14426TIP3    H264694   0.903   5.278   6.322  0.8747  0.6261  0.5078
14427TIP3   OH264695   0.999   5.050  13.641  0.0171 -0.5172 -0.0587
14427TIP3    H164696   1.063   5.031  13.710 -2.0725  1.1566  2.5593
14427TIP3    H264697   0.930   4.984  13.654 -1.5387  1.2368  1.1870
14428TIP3   OH264698   6.719   0.918   5.749 -0.7030 -0.0609  0.4781
14428TIP3    H164699   6.636   0.913   5.700  0.0643  0.6348 -0.9631
14428TIP3    H264700   6.714   1.002   5.795 -0.6016  0.2167 -0.0084
14429TIP3   OH264701   5.709   6.396  11.623 -0.0638  0.0421 -0.2048
14429TIP3    H164702   5.745   6.387  11.535  0.1603  1.0831 -0.2379
14429TIP3    H264703   5.723   6.488  11.645  0.1640 -0.2686  1.0436
14430TIP3   OH264704   2.038   0.651   2.516  0.4636 -0.1271  0.2053
14430TIP3    H164705   2.088   0.579   2.555  1.0435 -0.1123 -0.4853
14430TIP3    H264706   2.098   0.690   2.453 -0.5328 -0.3293 -0.9052
14431TIP3   OH264707   4.272   3.839  14.702 -0.0659  0.4221  0.5786
14431TIP3    H164708   4.277   3.925  14.743 -0.3360  1.0869 -0.7349
14431TIP3    H264709   4.343   3.839  14.637 -1.9962  0.9189 -1.6633
14432TIP3   OH264710   3.158   0.968  13.678 -0.4196 -0.3569  0.0509
14432TIP3    H164711   3.175   0.962  13.584 -1.3558  2.7621 -0.4423
14432TIP3    H264712   3.245   0.968  13.718 -0.0034 -1.3217 -0.8053
14433TIP3   OH264713   3.698   6.735   4.484  0.5719  0.5765  0.2605
14433TIP3    H164714   3.623   6.708   4.431  0.3246  1.4038  0.1770
14433TIP3    H264715   3.676   6.823   4.513  1.5226  0.8313  0.2263
14434TIP3   OH264716   0.288   3.326  11.234  0.1116  0.1078  0.0454
14434TIP3    H164717   0.282   3.301  11.141  0.1816  1.2717 -0.2869
14434TIP3    H264718   0.382   3.342  11.248  0.2885 -1.3417  0.6833
14435TIP3   OH264719   4.423   2.550   1.178 -0.5571 -0.1006 -0.6452
14435TIP3    H164720   4.453   2.483   1.117  1.9078  0.5031 -0.2119
14435TIP3    H264721   4.489   2.618   1.173 -1.0547  0.6294  1.6259
14436TIP3   OH264722   2.125   2.279   4.672 -0.1388  0.1501 -0.4519
14436TIP3    H164723   2.185   2.345   4.706  0.7000 -0.5571 -0.4901
14436TIP3    H264724   2.076   2.249   4.748 -0.8514  1.1348 -0.5169
14437TIP3   OH264725   4.311   0.618   4.320 -0.3778 -0.5420 -0.2716
14437TIP3    H164726   4.228   0.655   4.353 -0.8558  0.4960 -2.4889
14437TIP3    H264727   4.285   0.540   4.272 -0.1723  0.1742 -1.5731
14438TIP3   OH264728   6.771   5.510   4.323 -0.0578  0.1679  0.0920
14438TIP3    H164729   6.776   5.601   4.294 -2.1329 -0.1035 -1.3409
14438TIP3    H264730   6.732   5.515   4.410  0.6375  0.7001  0.3754
14439TIP3   OH264731   4.715   3.243   5.374  0.0024  0.2412  0.1442
14439TIP3    H164732   4.697   3.150   5.365 -1.2616  0.3964  0.7902
14439TIP3    H264733   4.699   3.262   5.466  0.1798  1.1028  0.0057
14440TIP3   OH264734   5.390   4.211  11.718  0.3779 -0.2051  0.1516
14440TIP3    H164735   5.313   4.192  11.771  0.0392  0.4274 -0.1035
14440TIP3    H264736   5.361   4.194  11.628  0.4060  0.4447  0.0196
14441TIP3   OH264737   2.306   0.326  12.974  0.4732 -0.0011  0.9099
14441TIP3    H164738   2.289   0.416  12.945  2.9239 -0.1138 -1.2196
14441TIP3    H264739   2.225   0.279  12.953  0.1698  1.1359 -0.7173
14442TIP3   OH264740   0.646   1.285  15.124 -0.2658  0.3116  0.1943
14442TIP3    H164741   0.731   1.314  15.159  0.3134  1.0557 -1.7218
14442TIP3    H264742   0.608   1.234  15.195  1.0744  1.3016  1.7100
14443TIP3   OH264743   2.706   1.894  15.786 -0.6897 -0.0594 -0.2079
14443TIP3    H164744   2.772   1.929  15.727 -0.7533  0.1608 -0.1497
14443TIP3    H264745   2.721   1.799  15.786 -0.4919 -0.0278 -0.3357
14444TIP3   OH264746   0.675   6.624   3.720  0.4805 -0.1854 -0.2305
14444TIP3    H164747   0.605   6.689   3.721  0.1095 -0.5369 -1.6806
14444TIP3    H264748   0.695   6.609   3.812 -1.1141  0.1723  0.1993
14445TIP3   OH264749   2.252   4.629   1.556  0.3100 -0.2044  0.4323
14445TIP3    H164750   2.228   4.552   1.608 -1.2904  0.6068  0.9692
14445TIP3    H264751   2.292   4.689   1.619  1.1521 -0.4105  0.1021
14446TIP3   OH264752   6.443   1.638  14.518 -0.1208  0.1858 -0.3926
14446TIP3    H164753   6.487   1.719  14.544 -0.9988  0.5938 -0.1572
14446TIP3    H264754   6.415   1.598  14.600 -0.2062 -0.0539 -0.5384
14447TIP3   OH264755   4.625   3.945  14.076  0.4163 -0.5144 -0.1135
14447TIP3    H164756   4.683   3.989  14.137  0.4196 -0.7025  0.0227
14447TIP3    H264757   4.610   3.859  14.115  1.2567 -1.0318 -0.8938
14448TIP3   OH264758   6.389   1.113   1.450  0.1964 -0.0192  0.5963
14448TIP3    H164759   6.455   1.066   1.501 -1.2363  0.0745  2.6416
14448TIP3    H264760   6.427   1.200   1.437  0.5350 -0.0005  1.6554
14449TIP3   OH264761   6.730   3.717   2.442 -0.4334 -0.5561  0.0484
14449TIP3    H164762   6.740   3.628   2.475  0.7055 -0.4826 -0.0722
14449TIP3    H264763   6.807   3.764   2.473 -1.6655  0.7731  1.2469
14450TIP3   OH264764   2.634   2.550   0.309 -0.3636  0.6241 -0.0398
14450TIP3    H164765   2.577   2.475   0.320  1.0067 -0.1791  2.4208
14450TIP3    H264766   2.593   2.620   0.360  1.5908 -0.5291  3.5083
14451TIP3   OH264767   5.487   1.633  13.446  0.0929 -0.5132 -0.5541
14451TIP3    H164768   5.436   1.664  13.371  0.0823  0.7505 -0.0525
14451TIP3    H264769   5.439   1.557  13.478  0.0856 -1.0677 -1.7955
14452TIP3   OH264770   5.458   2.825   0.246 -0.0552  0.1987  0.9986
14452TIP3    H164771   5.433   2.737   0.275  0.6636 -0.0853  0.7875
14452TIP3    H264772   5.517   2.856   0.314  0.2205  0.2496  0.7370
14453TIP3   OH264773   5.927   0.421   4.426  0.4003  0.0334 -0.2429
14453TIP3    H164774   5.835   0.414   4.402  0.6212  1.0749 -1.4787
14453TIP3    H264775   5.932   0.383   4.514 -1.1178 -0.4261 -0.3351
14454TIP3   OH264776   4.114   1.190  14.731 -0.0915  0.2179  0.5660
14454TIP3    H164777   4.020   1.178  14.722 -0.0337  0.3762 -0.3323
14454TIP3    H264778   4.124   1.260  14.794 -0.5859  0.4892  0.3467
14455TIP3   OH264779   3.016   2.176   0.022  0.4767 -0.7585  0.2172
14455TIP3    H164780   3.045   2.194   0.111  2.8789 -0.1089 -0.6113
14455TIP3    H264781   2.920   2.184   0.026  0.5944  0.4762  2.4682
14456TIP3   OH264782   4.892   4.684   0.799 -0.0933 -0.0857  0.0273
14456TIP3    H164783   4.864   4.666   0.709 -0.8930  0.6776  0.1110
14456TIP3    H264784   4.810   4.683   0.850  0.4734 -1.9650  1.0268
14457TIP3   OH264785   6.728   4.741   3.669  0.1447  0.4628 -0.8656
14457TIP3    H164786   6.769   4.657   3.646 -0.2806  0.0615 -0.1998
14457TIP3    H264787   6.795   4.806   3.648  0.8790 -0.1261 -0.4310
14458TIP3   OH264788   0.763   2.545   2.960  0.2100  0.2884  0.2580
14458TIP3    H164789   0.798   2.620   2.913 -0.5727  1.0842  0.9180
14458TIP3    H264790   0.798   2.553   3.048 -1.1572  0.8041  0.7816
14459TIP3   OH264791   0.336   0.200   2.277  0.5215  0.6709  0.0011
14459TIP3    H164792   0.351   0.222   2.185 -0.7896  0.3619 -0.3072
14459TIP3    H264793   0.420   0.168   2.308  0.4240 -1.5244 -1.7520
14460TIP3   OH264794   4.729   0.765   4.846 -0.1971 -0.2923 -0.0363
14460TIP3    H164795   4.778   0.688   4.818  1.6393  0.4046  1.0623
14460TIP3    H264796   4.740   0.827   4.773 -2.2673 -1.2312 -1.2372
14461TIP3   OH264797   2.804   5.493   2.885 -0.3837  0.1460  0.3934
14461TIP3    H164798   2.791   5.535   2.800  0.6615 -0.5490 -0.1268
14461TIP3    H264799   2.755   5.411   2.878 -1.2662  0.6127  0.9032
14462TIP3   OH264800   2.187   5.214   2.255  0.0988 -0.0895 -0.1608
14462TIP3    H164801   2.114   5.263   2.217  0.7943  0.1666 -1.1832
14462TIP3    H264802   2.146   5.135   2.290 -0.6421 -0.0544 -0.9164
14463TIP3   OH264803   1.169   5.107   2.122 -0.3519 -0.5238  0.4465
14463TIP3    H164804   1.259   5.076   2.111 -0.5199 -1.3087  1.2340
14463TIP3    H264805   1.178   5.195   2.159  0.1758  1.2120 -3.3347
14464TIP3   OH264806   4.578   0.381   2.118 -0.5463 -0.1745 -0.1541
14464TIP3    H164807   4.669   0.371   2.092 -1.1979 -2.2622 -1.8998
14464TIP3    H264808   4.574   0.341   2.205  0.1294 -0.4280 -0.2349
14465TIP3   OH264809   6.758   6.773  17.030 -0.0790 -0.5135 -0.0516
14465TIP3    H164810   6.694   6.819  16.975 -0.2842 -1.2886 -0.4664
14465TIP3    H264811   6.780   6.837  17.098 -0.0394  0.3618 -0.8530
14466TIP3   OH264812   4.457   5.246   0.686  0.3325  0.4053  0.3605
14466TIP3    H164813   4.500   5.230   0.770 -0.1969  1.7470  0.9025
14466TIP3    H264814   4.410   5.165   0.668 -0.0683  0.3216  1.6801
14467TIP3   OH264815   3.254   0.752  15.904  0.0285 -0.7535 -0.9318
14467TIP3    H164816   3.220   0.718  15.987 -0.6930  2.4165  0.2185
14467TIP3    H264817   3.338   0.792  15.927  0.9840 -1.8896 -2.2705
14468TIP3   OH264818   5.437   6.097  17.102 -0.0719  0.2525  0.4965
14468TIP3    H164819   5.363   6.143  17.142  0.7323  1.7013  0.3653
14468TIP3    H264820   5.494   6.074  17.176 -0.8224 -1.2255  0.6410
14469TIP3   OH264821   2.946   4.410  16.374  0.0259 -0.4594  0.4524
14469TIP3    H164822   3.013   4.417  16.442 -0.3267 -0.3631  0.7896
14469TIP3    H264823   2.902   4.327  16.393  0.9734 -1.2377 -0.6173
14470TIP3   OH264824   3.951   6.117   5.721 -0.0100  0.1491  0.1143
14470TIP3    H164825   3.952   6.199   5.672  0.4778  0.3053  0.3859
14470TIP3    H264826   3.923   6.141   5.809  0.0221  0.0107  0.1634
14471TIP3   OH264827   4.551   2.172   3.617  0.0354  0.0800 -0.0810
14471TIP3    H164828   4.485   2.125   3.668  1.1232 -0.3881  0.9453
14471TIP3    H264829   4.510   2.185   3.531 -1.9698  1.1721  0.9735
14472TIP3   OH264830   2.570   5.420  14.785  0.2074 -0.5684  0.0806
14472TIP3    H164831   2.522   5.418  14.702  1.2118  2.1879 -0.6862
14472TIP3    H264832   2.507   5.455  14.848  0.8381  2.3081 -0.7562
14473TIP3   OH264833   3.800   1.563  11.662  0.2882 -0.0156 -0.0529
14473TIP3    H164834   3.875   1.623  11.651 -0.8960  1.4158 -0.7028
14473TIP3    H264835   3.820   1.490  11.603  1.9507 -0.4976  1.0370
14474TIP3   OH264836   1.016   5.233   3.013  0.3342  0.2230  0.0181
14474TIP3    H164837   1.102   5.271   3.035  0.2059 -0.2382  1.4429
14474TIP3    H264838   0.982   5.290   2.945  2.1920 -0.1620 -1.3214
14475TIP3   OH264839   3.493   1.636   5.597  0.8160  0.8583 -0.0286
14475TIP3    H164840   3.493   1.633   5.502 -0.3005  0.5121 -0.0310
14475TIP3    H264841   3.543   1.560   5.625 -1.8068 -1.1156 -0.3419
14476TIP3   OH264842   1.340   1.143   0.696 -0.0646 -0.0665 -1.0939
14476TIP3    H164843   1.274   1.074   0.698  0.3663 -0.5593  2.3144
14476TIP3    H264844   1.424   1.096   0.701  0.4900  0.6466 -2.8309
14477TIP3   OH264845   3.001   0.090  14.358 -0.5086 -0.5258  0.6123
14477TIP3    H164846   2.953   0.172  14.360 -1.2596 -0.9593  0.8243
14477TIP3    H264847   3.022   0.072  14.450  1.0071  0.1799  0.4490
14478TIP3   OH264848   3.891   5.061  11.076  0.0931 -0.2871 -0.6042
14478TIP3    H164849   3.987   5.067  11.073  0.2156 -1.1541  0.8736
14478TIP3    H264850   3.872   5.030  11.164 -1.6971  2.2080 -0.0112
14479TIP3   OH264851   2.561   5.848   0.624 -0.5625  0.2641  0.2061
14479TIP3    H164852   2.614   5.876   0.699  2.2665 -2.1664 -0.6828
14479TIP3    H264853   2.603   5.889   0.549 -0.7856 -0.5950 -0.4060
14480TIP3   OH264854   2.585   0.163   6.637 -0.1162  0.0738 -0.0018
14480TIP3    H164855   2.559   0.081   6.595 -1.4542 -1.3627  3.2759
14480TIP3    H264856   2.525   0.229   6.601 -0.8151 -0.9228 -0.7154
14481TIP3   OH264857   5.180   4.545   0.356 -0.6188  0.0680  0.3375
14481TIP3    H164858   5.152   4.626   0.399 -0.1129  0.3359  0.1617
14481TIP3    H264859   5.146   4.553   0.267  1.1052  0.9897 -0.2714
14482TIP3   OH264860   2.565   2.618  16.445  0.7456  1.0889 -0.1558
14482TIP3    H164861   2.647   2.622  16.397  0.7945 -1.7020 -0.4409
14482TIP3    H264862   2.511   2.556  16.396 -0.2836  0.3429  1.7852
14483TIP3   OH264863   3.550   5.483  11.344 -0.2594 -0.1750  0.0735
14483TIP3    H164864   3.462   5.510  11.372  0.1844 -0.1914  1.5189
14483TIP3    H264865   3.568   5.539  11.268 -1.3018  0.1877  0.0719
14484TIP3   OH264866   5.663   3.818  11.670  0.5324 -0.0869 -0.2206
14484TIP3    H164867   5.759   3.820  11.666  0.5991  1.5531  1.1053
14484TIP3    H264868   5.635   3.842  11.582  1.3637  0.3001 -0.3854
14485TIP3   OH264869   0.080   0.056  13.228  0.4728  0.0966 -0.1995
14485TIP3    H164870   0.067   0.140  13.183 -0.7065 -0.8218 -1.6612
14485TIP3    H264871   0.175   0.049  13.240  1.0346 -0.1846 -3.8111
14486TIP3   OH264872   1.658   4.274  16.395  0.5224 -0.6975  0.1815
14486TIP3    H164873   1.726   4.231  16.343 -0.2324 -0.6040 -0.9345
14486TIP3    H264874   1.657   4.364  16.363 -0.4133 -0.8084 -0.1398
14487TIP3   OH264875   3.690   4.137  13.992  0.0016 -0.0276  0.1604
14487TIP3    H164876   3.655   4.114  13.906 -2.1221  1.4030  0.5805
14487TIP3    H264877   3.628   4.100  14.054 -0.3562  1.8128  0.9666
14488TIP3   OH264878   2.859   3.605   5.959  0.1680 -0.3861  0.2043
14488TIP3    H164879   2.932   3.651   5.919 -0.3742 -0.8692 -1.4523
14488TIP3    H264880   2.868   3.514   5.930 -0.4281 -0.7031  0.9518
14489TIP3   OH264881   3.318   3.461   3.489  0.0221  0.0150 -0.2548
14489TIP3    H164882   3.224   3.467   3.504  0.4082  1.7718  1.9788
14489TIP3    H264883   3.338   3.533   3.429 -0.1272 -0.9552 -1.5291
14490TIP3   OH264884   1.306   1.769   6.086 -0.3906 -0.3718  0.1191
14490TIP3    H164885   1.400   1.756   6.080  0.0663  2.5089 -0.7797
14490TIP3    H264886   1.269   1.681   6.086  2.1699 -1.5950 -1.9799
14491TIP3   OH264887   0.394   1.754   2.472 -0.0949  0.0055  0.1110
14491TIP3    H164888   0.335   1.781   2.543 -1.5004  0.0788 -1.0493
14491TIP3    H264889   0.381   1.819   2.404 -0.7887 -1.5204 -1.2764
14492TIP3   OH264890   2.387   3.027  11.720  0.1507  0.1451 -0.2022
14492TIP3    H164891   2.317   2.964  11.703  1.6826 -1.7540  0.1290
14492TIP3    H264892   2.461   2.994  11.669  1.0171  1.7277 -0.0382
14493TIP3   OH264893   6.682   0.429   4.210 -1.3022 -0.3549  0.4478
14493TIP3    H164894   6.628   0.472   4.275 -1.0668 -0.6724  0.8595
14493TIP3    H264895   6.694   0.340   4.243 -0.6064 -0.3168  0.3254
14494TIP3   OH264896   0.280   1.536   2.049  0.1909 -0.6840 -0.6026
14494TIP3    H164897   0.337   1.576   1.983 -0.9306  0.7352 -0.7603
14494TIP3    H264898   0.213   1.491   1.998  1.0346 -2.2168 -0.4151
14495TIP3   OH264899   5.794   3.106   2.064 -0.2130  0.1310  0.3359
14495TIP3    H164900   5.827   3.167   1.998  1.8759 -0.1091  1.0692
14495TIP3    H264901   5.768   3.162   2.137 -0.5813  0.2798  0.0921
14496TIP3   OH264902   1.409   5.285  15.231 -0.3096  0.2095 -0.2804
14496TIP3    H164903   1.358   5.206  15.251 -0.7360  1.0027  1.9655
14496TIP3    H264904   1.500   5.257  15.240 -0.4146 -0.3655 -0.9220
14497TIP3   OH264905   0.554   3.300  16.829 -0.0597 -0.5673 -0.1718
14497TIP3    H164906   0.577   3.216  16.869 -1.3342 -2.2571 -2.6823
14497TIP3    H264907   0.636   3.331  16.789  0.6177 -0.1261  1.4814
14498TIP3   OH264908   1.583   2.322  11.511 -0.0767 -0.0441 -0.5201
14498TIP3    H164909   1.513   2.364  11.462  0.1551 -0.5792 -1.3212
14498TIP3    H264910   1.595   2.237  11.469  2.1206  0.6430 -1.4442
14499TIP3   OH264911   4.357   5.820   4.724 -0.1227  0.1909  0.0904
14499TIP3    H164912   4.296   5.842   4.795 -0.9945 -0.3219 -0.4860
14499TIP3    H264913   4.321   5.741   4.685  1.2653 -0.4906  0.1369
14500TIP3   OH264914   6.484   1.278   4.950 -0.9267 -0.4257 -0.3683
14500TIP3    H164915   6.412   1.225   4.914 -0.1729 -1.2683 -0.6683
14500TIP3    H264916   6.548   1.214   4.980 -0.3029  0.3188 -0.0828
14501TIP3   OH264917   1.033   0.846  14.812  0.0478 -0.4257  0.1681
14501TIP3    H164918   0.984   0.798  14.744  0.7259  0.8135 -1.2671
14501TIP3    H264919   0.965   0.892  14.861 -0.3558  2.6605 -2.8712
14502TIP3   OH264920   6.428   4.784  11.219  0.4005  0.2064 -0.3431
14502TIP3    H164921   6.351   4.831  11.187  0.3553  0.1175 -0.3633
14502TIP3    H264922   6.463   4.841  11.289  0.9776  0.8043 -1.0992
14503TIP3   OH264923   1.715   0.625   5.219  0.4636  0.2314 -0.0244
14503TIP3    H164924   1.623   0.600   5.210  0.5156  0.4940 -1.6611
14503TIP3    H264925   1.753   0.557   5.274 -0.6167 -0.1412  0.2775
14504TIP3   OH264926   0.811   3.562  17.038  0.1137  0.4243 -0.5287
14504TIP3    H164927   0.812   3.467  17.048  2.8233  0.2223 -1.7618
14504TIP3    H264928   0.866   3.595  17.109  1.1429  0.8116 -1.4671
14505TIP3   OH264929   1.663   5.248  14.740  0.0777 -0.0161  0.3495
14505TIP3    H164930   1.615   5.329  14.721  0.0633 -0.0399  0.2847
14505TIP3    H264931   1.755   5.270  14.726  0.0119 -0.2261 -0.4218
14506TIP3   OH264932   6.060   4.475   0.637 -0.7764  0.0026  0.2657
14506TIP3    H164933   6.090   4.562   0.664  1.2358 -0.1215 -1.3327
14506TIP3    H264934   6.010   4.491   0.558  0.5619 -0.3403 -0.6877
14507TIP3   OH264935   4.781   1.911  15.795  1.1800  0.1216  0.5101
14507TIP3    H164936   4.806   1.985  15.851  2.2327  0.7770 -0.7510
14507TIP3    H264937   4.864   1.866  15.776  0.6559 -0.9139  0.6039
14508TIP3   OH264938   3.584   0.526   0.153  0.1282 -0.2463 -0.1032
14508TIP3    H164939   3.576   0.534   0.058  2.2820 -0.4348 -0.3416
14508TIP3    H264940   3.632   0.444   0.167 -2.3159 -1.5745  1.3084
14509TIP3   OH264941   5.695   6.051  13.716 -0.0841  0.3644 -0.1757
14509TIP3    H164942   5.676   6.051  13.809  0.2786  0.0545 -0.0990
14509TIP3    H264943   5.628   6.107  13.677 -0.7437 -0.1830  0.1608
14510TIP3   OH264944   4.877   1.849   0.995 -0.0003 -0.1746  0.0958
14510TIP3    H164945   4.940   1.897   0.940  1.3347 -0.6667  1.1506
14510TIP3    H264946   4.792   1.887   0.972  0.5337 -0.1853 -2.1183
14511TIP3   OH264947   4.420   5.037   0.153  0.3109  0.0775  0.2198
14511TIP3    H164948   4.419   5.107   0.088  1.6761  0.2461  0.3534
14511TIP3    H264949   4.405   5.081   0.236 -0.3923 -0.0089  0.1504
14512TIP3   OH264950   2.535   6.596  14.640 -0.0989  0.4485 -0.3549
14512TIP3    H164951   2.462   6.536  14.624  0.2585 -0.1893  0.3456
14512TIP3    H264952   2.613   6.544  14.623  0.2256  0.6005  0.5927
14513TIP3   OH264953   6.149   4.718  12.361 -0.1091 -0.6986  0.7133
14513TIP3    H164954   6.151   4.623  12.375 -0.1573 -0.8219 -0.0939
14513TIP3    H264955   6.071   4.733  12.308  0.8047 -0.4010 -0.5872
14514TIP3   OH264956   2.661   4.487   5.083  0.6162  0.1522 -0.2938
14514TIP3    H164957   2.726   4.425   5.049 -2.4968 -3.2787 -0.5283
14514TIP3    H264958   2.595   4.493   5.013 -0.3775  1.8906  0.7290
14515TIP3   OH264959   3.717   1.360   1.998 -0.0761 -0.1854  0.3776
14515TIP3    H164960   3.752   1.271   1.992  1.7391  0.5209 -0.3384
14515TIP3    H264961   3.792   1.416   1.977 -1.2324  1.5065  0.6069
14516TIP3   OH264962   1.285   1.471   4.245 -0.0474 -0.0519  0.0503
14516TIP3    H164963   1.230   1.483   4.167 -1.3259  0.3207  0.9782
14516TIP3    H264964   1.329   1.555   4.256  0.6225 -0.3004 -0.6048
14517TIP3   OH264965   0.212   1.144  11.668 -0.1949 -0.1479  0.0842
14517TIP3    H164966   0.163   1.140  11.751 -1.3675  1.2388 -0.4950
14517TIP3    H264967   0.148   1.118  11.602 -0.5538  2.6711 -0.8092
14518TIP3   OH264968   1.124   4.748  12.933 -0.4022 -0.0722  0.7226
14518TIP3    H164969   1.074   4.696  12.871 -0.3946  0.5080  0.2196
14518TIP3    H264970   1.143   4.688  13.005  0.8444 -1.1843 -0.4777
14519TIP3   OH264971   2.505   1.257   5.540 -0.3200 -0.0708  0.0072
14519TIP3    H164972   2.592   1.288   5.515 -0.6966  0.6839 -0.4173
14519TIP3    H264973   2.448   1.333   5.526 -1.1840 -0.8055 -0.5304
14520TIP3   OH264974   0.878   2.672   2.754  0.6571 -0.6190 -0.0423
14520TIP3    H164975   0.897   2.688   2.662  0.7969 -1.7388 -0.2294
14520TIP3    H264976   0.962   2.640   2.790  0.4982 -0.5767  0.3692
14521TIP3   OH264977   2.332   0.810   1.201  0.4640  0.8070 -0.7322
14521TIP3    H164978   2.308   0.836   1.112  0.8907  2.2982 -0.4258
14521TIP3    H264979   2.426   0.826   1.206  0.2730  1.7181  0.3019
14522TIP3   OH264980   1.515   5.680   4.345 -0.1722 -0.4045  0.1493
14522TIP3    H164981   1.501   5.774   4.362  0.0627 -0.4236  0.4693
14522TIP3    H264982   1.489   5.638   4.427  0.5089 -0.5465  0.2953
14523TIP3   OH264983   0.771   4.133   1.727  0.2854 -0.0474 -0.1364
14523TIP3    H164984   0.858   4.114   1.760  0.5778  0.4592 -0.5996
14523TIP3    H264985   0.735   4.197   1.789  0.3751 -0.0059 -0.1264
14524TIP3   OH264986   6.441   4.568  12.538 -0.1889 -0.2220 -0.4009
14524TIP3    H164987   6.486   4.594  12.619  0.9727  0.0924 -1.1193
14524TIP3    H264988   6.418   4.476  12.552 -0.3590 -0.0681  0.4309
14525TIP3   OH264989   4.785   1.857   2.734  0.3403 -0.1947 -0.9303
14525TIP3    H164990   4.832   1.802   2.797 -0.0317  0.9248  0.3646
14525TIP3    H264991   4.708   1.806   2.710  0.0609 -0.3173  0.1673
14526TIP3   OH264992   2.391   0.073  16.801 -0.2150  0.4369 -0.9159
14526TIP3    H164993   2.369   0.107  16.887 -1.6596 -0.4527 -0.8878
14526TIP3    H264994   2.485   0.057  16.804 -0.4208 -0.7573  0.9496
14527TIP3   OH264995   3.563   2.849   5.363  0.1125  0.6582 -0.1005
14527TIP3    H164996   3.569   2.871   5.270 -1.7939  0.4392 -0.3195
14527TIP3    H264997   3.589   2.929   5.409  0.2551  1.0362 -0.8331
14528TIP3   OH264998   5.668   2.865  13.937 -0.2398 -0.1822  0.4332
14528TIP3    H164999   5.751   2.860  13.890  0.1552  1.1528  0.9477
14528TIP3    H265000   5.615   2.795  13.898  0.7758 -0.4338 -0.5707
14529TIP3   OH265001   4.406   5.888  12.784 -0.0681  0.1285  0.1014
14529TIP3    H165002   4.337   5.823  12.798  0.0601  0.1312  0.7374
14529TIP3    H265003   4.476   5.862  12.843  1.3848 -1.1508 -2.0488
14530TIP3   OH265004   2.964   6.230   6.804 -0.4246  0.4120  0.5357
14530TIP3    H165005   2.949   6.146   6.761  0.2355  0.5222  0.0797
14530TIP3    H265006   2.986   6.207   6.894 -2.3117  0.2023  0.9892
14531TIP3   OH265007   6.234   6.409  15.370  0.6643  0.0947 -0.0258
14531TIP3    H165008   6.208   6.339  15.429 -1.8486 -0.2358 -1.3842
14531TIP3    H265009   6.274   6.475  15.427 -1.4355 -0.2965  2.0548
14532TIP3   OH265010   0.889   2.710  13.132  0.0706  0.4990  0.1226
14532TIP3    H165011   0.974   2.753  13.145 -0.8029  1.4880  3.4760
14532TIP3    H265012   0.824   2.778  13.151 -1.4464 -0.7869 -0.2477
14533TIP3   OH265013   0.970   6.178   5.475 -0.3716 -0.0516 -0.4987
14533TIP3    H165014   0.965   6.092   5.516 -0.2322  0.5787  0.9120
14533TIP3    H265015   1.023   6.165   5.397  0.3986 -1.0821  0.1743
14534TIP3   OH265016   2.390   2.531   0.682  0.6417 -0.2461  0.2851
14534TIP3    H165017   2.368   2.518   0.774 -1.4074 -1.4506 -0.3008
14534TIP3    H265018   2.305   2.533   0.637  1.5966 -3.0239 -1.9615
14535TIP3   OH265019   0.645   3.441   1.449  0.0707  0.1777  0.1838
14535TIP3    H165020   0.716   3.449   1.385 -0.3320 -0.0935 -0.3013
14535TIP3    H265021   0.593   3.520   1.436  0.6672  0.7324  1.0297
14536TIP3   OH265022   6.483   3.029  15.034  0.2220 -0.2630  0.9553
14536TIP3    H165023   6.461   3.097  14.970  0.1565 -1.8393 -0.8144
14536TIP3    H265024   6.405   3.022  15.089 -1.1063 -1.0690 -0.9100
14537TIP3   OH265025   1.671   5.957   3.660  0.1149  0.3082  0.3552
14537TIP3    H165026   1.731   5.940   3.588  0.6341 -1.6066  1.1680
14537TIP3    H265027   1.598   6.003   3.620 -0.1088 -1.5966 -1.6257
14538TIP3   OH265028   6.717   1.330  11.654  0.3054 -0.8902 -0.1503
14538TIP3    H165029   6.759   1.276  11.586  0.8374  0.8697 -1.3041
14538TIP3    H265030   6.626   1.301  11.655  1.0310 -3.3209  0.8721
14539TIP3   OH265031   1.529   6.603  12.520  0.4410  0.1716 -0.4198
14539TIP3    H165032   1.624   6.596  12.530  0.4851  1.6527  0.3601
14539TIP3    H265033   1.515   6.605  12.425  1.3176  1.3908 -0.5399
14540TIP3   OH265034   1.899   4.492   1.810  0.0289 -0.2648 -0.2795
14540TIP3    H165035   1.813   4.533   1.817 -1.1744 -2.5343 -0.6892
14540TIP3    H265036   1.908   4.443   1.891  0.7915 -0.3220 -0.3960
14541TIP3   OH265037   6.342   0.646  14.628 -0.1771  0.1939 -0.3301
14541TIP3    H165038   6.351   0.720  14.687  1.3148 -0.1186 -0.1241
14541TIP3    H265039   6.291   0.679  14.555  0.9545  1.6098 -0.5219
14542TIP3   OH265040   1.235   1.599   4.534  0.3512 -0.3405  0.1940
14542TIP3    H165041   1.172   1.555   4.478  1.8883 -3.2847  0.5570
14542TIP3    H265042   1.310   1.617   4.477  0.2479  0.6391  0.3539
14543TIP3   OH265043   0.835   4.334  15.725 -0.1065 -0.8507 -0.0811
14543TIP3    H165044   0.777   4.301  15.794 -1.6953  1.0569 -0.3904
14543TIP3    H265045   0.801   4.296  15.644  0.2123 -1.1641 -0.0660
14544TIP3   OH265046   1.298   4.631   3.059 -0.1763 -0.1733 -0.0514
14544TIP3    H165047   1.288   4.626   3.154  2.0881 -0.0499  0.2504
14544TIP3    H265048   1.227   4.689   3.030  0.3271  1.4750  1.8312
14545TIP3   OH265049   5.069   3.852  13.251  0.4285  0.1454  0.8987
14545TIP3    H165050   5.051   3.842  13.344  0.3345  0.5275  0.9234
14545TIP3    H265051   4.996   3.903  13.217  0.1454 -0.5080  0.4939
14546TIP3   OH265052   4.052   5.317  14.986 -0.0432 -0.6165  0.4385
14546TIP3    H165053   3.972   5.299  15.036 -0.4088 -0.4084 -0.0604
14546TIP3    H265054   4.023   5.370  14.912  1.1203  3.2326  2.4622
14547TIP3   OH265055   3.695   6.146  14.394 -0.1690 -0.2087  0.6413
14547TIP3    H165056   3.743   6.063  14.390  1.3597  0.6477  0.5279
14547TIP3    H265057   3.730   6.190  14.471 -2.0495 -0.2751  1.5861
14548TIP3   OH265058   5.502   4.910  12.707  0.1929 -0.0529  0.5228
14548TIP3    H165059   5.437   4.880  12.770 -1.9784 -1.5866 -2.1981
14548TIP3    H265060   5.481   5.002  12.691 -1.4616 -0.5615 -0.4026
14549TIP3   OH265061   1.043   2.331  11.860  0.2987 -0.0755  0.6609
14549TIP3    H165062   1.116   2.330  11.923  1.0865  0.4376 -0.2245
14549TIP3    H265063   1.049   2.247  11.815 -1.8796 -1.6473  3.0048
14550TIP3   OH265064   6.064   2.757  12.566 -0.2006 -0.1762  0.3692
14550TIP3    H165065   6.033   2.713  12.646  3.4717 -0.3559  1.9004
14550TIP3    H265066   6.152   2.723  12.554  0.0313  1.2674 -2.7760
14551TIP3   OH265067   4.590   6.515   6.191  0.1098  0.0561  0.1842
14551TIP3    H165068   4.644   6.438   6.171  1.3034  0.7086  0.7600
14551TIP3    H265069   4.638   6.589   6.154 -0.4508  0.6468  0.6042
14552TIP3   OH265070   4.999   2.388   4.807  0.2784 -0.1946 -0.1693
14552TIP3    H165071   5.020   2.327   4.877 -2.0339 -0.3566  0.4677
14552TIP3    H265072   5.079   2.394   4.755  0.7949 -3.2981  0.0819
14553TIP3   OH265073   3.018   4.493  13.314 -0.2705 -0.3527  0.0507
14553TIP3    H165074   3.096   4.547  13.321 -0.2804 -0.0421 -1.8510
14553TIP3    H265075   2.993   4.475  13.405  0.8190  1.2447  0.7032
14554TIP3   OH265076   6.280   0.981  14.364  0.4206 -1.1038 -0.4458
14554TIP3    H165077   6.356   0.928  14.344  0.7989 -1.7125  2.2321
14554TIP3    H265078   6.221   0.922  14.411  0.0177  0.3141  0.9128
14555TIP3   OH265079   3.746   6.413   3.366 -0.4320  0.0224 -0.3360
14555TIP3    H165080   3.654   6.409   3.342 -0.2679  0.8856 -1.1297
14555TIP3    H265081   3.792   6.373   3.292 -0.0189  1.5675 -0.9401
14556TIP3   OH265082   1.409   0.417  13.522 -0.3682  0.2562 -0.1474
14556TIP3    H165083   1.372   0.328  13.521  0.1823  0.0033  0.8639
14556TIP3    H265084   1.500   0.406  13.496  0.1793  0.2679  1.6540
14557TIP3   OH265085   1.426   4.401   4.060 -0.6925  0.2116  0.1313
14557TIP3    H165086   1.461   4.341   4.126 -0.3910  1.2443  0.9324
14557TIP3    H265087   1.486   4.476   4.061 -0.8357  0.3563 -1.1378
14558TIP3   OH265088   0.557   4.963   4.170 -0.1096 -0.5166  0.1565
14558TIP3    H165089   0.525   4.889   4.222  0.6778  0.4943  2.1483
14558TIP3    H265090   0.500   5.036   4.193 -0.6256 -0.3464 -1.4975
14559TIP3   OH265091   2.860   2.993   2.524 -0.0905  0.0601 -0.6703
14559TIP3    H165092   2.879   2.984   2.430  1.0312  0.3141 -0.4881
14559TIP3    H265093   2.832   2.906   2.551  0.7683 -0.3315 -1.0056
14560TIP3   OH265094   3.947   1.467   0.526  0.3211 -0.3062  0.2246
14560TIP3    H165095   3.978   1.377   0.542  1.4083 -0.0569 -0.3498
14560TIP3    H265096   3.913   1.465   0.437 -2.0707 -0.7437  1.0832
14561TIP3   OH265097   4.159   4.599   3.305 -0.2137 -0.5213 -0.2255
14561TIP3    H165098   4.197   4.683   3.332 -0.8582 -0.1901 -0.3480
14561TIP3    H265099   4.128   4.560   3.386  2.3442 -1.8156  0.2310
14562TIP3   OH265100   3.690   1.654  15.210 -0.2100 -0.0952 -0.4023
14562TIP3    H165101   3.600   1.645  15.241 -1.3178  0.3861 -3.1699
14562TIP3    H265102   3.689   1.615  15.123  2.1840  0.2508 -0.6368
14563TIP3   OH265103   3.710   2.962   3.017  0.0568 -0.1541 -0.1037
14563TIP3    H165104   3.710   2.876   2.976 -0.0507  0.3767 -1.2699
14563TIP3    H265105   3.756   3.018   2.955 -0.1215  0.6895  0.5025
14564TIP3   OH265106   1.454   0.407  13.844 -0.3860  0.2137  0.4782
14564TIP3    H165107   1.511   0.329  13.841 -0.2902  0.2687  0.8007
14564TIP3    H265108   1.413   0.410  13.758 -1.3918 -0.9354  0.8830
14565TIP3   OH265109   3.731   6.088  11.349 -0.1922  0.0035 -0.1105
14565TIP3    H165110   3.788   6.143  11.402  2.3239 -1.1681 -1.4046
14565TIP3    H265111   3.655   6.070  11.404  1.1616  0.8099  2.1294
14566TIP3   OH265112   3.163   2.039  13.591 -0.1953 -0.1427  0.1439
14566TIP3    H165113   3.199   1.953  13.569 -0.8335 -0.0954 -1.1706
14566TIP3    H265114   3.069   2.025  13.602 -0.3880  0.4744 -0.6366
14567TIP3   OH265115   6.143   0.271  15.364  0.3564  0.3769 -1.0042
14567TIP3    H165116   6.193   0.238  15.290  0.3851 -1.5544 -0.1824
14567TIP3    H265117   6.099   0.194  15.401 -1.2986  1.6035 -0.2314
14568TIP3   OH265118   0.924   5.748   5.357  0.4743 -0.3461 -0.0655
14568TIP3    H165119   0.993   5.806   5.389 -0.8523  0.8182  0.7665
14568TIP3    H265120   0.898   5.697   5.433  0.9625 -1.4045 -0.5741
14569TIP3   OH265121   5.804   1.670   4.175 -0.0137  0.1224 -0.2164
14569TIP3    H165122   5.818   1.758   4.209 -1.5031  0.1306  0.4785
14569TIP3    H265123   5.891   1.630   4.172  0.3799  0.6753  2.1239
14570TIP3   OH265124   1.326   4.276  14.684 -0.3225  0.6946  0.6152
14570TIP3    H165125   1.403   4.329  14.663  0.8318 -0.6785  1.1686
14570TIP3    H265126   1.264   4.296  14.614  0.7335  1.4508 -0.1494
14571TIP3   OH265127   0.229   1.894  12.579  0.1374  0.2405 -0.1224
14571TIP3    H165128   0.139   1.885  12.612 -0.2271  0.5974 -0.9829
14571TIP3    H265129   0.219   1.942  12.497  1.2647  1.7505  0.5823
14572TIP3   OH265130   5.167   3.731  16.041 -0.4834 -0.7642 -0.0857
14572TIP3    H165131   5.146   3.816  16.003  1.4522 -0.1149  0.1886
14572TIP3    H265132   5.156   3.743  16.135 -0.1271 -0.7997 -0.0407
14573TIP3   OH265133   3.150   2.998  13.990  0.3448 -0.1793 -0.6035
14573TIP3    H165134   3.188   2.929  14.044  0.9701 -0.0079 -0.8242
14573TIP3    H265135   3.195   3.077  14.017  0.4635 -0.0456 -1.1778
14574TIP3   OH265136   5.353   2.167  14.914 -0.5036 -1.0877  0.2886
14574TIP3    H165137   5.383   2.257  14.902 -3.4488  0.1729  1.2815
14574TIP3    H265138   5.408   2.132  14.984  0.4469  0.0866  0.1478
14575TIP3   OH265139   2.418   0.060  12.856  0.1681  0.1075  0.1412
14575TIP3    H165140   2.441   0.150  12.834  0.5822 -0.2683 -1.0603
14575TIP3    H265141   2.473   0.038  12.931  0.3478  0.7306  0.1915
14576TIP3   OH265142   5.541   5.505   2.697  0.3546 -0.2339 -0.0813
14576TIP3    H165143   5.566   5.434   2.755 -0.4778 -1.2298 -0.8903
14576TIP3    H265144   5.456   5.534   2.729  1.1968  1.2164  0.9473
14577TIP3   OH265145   4.764   3.934   1.366 -0.0833  0.1949 -0.0729
14577TIP3    H165146   4.671   3.955   1.362 -0.1313 -0.1431 -0.7127
14577TIP3    H265147   4.806   4.001   1.312  0.0878  0.5329  0.4606
14578TIP3   OH265148   2.135   0.595   4.886  0.2666  0.5168 -0.0034
14578TIP3    H165149   2.077   0.534   4.842 -1.0400  0.5879  1.5562
14578TIP3    H265150   2.086   0.677   4.890  1.1428  1.0679 -0.1410
14579TIP3   OH265151   2.586   6.198  15.084  0.6539  0.1125 -0.0650
14579TIP3    H165152   2.658   6.138  15.105  0.2891  0.1804  1.4815
14579TIP3    H265153   2.517   6.175  15.146 -0.8975 -0.3268 -1.8673
14580TIP3   OH265154   1.623   3.678   0.021 -0.3202 -0.2317 -0.1973
14580TIP3    H165155   1.693   3.672  -0.044  0.5807 -2.5318  0.8765
14580TIP3    H265156   1.546   3.641  -0.024  0.0329 -0.8367 -0.3222
14581TIP3   OH265157   5.870   6.322  16.005 -0.2763  0.3842 -0.5662
14581TIP3    H165158   5.822   6.255  15.958 -0.9430  1.9339 -2.2128
14581TIP3    H265159   5.948   6.339  15.952  0.4529  0.2006  0.3941
14582TIP3   OH265160   1.452   4.733  15.120  0.3028 -0.1524  0.2680
14582TIP3    H165161   1.463   4.776  15.206  0.6456 -0.6814  0.4884
14582TIP3    H265162   1.500   4.789  15.059  0.7293 -0.2038  0.5523
14583TIP3   OH265163   2.553   2.131  13.461  0.5769 -0.3118  0.3962
14583TIP3    H165164   2.608   2.058  13.433  0.9340 -0.4162  1.3187
14583TIP3    H265165   2.578   2.203  13.403  1.2695 -0.5253  0.4177
14584TIP3   OH265166   2.263   0.510  12.098  0.2042  0.1355 -0.1637
14584TIP3    H165167   2.348   0.508  12.142  0.3585  1.5236 -0.3454
14584TIP3    H265168   2.277   0.468  12.014  0.4754 -0.4954  0.1973
14585TIP3   OH265169   4.461   6.255  14.879  0.3464  0.6724  0.1302
14585TIP3    H165170   4.367   6.245  14.860  0.1417  1.4543  0.6829
14585TIP3    H265171   4.468   6.243  14.974  0.7254  1.1503  0.1668
14586TIP3   OH265172   0.054   1.326   0.104 -0.1467  0.8141  0.3937
14586TIP3    H165173   0.142   1.360   0.118  0.1548  1.0396 -1.7411
14586TIP3    H265174   0.024   1.302   0.191  2.7059 -0.9797  1.0100
14587TIP3   OH265175   5.505   5.572  13.988 -0.4604 -0.0703 -0.0726
14587TIP3    H165176   5.562   5.496  13.976 -0.3585 -0.2563  1.4346
14587TIP3    H265177   5.448   5.549  14.061 -1.5100  0.6955 -0.6122
14588TIP3   OH265178   2.726   1.333   5.944  0.3316 -0.1049 -0.0831
14588TIP3    H165179   2.735   1.267   5.875  2.7602 -0.4143  0.4407
14588TIP3    H265180   2.702   1.413   5.898 -1.9442 -1.1122 -0.8138
14589TIP3   OH265181   1.190   5.368   2.232 -0.3561  0.0738  0.1917
14589TIP3    H165182   1.174   5.461   2.248  1.8508  0.5315 -0.0167
14589TIP3    H265183   1.163   5.325   2.313 -0.8053  0.9624  0.5283
14590TIP3   OH265184   1.981   1.031  13.505  0.0375 -0.2725  0.5618
14590TIP3    H165185   1.909   1.032  13.568 -1.4476  0.7526 -1.0727
14590TIP3    H265186   2.039   1.102  13.535  0.5177 -1.2093  1.9761
14591TIP3   OH265187   3.246   1.641  13.411 -0.5309  0.0449  0.0647
14591TIP3    H165188   3.190   1.586  13.465 -1.1369  0.1238 -0.4722
14591TIP3    H265189   3.280   1.707  13.471 -1.0245  0.0056  0.3900
14592TIP3   OH265190   2.643   0.571  12.668 -0.0585  0.1320 -0.5852
14592TIP3    H165191   2.689   0.568  12.584  1.3332 -0.6598  0.1525
14592TIP3    H265192   2.575   0.637  12.657 -0.6254 -0.7080 -2.6731
14593TIP3   OH265193   6.292   1.477  11.971  0.1100 -0.4355 -0.1723
14593TIP3    H165194   6.269   1.482  12.064 -0.2564 -0.3528 -0.2678
14593TIP3    H265195   6.308   1.384  11.955 -3.0529 -0.9790 -0.7969
14594TIP3   OH265196   6.131   3.887   3.527 -0.0678  0.1987  0.4063
14594TIP3    H165197   6.040   3.912   3.510  0.0155  0.3762  0.2192
14594TIP3    H265198   6.179   3.913   3.448 -0.0492 -0.9645  0.0177
14595TIP3   OH265199   6.739   2.960   1.938  0.7680 -0.0046 -0.2867
14595TIP3    H165200   6.763   3.036   1.992  2.4415 -0.1705 -0.7502
14595TIP3    H265201   6.663   2.990   1.887 -1.5265 -0.1393  2.7335
14596TIP3   OH265202   2.244   0.378   2.395  0.3020  0.1653  0.3668
14596TIP3    H165203   2.167   0.388   2.338 -0.9818 -2.3345  1.4987
14596TIP3    H265204   2.315   0.355   2.335 -1.0262 -2.4663 -0.3606
14597TIP3   OH265205   4.051   1.064   4.330 -0.1539 -0.7303 -0.5969
14597TIP3    H165206   4.125   1.103   4.283  0.0254 -1.0640 -0.5941
14597TIP3    H265207   3.981   1.128   4.321  0.3438 -0.0828  0.0043
14598TIP3   OH265208   6.136   0.066   3.326  0.2401 -0.4523 -0.6660
14598TIP3    H165209   6.099   0.019   3.401  0.2612  0.4791 -0.0573
14598TIP3    H265210   6.060   0.091   3.274 -0.0264  1.2537  0.4624
14599TIP3   OH265211   0.315   2.220   3.068 -0.4334 -0.6791  0.2607
14599TIP3    H165212   0.350   2.282   3.004  0.6278 -2.2608 -0.7633
14599TIP3    H265213   0.267   2.156   3.015 -2.7173 -0.0278  1.4102
14600TIP3   OH265214   5.322   4.024   2.410 -0.1849  0.2505  0.1388
14600TIP3    H165215   5.414   4.042   2.392 -0.0661 -0.1461  0.3417
14600TIP3    H265216   5.274   4.074   2.344  0.2496 -1.2130 -1.3435
14601TIP3   OH265217   3.152   4.184   0.057  0.2283 -0.3557 -0.3301
14601TIP3    H165218   3.214   4.250   0.026  0.8758 -1.4549 -1.4557
14601TIP3    H265219   3.196   4.143   0.132 -0.3931  0.7857  0.7082
14602TIP3   OH265220   3.504   3.608  11.853  0.1942 -0.1084 -0.0751
14602TIP3    H165221   3.419   3.568  11.872 -0.3450  1.2187  0.4719
14602TIP3    H265222   3.555   3.597  11.933 -0.1248  0.6815  0.2476
14603TIP3   OH265223   0.243   4.474   3.828  0.4488  0.1824  0.6201
14603TIP3    H165224   0.314   4.532   3.800 -0.1310  0.7954  0.3922
14603TIP3    H265225   0.230   4.497   3.920 -0.2085  0.8825  0.3635
14604TIP3   OH265226   0.408   6.447   0.347 -0.2147  0.1786  0.2455
14604TIP3    H165227   0.449   6.362   0.331 -0.8270 -0.1966  0.6503
14604TIP3    H265228   0.476   6.497   0.393  0.2477  0.0094 -0.2473
14605TIP3   OH265229   0.943   1.294   1.445  0.2271  0.0286 -0.1374
14605TIP3    H165230   0.962   1.362   1.381 -1.9657  2.0097  1.1907
14605TIP3    H265231   0.986   1.323   1.525 -0.9593  0.0289  0.5220
14606TIP3   OH265232   6.620   5.150  14.641  0.7844 -0.0375 -0.1876
14606TIP3    H165233   6.660   5.156  14.555  0.9908 -0.2300 -0.1045
14606TIP3    H265234   6.689   5.116  14.698  0.7070  0.2752  0.0938
14607TIP3   OH265235   1.285   2.721  17.149 -0.0590  0.6100  0.0691
14607TIP3    H165236   1.343   2.779  17.100 -2.4057  1.0935 -2.3807
14607TIP3    H265237   1.203   2.722  17.100 -1.3953 -1.9252  1.9991
14608TIP3   OH265238   5.224   3.255  11.916 -0.4563  0.1118 -0.0939
14608TIP3    H165239   5.273   3.335  11.929 -0.4190  0.4399 -1.9574
14608TIP3    H265240   5.154   3.279  11.855 -0.1472 -1.3754 -1.0827
14609TIP3   OH265241   1.281   1.541  14.993 -0.0098 -0.0248 -0.2039
14609TIP3    H165242   1.243   1.561  15.079  3.1415  0.9747  1.1121
14609TIP3    H265243   1.277   1.625  14.946  0.9388  0.2324  0.1457
14610TIP3   OH265244   0.809   3.303  16.705  0.7357  0.2850  0.4392
14610TIP3    H165245   0.864   3.371  16.745  2.2421  0.2376 -1.4133
14610TIP3    H265246   0.794   3.334  16.615 -0.4265 -0.7975  0.2324
14611TIP3   OH265247   6.324   6.312   2.390 -0.7747 -0.2805  0.0556
14611TIP3    H165248   6.390   6.245   2.371  0.5794  0.4220  1.9469
14611TIP3    H265249   6.327   6.371   2.314  0.9865 -0.1266  0.2046
14612TIP3   OH265250   0.885   2.374  11.270 -0.0511 -0.1550 -0.0418
14612TIP3    H165251   0.980   2.371  11.260 -0.0500 -1.0139  0.2140
14612TIP3    H265252   0.870   2.374  11.364 -0.2584  2.1228 -0.0093
14613TIP3   OH265253   2.423   2.301  11.374  0.0325 -0.1377 -0.5028
14613TIP3    H165254   2.503   2.249  11.370 -0.5766 -1.0893 -0.7659
14613TIP3    H265255   2.416   2.341  11.287 -0.2341 -0.7601 -0.7696
14614TIP3   OH265256   6.341   4.310  12.291  0.5141 -0.5927  0.2593
14614TIP3    H165257   6.274   4.376  12.307  0.3105 -0.4416 -1.1247
14614TIP3    H265258   6.423   4.352  12.317  0.3696  0.1626 -0.4670
14615TIP3   OH265259   5.662   5.488  15.499 -0.2106  0.4389 -0.0071
14615TIP3    H165260   5.660   5.442  15.415 -2.1309  0.3884  0.0272
14615TIP3    H265261   5.629   5.424  15.563 -0.4911  1.0529  0.4742
14616TIP3   OH265262   0.845   1.457  12.039  0.3840  0.7509 -0.0517
14616TIP3    H165263   0.923   1.457  11.983 -0.0670  1.1709 -0.6833
14616TIP3    H265264   0.875   1.416  12.121  1.7402  2.4135  0.3599
14617TIP3   OH265265   4.834   0.222  15.409 -0.8087  0.2010 -0.4049
14617TIP3    H165266   4.753   0.180  15.381 -0.2092 -0.5377 -1.1167
14617TIP3    H265267   4.809   0.277  15.482 -1.5422 -2.0076  1.1085
14618TIP3   OH265268   0.293   5.444  14.210  0.3615  0.0260 -0.3404
14618TIP3    H165269   0.316   5.481  14.124  3.1204  1.0987  0.7269
14618TIP3    H265270   0.342   5.362  14.214  0.2541 -0.0120  0.2045
14619TIP3   OH265271   5.907   3.717   3.168  0.1638 -0.2103  0.5120
14619TIP3    H165272   5.928   3.672   3.250 -1.3840  0.8019  1.5124
14619TIP3    H265273   5.980   3.777   3.154 -0.6963  1.4331  2.5543
14620TIP3   OH265274   4.491   4.818  14.172 -0.6392  0.2675  0.0142
14620TIP3    H165275   4.505   4.912  14.178 -1.3931  0.5490 -1.9569
14620TIP3    H265276   4.580   4.781  14.174 -0.3425  0.9859  0.8540
14621TIP3   OH265277   4.454   3.070  15.460  0.0854 -1.0951  0.2117
14621TIP3    H165278   4.522   3.019  15.416 -1.8086 -1.2150 -2.9582
14621TIP3    H265279   4.371   3.032  15.429 -1.4420  0.3193  2.2536
14622TIP3   OH265280   2.636   3.064   2.166 -0.4747  0.1245  0.2088
14622TIP3    H165281   2.686   3.053   2.085 -0.1723  0.0547  0.4026
14622TIP3    H265282   2.555   3.017   2.151 -0.7130  0.6795 -0.3118
14623TIP3   OH265283   0.560   5.681   1.124 -0.8693 -0.8398 -0.1585
14623TIP3    H165284   0.633   5.653   1.068 -0.3965  0.9725 -0.4972
14623TIP3    H265285   0.486   5.689   1.063 -1.1830 -1.9528  0.0568
14624TIP3   OH265286   4.235   3.522   4.831  0.1612 -0.3457  0.1632
14624TIP3    H165287   4.155   3.569   4.808  0.8662  0.6736 -0.2490
14624TIP3    H265288   4.213   3.478   4.914 -0.7188  0.1707  0.2177
14625TIP3   OH265289   4.196   3.890   4.731  0.1877 -0.6812  0.0120
14625TIP3    H165290   4.179   3.984   4.735  0.9831 -0.4402 -1.4538
14625TIP3    H265291   4.229   3.876   4.642 -0.7856 -2.4965 -0.1028
14626TIP3   OH265292   5.629   4.184   5.262  0.0090 -0.3173 -0.6431
14626TIP3    H165293   5.546   4.138   5.275  0.7870 -1.9096 -1.0286
14626TIP3    H265294   5.606   4.276   5.263 -1.5089 -0.6645  1.0203
14627TIP3   OH265295   2.255   6.600   3.905 -0.0693 -0.1447 -0.1072
14627TIP3    H165296   2.349   6.611   3.891 -0.1124 -1.7483 -2.1693
14627TIP3    H265297   2.215   6.634   3.825 -1.3308  1.1569  1.0343
14628TIP3   OH265298   2.994   0.932  12.302  0.2644  0.6110 -0.5304
14628TIP3    H165299   2.962   0.911  12.390  1.3220 -0.9444 -0.4856
14628TIP3    H265300   3.048   1.011  12.315 -0.2441  0.8686  0.0694
14629TIP3   OH265301   3.864   4.584  15.316 -0.0180 -0.2636  0.2473
14629TIP3    H165302   3.913   4.518  15.365 -0.4396  1.5108  3.3754
14629TIP3    H265303   3.773   4.571  15.342 -0.6311 -0.6572 -1.9314
14630TIP3   OH265304   1.754   3.839   5.959 -0.6133 -0.3834 -0.6635
14630TIP3    H165305   1.686   3.894   5.999 -0.1788  0.5529 -1.1755
14630TIP3    H265306   1.814   3.819   6.030  0.4281  1.6887 -0.8999
14631TIP3   OH265307   3.968   5.175  17.056  0.6484  0.1733  0.2091
14631TIP3    H165308   3.956   5.102  16.995 -0.4535  0.3382  0.2029
14631TIP3    H265309   3.932   5.143  17.139  0.9090  0.4195  0.4174
14632TIP3   OH265310   5.219   0.132   1.700 -0.3082 -0.5353 -0.2489
14632TIP3    H165311   5.221   0.048   1.745 -1.7544  0.3380  1.5894
14632TIP3    H265312   5.244   0.196   1.767  0.1809  0.5694 -1.4440
14633TIP3   OH265313   0.644   6.308  14.479 -0.2726 -0.3657  0.6579
14633TIP3    H165314   0.660   6.314  14.384 -0.0941 -1.7519  0.5769
14633TIP3    H265315   0.568   6.364  14.494 -0.4611 -0.3236 -0.3543
14634TIP3   OH265316   3.886   0.446   2.354 -1.0361 -0.2803  0.1274
14634TIP3    H165317   3.899   0.439   2.260 -1.3187  2.1681 -0.1698
14634TIP3    H265318   3.796   0.419   2.369 -0.4933 -2.2877 -0.0267
14635TIP3   OH265319   5.110   1.546  12.700 -0.0084 -0.1842  0.1862
14635TIP3    H165320   5.175   1.616  12.703 -0.9294  0.6871  0.3664
14635TIP3    H265321   5.162   1.466  12.700  1.0641  0.4794  0.3879
14636TIP3   OH265322   4.920   6.755  13.691 -0.2437 -0.2350  0.0937
14636TIP3    H165323   4.957   6.667  13.698 -0.7032 -0.5563 -1.2430
14636TIP3    H265324   4.826   6.742  13.699 -0.2893  0.1983  0.2803
14637TIP3   OH265325   6.676   0.418   6.163  0.0819 -0.4277  0.4255
14637TIP3    H165326   6.682   0.451   6.253 -1.6772 -0.8995  0.7586
14637TIP3    H265327   6.672   0.497   6.109 -0.9853 -0.0829  0.9633
14638TIP3   OH265328   3.391   1.201  13.869 -0.3973  0.5151 -0.2846
14638TIP3    H165329   3.361   1.236  13.786  0.8791  0.1939 -0.8952
14638TIP3    H265330   3.486   1.200  13.863 -0.3066 -3.1166 -0.3890
14639TIP3   OH265331   6.432   6.106  12.840  0.3884 -0.2593 -0.4126
14639TIP3    H165332   6.410   6.115  12.747  0.3046 -1.4121 -0.5150
14639TIP3    H265333   6.367   6.161  12.885 -1.1327 -1.5794 -0.8868
14640TIP3   OH265334   5.533   5.871  14.193 -0.1202  0.4813  0.1369
14640TIP3    H165335   5.473   5.945  14.201 -0.9762 -0.0959 -0.7205
14640TIP3    H265336   5.484   5.797  14.230  1.0128  0.4682  1.6906
14641TIP3   OH265337   0.617   4.561  15.584 -0.0493  0.4369  0.0610
14641TIP3    H165338   0.696   4.580  15.633 -0.6362 -2.6869  2.5026
14641TIP3    H265339   0.646   4.505  15.512 -0.0741 -2.0372  1.8572
14642TIP3   OH265340   0.032   4.666  12.051  0.0112 -0.5447  0.4794
14642TIP3    H165341   0.058   4.705  11.968  1.9812 -2.0955  0.3052
14642TIP3    H265342  -0.055   4.702  12.068  0.3006  1.1731 -1.3493
14643TIP3   OH265343   6.157   4.895   4.908 -0.8868  0.7839 -0.6530
14643TIP3    H165344   6.123   4.849   4.831  1.3009 -1.1222 -0.5632
14643TIP3    H265345   6.242   4.929   4.881  0.6124 -1.1862  1.2654
14644TIP3   OH265346   1.527   3.175  11.231 -0.2902  0.2107  0.3251
14644TIP3    H165347   1.464   3.102  11.229 -0.9577  0.7468  1.1118
14644TIP3    H265348   1.594   3.150  11.167 -0.8580 -0.7748  0.0842
14645TIP3   OH265349   3.350   0.969   4.604 -0.4518  0.1267  0.1348
14645TIP3    H165350   3.317   1.057   4.589 -0.9108  0.1955  1.4455
14645TIP3    H265351   3.402   0.950   4.526 -0.6437  1.4084 -0.3363
14646TIP3   OH265352   2.765   0.000   4.076 -0.0180 -0.5963 -0.0223
14646TIP3    H165353   2.802  -0.031   4.159  1.2804  0.9858  0.0431
14646TIP3    H265354   2.672   0.015   4.095  0.2722 -0.1920  1.1857
14647TIP3   OH265355   3.308   1.167  12.614  0.2398 -0.2892 -0.0672
14647TIP3    H165356   3.363   1.092  12.635 -0.9128 -1.4719 -1.1459
14647TIP3    H265357   3.346   1.203  12.533 -0.4890 -1.0286 -0.7418
14648TIP3   OH265358   3.015   1.363   1.620 -0.0155 -0.1771 -0.6809
14648TIP3    H165359   2.941   1.318   1.662 -0.2926  0.8966  0.0183
14648TIP3    H265360   3.091   1.338   1.672 -0.1190 -0.0731 -0.4795
14649TIP3   OH265361   5.766   3.873   3.976 -0.3727  0.0042 -0.0868
14649TIP3    H165362   5.759   3.870   4.071 -1.7095  0.0773 -0.1688
14649TIP3    H265363   5.677   3.856   3.944 -0.9498  4.1880 -1.2417
14650TIP3   OH265364   5.184   6.606   4.356 -0.1565  0.1633  0.2536
14650TIP3    H165365   5.278   6.586   4.353 -0.2550 -0.2632 -0.1442
14650TIP3    H265366   5.176   6.677   4.420  0.1925 -1.2683  1.9744
14651TIP3   OH265367   5.299   2.792  14.077 -0.4856 -0.3356 -0.0712
14651TIP3    H165368   5.239   2.735  14.125 -0.5917 -0.3035 -0.1656
14651TIP3    H265369   5.315   2.866  14.136 -0.8884 -0.1253 -0.2226
14652TIP3   OH265370   0.325   5.734  13.634  0.2953 -0.1707  0.3700
14652TIP3    H165371   0.363   5.667  13.576 -1.8626 -0.5520 -0.7222
14652TIP3    H265372   0.375   5.726  13.715  2.6342 -0.4702 -0.9893
14653TIP3   OH265373   4.617   0.113  10.579  0.2461  0.1017  0.0895
14653TIP3    H165374   4.688   0.049  10.579  0.2218  0.0187  1.9276
14653TIP3    H265375   4.549   0.074  10.635  1.2145  2.6891  3.3904
14654TIP3   OH265376   0.883   4.385   3.114  0.1820 -0.0363 -0.1109
14654TIP3    H165377   0.915   4.427   3.034  0.0983 -2.4379 -1.4881
14654TIP3    H265378   0.797   4.424   3.129  0.0669  0.2490 -1.3796
14655TIP3   OH265379   5.867   4.961   4.086 -0.0111 -0.0456 -0.1545
14655TIP3    H165380   5.838   4.899   4.153 -1.2323  0.8868  0.2066
14655TIP3    H265381   5.810   4.943   4.011  0.3107 -0.0252 -0.4079
14656TIP3   OH265382   1.801   3.053  15.091  0.3849  0.4014  0.8320
14656TIP3    H165383   1.829   3.057  15.000  0.2080 -2.3248  0.5837
14656TIP3    H265384   1.706   3.044  15.087  0.4848 -1.2036  1.1532
14657TIP3   OH265385   1.536   4.338   0.314 -0.2006  0.1065  0.1175
14657TIP3    H165386   1.493   4.421   0.294 -1.2139 -0.3658  0.2346
14657TIP3    H265387   1.463   4.276   0.324  0.4212 -0.4296  1.7401
14658TIP3   OH265388   3.772   3.555   4.646 -0.5242 -0.1739  0.1840
14658TIP3    H165389   3.755   3.462   4.654 -2.6686  0.1816  0.4069
14658TIP3    H265390   3.761   3.574   4.553 -0.9267 -0.0180  0.2600
14659TIP3   OH265391   3.529   0.227   6.174  0.4883 -0.5040  0.5184
14659TIP3    H165392   3.520   0.131   6.173 -3.4765 -0.3093 -0.7480
14659TIP3    H265393   3.448   0.258   6.215  0.7271  2.3412 -0.9163
14660TIP3   OH265394   6.267   4.739  16.297 -0.4915 -0.4058  0.6628
14660TIP3    H165395   6.252   4.805  16.365  3.6764  0.7374  0.7311
14660TIP3    H265396   6.251   4.786  16.215 -1.8467 -0.6912  0.7396
14661TIP3   OH265397   2.678   6.738  13.410 -0.0965  0.1905 -0.2924
14661TIP3    H165398   2.611   6.730  13.478 -2.1652 -1.2386 -2.3665
14661TIP3    H265399   2.679   6.831  13.388  2.1557  1.1458  2.9901
14662TIP3   OH265400   2.613   5.026   1.904  0.2900 -0.0173 -0.0194
14662TIP3    H165401   2.697   5.023   1.949  0.2392 -0.8870  0.0503
14662TIP3    H265402   2.548   5.039   1.974  0.1483 -2.0778  0.2951
14663TIP3   OH265403   1.250   5.639   5.695 -0.0182 -0.3308 -0.1323
14663TIP3    H165404   1.182   5.596   5.747  1.3702  0.1196  2.2117
14663TIP3    H265405   1.252   5.728   5.729  1.8525 -0.3891 -0.0191
14664TIP3   OH265406   5.613   0.752   5.518  0.0059 -0.1895  0.7329
14664TIP3    H165407   5.584   0.791   5.600 -0.3012 -1.1463  1.0882
14664TIP3    H265408   5.548   0.685   5.498 -0.8377  1.1149 -1.1635
14665TIP3   OH265409   0.221   6.352   1.936 -0.6230 -0.3626  0.0913
14665TIP3    H165410   0.184   6.307   2.012 -2.2806  0.0844 -0.4214
14665TIP3    H265411   0.149   6.359   1.874  0.1048  1.2527 -0.6418
14666TIP3   OH265412   2.083   0.624  16.730  0.2432  0.0509  0.5370
14666TIP3    H165413   2.013   0.656  16.672  0.3361 -0.0956  0.3453
14666TIP3    H265414   2.148   0.694  16.731 -0.2901  0.5528  1.3835
14667TIP3   OH265415   2.200   1.720  15.129  0.9976 -0.6709  0.0217
14667TIP3    H165416   2.123   1.663  15.126 -1.5197  2.4472 -0.3263
14667TIP3    H265417   2.212   1.739  15.222  0.2955  0.0830 -0.0319
14668TIP3   OH265418   1.374   5.872  11.746 -0.3486  0.2919  0.1826
14668TIP3    H165419   1.294   5.919  11.772  0.2978  1.6149 -0.1424
14668TIP3    H265420   1.424   5.864  11.827 -0.1274  0.8622  0.1118
14669TIP3   OH265421   4.493   5.978   4.182  0.3189 -0.3623  0.4203
14669TIP3    H165422   4.524   6.002   4.270 -0.2654  1.0289  0.2721
14669TIP3    H265423   4.405   6.014   4.178 -0.6212 -2.5378  0.1252
14670TIP3   OH265424   0.647   4.590  10.995 -0.1424 -0.4978 -0.1933
14670TIP3    H165425   0.622   4.563  10.906 -0.9043  1.2676 -0.5446
14670TIP3    H265426   0.565   4.587  11.045 -0.3178  1.3003 -0.3065
14671TIP3   OH265427   4.818   5.370  15.595  0.6955  0.1445 -0.2021
14671TIP3    H165428   4.730   5.340  15.616  0.1103  2.5811  1.2597
14671TIP3    H265429   4.843   5.424  15.670  3.7111 -0.9571 -0.3158
14672TIP3   OH265430   1.512   6.078  12.210 -0.1018 -0.1047 -0.8093
14672TIP3    H165431   1.550   6.091  12.123 -0.8340  0.3767 -1.0702
14672TIP3    H265432   1.538   6.156  12.259  0.8688 -0.6828 -0.3762
14673TIP3   OH265433   5.133   5.488  13.163 -0.0670  0.2579  0.0511
14673TIP3    H165434   5.065   5.551  13.190 -1.3981 -0.6428 -1.1036
14673TIP3    H265435   5.154   5.440  13.243 -0.4459  0.8509  0.5179
14674TIP3   OH265436   6.473   2.938  14.405 -0.0270 -0.1285  0.3633
14674TIP3    H165437   6.438   2.895  14.327 -0.3504  0.9674 -0.1183
14674TIP3    H265438   6.451   2.878  14.477  1.5962 -1.8815 -0.5175
14675TIP3   OH265439   4.530   0.136   0.643 -0.0014 -0.5630 -0.2729
14675TIP3    H165440   4.522   0.084   0.723  0.5367 -0.9516 -0.4605
14675TIP3    H265441   4.593   0.205   0.666  1.9019 -1.9782 -0.9763
14676TIP3   OH265442   6.077   5.796  13.525  0.9260 -0.4467  0.1006
14676TIP3    H165443   6.157   5.843  13.546  0.1005  1.0389  0.0246
14676TIP3    H265444   6.068   5.805  13.430  0.2245  0.1499  0.2155
14677TIP3   OH265445   3.910   3.558   3.962 -0.3728 -0.6765 -0.1835
14677TIP3    H165446   3.838   3.536   4.021  0.1984 -0.3857  0.6458
14677TIP3    H265447   3.976   3.596   4.019 -0.2154  0.5803 -1.1609
14678TIP3   OH265448   4.546   6.423  11.379  0.5510  0.3960 -0.2178
14678TIP3    H165449   4.589   6.482  11.317 -0.2558 -0.8006 -2.0167
14678TIP3    H265450   4.475   6.382  11.328 -0.9305  0.2279  1.8491
14679TIP3   OH265451   3.239   4.341   2.811 -0.2895 -0.1605  0.0983
14679TIP3    H165452   3.187   4.260   2.811  3.1168 -2.6147 -1.2458
14679TIP3    H265453   3.278   4.344   2.899  1.2125 -1.2958 -0.4706
14680TIP3   OH265454   3.798   2.769   0.762 -0.0203  0.4509 -0.7684
14680TIP3    H165455   3.888   2.781   0.792  0.1186 -1.6858 -0.1592
14680TIP3    H265456   3.805   2.704   0.692 -0.9340  1.5020 -1.8810
14681TIP3   OH265457   4.300   3.463  15.608 -0.3266  0.7744 -0.3027
14681TIP3    H165458   4.309   3.410  15.687  2.8184  2.1074  0.3606
14681TIP3    H265459   4.205   3.472  15.597 -0.9553  1.0087  3.6816
14682TIP3   OH265460   0.259   1.550  11.330  0.4458 -0.0694  0.2663
14682TIP3    H165461   0.262   1.558  11.235  0.5437  2.4394  0.4328
14682TIP3    H265462   0.166   1.539  11.350  0.2220  1.1229 -0.0416
14683TIP3   OH265463   4.442   5.103   2.475  0.0013  0.0036 -0.2063
14683TIP3    H165464   4.357   5.144   2.463  0.3065  0.2083 -1.9089
14683TIP3    H265465   4.460   5.060   2.391  0.9652 -1.1819  0.5860
14684TIP3   OH265466   1.105   1.757   3.486  0.4720  0.1337 -0.4351
14684TIP3    H165467   1.146   1.678   3.522 -1.5851 -0.3896  0.9393
14684TIP3    H265468   1.042   1.724   3.422  0.2315  0.7270 -0.5099
14685TIP3   OH265469   4.346   1.362  15.638 -0.2763 -0.1074 -0.0638
14685TIP3    H165470   4.262   1.362  15.591 -0.7111 -1.4332  0.6589
14685TIP3    H265471   4.366   1.455  15.651 -0.8484  0.2649 -1.6082
14686TIP3   OH265472   0.623   1.970   0.720  0.1284  0.0698  0.1135
14686TIP3    H165473   0.658   1.953   0.808  0.9583  1.1567  0.0158
14686TIP3    H265474   0.531   1.992   0.734  0.0758 -0.4568  0.6312
14687TIP3   OH265475   3.924   2.630   3.315  0.2439 -0.2701 -0.3689
14687TIP3    H165476   3.937   2.695   3.246  2.4710 -0.0942  0.1150
14687TIP3    H265477   3.943   2.546   3.272  0.7388 -0.2461 -0.2064
14688TIP3   OH265478   5.799   0.158   5.699  0.2800 -0.6027  0.0780
14688TIP3    H165479   5.764   0.139   5.612 -0.6844 -1.1521  0.5712
14688TIP3    H265480   5.757   0.241   5.724 -0.3971 -1.0761  0.5213
14689TIP3   OH265481   2.792   0.892  16.344  0.2250 -0.2438 -0.5087
14689TIP3    H165482   2.836   0.807  16.336  3.1840  1.2267 -1.6910
14689TIP3    H265483   2.806   0.918  16.435  0.8262 -0.3268 -0.5711
14690TIP3   OH265484   3.063   2.175   6.493 -0.8225  0.0191  0.2707
14690TIP3    H165485   2.967   2.172   6.489 -0.7818 -0.3208 -0.9323
14690TIP3    H265486   3.085   2.261   6.458 -0.6575 -0.3264 -0.4896
14691TIP3   OH265487   5.247   0.428   0.541  0.2043  0.1260  0.1150
14691TIP3    H165488   5.188   0.453   0.470  0.4491  0.6871  0.1036
14691TIP3    H265489   5.310   0.500   0.547  0.8251 -0.4123  0.1964
14692TIP3   OH265490   0.902   3.628  12.905  0.0997 -0.1497 -0.1037
14692TIP3    H165491   0.928   3.584  12.986 -0.6606  1.6671  1.1858
14692TIP3    H265492   0.969   3.695  12.891 -1.4233  1.6674  0.8424
14693TIP3   OH265493   4.921   5.735   2.959 -0.0340 -0.6174  0.4829
14693TIP3    H165494   4.918   5.667   2.891  1.4876 -2.0168  1.7377
14693TIP3    H265495   5.013   5.764   2.960 -0.3588  0.4451  0.9463
14694TIP3   OH265496   6.579   3.805   2.915 -0.0768 -0.0327  0.2069
14694TIP3    H165497   6.635   3.727   2.907  0.3477  0.4413 -2.4839
14694TIP3    H265498   6.624   3.872   2.862 -2.3411  0.8600 -0.7048
14695TIP3   OH265499   1.725   6.699   5.409  0.6885  0.2355  0.0422
14695TIP3    H165500   1.762   6.680   5.495 -0.2583  0.6425  0.5591
14695TIP3    H265501   1.649   6.754   5.427 -0.1342 -0.5113 -0.9727
14696TIP3   OH265502   6.639   3.147  13.686  0.3331  0.6586 -0.3777
14696TIP3    H165503   6.611   3.057  13.673  0.4905  0.6428 -0.6075
14696TIP3    H265504   6.576   3.199  13.637  0.3070  0.6675 -0.3352
14697TIP3   OH265505   1.096   5.417   1.576  0.0795  0.2813 -0.9707
14697TIP3    H165506   1.182   5.444   1.608  0.7012 -1.7287 -0.8436
14697TIP3    H265507   1.052   5.500   1.554  2.3069  1.3115 -1.7916
14698TIP3   OH265508   5.111   1.841   1.785 -0.7190  0.4584 -0.0635
14698TIP3    H165509   5.088   1.875   1.699  0.5267  0.7804 -0.2898
14698TIP3    H265510   5.089   1.913   1.845 -1.7645  0.1623 -0.0755
14699TIP3   OH265511   2.636   4.263  13.653  0.0794 -0.2418 -0.0086
14699TIP3    H165512   2.546   4.290  13.634  0.3016 -0.2864 -1.2733
14699TIP3    H265513   2.675   4.250  13.566  0.8483 -1.7507  0.5316
14700TIP3   OH265514   6.146   6.388   3.828  0.1795  0.1919  0.5067
14700TIP3    H165515   6.196   6.312   3.799 -0.3056  0.1962 -0.3608
14700TIP3    H265516   6.136   6.442   3.750 -0.5882  0.5200  0.8191
14701TIP3   OH265517   0.133   3.643  14.543 -0.5853 -0.1202  0.0884
14701TIP3    H165518   0.138   3.595  14.625  0.3521 -1.2161 -0.5837
14701TIP3    H265519   0.181   3.589  14.480 -1.0921  0.7972 -1.1341
14702TIP3   OH265520   1.683   0.342   0.737  0.0182  0.0010 -0.1769
14702TIP3    H165521   1.644   0.260   0.770  1.4007 -0.5241  0.2110
14702TIP3    H265522   1.664   0.342   0.643  2.1073 -2.0375 -0.6793
14703TIP3   OH265523   1.536   6.131   1.715  0.7057 -0.1439 -0.2069
14703TIP3    H165524   1.528   6.135   1.810  1.3123 -2.1826 -0.0008
14703TIP3    H265525   1.615   6.077   1.701  0.3534 -0.2694 -1.8451
14704TIP3   OH265526   4.588   6.416  15.792  0.4025 -0.1682  1.0585
14704TIP3    H165527   4.557   6.340  15.743  0.3828  0.2495  0.4134
14704TIP3    H265528   4.517   6.436  15.852 -0.6301  0.7904 -0.4133
14705TIP3   OH265529   1.297   6.102  16.872  0.0107 -0.2212  0.2284
14705TIP3    H165530   1.275   6.021  16.919  0.4488 -0.1645  0.5301
14705TIP3    H265531   1.392   6.098  16.861  0.3789  1.3805  2.3343
14706TIP3   OH265532   1.463   2.000  13.201 -0.3851  0.3523  0.1809
14706TIP3    H165533   1.430   1.920  13.161 -2.1652  1.2730 -0.2853
14706TIP3    H265534   1.558   1.988  13.205 -0.4921 -1.1699 -1.1979
14707TIP3   OH265535   0.311   6.243  11.293  0.3342  0.2203  0.3798
14707TIP3    H165536   0.265   6.310  11.241 -0.0985  0.2141  0.7437
14707TIP3    H265537   0.395   6.283  11.315  0.7914 -0.0124 -0.8440
14708TIP3   OH265538   2.688   3.339   4.889  0.1073 -0.0738  0.4633
14708TIP3    H165539   2.774   3.314   4.923  0.5956 -1.0435 -1.3039
14708TIP3    H265540   2.635   3.354   4.966  1.6131 -0.3657  1.6138
14709TIP3   OH265541   0.128   2.183  16.958 -0.5184 -0.4270 -0.1110
14709TIP3    H165542   0.174   2.183  17.042  0.6941  1.9971 -0.6808
14709TIP3    H265543   0.114   2.091  16.938  0.9815 -1.1366  1.7744
14710TIP3   OH265544   0.433   3.520  11.941 -0.2958  0.1789 -0.5482
14710TIP3    H165545   0.361   3.557  11.991  1.2578  2.3964  0.2059
14710TIP3    H265546   0.415   3.545  11.851 -0.9258 -0.0829 -0.4990
14711TIP3   OH265547   3.656   6.579  15.651  0.5360  0.0549 -0.5069
14711TIP3    H165548   3.585   6.526  15.686  1.4171  0.1796  1.5909
14711TIP3    H265549   3.647   6.664  15.695  1.2104  0.5087 -1.2154
14712TIP3   OH265550   0.070   5.660   2.886 -0.8059 -0.0433  0.0977
14712TIP3    H165551  -0.009   5.682   2.836 -0.7622 -1.7046 -0.7466
14712TIP3    H265552   0.132   5.628   2.822 -0.7801 -2.3299  1.1409
14713TIP3   OH265553   3.806   2.698   4.793 -0.2900  0.8079  0.2264
14713TIP3    H165554   3.845   2.710   4.707  0.8768 -0.7844  0.4802
14713TIP3    H265555   3.721   2.658   4.775  0.7296 -1.3445 -0.2005
14714TIP3   OH265556   5.699   1.343   5.293 -0.4068 -0.7774 -0.3439
14714TIP3    H165557   5.667   1.256   5.269  2.9507 -1.5958 -2.4273
14714TIP3    H265558   5.766   1.327   5.360  1.8659 -0.1593 -2.3441
14715TIP3   OH265559   0.622   4.214   1.955 -0.7433 -0.1769  0.1763
14715TIP3    H165560   0.639   4.277   2.025  3.9410  0.7229 -1.4178
14715TIP3    H265561   0.622   4.129   1.998  0.9426  0.4218  1.4591
14716TIP3   OH265562   4.541   4.617   4.992 -0.3979  0.2981 -0.3108
14716TIP3    H165563   4.512   4.706   5.013  2.4687  1.2529 -0.0416
14716TIP3    H265564   4.630   4.628   4.959 -0.6161 -2.3329 -2.0431
14717TIP3   OH265565   4.173   4.862  14.064  0.0788 -0.0223 -0.2945
14717TIP3    H165566   4.109   4.851  14.134  0.6908 -1.6577  0.0609
14717TIP3    H265567   4.174   4.956  14.046 -1.4946  0.1886  0.5421
14718TIP3   OH265568   1.703   0.740  11.000 -0.6769  0.4051  0.6146
14718TIP3    H165569   1.757   0.660  10.999  0.6192  1.1240  3.1241
14718TIP3    H265570   1.713   0.777  10.912 -0.9925 -1.9591 -0.4826
14719TIP3   OH265571   3.414   4.796   2.284 -0.1526  0.1102  0.9165
14719TIP3    H165572   3.416   4.825   2.375  1.0698 -2.1866  1.7163
14719TIP3    H265573   3.375   4.708   2.288 -0.8411  0.2930 -0.9008
14720TIP3   OH265574   1.871   4.552  12.925  0.6860  0.0256  0.5391
14720TIP3    H165575   1.877   4.488  12.854 -0.1263 -0.1974  0.6656
14720TIP3    H265576   1.780   4.547  12.954  0.6274  1.2115  0.5793
14721TIP3   OH265577   5.936   4.813   4.525 -0.5217  0.0237  0.4981
14721TIP3    H165578   5.853   4.780   4.559 -0.9749 -0.3392 -0.9045
14721TIP3    H265579   6.001   4.782   4.588 -1.0044 -2.9661 -0.3272
14722TIP3   OH265580   4.090   3.627   1.258  0.0019 -0.2166  0.2328
14722TIP3    H165581   4.145   3.624   1.336  0.6479 -0.7563 -0.2275
14722TIP3    H265582   4.151   3.611   1.185 -0.6597 -0.1843 -0.3389
14723TIP3   OH265583   5.836   6.446  12.398 -0.1847  0.1576 -0.3795
14723TIP3    H165584   5.854   6.527  12.447  0.4513 -0.2499  0.0753
14723TIP3    H265585   5.912   6.437  12.340  0.6976 -1.1239  0.9310
14724TIP3   OH265586   1.662   2.670   3.380  0.5043  0.1835 -0.3142
14724TIP3    H165587   1.714   2.594   3.354  3.2212  1.8381 -0.0752
14724TIP3    H265588   1.627   2.705   3.298  2.1451  0.6218 -0.8623
14725TIP3   OH265589   1.137   0.381  12.578  1.0452 -0.2843  0.3781
14725TIP3    H165590   1.138   0.431  12.660  0.0915  0.9932 -0.3738
14725TIP3    H265591   1.144   0.290  12.607  0.7214  0.1303  1.8819
14726TIP3   OH265592   4.605   4.449   1.831 -0.3198 -0.2617  0.4687
14726TIP3    H165593   4.676   4.392   1.803 -0.1881  0.1714 -0.1204
14726TIP3    H265594   4.543   4.392   1.876 -0.3186 -0.9224 -0.3356
14727TIP3   OH265595   6.712   1.943   0.586 -0.0178  0.4887 -0.5901
14727TIP3    H165596   6.775   1.937   0.515 -0.4500  0.4219 -0.9700
14727TIP3    H265597   6.708   2.036   0.608  0.6639  0.4218 -0.1490
14728TIP3   OH265598   1.736   2.875   0.229  0.3625  0.0959 -0.2388
14728TIP3    H165599   1.664   2.812   0.224  0.6090 -0.1102 -1.4776
14728TIP3    H265600   1.796   2.839   0.294  0.1822 -0.6097 -0.4628
14729TIP3   OH265601   2.063   5.513   0.785 -0.2123  0.5147 -0.3874
14729TIP3    H165602   2.133   5.509   0.851 -1.2327  1.7293  0.8032
14729TIP3    H265603   2.039   5.605   0.781 -3.5384 -0.1548  1.1802
14730TIP3   OH265604   6.430   4.378  15.063  0.0623  0.8016  0.1800
14730TIP3    H165605   6.377   4.458  15.072 -0.1731  0.8353 -1.2211
14730TIP3    H265606   6.470   4.366  15.149 -1.3894  1.3705  0.9709
14731TIP3   OH265607   3.428   5.268   4.665 -0.6371 -0.1136  0.1222
14731TIP3    H165608   3.479   5.206   4.613 -0.1508  0.2704  0.1317
14731TIP3    H265609   3.376   5.316   4.601 -0.4135  0.0152  0.0345
14732TIP3   OH265610   5.211   3.375  13.605 -0.1833 -0.1492  0.5634
14732TIP3    H165611   5.227   3.296  13.554 -0.4743  0.7142 -0.9377
14732TIP3    H265612   5.141   3.351  13.665  0.0054 -1.1389  0.4008
14733TIP3   OH265613   2.806   6.065  12.379 -0.2132 -0.1696  0.1696
14733TIP3    H165614   2.734   6.071  12.443  0.7517  2.1538  1.1272
14733TIP3    H265615   2.788   6.134  12.316  0.7191 -0.1483 -0.0796
14734TIP3   OH265616   4.894   3.695   2.046 -0.9043 -0.0566 -0.2078
14734TIP3    H165617   4.847   3.674   1.965 -0.4290  0.2172 -0.5591
14734TIP3    H265618   4.952   3.767   2.022 -0.7214 -0.0069  0.3670
14735TIP3   OH265619   4.763   3.289   2.776  0.1774  0.6625  0.2247
14735TIP3    H165620   4.839   3.345   2.760 -0.8681  2.3464  0.9806
14735TIP3    H265621   4.800   3.213   2.823  1.3743  1.4974  0.6842
14736TIP3   OH265622   4.387   0.093   5.326 -0.0278  0.1026 -0.0319
14736TIP3    H165623   4.429   0.099   5.412 -0.0953  1.3596 -0.0713
14736TIP3    H265624   4.372   0.184   5.300 -0.8508 -0.2845 -0.9666
14737TIP3   OH265625   1.742   2.033  12.492  0.2887  0.0299  0.3931
14737TIP3    H165626   1.811   2.099  12.487  0.5562 -0.2790 -0.1080
14737TIP3    H265627   1.739   1.995  12.404 -0.3782 -0.1025  0.4661
14738TIP3   OH265628   0.488   4.389  15.822  0.2068  0.5575  0.0715
14738TIP3    H165629   0.394   4.393  15.842 -0.3080 -0.5323 -1.8639
14738TIP3    H265630   0.502   4.462  15.761 -0.1005 -1.0912 -2.0662
14739TIP3   OH265631   6.643   2.499   6.511  0.6018  0.2612  0.6705
14739TIP3    H165632   6.641   2.452   6.427 -2.3841  0.5642  0.4584
14739TIP3    H265633   6.570   2.561   6.505  0.8558  0.8904  3.1776
14740TIP3   OH265634   2.654   1.969   2.065  0.0769  0.6966 -0.2062
14740TIP3    H165635   2.647   2.044   2.006  0.4889  0.9870  0.1056
14740TIP3    H265636   2.575   1.975   2.119  0.3463  1.2044  0.1481
14741TIP3   OH265637   1.693   4.818  15.454 -0.3534 -0.6561  0.1328
14741TIP3    H165638   1.760   4.803  15.521  0.0844 -2.2046 -0.6079
14741TIP3    H265639   1.727   4.891  15.403 -1.3732  1.5480  2.3906
14742TIP3   OH265640   2.614   0.500  16.245  0.1446 -0.8090 -0.5366
14742TIP3    H165641   2.642   0.410  16.227 -0.2339 -0.9856 -0.2653
14742TIP3    H265642   2.633   0.548  16.164  0.1670 -1.1794 -0.7558
14743TIP3   OH265643   3.554   1.743   3.467  0.5368 -0.3783 -0.1874
14743TIP3    H165644   3.611   1.676   3.505 -0.5354 -0.2178  1.8160
14743TIP3    H265645   3.601   1.825   3.483  0.4388 -0.3823  0.1330
14744TIP3   OH265646   1.074   0.817  12.611  0.1104 -0.5127 -0.0211
14744TIP3    H165647   1.009   0.749  12.597  0.2846 -0.4996 -0.9494
14744TIP3    H265648   1.051   0.886  12.548  1.2064 -0.6559 -0.5967
14745TIP3   OH265649   5.797   5.475   3.006 -0.1343  0.2021 -0.0357
14745TIP3    H165650   5.718   5.430   2.978 -0.5480  0.4403  0.7464
14745TIP3    H265651   5.803   5.551   2.948 -2.2190  1.9623  1.8769
14746TIP3   OH265652   2.350   5.132  14.776  0.4688 -0.6542 -0.1449
14746TIP3    H165653   2.398   5.139  14.858  0.7438 -0.7883 -0.2944
14746TIP3    H265654   2.329   5.222  14.752 -1.5753 -0.6723  1.2213
14747TIP3   OH265655   3.484   3.867  15.439  0.1626 -0.1314 -0.1792
14747TIP3    H165656   3.400   3.857  15.484  1.4569 -1.8666  2.0882
14747TIP3    H265657   3.465   3.846  15.347 -1.6722 -1.7155  0.4962
14748TIP3   OH265658   4.372   5.973  13.295  0.2523  0.7609 -0.4440
14748TIP3    H165659   4.294   5.984  13.349 -0.9855 -0.8247 -1.7793
14748TIP3    H265660   4.362   5.886  13.256  1.3141  1.5804 -2.7578
14749TIP3   OH265661   1.599   4.374  11.065 -0.7097 -0.1496  0.1278
14749TIP3    H165662   1.551   4.385  10.983 -0.3207  1.1924  0.0617
14749TIP3    H265663   1.683   4.417  11.049 -0.5436 -0.0901  1.1464
14750TIP3   OH265664   2.603   0.398  15.175 -1.1490 -0.3324  0.0989
14750TIP3    H165665   2.615   0.303  15.171  2.4727 -0.0193  0.1083
14750TIP3    H265666   2.597   0.425  15.084  0.9489 -0.3687 -0.0976
14751TIP3   OH265667   3.525   5.981   1.720  0.6785  0.9388  0.2704
14751TIP3    H165668   3.537   6.001   1.813 -0.1947  0.5887  0.4721
14751TIP3    H265669   3.439   5.938   1.716 -0.8732  3.8149 -1.0766
14752TIP3   OH265670   0.382   6.398  13.371  0.3079 -0.2117  0.2705
14752TIP3    H165671   0.405   6.411  13.279 -0.0382 -0.8651  0.0894
14752TIP3    H265672   0.376   6.487  13.406 -1.7357  0.1917 -0.8785
14753TIP3   OH265673   2.041   2.493   4.848  0.2262  0.1499  0.1039
14753TIP3    H165674   2.043   2.508   4.942 -0.5178 -2.2614  0.5677
14753TIP3    H265675   2.108   2.552   4.813  0.3349  1.2841  2.0927
14754TIP3   OH265676   0.077   1.442   2.611 -0.6947 -0.3663 -0.2376
14754TIP3    H165677   0.156   1.395   2.638 -1.3493 -1.4861 -0.1926
14754TIP3    H265678   0.087   1.454   2.517 -0.4740 -0.4882 -0.2305
14755TIP3   OH265679   5.681   3.228  12.175 -0.1840  0.8220 -0.5903
14755TIP3    H165680   5.640   3.234  12.088 -0.0691  1.2473 -0.6203
14755TIP3    H265681   5.657   3.310  12.218  1.0084  1.2919 -0.7737
14756TIP3   OH265682   0.616   3.656   3.514 -0.7085  0.6859  0.4291
14756TIP3    H165683   0.535   3.630   3.556 -0.0209  0.3411  1.5712
14756TIP3    H265684   0.685   3.609   3.561  0.0921  0.2525 -1.1079
14757TIP3   OH265685   2.370   3.523   1.581 -0.3207  0.0091 -0.3852
14757TIP3    H165686   2.278   3.521   1.555 -0.2503 -0.3892 -0.6079
14757TIP3    H265687   2.395   3.615   1.574 -0.0937 -0.1676 -2.4662
14758TIP3   OH265688   0.302   1.411  12.571 -0.1487  0.7870  0.1904
14758TIP3    H165689   0.309   1.463  12.651 -0.3765 -0.8784  1.3439
14758TIP3    H265690   0.390   1.377  12.557 -0.6653 -1.2213  1.4071
14759TIP3   OH265691   3.322   6.121  16.256 -0.2214  0.4302 -0.4878
14759TIP3    H165692   3.237   6.165  16.250  0.3432  1.7736  0.7880
14759TIP3    H265693   3.343   6.097  16.166 -1.2509  1.4413 -1.0276
14760TIP3   OH265694   1.031   3.928   4.366 -0.0536 -0.2361 -0.3041
14760TIP3    H165695   0.958   3.868   4.376 -1.3087  1.5900  2.6325
14760TIP3    H265696   1.078   3.924   4.449 -0.6210  3.2695  0.3433
14761TIP3   OH265697   2.537   4.001   5.997  0.0416  0.0848  0.2960
14761TIP3    H165698   2.486   3.998   6.078  0.7728  0.9091  0.7985
14761TIP3    H265699   2.580   3.915   5.992  1.5358  0.6866  1.8156
14762TIP3   OH265700   5.186   3.508   0.198  0.4122 -0.2577 -0.2480
14762TIP3    H165701   5.224   3.488   0.113  1.1092  0.2678 -0.0693
14762TIP3    H265702   5.188   3.603   0.204 -1.1096 -0.1904 -0.2958
14763TIP3   OH265703   1.426   3.462  11.420 -0.4820 -0.0712 -0.1613
14763TIP3    H165704   1.458   3.549  11.397  1.8647 -1.2145 -1.6203
14763TIP3    H265705   1.455   3.449  11.510  1.8551 -0.4046 -0.8955
14764TIP3   OH265706   3.353   3.071   0.064 -0.5766  0.4978 -0.1820
14764TIP3    H165707   3.385   2.999   0.009 -0.8791 -0.2668  0.6208
14764TIP3    H265708   3.426   3.132   0.068 -0.1372  0.0012 -0.4796
14765TIP3   OH265709   6.459   4.912  12.935 -0.3627  0.1471  0.2408
14765TIP3    H165710   6.378   4.866  12.912 -1.6026  2.7400 -1.0507
14765TIP3    H265711   6.517   4.896  12.860 -0.5471  0.1589  0.0940
14766TIP3   OH265712   6.393   3.406   2.349 -0.4973 -0.6203 -0.4506
14766TIP3    H165713   6.440   3.444   2.275 -2.7770  2.0593 -0.7108
14766TIP3    H265714   6.322   3.355   2.309 -0.3121 -1.1607 -0.0982
14767TIP3   OH265715   2.841   1.991  11.588  0.2823 -0.2172 -0.0959
14767TIP3    H165716   2.794   2.029  11.513 -0.3746 -1.5235 -0.3794
14767TIP3    H265717   2.870   1.906  11.557  0.6499 -0.4712  0.9122
14768TIP3   OH265718   1.102   5.413   2.617  0.6067  0.3164  0.4968
14768TIP3    H165719   1.092   5.341   2.555 -1.1555 -1.1554  2.3595
14768TIP3    H265720   1.197   5.422   2.628  0.9289 -0.0766 -1.5700
14769TIP3   OH265721   0.146   1.961  16.824  0.5040 -0.3792 -0.7199
14769TIP3    H165722   0.236   1.928  16.823  1.0455  0.9734 -2.6344
14769TIP3    H265723   0.111   1.940  16.737 -0.9431 -0.6031 -0.1163
14770TIP3   OH265724   0.919   6.191   4.220 -0.5304 -0.6533  0.0978
14770TIP3    H165725   0.852   6.259   4.207  0.3285 -0.0233 -1.3838
14770TIP3    H265726   1.001   6.233   4.192 -0.0004 -2.3404 -1.0662
14771TIP3   OH265727   4.216   4.114  11.530  0.5445 -0.4970 -0.3956
14771TIP3    H165728   4.153   4.088  11.597  0.4190 -2.1686 -1.1151
14771TIP3    H265729   4.251   4.031  11.497  1.4570  0.3327 -1.5798
14772TIP3   OH265730   5.542   3.673   2.087  0.2559  0.2953  0.1249
14772TIP3    H165731   5.464   3.622   2.062  0.7330 -0.4505  0.1114
14772TIP3    H265732   5.529   3.758   2.044 -0.9878  0.5210  0.8812
14773TIP3   OH265733   0.022   2.483  16.426 -0.0914  0.1131 -0.0213
14773TIP3    H165734   0.106   2.442  16.408  0.3850  0.1064  1.9464
14773TIP3    H265735  -0.043   2.420  16.395  0.5100  0.9970 -3.4888
14774TIP3   OH265736   4.821   1.303   2.464 -0.5897  0.1666  0.2474
14774TIP3    H165737   4.784   1.227   2.417  2.5251  0.2017 -2.6182
14774TIP3    H265738   4.892   1.266   2.516  0.2816  0.9671 -0.3578
14775TIP3   OH265739   1.633   0.888  11.969 -0.5644 -0.1747  0.4370
14775TIP3    H165740   1.646   0.824  11.899 -2.2110 -0.7106  0.5720
14775TIP3    H265741   1.716   0.935  11.974 -0.0413 -0.8475 -1.1424
14776TIP3   OH265742   1.143   0.882  11.950  0.1450 -0.2360  0.1895
14776TIP3    H165743   1.164   0.805  11.898  1.3027  0.8104 -0.9542
14776TIP3    H265744   1.228   0.917  11.977 -0.4101 -0.1223  1.8599
14777TIP3   OH265745   5.823   5.640  14.857 -0.2497  0.1067 -0.2109
14777TIP3    H165746   5.917   5.623  14.856  0.1740  2.1554 -0.8125
14777TIP3    H265747   5.786   5.570  14.911  1.3985 -1.6776 -1.2540
14778TIP3   OH265748   3.796   2.699  16.398  0.1635 -0.4820  0.7964
14778TIP3    H165749   3.717   2.696  16.453  0.0400  2.5566  0.9431
14778TIP3    H265750   3.767   2.667  16.313 -0.5913 -1.6836  1.4738
14779TIP3   OH265751   5.467   6.306   1.916 -0.2509  0.2496 -0.4888
14779TIP3    H165752   5.487   6.292   1.823  0.5717  0.7727 -0.3915
14779TIP3    H265753   5.371   6.300   1.920 -0.2355 -0.8171 -1.1911
14780TIP3   OH265754   3.879   1.840   3.703 -0.2404 -0.7424  0.0844
14780TIP3    H165755   3.883   1.818   3.796 -1.4531  0.3206  0.4242
14780TIP3    H265756   3.968   1.826   3.671  1.6091  3.5350  2.5298
14781TIP3   OH265757   6.040   3.238   6.397 -0.7168 -0.0272 -0.4304
14781TIP3    H165758   5.967   3.184   6.427 -0.7975  0.6195  0.5671
14781TIP3    H265759   5.999   3.306   6.343 -0.7638 -0.1214 -0.5145
14782TIP3   OH265760   0.016   1.699   2.483  0.1765  0.3955 -0.0726
14782TIP3    H165761   0.084   1.676   2.420  0.4871 -0.8054  0.6539
14782TIP3    H265762  -0.056   1.734   2.431  0.1899 -1.1152 -1.1467
14783TIP3   OH265763   5.940   4.493   4.550 -0.4085 -0.2093 -0.6986
14783TIP3    H165764   5.849   4.523   4.551 -0.7646 -1.2585 -0.5647
14783TIP3    H265765   5.946   4.433   4.624  1.4610  2.7667  1.8074
14784TIP3   OH265766   1.597   5.655  11.793  0.3789 -0.1838 -0.4255
14784TIP3    H165767   1.631   5.717  11.729 -0.0340 -0.4213 -0.8800
14784TIP3    H265768   1.553   5.709  11.859  0.0701  0.0086 -0.7873
14785TIP3   OH265769   4.405   3.054   2.570 -0.7937  0.1178 -0.2128
14785TIP3    H165770   4.354   3.106   2.632 -0.8777  1.4475 -1.3416
14785TIP3    H265771   4.420   2.971   2.615 -2.4046  0.3553  0.8479
14786TIP3   OH265772   6.664   2.736   0.294 -0.5002 -0.1709 -0.0667
14786TIP3    H165773   6.671   2.642   0.278 -1.5830 -0.2450 -0.1455
14786TIP3    H265774   6.574   2.750   0.321 -0.6832  1.0096 -1.1918
14787TIP3   OH265775   6.293   3.291  14.221 -0.1448  0.4182  0.5579
14787TIP3    H165776   6.328   3.231  14.287 -0.6362  0.3598  0.7673
14787TIP3    H265777   6.208   3.253  14.197 -0.2361  0.7650  0.3330
14788TIP3   OH265778   0.050   3.682  12.940  0.0513  0.3186  0.2258
14788TIP3    H165779   0.088   3.715  12.858  2.2728  1.0959  1.5000
14788TIP3    H265780   0.082   3.592  12.947  0.5146  0.5158  0.6304
14789TIP3   OH265781   6.156   6.501   4.249  0.0736  0.1854 -0.2605
14789TIP3    H165782   6.140   6.577   4.305  1.1869  0.5453 -0.3985
14789TIP3    H265783   6.086   6.440   4.271 -0.7364  1.1728 -0.0129
14790TIP3   OH265784   2.316   5.184   6.760  0.1889 -0.2534 -0.3243
14790TIP3    H165785   2.370   5.121   6.712  0.0583  0.0424 -0.8651
14790TIP3    H265786   2.239   5.134   6.787  1.7517 -1.3037  2.4717
14791TIP3   OH265787   5.233   2.584  14.694 -0.4038 -0.2969 -0.1608
14791TIP3    H165788   5.299   2.608  14.758  0.9242 -2.5040 -0.5881
14791TIP3    H265789   5.262   2.499  14.660 -3.1087 -1.0474 -0.8674
14792TIP3   OH265790   0.468   0.245   6.059  0.3554  0.0577  0.3208
14792TIP3    H165791   0.425   0.222   5.976  2.9737  1.4831 -1.5806
14792TIP3    H265792   0.401   0.292   6.109 -0.9662  0.1586 -1.4591
14793TIP3   OH265793   2.440   3.909  15.451 -0.3940 -0.3505 -0.0295
14793TIP3    H165794   2.467   3.926  15.541 -0.1119  1.6276 -0.4600
14793TIP3    H265795   2.489   3.830  15.426 -1.1175 -1.4387  1.7868
14794TIP3   OH265796   3.152   6.227   5.917 -0.4672 -0.1345 -0.1437
14794TIP3    H165797   3.131   6.134   5.911  1.9756 -0.7359 -0.4808
14794TIP3    H265798   3.202   6.235   5.998 -0.5045  0.8636 -0.2092
14795TIP3   OH265799   6.587   0.220  14.222  0.4310 -0.2175 -0.1095
14795TIP3    H165800   6.643   0.233  14.299 -1.0038  0.2018  0.9098
14795TIP3    H265801   6.591   0.125  14.206 -0.2262 -0.5145  1.2967
14796TIP3   OH265802   3.924   5.050  10.637  0.4295 -0.6757 -0.2837
14796TIP3    H165803   4.019   5.050  10.651  0.5787 -0.6404 -1.2667
14796TIP3    H265804   3.906   5.131  10.591 -0.2797 -0.0118  1.1064
14797TIP3   OH265805   2.086   1.322  13.225 -0.6285  0.0508 -0.4925
14797TIP3    H165806   2.112   1.390  13.287  0.7945 -0.3034 -0.6638
14797TIP3    H265807   2.168   1.278  13.202 -1.6138 -2.3532  0.3169
14798TIP3   OH265808   6.409   6.647   0.903 -0.1987  0.1965  0.3142
14798TIP3    H165809   6.449   6.573   0.858  0.6648  1.2484 -0.7123
14798TIP3    H265810   6.324   6.658   0.861  0.1710  0.5211 -0.3717
14799TIP3   OH265811   5.675   1.044  14.673 -0.2113  0.1709 -0.3835
14799TIP3    H165812   5.678   1.139  14.663 -1.8119  0.0741 -2.4876
14799TIP3    H265813   5.587   1.020  14.647 -0.0341 -1.8622  0.7067
14800TIP3   OH265814   0.716   4.488  12.852 -0.1542 -0.5868  0.2306
14800TIP3    H165815   0.667   4.557  12.895 -0.6678 -0.0143 -1.2112
14800TIP3    H265816   0.807   4.502  12.879 -0.4048  0.0238  0.7615
14801TIP3   OH265817   4.381   2.911  14.224  0.1633  0.5005  0.0534
14801TIP3    H165818   4.446   2.857  14.270 -0.2942 -1.4949 -1.4784
14801TIP3    H265819   4.308   2.851  14.208  0.4027  0.9210 -3.4422
14802TIP3   OH265820   6.565   2.731  13.872 -0.3071 -0.2233  0.6280
14802TIP3    H165821   6.475   2.705  13.892 -0.4736 -1.5410 -1.4785
14802TIP3    H265822   6.616   2.702  13.947 -1.3948 -1.1902  1.0274
14803TIP3   OH265823   6.603   2.222   5.002 -0.3310 -0.5844  0.1465
14803TIP3    H165824   6.549   2.144   4.984 -0.3414 -0.8308  1.1938
14803TIP3    H265825   6.693   2.189   5.005 -0.0606 -0.1514 -1.7266
14804TIP3   OH265826   4.852   3.553  10.920  0.3608  0.1479  0.0121
14804TIP3    H165827   4.848   3.457  10.919  2.6238  0.0070 -0.5102
14804TIP3    H265828   4.774   3.580  10.871 -0.1576 -1.4340 -0.1129
14805TIP3   OH265829   3.756   5.844   6.031  0.1055 -0.5586 -0.3412
14805TIP3    H165830   3.759   5.836   5.936 -1.1054 -0.1538 -0.4210
14805TIP3    H265831   3.681   5.791   6.058  0.8077 -1.1808  0.4557
14806TIP3   OH265832   1.772   6.269   0.789  0.0768 -0.0779 -0.4518
14806TIP3    H165833   1.768   6.364   0.800 -0.9662 -0.2671  1.1661
14806TIP3    H265834   1.833   6.239   0.856 -1.4242 -0.7201  0.6924
14807TIP3   OH265835   4.759   3.906  12.295 -0.2566  0.2721  0.6467
14807TIP3    H165836   4.708   3.915  12.215  0.0338  0.8097  0.5180
14807TIP3    H265837   4.835   3.963  12.283  0.9747 -1.3205  0.3796
14808TIP3   OH265838   0.938   3.948  16.528  0.1047 -0.1486 -0.4287
14808TIP3    H165839   0.867   3.933  16.590 -0.4664  2.1425 -0.4270
14808TIP3    H265840   1.005   3.993  16.579 -0.0849  1.1453 -1.2845
14809TIP3   OH265841   3.644   4.721  14.511 -0.4868  0.1188  0.1998
14809TIP3    H165842   3.644   4.776  14.590  1.3289  0.4366  0.0326
14809TIP3    H265843   3.639   4.631  14.545  0.1647  0.2563  0.6857
14810TIP3   OH265844   1.881   5.653   2.493 -0.1717 -0.2324  0.1227
14810TIP3    H165845   1.958   5.703   2.519 -0.0741 -0.6728  0.7135
14810TIP3    H265846   1.916   5.568   2.465 -0.2889  0.1807 -1.3494
14811TIP3   OH265847   3.655   6.279   0.417 -0.2625 -0.1206  0.4376
14811TIP3    H165848   3.713   6.204   0.407 -1.3778 -0.9712  0.1112
14811TIP3    H265849   3.713   6.353   0.431  0.8435 -1.2411  2.1023
14812TIP3   OH265850   0.667   6.254  17.294 -0.1547 -0.1753 -0.0501
14812TIP3    H165851   0.624   6.272  17.377 -1.9458  0.3774 -1.0495
14812TIP3    H265852   0.687   6.340  17.258  0.7119 -0.4115 -0.1516
14813TIP3   OH265853   1.559   6.457  11.126 -0.5874  0.4398  0.2256
14813TIP3    H165854   1.637   6.425  11.081 -0.0353  1.3666  0.5001
14813TIP3    H265855   1.524   6.526  11.069 -1.6876 -0.5207 -0.2974
14814TIP3   OH265856   6.303   2.443   0.723 -0.6541 -0.3979  0.3695
14814TIP3    H165857   6.341   2.358   0.745 -0.0904 -0.6908 -1.5866
14814TIP3    H265858   6.376   2.505   0.732 -0.6271 -0.3918  0.1047
14815TIP3   OH265859   4.738   3.412   5.851 -0.6109  0.6880 -0.4546
14815TIP3    H165860   4.669   3.350   5.877 -0.6296 -0.1849 -2.4063
14815TIP3    H265861   4.695   3.497   5.850 -0.6500  0.7907  2.0380
14816TIP3   OH265862   1.294   4.293  17.068 -0.4037 -0.1057 -0.4216
14816TIP3    H165863   1.310   4.218  17.010 -0.3927 -0.9135  0.5944
14816TIP3    H265864   1.377   4.308  17.112 -0.0940  1.2317 -1.4102
14817TIP3   OH265865   6.221   5.679  10.993 -0.3818  0.3428  0.6001
14817TIP3    H165866   6.283   5.683  10.920 -0.4015 -2.4319  0.3029
14817TIP3    H265867   6.135   5.673  10.951 -0.4279 -0.7688  0.8126
14818TIP3   OH265868   4.271   4.619  16.748  0.6383 -0.4765 -0.0382
14818TIP3    H165869   4.270   4.620  16.653  0.4601  1.0477 -0.0479
14818TIP3    H265870   4.285   4.711  16.773  1.4592 -0.9547  1.3940
14819TIP3   OH265871   6.288   1.102   5.303 -0.6157  0.2059 -0.1681
14819TIP3    H165872   6.258   1.193   5.305  2.1049  1.2182  2.6573
14819TIP3    H265873   6.224   1.054   5.355 -1.0711  0.9103 -0.0646
14820TIP3   OH265874   0.969   5.188   3.924 -0.3027  0.0390  0.1534
14820TIP3    H165875   1.007   5.107   3.957 -0.8841  0.8195  3.0222
14820TIP3    H265876   0.879   5.166   3.902 -0.6296 -0.0134  1.4731
14821TIP3   OH265877   3.737   3.800   1.355 -0.3930  0.4409  0.2501
14821TIP3    H165878   3.780   3.814   1.271 -2.2173  0.0560 -0.8042
14821TIP3    H265879   3.698   3.713   1.348 -0.9920  0.6030  1.3170
14822TIP3   OH265880   5.317   3.668  11.079  0.4951 -1.0754  0.2518
14822TIP3    H165881   5.252   3.607  11.042 -0.0286 -0.0059 -0.6567
14822TIP3    H265882   5.278   3.755  11.066  0.6635 -0.5668  2.6191
14823TIP3   OH265883   1.588   1.691  13.234 -0.5247 -0.4583 -0.1950
14823TIP3    H165884   1.654   1.756  13.258 -1.2658  0.3580 -0.3136
14823TIP3    H265885   1.606   1.672  13.142 -1.3813  0.9225 -0.6776
14824TIP3   OH265886   6.186   1.773  14.361  0.2907 -0.3868  0.7889
14824TIP3    H165887   6.188   1.705  14.428  4.1582 -1.4167 -0.0895
14824TIP3    H265888   6.217   1.852  14.405  2.2465 -0.9221  0.5045
14825TIP3   OH265889   2.756   1.942  15.239  0.3501  0.3095  0.0213
14825TIP3    H165890   2.708   1.867  15.202 -1.2226  1.2398  0.0966
14825TIP3    H265891   2.797   1.984  15.163  0.0077  0.2221 -0.2155
14826TIP3   OH265892   5.265   3.119   1.114 -0.5745 -0.4342 -0.5794
14826TIP3    H165893   5.340   3.060   1.124 -0.8975 -0.6893  0.4643
14826TIP3    H265894   5.213   3.079   1.044 -1.1625 -1.8386  0.5991
14827TIP3   OH265895   6.580   2.629  16.088 -0.0882  0.2589 -0.3918
14827TIP3    H165896   6.574   2.658  16.179  0.8631 -0.5031 -0.0659
14827TIP3    H265897   6.535   2.544  16.087 -1.3190  0.8928 -0.9527
14828TIP3   OH265898   6.314   0.626  16.538 -0.0347  0.5152 -0.4967
14828TIP3    H165899   6.321   0.598  16.629  0.0143  0.6922 -0.4454
14828TIP3    H265900   6.269   0.554  16.494 -0.8206  0.7924 -0.1611
14829TIP3   OH265901   3.157   4.005  16.557 -0.2116  0.1636 -0.0695
14829TIP3    H165902   3.125   4.019  16.468  3.2400 -0.8332 -1.6579
14829TIP3    H265903   3.124   3.919  16.582 -0.1311 -0.1337 -0.9686
14830TIP3   OH265904   1.801   6.465  13.396 -0.2944  0.1111  0.2943
14830TIP3    H165905   1.748   6.506  13.327  0.2987  0.3661 -0.0220
14830TIP3    H265906   1.772   6.507  13.477 -1.1064 -0.2996  0.2223
14831TIP3   OH265907   0.461   4.750   3.064 -0.3423  0.5664 -0.4680
14831TIP3    H165908   0.505   4.834   3.081  3.2038 -1.3450  1.0116
14831TIP3    H265909   0.448   4.749   2.969  2.1266  1.7188 -0.9044
14832TIP3   OH265910   4.921   6.072   3.890  0.3964  0.1670  0.7972
14832TIP3    H165911   4.963   6.035   3.813  0.7383  2.2351 -0.0851
14832TIP3    H265912   4.928   6.004   3.957  1.4968 -1.0820 -0.5330
14833TIP3   OH265913   2.037   1.031  10.854  0.2327 -0.2477 -0.0536
14833TIP3    H165914   1.943   1.013  10.857  0.6903 -3.0384  0.9234
14833TIP3    H265915   2.053   1.058  10.764 -1.6731  1.6816  0.1159
14834TIP3   OH265916   3.758   3.532   4.199 -0.3052 -0.1269  0.9420
14834TIP3    H165917   3.789   3.621   4.217  0.6965 -0.3999  0.6411
14834TIP3    H265918   3.719   3.503   4.282 -0.2181  0.4214  1.1802
14835TIP3   OH265919   4.688   5.204  11.297  0.2176  0.1396  0.2760
14835TIP3    H165920   4.669   5.238  11.210 -0.5671 -2.3000 -0.5767
14835TIP3    H265921   4.759   5.141  11.284 -1.9126 -2.5798  0.7453
14836TIP3   OH265922   4.167   1.248  12.564  0.3863  0.1122  0.2142
14836TIP3    H165923   4.191   1.247  12.471  1.3768  0.8654  0.4448
14836TIP3    H265924   4.186   1.160  12.595  1.3500  0.2327  0.0042
14837TIP3   OH265925   6.492   5.308  12.836 -0.3128  0.6077  0.3014
14837TIP3    H165926   6.540   5.263  12.766 -1.3772  0.5959 -0.4490
14837TIP3    H265927   6.552   5.307  12.910 -0.4260 -2.4808  0.4900
14838TIP3   OH265928   2.515   1.876  15.479 -1.2324 -0.0158  0.1324
14838TIP3    H165929   2.509   1.792  15.526  2.1473 -0.9325 -0.8575
14838TIP3    H265930   2.602   1.909  15.499 -1.1546  1.5072 -2.3240
14839TIP3   OH265931   6.421   6.718   4.575 -0.1464 -0.1440 -0.4827
14839TIP3    H165932   6.349   6.741   4.634 -0.1318  0.6983 -0.7675
14839TIP3    H265933   6.485   6.675   4.630 -1.0113 -1.2333 -0.2885
14840TIP3   OH265934   5.603   3.654  16.464  0.3938 -0.0564  0.5652
14840TIP3    H165935   5.613   3.749  16.459  1.1566 -0.0510  1.8131
14840TIP3    H265936   5.691   3.619  16.450  0.4404 -0.4809  1.7907
14841TIP3   OH265937   6.115   6.084  10.815 -0.0530  0.7640 -0.7729
14841TIP3    H165938   6.161   6.023  10.872  0.7427  3.6194  1.8963
14841TIP3    H265939   6.039   6.034  10.784  0.1038 -1.3577  1.8503
14842TIP3   OH265940   0.212   2.530   5.471  0.2578  0.2754 -0.0149
14842TIP3    H165941   0.272   2.604   5.483  0.3938 -0.0490  1.4553
14842TIP3    H265942   0.247   2.461   5.527 -0.5797 -0.4818 -0.3983
14843TIP3   OH265943   0.699   3.329  11.086 -0.0505  0.4316  0.1005
14843TIP3    H165944   0.779   3.276  11.081 -0.0625  0.4149  0.0878
14843TIP3    H265945   0.636   3.282  11.031 -0.8216 -0.8598  2.0066
14844TIP3   OH265946   6.319   1.570   5.934  0.6041  0.0597  0.4445
14844TIP3    H165947   6.311   1.477   5.954  0.7310 -0.2264 -0.7198
14844TIP3    H265948   6.366   1.571   5.850 -0.8393  1.1077 -0.3746
14845TIP3   OH265949   4.558   0.597   0.795  0.2375 -0.0877 -0.2767
14845TIP3    H165950   4.466   0.617   0.782  0.0858  0.3338  1.2713
14845TIP3    H265951   4.560   0.542   0.873  1.3322  0.3420  0.0210
14846TIP3   OH265952   6.415   4.223  16.749  0.7907 -0.3718 -0.0237
14846TIP3    H165953   6.391   4.276  16.825  1.3804 -1.6926  1.1434
14846TIP3    H265954   6.413   4.133  16.782  1.4234 -0.9472 -1.4841
14847TIP3   OH265955   2.009   5.403   6.071 -0.2723 -0.3199 -0.0549
14847TIP3    H165956   1.932   5.402   6.127  0.3925 -1.3597  0.8863
14847TIP3    H265957   1.986   5.461   5.998 -2.2665 -1.3089 -0.2659
14848TIP3   OH265958   6.341   2.574  11.954  0.1524  0.1973  0.6474
14848TIP3    H165959   6.359   2.480  11.959  0.0608  0.1983  1.0403
14848TIP3    H265960   6.252   2.584  11.988 -0.7244  0.1696 -1.4789
14849TIP3   OH265961   3.794   1.833  17.359 -0.1406 -0.1185 -0.5093
14849TIP3    H165962   3.861   1.892  17.322 -0.0265 -0.3299 -0.6449
14849TIP3    H265963   3.827   1.745  17.339 -0.4568 -0.2231 -0.5684
14850TIP3   OH265964   6.446   4.677  13.724  0.7414  0.0398  0.0540
14850TIP3    H165965   6.509   4.614  13.687  0.2040 -1.0492  0.9418
14850TIP3    H265966   6.439   4.745  13.657  2.0873 -0.3298 -0.5085
14851TIP3   OH265967   0.473   6.263  10.935 -0.1487  0.4845  0.5020
14851TIP3    H165968   0.553   6.213  10.922 -0.0908  0.8312 -0.6207
14851TIP3    H265969   0.407   6.217  10.882 -0.8546 -0.1281  1.8592
14852TIP3   OH265970   1.393   3.521  17.017  0.0628  0.6536 -0.1623
14852TIP3    H165971   1.338   3.565  17.083  1.4839 -0.4036  1.8271
14852TIP3    H265972   1.477   3.565  17.022  1.8142 -2.5284  2.4737
14853TIP3   OH265973   5.237   4.897  13.374  0.2060 -0.2464  0.1693
14853TIP3    H165974   5.219   4.812  13.333 -1.2075 -0.3670  0.9602
14853TIP3    H265975   5.259   4.954  13.301  1.0094 -1.2401 -0.3927
14854TIP3   OH265976   5.428   5.439  11.697  0.3274  0.3208  0.5929
14854TIP3    H165977   5.371   5.468  11.626 -1.4423  0.2630  1.9047
14854TIP3    H265978   5.392   5.482  11.775  1.3410 -0.6955  1.6640
14855TIP3   OH265979   2.023   1.648   3.321  0.5183  0.3626 -0.3334
14855TIP3    H165980   2.118   1.641   3.331  0.2982 -1.0668  1.0801
14855TIP3    H265981   1.995   1.697   3.398 -0.2461 -2.6447  1.4460
14856TIP3   OH265982   1.447   0.058   2.121 -0.9203 -0.2566  1.0000
14856TIP3    H165983   1.514   0.048   2.189 -0.1131  1.3621  0.5121
14856TIP3    H265984   1.469  -0.009   2.056 -2.1550 -2.3274  2.6070
14857TIP3   OH265985   2.195   0.084   1.163  0.6225  0.1865  0.4472
14857TIP3    H165986   2.225   0.013   1.106  2.3361 -0.3439  1.9138
14857TIP3    H265987   2.128   0.045   1.218 -0.3275  0.4387 -0.5072
14858TIP3   OH265988   6.379   4.045   5.146 -0.0976 -0.2278 -0.9719
14858TIP3    H165989   6.422   3.964   5.116 -0.8672 -0.9032 -0.3097
14858TIP3    H265990   6.368   4.033   5.240  0.7758  1.1512 -0.6817
14859TIP3   OH265991   1.099   2.817  15.583 -0.0936 -0.1391 -0.5195
14859TIP3    H165992   1.110   2.792  15.491 -1.4917 -0.1854 -0.6981
14859TIP3    H265993   1.013   2.781  15.607  0.6326 -0.9085  1.0752
14860TIP3   OH265994   5.533   1.431   3.170 -0.5723 -0.4356 -0.1841
14860TIP3    H165995   5.502   1.346   3.202 -0.4448 -0.3546  0.1625
14860TIP3    H265996   5.483   1.445   3.089 -1.0580 -0.5493  0.0883
14861TIP3   OH265997   3.026   3.756   3.319 -0.2530  0.0853 -0.2945
14861TIP3    H165998   2.962   3.785   3.253  0.3200  0.3832 -0.7319
14861TIP3    H265999   3.095   3.714   3.268  0.4803  0.8279  0.0610
14862TIP3   OH266000   0.581   1.309  12.481  0.4310 -0.0179 -0.0611
14862TIP3    H166001   0.591   1.278  12.391  2.0146  2.1587 -0.7107
14862TIP3    H266002   0.668   1.342  12.505 -0.3461  0.8685  1.7220
14863TIP3   OH266003   0.729   4.042  12.312  0.6416 -0.2899  0.1218
14863TIP3    H166004   0.661   3.977  12.294  0.7746 -0.8273  1.4432
14863TIP3    H266005   0.753   4.076  12.226  0.8726 -2.3085 -0.6724
14864TIP3   OH266006   5.799   1.394  12.253  0.1014  0.5372 -0.4751
14864TIP3    H166007   5.860   1.459  12.290  0.6890  0.5371 -1.4166
14864TIP3    H266008   5.803   1.321  12.315  2.8316 -0.4234 -1.6166
14865TIP3   OH266009   3.063   3.272  14.435 -0.0190  0.3743  0.8843
14865TIP3    H166010   3.078   3.216  14.511 -1.3370  0.9438  1.5877
14865TIP3    H266011   3.004   3.340  14.466  0.4242  1.3555 -0.3290
14866TIP3   OH266012   6.715   6.000  11.709 -0.8453  0.4702 -0.7695
14866TIP3    H166013   6.628   5.998  11.669 -0.8888 -3.0709 -0.8657
14866TIP3    H266014   6.772   5.957  11.645  0.3772  0.2339  0.4202
14867TIP3   OH266015   5.134   2.197   5.675  0.2875  0.4276 -0.1320
14867TIP3    H166016   5.198   2.187   5.745  1.0827  0.5652 -0.8172
14867TIP3    H266017   5.160   2.279   5.631 -2.6302  2.6496  1.8943
14868TIP3   OH266018   5.395   0.123  14.236  0.3339 -0.5267  0.1436
14868TIP3    H166019   5.473   0.168  14.203 -0.3014 -0.3115 -1.1201
14868TIP3    H266020   5.322   0.176  14.204 -0.3563  0.6143  3.2261
14869TIP3   OH266021   5.357   2.164   1.050 -0.1701 -0.0247  0.5224
14869TIP3    H166022   5.428   2.202   1.101 -0.6536  2.0159 -0.1932
14869TIP3    H266023   5.279   2.173   1.106 -0.5675  1.5580 -0.2149
14870TIP3   OH266024   2.930   2.820   2.299 -0.7764 -0.5242  0.6624
14870TIP3    H166025   2.855   2.766   2.271  0.3975 -1.0925 -1.6569
14870TIP3    H266026   2.975   2.767   2.364  0.5365 -2.6483 -1.8040
14871TIP3   OH266027   6.487   5.058  11.987 -0.1466  0.4482  0.3742
14871TIP3    H166028   6.416   5.043  12.050 -0.2502 -0.1230  0.1283
14871TIP3    H266029   6.444   5.098  11.911 -1.0146 -3.4395 -1.4402
14872TIP3   OH266030   3.808   6.070  16.652 -0.1569 -0.6596 -0.2250
14872TIP3    H166031   3.772   6.138  16.597  0.0989 -0.1773  0.1966
14872TIP3    H266032   3.760   5.991  16.628 -1.7671  0.0389  0.6145
14873TIP3   OH266033   4.280   3.164  12.171 -0.0639 -0.0544 -0.2217
14873TIP3    H166034   4.279   3.259  12.176  0.3367 -0.0482 -0.2997
14873TIP3    H266035   4.282   3.136  12.263 -0.6598  0.0010 -0.1823
14874TIP3   OH266036   5.017   6.019  11.471 -0.0899 -0.4115 -0.7114
14874TIP3    H166037   5.045   6.024  11.563 -0.6431  1.4714 -0.5866
14874TIP3    H266038   5.068   6.088  11.427 -0.6287 -0.5585 -1.5820
14875TIP3   OH266039   2.202   6.360   4.010  0.4466 -0.2685 -0.1497
14875TIP3    H166040   2.252   6.319   3.939  0.1472 -0.6808 -0.1260
14875TIP3    H266041   2.230   6.452   4.009  2.6465 -0.8456  1.0822
14876TIP3   OH266042   6.772   3.595   1.969  0.0711 -0.2535 -0.3505
14876TIP3    H166043   6.812   3.677   1.939 -0.1009 -0.2743 -0.6332
14876TIP3    H266044   6.681   3.617   1.987 -0.2003 -0.5889 -1.2858
14877TIP3   OH266045   6.632   1.931   1.875  0.4356  0.2793 -0.5380
14877TIP3    H166046   6.573   1.983   1.820  0.1426  0.5666  0.0296
14877TIP3    H266047   6.585   1.923   1.958  1.6546  1.4468  0.3012
14878TIP3   OH266048   1.997   1.658  10.896 -0.4663 -0.2831 -0.1573
14878TIP3    H166049   1.959   1.731  10.847  1.3262 -0.3980 -1.8489
14878TIP3    H266050   2.090   1.678  10.900 -0.0535 -2.0836  0.0856
14879TIP3   OH266051   6.010   0.490   2.280  0.2354 -0.2184  0.3512
14879TIP3    H166052   6.068   0.460   2.350  2.1350 -0.2370 -1.1399
14879TIP3    H266053   6.057   0.469   2.199 -0.7799  1.9113 -0.8813
14880TIP3   OH266054   5.503   3.122  11.391 -0.3531  0.3553 -0.8991
14880TIP3    H166055   5.474   3.115  11.299 -0.9082  0.1469 -0.7165
14880TIP3    H266056   5.421   3.122  11.441 -0.0319 -0.8831 -0.3166
14881TIP3   OH266057   0.451   4.562  16.332  0.3083 -0.4390 -0.3913
14881TIP3    H166058   0.407   4.477  16.334 -0.5412 -0.0186  1.5131
14881TIP3    H266059   0.394   4.616  16.278  0.4377 -0.8676 -0.9655
14882TIP3   OH266060   2.267   0.559  15.960 -0.6394  0.3004 -0.0996
14882TIP3    H166061   2.352   0.560  16.004 -0.7465 -3.0533  0.4124
14882TIP3    H266062   2.219   0.633  15.999  1.0476  0.5113  1.6922
14883TIP3   OH266063   5.332   2.050  12.035 -0.1315 -0.4105 -0.5953
14883TIP3    H166064   5.353   2.133  11.992 -0.5129  0.1997  0.3511
14883TIP3    H266065   5.416   2.009  12.052  0.3518  1.3278  1.8614
14884TIP3   OH266066   6.115   0.502  14.638  0.5822 -0.4540 -0.3607
14884TIP3    H166067   6.205   0.513  14.669  1.3596 -0.1777 -2.5603
14884TIP3    H266068   6.105   0.568  14.570 -1.9982  0.8656  1.1419
14885TIP3   OH266069   1.303   1.459   5.810  0.4949 -0.4113  0.0567
14885TIP3    H166070   1.380   1.492   5.856 -0.1641 -0.2363  1.0601
14885TIP3    H266071   1.249   1.419   5.878 -0.3715 -0.4131 -0.6095
14886TIP3   OH266072   2.681   1.398  16.994  0.0670  0.5520 -0.0868
14886TIP3    H166073   2.698   1.486  16.961  2.0123 -0.1931 -1.2308
14886TIP3    H266074   2.617   1.410  17.063  0.0774  2.8330 -0.4174
14887TIP3   OH266075   3.177   4.994  15.150 -0.1309 -0.1855 -0.0614
14887TIP3    H166076   3.215   5.005  15.063  0.1283 -3.3188 -0.4634
14887TIP3    H266077   3.083   4.987  15.135 -0.2697  1.0107  0.1579
14888TIP3   OH266078   3.202   6.389   0.086  0.3723 -0.5205 -0.0872
14888TIP3    H166079   3.118   6.431   0.066  0.9181  0.7579  0.1895
14888TIP3    H266080   3.238   6.441   0.157  2.0281 -0.1748 -1.1325
14889TIP3   OH266081   3.807   3.795   4.266  0.5384  0.2122 -0.0913
14889TIP3    H166082   3.855   3.860   4.216 -0.0886  0.1484 -0.7862
14889TIP3    H266083   3.715   3.818   4.254  0.2573 -1.3692 -1.1518
14890TIP3   OH266084   2.695   4.390   4.712  0.4006  0.2350  0.2021
14890TIP3    H166085   2.724   4.479   4.689  0.1828  0.2890  0.1335
14890TIP3    H266086   2.608   4.402   4.749  0.6682  0.1248  0.8834
14891TIP3   OH266087   3.953   3.033  11.856  0.3120 -0.4091 -0.9206
14891TIP3    H166088   3.973   2.942  11.876  0.6996 -0.2339 -0.4898
14891TIP3    H266089   3.933   3.073  11.941 -3.4882 -0.9224 -1.4106
14892TIP3   OH266090   6.382   5.067   1.626  0.1465 -0.3350  0.9144
14892TIP3    H166091   6.417   5.127   1.691 -3.5017  1.8068  1.1587
14892TIP3    H266092   6.382   4.982   1.669  3.1579 -0.1424  1.4672
14893TIP3   OH266093   5.842   3.614   4.095 -0.0286  0.4931 -0.2495
14893TIP3    H166094   5.778   3.646   4.159 -1.1987  0.5080 -1.3917
14893TIP3    H266095   5.858   3.688   4.037  0.3546  0.2178 -0.5045
14894TIP3   OH266096   1.188   5.719   4.566 -0.0742  0.5766 -0.2410
14894TIP3    H166097   1.262   5.709   4.627 -0.3033  0.1470 -0.0275
14894TIP3    H266098   1.130   5.646   4.588  1.1716 -1.3695 -2.8725
14895TIP3   OH266099   5.462   0.368   6.028  0.2298  0.2351  0.3521
14895TIP3    H166100   5.458   0.429   5.954  0.1451 -1.3591 -0.9985
14895TIP3    H266101   5.373   0.336   6.038  0.4395 -0.3190  0.4729
14896TIP3   OH266102   5.008   3.307   3.041  0.2875  0.2228 -0.1802
14896TIP3    H166103   4.928   3.268   3.006  0.6998  0.6073 -1.6043
14896TIP3    H266104   5.075   3.239   3.029  0.3999  0.2936  0.0318
14897TIP3   OH266105   1.305   5.228   5.133  0.3920  0.6469  0.4912
14897TIP3    H166106   1.289   5.209   5.225  1.2374  2.4891  1.0739
14897TIP3    H266107   1.222   5.210   5.090  0.0323 -0.4192  1.5651
14898TIP3   OH266108   6.643   1.694  16.462 -0.2993  0.4601 -0.3688
14898TIP3    H166109   6.637   1.650  16.547 -1.3389  1.4286  0.0958
14898TIP3    H266110   6.554   1.693  16.428 -0.4013  2.3163 -0.2531
14899TIP3   OH266111   0.148   4.974   1.074 -0.2283 -0.1698 -0.2055
14899TIP3    H166112   0.193   5.004   1.153  0.0215 -0.8218 -0.0972
14899TIP3    H266113   0.158   5.046   1.012  0.3970 -0.0410  0.0385
14900TIP3   OH266114   3.244   0.886   0.625 -0.5230  0.1633 -0.5973
14900TIP3    H166115   3.296   0.960   0.593 -1.7205  1.4567  0.3417
14900TIP3    H266116   3.153   0.914   0.614 -1.0219 -1.4796 -0.8726
14901TIP3   OH266117   3.158   4.287  16.637  0.2460  0.8325  0.0326
14901TIP3    H166118   3.143   4.200  16.601  0.2212  0.3460  1.1715
14901TIP3    H266119   3.209   4.272  16.716  1.5095  1.9754 -0.5169
14902TIP3   OH266120   4.328   6.260  17.324  0.0844 -0.1742  0.4737
14902TIP3    H166121   4.397   6.194  17.314  0.0650  0.1599 -3.0997
14902TIP3    H266122   4.260   6.234  17.263 -0.8342  2.0840  0.4233
14903TIP3   OH266123   1.316   3.822   6.092  0.1915  0.0652  0.1856
14903TIP3    H166124   1.349   3.827   6.182 -0.4184  1.3426  0.3512
14903TIP3    H266125   1.230   3.782   6.101 -0.7002  1.9403  0.4246
14904TIP3   OH266126   5.767   0.391   0.989 -0.2877  0.3522 -0.3689
14904TIP3    H166127   5.833   0.443   0.943 -0.3561  0.4466 -0.3620
14904TIP3    H266128   5.779   0.302   0.955 -1.1898  0.6503 -1.5485
14905TIP3   OH266129   2.369   2.677   5.717 -0.4775  0.4618  0.5593
14905TIP3    H166130   2.282   2.668   5.678 -0.5461  0.6783  0.6614
14905TIP3    H266131   2.430   2.655   5.646 -0.5800  1.6905  0.0721
14906TIP3   OH266132   6.613   5.676  14.766 -0.0415 -0.1267  0.1678
14906TIP3    H166133   6.554   5.723  14.824 -0.9873 -0.5910 -0.3933
14906TIP3    H266134   6.604   5.584  14.792  1.2044 -0.1081  0.7405
14907TIP3   OH266135   2.450   5.628   5.530 -0.2752  0.9330 -0.5865
14907TIP3    H166136   2.386   5.580   5.583 -0.0692  0.6313 -0.6074
14907TIP3    H266137   2.462   5.574   5.452 -0.1013  1.0606 -0.6492
14908TIP3   OH266138   2.947   2.144  11.102 -0.0261  0.5029  0.3467
14908TIP3    H166139   2.985   2.056  11.102  0.6503  0.7791 -0.5369
14908TIP3    H266140   3.019   2.200  11.132  0.5874  1.1399 -2.0941
14909TIP3   OH266141   6.653   1.641  15.943  0.0015  0.5807  0.1362
14909TIP3    H166142   6.688   1.716  15.992  0.1349  0.7999 -0.2848
14909TIP3    H266143   6.559   1.644  15.960  0.1716 -0.0190  1.2792
14910TIP3   OH266144   5.658   2.397   5.053  0.6678  0.1926 -0.0221
14910TIP3    H166145   5.632   2.365   5.139 -0.5837 -0.2318 -0.5374
14910TIP3    H266146   5.726   2.336   5.024  0.1909 -0.4285  0.1399
14911TIP3   OH266147   1.095   1.738   2.474  0.1064 -0.0711  0.2650
14911TIP3    H166148   1.073   1.795   2.400 -1.0274 -0.0881  0.5772
14911TIP3    H266149   1.138   1.797   2.536 -0.4388  0.3148  0.2898
14912TIP3   OH266150   3.692   4.245   2.307 -0.0158  0.2873 -0.0192
14912TIP3    H166151   3.768   4.287   2.347  0.2908  1.3079 -1.5914
14912TIP3    H266152   3.703   4.260   2.213 -1.6218 -0.4823 -0.3619
14913TIP3   OH266153   6.367   4.450  12.812  0.1813 -0.8661  0.4486
14913TIP3    H166154   6.456   4.455  12.845  0.1024 -1.4395  0.7647
14913TIP3    H266155   6.367   4.374  12.754  0.3419  0.1761 -0.9798
14914TIP3   OH266156   0.183   4.951   4.622 -0.3188  0.5780 -0.2248
14914TIP3    H166157   0.139   4.866   4.625 -0.9347  0.8718 -0.6998
14914TIP3    H266158   0.252   4.939   4.556 -1.8596  1.0909 -2.0137
14915TIP3   OH266159   5.890   2.097   2.296  0.3453 -0.2924  0.5903
14915TIP3    H166160   5.824   2.138   2.240  0.1881  0.0066  0.9883
14915TIP3    H266161   5.921   2.168   2.352  1.8292 -0.1457 -0.3457
14916TIP3   OH266162   1.281   2.053  13.660 -0.7564 -0.7858 -0.1870
14916TIP3    H166163   1.343   2.059  13.732 -1.1919  1.0567  0.0811
14916TIP3    H266164   1.281   1.961  13.636  1.6636 -0.9371  0.1682
14917TIP3   OH266165   2.305   4.289   1.244  0.4890 -0.2443 -0.0605
14917TIP3    H166166   2.339   4.239   1.170 -1.1363  1.8807 -2.3577
14917TIP3    H266167   2.383   4.311   1.295  1.6873 -1.4965 -1.2597
14918TIP3   OH266168   5.424   0.603   1.292  0.6529  0.1568  0.5638
14918TIP3    H166169   5.387   0.657   1.222  2.8422 -2.9701 -3.4005
14918TIP3    H266170   5.347   0.572   1.342 -1.4517 -0.0943 -2.5695
14919TIP3   OH266171   3.514   6.113  13.769  0.0743  0.3491 -0.3268
14919TIP3    H166172   3.477   6.041  13.821  0.0681 -0.5291 -1.5307
14919TIP3    H266173   3.608   6.100  13.773  0.0457 -0.0656 -1.0340
14920TIP3   OH266174   0.411   5.311   0.149 -0.5355  0.4204 -0.1986
14920TIP3    H166175   0.338   5.293   0.208  0.6748  0.4166  1.3740
14920TIP3    H266176   0.440   5.399   0.173  0.5340  0.0716 -0.1455
14921TIP3   OH266177   1.563   0.360  14.530  0.0313  0.0426 -0.2520
14921TIP3    H166178   1.621   0.330  14.459 -0.7272  0.1882 -0.9484
14921TIP3    H266179   1.578   0.455  14.535 -0.2348  0.0985 -0.5139
14922TIP3   OH266180   0.432   6.755   4.136  0.0342 -0.4605  0.4535
14922TIP3    H166181   0.428   6.680   4.196  0.0816 -0.7162  0.1372
14922TIP3    H266182   0.426   6.831   4.194  3.2240 -0.5958  1.1577
14923TIP3   OH266183   4.923   4.043  12.028  0.5618 -0.1796  0.1462
14923TIP3    H166184   5.013   4.063  11.999  0.7354 -0.2690  0.6123
14923TIP3    H266185   4.879   4.128  12.030  0.6082 -0.1469 -0.1748
14924TIP3   OH266186   4.870   4.280  17.154  0.1804  0.5091 -0.1514
14924TIP3    H166187   4.868   4.291  17.249  0.9136  0.4053 -0.1230
14924TIP3    H266188   4.780   4.297  17.126  0.0640  1.0000  0.5099
14925TIP3   OH266189   3.924   3.901   1.514  0.7242  0.2901 -0.0161
14925TIP3    H166190   3.853   3.841   1.492 -0.9662  1.6244  1.4477
14925TIP3    H266191   3.898   3.984   1.475  0.9297  1.0590  1.4063
14926TIP3   OH266192   1.752   4.814  11.367  0.2313 -0.5027 -0.0580
14926TIP3    H166193   1.726   4.771  11.449  1.2196 -1.6700 -0.3189
14926TIP3    H266194   1.706   4.764  11.299 -0.2474  0.1876 -0.2452
14927TIP3   OH266195   3.455   4.045  16.493 -0.2348 -1.0050 -0.4127
14927TIP3    H166196   3.522   4.027  16.428  2.5336  1.6857  1.4179
14927TIP3    H266197   3.385   4.090  16.444  0.0536 -2.2633 -2.0637
14928TIP3   OH266198   4.744   2.711   4.579  0.2772 -0.7622 -0.1839
14928TIP3    H166199   4.805   2.780   4.554 -1.8896  1.5928  0.5627
14928TIP3    H266200   4.715   2.673   4.496  1.7949 -1.1242 -0.5834
14929TIP3   OH266201   4.997   0.273  14.707  0.0723  0.0373 -0.5547
14929TIP3    H166202   5.041   0.189  14.715  0.1577  0.1339  0.0195
14929TIP3    H266203   5.056   0.326  14.654 -0.3942 -0.5391 -1.6957
14930TIP3   OH266204   3.431   0.390  16.447  0.4720  0.4932  0.4536
14930TIP3    H166205   3.469   0.461  16.396  0.4776  0.3963  0.3222
14930TIP3    H266206   3.487   0.383  16.524  0.4121  0.6966  0.5155
14931TIP3   OH266207   4.921   4.312   5.718  0.0052  0.3517 -0.6868
14931TIP3    H166208   4.965   4.396   5.730 -1.8969  1.5097 -1.3303
14931TIP3    H266209   4.833   4.335   5.687 -1.9411 -1.6749  2.7491
14932TIP3   OH266210   2.912   1.290   1.944  0.6171  0.3609  0.3411
14932TIP3    H166211   2.853   1.226   1.985  0.5800 -0.3398 -0.7556
14932TIP3    H266212   2.984   1.237   1.910  0.5236  0.8850 -0.6985
14933TIP3   OH266213   3.896   1.611  16.435  0.3220 -0.3958  0.3201
14933TIP3    H166214   3.915   1.523  16.404 -0.3997 -0.3434 -0.2896
14933TIP3    H266215   3.904   1.605  16.530 -0.6244 -1.3444  0.3529
14934TIP3   OH266216   5.036   1.970   0.798 -0.4175  0.6856  0.2673
14934TIP3    H166217   5.120   1.977   0.752  0.0995  0.9045  1.2011
14934TIP3    H266218   4.999   2.058   0.796 -0.0586  0.8594  0.8555
14935TIP3   OH266219   2.000   0.085   4.414 -0.3910 -0.4313 -0.0364
14935TIP3    H166220   2.046   0.030   4.478  0.2174 -0.6194 -0.6274
14935TIP3    H266221   2.069   0.135   4.371 -0.9691  1.1280  0.7747
14936TIP3   OH266222   3.286   0.393   4.637  0.0403  0.3328 -0.3757
14936TIP3    H166223   3.358   0.441   4.677 -0.7413 -0.4468  2.1088
14936TIP3    H266224   3.224   0.461   4.610  0.3152  0.8660  0.3036
14937TIP3   OH266225   5.404   4.456   1.185 -0.0724 -0.3694  0.3824
14937TIP3    H166226   5.394   4.425   1.275  0.5452 -0.0762  0.5551
14937TIP3    H266227   5.484   4.414   1.153  0.4761  0.6153  0.4414
14938TIP3   OH266228   2.417   5.141  16.540 -0.2254 -0.2364 -0.0886
14938TIP3    H166229   2.341   5.175  16.585 -0.2535 -0.7716  0.2818
14938TIP3    H266230   2.389   5.132  16.449 -0.3015  0.4403 -0.1360
14939TIP3   OH266231   2.028   2.322   4.063  0.4051  0.1249  0.5580
14939TIP3    H166232   2.113   2.345   4.101 -0.2754  0.1355  2.1135
14939TIP3    H266233   1.973   2.299   4.137 -1.2026  0.8593 -0.3458
14940TIP3   OH266234   0.679   0.990   5.821  0.5083 -0.0835 -0.4424
14940TIP3    H166235   0.648   1.074   5.856  2.0847  0.0789  0.6654
14940TIP3    H266236   0.698   1.008   5.729  3.0712  1.4940  0.2850
14941TIP3   OH266237   2.189   2.792  11.771  0.0369 -0.0962 -0.4240
14941TIP3    H166238   2.222   2.717  11.720  0.2407  0.5701 -1.3022
14941TIP3    H266239   2.142   2.845  11.706  1.0530  1.2244 -0.1095
14942TIP3   OH266240   2.639   0.201  13.678 -0.6007  0.5770 -0.0539
14942TIP3    H166241   2.567   0.230  13.622 -0.1868  0.2496 -0.7590
14942TIP3    H266242   2.705   0.270  13.671 -0.2325  0.1775 -0.5717
14943TIP3   OH266243   1.103   1.974   1.508  0.3815 -0.4328  0.1116
14943TIP3    H166244   1.146   1.953   1.426 -0.3697  0.0807 -0.4297
14943TIP3    H266245   1.143   2.056   1.537  0.9470 -0.8344  0.4889
14944TIP3   OH266246   4.517   4.880  13.443  0.2512  0.3686  0.3575
14944TIP3    H166247   4.592   4.861  13.499  0.3745  1.3182  0.5408
14944TIP3    H266248   4.549   4.870  13.354  0.9340  1.8807  0.4082
14945TIP3   OH266249   0.404   1.794  16.834 -0.3306  0.1646 -0.5552
14945TIP3    H166250   0.470   1.816  16.899  0.2759  1.6590 -1.6325
14945TIP3    H266251   0.450   1.799  16.750 -1.4144 -0.4225 -1.2084
14946TIP3   OH266252   3.187   4.994  13.057  0.2726  0.6397 -0.0833
14946TIP3    H166253   3.199   5.087  13.037  0.6688  0.5264 -0.4000
14946TIP3    H266254   3.130   4.961  12.987  0.5536  0.5364 -0.2675
14947TIP3   OH266255   1.753   0.913  15.608  0.6373 -0.1997 -0.0490
14947TIP3    H166256   1.674   0.927  15.661  1.4179 -0.6629  1.2697
14947TIP3    H266257   1.744   0.824  15.574 -0.1753  0.3238 -1.2754
14948TIP3   OH266258   1.464   2.067  11.246  0.2656  0.6529 -0.8975
14948TIP3    H166259   1.413   2.108  11.316 -0.2795 -3.2449  1.3200
14948TIP3    H266260   1.411   2.081  11.167 -2.1156  0.4500  0.5416
14949TIP3   OH266261   1.145   1.791  10.610  0.0791  0.4382  0.1077
14949TIP3    H166262   1.123   1.739  10.532  0.7198  1.6196 -0.9030
14949TIP3    H266263   1.067   1.846  10.623  0.8985  2.0127 -1.2535
14950TIP3   OH266264   6.483   4.967  16.575  0.3794  0.6604 -0.0401
14950TIP3    H166265   6.501   4.891  16.520  2.9316  0.1740  1.3307
14950TIP3    H266266   6.391   4.956  16.601  0.4351 -1.4909 -0.5644
14951TIP3   OH266267   0.516   2.758  12.339  0.1115  0.1738  0.0927
14951TIP3    H166268   0.470   2.834  12.304  0.4815 -0.0952 -1.0345
14951TIP3    H266269   0.461   2.684  12.316  1.3859 -0.2174 -1.8787
14952TIP3   OH266270   1.608   1.131   3.474 -0.0603  0.7310 -0.3302
14952TIP3    H166271   1.618   1.095   3.562  1.2454  2.3619  0.2271
14952TIP3    H266272   1.609   1.054   3.417 -1.4692 -0.3955  1.0709
14953TIP3   OH266273   4.211   5.552   3.264  0.1816 -0.4237  0.0033
14953TIP3    H166274   4.295   5.547   3.218 -1.0356  0.8818 -2.5489
14953TIP3    H266275   4.166   5.626   3.223 -2.0827 -0.8612  1.5599
14954TIP3   OH266276   4.365   4.980   3.727  0.0389  0.6528  0.3937
14954TIP3    H166277   4.440   4.976   3.786 -0.0172  0.1193  0.4342
14954TIP3    H266278   4.289   4.972   3.785 -0.0235  0.3431  0.2664
14955TIP3   OH266279   0.283   6.097   5.171  0.2473 -0.0258  0.3752
14955TIP3    H166280   0.326   6.119   5.089 -0.3490  0.4732  0.1915
14955TIP3    H266281   0.190   6.092   5.149  0.1574 -0.6958  0.8497
14956TIP3   OH266282   3.465   0.278  11.873 -0.3093  0.4359 -0.4073
14956TIP3    H166283   3.395   0.223  11.839 -1.8663  0.4919  2.3719
14956TIP3    H266284   3.545   0.232  11.850 -1.5122 -2.8087  1.2689
14957TIP3   OH266285   3.451   2.231   1.940 -0.1717  0.3607 -0.2570
14957TIP3    H166286   3.373   2.221   1.996  0.1710  0.5314  0.2556
14957TIP3    H266287   3.418   2.216   1.852 -0.8562  0.7487 -0.0786
14958TIP3   OH266288   4.445   6.774  14.036 -0.3086 -0.1634 -0.2006
14958TIP3    H166289   4.458   6.682  14.014 -4.1862 -0.7798 -0.7680
14958TIP3    H266290   4.367   6.774  14.092 -1.2965  2.8065 -1.3463
14959TIP3   OH266291   1.366   2.021   4.182  0.0065  0.8201 -0.2799
14959TIP3    H166292   1.427   2.080   4.137  0.5780  0.4385 -0.0216
14959TIP3    H266293   1.319   1.977   4.111  1.8141 -0.7514 -0.6188
14960TIP3   OH266294   1.056   2.925   0.094 -0.1685  0.0252 -0.4690
14960TIP3    H166295   1.075   2.988   0.024 -1.4271  0.7856 -0.1606
14960TIP3    H266296   0.971   2.889   0.071 -1.0992  1.0596  1.1742
14961TIP3   OH266297   6.425   2.510  16.418 -0.0326  0.1498  0.5790
14961TIP3    H166298   6.380   2.557  16.489  0.2219 -0.4077  1.1209
14961TIP3    H266299   6.362   2.445  16.389 -0.3895  0.8177 -0.1782
14962TIP3   OH266300   2.067   1.440   1.421  0.5997 -0.0855 -0.2189
14962TIP3    H166301   2.105   1.366   1.375 -1.7221 -0.0547 -2.3769
14962TIP3    H266302   2.028   1.402   1.500 -0.1679 -1.1256 -1.0770
14963TIP3   OH266303   2.802   0.675   3.838  0.1298 -0.0437 -0.1275
14963TIP3    H166304   2.837   0.590   3.865 -1.0879 -0.9030 -1.1593
14963TIP3    H266305   2.799   0.727   3.919 -1.4666 -1.8158  1.0151
14964TIP3   OH266306   4.432   2.311  14.867  0.3606 -0.2987 -0.4314
14964TIP3    H166307   4.339   2.310  14.891  0.8628 -0.1802  1.7259
14964TIP3    H266308   4.478   2.294  14.949  2.3102  1.3501 -1.0998
14965TIP3   OH266309   1.897   4.450  12.669  0.2157 -0.0206 -0.4282
14965TIP3    H166310   1.841   4.393  12.617  0.3012  0.1480 -0.7089
14965TIP3    H266311   1.973   4.395  12.691  0.2550 -0.0448 -0.6199
14966TIP3   OH266312   3.564   2.557   4.719  0.1078 -0.2146  0.1758
14966TIP3    H166313   3.561   2.464   4.739 -0.6648 -0.1772  0.2598
14966TIP3    H266314   3.486   2.573   4.666 -0.6199  0.6682  1.4520
14967TIP3   OH266315   5.072   3.857   5.743 -0.1905  0.1668  0.6410
14967TIP3    H166316   5.062   3.762   5.752 -0.6383  0.1784  0.3495
14967TIP3    H266317   5.103   3.869   5.653 -2.7470  0.4271 -0.2888
14968TIP3   OH266318   5.934   2.049  16.802  0.1639  0.2015  0.6531
14968TIP3    H166319   5.919   2.082  16.890 -0.7378  0.7584  0.3069
14968TIP3    H266320   5.899   2.117  16.744  0.6788 -0.1853 -0.1339
14969TIP3   OH266321   6.323   5.071  16.134 -0.2297 -0.0484 -0.6590
14969TIP3    H166322   6.253   5.010  16.111  0.3518 -0.7169 -0.6857
14969TIP3    H266323   6.363   5.094  16.050  0.3830 -0.6489 -0.5382
14970TIP3   OH266324   5.794   0.118   1.611 -0.0672  0.6980  0.0242
14970TIP3    H166325   5.829   0.094   1.697 -0.0126  1.7858  0.3178
14970TIP3    H266326   5.760   0.036   1.575  3.0073 -0.5119 -0.4160
14971TIP3   OH266327   2.366   3.145  10.534 -0.0107 -0.6370  0.4363
14971TIP3    H166328   2.312   3.105  10.602 -0.7530 -1.9738 -0.8719
14971TIP3    H266329   2.303   3.189  10.476  0.4727 -0.6541 -0.1120
14972TIP3   OH266330   5.374   4.959   3.811 -0.4204 -0.3587  0.5044
14972TIP3    H166331   5.381   4.978   3.717 -0.1126 -0.8210  0.4302
14972TIP3    H266332   5.464   4.954   3.842 -0.4519 -2.0244  0.4393
14973TIP3   OH266333   6.491   2.230   0.761  0.3270 -0.3457 -0.0681
14973TIP3    H166334   6.550   2.290   0.716 -1.0585  0.7098 -0.5255
14973TIP3    H266335   6.528   2.222   0.849  1.2150  0.1806 -0.3806
14974TIP3   OH266336   3.692   2.291   3.993 -0.3798 -0.3239  0.0930
14974TIP3    H166337   3.646   2.364   3.952  1.7896  0.8001 -0.5328
14974TIP3    H266338   3.717   2.324   4.079  1.4721  0.1097 -0.5653
14975TIP3   OH266339   3.211   5.622  16.954 -0.3620 -0.2774  0.6362
14975TIP3    H166340   3.251   5.607  16.868 -2.7501 -1.4046 -0.3812
14975TIP3    H266341   3.260   5.696  16.990  0.9057  0.0765 -1.5740
14976TIP3   OH266342   5.498   4.838  14.669  0.1081 -1.0708 -0.2425
14976TIP3    H166343   5.567   4.904  14.672 -0.1864 -0.6908 -1.2704
14976TIP3    H266344   5.538   4.760  14.707  0.4146 -0.2735  1.1360
14977TIP3   OH266345   4.989   2.688  14.745 -0.2722 -0.3828  0.3656
14977TIP3    H166346   5.070   2.639  14.749  0.5998  0.9098 -0.6093
14977TIP3    H266347   4.960   2.680  14.654 -1.4745 -1.1875  0.8041
14978TIP3   OH266348   6.135   4.742   1.497  0.3861 -0.2828  0.8913
14978TIP3    H166349   6.217   4.691   1.492  0.4103 -0.2080  0.5127
14978TIP3    H266350   6.159   4.829   1.466  0.0555 -0.3897  0.3347
14979TIP3   OH266351   5.977   0.818  17.000  0.5024  0.5217  0.1648
14979TIP3    H166352   5.962   0.878  17.073 -0.4225 -0.1801  0.5676
14979TIP3    H266353   5.901   0.760  16.999 -0.1273  1.2597 -2.1155
14980TIP3   OH266354   3.170   0.466  16.422 -0.5407 -0.1539  0.1888
14980TIP3    H166355   3.254   0.437  16.458 -0.6234 -0.5005  0.1058
14980TIP3    H266356   3.166   0.559  16.444 -0.1507 -0.1427  0.2223
14981TIP3   OH266357   1.775   6.085   2.502 -1.4481 -0.3814  0.1049
14981TIP3    H166358   1.824   6.155   2.459 -0.6090 -0.0985  1.4738
14981TIP3    H266359   1.743   6.031   2.430 -0.1453  0.1002 -0.8736
14982TIP3   OH266360   1.317   6.305  15.083  0.0792 -0.3250 -0.1793
14982TIP3    H166361   1.336   6.255  15.163 -1.8865 -2.8304 -1.1431
14982TIP3    H266362   1.255   6.372  15.111  2.6943  1.7439  1.1293
14983TIP3   OH266363   2.600   0.670  15.324  0.2456  0.2438 -0.3944
14983TIP3    H166364   2.681   0.700  15.364 -0.2994 -0.0462  1.0100
14983TIP3    H266365   2.615   0.577  15.306 -0.8697 -0.8195  3.2025
14984TIP3   OH266366   3.381   1.216  11.879 -0.1014  0.4267  0.1234
14984TIP3    H166367   3.453   1.154  11.865 -1.7229 -1.3843 -0.5426
14984TIP3    H266368   3.319   1.197  11.809 -0.4113  3.2489 -0.4650
14985TIP3   OH266369   0.277   0.873  14.396 -0.0632  0.4712 -0.2752
14985TIP3    H166370   0.254   0.851  14.305 -0.1855  0.3858 -0.2223
14985TIP3    H266371   0.211   0.937  14.422  0.2933  0.9152 -0.4300
14986TIP3   OH266372   4.222   0.510  17.187 -0.1990 -0.0683  0.3160
14986TIP3    H166373   4.127   0.502  17.176 -0.3017  0.3914  0.8136
14986TIP3    H266374   4.233   0.577  17.255  0.5374  1.4833 -1.2671
14987TIP3   OH266375   0.756   3.785   0.155  0.5289 -0.1263  0.2397
14987TIP3    H166376   0.775   3.835   0.075  1.0734 -0.6229  0.0527
14987TIP3    H266377   0.820   3.818   0.218  0.0441  0.3260  0.5055
14988TIP3   OH266378   2.292   3.935   2.372 -0.1032 -0.0756 -0.4111
14988TIP3    H166379   2.328   3.853   2.340 -0.4763 -0.5640  0.4007
14988TIP3    H266380   2.361   3.971   2.428 -0.4283 -0.4514  0.2327
14989TIP3   OH266381   2.100   6.229  17.258  0.4626  0.2061 -0.4197
14989TIP3    H166382   2.075   6.148  17.304 -2.0795  0.6161 -0.9327
14989TIP3    H266383   2.028   6.245  17.197  0.7594  3.0146 -0.1440
14990TIP3   OH266384   6.698   3.218  15.454  0.4864  0.2178 -0.8129
14990TIP3    H166385   6.754   3.274  15.508 -0.7204  1.5798 -0.9192
14990TIP3    H266386   6.628   3.276  15.424 -1.3794 -1.5922 -0.1315
14991TIP3   OH266387   5.722   3.998  12.252  0.9175 -0.3021 -0.4672
14991TIP3    H166388   5.715   3.937  12.179  1.9166 -0.0500 -0.7820
14991TIP3    H266389   5.737   3.943  12.329 -0.2925 -0.5798 -0.4002
14992TIP3   OH266390   4.454   1.850  16.953 -0.6263  0.3532 -0.9532
14992TIP3    H166391   4.499   1.903  17.020 -2.4593  0.6064  0.1601
14992TIP3    H266392   4.416   1.915  16.893 -1.1287  0.2325 -0.7704
14993TIP3   OH266393   0.683   3.865  11.718 -0.5250 -0.2591 -0.1031
14993TIP3    H166394   0.738   3.800  11.762 -0.1132 -0.4209 -0.8328
14993TIP3    H266395   0.724   3.949  11.739 -1.7712 -0.0987  1.8682
14994TIP3   OH266396   2.610   6.316   5.410  0.8369  0.3305 -0.4247
14994TIP3    H166397   2.544   6.257   5.376  1.3514 -0.0897 -0.7102
14994TIP3    H266398   2.561   6.390   5.447  0.2425  0.2948 -1.1454
14995TIP3   OH266399   6.494   3.648  13.979 -0.0097 -0.8516  0.0681
14995TIP3    H166400   6.487   3.553  13.989 -3.2918 -0.9592 -1.8304
14995TIP3    H266401   6.515   3.662  13.887  0.6889  0.3129  0.3719
14996TIP3   OH266402   4.656   3.455  16.967  0.3126  0.0951 -0.6813
14996TIP3    H166403   4.714   3.473  16.893 -0.2913  1.1182 -0.9183
14996TIP3    H266404   4.683   3.368  16.997  1.2939  0.1252 -1.4123
14997TIP3   OH266405   0.382   0.328  14.390 -0.2776  0.5627  0.4100
14997TIP3    H166406   0.398   0.287  14.306 -0.1603 -0.6708  1.0111
14997TIP3    H266407   0.403   0.261  14.455 -1.3388  1.1356  1.3987
14998TIP3   OH266408   3.347   0.802   3.745 -0.2639 -0.2970  0.0817
14998TIP3    H166409   3.276   0.757   3.791 -0.4829  1.5168  1.6344
14998TIP3    H266410   3.426   0.776   3.791 -0.4811  1.5054  1.5696
14999TIP3   OH266411   3.977   5.948  16.388 -0.1334  0.6844  0.3046
14999TIP3    H166412   3.905   5.886  16.377 -0.6397  1.1210  1.1177
14999TIP3    H266413   4.035   5.930  16.313 -1.1438  0.4201 -0.4401
15000TIP3   OH266414   5.185   3.294   2.125  0.0677  0.1592 -0.2832
15000TIP3    H166415   5.186   3.390   2.134  1.2391  0.1584 -0.2366
15000TIP3    H266416   5.137   3.263   2.201  0.0001  0.6951 -0.1049
15001TIP3   OH266417   3.381   0.723  10.976 -0.7441 -0.1764 -0.0006
15001TIP3    H166418   3.375   0.724  10.881 -1.7306 -2.8665 -0.0569
15001TIP3    H266419   3.343   0.639  11.002 -1.4623  0.8936  2.8575
15002TIP3   OH266420   4.918   4.915  14.860 -0.0636  0.2035  0.0086
15002TIP3    H166421   4.957   4.836  14.895  0.7144  1.6206  2.5405
15002TIP3    H266422   4.868   4.885  14.783  0.7515 -2.5809  0.4694
15003TIP3   OH266423   4.269   6.180   2.802  0.0022  0.1304 -0.7513
15003TIP3    H166424   4.192   6.125   2.815  0.4065 -0.0711  0.9981
15003TIP3    H266425   4.343   6.119   2.801  0.3632  0.5314  0.1989
15004TIP3   OH266426   4.646   5.603  11.382  0.4982 -0.0482 -0.0688
15004TIP3    H166427   4.736   5.603  11.413  0.2723 -2.1803  0.7981
15004TIP3    H266428   4.645   5.665  11.310  2.3812  0.8495  0.6176
15005TIP3   OH266429   0.716   6.603   0.868  0.4378  0.1706  0.5611
15005TIP3    H166430   0.768   6.545   0.924 -0.9458 -0.1254  1.5784
15005TIP3    H266431   0.627   6.598   0.903 -0.1031  1.4227 -0.5309
15006TIP3   OH266432   1.336   1.399  16.982 -0.4294  0.3099 -0.0336
15006TIP3    H166433   1.344   1.444  17.066 -0.1377  0.3423 -0.0758
15006TIP3    H266434   1.253   1.430  16.945 -2.0737 -1.8795  1.5297
15007TIP3   OH266435   0.544   3.890  14.061 -0.0459 -0.4502  0.5831
15007TIP3    H166436   0.491   3.871  13.984  0.1644  0.8163  0.0988
15007TIP3    H266437   0.549   3.807  14.108 -1.9613 -0.7421  0.3506
15008TIP3   OH266438   3.924   1.530   1.968  0.0320  0.2086 -0.3446
15008TIP3    H166439   3.975   1.601   2.007 -1.6673  1.5447 -0.4415
15008TIP3    H266440   3.973   1.506   1.889  0.4363  1.5686 -0.5335
15009TIP3   OH266441   5.656   3.203  13.770 -0.2650  0.7348 -0.2523
15009TIP3    H166442   5.685   3.119  13.736  0.6336  1.2948 -0.9107
15009TIP3    H266443   5.598   3.238  13.702  2.3605  2.3332 -1.8474
15010TIP3   OH266444   3.433   1.871   2.109  0.1026 -0.2983 -0.3546
15010TIP3    H166445   3.416   1.843   2.019 -0.8200  0.4692 -0.4463
15010TIP3    H266446   3.436   1.790   2.159 -3.1479 -0.6404 -0.4995
15011TIP3   OH266447   1.281   3.474   2.768  0.3830  0.6890 -0.1273
15011TIP3    H166448   1.363   3.465   2.815  0.1567  1.8300  0.5216
15011TIP3    H266449   1.307   3.491   2.677  0.8357 -0.1419 -0.1616
15012TIP3   OH266450   3.946   2.645   4.125 -1.2177 -0.5319  0.3069
15012TIP3    H166451   4.013   2.648   4.195 -0.1412  0.7679 -0.7178
15012TIP3    H266452   3.932   2.737   4.103 -0.2616 -0.9463 -2.3345
15013TIP3   OH266453   1.574   0.951  14.972  0.4108  0.2623  1.0535
15013TIP3    H166454   1.601   0.864  15.002  0.4406 -0.7015 -1.5020
15013TIP3    H266455   1.484   0.939  14.943  1.3749  0.1645 -2.2920
15014TIP3   OH266456   1.078   4.702  15.529 -0.2128 -0.4143  0.5080
15014TIP3    H166457   1.042   4.614  15.539  0.2792 -0.7922 -0.8391
15014TIP3    H266458   1.010   4.750  15.482  0.1523 -0.5378 -0.1634
15015TIP3   OH266459   2.580   3.267   0.937  0.2063  0.2126  0.2670
15015TIP3    H166460   2.542   3.279   1.024 -2.8185 -1.1194 -0.7340
15015TIP3    H266461   2.657   3.324   0.936 -0.9296  1.9940  3.0376
15016TIP3   OH266462   6.287   5.332   2.021 -0.4480 -0.4036 -0.2565
15016TIP3    H166463   6.312   5.321   2.113 -0.3222  1.6245 -0.0117
15016TIP3    H266464   6.192   5.325   2.022 -0.3932 -1.3183 -0.1417
15017TIP3   OH266465   1.775   1.915   1.545 -0.0156 -0.1599  0.2534
15017TIP3    H166466   1.760   1.969   1.467  1.7068 -1.1587 -0.8469
15017TIP3    H266467   1.851   1.955   1.587 -0.7233  0.1628  1.2676
15018TIP3   OH266468   2.164   3.789  13.136 -0.0621 -0.0578  0.1002
15018TIP3    H166469   2.073   3.795  13.165 -0.2747  0.1702 -0.6176
15018TIP3    H266470   2.160   3.792  13.041  0.7041  0.0401  0.0650
15019TIP3   OH266471   0.983   0.554  13.515 -0.4723 -0.0807 -0.6958
15019TIP3    H166472   1.012   0.544  13.605 -0.5336  0.7636 -0.5675
15019TIP3    H266473   0.982   0.466  13.479 -2.7596 -0.7730  0.8396
15020TIP3   OH266474   6.049   4.655   3.178  0.0889  0.0479 -0.2950
15020TIP3    H166475   6.124   4.687   3.128 -0.0740 -0.0092 -0.5783
15020TIP3    H266476   6.023   4.574   3.133  1.7757 -1.6499  1.5840
15021TIP3   OH266477   5.838   3.390  13.856  0.8211  0.9383 -0.0239
15021TIP3    H166478   5.910   3.373  13.794  1.4845 -0.3102  1.0531
15021TIP3    H266479   5.769   3.330  13.829  1.0840  0.4435  0.3996
15022TIP3   OH266480   3.076   1.909   6.579 -0.3460 -0.1485  0.2547
15022TIP3    H166481   3.057   2.001   6.561 -0.3395 -0.6648 -2.9365
15022TIP3    H266482   3.147   1.911   6.642 -1.4848  1.9750  1.5698
15023TIP3   OH266483   5.879   3.370  12.359 -1.0340 -0.2978  0.3403
15023TIP3    H166484   5.854   3.293  12.308 -1.4807 -0.1025  0.2595
15023TIP3    H266485   5.860   3.444  12.302 -1.2317 -0.0951  0.6676
15024TIP3   OH266486   5.191   1.710   4.465  0.0046  0.0833 -0.4387
15024TIP3    H166487   5.232   1.686   4.548 -2.4162 -2.5503  0.1180
15024TIP3    H266488   5.162   1.801   4.478  0.8731  0.1759  1.0540
15025TIP3   OH266489   1.069   2.672  10.929 -0.5640 -0.1362  0.0481
15025TIP3    H166490   1.109   2.654  10.844 -0.9354 -1.2304  0.0895
15025TIP3    H266491   0.980   2.701  10.908 -1.0295 -1.4778  0.0825
15026TIP3   OH266492   6.526   4.620  15.258  0.3856  0.2767 -0.9833
15026TIP3    H166493   6.434   4.594  15.253  0.3870  0.0246  0.1518
15026TIP3    H266494   6.554   4.627  15.166 -0.9077  0.8824 -1.3538
15027TIP3   OH266495   4.642   2.240  16.186 -0.3400  0.3414  0.3197
15027TIP3    H166496   4.588   2.161  16.182 -1.8007  1.3492 -1.0769
15027TIP3    H266497   4.608   2.288  16.262 -3.8821  2.5188 -2.3190
15028TIP3   OH266498   0.831   4.688   1.180  0.3931 -0.3061  0.2453
15028TIP3    H166499   0.856   4.731   1.098  3.6802 -3.9284 -0.9591
15028TIP3    H266500   0.913   4.684   1.230 -0.8438 -1.0061  2.3313
15029TIP3   OH266501   1.770   0.451   0.966 -0.3236  0.1930  0.3113
15029TIP3    H166502   1.697   0.510   0.984 -0.0378  0.8344 -0.6124
15029TIP3    H266503   1.757   0.423   0.876  0.0837 -0.4019  0.4290
15030TIP3   OH266504   3.045   2.361   0.713  0.2494 -0.0660 -0.3778
15030TIP3    H166505   3.035   2.456   0.721 -0.1997 -0.0776 -0.7438
15030TIP3    H266506   2.960   2.331   0.679 -0.0762 -0.7525  0.9506
15031TIP3   OH266507   0.803   6.050  12.963 -0.2383 -0.1581  0.1613
15031TIP3    H166508   0.811   6.134  12.917 -0.1025 -0.7875 -0.9861
15031TIP3    H266509   0.867   6.056  13.034  0.0197  0.5683 -0.1247
15032TIP3   OH266510   5.303   1.415   0.795  0.2454 -0.1333 -0.0731
15032TIP3    H166511   5.340   1.497   0.831  0.4933 -0.6177  0.8094
15032TIP3    H266512   5.217   1.441   0.762 -0.1833  0.2696  1.2773
15033TIP3   OH266513   6.674   5.141   5.097  0.0353  0.2096 -0.7380
15033TIP3    H166514   6.675   5.100   5.010 -0.8641 -2.2261  0.3245
15033TIP3    H266515   6.582   5.163   5.112  0.1175  0.2096 -0.2148
15034TIP3   OH266516   3.757   6.541  12.286 -0.5399  0.2838  0.5398
15034TIP3    H166517   3.682   6.526  12.228 -0.8588  1.7777  0.5215
15034TIP3    H266518   3.765   6.636  12.290  1.2777  0.1595  0.6629
15035TIP3   OH266519   2.768   2.849  16.124 -0.3965  1.0220  0.0488
15035TIP3    H166520   2.685   2.862  16.170 -1.2380 -1.5298 -0.5159
15035TIP3    H266521   2.743   2.850  16.031  0.7977  3.3596 -0.3017
15036TIP3   OH266522   1.008   2.911  17.075  0.1844  0.0733  0.1590
15036TIP3    H166523   0.928   2.885  17.122  0.8895 -0.8962  0.8802
15036TIP3    H266524   1.042   2.985  17.124  0.3341 -0.2432  0.5369
15037TIP3   OH266525   1.987   5.133  15.783 -0.2569 -0.1817  0.3575
15037TIP3    H166526   1.902   5.167  15.812 -0.2228  0.4893 -0.2998
15037TIP3    H266527   1.974   5.038  15.779 -0.7617 -0.1448  0.9350
15038TIP3   OH266528   0.746   0.387   1.323  0.0971 -0.0706 -0.3800
15038TIP3    H166529   0.786   0.432   1.397  2.5381  1.4008 -2.4313
15038TIP3    H266530   0.656   0.369   1.351  0.2222  2.4840  2.0496
15039TIP3   OH266531   1.804   4.676   4.338  0.0754  0.2970 -0.4044
15039TIP3    H166532   1.864   4.727   4.392  0.5660 -1.2651  0.5695
15039TIP3    H266533   1.861   4.627   4.278 -0.3643  0.5169 -1.0229
15040TIP3   OH266534   3.422   2.102  11.142 -0.3052 -0.3541  0.4843
15040TIP3    H166535   3.428   2.174  11.079 -0.9784 -0.9465 -0.2726
15040TIP3    H266536   3.441   2.024  11.091  1.0266 -0.6838  1.4265
15041TIP3   OH266537   4.763   6.669  12.343 -0.7692  0.1820  0.6303
15041TIP3    H166538   4.753   6.574  12.350 -0.1947  0.0139 -0.5988
15041TIP3    H266539   4.675   6.702  12.323 -1.0581 -0.0316  1.5227
15042TIP3   OH266540   1.094   4.776   1.273 -0.3343 -0.1076 -0.6498
15042TIP3    H166541   1.176   4.818   1.246  0.1256 -1.9478 -2.3023
15042TIP3    H266542   1.116   4.731   1.355  0.2949 -0.4812 -1.0137
15043TIP3   OH266543   0.572   1.910   4.356 -0.0237 -0.7589 -0.3347
15043TIP3    H166544   0.520   1.987   4.331 -0.8269 -0.8344  1.0033
15043TIP3    H266545   0.530   1.878   4.436  2.2383 -0.6795  0.9707
15044TIP3   OH266546   1.620   0.556  17.204  0.1404  0.8648  0.3383
15044TIP3    H166547   1.527   0.558  17.229  0.4312  0.2199  1.5986
15044TIP3    H266548   1.666   0.542  17.287  1.3597  1.0451 -0.2857
15045TIP3   OH266549   6.654   2.882  16.601 -0.1779  0.1512  0.5682
15045TIP3    H166550   6.729   2.826  16.578 -0.4697 -1.0212  2.3080
15045TIP3    H266551   6.654   2.884  16.696 -1.2623  1.6968  0.5660
15046TIP3   OH266552   3.064   5.183  14.503 -0.6079 -0.3243  0.0236
15046TIP3    H166553   2.972   5.212  14.504 -0.7376 -0.7209 -0.2348
15046TIP3    H266554   3.098   5.215  14.420  0.0115  1.4063  0.9084
15047TIP3   OH266555   5.147   5.402   4.579 -0.6135 -0.6420 -0.1924
15047TIP3    H166556   5.169   5.310   4.596  0.5756 -0.9714 -2.9221
15047TIP3    H266557   5.073   5.398   4.518 -0.5456  0.2044 -0.3419
15048TIP3   OH266558   1.646   4.501  14.091  0.1965 -0.0461  0.2914
15048TIP3    H166559   1.682   4.567  14.150  1.7485 -0.8103  0.2700
15048TIP3    H266560   1.558   4.485  14.124  0.3140  0.9901  1.1660
15049TIP3   OH266561   2.112   2.964  15.998  0.1135 -0.6784 -0.3866
15049TIP3    H166562   2.065   2.968  15.914  0.5603 -1.9341 -0.7116
15049TIP3    H266563   2.070   2.893  16.046  0.9678 -1.1060 -0.2518
15050TIP3   OH266564   1.276   0.882   4.736  0.4052 -0.4234  0.6654
15050TIP3    H166565   1.228   0.892   4.818  0.1012 -0.7059  0.5257
15050TIP3    H266566   1.361   0.846   4.762  0.2916 -0.5563  0.8556
15051TIP3   OH266567   1.096   4.672   2.508 -0.9066 -0.1260  0.8269
15051TIP3    H166568   1.175   4.708   2.547  1.0098 -0.5247 -2.3103
15051TIP3    H266569   1.094   4.581   2.537 -0.3717 -0.0267  1.1830
15052TIP3   OH266570   6.362   6.645  15.423  0.1024  0.5114 -0.2398
15052TIP3    H166571   6.328   6.680  15.505 -1.1832 -0.8884 -0.1346
15052TIP3    H266572   6.426   6.710  15.393  1.8344  0.3218  2.6750
15053TIP3   OH266573   6.276   3.044  11.432  0.3318 -0.0532  0.2191
15053TIP3    H166574   6.210   3.032  11.363  1.7918 -0.4139 -1.1605
15053TIP3    H266575   6.355   3.004  11.397  1.8669  2.1347  0.9664
15054TIP3   OH266576   0.699   1.686  16.948 -0.3183  0.0276 -0.3494
15054TIP3    H166577   0.759   1.743  16.996 -0.3285 -1.3621  1.3859
15054TIP3    H266578   0.627   1.670  17.009 -0.3127 -1.8363 -0.7640
15055TIP3   OH266579   4.652   5.637   3.949  0.2868  0.3783 -0.6474
15055TIP3    H166580   4.655   5.723   3.906  1.3788  1.0602  0.7137
15055TIP3    H266581   4.741   5.602   3.940  0.1765 -0.0561 -0.1106
15056TIP3   OH266582   3.632   3.269   5.268  0.1166 -0.2470 -0.1246
15056TIP3    H166583   3.575   3.193   5.283  2.4794 -2.2329 -0.5019
15056TIP3    H266584   3.573   3.338   5.238 -2.0581 -2.1927 -0.6065
15057TIP3   OH266585   6.050   4.675  15.853  0.2849  0.9273 -0.4162
15057TIP3    H166586   6.020   4.603  15.908  2.3978  0.4064  0.1233
15057TIP3    H266587   5.971   4.727  15.838 -1.0454 -0.7834  0.2210
15058TIP3   OH266588   3.150   3.539  11.608  0.2273  0.1419  0.6019
15058TIP3    H166589   3.238   3.572  11.622 -0.2646  1.6477  0.3725
15058TIP3    H266590   3.162   3.457  11.560  1.4946  0.3093  0.6034
15059TIP3   OH266591   5.904   3.595  12.932 -0.1118  0.4666  0.7199
15059TIP3    H166592   5.869   3.552  13.009 -0.2726  1.4642  1.2257
15059TIP3    H266593   5.999   3.598  12.946 -0.2243  1.5458  1.3841
15060TIP3   OH266594   1.727   3.938  16.104 -0.0367  0.2644 -0.2420
15060TIP3    H166595   1.802   3.884  16.081 -0.2530 -0.4295  0.6134
15060TIP3    H266596   1.759   3.995  16.174  0.2888  1.5082 -1.3860
15061TIP3   OH266597   5.045   2.522  17.168  0.2100 -0.3181  0.3846
15061TIP3    H166598   5.060   2.585  17.239 -2.6351 -0.1009  0.9377
15061TIP3    H266599   5.065   2.569  17.088 -0.3120  0.7729  0.8796
15062TIP3   OH266600   2.929   3.048   4.205 -0.4567 -0.7636  0.1462
15062TIP3    H166601   3.011   3.068   4.250  0.0586  0.5651 -1.3139
15062TIP3    H266602   2.950   2.974   4.149 -0.3297 -0.5867 -0.0390
15063TIP3   OH266603   6.237   0.501  14.257 -0.2749 -0.0332  0.2451
15063TIP3    H166604   6.302   0.477  14.324 -0.8950 -2.3601  0.0960
15063TIP3    H266605   6.190   0.575  14.295  0.0479 -0.6618  1.9790
15064TIP3   OH266606   2.527   3.384  15.285  0.1063 -0.1179  0.2197
15064TIP3    H166607   2.444   3.348  15.253 -0.3882  0.4843  0.7870
15064TIP3    H266608   2.574   3.410  15.206  0.1453 -1.2845 -0.1597
15065TIP3   OH266609   4.678   4.232   0.229 -0.1931 -0.2750  0.0892
15065TIP3    H166610   4.745   4.216   0.296  1.1683 -1.2538 -1.4463
15065TIP3    H266611   4.685   4.326   0.210 -1.4367  0.3095  2.0962
15066TIP3   OH266612   3.690   2.367   3.071  0.4668 -0.1280  0.1996
15066TIP3    H166613   3.657   2.371   3.161 -1.7063  0.7845 -0.5578
15066TIP3    H266614   3.723   2.456   3.055 -1.2667  0.4187 -0.5810
15067TIP3   OH266615   3.983   2.609   1.979  0.1658  0.2732  0.0085
15067TIP3    H166616   4.028   2.640   1.900  0.7195 -0.1400  0.1546
15067TIP3    H266617   3.930   2.684   2.006 -0.5433  0.2048 -1.1169
15068TIP3   OH266618   3.749   1.085  16.337  0.0743 -0.3708  0.2139
15068TIP3    H166619   3.672   1.111  16.286  0.4117  0.0674 -0.0717
15068TIP3    H266620   3.779   1.004  16.296 -0.3120 -0.6140  0.4077
15069TIP3   OH266621   6.132   1.486  12.405 -0.5452 -0.1326 -0.2397
15069TIP3    H166622   6.065   1.515  12.466 -1.5500 -2.1130 -0.3083
15069TIP3    H266623   6.130   1.551  12.335  0.3762  1.9855  1.5595
15070TIP3   OH266624   0.842   2.764   2.451  0.1132 -0.2399 -0.7981
15070TIP3    H166625   0.785   2.837   2.429  1.1158  0.3070 -1.6027
15070TIP3    H266626   0.931   2.797   2.440  0.6367 -0.8966  1.0011
15071TIP3   OH266627   1.868   5.892  12.192 -0.0230  0.2023 -0.4283
15071TIP3    H166628   1.930   5.839  12.141  0.8033 -0.2540  1.0086
15071TIP3    H266629   1.807   5.827  12.228 -1.9300  0.7113 -2.5160
15072TIP3   OH266630   5.992   5.716   2.437 -0.2982 -0.2262  0.2186
15072TIP3    H166631   5.984   5.721   2.532 -1.3169  0.8781  0.0946
15072TIP3    H266632   5.946   5.635   2.414 -0.0659 -0.4877  0.6594
15073TIP3   OH266633   0.634   0.890   2.231  0.5229 -0.3324 -0.3632
15073TIP3    H166634   0.563   0.951   2.209  1.3645  1.1587  0.8755
15073TIP3    H266635   0.677   0.873   2.147 -0.0968  0.3260 -0.8243
15074TIP3   OH266636   0.183   5.988  15.990 -0.0089 -0.2887 -0.1810
15074TIP3    H166637   0.126   5.959  16.061  0.0429 -1.2270 -0.5023
15074TIP3    H266638   0.262   5.935  16.001  0.5654  0.5610 -0.1077
15075TIP3   OH266639   0.089   3.606   4.370 -0.2374 -0.3478 -1.0676
15075TIP3    H166640   0.124   3.564   4.449 -0.9005 -0.5260 -0.8646
15075TIP3    H266641   0.030   3.541   4.332 -0.3461 -0.0523 -1.4109
15076TIP3   OH266642   2.253   2.535  13.163  0.4828 -1.2062  0.0432
15076TIP3    H166643   2.312   2.550  13.237 -0.2761  1.9989  0.1099
15076TIP3    H266644   2.307   2.550  13.086  0.3911 -0.8636  0.0446
15077TIP3   OH266645   5.813   1.288  16.329  0.8089  0.2066  0.1560
15077TIP3    H166646   5.865   1.341  16.389  0.0664 -0.2383  1.2115
15077TIP3    H266647   5.834   1.323  16.242  1.5221  1.1865  0.7058
15078TIP3   OH266648   4.488   3.604  15.457  0.2369  0.1283  0.1744
15078TIP3    H166649   4.439   3.537  15.506  0.1654 -1.0150 -1.3854
15078TIP3    H266650   4.427   3.633  15.390  0.6647  0.9588  0.1408
15079TIP3   OH266651   1.475   0.070  14.433 -0.3586  0.0085 -0.8264
15079TIP3    H166652   1.537  -0.002  14.424  1.0786  1.1887 -0.6552
15079TIP3    H266653   1.487   0.121  14.353 -1.3461  0.1038 -0.9290
15080TIP3   OH266654   2.225   1.828   0.812 -0.1522 -0.3345  0.3001
15080TIP3    H166655   2.281   1.844   0.888  0.6395  0.8092 -0.4930
15080TIP3    H266656   2.285   1.825   0.738 -1.0246 -0.2844 -0.4276
15081TIP3   OH266657   3.403   0.603  12.212  1.0883  1.0097 -0.8495
15081TIP3    H166658   3.444   0.521  12.183  0.8780  1.1006 -1.4122
15081TIP3    H266659   3.443   0.620  12.297 -0.5593 -0.9023  0.4136
15082TIP3   OH266660   3.994   5.895  11.069 -0.2692 -0.1002 -0.0286
15082TIP3    H166661   3.950   5.828  11.120 -1.7414  1.2610  0.5699
15082TIP3    H266662   4.050   5.846  11.009 -0.9299 -1.8369  0.7025
15083TIP3   OH266663   4.404   1.029   5.550 -0.3786 -0.0742 -0.0270
15083TIP3    H166664   4.475   1.048   5.488  0.6460  2.3376  1.7229
15083TIP3    H266665   4.442   1.045   5.636 -2.9410  1.0162  1.0111
15084TIP3   OH266666   1.975   4.926  14.539 -0.1633  0.1463 -0.7446
15084TIP3    H166667   1.986   4.900  14.448 -1.5020 -1.3556 -0.5068
15084TIP3    H266668   2.064   4.925  14.575  0.1625 -1.3041 -1.5113
15085TIP3   OH266669   4.818   5.019  16.150  0.5425  0.5309 -0.3187
15085TIP3    H166670   4.909   4.997  16.132  0.5083  0.4593 -0.4009
15085TIP3    H266671   4.813   5.024  16.245  0.5079  0.0114 -0.2903
15086TIP3   OH266672   3.100   3.263   6.161 -0.6096 -0.3490  0.1481
15086TIP3    H166673   3.174   3.280   6.220 -0.4932  1.0168 -0.3593
15086TIP3    H266674   3.099   3.167   6.151  0.3457 -0.4820  1.0945
15087TIP3   OH266675   2.415   1.417   4.783 -0.7281 -0.1983  0.0256
15087TIP3    H166676   2.407   1.507   4.815  1.6774  0.8262 -1.9346
15087TIP3    H266677   2.363   1.365   4.844 -1.3118  2.3681  1.8690
15088TIP3   OH266678   0.256   6.753   4.530 -0.0233  0.3135  0.0774
15088TIP3    H166679   0.258   6.692   4.604 -4.3820  2.4648  2.3417
15088TIP3    H266680   0.278   6.837   4.568 -0.7846  1.2428 -1.4451
15089TIP3   OH266681   1.964   5.038  11.379 -0.1078 -0.7917 -0.2116
15089TIP3    H166682   1.942   5.080  11.296  0.2692 -0.7267 -0.2802
15089TIP3    H266683   1.894   4.974  11.393 -1.0749  0.3359  0.2436
15090TIP3   OH266684   3.534   4.586  15.372 -0.4184  0.1579  0.3715
15090TIP3    H166685   3.494   4.554  15.291 -0.4776 -1.2885  0.9394
15090TIP3    H266686   3.515   4.680  15.373  1.5898  0.7528 -2.4507
15091TIP3   OH266687   4.207   5.028   4.704  0.0398 -0.0516 -0.4451
15091TIP3    H166688   4.241   5.041   4.616 -0.5877 -0.7519 -0.8094
15091TIP3    H266689   4.112   5.026   4.693 -0.0068 -2.5777 -0.1567
15092TIP3   OH266690   5.913   5.941   1.203  0.3947 -0.4915  0.0296
15092TIP3    H166691   5.955   5.980   1.280  2.6788 -1.0996 -0.8388
15092TIP3    H266692   5.982   5.890   1.161 -0.7625 -0.1449 -2.4596
15093TIP3   OH266693   0.388   6.750  12.853 -0.2967  0.0478  0.0107
15093TIP3    H166694   0.376   6.684  12.786  1.2770  0.1458 -0.4059
15093TIP3    H266695   0.471   6.793  12.831  1.1606 -1.0000  2.8672
15094TIP3   OH266696   0.384   0.403  15.920  0.0010 -0.1336  0.0549
15094TIP3    H166697   0.330   0.378  15.996  1.5895 -0.5373  1.1020
15094TIP3    H266698   0.364   0.337  15.854 -1.3284  0.1606  0.1284
15095TIP3   OH266699   4.608   1.255  11.564  0.1491  0.1445 -0.2588
15095TIP3    H166700   4.652   1.285  11.484  1.8248  0.2151  0.6362
15095TIP3    H266701   4.667   1.188  11.599 -1.3403 -1.0056  0.1273
15096TIP3   OH266702   0.372   0.392  12.375 -0.2167 -0.1185  0.0389
15096TIP3    H166703   0.352   0.307  12.416  0.8389 -0.2859  0.2326
15096TIP3    H266704   0.288   0.438  12.374 -0.6097 -0.7855  0.8178
15097TIP3   OH266705   5.733   3.760  14.675 -0.3677 -0.1482 -0.0440
15097TIP3    H166706   5.686   3.687  14.635 -1.8614  2.0293 -2.6476
15097TIP3    H266707   5.696   3.767  14.763 -2.6102 -0.5398 -0.8868
15098TIP3   OH266708   6.668   6.264  12.556  0.4336 -0.1126 -0.3960
15098TIP3    H166709   6.620   6.337  12.515  2.0584  2.0160  1.2790
15098TIP3    H266710   6.721   6.228  12.485  1.0258  1.6046 -0.8791
15099TIP3   OH266711   1.386   1.665   0.701  0.0808  0.0414  0.1364
15099TIP3    H166712   1.404   1.571   0.698  0.0958  0.0404  0.2532
15099TIP3    H266713   1.377   1.691   0.609  3.3623  0.5811 -0.1361
15100TIP3   OH266714   6.380   3.690  14.728 -0.2021 -0.1482  0.4471
15100TIP3    H166715   6.386   3.784  14.744 -1.7411 -0.0710  0.7099
15100TIP3    H266716   6.394   3.681  14.634  2.1142  0.0872  0.7100
15101TIP3   OH266717   4.175   6.185   6.037 -0.0532  0.1113 -0.0480
15101TIP3    H166718   4.229   6.178   5.959 -0.4633  0.1352 -0.3349
15101TIP3    H266719   4.089   6.153   6.010  0.0160 -0.6766  0.6143
15102TIP3   OH266720   2.736   2.015   6.091  0.2046  0.3783 -0.2829
15102TIP3    H166721   2.742   2.001   5.997  1.6428 -1.1349 -0.0234
15102TIP3    H266722   2.651   1.979   6.116 -0.6074  1.6574 -1.1036
15103TIP3   OH266723   6.080   1.732  13.394 -0.3536  0.5800 -0.1079
15103TIP3    H166724   6.174   1.724  13.412 -0.1479 -0.2191 -1.4539
15103TIP3    H266725   6.048   1.790  13.464  1.0547  0.5534  0.6054
15104TIP3   OH266726   5.470   3.798  13.536  0.4337 -0.0803  0.0136
15104TIP3    H166727   5.457   3.706  13.516 -1.6885  0.1757 -0.0364
15104TIP3    H266728   5.412   3.844  13.475 -1.4033  1.0601  2.4490
15105TIP3   OH266729   2.486   5.057   3.667  0.5154  0.3749 -0.1943
15105TIP3    H166730   2.418   4.991   3.656 -0.6069  1.4423  0.0978
15105TIP3    H266731   2.565   5.007   3.686 -0.9628 -0.8375  3.5841
15106TIP3   OH266732   3.564   1.024   3.835  0.3746 -0.3654  0.4305
15106TIP3    H166733   3.470   1.040   3.832  0.3256 -0.6188  0.6126
15106TIP3    H266734   3.573   0.932   3.858  0.6561 -0.8004 -1.2582
15107TIP3   OH266735   0.896   0.975  12.392  0.6620 -0.1739  0.2698
15107TIP3    H166736   0.823   0.935  12.345 -0.3780  1.1299  0.7237
15107TIP3    H266737   0.972   0.959  12.335 -0.1261 -0.7719 -0.6461
15108TIP3   OH266738   3.731   6.476   4.222 -0.1429 -0.2696  0.4986
15108TIP3    H166739   3.732   6.515   4.134 -1.0397 -0.8417  0.2337
15108TIP3    H266740   3.824   6.469   4.245  0.0806  1.7796  0.4564
15109TIP3   OH266741   5.167   5.928   2.719 -0.3410  0.5163  0.3251
15109TIP3    H166742   5.162   5.967   2.806 -0.0950  1.4159 -0.0488
15109TIP3    H266743   5.076   5.912   2.695 -0.5537  1.9801  0.0213
15110TIP3   OH266744   1.571   2.998   3.925 -0.0817 -0.4672 -0.4220
15110TIP3    H166745   1.547   3.029   4.012  0.8264 -1.6237  0.2751
15110TIP3    H266746   1.499   3.026   3.868 -1.1382 -0.5053  0.8651
15111TIP3   OH266747   0.268   5.332   4.996  0.0154  0.2467  0.5975
15111TIP3    H166748   0.265   5.241   4.967 -0.7961  0.0714  1.2058
15111TIP3    H266749   0.288   5.327   5.089 -1.0466  0.6476  0.8548
15112TIP3   OH266750   4.781   2.142  11.975 -0.3980 -0.5377 -0.5683
15112TIP3    H166751   4.864   2.165  11.935  0.3654 -1.6764  0.3048
15112TIP3    H266752   4.729   2.104  11.903 -0.0804 -0.0632 -1.0544
15113TIP3   OH266753   5.181   1.371   4.205 -0.0888  0.0571 -0.2660
15113TIP3    H166754   5.107   1.376   4.265 -0.1997 -1.9872 -0.1631
15113TIP3    H266755   5.254   1.407   4.255 -0.6491  0.4705  0.2715
15114TIP3   OH266756   0.506   3.386   1.164  0.1615 -0.4048 -0.5402
15114TIP3    H166757   0.599   3.364   1.167  0.8496  2.2523  0.0597
15114TIP3    H266758   0.483   3.380   1.071  1.2188 -0.0198 -0.8388
15115TIP3   OH266759   4.994   3.088   3.383 -0.0635 -0.1031  0.6851
15115TIP3    H166760   5.039   3.170   3.404 -0.2431 -0.1708  1.3567
15115TIP3    H266761   4.906   3.116   3.355  0.2661  0.0051 -0.2679
15116TIP3   OH266762   1.422   1.002   3.064  1.0203  0.6166  0.4761
15116TIP3    H166763   1.395   0.911   3.058 -0.6339  1.0724  0.4459
15116TIP3    H266764   1.486   1.005   3.135  0.3939 -0.4161  1.0971
15117TIP3   OH266765   1.827   4.901  12.464  0.0286 -0.5937  0.1813
15117TIP3    H166766   1.797   4.816  12.495  1.8781 -1.3268  0.0765
15117TIP3    H266767   1.760   4.963  12.494 -1.7116 -2.1463 -0.3371
15118TIP3   OH266768   1.557   5.023   3.719 -0.2972 -0.1036 -0.2089
15118TIP3    H166769   1.486   5.002   3.780 -0.6122 -0.7476 -0.7900
15118TIP3    H266770   1.611   4.944   3.717 -0.7419 -0.3969 -1.3804
15119TIP3   OH266771   0.256   6.097  10.778  0.5446 -0.2515  0.1331
15119TIP3    H166772   0.273   6.164  10.712 -0.2928 -0.0297  0.1313
15119TIP3    H266773   0.183   6.046  10.742  0.1603 -0.2041  0.8212
15120TIP3   OH266774   2.357   1.338   0.602 -0.3624 -0.0621  0.0079
15120TIP3    H166775   2.278   1.286   0.587  0.0358 -0.1273 -2.1586
15120TIP3    H266776   2.348   1.413   0.543  0.2906  0.9748  1.1901
15121TIP3   OH266777   2.636   6.506   2.515 -0.0795 -0.1538 -0.3306
15121TIP3    H166778   2.597   6.571   2.574 -1.0034 -2.4990  1.8282
15121TIP3    H266779   2.726   6.537   2.502 -0.6343  1.8100  0.1653
15122TIP3   OH266780   6.565   6.061   2.678 -0.3476 -0.0936  0.4255
15122TIP3    H166781   6.530   6.149   2.689 -0.2161 -0.1688  1.5494
15122TIP3    H266782   6.660   6.072   2.680 -0.3106 -0.4741  2.7110
15123TIP3   OH266783   3.257   3.901  15.570 -0.3001 -0.0291 -0.0713
15123TIP3    H166784   3.190   3.966  15.592 -0.6463 -0.2361 -0.5071
15123TIP3    H266785   3.242   3.829  15.632 -0.6798 -0.2087 -0.3699
15124TIP3   OH266786   1.274   0.859  14.646  0.6526 -0.0118 -0.0111
15124TIP3    H166787   1.237   0.879  14.732  1.5677 -0.2389  0.4511
15124TIP3    H266788   1.218   0.790  14.611  0.3657 -0.0298  0.4725
15125TIP3   OH266789   1.519   5.476  14.560 -0.6530 -0.2424  0.4700
15125TIP3    H166790   1.570   5.524  14.626  0.4458  1.1418 -1.3007
15125TIP3    H266791   1.446   5.533  14.540 -0.5398 -0.2942 -0.0879
15126TIP3   OH266792   1.202   0.593   4.139 -0.4559  0.0458 -0.9607
15126TIP3    H166793   1.134   0.658   4.120  1.2853  2.3450  0.2633
15126TIP3    H266794   1.231   0.564   4.053 -1.3566  0.7869 -1.5415
15127TIP3   OH266795   1.803   5.399   2.337 -0.4540  0.2038 -0.5238
15127TIP3    H166796   1.778   5.481   2.294  0.8911  0.1559 -1.4861
15127TIP3    H266797   1.735   5.383   2.402 -0.5732  2.2619 -0.0804
15128TIP3   OH266798   0.742   3.721  13.192  0.3871 -0.5820 -0.5119
15128TIP3    H166799   0.690   3.710  13.112  0.8935  1.0692 -1.1090
15128TIP3    H266800   0.684   3.693  13.262 -0.5172 -0.8498 -1.3401
15129TIP3   OH266801   1.462   2.908  12.142  0.0661 -0.4410 -0.3226
15129TIP3    H166802   1.487   2.842  12.207 -0.1675 -1.3034 -1.0870
15129TIP3    H266803   1.474   2.864  12.058  0.0828  0.5652 -0.8584
15130TIP3   OH266804   3.505   0.031   0.179 -0.2039  0.2357  0.2673
15130TIP3    H166805   3.584   0.022   0.124  0.6003  1.7984  1.0823
15130TIP3    H266806   3.441   0.072   0.121 -0.8285 -1.9825 -0.7142
15131TIP3   OH266807   0.237   0.930   5.772  0.0224  0.4330  0.2743
15131TIP3    H166808   0.150   0.893   5.762 -0.2288  1.4138 -1.5144
15131TIP3    H266809   0.277   0.880   5.843 -1.8959 -0.1840  0.9605
15132TIP3   OH266810   5.214   0.878  11.307 -0.3253 -0.0222  0.4533
15132TIP3    H166811   5.242   0.892  11.217 -1.9450 -2.1033 -0.4714
15132TIP3    H266812   5.289   0.839  11.351 -1.1102 -4.5491 -1.6725
15133TIP3   OH266813   6.679   5.631  16.095  0.0066  0.4653 -0.1470
15133TIP3    H166814   6.729   5.712  16.105 -2.3497  1.8404  1.4886
15133TIP3    H266815   6.718   5.572  16.160 -0.1526  1.3539  0.7879
15134TIP3   OH266816   3.861   1.378   0.891 -0.3899 -0.7418  0.6136
15134TIP3    H166817   3.788   1.391   0.952 -2.5515 -1.1832 -1.6710
15134TIP3    H266818   3.854   1.287   0.864  1.4308 -0.9632  0.7630
15135TIP3   OH266819   4.168   4.806   5.751 -0.7251  0.9622  0.0966
15135TIP3    H166820   4.097   4.742   5.760 -0.5857  0.7668 -0.1805
15135TIP3    H266821   4.241   4.768   5.800 -0.3754  0.5053 -0.7521
15136TIP3   OH266822   5.329   5.403   5.464  0.2620 -0.3293  0.6273
15136TIP3    H166823   5.290   5.315   5.463  0.4567 -0.4123 -0.2072
15136TIP3    H266824   5.294   5.446   5.386  0.8144  0.0481  0.5839
15137TIP3   OH266825   4.249   4.459  16.073 -0.2525  0.8381 -0.4390
15137TIP3    H166826   4.281   4.440  15.985 -0.2221  0.8233 -0.4239
15137TIP3    H266827   4.271   4.551  16.088  3.1269 -0.0698  1.0113
15138TIP3   OH266828   6.744   4.779   4.015  0.3357  0.1724 -0.0853
15138TIP3    H166829   6.761   4.771   3.921 -2.9806  1.2257 -0.8932
15138TIP3    H266830   6.739   4.874   4.030 -1.6428 -0.0014  0.5698
15139TIP3   OH266831   1.707   4.517  15.463 -0.2460  0.1835  0.0601
15139TIP3    H166832   1.734   4.497  15.374  1.7096  0.1349  0.6149
15139TIP3    H266833   1.693   4.612  15.464 -0.0954  0.2089 -0.2330
15140TIP3   OH266834   3.484   0.664  16.052 -0.2837 -0.0092 -0.3550
15140TIP3    H166835   3.533   0.736  16.091 -0.7465  0.6678 -0.9953
15140TIP3    H266836   3.524   0.651  15.967  0.9088 -1.6722  0.4144
15141TIP3   OH266837   4.379   2.943   0.939 -0.4605 -0.4313 -1.2016
15141TIP3    H166838   4.474   2.932   0.940 -0.1934  1.5114  0.1738
15141TIP3    H266839   4.348   2.892   1.014 -0.1332  1.2394  0.1321
15142TIP3   OH266840   0.952   3.358  15.789 -0.1259  0.1159 -0.8321
15142TIP3    H166841   0.996   3.416  15.727  2.3632 -1.8528 -1.0770
15142TIP3    H266842   0.912   3.417  15.853 -0.3631  2.1305 -2.7286
15143TIP3   OH266843   0.706   2.606   4.233  0.6003  0.0793  0.0473
15143TIP3    H166844   0.781   2.564   4.275  1.5792  0.9859 -0.7298
15143TIP3    H266845   0.672   2.668   4.298  0.8541  0.0411  0.2147
15144TIP3   OH266846   4.255   1.991   1.010  0.4037  0.1983  0.0225
15144TIP3    H166847   4.173   2.033   0.988  1.8970  2.1601 -2.2907
15144TIP3    H266848   4.231   1.902   1.036 -2.2979 -0.0181 -2.6820
15145TIP3   OH266849   3.095   5.146   0.933 -0.4834  0.3923 -0.0063
15145TIP3    H166850   3.011   5.128   0.889  0.1760  2.5333 -2.3651
15145TIP3    H266851   3.097   5.241   0.942  0.8269  0.2119  1.9245
15146TIP3   OH266852   0.539   5.141   3.723 -0.1664 -0.2376  0.3665
15146TIP3    H166853   0.564   5.171   3.636  0.1436  1.9841  1.1768
15146TIP3    H266854   0.460   5.191   3.745 -0.3188 -0.8610  1.3209
15147TIP3   OH266855   4.544   5.748   0.184 -0.3423 -0.1713  0.4572
15147TIP3    H166856   4.480   5.815   0.158  1.0223  1.0105 -0.0165
15147TIP3    H266857   4.547   5.754   0.279 -2.1592 -1.4563  0.6452
15148TIP3   OH266858   1.223   3.083   2.860  0.0696  1.0283  0.0558
15148TIP3    H166859   1.162   3.133   2.914  0.1187  0.1526  0.9468
15148TIP3    H266860   1.168   3.040   2.795 -0.3945 -0.3614  1.3154
15149TIP3   OH266861   1.487   2.891   6.083  0.1658  0.3528  0.2388
15149TIP3    H166862   1.406   2.842   6.072  0.0513  0.3977  0.8438
15149TIP3    H266863   1.490   2.950   6.007  0.2368 -0.4835 -0.4164
15150TIP3   OH266864   2.988   5.271   5.029 -0.6431  0.0474  0.5220
15150TIP3    H166865   2.980   5.189   5.077 -0.0574  0.2456  0.9781
15150TIP3    H266866   3.065   5.260   4.974 -0.0052  0.6138  1.2763
15151TIP3   OH266867   1.582   1.316  13.703 -0.5341 -0.3480  0.1340
15151TIP3    H166868   1.533   1.234  13.699 -0.0087 -0.7555  1.5067
15151TIP3    H266869   1.665   1.292  13.744  0.5573  0.4604 -1.4916
15152TIP3   OH266870   4.338   5.633  17.161  0.8299 -0.2415  0.1509
15152TIP3    H166871   4.254   5.589  17.175 -0.2589  1.1967 -1.4801
15152TIP3    H266872   4.384   5.575  17.100 -0.5849  0.7553 -1.9663
15153TIP3   OH266873   3.317   1.644   2.757 -0.6023  0.0299 -0.1479
15153TIP3    H166874   3.277   1.730   2.751 -0.3455  0.1514 -0.1565
15153TIP3    H266875   3.365   1.635   2.674 -0.4082 -0.0066 -0.0333
15154TIP3   OH266876   5.978   2.821   2.217  0.1028 -0.6218 -0.0280
15154TIP3    H166877   5.896   2.827   2.267 -0.2242 -0.9611 -0.5094
15154TIP3    H266878   6.015   2.736   2.242 -0.4597 -1.1558 -0.9331
15155TIP3   OH266879   5.070   0.485  16.791 -0.4403 -0.3180 -0.5192
15155TIP3    H166880   5.150   0.538  16.800 -0.4555 -0.5092  1.0899
15155TIP3    H266881   5.008   0.526  16.851 -0.3683 -2.2595  0.9686
15156TIP3   OH266882   2.536   1.956   4.718  0.6441 -0.4671 -0.7634
15156TIP3    H166883   2.471   1.986   4.655 -1.3506 -0.5227  1.1604
15156TIP3    H266884   2.597   1.903   4.665 -0.7699 -0.3121 -2.6681
15157TIP3   OH266885   1.976   4.487  16.885  0.2201  0.1275  0.3269
15157TIP3    H166886   1.930   4.450  16.809  0.2027  0.0604  0.3701
15157TIP3    H266887   2.024   4.562  16.849 -0.8249  0.8932  0.4844
15158TIP3   OH266888   4.630   6.432   1.845 -0.1515  0.1061  0.5702
15158TIP3    H166889   4.711   6.386   1.824 -0.4630 -0.4764  0.6194
15158TIP3    H266890   4.616   6.416   1.938 -1.4442 -1.6510  0.1363
15159TIP3   OH266891   1.801   0.726  11.556  0.1424 -0.6543 -0.3734
15159TIP3    H166892   1.850   0.803  11.584  0.3197 -0.8052 -0.2682
15159TIP3    H266893   1.774   0.746  11.466 -2.7824  1.0115  0.7359
15160TIP3   OH266894   2.128   1.041  10.563 -0.5322 -0.1689  1.2870
15160TIP3    H166895   2.114   0.961  10.514 -0.0062 -0.1012  1.0242
15160TIP3    H266896   2.087   1.110  10.510  2.0382  0.2687 -0.2550
15161TIP3   OH266897   0.201   6.618   2.783 -0.1539  0.5614 -0.0053
15161TIP3    H166898   0.220   6.662   2.700 -0.1814  0.0101 -0.3033
15161TIP3    H266899   0.112   6.647   2.805  1.2851  4.0946  1.9909
15162TIP3   OH266900   5.670   0.654   1.043  0.3508 -0.1873 -0.2957
15162TIP3    H166901   5.606   0.671   0.973 -0.3457  0.3233  0.4492
15162TIP3    H266902   5.681   0.559   1.043 -1.6044 -0.4515  0.5775
15163TIP3   OH266903   2.345   6.551  12.816 -0.1865  0.1729 -0.2665
15163TIP3    H166904   2.354   6.646  12.813 -0.4020  0.1714 -1.1062
15163TIP3    H266905   2.364   6.522  12.727  0.3995 -0.6230  0.1015
15164TIP3   OH266906   4.778   6.354  11.500 -0.1937 -0.2353 -0.2567
15164TIP3    H166907   4.692   6.382  11.469 -0.3153 -0.5978 -0.2524
15164TIP3    H266908   4.829   6.341  11.420 -0.4947 -1.1297 -0.3181
15165TIP3   OH266909   3.245   4.487   5.157  0.1947  0.3593  0.0267
15165TIP3    H166910   3.273   4.565   5.110  0.7737 -0.3462 -0.8419
15165TIP3    H266911   3.175   4.517   5.215 -1.5753  1.0719 -2.2801
15166TIP3   OH266912   3.775   5.356  12.166  0.9516  0.1046 -0.5862
15166TIP3    H166913   3.842   5.351  12.098 -1.8976  0.2717 -3.6650
15166TIP3    H266914   3.744   5.446  12.162  1.7647  0.6128  2.2170
15167TIP3   OH266915   0.891   4.418  16.005 -1.0213  0.1922 -0.4558
15167TIP3    H166916   0.955   4.450  15.942 -0.0691 -0.2872  0.2426
15167TIP3    H266917   0.819   4.481  16.001  0.3975  1.9494  0.2582
15168TIP3   OH266918   4.396   0.225   0.019 -0.1257  0.0320  0.0772
15168TIP3    H166919   4.325   0.173  -0.019 -0.0752 -0.0497  0.0955
15168TIP3    H266920   4.376   0.227   0.112 -0.2590  0.2476  0.0446
15169TIP3   OH266921   2.313   2.815   3.880  0.3155  1.1148  0.6792
15169TIP3    H166922   2.295   2.770   3.797  2.9876  0.2611  0.4688
15169TIP3    H266923   2.278   2.903   3.867 -0.1886  0.7167 -0.9709
15170TIP3   OH266924   4.440   3.967   5.624 -0.0367 -0.6469 -0.2412
15170TIP3    H166925   4.472   4.044   5.671 -1.1148 -1.0374  1.2137
15170TIP3    H266926   4.353   3.950   5.661  0.2031 -2.6135 -0.4552
15171TIP3   OH266927   3.210   5.170   4.910  0.2659  0.5159  0.0375
15171TIP3    H166928   3.287   5.175   4.853 -0.1405 -1.8012 -0.8295
15171TIP3    H266929   3.156   5.102   4.871 -1.3047  0.7042  1.7527
15172TIP3   OH266930   5.671   5.134  13.332  0.2454  0.0363 -0.2184
15172TIP3    H166931   5.643   5.079  13.406  0.2343 -2.2452 -1.8124
15172TIP3    H266932   5.610   5.208  13.334  1.0905  0.8048  2.8163
15173TIP3   OH266933   1.021   4.203  14.761 -0.1769  0.1178 -0.4320
15173TIP3    H166934   1.038   4.267  14.831  0.0301 -0.6647  0.2561
15173TIP3    H266935   1.058   4.243  14.682 -0.9238  1.2755 -0.2206
15174TIP3   OH266936   6.514   2.243  13.979  0.3157 -0.1156 -0.0743
15174TIP3    H166937   6.510   2.167  13.922 -0.2824 -0.0843 -0.0762
15174TIP3    H266938   6.425   2.277  13.981  0.6075  0.6949 -0.2274
15175TIP3   OH266939   1.022   4.800   6.117 -0.6232  0.0106 -0.3477
15175TIP3    H166940   1.000   4.712   6.085 -0.0688 -0.8073  1.3522
15175TIP3    H266941   1.097   4.785   6.175 -1.3499  1.4261  1.0165
15176TIP3   OH266942   4.022   2.911  10.600 -0.4179 -0.1134  0.0612
15176TIP3    H166943   4.068   2.885  10.521  1.2156 -0.2509  1.0156
15176TIP3    H266944   3.950   2.965  10.569  1.1683  1.2428 -1.4326
15177TIP3   OH266945   0.181   2.876  12.148  0.8836 -0.7598  0.6242
15177TIP3    H166946   0.244   2.885  12.219  1.3543 -0.9764  0.2439
15177TIP3    H266947   0.203   2.792  12.107 -0.1838 -1.2360  0.9968
15178TIP3   OH266948   6.035   0.424   1.386  0.5326 -0.0437 -0.9699
15178TIP3    H166949   6.097   0.375   1.440 -0.4691 -0.1691  0.0990
15178TIP3    H266950   5.964   0.363   1.369  1.1599 -0.2605 -3.1117
15179TIP3   OH266951   5.356   6.296  11.536  0.2509 -0.2002 -0.1207
15179TIP3    H166952   5.374   6.379  11.581  1.2816 -0.5544  0.1517
15179TIP3    H266953   5.357   6.230  11.605 -1.5956 -0.3439 -0.1798
15180TIP3   OH266954   1.269   2.179  13.146  0.0362  0.1788  0.6331
15180TIP3    H166955   1.328   2.128  13.202  0.1074 -0.7577 -0.2749
15180TIP3    H266956   1.262   2.129  13.065 -0.9798  0.9316  0.2238
15181TIP3   OH266957   4.809   5.775   0.088 -0.1849  0.2193  0.7373
15181TIP3    H166958   4.715   5.756   0.084  0.0237 -1.0788  1.3288
15181TIP3    H266959   4.847   5.698   0.130  1.3734 -0.0847 -1.0691
15182TIP3   OH266960   2.518   5.667   0.177  0.3840 -0.0994 -0.0010
15182TIP3    H166961   2.432   5.698   0.203 -1.0215 -1.2605 -2.7950
15182TIP3    H266962   2.508   5.572   0.170  1.7429 -0.2117 -0.8704
15183TIP3   OH266963   0.972   3.028  11.675 -0.3921  0.6225  0.0594
15183TIP3    H166964   1.014   2.992  11.597 -0.0001  1.7874 -0.2878
15183TIP3    H266965   0.950   3.118  11.651  0.1753  1.1562  1.4356
15184TIP3   OH266966   4.063   0.561   0.572 -0.1362 -0.0529 -0.0000
15184TIP3    H166967   4.099   0.645   0.544 -0.3959 -0.2923 -1.1167
15184TIP3    H266968   4.126   0.496   0.542 -0.1700 -0.2875  0.4348
15185TIP3   OH266969   1.337   2.888  15.708 -0.8492 -0.2407 -0.3939
15185TIP3    H166970   1.378   2.929  15.633  1.2688 -1.6738 -0.1040
15185TIP3    H266971   1.260   2.843  15.672 -0.3661 -0.1783 -1.5490
15186TIP3   OH266972   3.399   4.819   6.275 -0.0055 -0.4240  0.4316
15186TIP3    H166973   3.326   4.832   6.336 -0.4027  0.4432 -0.2106
15186TIP3    H266974   3.358   4.779   6.198  0.1957  0.0525  0.0761
15187TIP3   OH266975   6.030   4.985  14.788  0.7101  0.2928 -0.3546
15187TIP3    H166976   6.036   5.080  14.798 -4.1528  0.6703  2.5760
15187TIP3    H266977   6.073   4.950  14.867 -0.8788  0.4251  0.6106
15188TIP3   OH266978   4.062   5.493  16.954 -0.2169  0.3128  0.1151
15188TIP3    H166979   4.072   5.399  16.969 -0.6914  0.2198 -0.1263
15188TIP3    H266980   4.143   5.520  16.912  1.2572  0.6133  2.9008
15189TIP3   OH266981   6.744   2.512   5.219 -0.1898 -0.1601  0.2133
15189TIP3    H166982   6.758   2.582   5.282  2.3055 -0.6065  0.2347
15189TIP3    H266983   6.679   2.455   5.261 -0.3155  0.7569  1.3234
15190TIP3   OH266984   0.566   5.853  17.272  0.0954  0.0712 -0.2222
15190TIP3    H166985   0.568   5.759  17.291  0.1290  0.1189  0.0136
15190TIP3    H266986   0.599   5.894  17.352 -1.4167  0.3759  0.2703
15191TIP3   OH266987   2.943   2.515  16.592 -0.9575  0.1500 -0.2116
15191TIP3    H166988   2.902   2.584  16.644  2.5817  0.6551  2.3371
15191TIP3    H266989   3.015   2.558  16.547  0.1336 -1.4724 -0.1367
15192TIP3   OH266990   6.405   4.302  12.578 -0.8159  0.4819 -0.0245
15192TIP3    H166991   6.344   4.275  12.510  2.2526 -0.0075 -2.8347
15192TIP3    H266992   6.437   4.220  12.616  0.4968  0.5350 -0.9492
15193TIP3   OH266993   2.480   0.579   2.249 -0.3457  0.2339 -0.9001
15193TIP3    H166994   2.552   0.571   2.310 -0.9669 -0.0445 -0.1878
15193TIP3    H266995   2.519   0.614   2.169  0.6509 -0.3490 -0.6775
15194TIP3   OH266996   1.484   2.224   1.180  0.1852  0.1404  0.3096
15194TIP3    H166997   1.492   2.316   1.204 -0.3054 -0.3531  2.5580
15194TIP3    H266998   1.391   2.213   1.158  0.1677  0.0950  0.4072
15195TIP3   OH266999   3.025   1.103   6.415  0.4131  0.2586 -1.1578
15195TIP3    H167000   2.943   1.094   6.462  0.7117 -0.9919 -0.8431
15195TIP3    H267001   3.091   1.118   6.483  0.6390 -0.1278 -1.2871
15196TIP3   OH267002   4.737   6.264  13.278 -0.1229 -0.2006  0.0273
15196TIP3    H167003   4.691   6.195  13.230  0.4966  0.0562 -0.9859
15196TIP3    H267004   4.689   6.344  13.258  0.3346 -0.0394 -0.4726
15197TIP3   OH267005   2.476   6.643   3.500 -0.2219  0.0486 -0.8691
15197TIP3    H167006   2.453   6.617   3.411 -0.3668  0.5988 -0.9960
15197TIP3    H267007   2.453   6.567   3.554 -0.8408 -0.0098 -1.2024
15198TIP3   OH267008   5.652   2.085  15.705 -0.1728 -0.0921  0.6931
15198TIP3    H167009   5.744   2.106  15.720 -0.1416 -0.7386  1.5495
15198TIP3    H267010   5.652   2.034  15.624  0.0649  0.8911  0.0546
15199TIP3   OH267011   5.050   2.980   3.678 -0.5206  0.4439 -0.7033
15199TIP3    H167012   5.123   3.033   3.646 -1.7758  2.9540  0.2992
15199TIP3    H267013   4.980   3.043   3.695 -1.6107 -1.3375  2.1288
15200TIP3   OH267014   2.242   2.106  13.325  0.1751  0.2694  0.2785
15200TIP3    H167015   2.191   2.182  13.353 -0.2682 -0.5814  1.9614
15200TIP3    H267016   2.270   2.127  13.236 -0.6046  2.0398  0.4015
15201TIP3   OH267017   3.336   0.567  14.765  0.2029 -0.4093  0.3247
15201TIP3    H167018   3.271   0.516  14.814  0.2204 -0.4600  0.2953
15201TIP3    H267019   3.354   0.643  14.820 -1.7445  0.9293 -0.7507
15202TIP3   OH267020   0.028   4.904  15.296 -0.0888 -0.4877  0.1616
15202TIP3    H167021   0.033   4.845  15.372 -1.9062 -2.7852 -1.3666
15202TIP3    H267022  -0.066   4.916  15.282  0.2405  1.4772 -0.6137
15203TIP3   OH267023   6.752   5.417  12.365 -0.3765  0.2487 -0.2909
15203TIP3    H167024   6.660   5.390  12.362 -0.9004  1.9648 -2.1404
15203TIP3    H267025   6.759   5.471  12.443 -0.2389 -1.9209  1.2953
15204TIP3   OH267026   5.969   3.789   4.719 -0.7755 -0.3626  0.1532
15204TIP3    H167027   6.031   3.858   4.743  0.9861 -0.3274 -3.7452
15204TIP3    H267028   5.886   3.835   4.708  0.5316  1.6226 -3.2526
15205TIP3   OH267029   2.744   1.965   0.117  0.1172  0.5306  0.9505
15205TIP3    H167030   2.686   1.933   0.185 -1.2047  0.4053 -0.1737
15205TIP3    H267031   2.715   2.056   0.102 -2.3703 -0.5404 -2.0595
15206TIP3   OH267032   1.053   1.319  14.863 -0.3976  0.5299 -0.1971
15206TIP3    H167033   0.991   1.246  14.868 -1.4606  1.4858  1.8899
15206TIP3    H267034   1.032   1.363  14.781 -1.0223 -0.4155 -0.5531
15207TIP3   OH267035   2.794   2.076  12.221 -0.2495 -0.3067 -0.3099
15207TIP3    H167036   2.794   2.112  12.310 -0.1580  0.2832 -0.5411
15207TIP3    H267037   2.884   2.089  12.191 -0.5025  0.3389 -0.8134
15208TIP3   OH267038   5.209   3.456   6.325 -0.3329 -0.8172 -0.2241
15208TIP3    H167039   5.303   3.469   6.317 -0.6191  0.2859 -2.4617
15208TIP3    H267040   5.195   3.366   6.295 -0.1453 -0.4006 -1.6270
15209TIP3   OH267041   5.591   0.192   4.767 -0.0153 -0.6120  0.0746
15209TIP3    H167042   5.640   0.112   4.785  2.2633  0.2689 -1.7307
15209TIP3    H267043   5.593   0.201   4.672 -0.0826  1.6281  0.2209
15210TIP3   OH267044   6.575   4.698  14.099 -0.0712  0.0232  0.0714
15210TIP3    H167045   6.643   4.673  14.162  0.2950 -0.5884 -0.5582
15210TIP3    H267046   6.537   4.615  14.070  0.9245  0.1548 -1.7827
15211TIP3   OH267047   5.262   5.138   5.432  0.5074  0.1883  0.2617
15211TIP3    H167048   5.207   5.093   5.368 -1.0280  2.1379  0.1167
15211TIP3    H267049   5.349   5.099   5.422 -0.2620 -1.2201 -1.2914
15212TIP3   OH267050   4.837   0.533  12.003 -0.3757 -0.0653 -0.6366
15212TIP3    H167051   4.904   0.464  12.002 -1.6415 -1.3246 -0.7529
15212TIP3    H267052   4.806   0.535  12.093 -1.5696 -0.8882 -1.0091
15213TIP3   OH267053   0.502   3.955   1.437 -0.3798  0.3048 -0.5376
15213TIP3    H167054   0.586   3.920   1.407 -0.2337 -0.2633  0.4859
15213TIP3    H267055   0.512   3.964   1.532 -1.6373 -0.2646 -0.3257
15214TIP3   OH267056   0.322   4.908   2.604  0.0449 -0.1238  0.4573
15214TIP3    H167057   0.303   5.001   2.612 -1.3622 -0.4861  1.6446
15214TIP3    H267058   0.415   4.900   2.625 -0.0188  0.9128  1.1780
15215TIP3   OH267059   0.024   3.325  12.388 -0.3483 -0.4817  0.0056
15215TIP3    H167060   0.097   3.302  12.446 -1.0536 -1.6903  0.4602
15215TIP3    H267061   0.015   3.249  12.330  0.0490  0.5190 -1.3985
15216TIP3   OH267062   6.543   5.696   1.733  0.0383 -0.0292 -0.1464
15216TIP3    H167063   6.536   5.651   1.817 -0.5414 -0.0146 -0.1861
15216TIP3    H267064   6.461   5.677   1.688 -0.0124  0.6691 -0.3605
15217TIP3   OH267065   3.991   1.902  15.005  0.2172 -0.4751  0.4029
15217TIP3    H167066   3.897   1.907  15.019  0.2031  0.0336  0.1690
15217TIP3    H267067   4.029   1.910  15.092  0.0692  0.3367  0.3988
15218TIP3   OH267068   6.049   2.290  14.695  0.3346 -0.4343  0.4284
15218TIP3    H167069   6.005   2.272  14.612  0.2310 -2.3124  0.8330
15218TIP3    H267070   6.132   2.243  14.688 -0.6419 -2.6118  2.2277
15219TIP3   OH267071   3.091   3.685  16.962 -0.4404  0.4051  0.9404
15219TIP3    H167072   3.132   3.610  17.005 -2.0638 -0.5033  0.9611
15219TIP3    H267073   3.107   3.672  16.869 -0.1504  0.4075  0.9882
15220TIP3   OH267074   2.057   4.640   2.600 -0.3372 -0.1298 -0.0573
15220TIP3    H167075   2.092   4.657   2.687 -1.5513 -2.4689  0.9839
15220TIP3    H267076   1.962   4.641   2.612 -0.6091  1.3806 -1.8056
15221TIP3   OH267077   2.976   2.081   6.230  0.6955  0.0009  0.2091
15221TIP3    H167078   2.902   2.049   6.178  0.7678  2.0554 -1.3205
15221TIP3    H267079   2.936   2.123   6.306  0.4173 -0.4123  0.2977
15222TIP3   OH267080   3.846   2.645  14.728  0.7057  0.7668  0.5611
15222TIP3    H167081   3.921   2.608  14.775 -0.1715 -1.6229  0.2292
15222TIP3    H267082   3.798   2.569  14.697 -1.0205  2.2554 -0.6011
15223TIP3   OH267083   5.464   0.799  12.426  0.1787  0.0855 -0.2531
15223TIP3    H167084   5.478   0.838  12.513  0.3303 -0.2570 -0.1210
15223TIP3    H267085   5.402   0.857  12.383 -2.3497 -1.3464  1.2096
15224TIP3   OH267086   4.514   3.789  17.024 -0.3849  0.3882  0.0334
15224TIP3    H167087   4.596   3.748  16.996 -0.0865  1.5375 -0.8587
15224TIP3    H267088   4.485   3.838  16.947 -1.9973 -0.1104  0.2866
15225TIP3   OH267089   1.394   1.832  11.385  0.1093  0.0171 -0.0300
15225TIP3    H167090   1.307   1.839  11.426 -0.3928  0.0687 -1.0590
15225TIP3    H267091   1.398   1.907  11.325 -0.8892 -2.1946 -3.1198
15226TIP3   OH267092   6.225   6.140  15.501  0.4602 -0.0794  0.3550
15226TIP3    H167093   6.177   6.089  15.566  0.1661  1.2870  1.2561
15226TIP3    H267094   6.177   6.125  15.419 -0.2900 -0.3443  0.8295
15227TIP3   OH267095   5.748   1.997   0.509 -0.4763  0.0476 -0.2394
15227TIP3    H167096   5.832   2.006   0.554 -0.6231  3.1742 -0.3607
15227TIP3    H267097   5.772   1.968   0.420  0.2787 -0.9076  0.2546
15228TIP3   OH267098   3.134   6.034  13.186 -0.7583 -0.6573 -0.0779
15228TIP3    H167099   3.116   6.117  13.230 -1.0488 -1.0597  0.5914
15228TIP3    H267100   3.155   6.057  13.096  2.5884  0.4981  0.8336
15229TIP3   OH267101   2.026   6.591   1.566  0.2891  0.2442  0.2595
15229TIP3    H167102   1.980   6.612   1.647 -1.5302 -0.8385 -0.4359
15229TIP3    H267103   2.038   6.496   1.570 -1.1415 -0.0556 -1.3453
15230TIP3   OH267104   0.899   2.930  15.297  0.4460 -0.0398  0.0825
15230TIP3    H167105   0.993   2.927  15.278  0.7626  0.0511  1.5083
15230TIP3    H267106   0.894   2.962  15.387 -0.9149 -1.0349  0.3923
15231TIP3   OH267107   1.334   0.703  13.544  0.1860 -0.2174  0.3827
15231TIP3    H167108   1.353   0.610  13.541 -1.6326 -0.5940 -0.8937
15231TIP3    H267109   1.241   0.710  13.523  0.3475  1.9065  0.1161
15232TIP3   OH267110   2.006   2.376   0.339 -0.0809  0.1338  0.0671
15232TIP3    H167111   2.032   2.414   0.255  2.2893  2.6854  1.7621
15232TIP3    H267112   2.063   2.300   0.349 -1.2859 -0.9739 -1.1286
15233TIP3   OH267113   3.368   4.320   4.041 -0.4611 -0.5404  0.0428
15233TIP3    H167114   3.385   4.369   3.961  0.0496 -0.7300  0.0350
15233TIP3    H267115   3.437   4.254   4.045 -1.3617 -1.5479 -0.1688
15234TIP3   OH267116   5.701   0.884   2.206  0.1075 -0.1853  0.5302
15234TIP3    H167117   5.638   0.882   2.278  1.6543 -0.0935  1.9214
15234TIP3    H267118   5.736   0.973   2.208  2.4477 -1.0702  1.7381
15235TIP3   OH267119   1.823   4.706   0.456 -0.0959  0.0974  0.3973
15235TIP3    H167120   1.749   4.756   0.489  0.1950  0.1154  1.0431
15235TIP3    H267121   1.870   4.768   0.400 -1.5833 -0.4647 -1.5725
15236TIP3   OH267122   3.175   6.200  14.363 -0.3299 -0.3541  0.0875
15236TIP3    H167123   3.121   6.158  14.295  0.8578 -0.4499 -0.8331
15236TIP3    H267124   3.206   6.128  14.417 -2.3729 -0.1663  1.6176
15237TIP3   OH267125   4.074   0.508  16.143 -0.3534 -0.2986  0.0435
15237TIP3    H167126   4.113   0.542  16.062 -0.5493 -0.2646 -0.0353
15237TIP3    H267127   4.147   0.503  16.204  0.1863 -2.0373 -0.6753
15238TIP3   OH267128   0.701   0.273   2.764  0.5797 -0.0444  0.3002
15238TIP3    H167129   0.632   0.300   2.825  0.5310 -0.2583  0.3412
15238TIP3    H267130   0.722   0.183   2.790  0.9693  0.0660  0.3780
15239TIP3   OH267131   4.564   3.700  12.757 -0.4148  0.3147 -0.3432
15239TIP3    H167132   4.574   3.653  12.674 -0.3399  2.1867 -1.4640
15239TIP3    H267133   4.643   3.678  12.807 -0.2611 -0.5114 -0.9283
15240TIP3   OH267134   0.147   1.683   2.730  0.5490 -0.0266  0.8329
15240TIP3    H167135   0.096   1.714   2.654  1.3028 -1.0114 -0.1041
15240TIP3    H267136   0.161   1.590   2.713  2.0285  0.0717  1.4347
15241TIP3   OH267137   6.633   4.865   1.785  0.2103 -0.3334  0.2939
15241TIP3    H167138   6.599   4.781   1.755  1.3928 -0.1687 -1.6265
15241TIP3    H267139   6.558   4.907   1.828 -1.5082 -0.7884 -2.1010
15242TIP3   OH267140   3.289   4.727  16.527 -0.0950 -0.0930  0.2382
15242TIP3    H167141   3.308   4.761  16.614 -0.5108 -1.0672  0.7249
15242TIP3    H267142   3.315   4.797  16.467 -2.1526  1.6188  1.2423
15243TIP3   OH267143   5.935   1.581  16.571 -0.3088  0.6882 -0.0005
15243TIP3    H167144   5.909   1.668  16.602 -0.9820  0.9454 -1.2313
15243TIP3    H267145   5.919   1.523  16.646 -1.2039  1.3907  0.3678
15244TIP3   OH267146   5.350   3.569  15.348  0.1897  0.6498 -0.1916
15244TIP3    H167147   5.266   3.538  15.381  1.4344  0.0254  2.7007
15244TIP3    H267148   5.398   3.489  15.326  0.5754  0.9269 -0.3662
15245TIP3   OH267149   6.000   3.917  11.503  0.0030  0.3567 -0.5785
15245TIP3    H167150   5.948   3.912  11.423 -1.5968  2.6727  0.2177
15245TIP3    H267151   6.056   3.993  11.491  2.6224 -1.4752 -0.9726
15246TIP3   OH267152   3.986   1.674   1.128  0.1925  0.2723 -0.0967
15246TIP3    H167153   4.076   1.648   1.152  0.6046  1.3566 -0.4092
15246TIP3    H267154   3.969   1.629   1.046 -0.3579 -1.6085  0.9740
15247TIP3   OH267155   4.478   1.458   4.149  0.2594 -0.2084 -0.1046
15247TIP3    H167156   4.538   1.526   4.181 -0.6174  0.3210  0.4652
15247TIP3    H267157   4.394   1.480   4.189 -0.2516 -1.1070 -0.6560
15248TIP3   OH267158   2.407   3.547  12.846  0.3511  0.0601 -0.3290
15248TIP3    H167159   2.482   3.518  12.795  0.1361  0.5181 -0.9137
15248TIP3    H267160   2.334   3.494  12.814  0.4816 -0.6398  0.4883
15249TIP3   OH267161   6.635   3.184  14.442 -0.0494 -0.0600 -0.1265
15249TIP3    H167162   6.569   3.117  14.421  0.7413 -0.6673 -0.7486
15249TIP3    H267163   6.599   3.265  14.406  0.0192 -0.5903 -1.4476
15250TIP3   OH267164   4.807   3.287  10.973 -0.1127 -0.1745 -0.4567
15250TIP3    H167165   4.727   3.269  10.924 -1.1558 -1.4569  1.5947
15250TIP3    H267166   4.834   3.201  11.007  0.2972  0.7169  1.5657
15251TIP3   OH267167   3.603   1.089  15.425  0.2124 -0.0628  0.0502
15251TIP3    H167168   3.592   1.064  15.333  0.6945 -0.7867  0.1777
15251TIP3    H267169   3.697   1.107  15.434  0.0574  0.6749  0.2451
15252TIP3   OH267170   1.213   5.075   1.693  0.1514  0.0087  0.6480
15252TIP3    H167171   1.163   5.155   1.680  2.2584  1.5973  1.8300
15252TIP3    H267172   1.238   5.047   1.604 -0.2636  0.8843  0.2479
15253TIP3   OH267173   2.602   6.141  14.754 -0.4513  0.1391 -0.4638
15253TIP3    H167174   2.596   6.164  14.847 -0.7941  0.0622 -0.4639
15253TIP3    H267175   2.542   6.066  14.745  2.6981 -2.7154  0.1687
15254TIP3   OH267176   0.679   4.295   3.377 -0.2928  0.0635  0.3612
15254TIP3    H167177   0.697   4.208   3.412  0.8136 -0.6160 -1.7278
15254TIP3    H267178   0.761   4.344   3.389 -0.2474  0.1557 -0.2903
15255TIP3   OH267179   4.898   3.376   1.741  0.3381 -0.2250  0.1091
15255TIP3    H167180   4.896   3.280   1.736 -0.4533 -0.3047  1.3994
15255TIP3    H267181   4.894   3.395   1.835 -0.5113  1.0755 -0.1642
15256TIP3   OH267182   0.850   2.616  14.067 -0.4946  1.0576  0.4529
15256TIP3    H167183   0.774   2.665  14.099 -0.7595  0.2540  1.0804
15256TIP3    H267184   0.869   2.655  13.981 -2.3539  0.5000 -0.2533
15257TIP3   OH267185   1.216   2.830   1.894  0.4867  0.1526 -0.5041
15257TIP3    H167186   1.199   2.821   1.800  0.6456 -1.3955 -0.4172
15257TIP3    H267187   1.310   2.842   1.901  0.5849 -0.5458 -0.5199
15258TIP3   OH267188   0.882   5.701  10.493 -0.4923  0.3360 -0.1294
15258TIP3    H167189   0.866   5.768  10.426 -0.6084  0.4542  0.0160
15258TIP3    H267190   0.943   5.741  10.554 -1.7413  0.8891  0.8072
15259TIP3   OH267191   0.887   1.720  14.054  0.0977  0.0388 -0.1610
15259TIP3    H167192   0.881   1.624  14.055 -0.4932  0.0686 -0.4140
15259TIP3    H267193   0.947   1.739  13.982  0.4202 -0.1517  0.0560
15260TIP3   OH267194   6.485   6.386   5.961  0.1405 -0.4456  0.4034
15260TIP3    H167195   6.525   6.442   5.895  1.3436 -0.1020  1.3893
15260TIP3    H267196   6.474   6.442   6.038  1.2643 -1.5010  1.3745
15261TIP3   OH267197   5.700   4.136   1.165 -0.3335  0.4587 -0.5314
15261TIP3    H167198   5.637   4.118   1.234 -1.3922  2.3943 -0.9368
15261TIP3    H267199   5.768   4.189   1.208 -0.8826  1.4786 -0.8809
15262TIP3   OH267200   0.082   3.567  13.857 -0.5899  0.1516 -0.7310
15262TIP3    H167201   0.098   3.494  13.796 -1.6711 -0.4838 -0.2704
15262TIP3    H267202   0.115   3.644  13.810 -1.2028 -0.3496 -2.0379
15263TIP3   OH267203   2.995   0.206   2.016 -0.1839  0.1047  0.7235
15263TIP3    H167204   2.975   0.112   2.021 -1.7502  0.4166  0.6831
15263TIP3    H267205   3.020   0.220   1.925  1.3488 -0.4926  1.0227
15264TIP3   OH267206   5.914   2.546   4.126 -0.3534  0.1025 -0.2648
15264TIP3    H167207   5.842   2.599   4.091 -2.7397 -1.6974  1.6052
15264TIP3    H267208   5.921   2.472   4.065  0.2528  0.4923 -0.6808
15265TIP3   OH267209   4.283   4.795  16.477 -0.5819  0.4251 -0.4095
15265TIP3    H167210   4.278   4.865  16.542  1.6033  0.0614  0.2357
15265TIP3    H267211   4.374   4.765  16.482 -1.3846 -2.3194 -0.8049
15266TIP3   OH267212   2.549   5.296  15.201 -0.3996 -0.5042  0.0473
15266TIP3    H167213   2.463   5.333  15.179 -0.1558 -0.7675 -1.4697
15266TIP3    H267214   2.570   5.238  15.127  0.8572 -0.8400  0.6378
15267TIP3   OH267215   2.626   1.063  10.695  0.1026  0.0313  0.0577
15267TIP3    H167216   2.622   0.975  10.733  1.2031  0.3136  0.8755
15267TIP3    H267217   2.534   1.091  10.690 -0.1405  0.5138  3.9101
15268TIP3   OH267218   6.314   5.423  13.956  0.2622 -0.1035 -0.1173
15268TIP3    H167219   6.273   5.376  13.884  1.2760 -0.9972 -0.1406
15268TIP3    H267220   6.277   5.384  14.035 -1.5427  1.4994 -0.1059
15269TIP3   OH267221   4.802   6.733   0.791 -0.1264  0.3676 -0.2015
15269TIP3    H167222   4.726   6.676   0.780  0.4343 -0.4215 -0.0404
15269TIP3    H267223   4.854   6.719   0.711  0.9004 -0.7301  0.6179
15270TIP3   OH267224   1.879   5.474  11.963  0.6298  0.0067 -0.2871
15270TIP3    H167225   1.819   5.447  12.033  0.3197  2.4086  0.4413
15270TIP3    H267226   1.872   5.404  11.897 -0.5668 -1.3181  1.1715
15271TIP3   OH267227   3.843   5.431  11.727  0.1937  0.0230  0.5887
15271TIP3    H167228   3.913   5.424  11.792  0.1889  0.5114  0.6511
15271TIP3    H267229   3.777   5.487  11.768  0.5295  0.9642 -0.1146
15272TIP3   OH267230   0.930   4.297  11.719 -0.1699 -0.3036  0.4148
15272TIP3    H167231   1.005   4.245  11.750  0.5608  0.4823  0.0145
15272TIP3    H267232   0.966   4.351  11.649  0.0746  3.3513  3.0542
15273TIP3   OH267233   1.687   3.652  12.138 -0.1670 -0.3888  0.3138
15273TIP3    H167234   1.652   3.648  12.226 -0.7791 -0.9033  0.0570
15273TIP3    H267235   1.615   3.684  12.084  0.5455  1.0229  0.1658
15274TIP3   OH267236   4.774   1.190  10.665 -0.7892  0.3122 -0.4553
15274TIP3    H167237   4.732   1.171  10.581 -0.0136  3.4237 -1.7085
15274TIP3    H267238   4.705   1.231  10.717 -0.8725 -0.2251 -0.1352
15275TIP3   OH267239   0.449   6.655   5.556  0.1061 -0.5666 -0.1734
15275TIP3    H167240   0.480   6.607   5.633 -0.5792 -0.7753 -0.0214
15275TIP3    H267241   0.393   6.724   5.592 -1.0005 -1.2574 -0.5213
15276TIP3   OH267242   5.666   5.364  16.204 -0.5172 -0.9525 -0.0513
15276TIP3    H167243   5.673   5.424  16.278  0.3608 -1.2282  0.1067
15276TIP3    H267244   5.754   5.361  16.167 -1.3229  0.6378 -2.2962
15277TIP3   OH267245   0.536   1.220   0.840  0.2557 -0.0554 -0.2335
15277TIP3    H167246   0.517   1.178   0.924  0.1314  0.9465  0.2581
15277TIP3    H267247   0.452   1.223   0.794  0.2442 -0.2510 -0.2237
15278TIP3   OH267248   1.451   0.963   0.292  0.8769 -0.1698  0.2981
15278TIP3    H167249   1.396   1.028   0.336 -0.6820 -0.2228 -1.4075
15278TIP3    H267250   1.461   0.893   0.356  1.6338  1.2148  1.7685
15279TIP3   OH267251   5.069   0.188   0.592 -0.3461 -0.6101 -0.5200
15279TIP3    H167252   5.049   0.099   0.621 -0.8762 -0.5240 -0.6140
15279TIP3    H267253   5.078   0.238   0.673 -0.9020 -0.5671 -0.4816
15280TIP3   OH267254   0.742   0.099   0.379 -0.0250 -0.2814  1.1980
15280TIP3    H167255   0.667   0.117   0.322 -0.7292 -1.3921  1.7374
15280TIP3    H267256   0.794   0.034   0.331 -1.0893 -1.9051  2.1468
15281TIP3   OH267257   0.388   4.239  10.548 -0.3360  0.3240 -0.7037
15281TIP3    H167258   0.372   4.165  10.491 -1.1278 -0.4485  0.4740
15281TIP3    H267259   0.405   4.201  10.634 -2.4753  1.4952  0.3393
15282TIP3   OH267260   6.270   0.874  15.148  0.0446 -0.2695 -0.0029
15282TIP3    H167261   6.249   0.967  15.140  1.0581 -0.0930 -0.9428
15282TIP3    H267262   6.207   0.840  15.211 -0.2234  1.0889  0.4929
15283TIP3   OH267263   5.556   5.535   2.145 -0.3807 -0.4557 -0.0212
15283TIP3    H167264   5.608   5.459   2.172  1.0447  0.5210  0.0952
15283TIP3    H267265   5.618   5.608   2.146 -1.9152  0.8879  0.7058
15284TIP3   OH267266   4.826   3.528   4.666 -0.1292  0.5980 -0.1836
15284TIP3    H167267   4.742   3.483   4.656 -1.1899  2.3247  0.4620
15284TIP3    H267268   4.841   3.530   4.760  0.3616  0.7859 -0.2637
15285TIP3   OH267269   2.803   0.776   4.843  0.0415  0.1877 -0.0814
15285TIP3    H167270   2.852   0.758   4.763  1.7486 -0.3655  1.0213
15285TIP3    H267271   2.811   0.870   4.856  1.0017  0.0767  0.1859
15286TIP3   OH267272   2.061   1.214  12.750 -0.1909  0.4308  0.2281
15286TIP3    H167273   1.980   1.181  12.711 -0.1135  2.4732 -1.8930
15286TIP3    H267274   2.036   1.240  12.839 -0.5339 -3.7693  1.5458
15287TIP3   OH267275   2.209   5.785   1.778  0.2592  0.1852  0.1912
15287TIP3    H167276   2.144   5.839   1.823  0.8930  2.2520 -1.2305
15287TIP3    H267277   2.254   5.738   1.848 -0.9577  0.7638  1.4155
15288TIP3   OH267278   5.416   5.994  12.215 -1.0354 -0.5111  0.3189
15288TIP3    H167279   5.340   6.017  12.161 -1.0020 -1.0302  0.0364
15288TIP3    H267280   5.379   5.950  12.291 -1.0907  0.3387  0.7883
15289TIP3   OH267281   2.179   4.569   5.871 -0.2167 -0.4493 -0.4179
15289TIP3    H167282   2.171   4.593   5.964 -4.0453  0.1885 -0.7397
15289TIP3    H267283   2.222   4.644   5.830  0.7826 -0.3926  0.6716
15290TIP3   OH267284   1.887   2.833  15.424 -0.2058 -0.2131  0.2276
15290TIP3    H167285   1.897   2.750  15.469 -0.7671 -1.2797 -1.5095
15290TIP3    H267286   1.924   2.818  15.337  2.5781  2.2937  0.7950
15291TIP3   OH267287   4.523   5.215   4.141  0.1092  0.1670  0.0663
15291TIP3    H167288   4.571   5.295   4.119 -1.4041  0.8672 -0.8365
15291TIP3    H267289   4.433   5.244   4.156 -0.3756 -1.3169  0.1676
15292TIP3   OH267290   5.475   1.582  12.469  0.1128 -0.0446  0.5948
15292TIP3    H167291   5.474   1.520  12.397 -1.5462  1.6446 -0.9320
15292TIP3    H267292   5.540   1.648  12.444 -1.4306  1.2852 -0.1164
15293TIP3   OH267293   3.982   2.726  15.334  0.1270 -0.2458 -0.2312
15293TIP3    H167294   3.967   2.694  15.245 -0.0200 -0.7820 -0.0148
15293TIP3    H267295   3.958   2.653  15.391 -2.0068  0.8287  0.3655
15294TIP3   OH267296   0.366   5.973  16.869  0.3408 -0.6253  0.1159
15294TIP3    H167297   0.398   6.006  16.952 -0.0005 -0.2202  0.0906
15294TIP3    H267298   0.378   6.045  16.808  0.3756 -0.8410 -0.1356
15295TIP3   OH267299   5.611   6.258  12.288 -0.0078  0.3009  0.3791
15295TIP3    H167300   5.672   6.276  12.359 -0.3381  1.0829  0.4669
15295TIP3    H267301   5.656   6.289  12.209  0.2582 -0.3461  0.2695
15296TIP3   OH267302   0.589   1.350   6.240  0.3596 -0.0185 -0.1526
15296TIP3    H167303   0.587   1.279   6.304  1.7854 -1.0450 -1.1913
15296TIP3    H267304   0.520   1.410   6.269  1.4110 -0.0477  2.7655
15297TIP3   OH267305   0.409   1.713  12.600 -0.6172 -0.3394 -0.3635
15297TIP3    H167306   0.423   1.711  12.505 -0.4251  1.0655 -0.3849
15297TIP3    H267307   0.333   1.770  12.612  0.0460  0.4172  0.3837
15298TIP3   OH267308   4.955   1.849   2.255 -0.0560  0.6347  0.0532
15298TIP3    H167309   4.867   1.885   2.264 -0.4278 -0.3653  0.6488
15298TIP3    H267310   4.954   1.802   2.172 -1.1255 -1.9954  1.4208
15299TIP3   OH267311   0.099   2.062   1.914 -0.1057 -0.1716 -0.2134
15299TIP3    H167312   0.158   1.989   1.933 -0.1523 -0.1016  0.2191
15299TIP3    H267313   0.019   2.021   1.881 -0.8120 -0.4544  1.7198
15300TIP3   OH267314   2.920   4.119  11.241 -0.0691 -0.2758  0.0643
15300TIP3    H167315   2.887   4.032  11.221  1.6421 -1.1161  0.6527
15300TIP3    H267316   3.011   4.117  11.211 -0.2849  1.6989 -0.9305
15301TIP3   OH267317   3.544   4.238  15.147  0.3972 -0.1045  0.6487
15301TIP3    H167318   3.481   4.182  15.191 -0.0185  0.1522  0.3934
15301TIP3    H267319   3.536   4.216  15.054  0.5549  0.0536  0.5950
15302TIP3   OH267320   1.202   5.894  13.753 -0.1576  0.9826 -0.0714
15302TIP3    H167321   1.292   5.866  13.737  0.3151  2.5655 -0.2843
15302TIP3    H267322   1.156   5.813  13.777  1.2813  0.1382 -0.0573
15303TIP3   OH267323   1.271   3.741  16.105  0.0067  0.3129  0.2291
15303TIP3    H167324   1.240   3.655  16.079 -0.8747  0.6432  0.1472
15303TIP3    H267325   1.365   3.740  16.086 -0.2688 -0.1011 -1.1959
15304TIP3   OH267326   3.092   4.124   5.716 -0.6306  0.3338  0.0207
15304TIP3    H167327   3.034   4.163   5.781  0.3690  0.5418  0.8196
15304TIP3    H267328   3.178   4.163   5.734  0.7324 -3.0442  1.6384
15305TIP3   OH267329   3.656   2.590   6.196 -0.4532 -0.1014  0.5912
15305TIP3    H167330   3.660   2.507   6.149 -0.6698  0.4949 -0.5344
15305TIP3    H267331   3.648   2.656   6.126  1.4043  0.9966  1.3411
15306TIP3   OH267332   3.583   0.664  12.423 -0.1154  0.1757 -0.2172
15306TIP3    H167333   3.677   0.647  12.412 -0.3645 -0.8677 -0.8484
15306TIP3    H267334   3.578   0.758  12.438  0.9892  0.3421 -0.7752
15307TIP3   OH267335   5.321   3.608   0.647  0.3060  0.3043  0.6829
15307TIP3    H167336   5.331   3.534   0.707  1.1077  0.2223  0.4557
15307TIP3    H267337   5.341   3.573   0.561  2.7507  1.2028  0.8009
15308TIP3   OH267338   5.469   1.175   2.799 -0.7166 -0.1151  0.2359
15308TIP3    H167339   5.499   1.115   2.868  2.3465  0.1156 -0.7531
15308TIP3    H267340   5.534   1.245   2.799 -2.5475  1.6663 -0.6571
15309TIP3   OH267341   3.449   1.711  16.384  0.4146 -0.0264  0.5332
15309TIP3    H167342   3.418   1.719  16.474  1.7864  0.5397  0.9883
15309TIP3    H267343   3.414   1.627  16.353 -1.7430  0.6849  0.8824
15310TIP3   OH267344   1.599   0.779   2.617  0.1109  0.2745  0.1873
15310TIP3    H167345   1.688   0.801   2.589  0.4795  0.2426  1.3001
15310TIP3    H267346   1.602   0.685   2.636  0.2165  0.5215  1.5143
15311TIP3   OH267347   2.491   1.424  13.422 -0.4394  0.0677  0.2906
15311TIP3    H167348   2.551   1.350  13.431 -0.5695 -0.0574  0.1416
15311TIP3    H267349   2.478   1.457  13.511  1.5484  1.4503  0.1327
15312TIP3   OH267350   6.730   5.091  14.925 -0.3786  0.6798  0.6244
15312TIP3    H167351   6.720   5.162  14.988 -1.3071 -0.1361  1.4402
15312TIP3    H267352   6.710   5.011  14.975  1.0311 -0.2089 -0.1542
15313TIP3   OH267353   2.757   6.440  16.196 -0.5765 -0.5605 -0.3774
15313TIP3    H167354   2.721   6.519  16.235 -1.3755 -1.6064  1.1126
15313TIP3    H267355   2.833   6.419  16.250  0.7417  0.1674 -1.8869
15314TIP3   OH267356   1.523   5.228   0.079 -0.0668 -0.0268  0.6583
15314TIP3    H167357   1.432   5.248   0.058 -0.9750 -1.6414  2.8123
15314TIP3    H267358   1.558   5.310   0.115 -0.3189  0.8715 -1.0039
15315TIP3   OH267359   0.524   2.485  12.083  0.0027 -0.6620 -0.3886
15315TIP3    H167360   0.532   2.477  11.988 -0.6697 -0.4793 -0.4630
15315TIP3    H267361   0.597   2.434  12.118  0.9475  0.2055 -1.0252
15316TIP3   OH267362   0.784   2.067  16.160 -0.2538  0.3617 -0.2239
15316TIP3    H167363   0.875   2.097  16.164 -0.6553  1.5479  0.3378
15316TIP3    H267364   0.737   2.140  16.120 -1.3475  0.7042  1.6197
15317TIP3   OH267365   4.476   4.670   3.327  0.1013  0.4554 -0.2376
15317TIP3    H167366   4.454   4.633   3.413 -1.2845 -1.9983 -1.5464
15317TIP3    H267367   4.561   4.633   3.306  0.7771  1.6274  0.3353
15318TIP3   OH267368   3.223   5.244  11.941  0.4388  0.1179 -0.8053
15318TIP3    H167369   3.175   5.234  12.023  0.5248  1.6698 -0.5220
15318TIP3    H267370   3.277   5.165  11.934 -0.3195 -0.4997  0.1118
15319TIP3   OH267371   6.474   0.214   5.168  0.6172  0.6979  0.7182
15319TIP3    H167372   6.535   0.192   5.238  0.1936  0.5381  1.0406
15319TIP3    H267373   6.440   0.130   5.138 -1.0088  0.8505  1.9530
15320TIP3   OH267374   1.019   4.012   1.680 -0.3449 -0.6961  0.3897
15320TIP3    H167375   1.113   4.009   1.662 -0.6373 -0.1947 -1.3437
15320TIP3    H267376   0.983   3.936   1.635 -1.0301  0.2837 -0.7663
15321TIP3   OH267377   3.763   3.437  11.943 -0.6685  0.3387  0.1533
15321TIP3    H167378   3.849   3.422  11.904 -0.8942 -1.0399  0.1418
15321TIP3    H267379   3.776   3.514  11.999  1.0981 -0.9814  1.6781
15322TIP3   OH267380   5.826   4.760  14.362  0.1929 -0.4776 -0.3754
15322TIP3    H167381   5.915   4.742  14.393  0.1340 -1.3775 -0.6782
15322TIP3    H267382   5.808   4.850  14.388  0.6531 -0.7551  0.9677
15323TIP3   OH267383   1.286   1.517  12.761 -0.4446 -0.2367  0.2619
15323TIP3    H167384   1.303   1.423  12.753 -0.1202 -0.1736  0.2043
15323TIP3    H267385   1.355   1.559  12.710 -1.1836  0.0031 -0.5781
15324TIP3   OH267386   5.861   0.031   6.532 -0.1518  0.3912  0.1798
15324TIP3    H167387   5.869  -0.059   6.562  0.3523 -0.5435 -2.4601
15324TIP3    H267388   5.951   0.061   6.518 -0.3488  0.2142 -1.7378
15325TIP3   OH267389   2.551   0.555  11.203  0.2408  0.2689 -0.5471
15325TIP3    H167390   2.541   0.570  11.109 -0.4531  2.2215 -0.2038
15325TIP3    H267391   2.466   0.576  11.240  0.2410 -1.3423  0.4708
15326TIP3   OH267392   1.075   1.684  12.642 -0.3229  0.2754 -0.3363
15326TIP3    H167393   1.144   1.623  12.667  0.1301  1.1680  0.7124
15326TIP3    H267394   1.117   1.770  12.649 -1.3342  0.7861 -0.3943
15327TIP3   OH267395   1.630   1.395   2.755 -0.5398  0.2954  0.4803
15327TIP3    H167396   1.600   1.319   2.805  2.2944 -1.3762 -0.1526
15327TIP3    H267397   1.594   1.382   2.667 -1.2418  0.4695  0.7384
15328TIP3   OH267398   5.759   1.050   1.470  0.6500  0.6065  0.5678
15328TIP3    H167399   5.832   1.013   1.420  0.9267 -0.0409  1.4280
15328TIP3    H267400   5.740   1.133   1.426  1.7008  0.6383  0.1371
15329TIP3   OH267401   6.144   4.460  12.954  0.2914  0.9194 -0.1577
15329TIP3    H167402   6.189   4.483  13.035  1.0482 -0.4489 -0.1681
15329TIP3    H267403   6.208   4.477  12.885  1.9746 -3.5369  0.0045
15330TIP3   OH267404   3.165   1.730  11.615 -0.3604  0.0309 -0.2465
15330TIP3    H167405   3.248   1.778  11.613 -0.0997 -0.4105 -0.3147
15330TIP3    H267406   3.138   1.732  11.707  0.8358 -1.6603  0.1896
15331TIP3   OH267407   5.811   3.102   2.451  0.3557  0.0788  0.0833
15331TIP3    H167408   5.788   3.170   2.387  0.6843  0.7555  0.6671
15331TIP3    H267409   5.736   3.099   2.511  0.1000 -0.4694 -0.2587
15332TIP3   OH267410   2.049   4.223   3.918  0.5476 -0.6358 -0.2617
15332TIP3    H167411   2.073   4.231   4.010 -0.3688  0.5110 -0.0997
15332TIP3    H267412   1.972   4.167   3.918  0.6695 -0.8044 -0.3530
15333TIP3   OH267413   0.346   4.155   3.082  0.4019 -0.4109 -0.4737
15333TIP3    H167414   0.384   4.069   3.099  1.0860 -0.2521 -1.1190
15333TIP3    H267415   0.421   4.214   3.073  0.2357 -0.5016 -4.0681
15334TIP3   OH267416   6.074   4.406  17.180  0.4247 -0.4478 -0.6711
15334TIP3    H167417   6.048   4.488  17.222  3.1991  0.0340  0.3195
15334TIP3    H267418   5.992   4.362  17.160 -1.1645  2.4951 -1.1535
15335TIP3   OH267419   6.099   0.564  13.725 -0.9613 -0.3508 -0.2665
15335TIP3    H167420   6.029   0.628  13.711  0.5451  1.2572 -0.8386
15335TIP3    H267421   6.113   0.564  13.819 -1.5668 -0.5067 -0.1736
15336TIP3   OH267422   4.884   1.036  14.501 -0.5245  0.2688  0.4064
15336TIP3    H167423   4.812   0.980  14.473 -0.6102  0.4989  0.1583
15336TIP3    H267424   4.883   1.110  14.439  0.0433  0.1815  0.2808
15337TIP3   OH267425   3.270   1.312   2.590 -0.4239 -0.2405  0.5851
15337TIP3    H167426   3.364   1.326   2.579 -0.4802  0.6658  1.2038
15337TIP3    H267427   3.263   1.223   2.625  0.3672  0.4512  2.6732
15338TIP3   OH267428   2.772   2.056  12.508  0.2224  0.2760  0.7076
15338TIP3    H167429   2.727   1.974  12.488 -0.4781  0.8710 -0.2746
15338TIP3    H267430   2.850   2.030  12.557 -0.5348 -0.8872  1.3455
15339TIP3   OH267431   2.285   4.085  12.615 -0.3465 -0.0296  0.1029
15339TIP3    H167432   2.259   4.174  12.636  0.2786 -0.0395  1.0156
15339TIP3    H267433   2.204   4.040  12.593 -0.4949  1.1300 -1.8721
15340TIP3   OH267434   3.699   0.548   4.163 -0.3345 -0.0533 -0.3115
15340TIP3    H167435   3.663   0.633   4.136  0.7953  0.6537  0.3081
15340TIP3    H267436   3.754   0.521   4.090 -0.7453 -0.2850 -0.5360
15341TIP3   OH267437   3.322   2.916   0.397  0.5310  0.2948 -0.6325
15341TIP3    H167438   3.348   2.973   0.469 -1.8948  1.8886 -0.8853
15341TIP3    H267439   3.284   2.839   0.438 -1.4634  1.4954 -0.1215
15342TIP3   OH267440   1.560   5.969   0.753  0.0379  0.2981  0.2571
15342TIP3    H167441   1.515   5.996   0.833 -1.7965  0.5169 -0.7919
15342TIP3    H267442   1.556   6.045   0.696 -0.3635 -0.4388 -0.7336
15343TIP3   OH267443   0.067   0.639  14.165  0.2529  0.2558 -0.0310
15343TIP3    H167444   0.037   0.725  14.197 -1.7535  0.0876 -1.2475
15343TIP3    H267445   0.160   0.651  14.146  0.3344  1.7433  1.1222
15344TIP3   OH267446   4.130   5.545  14.818 -0.2345  0.3901 -0.1459
15344TIP3    H167447   4.201   5.483  14.833 -1.0645 -0.6576 -0.3533
15344TIP3    H267448   4.149   5.585  14.734  0.4013  0.5400  0.0667
15345TIP3   OH267449   2.736   2.680   1.827  0.6374 -0.4462  0.6266
15345TIP3    H167450   2.677   2.711   1.896  0.0418 -1.9041  0.7929
15345TIP3    H267451   2.796   2.753   1.813 -0.1202  0.4138  1.6774
15346TIP3   OH267452   0.706   4.933  10.375  0.4891 -0.2775  0.1399
15346TIP3    H167453   0.751   4.965  10.297 -0.3457 -2.6645 -1.4115
15346TIP3    H267454   0.776   4.897  10.430  0.8574 -0.5319 -0.4907
15347TIP3   OH267455   3.222   5.479  11.104  0.1649  0.1356 -0.2376
15347TIP3    H167456   3.274   5.471  11.025  1.0843 -1.9679  0.4934
15347TIP3    H267457   3.140   5.434  11.084  0.7340 -1.1721  0.2069
15348TIP3   OH267458   1.061   3.225   4.299  0.4699 -0.0993  0.8653
15348TIP3    H167459   1.103   3.147   4.262  0.2438 -0.3699  1.1772
15348TIP3    H267460   0.968   3.211   4.283  0.5097  0.6501 -0.1175
15349TIP3   OH267461   0.680   2.867   5.354  0.1475  0.0251  0.1303
15349TIP3    H167462   0.663   2.788   5.406  1.8464 -0.4797 -0.0453
15349TIP3    H267463   0.705   2.834   5.268 -2.2604  0.8484 -0.9744
15350TIP3   OH267464   2.220   0.066  11.351 -0.5174 -0.4751 -0.0437
15350TIP3    H167465   2.129   0.084  11.330 -0.9940 -2.2691  0.2873
15350TIP3    H267466   2.248   0.141  11.404 -2.7783 -1.2930  2.5657
15351TIP3   OH267467   1.177   4.005   4.162 -0.2485 -0.7500 -0.0699
15351TIP3    H167468   1.129   4.084   4.138  0.3256  0.1666  1.6410
15351TIP3    H267469   1.128   3.968   4.234  1.6462  0.3488  1.8954
15352TIP3   OH267470   5.785   0.982  12.622  0.2927  0.0491 -0.4384
15352TIP3    H167471   5.725   1.022  12.684 -0.9802 -0.6010 -1.2128
15352TIP3    H267472   5.781   0.888  12.641 -1.6222 -0.4125 -2.6760
15353TIP3   OH267473   3.945   2.038   0.504  0.3407 -0.3081 -0.1097
15353TIP3    H167474   3.854   2.013   0.518  1.1160 -2.5323  1.6243
15353TIP3    H267475   3.985   1.961   0.463  1.9239 -0.3680  1.4213
15354TIP3   OH267476   0.577   2.556  15.071  0.6382 -0.3704 -0.2528
15354TIP3    H167477   0.497   2.590  15.030  0.4726  1.5197  1.4730
15354TIP3    H267478   0.637   2.631  15.072  2.0318 -1.4487 -0.4836
15355TIP3   OH267479   1.163   2.929  13.853  0.4441  0.0982 -0.5279
15355TIP3    H167480   1.149   2.844  13.894 -2.1283  2.0207  3.1123
15355TIP3    H267481   1.086   2.942  13.798 -1.3600  1.5771  2.1376
15356TIP3   OH267482   1.767   6.181   3.034  0.1215 -0.2265  0.1104
15356TIP3    H167483   1.770   6.197   2.939  0.2378  0.0657  0.1609
15356TIP3    H267484   1.804   6.261   3.072  0.4493 -0.5091  0.3862
15357TIP3   OH267485   1.077   5.547   5.885  0.0720 -0.0267 -0.4306
15357TIP3    H167486   0.997   5.503   5.856 -0.1471  0.2229 -0.2147
15357TIP3    H267487   1.102   5.501   5.965  0.2519 -0.2295 -0.6047
15358TIP3   OH267488   2.244   5.759   5.398 -0.1282 -0.0938  0.0242
15358TIP3    H167489   2.319   5.705   5.422 -0.5619 -0.9167 -0.4342
15358TIP3    H267490   2.262   5.844   5.438  1.4982  0.0172 -0.8333
15359TIP3   OH267491   5.191   3.866  11.758  0.1033 -0.2217 -0.1084
15359TIP3    H167492   5.146   3.950  11.747  1.1014  0.6181  1.6354
15359TIP3    H267493   5.248   3.859  11.682  0.2833  0.8895 -0.0984
15360TIP3   OH267494   5.696   4.178  15.977 -0.6703  0.2248  0.3487
15360TIP3    H167495   5.779   4.218  15.953 -0.3158 -1.5079 -1.6515
15360TIP3    H267496   5.719   4.089  16.006 -1.5508  0.8248  3.2772
15361TIP3   OH267497   2.166   1.729   1.772  0.3010 -0.0167  0.2666
15361TIP3    H167498   2.091   1.730   1.831  0.6474 -1.2565  0.7556
15361TIP3    H267499   2.241   1.750   1.827  0.7538 -2.0786  0.5014
15362TIP3   OH267500   6.073   3.730   0.050 -0.1298 -0.3351 -0.0702
15362TIP3    H167501   6.121   3.792  -0.006  1.7966 -0.8575  0.9118
15362TIP3    H267502   6.071   3.649  -0.000  0.8973 -0.5756  0.2400
15363TIP3   OH267503   0.955   1.788  15.990 -0.3560  0.0994 -0.8034
15363TIP3    H167504   0.990   1.708  15.951  1.8457  1.2375 -1.3015
15363TIP3    H267505   0.891   1.757  16.055  0.2690 -2.0297 -1.1275
15364TIP3   OH267506   5.843   3.622   3.660  0.1785  0.2040 -0.0478
15364TIP3    H167507   5.853   3.527   3.653  0.1305  0.2432 -0.8001
15364TIP3    H267508   5.899   3.647   3.733  0.6583 -0.3323 -0.2259
15365TIP3   OH267509   5.216   4.885   2.372 -0.1838 -0.1922 -0.1930
15365TIP3    H167510   5.273   4.855   2.301  1.9075  1.8263  0.4887
15365TIP3    H267511   5.134   4.909   2.329  0.1459 -1.3552 -1.5251
15366TIP3   OH267512   5.302   1.532  16.571  0.2576 -0.0278 -0.1045
15366TIP3    H167513   5.389   1.542  16.534  1.2157 -1.6356  1.5360
15366TIP3    H267514   5.260   1.465  16.517  0.8735 -0.8365  0.3916
15367TIP3   OH267515   0.065   1.731  12.747  0.5756 -0.0711 -0.1880
15367TIP3    H167516   0.068   1.827  12.755 -1.0204 -0.0928  1.1389
15367TIP3    H267517  -0.028   1.709  12.757  0.7625 -1.6942 -1.5872
15368TIP3   OH267518   1.241   5.416  11.485 -0.6719  0.4248  0.1338
15368TIP3    H167519   1.174   5.480  11.460  0.9115  2.2150  0.3095
15368TIP3    H267520   1.304   5.466  11.536  0.2666 -1.4584  0.8869
15369TIP3   OH267521   2.534   4.085   4.341 -0.7291 -0.0981  0.2592
15369TIP3    H167522   2.623   4.087   4.377 -1.4387 -0.6655  2.1241
15369TIP3    H267523   2.522   3.995   4.312 -0.4972  0.1356 -0.6189
15370TIP3   OH267524   3.402   6.499   2.570  0.6562 -0.1655 -0.2972
15370TIP3    H167525   3.316   6.472   2.540 -0.3314  0.1014  2.0908
15370TIP3    H267526   3.397   6.595   2.576  0.9381 -0.1790  0.2938
15371TIP3   OH267527   2.088   0.599  11.807 -0.0920  0.2008  0.1931
15371TIP3    H167528   2.094   0.644  11.891 -0.6818 -1.8231  1.3849
15371TIP3    H267529   2.000   0.561  11.807 -0.9961  2.0163 -2.3843
15372TIP3   OH267530   1.759   6.567   2.587  0.3980  0.2565 -0.5717
15372TIP3    H167531   1.833   6.575   2.528  0.7382 -0.9049 -0.3377
15372TIP3    H267532   1.719   6.654   2.589  2.6345  1.3197  0.4871
15373TIP3   OH267533   2.528   2.600   4.391 -0.2669 -0.3617 -0.0932
15373TIP3    H167534   2.539   2.530   4.455  0.8230 -0.4989 -0.4208
15373TIP3    H267535   2.476   2.666   4.437  0.9184 -0.2296  1.1284
15374TIP3   OH267536   5.191   2.030   4.269  0.0333 -0.0680 -0.1077
15374TIP3    H167537   5.230   2.044   4.355 -1.5011  0.9422  0.4812
15374TIP3    H267538   5.097   2.045   4.282 -0.4776 -1.6324 -1.6030
15375TIP3   OH267539   3.701   6.723  17.358 -0.1530  0.1158 -0.5519
15375TIP3    H167540   3.632   6.766  17.308 -0.5259  0.8427  0.5461
15375TIP3    H267541   3.684   6.629  17.348 -0.0276  0.2191 -2.0196
15376TIP3   OH267542   0.417   6.123   4.508  0.4865 -0.2780  0.2368
15376TIP3    H167543   0.336   6.107   4.557  0.6818 -0.8863  0.3732
15376TIP3    H267544   0.472   6.173   4.567 -0.1651  1.0443 -0.2205
15377TIP3   OH267545   5.197   1.927  14.469 -0.0964 -0.0508  0.0003
15377TIP3    H167546   5.241   1.866  14.529 -0.1695 -0.7241 -0.6160
15377TIP3    H267547   5.106   1.926  14.497  0.2695  1.4811  1.3908
15378TIP3   OH267548   0.993   1.242   4.620 -0.1803 -0.7206 -0.4894
15378TIP3    H167549   0.915   1.191   4.640 -0.4438  0.2748  1.2117
15378TIP3    H267550   1.062   1.177   4.605 -1.2675 -1.6112 -1.9371
15379TIP3   OH267551   4.152   1.069   1.159  0.8762 -0.3571 -0.1599
15379TIP3    H167552   4.079   1.021   1.121 -0.3467  1.4081 -0.1691
15379TIP3    H267553   4.135   1.069   1.253  1.8325 -1.4289  0.0321
15380TIP3   OH267554   6.199   5.298   4.022 -0.2379 -0.1622 -0.0108
15380TIP3    H167555   6.159   5.308   3.936  1.1738 -0.1364 -0.6928
15380TIP3    H267556   6.126   5.307   4.083 -1.4062 -1.0516 -1.2171
15381TIP3   OH267557   0.531   3.203  12.701 -0.5379  0.5945  0.0811
15381TIP3    H167558   0.607   3.150  12.726 -0.7425  0.6127  0.7570
15381TIP3    H267559   0.463   3.178  12.764 -1.2714  0.1635 -0.8706
15382TIP3   OH267560   3.823   3.779  15.216  0.1275  0.0575  0.1705
15382TIP3    H167561   3.761   3.786  15.144 -0.7268  2.1551  1.0244
15382TIP3    H267562   3.881   3.854  15.206  1.1513 -0.6441  0.6433
15383TIP3   OH267563   3.035   2.626   4.231  0.0802  0.0683 -0.4528
15383TIP3    H167564   2.959   2.678   4.257 -0.5096 -0.8083 -0.3921
15383TIP3    H267565   3.018   2.539   4.265  1.0907 -0.1627 -0.4994
15384TIP3   OH267566   4.258   6.343   4.331 -0.2251 -0.4145  0.4011
15384TIP3    H167567   4.288   6.365   4.420 -1.1799  0.2556  0.5664
15384TIP3    H267568   4.335   6.356   4.276 -0.7890  4.0895  0.3449
15385TIP3   OH267569   6.104   1.988  17.210  0.4320 -0.5991  0.6085
15385TIP3    H167570   6.114   1.984  17.305  0.7846  0.7511  0.6406
15385TIP3    H267571   6.115   1.898  17.181 -0.7550 -1.2190  1.9427
15386TIP3   OH267572   2.531   5.490  16.149  0.3356 -0.8093 -0.3473
15386TIP3    H167573   2.538   5.551  16.076 -1.1075 -0.4611 -0.2314
15386TIP3    H267574   2.437   5.486  16.168  0.6480 -1.1167  1.2969
15387TIP3   OH267575   3.233   6.602  11.089  0.3844  0.1090  0.3717
15387TIP3    H167576   3.278   6.645  11.016 -2.1984  2.0009 -0.2549
15387TIP3    H267577   3.290   6.616  11.164  2.0065  0.1576 -0.8112
15388TIP3   OH267578   6.063   4.340  15.670  0.3107  0.1187  0.1362
15388TIP3    H167579   6.119   4.286  15.615 -0.5596 -0.8666  0.1718
15388TIP3    H267580   6.054   4.290  15.751  0.4188  0.8763  0.6221
15389TIP3   OH267581   5.229   3.064  16.104  0.1379  0.0195 -0.3878
15389TIP3    H167582   5.166   2.997  16.077 -0.4781 -0.1945  1.4702
15389TIP3    H267583   5.310   3.015  16.121  0.6112  0.1871 -1.9311
15390TIP3   OH267584   3.030   5.215   2.599  0.5592  0.0830  0.0575
15390TIP3    H167585   3.070   5.182   2.519  0.2616 -2.7398  0.9562
15390TIP3    H267586   2.939   5.186   2.594  0.7000 -0.7763  1.6888
15391TIP3   OH267587   3.177   0.131  11.189  0.0919 -0.3037 -0.3229
15391TIP3    H167588   3.265   0.150  11.157  0.3321  0.1180  0.5634
15391TIP3    H267589   3.119   0.162  11.119  0.6013  0.7582 -0.2909
15392TIP3   OH267590   0.319   1.353   5.006 -0.3533  0.2378 -0.1080
15392TIP3    H167591   0.385   1.416   4.976  0.1894  0.3826  1.2765
15392TIP3    H267592   0.325   1.280   4.944 -0.1020  0.9940 -0.9929
15393TIP3   OH267593   4.112   2.892  16.421 -0.3415 -0.0421  0.3737
15393TIP3    H167594   4.049   2.877  16.350 -0.2831 -0.2525  0.3639
15393TIP3    H267595   4.095   2.820  16.483  0.9679 -1.0657 -0.4008
15394TIP3   OH267596   3.660   3.712  16.538  0.1131 -0.3697  0.5510
15394TIP3    H167597   3.574   3.723  16.578  0.2956 -0.2809  0.9169
15394TIP3    H267598   3.717   3.774  16.583  0.9485 -2.1456  2.0468
15395TIP3   OH267599   5.847   0.120  14.049  0.5380 -0.1280 -0.3721
15395TIP3    H167600   5.848   0.056  13.978  0.9092  0.1095 -0.5860
15395TIP3    H267601   5.903   0.191  14.018  0.5258  0.0781  0.0688
15396TIP3   OH267602   5.695   3.907   4.700  0.2319  0.4201  0.0625
15396TIP3    H167603   5.704   3.973   4.631  1.1209 -1.4121 -1.6558
15396TIP3    H267604   5.601   3.899   4.713  0.0668  1.0352 -0.6830
15397TIP3   OH267605   6.576   6.496   3.099 -0.4998  0.3309  0.0064
15397TIP3    H167606   6.484   6.475   3.084 -0.3886  0.4127 -0.8981
15397TIP3    H267607   6.574   6.572   3.157 -0.9998  0.1496  0.2310
15398TIP3   OH267608   6.499   1.327   4.692  0.7185 -0.2015 -0.0929
15398TIP3    H167609   6.551   1.339   4.771  0.6109  0.2321 -0.0888
15398TIP3    H267610   6.504   1.233   4.674  1.7683 -0.1273 -0.2693
15399TIP3   OH267611   6.719   3.305  13.451  0.0995 -0.0421 -0.1881
15399TIP3    H167612   6.800   3.305  13.401  0.3489  0.8681  0.1811
15399TIP3    H267613   6.744   3.267  13.536  0.8022  2.4659  0.8435
15400TIP3   OH267614   0.596   2.606   0.730 -0.4026  0.3250  0.0653
15400TIP3    H167615   0.686   2.628   0.755  0.3588 -1.2135 -1.1777
15400TIP3    H267616   0.545   2.685   0.752  0.9847  0.7381  2.0422
15401TIP3   OH267617   4.699   6.485  12.059  0.2930  0.0796  0.1057
15401TIP3    H167618   4.656   6.555  12.010  1.0643  0.9514  0.6521
15401TIP3    H267619   4.752   6.440  11.994  1.0167  0.9946  0.0476
15402TIP3   OH267620   3.712   0.426  16.513  0.9088  0.5537 -0.1266
15402TIP3    H167621   3.704   0.519  16.535  0.0739  0.4833 -0.1204
15402TIP3    H267622   3.694   0.421  16.419  1.6595  0.4839 -0.2724
15403TIP3   OH267623   6.718   4.268   0.456 -0.1415 -0.1224 -0.2399
15403TIP3    H167624   6.730   4.298   0.366 -0.8203 -1.2205 -0.7095
15403TIP3    H267625   6.758   4.181   0.459 -0.8970 -0.4695  0.2785
15404TIP3   OH267626   0.490   4.184  10.921 -0.1281 -0.2194 -0.4140
15404TIP3    H167627   0.506   4.132  10.842 -0.5391  0.1164 -0.7235
15404TIP3    H267628   0.420   4.244  10.896 -0.0520  0.0946  0.1168
15405TIP3   OH267629   3.383   3.207   2.524 -0.0127 -0.1786 -0.0489
15405TIP3    H167630   3.398   3.136   2.462  1.4159  0.0969 -0.0440
15405TIP3    H267631   3.415   3.285   2.479  2.2716 -0.1509  1.4593
15406TIP3   OH267632   2.107   4.284  13.429 -0.4084  0.1711  0.0737
15406TIP3    H167633   2.109   4.233  13.510  0.2940  0.0884  0.0091
15406TIP3    H267634   2.125   4.221  13.360 -0.1279  0.3958 -0.0618
15407TIP3   OH267635   0.889   3.152   1.840 -0.1857 -0.0340  0.2003
15407TIP3    H167636   0.815   3.199   1.801  1.2686  0.8555 -1.6308
15407TIP3    H267637   0.854   3.064   1.857 -1.5806  0.2398 -0.9666
15408TIP3   OH267638   5.912   5.057  16.620 -0.8653 -0.0251  0.0484
15408TIP3    H167639   5.870   5.136  16.655 -0.0008 -0.1089  1.3095
15408TIP3    H267640   5.948   5.085  16.535  0.7678  1.4074  1.1367
15409TIP3   OH267641   3.309   0.694   3.000 -0.3707  0.0428 -0.3083
15409TIP3    H167642   3.340   0.664   2.915 -0.7543 -1.4862  0.0461
15409TIP3    H267643   3.380   0.748   3.035 -0.6228  1.5162 -1.9988
15410TIP3   OH267644   3.775   4.998  17.344 -0.4553  0.2077  0.2178
15410TIP3    H167645   3.752   4.905  17.336  1.1765 -0.1794 -0.2674
15410TIP3    H267646   3.710   5.044  17.291 -0.9489 -0.7073  0.0204
15411TIP3   OH267647   2.852   1.069   2.142 -0.1938  0.5192  0.6669
15411TIP3    H167648   2.784   1.111   2.195 -0.0648  1.0261  0.4264
15411TIP3    H267649   2.920   1.046   2.206 -0.3120  0.5657  0.8115
15412TIP3   OH267650   5.498   2.043   6.215  0.4790 -0.0873 -1.1128
15412TIP3    H167651   5.440   2.112   6.245 -0.0934 -0.5486 -1.1466
15412TIP3    H267652   5.539   2.009   6.294  0.6703  0.2107 -1.0848
15413TIP3   OH267653   5.099   3.514  14.904 -0.3008  0.5407  0.3508
15413TIP3    H167654   5.190   3.493  14.881 -0.6747 -0.7978  0.0512
15413TIP3    H267655   5.046   3.453  14.853 -1.3798  1.2690  0.5687
15414TIP3   OH267656   0.597   4.370  12.322  0.5780  0.2190  0.2019
15414TIP3    H167657   0.599   4.447  12.378  1.7507 -1.1865  2.2419
15414TIP3    H267658   0.664   4.312  12.359 -1.1483 -2.3322 -0.4083
15415TIP3   OH267659   0.072   6.080   3.040 -0.0358 -0.6840  0.4137
15415TIP3    H167660   0.060   5.992   3.075 -0.3264 -1.1139 -0.7265
15415TIP3    H267661   0.159   6.079   3.000  0.0343 -0.4006  0.5548
15416TIP3   OH267662   6.123   1.527   0.476  0.3140 -0.2346 -0.3415
15416TIP3    H167663   6.043   1.486   0.508  0.4458 -2.5483 -2.6135
15416TIP3    H267664   6.121   1.615   0.512 -2.6251 -0.6005  0.6654
15417TIP3   OH267665   2.173   6.403  13.017  0.1523 -0.6102  0.0433
15417TIP3    H167666   2.238   6.428  12.951  1.0777 -2.4270  0.1969
15417TIP3    H267667   2.176   6.307  13.018 -1.2384 -0.6741  1.3643
15418TIP3   OH267668   5.697   1.191   2.498  0.7960 -0.1273 -0.0413
15418TIP3    H167669   5.758   1.159   2.565 -0.3536  0.0427  1.1269
15418TIP3    H267670   5.731   1.156   2.416  0.5887 -2.8705  0.9546
15419TIP3   OH267671   2.930   1.663  11.081  0.0590 -0.4452 -0.5559
15419TIP3    H167672   2.979   1.648  11.001  0.5978  1.1180 -0.5554
15419TIP3    H267673   2.951   1.753  11.106 -0.2910 -0.8071  1.2129
15420TIP3   OH267674   1.330   0.486   2.858  0.4629 -0.2367 -0.1886
15420TIP3    H167675   1.332   0.514   2.949 -0.7170  1.2231 -0.5767
15420TIP3    H267676   1.237   0.473   2.838  0.5314  1.1579 -1.6399
15421TIP3   OH267677   0.712   0.935  13.963  0.3552 -0.0637  0.5204
15421TIP3    H167678   0.722   1.029  13.952 -0.8582 -0.0749 -0.9506
15421TIP3    H267679   0.797   0.905  13.996  1.6164  1.1933 -1.4116
15422TIP3   OH267680   2.567   3.127  11.893 -0.3076 -0.3213  0.2392
15422TIP3    H167681   2.516   3.073  11.832 -0.7986 -0.6728  0.9529
15422TIP3    H267682   2.605   3.195  11.837  2.3509 -2.7204 -1.1446
15423TIP3   OH267683   5.897   6.036  16.735 -0.3899 -0.4184 -0.3575
15423TIP3    H167684   5.859   6.077  16.658 -1.0095 -0.5134 -0.1097
15423TIP3    H267685   5.950   5.964  16.701 -0.6141 -0.4250 -0.6958
15424TIP3   OH267686   2.524   6.361   3.619  0.1584 -0.1574 -0.4278
15424TIP3    H167687   2.544   6.369   3.526 -1.6882 -0.3615 -0.8940
15424TIP3    H267688   2.464   6.286   3.623 -0.2747  0.2370  0.8300
15425TIP3   OH267689   4.384   0.632   1.564  0.6082  0.0446 -0.0916
15425TIP3    H167690   4.401   0.552   1.514 -2.2477  0.7382 -2.4056
15425TIP3    H267691   4.422   0.702   1.512  0.5655  0.4951  0.4708
15426TIP3   OH267692   0.443   0.628   0.144  0.2888 -0.2628  0.2975
15426TIP3    H167693   0.495   0.612   0.065 -0.1388  2.0948 -0.5406
15426TIP3    H267694   0.508   0.638   0.213  0.6298 -4.9185  0.9679
15427TIP3   OH267695   5.072   2.122  14.790 -0.1373 -0.0939 -0.1771
15427TIP3    H167696   5.081   2.034  14.827 -1.7554 -0.2828 -0.1304
15427TIP3    H267697   4.992   2.156  14.831  0.6777  1.5691  0.1173
15428TIP3   OH267698   2.982   2.895   2.982  0.2009 -0.3119  0.4926
15428TIP3    H167699   2.892   2.918   3.004 -0.3838 -2.2425  0.2787
15428TIP3    H267700   3.034   2.930   3.054 -0.8760 -0.3853  1.3276
15429TIP3   OH267701   0.066   5.009   2.315  0.0892  0.2805 -0.1814
15429TIP3    H167702   0.041   4.981   2.403 -1.3539  3.2700  0.4692
15429TIP3    H267703  -0.003   4.974   2.258 -0.2273  0.2455  0.2181
15430TIP3   OH267704   4.233   3.886   0.207  0.7319  0.1644  0.3338
15430TIP3    H167705   4.220   3.964   0.261  0.9601  0.5665 -0.1759
15430TIP3    H267706   4.288   3.916   0.134 -1.6532  0.2857 -1.5333
15431TIP3   OH267707   2.425   3.740   2.219  0.2924 -0.1493 -0.9423
15431TIP3    H167708   2.452   3.663   2.169  1.2598  1.3301 -2.8141
15431TIP3    H267709   2.456   3.814   2.168 -1.0663  1.5262  0.5304
15432TIP3   OH267710   4.156   2.418  11.634  0.3812 -0.0181 -0.4380
15432TIP3    H167711   4.124   2.381  11.716 -0.4453  0.9585 -0.2976
15432TIP3    H267712   4.173   2.342  11.578 -0.2504 -0.6462  0.2057
15433TIP3   OH267713   0.231   1.723   6.090 -0.3545  0.2611 -0.0608
15433TIP3    H167714   0.156   1.782   6.079  0.0328  0.6468 -0.6905
15433TIP3    H267715   0.195   1.645   6.133 -0.9440  0.8000  0.4220
15434TIP3   OH267716   0.641   1.333   1.892 -0.6106 -0.1708  0.4557
15434TIP3    H167717   0.710   1.391   1.925 -0.6717 -0.0311  0.3385
15434TIP3    H267718   0.607   1.378   1.815 -1.0245 -0.1042  0.6758
15435TIP3   OH267719   0.238   4.784  13.992  0.4212 -0.1228  0.2913
15435TIP3    H167720   0.231   4.753  13.902 -0.0739 -1.4803  0.7736
15435TIP3    H267721   0.149   4.805  14.018  0.4265 -0.6922  0.7856
15436TIP3   OH267722   1.920   4.047  14.195  0.1961  0.0561  0.0635
15436TIP3    H167723   1.939   4.140  14.178 -1.1697  0.5196  0.8708
15436TIP3    H267724   1.901   4.011  14.108  0.6393  0.5543 -0.2521
15437TIP3   OH267725   5.451   3.815   4.957 -0.1725 -0.6564  0.0567
15437TIP3    H167726   5.540   3.808   4.991  0.2005  1.8150 -0.2446
15437TIP3    H267727   5.399   3.844   5.032 -1.3615 -4.4398  0.9350
15438TIP3   OH267728   5.582   0.562   4.592  0.9556  0.0482  0.4410
15438TIP3    H167729   5.563   0.482   4.543 -3.6628  1.5736 -0.8187
15438TIP3    H267730   5.613   0.532   4.678 -1.1109 -3.1288  0.2144
15439TIP3   OH267731   0.200   1.004   3.896  0.5764 -0.0104  0.2789
15439TIP3    H167732   0.107   1.027   3.885  0.7368  0.6727  0.3210
15439TIP3    H267733   0.202   0.909   3.887 -0.7581 -0.6399  4.5095
15440TIP3   OH267734   0.467   4.166   2.761  0.2266 -0.0232  0.5820
15440TIP3    H167735   0.553   4.178   2.801  1.1525 -3.8638  0.1934
15440TIP3    H267736   0.486   4.126   2.676 -1.8701 -1.7337  0.8223
15441TIP3   OH267737   0.503   0.629  12.715  0.0590  0.5256 -0.5376
15441TIP3    H167738   0.498   0.695  12.646  1.9914  2.8617  1.3667
15441TIP3    H267739   0.595   0.602  12.715 -0.7067 -2.3413 -1.3193
15442TIP3   OH267740   1.309   4.100  11.954 -0.3510 -0.2114  0.1531
15442TIP3    H167741   1.398   4.133  11.963 -0.9802  2.3321 -1.8933
15442TIP3    H267742   1.254   4.169  11.990 -1.7114  1.0799 -3.8550
15443TIP3   OH267743   0.757   1.124  17.247 -0.4205 -0.1778  0.0165
15443TIP3    H167744   0.702   1.074  17.308  0.6126  0.1111  1.2298
15443TIP3    H267745   0.720   1.212  17.248 -0.1258 -0.0563  0.6011
15444TIP3   OH267746   5.496   4.211  17.337 -0.6905 -0.2549 -0.3411
15444TIP3    H167747   5.525   4.178  17.252  0.7866  0.1913 -0.0390
15444TIP3    H267748   5.430   4.277  17.316  0.9136  1.1209 -1.2666
15445TIP3   OH267749   0.045   3.138   2.605 -0.3315  0.0757 -0.0988
15445TIP3    H167750   0.035   3.106   2.515 -0.5918  1.4593 -0.5782
15445TIP3    H267751  -0.044   3.136   2.640 -0.3215  0.1002 -0.0721
15446TIP3   OH267752   0.188   2.064  13.408  0.0915 -0.7742 -0.2583
15446TIP3    H167753   0.259   2.106  13.359  0.0915  0.3750  0.6671
15446TIP3    H267754   0.204   1.970  13.398  2.1458 -0.5545  0.4847
15447TIP3   OH267755   0.194   2.069   3.637 -0.3100 -0.6989 -0.0082
15447TIP3    H167756   0.192   2.162   3.657 -0.5174 -0.4532 -1.0849
15447TIP3    H267757   0.212   2.026   3.720  0.1831  0.3253  0.4261
15448TIP3   OH267758   3.579   5.325  14.747  0.1492  0.4052 -0.1535
15448TIP3    H167759   3.540   5.238  14.732  1.2646  0.0827 -1.3393
15448TIP3    H267760   3.671   5.314  14.725  0.3384  1.8696 -0.1638
15449TIP3   OH267761   3.310   2.951  16.528  0.3211  0.3579 -0.8205
15449TIP3    H167762   3.286   2.876  16.473 -0.3883  1.1394 -1.6273
15449TIP3    H267763   3.266   3.026  16.486  0.6680  1.1555  0.1988
15450TIP3   OH267764   2.106   4.799   3.185 -0.4323 -0.1535 -0.0731
15450TIP3    H167765   2.047   4.865   3.220  1.6497  0.6910  2.0642
15450TIP3    H267766   2.171   4.848   3.135  0.6931 -0.6332  0.8840
15451TIP3   OH267767   4.794   0.725   0.742  0.6643 -0.1136  0.3718
15451TIP3    H167768   4.725   0.664   0.769 -0.8372  0.3340 -2.1445
15451TIP3    H267769   4.841   0.680   0.673  0.8329  0.8079 -0.1362
15452TIP3   OH267770   3.015   1.239  13.384  0.1750  0.2807  0.7311
15452TIP3    H167771   3.107   1.229  13.361 -0.0956 -1.2334  0.2374
15452TIP3    H267772   3.006   1.194  13.468 -0.1639  0.1855  0.6475
15453TIP3   OH267773   6.210   1.642   5.503 -1.0292 -0.3218  0.0566
15453TIP3    H167774   6.225   1.736   5.501  0.4693 -0.5446 -1.6353
15453TIP3    H267775   6.123   1.632   5.540 -1.0181  1.6906  0.7301
15454TIP3   OH267776   1.018   6.612   2.673  0.4452 -0.2286 -0.6582
15454TIP3    H167777   0.958   6.556   2.721  0.6100 -0.6228 -0.9060
15454TIP3    H267778   0.972   6.632   2.591  0.2176  0.3343 -0.3907
15455TIP3   OH267779   5.768   1.452  12.690 -0.1148  0.4241 -0.3209
15455TIP3    H167780   5.688   1.402  12.704  1.0657 -0.8417  2.8353
15455TIP3    H267781   5.770   1.515  12.762  1.6369  0.5015 -0.3900
15456TIP3   OH267782   4.120   0.821   6.527 -0.6820 -0.6251  0.3363
15456TIP3    H167783   4.097   0.911   6.548 -0.4704 -0.4223 -0.2981
15456TIP3    H267784   4.168   0.790   6.604  0.0676  0.1048  0.1787
15457TIP3   OH267785   5.096   1.524   1.417  0.2344  0.0774  0.1810
15457TIP3    H167786   5.182   1.505   1.454 -0.7935 -1.9179  1.8141
15457TIP3    H267787   5.106   1.607   1.371  2.1745  1.7448  3.2900
15458TIP3   OH267788   6.394   2.211   4.592  0.2301  0.3918  0.2110
15458TIP3    H167789   6.363   2.178   4.508 -1.6043  1.6059  0.3495
15458TIP3    H267790   6.431   2.297   4.571 -0.2858  0.7220  0.6477
15459TIP3   OH267791   3.455   2.919   3.307 -0.0455 -0.2053  0.5209
15459TIP3    H167792   3.490   2.960   3.386  0.7074 -0.9391  0.5871
15459TIP3    H267793   3.461   2.987   3.240  0.5733  0.0047  0.7783
15460TIP3   OH267794   0.732   6.678  16.200  0.1916  0.0260  0.0735
15460TIP3    H167795   0.804   6.615  16.200  0.3244  0.0995 -2.0883
15460TIP3    H267796   0.690   6.666  16.115 -1.6020  0.8470  0.7847
15461TIP3   OH267797   5.069   3.508   1.579 -0.0535 -0.5065  0.8156
15461TIP3    H167798   5.124   3.443   1.536  2.0869  0.5934  1.7601
15461TIP3    H267799   5.008   3.456   1.632  0.0116 -1.7612 -0.2847
15462TIP3   OH267800   5.342   4.799   2.111 -0.8721 -0.5370  0.6176
15462TIP3    H167801   5.435   4.818   2.099 -1.4326  3.3146  1.1651
15462TIP3    H267802   5.328   4.717   2.063  2.3593 -0.1248 -1.3326
15463TIP3   OH267803   3.529   5.679   0.636  0.5029 -0.1628 -0.0653
15463TIP3    H167804   3.454   5.665   0.694  0.6188  0.4980  0.2594
15463TIP3    H267805   3.498   5.650   0.550 -0.1429  0.1207  0.0568
15464TIP3   OH267806   3.647   6.164  17.240 -0.1572 -0.5253 -0.3742
15464TIP3    H167807   3.551   6.166  17.239 -0.3471 -0.5123  3.5088
15464TIP3    H267808   3.669   6.106  17.313  2.8280 -0.1762 -0.8759
15465TIP3   OH267809   5.928   2.941  16.435 -0.4844  0.5165  0.4776
15465TIP3    H167810   5.956   3.012  16.493  2.1269 -0.1592  0.1362
15465TIP3    H267811   5.833   2.954  16.427 -0.3746  2.8477  1.8790
15466TIP3   OH267812   1.416   4.474  14.972  0.3520 -0.1097  0.4567
15466TIP3    H167813   1.440   4.485  14.879  0.9102 -1.2291  0.4488
15466TIP3    H267814   1.413   4.563  15.006 -2.0515  0.5284 -1.1341
15467TIP3   OH267815   5.637   0.884  15.123 -0.2363 -0.1103 -0.0517
15467TIP3    H167816   5.632   0.799  15.081  1.6483 -0.2132 -0.1596
15467TIP3    H267817   5.731   0.903  15.128 -0.5613  1.4349  1.0171
15468TIP3   OH267818   5.416   0.868   4.644  0.1062 -0.1018  0.6563
15468TIP3    H167819   5.431   0.931   4.574  0.0571  0.2810  0.9885
15468TIP3    H267820   5.323   0.877   4.665  0.0853 -0.3281  0.6662
15469TIP3   OH267821   4.348   5.954   1.778 -0.1761  0.1928  0.1456
15469TIP3    H167822   4.321   5.931   1.689  1.4132 -0.3342 -0.2323
15469TIP3    H267823   4.318   5.880   1.831 -0.0801 -0.0508 -0.1376
15470TIP3   OH267824   4.392   0.528  13.601 -0.3545 -0.4407 -0.1191
15470TIP3    H167825   4.367   0.522  13.509 -0.2041 -0.7477 -0.1396
15470TIP3    H267826   4.311   0.511  13.649 -0.1465 -1.7042 -0.1815
15471TIP3   OH267827   3.493   5.497  12.214 -0.2503 -0.3130  0.1757
15471TIP3    H167828   3.456   5.412  12.188  2.3610 -1.7086  0.6565
15471TIP3    H267829   3.503   5.490  12.309 -2.0216  1.4668  0.5507
15472TIP3   OH267830   5.339   6.432  12.838 -0.2507 -0.1050 -0.0564
15472TIP3    H167831   5.284   6.415  12.762 -1.3140  0.3685  0.5881
15472TIP3    H267832   5.381   6.516  12.819  0.2194 -0.4452 -0.5299
15473TIP3   OH267833   2.160   3.183   1.912  0.4852 -1.1845  0.5086
15473TIP3    H167834   2.109   3.217   1.986  1.7072 -0.0124  0.8518
15473TIP3    H267835   2.224   3.251   1.894  2.6332 -3.0058  0.7945
15474TIP3   OH267836   5.328   4.910   2.985 -0.0074  0.0073 -0.3363
15474TIP3    H167837   5.338   4.997   3.022  0.8979 -1.2627  2.6657
15474TIP3    H267838   5.413   4.891   2.945  0.1956  0.0712  0.0575
15475TIP3   OH267839   0.337   2.366   3.321  0.3301  0.1471  1.0154
15475TIP3    H167840   0.396   2.440   3.329  0.0008  0.2123  3.4476
15475TIP3    H267841   0.335   2.347   3.227  0.4948  3.1274  0.3263
15476TIP3   OH267842   4.611   2.253   0.389  0.2703  0.2706  0.2480
15476TIP3    H167843   4.700   2.253   0.425 -0.4075  0.4907  2.0109
15476TIP3    H267844   4.611   2.182   0.325  2.0656  1.0902 -0.7469
15477TIP3   OH267845   1.263   4.829  16.415 -0.4574  0.4617 -0.5933
15477TIP3    H167846   1.258   4.791  16.503  1.2007 -0.2380 -0.7623
15477TIP3    H267847   1.204   4.904  16.418 -0.9778  0.0324  0.8916
15478TIP3   OH267848   3.732   0.528  17.093  0.2746 -0.2462  0.2316
15478TIP3    H167849   3.763   0.614  17.065  3.2598 -1.2230  0.1588
15478TIP3    H267850   3.709   0.484  17.011  0.1522 -0.0102  0.1369
15479TIP3   OH267851   3.101   3.226  12.687 -0.2060  0.3652 -0.0961
15479TIP3    H167852   3.066   3.284  12.755  1.0919  1.1392 -0.0526
15479TIP3    H267853   3.028   3.214  12.626  0.0250  3.7910 -1.2525
15480TIP3   OH267854   1.651   4.372   2.719 -0.1055  0.4845  0.4547
15480TIP3    H167855   1.586   4.394   2.652 -0.5152  0.6210  0.8907
15480TIP3    H267856   1.614   4.296   2.764  0.6116 -0.1935 -0.0785
15481TIP3   OH267857   4.861   3.470  13.944 -0.1232 -0.3195  0.1437
15481TIP3    H167858   4.847   3.559  13.911 -0.3049 -0.9413 -1.5373
15481TIP3    H267859   4.773   3.434  13.954 -0.1763  0.3792  2.9856
15482TIP3   OH267860   5.667   2.315   4.041 -0.5028 -0.6467  0.6486
15482TIP3    H167861   5.753   2.331   4.003 -0.4057 -2.2934  0.1077
15482TIP3    H267862   5.638   2.401   4.072  1.3060 -0.0570  0.8163
15483TIP3   OH267863   2.154   3.603   6.111  0.0071  0.8662  0.4496
15483TIP3    H167864   2.129   3.511   6.107  0.4197  0.7107  1.2726
15483TIP3    H267865   2.217   3.608   6.183 -1.0127  2.0068  1.3212
15484TIP3   OH267866   5.449   6.310   3.229  0.0737  0.4504  0.2089
15484TIP3    H167867   5.358   6.311   3.260 -0.0833 -0.6436 -0.1682
15484TIP3    H267868   5.483   6.397   3.251 -1.0707  0.8825  0.3307
15485TIP3   OH267869   0.003   5.886  10.604 -0.2413 -0.5054 -0.1644
15485TIP3    H167870   0.002   5.829  10.681  1.1878  0.2897  0.4767
15485TIP3    H267871   0.095   5.887  10.577 -0.4470  0.5861 -0.8393
15486TIP3   OH267872   1.886   0.563  16.312  0.3842  0.6594 -0.4749
15486TIP3    H167873   1.952   0.500  16.340 -0.8313 -0.8796 -0.8963
15486TIP3    H267874   1.933   0.624  16.255  2.0396  1.4841  1.6752
15487TIP3   OH267875   6.640   1.103   2.506 -0.0701 -0.3532 -0.3479
15487TIP3    H167876   6.619   1.190   2.542 -0.6636 -0.7917  0.3894
15487TIP3    H267877   6.697   1.122   2.431  2.1679  0.5302  1.4711
15488TIP3   OH267878   2.254   3.300   0.961  0.7230 -0.6190 -0.6362
15488TIP3    H167879   2.269   3.272   0.871  0.5525 -1.0997 -0.5166
15488TIP3    H267880   2.339   3.332   0.991  0.7913 -0.5063 -0.9485
15489TIP3   OH267881   1.581   4.278   3.729  0.0524  0.1418  0.6120
15489TIP3    H167882   1.506   4.336   3.716  0.4275  0.5459  0.2220
15489TIP3    H267883   1.643   4.330   3.780  0.0838 -0.1800  0.9063
15490TIP3   OH267884   4.173   5.011   1.752 -0.2617 -0.4895  0.2608
15490TIP3    H167885   4.193   4.959   1.674 -2.4334 -2.3524  0.8151
15490TIP3    H267886   4.184   4.949   1.825  1.5988  1.1795  1.4939
15491TIP3   OH267887   1.103   6.427   4.465  0.1295  0.8076  0.8057
15491TIP3    H167888   1.098   6.334   4.486  1.1920  0.8095  1.1619
15491TIP3    H267889   1.088   6.432   4.371  2.6108 -0.0393  0.3024
15492TIP3   OH267890   1.594   6.037  16.015  0.7427 -0.0221 -0.5581
15492TIP3    H167891   1.594   6.026  16.110 -0.9493 -1.3007 -0.6527
15492TIP3    H267892   1.602   6.131  16.001 -0.2258  0.3003  0.9095
15493TIP3   OH267893   2.654   5.761  11.092 -0.3546  0.2829  0.1549
15493TIP3    H167894   2.745   5.738  11.108 -0.1350 -1.5463 -2.9792
15493TIP3    H267895   2.604   5.704  11.151  0.4492  0.0111  0.5921
15494TIP3   OH267896   3.376   4.016  15.182  0.0118  0.1468 -0.7355
15494TIP3    H167897   3.370   3.920  15.184  1.3206  0.0255  1.9193
15494TIP3    H267898   3.287   4.046  15.199  0.3989 -0.8906  5.0876
15495TIP3   OH267899   2.663   1.835  12.752  0.3912 -0.1292 -0.4110
15495TIP3    H167900   2.665   1.929  12.768 -0.6661 -0.3924  1.5595
15495TIP3    H267901   2.586   1.804  12.799  0.3674 -1.9153 -1.5215
15496TIP3   OH267902   2.725   2.849  16.980 -0.5699  0.3417 -0.3178
15496TIP3    H167903   2.785   2.863  16.907  0.9503 -2.0283  0.3732
15496TIP3    H267904   2.780   2.815  17.050 -2.3409  0.5228  1.2548
15497TIP3   OH267905   4.721   5.804   0.835  0.0677 -0.1574  0.1144
15497TIP3    H167906   4.812   5.812   0.806 -0.1603  0.9183 -0.3418
15497TIP3    H267907   4.722   5.842   0.923 -0.1108  0.7369 -0.2574
15498TIP3   OH267908   0.932   2.854  13.721 -0.4750  0.1846 -0.1095
15498TIP3    H167909   0.917   2.761  13.738  1.0203 -0.0989 -0.2060
15498TIP3    H267910   0.929   2.862  13.626  2.2981 -0.3702 -0.3290
15499TIP3   OH267911   3.712   6.288   3.090 -0.3561  0.0671 -0.2640
15499TIP3    H167912   3.630   6.325   3.059 -0.3239  0.5695  0.2445
15499TIP3    H267913   3.766   6.280   3.011 -0.4386  0.9026 -0.4126
15500TIP3   OH267914   0.876   2.815   0.976 -0.0002 -0.2473 -0.0617
15500TIP3    H167915   0.956   2.868   0.970  1.1602 -2.0501 -1.9575
15500TIP3    H267916   0.841   2.816   0.887 -0.6962 -1.5278  0.1825
15501TIP3   OH267917   5.625   5.948   5.793 -0.3227  0.3476  0.0291
15501TIP3    H167918   5.647   6.041   5.785 -2.1208  0.8165  0.0970
15501TIP3    H267919   5.617   5.933   5.888  0.1098  0.0698  0.0268
15502TIP3   OH267920   5.303   5.639  11.305 -0.0684  0.4813 -0.1195
15502TIP3    H167921   5.270   5.716  11.259  0.5007  0.7208 -0.1333
15502TIP3    H267922   5.288   5.567  11.245 -1.9318  0.3323  0.4623
15503TIP3   OH267923   0.628   3.697   4.178 -0.1218  0.4158  0.0214
15503TIP3    H167924   0.631   3.609   4.214  0.9911  1.2842  2.2922
15503TIP3    H267925   0.689   3.695   4.104 -0.3720 -0.7851 -0.1712
15504TIP3   OH267926   5.100   5.049  17.195  0.2923  0.0307  0.2004
15504TIP3    H167927   5.031   5.115  17.191 -1.2587 -1.4510  0.7555
15504TIP3    H267928   5.122   5.031  17.103  1.5330  2.0259  0.0574
15505TIP3   OH267929   5.544   0.843  14.424 -0.1931 -0.4721 -0.0062
15505TIP3    H167930   5.576   0.902  14.356 -0.9679 -1.0128 -0.8685
15505TIP3    H267931   5.503   0.900  14.488  1.4304  0.1295  0.5286
15506TIP3   OH267932   0.930   4.307   2.705 -0.5970 -0.6331 -0.4462
15506TIP3    H167933   0.887   4.250   2.769 -2.1992  0.7944 -0.1897
15506TIP3    H267934   0.892   4.281   2.621 -0.6215 -0.5834 -0.4506
15507TIP3   OH267935   3.325   6.749   3.048  0.2981  0.1361  0.0495
15507TIP3    H167936   3.334   6.670   2.995 -0.5173  0.6264 -0.8726
15507TIP3    H267937   3.403   6.801   3.026 -1.1644  1.4298 -2.6964
15508TIP3   OH267938   4.121   4.553  16.487  0.1143  0.2612 -0.0076
15508TIP3    H167939   4.140   4.646  16.485  0.7782  0.1282 -0.1122
15508TIP3    H267940   4.030   4.546  16.457  0.2428  0.8328 -0.5503
15509TIP3   OH267941   2.780   5.303  14.480  0.2221  0.3139  0.3674
15509TIP3    H167942   2.729   5.260  14.548  0.0151  1.2607  0.8231
15509TIP3    H267943   2.738   5.388  14.469  1.6416  1.0870  0.7086
15510TIP3   OH267944   2.074   1.682  16.501 -0.3389 -0.3472  0.0062
15510TIP3    H167945   2.140   1.674  16.432 -1.5509 -0.6303 -1.1516
15510TIP3    H267946   2.078   1.597  16.547 -0.7740 -0.8635 -0.8822
15511TIP3   OH267947   4.671   3.530   4.141 -0.7072  0.3038 -0.3865
15511TIP3    H167948   4.675   3.465   4.071  0.7455 -1.4185  1.2324
15511TIP3    H267949   4.759   3.568   4.144 -1.0928  1.2269 -0.2340
15512TIP3   OH267950   3.657   0.983   5.731  0.3341 -0.5115  0.7309
15512TIP3    H167951   3.716   0.967   5.657  0.2061 -1.0859  0.7504
15512TIP3    H267952   3.709   0.961   5.808  0.3255 -0.3286  0.7891
15513TIP3   OH267953   0.647   6.036  14.473  0.0409 -0.4313 -0.0836
15513TIP3    H167954   0.596   6.011  14.550  1.6759 -0.3773  1.0626
15513TIP3    H267955   0.656   6.131  14.480  1.8970 -0.6294  0.8185
15514TIP3   OH267956   3.045   4.844  12.386  0.1690 -0.4750 -0.2929
15514TIP3    H167957   3.116   4.896  12.423  1.7468 -1.6191 -1.5637
15514TIP3    H267958   3.053   4.758  12.427 -2.3789  0.1362  1.7492
15515TIP3   OH267959   2.502   3.857   4.110 -0.0921  0.0380  0.6150
15515TIP3    H167960   2.594   3.850   4.086 -0.3303 -0.5003 -0.2190
15515TIP3    H267961   2.481   3.771   4.147 -0.5850 -0.3211 -0.4607
15516TIP3   OH267962   1.678   0.887  12.384 -0.1480  0.0211  0.0598
15516TIP3    H167963   1.686   0.961  12.444  0.8277  0.6839 -0.8444
15516TIP3    H267964   1.698   0.924  12.298 -1.5319 -0.8910 -0.7045
15517TIP3   OH267965   6.428   3.463   6.394  0.2652 -0.3894  0.3436
15517TIP3    H167966   6.382   3.545   6.374 -1.0370 -0.8781  1.1766
15517TIP3    H267967   6.481   3.484   6.471  2.5533  0.5329 -1.3695
15518TIP3   OH267968   3.597   4.785  12.709  0.0151  0.3771  0.0797
15518TIP3    H167969   3.663   4.807  12.775 -0.0878 -0.2569  0.4047
15518TIP3    H267970   3.557   4.704  12.742 -1.7689  1.3856  0.5379
15519TIP3   OH267971   0.150   4.887  12.331 -0.3296 -0.1941 -0.1603
15519TIP3    H167972   0.095   4.965  12.329  0.8380  0.6251 -1.1107
15519TIP3    H267973   0.179   4.881  12.422 -1.1600 -0.0636  0.1225
15520TIP3   OH267974   1.510   1.850   0.428  0.8093  0.5679 -0.3143
15520TIP3    H167975   1.500   1.874   0.336 -0.0660  1.0323 -0.1024
15520TIP3    H267976   1.583   1.788   0.428  1.2109  1.0184 -1.2402
15521TIP3   OH267977   5.653   0.862   6.949 -0.3918 -0.1185 -0.3025
15521TIP3    H167978   5.715   0.810   6.897 -0.5194 -0.9546  0.3690
15521TIP3    H267979   5.708   0.928   6.991  0.3188 -1.7597  1.4652
15522TIP3   OH267980   3.253   1.626   5.840  0.4902 -0.3851  0.6688
15522TIP3    H167981   3.345   1.611   5.819  0.4723 -0.7379  0.8355
15522TIP3    H267982   3.250   1.716   5.873  0.5127  0.2067 -0.8501
15523TIP3   OH267983   1.367   6.570   5.137 -0.8197 -0.1406 -0.3248
15523TIP3    H167984   1.313   6.548   5.213  1.0931 -1.6107  0.6903
15523TIP3    H267985   1.417   6.647   5.164 -1.1201  0.1706 -0.6330
15524TIP3   OH267986   0.992   4.757  16.947  0.3300 -0.7262  0.2376
15524TIP3    H167987   0.917   4.739  17.004  1.1864 -0.2113  1.5634
15524TIP3    H267988   0.974   4.706  16.868 -0.1444 -2.7090  1.5415
15525TIP3   OH267989   3.099   2.534   4.961 -0.4110 -1.1641 -0.0050
15525TIP3    H167990   3.167   2.476   4.994 -1.2396 -1.7205  0.7754
15525TIP3    H267991   3.024   2.477   4.947 -0.7039 -0.5729 -0.9307
15526TIP3   OH267992   5.209   6.693  17.075  1.2870 -0.0656  0.2131
15526TIP3    H167993   5.259   6.738  17.007  0.5562  0.3872 -0.0287
15526TIP3    H267994   5.254   6.717  17.157  2.3644 -0.8769 -0.1116
15527TIP3   OH267995   5.911   4.794  12.193  0.0498  0.0048 -0.5352
15527TIP3    H167996   5.969   4.759  12.126 -0.2704 -0.3141 -0.6467
15527TIP3    H267997   5.824   4.794  12.153 -0.5234 -2.1218  0.5444
15528TIP3   OH267998   1.702   0.646  15.486 -0.6001 -0.1165 -0.1258
15528TIP3    H167999   1.764   0.644  15.413 -1.2391  1.3828 -0.7396
15528TIP3    H268000   1.741   0.587  15.551 -0.1741 -1.7486 -1.7697
15529TIP3   OH268001   3.338   3.523   4.859 -0.0666  0.1320 -0.4551
15529TIP3    H168002   3.357   3.617   4.856 -2.0087  0.5673 -0.4276
15529TIP3    H268003   3.410   3.483   4.811  0.3547  1.7136 -1.2257
15530TIP3   OH268004   1.671   6.195  12.726 -0.1653  0.6964  0.1755
15530TIP3    H168005   1.678   6.102  12.703  0.3471  0.4528  1.2051
15530TIP3    H268006   1.603   6.230  12.669  0.9536  0.1460 -1.5919
15531TIP3   OH268007   0.652   2.535   3.717 -0.2631 -0.0384  0.2864
15531TIP3    H168008   0.665   2.483   3.638  0.0857  0.8398 -0.2569
15531TIP3    H268009   0.590   2.603   3.691 -0.8560 -0.2839  1.0327
15532TIP3   OH268010   3.358   6.418   3.140  0.0654 -0.0573  0.1722
15532TIP3    H168011   3.359   6.328   3.106 -2.9739 -0.6738  1.4265
15532TIP3    H268012   3.340   6.473   3.064 -1.2116 -0.8499 -0.1147
15533TIP3   OH268013   4.999   5.652   3.867  0.4766 -0.4040 -0.0764
15533TIP3    H168014   4.949   5.574   3.844  0.3643 -0.2720 -0.2733
15533TIP3    H268015   5.091   5.624   3.860  0.4361 -0.7735  0.7231
15534TIP3   OH268016   5.892   5.560  15.646  0.4973  0.2446  0.0845
15534TIP3    H168017   5.946   5.624  15.601  1.2437 -0.0183  0.5974
15534TIP3    H268018   5.822   5.540  15.583  0.8904  0.7163 -0.5147
15535TIP3   OH268019   4.142   6.593  16.400  0.3748  0.3486 -0.7724
15535TIP3    H168020   4.102   6.650  16.465 -1.6334 -0.5252 -1.1494
15535TIP3    H268021   4.110   6.505  16.422  3.1841 -0.6843 -0.3325
15536TIP3   OH268022   6.607   4.595   5.366  0.3348 -0.4157 -0.0893
15536TIP3    H168023   6.628   4.629   5.279  1.5665 -0.2972  0.2358
15536TIP3    H268024   6.512   4.585   5.366  0.1220  1.3446 -0.8041
15537TIP3   OH268025   4.865   0.832  13.977  0.3385 -0.0133  0.2498
15537TIP3    H168026   4.891   0.779  13.902  0.5496 -0.1576  0.4254
15537TIP3    H268027   4.854   0.920  13.942  1.8565  0.2302  0.3235
15538TIP3   OH268028   0.457   3.119   3.402  0.3448  0.5014 -0.3918
15538TIP3    H168029   0.489   3.179   3.334 -0.5814 -0.4874 -1.7809
15538TIP3    H268030   0.534   3.099   3.455  0.7372  2.6461 -0.0724
15539TIP3   OH268031   1.833   4.547  14.834  0.0573  0.0987 -0.1493
15539TIP3    H168032   1.817   4.470  14.889 -1.5342  1.5689  1.5504
15539TIP3    H268033   1.747   4.588  14.825  0.9425  1.9114 -0.6888
15540TIP3   OH268034   5.581   3.353   4.109 -0.3050 -0.8024 -0.1623
15540TIP3    H168035   5.582   3.398   4.194  0.0536 -0.2956 -0.4289
15540TIP3    H268036   5.606   3.263   4.130  0.4323 -0.5243  0.1931
15541TIP3   OH268037   1.830   4.517  10.944 -0.2861 -0.5319 -0.0960
15541TIP3    H168038   1.794   4.495  10.859  1.0297 -1.2787 -0.4788
15541TIP3    H268039   1.873   4.438  10.974 -0.6231 -0.2485  1.2277
15542TIP3   OH268040   2.494   4.420   1.706  0.2934  0.0100 -0.3570
15542TIP3    H168041   2.432   4.439   1.776 -0.0066 -0.2415 -0.5513
15542TIP3    H268042   2.444   4.366   1.644  0.6270  0.0291 -0.6433
15543TIP3   OH268043   1.110   6.310  16.915  0.2111 -0.3363  0.2027
15543TIP3    H168044   1.151   6.396  16.908 -1.1295  0.2166 -1.5897
15543TIP3    H268045   1.179   6.248  16.893  0.9510  0.3194  0.6244
15544TIP3   OH268046   1.944   0.352  17.114  0.0001 -0.2487 -0.2193
15544TIP3    H168047   1.999   0.356  17.192  1.1824  0.3058 -1.0631
15544TIP3    H268048   1.954   0.437  17.073  1.0442 -1.2150 -2.0878
15545TIP3   OH268049   4.527   5.761   5.112 -0.3023 -0.7067 -0.2056
15545TIP3    H168050   4.559   5.850   5.123  2.3741 -1.7871  1.6065
15545TIP3    H268051   4.493   5.737   5.198  1.0709 -2.1318 -0.0184
15546TIP3   OH268052   2.410   6.188   2.624  0.2292  0.0187 -0.3299
15546TIP3    H168053   2.447   6.184   2.536 -2.7647  3.0988 -1.9829
15546TIP3    H268054   2.476   6.235   2.676  2.0924 -1.9701 -0.7963
15547TIP3   OH268055   1.681   4.472   5.328  0.1512  0.8664 -0.0364
15547TIP3    H168056   1.650   4.437   5.411  0.6212 -0.2811 -0.3148
15547TIP3    H268057   1.632   4.423   5.261 -0.7518  2.2836 -0.4464
15548TIP3   OH268058   1.017   3.289   2.053  0.1989 -0.2003  0.3389
15548TIP3    H168059   0.972   3.242   1.983 -1.0956 -0.3282  1.2054
15548TIP3    H268060   0.946   3.325   2.107  1.1555  1.4861  0.5392
15549TIP3   OH268061   0.341   1.101   0.179 -0.4661  0.2057 -0.0571
15549TIP3    H168062   0.311   1.171   0.237 -0.5801  1.2863 -1.3490
15549TIP3    H268063   0.313   1.020   0.222 -0.9843  0.9799  1.1225
15550TIP3   OH268064   3.677   2.860   1.416  0.0679 -0.4287 -0.5121
15550TIP3    H168065   3.584   2.869   1.392  0.0730  0.4019 -0.2517
15550TIP3    H268066   3.676   2.854   1.511  0.3534  0.6823 -0.4305
15551TIP3   OH268067   0.870   1.249   5.251 -0.3559  0.2223  0.3908
15551TIP3    H168068   0.812   1.210   5.185 -0.9529  0.1687  0.9349
15551TIP3    H268069   0.890   1.177   5.311 -0.3944  0.4344  0.6630
15552TIP3   OH268070   0.072   5.227   3.407 -0.6873  0.1814  0.1715
15552TIP3    H168071   0.007   5.283   3.364 -2.4002 -2.0526 -0.2924
15552TIP3    H268072   0.036   5.210   3.493 -1.3275 -1.9302 -0.4559
15553TIP3   OH268073   1.812   2.521  15.028  0.3800  0.0406  0.6670
15553TIP3    H168074   1.755   2.486  14.960 -0.7293  0.8279  1.1526
15553TIP3    H268075   1.808   2.616  15.015  3.4719  0.0970 -0.7625
15554TIP3   OH268076   1.862   1.689  12.699 -0.3772 -0.1349  0.1831
15554TIP3    H168077   1.894   1.609  12.658 -2.8553 -0.7345 -0.7433
15554TIP3    H268078   1.941   1.734  12.728  1.1835 -2.0894 -0.7975
15555TIP3   OH268079   5.185   1.095  14.360  0.0088 -0.0816  0.8415
15555TIP3    H168080   5.144   1.025  14.410 -1.5416 -0.9468 -1.4560
15555TIP3    H268081   5.116   1.160  14.349  1.0657  1.2677  1.8880
15556TIP3   OH268082   0.186   4.521   5.996  0.2731 -0.5668 -0.2589
15556TIP3    H168083   0.197   4.426   5.990 -0.9762 -0.8034  0.8103
15556TIP3    H268084   0.267   4.552   6.036  0.4205 -1.2722  0.0051
15557TIP3   OH268085   1.255   4.959   5.187  0.1336  0.1750  0.0018
15557TIP3    H168086   1.232   4.902   5.261 -0.3268 -0.3481 -0.5358
15557TIP3    H268087   1.172   4.998   5.160  0.3928  0.8328  0.1396
15558TIP3   OH268088   0.597   2.043   2.616  0.3753  0.2919 -0.1975
15558TIP3    H168089   0.625   2.025   2.526  2.5408  1.4297  0.1844
15558TIP3    H268090   0.672   2.087   2.656 -0.4411 -0.4153  2.2644
15559TIP3   OH268091   4.365   3.870  12.856  0.2299 -0.3036 -0.3940
15559TIP3    H168092   4.447   3.833  12.822  0.5703 -0.2920  0.3931
15559TIP3    H268093   4.312   3.886  12.778  0.9115 -0.4673 -0.9024
15560TIP3   OH268094   4.324   0.209  12.015 -0.3395 -0.0714  0.0996
15560TIP3    H168095   4.291   0.290  11.977 -0.9769 -0.6125 -0.5100
15560TIP3    H268096   4.419   0.214  12.001 -0.5633 -0.3998 -1.9151
15561TIP3   OH268097   1.263   1.221  10.811  0.0420  1.0239 -0.0853
15561TIP3    H168098   1.179   1.181  10.789 -0.0487  1.3157 -0.2691
15561TIP3    H268099   1.239   1.305  10.851  0.1825  0.4012  1.3871
15562TIP3   OH268100   3.081   1.693  10.849  0.0034 -0.3628 -0.4084
15562TIP3    H168101   3.115   1.782  10.854 -1.1249  0.1994 -1.9314
15562TIP3    H268102   3.002   1.700  10.796  0.1735 -2.3455 -1.0162
15563TIP3   OH268103   1.401   1.655  15.443 -0.1962 -0.5637  0.0968
15563TIP3    H168104   1.337   1.664  15.514 -0.4415  0.6535 -0.2500
15563TIP3    H268105   1.463   1.727  15.457  0.2773 -0.8693 -0.3959
15564TIP3   OH268106   0.231   0.044   3.651  0.1376 -0.3136  0.4119
15564TIP3    H168107   0.145   0.040   3.609  0.9726 -0.7068 -1.3821
15564TIP3    H268108   0.236  -0.035   3.704  0.1421 -1.3627 -1.0912
15565TIP3   OH268109   0.905   6.390   3.767 -0.0403 -0.0164  0.0727
15565TIP3    H168110   0.967   6.463   3.765 -1.1054  0.9810  1.7006
15565TIP3    H268111   0.848   6.404   3.692  1.7693 -1.0683 -1.5849
15566TIP3   OH268112   0.665   3.222   3.073  0.0755  0.1615 -0.4676
15566TIP3    H168113   0.715   3.151   3.034 -3.0231 -1.2751 -2.1941
15566TIP3    H268114   0.688   3.300   3.022  0.3338 -0.5191 -1.4047
15567TIP3   OH268115   4.803   1.348  14.717  0.1822 -0.1474  0.1172
15567TIP3    H168116   4.739   1.417  14.731  0.1964  0.2551 -1.5372
15567TIP3    H268117   4.753   1.275  14.681  0.6264  0.2524 -1.4175
15568TIP3   OH268118   1.954   5.215   2.520  0.7354 -0.5197 -0.2399
15568TIP3    H168119   1.917   5.147   2.463  1.3407 -1.3801  0.3732
15568TIP3    H268120   1.918   5.297   2.486  0.5758 -1.0735 -1.4601
15569TIP3   OH268121   3.389   3.468   5.251 -0.6924 -0.6363  0.2916
15569TIP3    H168122   3.332   3.448   5.325  0.3906 -3.0201  0.5637
15569TIP3    H268123   3.470   3.502   5.291  0.2188 -2.7185  0.3434
15570TIP3   OH268124   5.558   2.791  16.620  0.3611  0.4048  0.5602
15570TIP3    H168125   5.591   2.878  16.641  1.5169  0.2844 -0.6074
15570TIP3    H268126   5.484   2.806  16.561  0.6524  0.5873  0.2440
15571TIP3   OH268127   0.412   2.906   1.126  0.5414  0.2788  0.2264
15571TIP3    H168128   0.330   2.922   1.172 -0.3675  0.1337 -1.2753
15571TIP3    H268129   0.472   2.873   1.193 -0.0013  2.2399  1.7733
15572TIP3   OH268130   4.091   6.627   1.381  0.2148 -0.4394  0.1113
15572TIP3    H168131   4.086   6.666   1.293 -1.1095 -2.5007 -0.8182
15572TIP3    H268132   4.113   6.535   1.365 -0.5178 -0.9741  1.8996
15573TIP3   OH268133   3.259   1.888   1.849 -0.1672 -0.2021 -0.3855
15573TIP3    H168134   3.272   1.962   1.789 -0.9923 -1.2031 -1.8863
15573TIP3    H268135   3.338   1.835   1.838 -0.5490 -0.6570 -1.0372
15574TIP3   OH268136   1.669   1.966  16.368  0.0299 -0.2105  0.4184
15574TIP3    H168137   1.664   1.986  16.274 -0.3159  0.2292  0.5258
15574TIP3    H268138   1.593   1.910  16.384 -1.3924  1.7469  0.9104
15575TIP3   OH268139   4.689   3.459  11.532  0.1996 -0.3037 -0.2585
15575TIP3    H168140   4.660   3.381  11.485  0.4947 -0.6802  0.1792
15575TIP3    H268141   4.651   3.532  11.483  0.4519 -0.6873 -1.0423
15576TIP3   OH268142   0.243   5.766  15.195 -0.6751  0.1101  0.5000
15576TIP3    H168143   0.289   5.705  15.251 -0.2227 -0.5690 -0.5821
15576TIP3    H268144   0.290   5.763  15.112 -2.6513 -0.6450 -0.6676
15577TIP3   OH268145   4.111   4.256   2.687 -0.2368  0.3949 -0.7550
15577TIP3    H168146   4.079   4.314   2.755 -1.5717  1.6006 -2.3181
15577TIP3    H268147   4.043   4.189   2.678  0.5288 -0.4995 -0.0741
15578TIP3   OH268148   6.391   4.739  16.781 -0.4309 -0.0188 -0.1460
15578TIP3    H168149   6.334   4.742  16.704 -3.1424 -0.8932  1.7043
15578TIP3    H268150   6.344   4.686  16.844  1.9866  0.1409  1.9517
15579TIP3   OH268151   0.160   0.504  12.969 -0.0105 -1.0981  0.1344
15579TIP3    H168152   0.174   0.471  12.880  1.1622  0.6375 -0.3784
15579TIP3    H268153   0.201   0.591  12.969  0.3814 -1.2168  2.4989
15580TIP3   OH268154   6.756   3.016   3.090 -0.1697 -0.6046 -0.1522
15580TIP3    H168155   6.814   3.092   3.088 -0.3106 -0.5039 -0.4483
15580TIP3    H268156   6.790   2.962   3.162  0.0360 -0.3469 -0.0539
15581TIP3   OH268157   1.833   4.462   4.557 -0.6030 -0.6260  0.6894
15581TIP3    H168158   1.886   4.459   4.477  0.5018  0.7314  1.3294
15581TIP3    H268159   1.826   4.555   4.578 -0.7319 -0.9636  2.2592
15582TIP3   OH268160   4.132   2.182   2.037  0.0107  0.3347  0.4697
15582TIP3    H168161   4.101   2.253   1.982  0.1173  1.0103  1.2705
15582TIP3    H268162   4.052   2.135   2.062 -0.0383  0.0339 -0.2353
15583TIP3   OH268163   3.532   1.396  11.637 -0.2800 -0.3305 -0.1359
15583TIP3    H168164   3.498   1.426  11.721 -1.0745 -2.6100  0.4380
15583TIP3    H268165   3.627   1.404  11.644 -0.4271  1.4089  0.1699
15584TIP3   OH268166   5.464   0.581   6.209  0.1462 -0.6229 -0.1522
15584TIP3    H168167   5.516   0.558   6.286 -0.6736  0.3438  0.7156
15584TIP3    H268168   5.454   0.499   6.161 -0.1209 -1.4407  1.2529
15585TIP3   OH268169   3.516   2.143  15.262  0.3629  0.4676 -0.5259
15585TIP3    H168170   3.426   2.174  15.267  0.3670  0.6873 -1.6147
15585TIP3    H268171   3.543   2.133  15.353 -1.1260 -0.6962 -0.1772
15586TIP3   OH268172   2.505   6.039  12.500 -0.1777  0.7112  0.4900
15586TIP3    H168173   2.428   6.062  12.552 -1.1514  0.7375 -0.9160
15586TIP3    H268174   2.529   5.951  12.529  0.0638  1.1994  1.8388
15587TIP3   OH268175   6.464   0.158  17.067  0.4830  0.1692  0.0223
15587TIP3    H168176   6.396   0.200  17.119 -1.3040  0.3674 -2.2746
15587TIP3    H268177   6.530   0.226  17.055  0.1139  0.6428  0.6149
15588TIP3   OH268178   3.323   0.126  13.138 -0.4217  0.0462 -0.2509
15588TIP3    H168179   3.257   0.074  13.092 -0.6870 -0.1200  0.3096
15588TIP3    H268180   3.289   0.135  13.227  0.9328 -1.2248  0.4598
15589TIP3   OH268181   0.452   1.286  11.203  0.2271 -0.0461 -0.1291
15589TIP3    H168182   0.534   1.243  11.182 -0.1074 -0.3776 -0.7773
15589TIP3    H268183   0.407   1.296  11.119 -0.5427 -0.1745  0.2569
15590TIP3   OH268184   6.629   5.866   3.403  0.2041  0.0880  0.1988
15590TIP3    H168185   6.652   5.863   3.496 -0.7283 -0.2461  0.4296
15590TIP3    H268186   6.622   5.959   3.383 -0.0231  0.1523  0.5762
15591TIP3   OH268187   3.865   4.576   4.992  0.3198 -0.4429  0.5861
15591TIP3    H168188   3.780   4.559   5.034  0.3314 -0.9012  0.4249
15591TIP3    H268189   3.866   4.518   4.916  0.6264 -0.1705  0.3781
15592TIP3   OH268190   4.354   2.598   1.703  0.0665 -0.0322  0.5141
15592TIP3    H168191   4.407   2.678   1.703  0.6786 -0.4347 -0.0763
15592TIP3    H268192   4.417   2.527   1.702 -0.4806 -0.5205  0.1392
15593TIP3   OH268193   5.443   2.880   3.664  0.1476 -0.7477 -0.2405
15593TIP3    H168194   5.381   2.948   3.690  1.4564  0.6513 -0.6639
15593TIP3    H268195   5.392   2.822   3.607 -1.2595 -0.7533  0.9382
15594TIP3   OH268196   5.611   2.832  15.101  0.4612  0.5566  0.1936
15594TIP3    H168197   5.689   2.788  15.066  0.1267 -0.0902  0.2341
15594TIP3    H268198   5.613   2.813  15.195  0.9225  1.6064  0.4123
15595TIP3   OH268199   5.548   2.720   5.532  0.4976 -0.0219  0.6203
15595TIP3    H168200   5.517   2.773   5.605  0.3070 -0.6150  0.9868
15595TIP3    H268201   5.589   2.644   5.574 -0.2003 -0.7038  0.1235
15596TIP3   OH268202   5.077   4.115  14.615  0.2918 -0.1617 -0.0169
15596TIP3    H168203   5.080   4.155  14.701 -1.3205 -2.8150  1.4180
15596TIP3    H268204   5.122   4.031  14.626  0.4633 -0.3634 -1.8974
15597TIP3   OH268205   0.833   1.987  13.888 -0.0273 -0.8670  0.2200
15597TIP3    H168206   0.856   2.066  13.839 -0.5807 -0.6372  0.3200
15597TIP3    H268207   0.900   1.923  13.864 -0.5989 -0.9403 -1.2862
15598TIP3   OH268208   5.491   5.938   3.263  0.0103  0.2593  0.3049
15598TIP3    H168209   5.570   5.992   3.264  0.2666 -0.0975  0.0439
15598TIP3    H268210   5.434   5.980   3.199 -0.0190  0.5270  0.5050
15599TIP3   OH268211   1.400   6.541   4.418 -0.2173  0.1945 -0.4753
15599TIP3    H168212   1.457   6.617   4.409  1.2667 -0.8708 -0.4623
15599TIP3    H268213   1.346   6.542   4.339  0.5778  0.6292 -1.0240
15600TIP3   OH268214   4.924   1.393   4.338  0.4035  0.1394  0.0266
15600TIP3    H168215   4.831   1.372   4.344  0.4899 -0.4750 -0.7023
15600TIP3    H268216   4.928   1.487   4.359 -0.3977  0.2210 -0.1389
15601TIP3   OH268217   6.036   6.463  12.189  0.0062  0.3257 -0.7527
15601TIP3    H168218   5.965   6.461  12.125 -1.2637  3.2963  0.4352
15601TIP3    H268219   6.073   6.551  12.182  1.7316 -0.2201  0.6591
15602TIP3   OH268220   1.336   4.169   0.316  0.0151  0.4985 -0.5154
15602TIP3    H168221   1.345   4.083   0.357 -0.6235  0.9950  0.6885
15602TIP3    H268222   1.247   4.196   0.335  1.0611  2.7434  1.7881
15603TIP3   OH268223   5.090   5.696   2.554  0.2906 -0.4232  0.3315
15603TIP3    H168224   5.111   5.603   2.547 -0.7689 -0.8230  1.8070
15603TIP3    H268225   5.096   5.729   2.465 -1.2352 -2.3624 -0.5713
15604TIP3   OH268226   3.127   0.931  16.197 -0.6459  0.9710 -0.0333
15604TIP3    H168227   3.176   0.857  16.232 -1.3033  0.8056  0.5603
15604TIP3    H268228   3.172   1.008  16.232 -0.2943  0.8416 -0.1970
15605TIP3   OH268229   5.855   6.379  14.959  0.1278  0.3099 -0.4482
15605TIP3    H168230   5.768   6.350  14.987 -0.2690  1.7451 -0.1309
15605TIP3    H268231   5.904   6.391  15.041  1.1705 -1.9549 -0.6528
15606TIP3   OH268232   1.623   4.828   4.172  0.0369 -0.0598  0.0588
15606TIP3    H168233   1.631   4.879   4.253 -1.4269  1.1854 -0.5306
15606TIP3    H268234   1.641   4.738   4.199  0.7872  0.4912  1.5169
15607TIP3   OH268235   1.772   2.821   3.820 -0.3275  0.0691  0.5543
15607TIP3    H168236   1.779   2.730   3.849 -0.9591 -0.6258 -1.3416
15607TIP3    H268237   1.698   2.857   3.869 -2.2976 -1.4945 -1.1184
15608TIP3   OH268238   3.231   4.359   4.468 -0.2340  0.1644  0.2068
15608TIP3    H168239   3.192   4.373   4.555 -1.8040 -0.2698 -0.4043
15608TIP3    H268240   3.178   4.290   4.428  0.6984  0.0979 -0.9773
15609TIP3   OH268241   0.260   3.700   2.955  0.2868  0.8767 -0.4352
15609TIP3    H168242   0.268   3.605   2.959  0.5741  0.8862 -0.7138
15609TIP3    H268243   0.304   3.730   3.034 -0.3427  0.7542 -0.0311
15610TIP3   OH268244   1.176   4.578   5.014  0.3785  0.2005  0.5784
15610TIP3    H168245   1.246   4.624   5.061  0.0028  2.8884 -1.2526
15610TIP3    H268246   1.208   4.571   4.924 -0.4497 -1.4154  0.3688
15611TIP3   OH268247   6.666   3.858   1.727  0.5521 -0.3673  0.2614
15611TIP3    H168248   6.668   3.892   1.637  0.9208 -0.7220  0.1306
15611TIP3    H268249   6.691   3.934   1.781  0.8035 -0.2735  0.0203
15612TIP3   OH268250   2.324   5.953   3.689  0.6650 -0.5971  0.3077
15612TIP3    H168251   2.310   5.885   3.755 -1.2850 -0.1212  0.4627
15612TIP3    H268252   2.247   5.946   3.632  0.4311  1.4066  0.3141
15613TIP3   OH268253   0.119   3.911   4.988  0.5012 -0.3740  0.4108
15613TIP3    H168254   0.130   3.937   5.080  3.0081  2.2688 -0.4805
15613TIP3    H268255   0.207   3.888   4.959 -0.3644 -1.8460 -1.1897
15614TIP3   OH268256   1.695   2.576  15.787  0.6566 -0.1101  0.3343
15614TIP3    H168257   1.627   2.606  15.726  2.0250  1.5647 -0.4654
15614TIP3    H268258   1.690   2.638  15.860  2.6687  1.4276 -0.7317
15615TIP3   OH268259   5.679   1.929   2.717  0.0551 -0.3957 -0.3922
15615TIP3    H168260   5.685   2.004   2.658  0.2984 -0.1557 -0.0714
15615TIP3    H268261   5.750   1.943   2.781  0.5029 -1.2125 -0.6866
15616TIP3   OH268262   5.042   5.876   3.714 -0.0222  0.2177  0.2493
15616TIP3    H168263   5.020   5.792   3.753  0.2510 -0.2533 -0.5769
15616TIP3    H268264   5.134   5.890   3.738  0.0546  0.0740  0.0502
15617TIP3   OH268265   4.683   2.904   0.692 -0.3097 -0.6049  0.4142
15617TIP3    H168266   4.765   2.887   0.737 -0.0670 -0.4909  0.0172
15617TIP3    H268267   4.681   2.999   0.679  0.2125 -0.7557 -0.9123
15618TIP3   OH268268   3.294   0.704  11.979  0.0778  0.0694  0.3536
15618TIP3    H168269   3.317   0.796  11.991  0.3111 -0.1362  1.6212
15618TIP3    H268270   3.339   0.658  12.050  0.4574 -1.1101 -0.6165
15619TIP3   OH268271   2.594   5.191   3.436 -0.3343  0.6922  0.3869
15619TIP3    H168272   2.592   5.135   3.358  0.5509  1.9469 -0.5900
15619TIP3    H268273   2.555   5.138   3.505  0.9986 -1.3357 -0.3375
15620TIP3   OH268274   2.962   0.896  13.893  0.2111 -0.7577 -0.0105
15620TIP3    H168275   3.052   0.892  13.863  0.0969 -1.8313 -0.2659
15620TIP3    H268276   2.963   0.848  13.976 -0.0636 -0.4897  0.1502
15621TIP3   OH268277   4.672   1.620  14.765  0.2999 -0.3514 -0.1441
15621TIP3    H168278   4.757   1.623  14.720 -0.6205 -0.1142 -1.9780
15621TIP3    H268279   4.691   1.651  14.853  2.0681 -0.0097 -0.5871
15622TIP3   OH268280   0.393   4.729   4.190 -0.3625 -0.0365 -0.3872
15622TIP3    H168281   0.435   4.643   4.196 -0.1294  0.1642  0.9271
15622TIP3    H268282   0.323   4.726   4.255 -0.0418  0.9530  0.0067
15623TIP3   OH268283   6.714   4.320  11.269 -0.0142 -0.3276 -0.1213
15623TIP3    H168284   6.623   4.350  11.268  0.6479  1.8272 -0.6686
15623TIP3    H268285   6.741   4.329  11.361 -0.4104 -1.2326  0.0942
15624TIP3   OH268286   5.210   4.688  13.224 -0.3017 -1.0154 -0.9415
15624TIP3    H168287   5.133   4.647  13.263 -1.3355 -0.1698 -2.0269
15624TIP3    H268288   5.178   4.728  13.143  1.4952 -1.5359 -1.9581
15625TIP3   OH268289   4.324   6.152  13.521  0.2167 -0.1498  0.3397
15625TIP3    H168290   4.355   6.071  13.481  0.0130 -0.5183  0.9221
15625TIP3    H268291   4.356   6.221  13.463  0.0259 -0.6690 -0.3869
15626TIP3   OH268292   4.660   2.051   5.311 -0.3117 -0.7301  0.1615
15626TIP3    H168293   4.647   2.110   5.385  1.2791 -1.0399  0.7272
15626TIP3    H268294   4.600   2.083   5.243 -1.9431 -0.5411  1.6103
15627TIP3   OH268295   2.317   1.731  14.825 -0.3740 -0.1856 -0.7211
15627TIP3    H168296   2.303   1.715  14.918 -0.1574  1.2536 -0.4051
15627TIP3    H268297   2.237   1.699  14.783 -0.6717 -0.4248  0.0151
15628TIP3   OH268298   5.914   6.254   4.434 -0.4071 -0.3435  0.1706
15628TIP3    H168299   5.933   6.348   4.438 -1.2866 -0.1079 -0.8968
15628TIP3    H268300   5.835   6.247   4.381  0.8138 -1.8332 -1.5917
15629TIP3   OH268301   5.854   3.437  11.645  0.1286 -0.1209  0.3557
15629TIP3    H168302   5.776   3.426  11.700 -0.2398  3.1305  0.6621
15629TIP3    H268303   5.872   3.349  11.612 -1.6028 -1.6142  3.0118
15630TIP3   OH268304   3.291   6.732   2.705  0.1976  0.2178 -0.2061
15630TIP3    H168305   3.225   6.774   2.649 -0.9919  0.1882  1.1216
15630TIP3    H268306   3.365   6.792   2.704 -0.6149  1.2611 -0.1339
15631TIP3   OH268307   0.323   0.492  13.914 -0.2665 -0.2744  0.1082
15631TIP3    H168308   0.315   0.573  13.965  0.6318  0.6814 -1.2018
15631TIP3    H268309   0.236   0.478  13.877 -0.5163 -0.1046  0.6322
15632TIP3   OH268310   1.278   6.148   5.860  0.0930  0.2374  0.4552
15632TIP3    H168311   1.305   6.223   5.912  2.5084 -1.7898  2.3100
15632TIP3    H268312   1.191   6.126   5.894  0.5554  0.5038  1.8859
15633TIP3   OH268313   5.005   4.297   1.948 -0.4776  0.0931 -0.0408
15633TIP3    H168314   4.985   4.390   1.962 -4.6029 -0.7375  0.9121
15633TIP3    H268315   4.957   4.273   1.869 -1.3682 -1.6472  0.9533
15634TIP3   OH268316   4.708   0.383   6.056  0.0199  0.2949  0.2935
15634TIP3    H168317   4.655   0.462   6.060 -0.7670 -0.2587  1.4861
15634TIP3    H268318   4.693   0.340   6.140  1.8273 -0.2333  0.3956
15635TIP3   OH268319   1.725   5.169   2.884  0.0579 -0.2675  0.0080
15635TIP3    H168320   1.813   5.197   2.857  0.2195 -0.2776  0.5104
15635TIP3    H268321   1.741   5.101   2.948 -0.3259 -0.5188 -0.1615
15636TIP3   OH268322   4.518   6.662  11.882 -0.4890 -0.5318 -0.4301
15636TIP3    H168323   4.544   6.754  11.890  1.0433 -1.0477  1.5187
15636TIP3    H268324   4.425   6.665  11.862 -0.2155  1.4370 -1.6369
15637TIP3   OH268325   6.576   2.045  12.093 -0.4531 -0.7216 -0.1638
15637TIP3    H168326   6.663   2.080  12.114  0.0560 -1.4481 -0.9938
15637TIP3    H268327   6.550   1.997  12.172  0.2317 -1.1304 -0.1762
15638TIP3   OH268328   5.684   0.019   2.315 -0.2439  0.1433  0.3299
15638TIP3    H168329   5.753   0.050   2.374 -0.4005  1.9648 -0.4023
15638TIP3    H268330   5.605   0.065   2.344 -0.4204  0.7118 -1.0087
15639TIP3   OH268331   2.882   6.728  16.390  0.1009 -0.2190  0.0273
15639TIP3    H168332   2.977   6.728  16.398  0.4241  1.3710 -2.5040
15639TIP3    H268333   2.852   6.789  16.457  1.0216  0.4218 -0.1239
15640TIP3   OH268334   4.224   2.888  12.846  0.2554 -0.2371  0.0652
15640TIP3    H168335   4.149   2.931  12.805  1.0592 -0.2884 -1.5771
15640TIP3    H268336   4.202   2.883  12.939 -1.6083  0.0449 -0.3231
15641TIP3   OH268337   0.865   3.778   5.288  0.6572  0.0329  0.0746
15641TIP3    H168338   0.911   3.847   5.336 -0.2493  0.8467 -0.2112
15641TIP3    H268339   0.796   3.749   5.348  0.1978  0.3089 -0.3132
15642TIP3   OH268340   6.581   4.903   1.441 -0.2801 -0.1770 -0.0941
15642TIP3    H168341   6.596   4.939   1.528  1.0194  1.8404 -1.0833
15642TIP3    H268342   6.485   4.901   1.432 -0.4997  3.3490  0.0035
15643TIP3   OH268343   4.809   4.482   0.331 -0.1936 -0.8022  0.0981
15643TIP3    H168344   4.738   4.513   0.274 -1.0735 -2.9179 -0.0278
15643TIP3    H268345   4.875   4.448   0.271  1.2010  1.5253  0.1959
15644TIP3   OH268346   6.364   4.662   3.123 -0.0907  0.2436  0.2398
15644TIP3    H168347   6.438   4.685   3.067 -0.3750 -0.0579 -0.2718
15644TIP3    H268348   6.360   4.732   3.188  0.1344  0.6991 -0.2292
15645TIP3   OH268349   2.575   1.786   3.506 -0.3057  0.1323 -0.1028
15645TIP3    H168350   2.626   1.866   3.521 -0.0343 -0.3483  1.8168
15645TIP3    H268351   2.620   1.743   3.433  0.7296  0.7910  0.1182
15646TIP3   OH268352   3.215   5.949   0.684 -0.2517 -0.1220 -0.3042
15646TIP3    H168353   3.156   6.023   0.671  0.2965  0.8314  1.9643
15646TIP3    H268354   3.165   5.887   0.737 -0.6249 -1.3099 -1.9915
15647TIP3   OH268355   2.924   3.680  11.551  0.1454  0.7976  0.1707
15647TIP3    H168356   2.877   3.609  11.510 -0.8657  0.9299  1.0559
15647TIP3    H268357   2.996   3.638  11.598  0.8170  0.5780 -1.0056
15648TIP3   OH268358   4.232   3.877  13.137  0.2534  0.7975  0.2027
15648TIP3    H168359   4.203   3.805  13.194 -0.4954 -0.3880 -1.6051
15648TIP3    H268360   4.181   3.952  13.168 -0.8873 -0.0554  0.4965
15649TIP3   OH268361   0.680   2.667  16.203 -0.2439 -0.3491  0.5112
15649TIP3    H168362   0.612   2.668  16.270 -0.5722 -3.6237  0.3776
15649TIP3    H268363   0.762   2.663  16.252 -0.3284 -0.0798  0.6777
15650TIP3   OH268364   4.326   2.998  17.071 -0.3899 -0.5202  0.2257
15650TIP3    H168365   4.414   2.977  17.041 -0.7745 -1.7728 -0.1278
15650TIP3    H268366   4.315   3.091  17.053  1.7648  0.3207  2.6763
15651TIP3   OH268367   4.057   4.661   2.267  0.3988 -0.2875 -0.3812
15651TIP3    H168368   4.098   4.685   2.351 -0.3706  1.4865 -0.4740
15651TIP3    H268369   4.067   4.739   2.213  0.4319 -1.2420 -1.7959
15652TIP3   OH268370   3.792   3.184   2.681  0.2395  0.3848  0.8158
15652TIP3    H168371   3.848   3.255   2.711 -1.6362  1.9871  0.6926
15652TIP3    H268372   3.790   3.192   2.586 -0.2212  0.3631  0.8214
15653TIP3   OH268373   4.685   0.265   5.029  0.0829  0.1782 -0.1696
15653TIP3    H168374   4.722   0.207   5.095  0.8186 -0.6926 -1.2969
15653TIP3    H268375   4.733   0.243   4.949  0.8575  2.8096 -0.5058
15654TIP3   OH268376   3.117   1.310   1.242  0.3423  0.6959 -0.9522
15654TIP3    H168377   3.114   1.226   1.195  0.2839  1.2562 -1.9698
15654TIP3    H268378   3.210   1.334   1.242  0.9415 -0.9220  2.2483
15655TIP3   OH268379   4.121   3.332   5.420 -0.1420  0.1073  0.2237
15655TIP3    H168380   4.028   3.341   5.439 -0.3217 -0.9822 -0.0791
15655TIP3    H268381   4.160   3.413   5.453 -1.2367  0.7209  0.0648
15656TIP3   OH268382   1.789   5.851   0.825 -0.3953  0.4015  0.0390
15656TIP3    H168383   1.719   5.901   0.784 -1.2396 -1.5578 -1.0953
15656TIP3    H268384   1.815   5.788   0.758  0.1907 -1.0416  1.5501
15657TIP3   OH268385   6.671   5.221   2.000 -0.6130 -0.5143 -0.4524
15657TIP3    H168386   6.765   5.212   1.990 -0.3295 -1.8414  2.4294
15657TIP3    H268387   6.659   5.290   2.065 -1.4963 -1.4553  0.4341
15658TIP3   OH268388   0.789   5.887   4.742 -0.3810  0.0660  0.0540
15658TIP3    H168389   0.738   5.809   4.721 -0.0033 -0.3693  0.7120
15658TIP3    H268390   0.819   5.872   4.832 -0.5742  1.1186  0.3001
15659TIP3   OH268391   5.091   4.482  16.445  0.0089  0.2040 -0.0301
15659TIP3    H168392   5.134   4.470  16.360  1.2432  0.6493  0.5028
15659TIP3    H268393   5.013   4.534  16.425  0.7263  1.0285 -0.7971
15660TIP3   OH268394   0.037   5.989  13.352 -0.0798  0.7153 -0.2905
15660TIP3    H168395   0.051   5.918  13.415 -0.7812 -0.5835 -1.5379
15660TIP3    H268396  -0.008   6.057  13.402 -1.8589 -0.8398  0.3284
15661TIP3   OH268397   3.496   6.077  12.614 -0.1686 -0.2775 -0.5067
15661TIP3    H168398   3.401   6.093  12.616 -0.2336 -0.6399 -0.7019
15661TIP3    H268399   3.531   6.145  12.556 -0.0802  1.0015  0.9436
15662TIP3   OH268400   2.723   4.330  15.272 -0.1108  0.2376 -0.4880
15662TIP3    H168401   2.707   4.407  15.218  1.0312  2.3731  2.0127
15662TIP3    H268402   2.814   4.339  15.301 -0.3622 -1.3296  0.9461
15663TIP3   OH268403   5.457   0.445   4.010  0.0307  0.3433 -0.0115
15663TIP3    H168404   5.443   0.413   3.920 -1.9211 -1.1737  0.7498
15663TIP3    H268405   5.496   0.531   3.999  0.7312 -0.1889 -2.3018
15664TIP3   OH268406   1.721   2.577  13.238  0.2545  0.4173 -0.0698
15664TIP3    H168407   1.740   2.618  13.154  0.4675  1.5341  0.5023
15664TIP3    H268408   1.626   2.586  13.248 -0.1103 -1.7058 -1.1738
15665TIP3   OH268409   6.595   5.019   3.320  0.2445 -0.0934  0.0898
15665TIP3    H168410   6.612   5.071   3.241  1.1417 -1.7188 -0.8516
15665TIP3    H268411   6.640   4.936   3.304 -0.2251 -0.7643  1.9938
15666TIP3   OH268412   2.747   1.513  15.230 -0.2055  0.2582  0.2374
15666TIP3    H168413   2.796   1.518  15.312 -0.8582 -0.7720  0.7134
15666TIP3    H268414   2.803   1.462  15.171 -0.3640 -0.2826  0.5421
15667TIP3   OH268415   0.334   2.658  10.775 -0.0705 -0.6067 -0.4417
15667TIP3    H168416   0.310   2.735  10.725  1.9396  0.2465 -0.2006
15667TIP3    H268417   0.388   2.606  10.715 -1.2864 -1.7975 -0.5565
15668TIP3   OH268418   6.387   4.685  15.849 -0.2771 -0.9026  0.4110
15668TIP3    H168419   6.452   4.645  15.791  1.6130  0.3646  1.5124
15668TIP3    H268420   6.350   4.612  15.899  2.1177 -1.4912  1.4614
15669TIP3   OH268421   2.677   6.718   4.490 -0.3177 -0.1485  0.4196
15669TIP3    H168422   2.755   6.698   4.439  0.6829  0.4175  1.6593
15669TIP3    H268423   2.609   6.663   4.453  0.2922  0.4074 -1.6600
15670TIP3   OH268424   5.600   1.310   6.458 -0.4946  0.2273 -0.4055
15670TIP3    H168425   5.640   1.388   6.418  0.9770 -0.9192 -1.2792
15670TIP3    H268426   5.646   1.236   6.418 -0.4371 -1.0685  1.8847
15671TIP3   OH268427   4.385   1.434  16.217 -0.2379 -0.5751  0.1232
15671TIP3    H168428   4.360   1.511  16.267 -0.9018  0.1042 -1.2093
15671TIP3    H268429   4.476   1.450  16.192  0.4599 -1.4137  1.9624
15672TIP3   OH268430   1.105   2.287   3.972 -0.0635  0.0938 -0.4241
15672TIP3    H168431   1.196   2.316   3.966  0.1614 -0.7502 -1.3528
15672TIP3    H268432   1.054   2.358   3.934 -0.0216  1.5032  1.9698
15673TIP3   OH268433   0.041   2.818   1.419  0.4027 -0.2359  0.2558
15673TIP3    H168434   0.056   2.842   1.511  0.6603 -1.7017  0.6201
15673TIP3    H268435  -0.039   2.766   1.420  1.3916 -1.8596 -0.0309
15674TIP3   OH268436   1.320   0.809   6.755 -0.2381 -0.1093  0.1026
15674TIP3    H168437   1.373   0.888   6.751 -1.8562  1.0950  1.3268
15674TIP3    H268438   1.259   0.817   6.682 -0.1690 -0.4058  0.0116
15675TIP3   OH268439   2.742   5.980  15.906 -0.3659  0.8096 -0.1776
15675TIP3    H168440   2.670   5.972  15.968 -0.9420 -1.9408 -1.0364
15675TIP3    H268441   2.821   5.969  15.959 -0.5877  2.4407  0.5609
15676TIP3   OH268442   1.209   4.717   0.964 -0.7240  0.3547  0.1150
15676TIP3    H168443   1.254   4.719   0.879 -1.8184 -0.2049 -0.5021
15676TIP3    H268444   1.211   4.625   0.990 -0.8140  0.4513  0.4623
15677TIP3   OH268445   1.820   4.159  11.248  0.1749  0.1774  0.6379
15677TIP3    H168446   1.756   4.149  11.319  0.2247 -0.5719  0.5868
15677TIP3    H268447   1.772   4.130  11.169  0.0618  1.1704  0.3300
15678TIP3   OH268448   5.669   6.387  16.725 -0.3350  0.0921 -0.5869
15678TIP3    H168449   5.603   6.330  16.687  1.2639 -1.8066 -0.6664
15678TIP3    H268450   5.666   6.368  16.819  0.8253 -0.8843 -0.7180
15679TIP3   OH268451   6.664   1.306   0.314  0.5326  0.2475  0.2921
15679TIP3    H168452   6.640   1.264   0.397  0.2941  0.1355  0.1679
15679TIP3    H268453   6.592   1.283   0.254  0.2089  1.1392  0.3254
15680TIP3   OH268454   6.756   2.303  12.042  0.0057 -0.3784 -0.4899
15680TIP3    H168455   6.816   2.250  12.095  2.8842  3.0639  0.1100
15680TIP3    H268456   6.697   2.344  12.105  0.7718  0.5536 -0.3478
15681TIP3   OH268457   5.784   5.159  16.945  0.3063  0.1396  0.3011
15681TIP3    H168458   5.740   5.093  16.891 -2.8036  1.9817  0.3659
15681TIP3    H268459   5.840   5.107  17.003  0.8577 -2.1394 -2.0462
15682TIP3   OH268460   1.426   1.508   1.501  0.2153 -0.0235 -0.0932
15682TIP3    H168461   1.442   1.487   1.410 -0.5425  1.8547 -0.7149
15682TIP3    H268462   1.489   1.577   1.522 -1.0786  1.1414  0.0983
15683TIP3   OH268463   6.451   2.827  13.085  0.3313 -0.2995 -0.2936
15683TIP3    H168464   6.422   2.744  13.121 -2.9578  0.4048 -0.9869
15683TIP3    H268465   6.446   2.816  12.990  0.5409  0.4768 -0.4097
15684TIP3   OH268466   4.547   6.137   5.047 -0.0366 -0.0056  0.2112
15684TIP3    H168467   4.569   6.214   4.993 -0.1849 -0.4438 -0.4914
15684TIP3    H268468   4.456   6.152   5.073  0.4227  0.8256  1.4284
15685TIP3   OH268469   5.771   2.797   2.402 -0.3805  0.0693 -0.1608
15685TIP3    H168470   5.680   2.772   2.416 -0.3201 -0.0946 -0.0560
15685TIP3    H268471   5.780   2.883   2.444  0.1100 -0.9495  1.9598
15686TIP3   OH268472   0.629   6.443   2.544  0.1366  0.4243  0.1564
15686TIP3    H168473   0.715   6.411   2.571 -0.7536 -1.1258  1.3096
15686TIP3    H268474   0.633   6.538   2.561  0.6552 -0.0145  3.0571
15687TIP3   OH268475   3.113   1.466   4.736 -0.5175 -0.0599 -0.0970
15687TIP3    H168476   3.203   1.496   4.750 -0.4343 -0.3362 -0.0287
15687TIP3    H268477   3.068   1.541   4.698 -0.2815  0.1111 -0.0404
15688TIP3   OH268478   4.349   5.596  13.334  0.0872  0.3627 -0.3800
15688TIP3    H168479   4.322   5.537  13.404  1.7339 -1.0074 -0.8575
15688TIP3    H268480   4.269   5.646  13.313 -1.2076 -1.2820  0.4202
15689TIP3   OH268481   3.515   1.911   0.475 -0.2166 -0.1443  0.3550
15689TIP3    H168482   3.566   1.860   0.412  1.5815  0.4449  1.2501
15689TIP3    H268483   3.473   1.979   0.423  0.6186 -0.1334 -0.3253
15690TIP3   OH268484   2.143   1.561   0.732  0.0727 -0.2217 -0.5326
15690TIP3    H168485   2.164   1.635   0.789  1.5774 -1.0570  0.0783
15690TIP3    H268486   2.079   1.595   0.669 -1.0522  0.9493  1.1582
15691TIP3   OH268487   6.268   2.352  11.532  0.3416  0.0470  0.0392
15691TIP3    H168488   6.302   2.319  11.615 -0.0799  1.3812  0.7730
15691TIP3    H268489   6.224   2.277  11.493  0.0310 -0.4655  1.3081
15692TIP3   OH268490   1.755   1.366   1.903  0.4926  0.0652  0.2570
15692TIP3    H168491   1.835   1.389   1.950 -0.0846  0.0526  1.2912
15692TIP3    H268492   1.697   1.441   1.918  0.1708 -0.1035 -0.1380
15693TIP3   OH268493   5.779   1.234   5.838 -0.8408  0.3278 -0.2081
15693TIP3    H168494   5.700   1.289   5.835 -1.0066  0.1954  1.3358
15693TIP3    H268495   5.754   1.159   5.891  0.6868  0.9052  1.4117
15694TIP3   OH268496   5.205   5.328   0.290  0.2083 -0.0245 -0.0471
15694TIP3    H168497   5.179   5.279   0.368  0.6782 -1.6302 -0.8456
15694TIP3    H268498   5.292   5.362   0.311 -0.3138  0.8694  0.6874
15695TIP3   OH268499   4.120   0.230   5.156 -0.3941 -0.2770 -0.6678
15695TIP3    H168500   4.115   0.311   5.206  0.4591  0.2775 -1.4403
15695TIP3    H268501   4.201   0.239   5.105 -0.0176 -1.8408 -0.3864
15696TIP3   OH268502   3.124   0.013   6.005 -0.0109 -0.4168  0.0821
15696TIP3    H168503   3.034   0.047   6.001  0.5256  0.9692 -0.7514
15696TIP3    H268504   3.144   0.012   6.099 -1.1074 -1.3519  0.3305
15697TIP3   OH268505   6.085   3.526   2.231 -0.0675 -0.5850  0.3945
15697TIP3    H168506   6.074   3.541   2.325  0.0259  0.6457  0.2268
15697TIP3    H268507   6.029   3.592   2.190  0.6755 -0.4410 -0.4083
15698TIP3   OH268508   4.517   0.911  12.623 -0.1073 -0.3260  0.4239
15698TIP3    H168509   4.553   1.000  12.614  1.9308 -1.1011  0.3804
15698TIP3    H268510   4.496   0.885  12.533 -0.1195 -0.1201  0.3652
15699TIP3   OH268511   3.294   2.619   4.253  0.0970  0.3301  0.4260
15699TIP3    H168512   3.199   2.628   4.242  0.2281  0.7069 -0.5118
15699TIP3    H268513   3.314   2.531   4.221  0.1795  0.5944 -0.2648
15700TIP3   OH268514   3.928   1.830   4.242  0.4926 -0.3603  0.1153
15700TIP3    H168515   3.973   1.863   4.319  0.0879 -1.2249  0.7423
15700TIP3    H268516   3.835   1.840   4.262  0.3798  0.2639 -0.6534
15701TIP3   OH268517   2.835   2.210   3.659  0.8402 -0.2729 -0.1156
15701TIP3    H168518   2.902   2.278   3.665 -0.3208  0.7923  2.9120
15701TIP3    H268519   2.881   2.128   3.676  1.5349  0.3656  1.2070
15702TIP3   OH268520   2.404   4.747   5.068 -0.2889 -0.2282  0.6195
15702TIP3    H168521   2.392   4.713   5.157  0.1200  1.1064  1.2120
15702TIP3    H268522   2.331   4.710   5.018 -0.4554 -1.0950  1.4811
15703TIP3   OH268523   4.676   0.779  15.980 -0.3840  0.4161 -0.4042
15703TIP3    H168524   4.692   0.873  15.977  0.2682  0.3026 -0.7338
15703TIP3    H268525   4.581   0.770  15.991 -0.3230  1.1161  0.8267
15704TIP3   OH268526   6.166   0.537   1.748  0.4898 -0.8245  0.1030
15704TIP3    H168527   6.128   0.622   1.727 -0.0780 -1.2598 -0.6901
15704TIP3    H268528   6.092   0.486   1.782  0.7045 -1.1838  0.0265
15705TIP3   OH268529   2.057   1.806   3.549 -0.2966  0.2724 -0.3832
15705TIP3    H168530   2.146   1.819   3.514 -0.4794  0.5615 -0.7475
15705TIP3    H268531   2.070   1.794   3.643  0.0221  1.5625 -0.2486
15706TIP3   OH268532   0.993   2.037  11.220 -0.7795 -0.8367  0.4696
15706TIP3    H168533   0.980   1.967  11.156  1.0171 -0.4084 -0.4263
15706TIP3    H268534   1.012   2.115  11.167  0.8776 -0.4948  1.4918
15707TIP3   OH268535   6.047   2.559   2.788  0.1586 -0.0788 -0.1830
15707TIP3    H168536   6.030   2.560   2.694 -0.0874  0.2618 -0.1344
15707TIP3    H268537   5.960   2.557   2.828  0.2027  1.8979  0.0712
15708TIP3   OH268538   0.341   3.093  12.484 -0.1887 -0.7397  0.2759
15708TIP3    H168539   0.300   3.042  12.554  1.3750 -1.0176  1.0109
15708TIP3    H268540   0.399   3.154  12.529 -0.0884 -0.0638 -0.7323
15709TIP3   OH268541   0.386   5.396   4.758 -0.1124 -0.0170 -0.1943
15709TIP3    H168542   0.319   5.418   4.693  0.8425  0.1551 -1.1608
15709TIP3    H268543   0.342   5.405   4.842 -1.0474  1.0161 -0.7616
15710TIP3   OH268544   4.663   6.664  13.726 -0.3699 -0.2105 -0.0323
15710TIP3    H168545   4.660   6.571  13.745 -3.0828 -0.1849  0.0496
15710TIP3    H268546   4.597   6.703  13.783 -0.6054  1.4889 -1.3611
15711TIP3   OH268547   0.051   1.850  15.002 -0.8625 -0.4527 -0.3483
15711TIP3    H168548   0.104   1.905  15.059 -2.5257 -0.1738  0.9973
15711TIP3    H268549   0.104   1.770  14.991  1.3197  1.0833 -1.8605
15712TIP3   OH268550   1.508   1.623  17.178 -0.0804 -0.8666  0.2888
15712TIP3    H168551   1.491   1.552  17.240  0.7155 -0.5307  0.9135
15712TIP3    H268552   1.575   1.588  17.119  0.1144 -0.7372  0.4299
15713TIP3   OH268553   4.827   4.805   3.748 -0.3754  0.0577 -0.2063
15713TIP3    H168554   4.829   4.891   3.790  0.0976 -0.0982  0.0892
15713TIP3    H268555   4.794   4.823   3.660  0.3947  0.6482 -0.3890
15714TIP3   OH268556   2.482   0.791  12.731 -0.2982 -0.0961  0.4354
15714TIP3    H168557   2.480   0.885  12.745 -3.3990 -0.4482  3.5863
15714TIP3    H268558   2.426   0.776  12.655 -0.7528  0.5092  0.6522
15715TIP3   OH268559   0.792   5.211   4.445  0.1276  0.2579 -0.1697
15715TIP3    H168560   0.753   5.232   4.361 -0.3040  0.1278 -0.0045
15715TIP3    H268561   0.718   5.197   4.504  0.4082 -0.4582  0.0313
15716TIP3   OH268562   5.172   5.816  13.247 -0.1866 -0.1724 -0.0982
15716TIP3    H168563   5.110   5.759  13.203 -0.4852  0.3844 -0.4033
15716TIP3    H268564   5.192   5.771  13.329 -2.1338  0.3408  0.6982
15717TIP3   OH268565   2.089   4.107   6.439  0.2825  0.0906  0.2411
15717TIP3    H168566   2.043   4.092   6.357  0.7002  1.5433 -0.3121
15717TIP3    H268567   2.022   4.141   6.499  0.3778  1.1846 -0.2323
15718TIP3   OH268568   5.008   6.285   2.292  0.8080  0.2397 -0.2055
15718TIP3    H168569   5.046   6.203   2.323 -0.5017  0.3814  1.9923
15718TIP3    H268570   4.952   6.260   2.219 -1.5722 -1.3118  1.9875
15719TIP3   OH268571   2.626   1.763  14.997  0.2917  0.2515  0.2485
15719TIP3    H168572   2.601   1.731  14.910  0.3473 -3.1454  1.3289
15719TIP3    H268573   2.546   1.758  15.048  0.7414  0.0445  0.9445
15720TIP3   OH268574   0.747   5.713   5.611 -0.0621 -0.5417 -0.0383
15720TIP3    H168575   0.762   5.792   5.663  0.7732  0.8621 -2.3123
15720TIP3    H268576   0.746   5.642   5.676 -0.1249  1.2221  1.9919
15721TIP3   OH268577   5.953   2.048  13.233 -0.1557  0.4103 -0.0512
15721TIP3    H168578   5.951   2.131  13.280 -1.1968  0.2028  0.3034
15721TIP3    H268579   6.000   2.066  13.152  0.9554  0.9720  0.7055
15722TIP3   OH268580   4.373   6.001  15.424 -0.2283 -0.4224  0.0152
15722TIP3    H168581   4.312   5.939  15.464 -0.0645 -0.5292  0.1000
15722TIP3    H268582   4.317   6.070  15.389 -0.5233 -1.3247 -1.3495
15723TIP3   OH268583   0.139   0.294  17.217 -0.1171 -0.3720  0.2791
15723TIP3    H168584   0.209   0.231  17.233  0.6108  0.4826  0.5346
15723TIP3    H268585   0.122   0.333  17.303  1.3432  1.6967 -0.2790
15724TIP3   OH268586   4.301   5.255  15.658  0.0181  0.4509  0.5808
15724TIP3    H168587   4.233   5.322  15.665 -0.0251  0.8184 -2.2429
15724TIP3    H268588   4.257   5.174  15.684 -1.4382  0.7279 -0.8714
15725TIP3   OH268589   5.934   1.676  11.315 -0.0852  0.0645  0.1337
15725TIP3    H168590   5.873   1.725  11.370  0.1158  0.9984 -0.4611
15725TIP3    H268591   5.931   1.587  11.350 -1.0107  0.3276  0.7639
15726TIP3   OH268592   1.136   6.579  11.615  0.5928  0.1458  0.9557
15726TIP3    H168593   1.197   6.649  11.594  2.0491 -0.6980  2.2091
15726TIP3    H268594   1.134   6.575  11.710 -0.3047 -0.8134  0.9192
15727TIP3   OH268595   2.104   5.221   4.665  0.0182 -0.3265  0.4430
15727TIP3    H168596   2.091   5.236   4.572  0.2591  2.9726  0.8253
15727TIP3    H268597   2.018   5.198   4.699  0.2321 -3.3992 -0.7422
15728TIP3   OH268598   3.451   5.599   3.114  1.0450  0.3919  0.5750
15728TIP3    H168599   3.422   5.639   3.196  0.5800 -1.0358  1.1387
15728TIP3    H268600   3.372   5.561   3.076  1.3950  0.3715 -0.1503
15729TIP3   OH268601   2.428   4.740  12.586 -0.0512  0.0225 -0.1914
15729TIP3    H168602   2.503   4.704  12.634  0.7250  0.5522 -0.9947
15729TIP3    H268603   2.366   4.764  12.655  0.2699 -0.9275  0.4588
15730TIP3   OH268604   0.926   5.861   4.496 -0.1988  0.4627  0.4216
15730TIP3    H168605   1.021   5.870   4.484 -0.5509  2.6215 -1.5352
15730TIP3    H268606   0.912   5.873   4.590  1.5923 -2.3089  1.1712
15731TIP3   OH268607   3.759   1.794   2.287 -0.3095  0.1771  0.0537
15731TIP3    H168608   3.672   1.753   2.288 -0.4965  0.5514 -0.4468
15731TIP3    H268609   3.819   1.724   2.314 -0.9202  0.3029  1.8571
15732TIP3   OH268610   5.155   2.684  12.852  0.3852  0.4582  0.3952
15732TIP3    H168611   5.087   2.664  12.917  1.2464 -0.2627  1.0971
15732TIP3    H268612   5.234   2.644  12.887  0.7552 -0.4800 -1.3904
15733TIP3   OH268613   1.359   4.980  13.409 -0.0811  0.2449  0.5982
15733TIP3    H168614   1.317   4.895  13.418 -0.1774  0.2732  0.4279
15733TIP3    H268615   1.416   4.971  13.332  0.7443 -0.0018  1.2230
15734TIP3   OH268616   6.563   5.187  16.812 -0.2009 -0.5256 -0.0045
15734TIP3    H168617   6.557   5.279  16.839 -3.3573 -0.7017  0.2096
15734TIP3    H268618   6.552   5.190  16.717  1.7993 -0.6019 -0.2859
15735TIP3   OH268619   6.235   3.711  14.229 -0.3923  0.2624  0.1006
15735TIP3    H168620   6.292   3.665  14.290 -0.1302 -0.0994 -0.4102
15735TIP3    H268621   6.153   3.724  14.277 -0.4637 -0.7358  0.2524
15736TIP3   OH268622   1.247   0.449   0.718 -0.3269  0.1786  0.1294
15736TIP3    H168623   1.171   0.487   0.674  1.3699  1.7807 -1.5983
15736TIP3    H268624   1.247   0.489   0.805 -0.9945  0.7719 -0.1364
15737TIP3   OH268625   4.294   6.579  15.868  0.0889 -0.2311 -0.5573
15737TIP3    H168626   4.251   6.538  15.794 -0.0611 -1.5286  0.2105
15737TIP3    H268627   4.301   6.509  15.933 -1.5948  1.3196  1.4489
15738TIP3   OH268628   3.452   1.982   0.991  0.0449  0.2719  0.1021
15738TIP3    H168629   3.517   2.009   1.056 -0.1392  1.4480 -0.1798
15738TIP3    H268630   3.445   2.057   0.932 -0.5272 -0.3935 -0.6956
15739TIP3   OH268631   2.576   1.655  14.772  0.1233  0.2020  0.8183
15739TIP3    H168632   2.573   1.586  14.706  0.6633 -0.7360  1.7483
15739TIP3    H268633   2.486   1.688  14.776  0.2590  0.8618 -0.9714
15740TIP3   OH268634   3.755   3.937  16.687 -0.0010  0.3020 -0.2790
15740TIP3    H168635   3.769   3.903  16.776  0.6647 -0.1323 -0.5405
15740TIP3    H268636   3.681   3.997  16.696 -1.3381 -1.3325  0.1689
15741TIP3   OH268637   5.492   4.027   0.785  0.0965 -0.3342 -0.4530
15741TIP3    H168638   5.588   4.034   0.788  0.0014  0.9586  1.0229
15741TIP3    H268639   5.468   3.993   0.871 -0.8951  1.9854  0.2747
15742TIP3   OH268640   0.267   6.101   1.314  0.6370  0.0371 -0.1674
15742TIP3    H168641   0.291   6.065   1.229  0.1611  0.1598 -0.3583
15742TIP3    H268642   0.275   6.028   1.375  2.2414  0.2562 -0.0766
15743TIP3   OH268643   4.002   2.281  14.312 -0.0672  0.3053 -0.1259
15743TIP3    H168644   4.025   2.291  14.405  0.4139  2.2879 -0.3978
15743TIP3    H268645   4.043   2.199  14.286 -1.4882 -1.0826  1.7524
15744TIP3   OH268646   0.042   5.907   7.084  0.2309 -0.7651  0.4456
15744TIP3    H168647   0.010   5.843   7.020 -0.9244 -0.4207  0.6496
15744TIP3    H268648   0.116   5.863   7.126  0.8180 -1.1135 -0.9009
15745TIP3   OH268649   3.284   2.835  14.146 -1.1179  0.2051 -0.3997
15745TIP3    H168650   3.362   2.788  14.175  1.2872  4.4086  0.7538
15745TIP3    H268651   3.247   2.873  14.226 -3.4316 -0.2465 -1.1571
15746TIP3   OH268652   5.148   1.533   3.368  0.1477  0.2968  0.2515
15746TIP3    H168653   5.119   1.443   3.351 -1.3186  0.5956  0.9556
15746TIP3    H268654   5.158   1.572   3.281 -0.0665 -0.2947 -0.0439
15747TIP3   OH268655   2.158   4.892   1.327  0.6079 -0.6402  0.1051
15747TIP3    H168656   2.207   4.900   1.246  0.2435  1.7826  0.0570
15747TIP3    H268657   2.225   4.888   1.395  0.9446  1.1155 -0.0754
15748TIP3   OH268658   3.775   4.848   3.546  0.1844 -0.6552 -1.0340
15748TIP3    H168659   3.850   4.903   3.524 -0.0324  0.0863 -0.0097
15748TIP3    H268660   3.717   4.854   3.471  0.3045  0.2853 -1.0546
15749TIP3   OH268661   1.661   5.116  13.990 -0.2108 -0.2971  0.0508
15749TIP3    H168662   1.724   5.160  14.047  0.0377 -0.2721 -0.2412
15749TIP3    H268663   1.711   5.092  13.912 -0.4716 -0.6204 -0.0211
15750TIP3   OH268664   4.425   5.968   2.894 -0.3654 -0.1320 -0.1009
15750TIP3    H168665   4.404   5.901   2.829  0.9748 -0.4067 -0.2612
15750TIP3    H268666   4.416   5.923   2.978  0.2556 -0.4354 -0.1967
15751TIP3   OH268667   3.544   3.814  14.657  0.3435 -0.3375  0.2267
15751TIP3    H168668   3.559   3.737  14.712 -0.4671 -0.4172  0.3588
15751TIP3    H268669   3.467   3.790  14.604  0.3532  0.2140 -0.0456
15752TIP3   OH268670   3.842   4.832  13.577  0.5066 -0.3410 -0.1169
15752TIP3    H168671   3.847   4.750  13.627 -0.8282  0.6052  1.7159
15752TIP3    H268672   3.933   4.864  13.574  0.8302 -1.1709  0.4509
15753TIP3   OH268673   0.130   1.246  16.253 -0.0170 -0.2367  0.0387
15753TIP3    H168674   0.201   1.273  16.195 -0.6091  1.5170  0.0684
15753TIP3    H268675   0.154   1.159  16.283  2.9138  0.8751  1.2549
15754TIP3   OH268676   1.491   2.920   0.445  1.2310 -0.5148  0.3362
15754TIP3    H168677   1.471   2.932   0.352  2.6445 -0.4235  0.0171
15754TIP3    H268678   1.518   2.828   0.451  2.2674 -0.2182  0.4165
15755TIP3   OH268679   5.467   0.563   0.552 -0.4454 -0.8673 -0.1106
15755TIP3    H168680   5.522   0.485   0.565 -1.2772 -1.5287 -0.4377
15755TIP3    H268681   5.513   0.632   0.599  1.5265 -0.9924 -1.7152
15756TIP3   OH268682   0.936   0.398   1.668  0.5286  0.6752 -0.2397
15756TIP3    H168683   0.913   0.324   1.724 -0.3200 -0.2929 -1.7869
15756TIP3    H268684   0.852   0.436   1.643  0.9604  2.7523  1.1946
15757TIP3   OH268685   5.711   4.999   3.603 -0.2471  0.0851  0.1022
15757TIP3    H168686   5.797   4.964   3.628 -1.0794 -1.1910  1.2773
15757TIP3    H268687   5.725   5.033   3.514  1.0914 -1.5106 -0.3547
15758TIP3   OH268688   6.465   4.739   6.161  0.1796  0.5034  0.2670
15758TIP3    H168689   6.466   4.741   6.257  1.5065 -0.5574  0.3033
15758TIP3    H268690   6.500   4.824   6.135  1.4899  0.1476  0.7710
15759TIP3   OH268691   5.878   3.693  10.552  0.3041 -0.3339  0.3519
15759TIP3    H168692   5.837   3.779  10.550  0.7499 -0.1320 -1.4356
15759TIP3    H268693   5.972   3.710  10.542  0.3931 -1.0229 -0.0400
15760TIP3   OH268694   3.795   4.921  10.836 -0.0935  0.3346 -0.4104
15760TIP3    H168695   3.840   4.965  10.764 -1.0666  0.8704 -0.7007
15760TIP3    H268696   3.828   4.965  10.914  1.0249 -0.2999 -0.5062
15761TIP3   OH268697   0.716   6.106  10.909 -0.2490 -0.6343 -0.7236
15761TIP3    H168698   0.690   6.018  10.884  0.0722 -0.8980 -0.1382
15761TIP3    H268699   0.793   6.094  10.964 -0.0710  0.0245 -0.8180
15762TIP3   OH268700   5.084   5.619   3.256  0.0106  0.3696 -0.3538
15762TIP3    H168701   5.056   5.537   3.213  0.5443  0.0371 -0.0756
15762TIP3    H268702   5.073   5.686   3.189  1.7216 -0.2871 -1.3579
15763TIP3   OH268703   0.834   0.134  12.519 -0.3656  0.4465  0.4154
15763TIP3    H168704   0.848   0.049  12.477 -0.8125 -0.4180  1.9410
15763TIP3    H268705   0.824   0.196  12.446  0.5216 -0.7016 -0.7249
15764TIP3   OH268706   3.533   6.108   1.951 -0.3662 -0.2542  0.2216
15764TIP3    H168707   3.482   6.175   1.906 -0.0489  2.0290  2.9602
15764TIP3    H268708   3.599   6.157   1.999 -0.0294 -2.5663  2.3035
15765TIP3   OH268709   1.857   2.580  11.240 -0.1243  0.4226  0.3317
15765TIP3    H168710   1.862   2.646  11.310 -0.6100  1.0063 -0.1650
15765TIP3    H268711   1.763   2.565  11.228 -0.0432  0.2844 -0.1506
15766TIP3   OH268712   1.152   0.625  14.598 -0.1815 -0.0255 -0.1028
15766TIP3    H168713   1.225   0.568  14.623 -0.4137 -0.6479 -0.8076
15766TIP3    H268714   1.076   0.566  14.596 -0.5695  0.4719 -0.0813
15767TIP3   OH268715   1.379   4.029  17.042  0.1502  0.5700  0.0540
15767TIP3    H168716   1.332   4.039  16.959 -1.3873  1.3418  0.9672
15767TIP3    H268717   1.463   3.990  17.018 -0.4007  0.4481 -1.8124
15768TIP3   OH268718   4.256   0.560   5.508  0.3381 -0.0851  0.1420
15768TIP3    H168719   4.203   0.518   5.576  2.2780 -1.8273  0.6827
15768TIP3    H268720   4.311   0.622   5.556  1.3929 -0.9964  0.1540
15769TIP3   OH268721   5.948   3.448  17.046  0.6216  0.0520 -0.9564
15769TIP3    H168722   5.861   3.424  17.014  0.7783  1.3634 -2.5112
15769TIP3    H268723   5.982   3.368  17.086 -1.2368 -0.5164 -0.3775
15770TIP3   OH268724   2.019   2.763  16.907  0.1339 -0.0685  0.2130
15770TIP3    H168725   1.951   2.815  16.865 -0.8034  0.4409  2.2089
15770TIP3    H268726   2.016   2.678  16.863 -0.8493  0.3838 -0.6389
15771TIP3   OH268727   2.170   5.366   6.632 -0.1539  0.2468 -0.0593
15771TIP3    H168728   2.087   5.359   6.679 -0.9482 -0.7688 -1.5222
15771TIP3    H268729   2.230   5.309   6.679  0.2182  2.1810  1.9379
15772TIP3   OH268730   1.326   4.667  15.688  0.1649 -0.1449  0.1691
15772TIP3    H168731   1.377   4.747  15.699 -3.0198  1.9872  0.7311
15772TIP3    H268732   1.256   4.692  15.628  0.0763 -3.1010 -1.1096
15773TIP3   OH268733   5.266   4.720  13.607  0.1341  0.3266 -0.5504
15773TIP3    H168734   5.308   4.634  13.605  0.2571  0.3873 -0.6096
15773TIP3    H268735   5.309   4.769  13.537  1.8882  1.2725  1.0804
15774TIP3   OH268736   1.408   1.017  11.892  0.0542 -0.0203  0.1304
15774TIP3    H168737   1.486   0.966  11.913  0.2098  0.7224  1.4482
15774TIP3    H268738   1.426   1.054  11.805  2.1159  1.8492  1.2657
15775TIP3   OH268739   3.011   3.373   1.152 -0.3378 -0.1781  0.0074
15775TIP3    H168740   3.007   3.295   1.097  0.6927 -0.6122  0.5240
15775TIP3    H268741   3.087   3.360   1.208  0.2093  1.4563 -0.2839
15776TIP3   OH268742   6.166   0.640   5.191  0.3581 -0.0686 -0.6010
15776TIP3    H168743   6.126   0.668   5.274 -0.5972 -1.9267 -0.3848
15776TIP3    H268744   6.098   0.657   5.125  0.0489 -1.1467 -0.5725
15777TIP3   OH268745   1.564   0.903   2.113  0.0943 -0.3635 -0.1460
15777TIP3    H168746   1.517   0.913   2.030 -0.1782 -3.4940 -0.4829
15777TIP3    H268747   1.635   0.967   2.108 -1.2513  1.1195 -1.7314
15778TIP3   OH268748   6.090   1.867   5.610 -0.4648 -0.6022  0.4172
15778TIP3    H168749   6.081   1.962   5.600 -1.2422 -0.7445 -0.3772
15778TIP3    H268750   6.063   1.849   5.700 -0.4855 -0.0863  0.5141
15779TIP3   OH268751   3.956   2.242   4.860 -0.2222  0.1288 -0.1087
15779TIP3    H168752   3.890   2.212   4.923 -1.8140  0.2273 -1.6408
15779TIP3    H268753   3.965   2.169   4.799 -0.8035  1.0459 -1.3369
15780TIP3   OH268754   2.144   5.238   1.805  1.1070 -0.6074 -0.2108
15780TIP3    H168755   2.151   5.208   1.896  2.4475  1.4555  0.4337
15780TIP3    H268756   2.054   5.270   1.797  0.8123 -1.3057  0.1957
15781TIP3   OH268757   1.829   0.722   3.914  0.7813 -0.9358  0.1503
15781TIP3    H168758   1.796   0.800   3.959  0.6947 -0.9219  0.0639
15781TIP3    H268759   1.915   0.706   3.953  0.7726 -0.8337  0.2121
15782TIP3   OH268760   2.482   6.415  13.717  0.1027 -0.2048 -0.3915
15782TIP3    H168761   2.409   6.415  13.780  1.0966  2.0476  0.9103
15782TIP3    H268762   2.500   6.323  13.702 -1.4985 -0.8345  1.0748
15783TIP3   OH268763   1.016   5.014  17.015  0.0898 -0.0392 -0.0178
15783TIP3    H168764   0.979   4.932  16.982 -0.1366 -0.2701  0.7709
15783TIP3    H268765   1.106   4.992  17.039  0.2190  0.0984 -0.3735
15784TIP3   OH268766   4.114   2.347   0.777  0.2474 -0.6987 -0.4487
15784TIP3    H168767   4.040   2.362   0.719  0.4640 -3.0300 -1.4467
15784TIP3    H268768   4.178   2.413   0.753 -0.9069  0.3926 -0.6149
15785TIP3   OH268769   4.757   4.583   5.710 -0.0089  0.7970 -0.2301
15785TIP3    H168770   4.724   4.493   5.706 -0.4717  0.9410  0.2463
15785TIP3    H268771   4.830   4.580   5.772 -0.2177  0.8088  0.0155
15786TIP3   OH268772   5.921   2.648  12.763 -0.1612  0.2774 -0.5081
15786TIP3    H168773   5.957   2.656  12.852  1.6284  2.4151 -1.3114
15786TIP3    H268774   5.959   2.568  12.728 -1.1596 -0.7755  0.7224
15787TIP3   OH268775   5.258   1.999   1.554  0.2851 -0.1660  0.4958
15787TIP3    H168776   5.336   1.944   1.565  0.2047 -0.2197  0.8229
15787TIP3    H268777   5.266   2.065   1.623  1.6325  1.7499 -1.3837
15788TIP3   OH268778   2.813   6.358  17.054  0.2322  0.7854 -0.8648
15788TIP3    H168779   2.887   6.378  17.112 -1.7895  0.9504  1.8783
15788TIP3    H268780   2.812   6.262  17.050  0.7167  0.7873 -1.1147
15789TIP3   OH268781   4.979   2.549   0.881  0.0208  0.6006  0.0320
15789TIP3    H168782   4.884   2.551   0.868 -0.0892 -0.0933  0.6667
15789TIP3    H268783   4.996   2.461   0.914  0.9639  0.5293 -0.6170
15790TIP3   OH268784   0.087   6.703   3.266 -0.3885  0.1195  0.4746
15790TIP3    H168785   0.061   6.635   3.328 -0.2407 -2.3409 -1.9908
15790TIP3    H268786   0.175   6.677   3.237 -1.5125 -0.4753 -2.7720
15791TIP3   OH268787   5.985   0.247  15.794  0.1926  0.1217 -0.1720
15791TIP3    H168788   5.920   0.202  15.847  1.0679 -0.4206  0.4700
15791TIP3    H268789   6.057   0.184  15.785  2.0493  1.7846  1.8856
15792TIP3   OH268790   2.827   4.752  14.197  0.0247 -0.2092 -0.7319
15792TIP3    H168791   2.864   4.769  14.111  0.0092  0.1849 -0.6584
15792TIP3    H268792   2.826   4.837  14.241  0.4321 -0.4802 -0.1836
15793TIP3   OH268793   3.227   2.034   2.132  0.2231  0.5429  0.1351
15793TIP3    H168794   3.158   1.975   2.103  0.1350  0.1823  1.0307
15793TIP3    H268795   3.308   1.992   2.105  0.2111 -0.5267  1.6290
15794TIP3   OH268796   5.411   5.360  14.969 -0.0296 -0.2358 -0.4778
15794TIP3    H168797   5.493   5.312  14.978 -0.8054 -1.7995 -1.3808
15794TIP3    H268798   5.346   5.306  15.015 -0.6165  0.8724  0.0441
15795TIP3   OH268799   0.718   3.941  15.245  0.1257 -0.2035 -0.6119
15795TIP3    H168800   0.750   4.031  15.239 -0.8003  0.3248  1.4627
15795TIP3    H268801   0.635   3.942  15.197 -1.4892  0.9696  1.9429
15796TIP3   OH268802   3.519   0.376  12.130 -0.5613 -0.3924 -0.1626
15796TIP3    H168803   3.569   0.450  12.097 -2.6642  1.2991  0.2410
15796TIP3    H268804   3.517   0.313  12.057 -0.3238  0.7735 -1.2011
15797TIP3   OH268805   5.894   3.602  11.402  0.4197  0.3512  0.5447
15797TIP3    H168806   5.890   3.525  11.459  1.5963 -0.1481  0.0132
15797TIP3    H268807   5.819   3.593  11.344  0.3329 -0.2002  0.7385
15798TIP3   OH268808   0.290   2.652  13.889  0.5484  1.1287  0.5063
15798TIP3    H168809   0.231   2.728  13.883 -0.2488  0.5373  0.6224
15798TIP3    H268810   0.252   2.588  13.829  1.3346  0.8962  0.2559
15799TIP3   OH268811   3.301   6.070  12.927  0.3269  0.0930 -0.4127
15799TIP3    H168812   3.256   6.154  12.925  0.5026  0.2055  0.2447
15799TIP3    H268813   3.282   6.031  12.841 -0.3854  0.4671 -0.4365
15800TIP3   OH268814   2.917   6.203  14.142  0.4670  0.1231 -0.3357
15800TIP3    H168815   2.879   6.288  14.164 -0.8361  0.0286 -2.0312
15800TIP3    H268816   3.002   6.225  14.103 -0.5727  0.8223 -2.3432
15801TIP3   OH268817   0.283   3.697   3.933 -0.9223 -0.0312 -0.1769
15801TIP3    H168818   0.268   3.642   4.010  1.3440 -2.7439 -1.4671
15801TIP3    H268819   0.359   3.750   3.956 -0.8960 -0.0701 -0.1734
15802TIP3   OH268820   0.305   2.799  17.017  0.6098 -0.1313 -0.1125
15802TIP3    H168821   0.347   2.802  17.103 -1.9105 -2.1394  1.3536
15802TIP3    H268822   0.323   2.884  16.978 -1.4327  2.6327  4.1238
15803TIP3   OH268823   0.145   5.148  14.070  0.3482 -0.0201 -0.1534
15803TIP3    H168824   0.233   5.140  14.108  0.1174 -0.3491  0.3170
15803TIP3    H268825   0.091   5.182  14.141 -0.1760 -1.0209 -0.0435
15804TIP3   OH268826   6.130   4.223  10.626  0.2127 -0.3987  0.2956
15804TIP3    H168827   6.076   4.206  10.704  0.6442 -1.2702  0.4191
15804TIP3    H268828   6.188   4.147  10.621  0.1383 -0.3851 -0.9247
15805TIP3   OH268829   2.732   5.822  13.517 -0.4879  0.4669  0.0076
15805TIP3    H168830   2.681   5.871  13.581  0.9047 -0.1884  1.7045
15805TIP3    H268831   2.792   5.769  13.570 -0.5298 -1.5121 -1.8078
15806TIP3   OH268832   0.983   5.994  15.782 -0.2048 -0.2938  0.1402
15806TIP3    H168833   0.971   6.088  15.769 -0.7755 -0.4982 -0.8812
15806TIP3    H268834   1.078   5.982  15.779 -0.1069  0.2832  0.6040
15807TIP3   OH268835   6.282   5.147  12.910 -0.0283 -0.1360 -1.0374
15807TIP3    H168836   6.324   5.079  12.857  1.0287  0.5939 -1.1690
15807TIP3    H268837   6.341   5.222  12.903 -1.6858  1.1741 -1.7782
15808TIP3   OH268838   2.124   4.626  16.471 -0.3811 -0.2325 -0.1404
15808TIP3    H168839   2.155   4.649  16.383 -0.9245 -0.9078 -0.5152
15808TIP3    H268840   2.061   4.555  16.457  0.1307 -0.9076  0.8639
15809TIP3   OH268841   0.655   2.956  16.686 -0.2409 -0.3332  0.3878
15809TIP3    H168842   0.668   3.008  16.606 -0.5554 -0.2001  0.4189
15809TIP3    H268843   0.692   3.010  16.755 -1.3456  0.2611  0.5423
15810TIP3   OH268844   4.206   5.231   2.303  0.6262  0.4196  0.1801
15810TIP3    H168845   4.129   5.259   2.353 -0.3061 -0.2992 -0.7853
15810TIP3    H268846   4.226   5.306   2.247  0.3788  0.4735  0.1607
15811TIP3   OH268847   0.842   5.092   5.336 -0.4469  0.6797  0.0410
15811TIP3    H168848   0.754   5.108   5.303 -0.2598 -0.4674 -1.1299
15811TIP3    H268849   0.897   5.091   5.258  0.1885 -1.0756  0.4595
15812TIP3   OH268850   5.334   2.387   2.176  0.1242  0.2201 -0.4255
15812TIP3    H168851   5.279   2.450   2.223  0.8792  0.2047  0.5218
15812TIP3    H268852   5.290   2.303   2.189 -0.3401  0.4030 -0.8146
15813TIP3   OH268853   6.356   6.713  10.455 -0.5775 -0.5309  0.0480
15813TIP3    H168854   6.318   6.732  10.369 -1.1388  1.6229  0.7017
15813TIP3    H268855   6.304   6.640  10.488 -0.7888 -0.9508 -1.1632
15814TIP3   OH268856   1.273   3.684  15.382  0.4492  0.3468  0.4523
15814TIP3    H168857   1.365   3.679  15.409  0.2721  0.2604  1.0631
15814TIP3    H268858   1.224   3.667  15.463 -0.1029 -0.9667 -0.1242
15815TIP3   OH268859   0.224   5.471   0.303 -0.3549 -0.2121  0.2403
15815TIP3    H168860   0.273   5.548   0.330 -1.7554  0.9949 -0.5300
15815TIP3    H268861   0.138   5.505   0.278 -1.0602 -2.0449  0.0315
15816TIP3   OH268862   0.740   1.750  15.085 -0.1820 -0.3910  0.3565
15816TIP3    H168863   0.646   1.731  15.087 -0.7357  1.5591 -2.1169
15816TIP3    H268864   0.756   1.781  14.995  2.6683  0.0926  0.9485
15817TIP3   OH268865   2.184   2.256  11.772  0.4287  0.6456 -0.1019
15817TIP3    H168866   2.163   2.296  11.688 -0.0922  0.1919 -0.1886
15817TIP3    H268867   2.131   2.177  11.776  0.0821  0.8997  0.8593
15818TIP3   OH268868   0.019   1.438  13.281 -0.0997  0.5536 -0.3439
15818TIP3    H168869   0.069   1.367  13.241  2.7073  1.6977  0.8450
15818TIP3    H268870   0.059   1.518  13.246 -2.1028  1.5677 -0.4318
15819TIP3   OH268871   1.087   2.361  12.915 -0.7567  0.1061  0.6708
15819TIP3    H168872   1.013   2.421  12.929 -0.2525  0.8140  0.3395
15819TIP3    H268873   1.140   2.371  12.995 -0.9171 -0.2521  0.8214
15820TIP3   OH268874   6.406   2.717   5.057  0.7147 -0.6812 -0.3735
15820TIP3    H168875   6.315   2.689   5.052  0.4234  0.0142  0.7343
15820TIP3    H268876   6.426   2.750   4.969 -0.2130 -0.5262 -0.5376
15821TIP3   OH268877   6.355   6.423  13.202  0.0428  0.2601  0.5264
15821TIP3    H168878   6.305   6.343  13.186  0.6360 -0.2186  0.9918
15821TIP3    H268879   6.322   6.456  13.286 -1.4316  1.4904 -0.4728
15822TIP3   OH268880   6.030   3.307  12.040 -0.6684  0.2756  0.2614
15822TIP3    H168881   6.069   3.389  12.008  1.4425 -1.1478 -1.0477
15822TIP3    H268882   5.945   3.302  11.997  0.0318  0.8414 -1.2613
15823TIP3   OH268883   1.913   4.806  12.876 -0.3332 -0.2992  0.2527
15823TIP3    H168884   1.910   4.720  12.919  0.9672  0.6003  2.3408
15823TIP3    H268885   1.923   4.868  12.949 -0.7174  1.5803 -1.2303
15824TIP3   OH268886   4.275   3.545   1.087 -0.0149 -0.4248  0.1291
15824TIP3    H168887   4.309   3.612   1.027 -1.3551  0.7369  0.5987
15824TIP3    H268888   4.353   3.507   1.127  0.8519 -0.2896 -1.3421
15825TIP3   OH268889   4.763   6.536   3.660  0.3258 -0.3363 -0.4223
15825TIP3    H168890   4.714   6.482   3.722  0.3611  0.5028  0.3629
15825TIP3    H268891   4.839   6.566   3.710  0.5312  0.0807 -0.9804
15826TIP3   OH268892   2.486   4.971   6.625  0.1168  0.1355 -0.3337
15826TIP3    H168893   2.532   4.956   6.707  0.2416  2.8182  0.1743
15826TIP3    H268894   2.553   4.957   6.557  0.3569 -0.7730  0.0692
15827TIP3   OH268895   0.065   0.467  11.293 -0.5223 -0.0213 -0.2128
15827TIP3    H168896   0.136   0.498  11.349  0.4003  0.3030 -1.5087
15827TIP3    H268897   0.039   0.545  11.244 -0.9455 -0.4136 -0.6149
15828TIP3   OH268898   2.302   6.734  13.454  0.4260  0.1214  0.1000
15828TIP3    H168899   2.352   6.689  13.523  1.5896  0.2239 -0.6377
15828TIP3    H268900   2.319   6.683  13.375  1.1828  1.4103 -0.6123
15829TIP3   OH268901   4.462   3.088  16.219  0.0955  0.4741  0.2374
15829TIP3    H168902   4.433   2.997  16.228  0.3521  0.1372 -1.7566
15829TIP3    H268903   4.528   3.084  16.149 -1.2614  2.4435 -1.2494
15830TIP3   OH268904   2.139   2.463  16.696 -0.1242 -0.0802  0.3308
15830TIP3    H168905   2.070   2.461  16.630  0.4043 -2.1973 -0.2010
15830TIP3    H268906   2.206   2.521  16.659 -0.3647 -0.2781 -0.4335
15831TIP3   OH268907   2.807   6.674  11.471  0.1122  0.2685 -0.2353
15831TIP3    H168908   2.789   6.606  11.406  0.7204 -2.3796  2.1769
15831TIP3    H268909   2.884   6.721  11.436  1.4895 -2.1860 -0.7107
15832TIP3   OH268910   1.012   5.212  14.707 -0.7200 -0.4555 -0.3846
15832TIP3    H168911   0.957   5.254  14.640 -0.3794  0.4248 -0.1286
15832TIP3    H268912   1.086   5.271  14.717 -0.0559 -1.3020 -0.2436
15833TIP3   OH268913   6.229   1.446  14.926  0.4415 -0.3231  0.0421
15833TIP3    H168914   6.286   1.439  15.003 -0.2790 -2.0753  0.4728
15833TIP3    H268915   6.287   1.476  14.856  1.0081  1.8162  1.3335
15834TIP3   OH268916   2.895   3.123  12.537 -0.5396 -0.1128  0.2764
15834TIP3    H168917   2.819   3.108  12.481 -1.1209 -0.5755  1.1663
15834TIP3    H268918   2.950   3.046  12.523  1.3893  1.6050 -2.7936
15835TIP3   OH268919   1.529   2.688   5.197 -0.0258 -0.0016  0.4859
15835TIP3    H168920   1.440   2.722   5.189 -0.1181 -0.2946  0.2689
15835TIP3    H268921   1.550   2.696   5.290  0.9998  3.3090  0.1087
15836TIP3   OH268922   4.527   4.872   4.520 -0.6479 -0.0947 -0.2656
15836TIP3    H168923   4.466   4.842   4.588  0.5842  2.1989  2.0160
15836TIP3    H268924   4.614   4.861   4.558  0.0077  3.0261 -0.5721
15837TIP3   OH268925   2.698   1.747   4.618  0.2664  0.2840  0.1029
15837TIP3    H168926   2.764   1.678   4.612  0.9144  0.7532  1.3282
15837TIP3    H268927   2.629   1.721   4.557  0.5848 -1.3271  0.3905
15838TIP3   OH268928   6.550   3.105   3.615  0.3974  0.2557 -0.0985
15838TIP3    H168929   6.508   3.054   3.546 -1.2884  1.2739  0.1119
15838TIP3    H268930   6.605   3.168   3.569 -0.7664  0.9698 -0.5559
15839TIP3   OH268931   2.333   3.689  15.716 -0.4059  0.0772  0.2551
15839TIP3    H168932   2.288   3.754  15.662 -1.1719 -0.9701 -0.4037
15839TIP3    H268933   2.416   3.675  15.671  1.0263  2.5812  1.8898
15840TIP3   OH268934   0.560   4.833   0.643 -0.4014  0.2084  0.4659
15840TIP3    H168935   0.572   4.827   0.549 -0.2682 -1.8423  0.5809
15840TIP3    H268936   0.466   4.850   0.654 -0.2699  1.3588 -0.0293
15841TIP3   OH268937   5.360   4.653   1.006  0.3341 -0.0830  0.2752
15841TIP3    H168938   5.384   4.728   1.061  1.2001  0.4497 -0.7934
15841TIP3    H268939   5.388   4.576   1.058 -0.1640  0.3328  1.1856
15842TIP3   OH268940   5.344   0.975  11.045 -0.5908 -0.4878  0.3181
15842TIP3    H168941   5.407   1.031  11.090 -0.7786 -1.4260  1.7911
15842TIP3    H268942   5.394   0.898  11.019 -0.6325 -0.2354 -0.5351
15843TIP3   OH268943   6.119   6.430   1.875 -0.3999 -0.4022  0.4422
15843TIP3    H168944   6.091   6.422   1.966 -0.3150 -0.4822  0.4609
15843TIP3    H268945   6.183   6.360   1.863 -0.5671 -0.5248  0.2611
15844TIP3   OH268946   4.557   2.908  12.728  0.1336  0.6798  0.4673
15844TIP3    H168947   4.491   2.900  12.797 -0.7302  0.3707 -0.3732
15844TIP3    H268948   4.624   2.844  12.752  1.0739  2.2373  2.3091
15845TIP3   OH268949   4.378   0.805   4.125  0.0018  0.5823 -0.3229
15845TIP3    H168950   4.349   0.771   4.210  1.6009  0.1178  0.0907
15845TIP3    H268951   4.302   0.796   4.068 -0.3476 -1.5843  0.3820
15846TIP3   OH268952   1.809   6.763  16.652  0.4041 -0.0700  0.3431
15846TIP3    H168953   1.818   6.783  16.559 -0.3714 -0.0079  0.2741
15846TIP3    H268954   1.759   6.837  16.687 -1.6129 -1.3384  0.2946
15847TIP3   OH268955   1.523   0.878  13.434  0.0815  0.2026 -0.1005
15847TIP3    H168956   1.603   0.865  13.485  0.6750 -3.9000 -1.6974
15847TIP3    H268957   1.454   0.837  13.487 -0.1992  0.1654 -0.4883
15848TIP3   OH268958   1.781   5.257   5.750  0.0775  0.0088 -0.1105
15848TIP3    H168959   1.786   5.201   5.828 -2.0315 -0.5102 -0.2977
15848TIP3    H268960   1.722   5.211   5.691 -0.3011  1.5758 -1.0027
15849TIP3   OH268961   0.053   4.494   3.604 -0.1099 -0.0796 -0.1713
15849TIP3    H168962   0.113   4.494   3.678 -0.7385 -0.3126  0.3424
15849TIP3    H268963  -0.020   4.440   3.632 -0.6020  0.2695 -0.7587
15850TIP3   OH268964   0.664   0.314   2.226 -0.7126  0.0418 -0.7421
15850TIP3    H168965   0.680   0.341   2.317  0.0081  0.6759 -1.0482
15850TIP3    H268966   0.645   0.220   2.232  0.7388 -0.2424 -0.0647
15851TIP3   OH268967   4.996   1.500  13.015 -0.1522  0.3109  0.5094
15851TIP3    H168968   5.030   1.431  12.959 -1.6226  0.2244 -0.3304
15851TIP3    H268969   5.031   1.481  13.102  1.1812 -0.2439 -0.1331
15852TIP3   OH268970   3.844   1.485  16.069 -0.7076  1.0960  0.6346
15852TIP3    H168971   3.937   1.506  16.063 -0.3403 -0.5798 -0.3321
15852TIP3    H268972   3.802   1.565  16.100  0.9522  2.1210  0.3133
15853TIP3   OH268973   5.024   4.783  15.699  0.5259  0.4195 -0.3202
15853TIP3    H168974   4.966   4.738  15.638  1.7181 -1.4570 -0.1510
15853TIP3    H268975   4.976   4.785  15.782  0.6692 -1.1047 -0.1805
15854TIP3   OH268976   1.224   4.106  16.835  0.3530  0.1025  0.2031
15854TIP3    H168977   1.227   4.086  16.741  0.2803 -1.4211  0.4999
15854TIP3    H268978   1.196   4.198  16.839  0.7696  0.3199 -1.2695
15855TIP3   OH268979   2.910   3.217   2.839 -0.3774  0.0569 -0.0778
15855TIP3    H168980   2.986   3.217   2.780  1.2402  0.4167  1.8612
15855TIP3    H268981   2.888   3.125   2.850 -0.1332 -0.0636 -0.5748
15856TIP3   OH268982   3.289   4.381   0.889 -0.2686  0.0196  0.3949
15856TIP3    H168983   3.208   4.417   0.854  1.2027  2.4634 -0.8287
15856TIP3    H268984   3.310   4.307   0.832 -1.8606 -0.9953  1.0757
15857TIP3   OH268985   5.104   3.592  13.432  0.4048 -0.0133 -0.1885
15857TIP3    H168986   5.075   3.549  13.512 -0.4994 -0.0156 -0.5015
15857TIP3    H268987   5.189   3.553  13.413  1.2405  0.9008  1.4556
15858TIP3   OH268988   5.628   3.749  12.070 -0.2172  0.8669  0.3305
15858TIP3    H168989   5.681   3.806  12.015  0.1400  1.0825  0.8834
15858TIP3    H268990   5.570   3.703  12.009 -1.0818  2.4067 -0.0683
15859TIP3   OH268991   3.440   4.669  14.742  0.4311 -0.1042 -0.4311
15859TIP3    H168992   3.502   4.606  14.706  0.5304  0.3285 -1.0397
15859TIP3    H268993   3.370   4.675  14.676 -0.6025 -1.0635  0.5311
15860TIP3   OH268994   0.131   5.870  15.706  0.7750  0.1039  0.3157
15860TIP3    H168995   0.059   5.818  15.742 -2.4077  2.6570 -1.7689
15860TIP3    H268996   0.168   5.916  15.781 -0.3418 -0.5979  1.3326
15861TIP3   OH268997   1.976   2.673  12.443  0.1344  0.4621  0.3259
15861TIP3    H168998   1.974   2.715  12.530 -1.3924  0.5494  0.2723
15861TIP3    H268999   1.885   2.652  12.425  0.4674  0.2249 -1.1677
15862TIP3   OH269000   3.382   1.608  11.148 -0.4007  0.1127  0.3404
15862TIP3    H169001   3.323   1.533  11.137 -0.8563  0.4399  0.5233
15862TIP3    H269002   3.435   1.585  11.224  0.6174 -0.7653 -0.6056
15863TIP3   OH269003   6.175   1.924  15.206 -0.2543  0.4338  0.7533
15863TIP3    H169004   6.119   1.874  15.147  1.4575 -0.3289 -0.2946
15863TIP3    H269005   6.116   1.989  15.244 -1.7925 -0.1511 -0.4800
15864TIP3   OH269006   4.976   2.811   3.355 -0.0688 -0.1919 -0.3885
15864TIP3    H169007   4.943   2.801   3.445  0.3024 -0.5799 -0.2900
15864TIP3    H269008   4.998   2.904   3.348 -0.1317 -0.1512 -0.0863
15865TIP3   OH269009   4.453   4.405  16.249  0.0763 -0.5084  0.2042
15865TIP3    H169010   4.517   4.459  16.204  0.5094 -1.6360 -0.5861
15865TIP3    H269011   4.373   4.414  16.198  0.0790 -0.3952  0.2209
15866TIP3   OH269012   3.286   4.948  16.368  0.4583  0.9120 -0.1479
15866TIP3    H169013   3.198   4.917  16.346  0.2630 -0.0506  1.7587
15866TIP3    H269014   3.277   5.043  16.377 -0.3412  0.8453 -0.1912
15867TIP3   OH269015   6.664   3.589  14.400  0.0143  0.4629  0.2157
15867TIP3    H169016   6.691   3.509  14.356  0.1694 -0.6110  2.1361
15867TIP3    H269017   6.746   3.629  14.430 -0.0979  1.0457 -0.2500
15868TIP3   OH269018   2.745   0.590  11.967  0.1970 -0.3528  0.4168
15868TIP3    H169019   2.723   0.600  11.874  0.2479 -1.0423  0.3241
15868TIP3    H269020   2.681   0.644  12.013  1.9050  2.3107 -0.1426
15869TIP3   OH269021   4.948   2.533   1.222 -0.5394 -0.0018  0.3118
15869TIP3    H169022   4.884   2.465   1.244 -2.2811  1.9854  1.8165
15869TIP3    H269023   4.897   2.614   1.218  1.3612  1.2000 -1.9100
15870TIP3   OH269024   4.035   5.103  17.347 -0.1801  0.0434  0.1667
15870TIP3    H169025   3.953   5.072  17.385  0.1686  0.8719  1.6779
15870TIP3    H269026   4.075   5.157  17.416  1.4302  0.0108 -0.6845
15871TIP3   OH269027   0.712   6.517   1.246 -0.5366  0.1153  1.1085
15871TIP3    H169028   0.670   6.513   1.332  1.4745 -1.9227  2.1100
15871TIP3    H269029   0.802   6.541   1.265 -0.3996  1.0671 -0.6256
15872TIP3   OH269030   5.205   2.915  12.283 -0.1137 -0.7943  0.8153
15872TIP3    H169031   5.292   2.939  12.317 -0.7781  1.0402  1.3551
15872TIP3    H269032   5.207   2.943  12.191 -0.0780 -0.8753  0.7920
15873TIP3   OH269033   2.622   3.328  12.684 -0.4288 -0.2205 -0.0494
15873TIP3    H169034   2.626   3.263  12.614  1.8550 -1.0702  0.7876
15873TIP3    H269035   2.615   3.412  12.639 -0.4074 -0.8334 -1.2395
15874TIP3   OH269036   2.223   3.385  15.248  0.0145  0.3501 -0.5483
15874TIP3    H169037   2.141   3.336  15.253  1.2692 -1.9970 -1.3983
15874TIP3    H269038   2.255   3.368  15.159  0.7951  2.3562 -0.7024
15875TIP3   OH269039   2.355   5.225   1.128 -0.1801 -0.3100  0.2331
15875TIP3    H169040   2.345   5.205   1.034  0.0444 -1.1744  0.3824
15875TIP3    H269041   2.394   5.145   1.165 -0.2697  0.0247  1.0638
15876TIP3   OH269042   4.758   1.012  12.943  0.3464  0.5390  0.8067
15876TIP3    H169043   4.752   0.926  12.986  1.1275 -0.0773 -0.2813
15876TIP3    H269044   4.838   1.007  12.890 -0.0119  1.6686  0.1301
15877TIP3   OH269045   4.051   2.041  11.787  0.2221 -0.1702  0.0612
15877TIP3    H169046   4.104   2.050  11.708 -0.5057 -2.9323 -0.8812
15877TIP3    H269047   4.097   1.974  11.838 -0.2250  0.3551  1.1741
15878TIP3   OH269048   5.907   4.284   2.261 -0.3997  0.2921 -0.1829
15878TIP3    H169049   5.863   4.200   2.270 -1.2539  0.8883  1.5222
15878TIP3    H269050   5.883   4.333   2.339 -0.8650  2.5745 -1.6534
15879TIP3   OH269051   5.646   3.392   5.263  0.1482 -0.3482 -0.9784
15879TIP3    H169052   5.555   3.382   5.236 -0.5773 -1.9860  1.6805
15879TIP3    H269053   5.669   3.482   5.238 -2.3178  0.2360 -1.4083
15880TIP3   OH269054   0.343   4.393   5.172  0.6251  0.2000  0.0957
15880TIP3    H169055   0.318   4.301   5.171  0.3028  0.2856 -0.3443
15880TIP3    H269056   0.259   4.440   5.175  0.8012  0.4709  0.7508
15881TIP3   OH269057   1.913   0.125  16.915 -0.4453 -0.1044 -0.8839
15881TIP3    H169058   1.940   0.183  16.987 -0.6754 -0.6007 -0.3906
15881TIP3    H269059   1.918   0.037  16.952 -0.9509 -0.3368 -1.3553
15882TIP3   OH269060   1.229   3.493   5.889  0.0114 -1.2466 -0.3589
15882TIP3    H169061   1.278   3.561   5.843  0.5468  0.3172  2.3355
15882TIP3    H269062   1.293   3.451   5.945 -1.0416 -1.5583  0.6459
15883TIP3   OH269063   3.053   5.900  12.111 -0.2469 -0.3938  0.1626
15883TIP3    H169064   3.094   5.837  12.170  3.5301  0.4096 -1.3022
15883TIP3    H269065   3.116   5.972  12.106 -1.5968  0.7483 -2.7926
15884TIP3   OH269066   5.402   4.293   3.472  0.2079  0.0918 -0.1336
15884TIP3    H169067   5.424   4.338   3.390  2.4640 -1.5815 -0.5377
15884TIP3    H269068   5.469   4.322   3.534 -0.0279 -0.5215  0.4155
15885TIP3   OH269069   0.105   2.484  16.011  0.2876  0.3088  0.2974
15885TIP3    H169070   0.023   2.505  15.968  0.2558 -0.5534 -0.0744
15885TIP3    H269071   0.086   2.406  16.064  0.9372 -0.1061 -0.0598
15886TIP3   OH269072   3.904   2.264   6.440 -0.3908  0.1673 -0.2286
15886TIP3    H169073   3.843   2.334   6.464 -1.1744  0.6434 -3.1513
15886TIP3    H269074   3.987   2.310   6.422  0.7304 -0.3895  2.9841
15887TIP3   OH269075   0.896   2.097   5.709  0.4367  0.1996  0.3302
15887TIP3    H169076   0.916   2.076   5.617 -0.2038  1.0632 -0.0225
15887TIP3    H269077   0.957   2.168   5.731  0.3462  0.2344  0.4668
15888TIP3   OH269078   6.659   0.294  13.254 -0.4509 -0.4751 -0.3294
15888TIP3    H169079   6.611   0.214  13.236 -0.6900 -0.2396 -0.7570
15888TIP3    H269080   6.661   0.301  13.350  0.9848 -1.8435 -0.2270
15889TIP3   OH269081   6.071   1.563  16.260 -1.0264 -0.1174 -0.1008
15889TIP3    H169082   5.994   1.538  16.209 -0.8551  1.2448 -1.0608
15889TIP3    H269083   6.039   1.631  16.320 -0.7096 -0.0178 -0.0458
15890TIP3   OH269084   5.785   5.928  17.104  0.0482  0.0913 -0.5458
15890TIP3    H169085   5.746   5.841  17.108 -0.7149  0.4284  2.8467
15890TIP3    H269086   5.875   5.916  17.134 -0.0922  0.4570  0.0433
15891TIP3   OH269087   2.239   4.076   0.394 -0.3217  0.0102 -0.0683
15891TIP3    H169088   2.182   4.125   0.336 -0.0628  0.9081  0.4229
15891TIP3    H269089   2.249   4.131   0.471  2.9494  0.9254 -0.9832
15892TIP3   OH269090   0.211   1.750   1.143 -0.3680 -0.1368 -0.6819
15892TIP3    H169091   0.262   1.803   1.081 -0.1197  1.0221  0.4634
15892TIP3    H269092   0.268   1.677   1.165 -0.2790 -0.3077 -1.4588
15893TIP3   OH269093   4.457   0.392  17.194  0.3827 -0.1279 -0.2198
15893TIP3    H169094   4.446   0.334  17.269  1.5280  1.2619  1.0862
15893TIP3    H269095   4.373   0.437  17.185  0.5053  0.3327  0.8168
15894TIP3   OH269096   3.173   0.408   3.000  0.1686  0.6176  0.2017
15894TIP3    H169097   3.178   0.502   3.016  1.1796  1.2192 -2.9387
15894TIP3    H269098   3.264   0.379   2.998  0.3000  0.7185 -3.8045
15895TIP3   OH269099   2.847   6.655   3.523  0.3241 -0.4553  1.1312
15895TIP3    H169100   2.917   6.591   3.523  1.8054  1.0393 -0.5902
15895TIP3    H269101   2.816   6.657   3.432  0.9752  1.8801  0.9013
15896TIP3   OH269102   3.309   1.205  11.600  0.0082 -0.3068  0.0165
15896TIP3    H169103   3.373   1.184  11.532  0.0740  0.5089 -0.1768
15896TIP3    H269104   3.333   1.292  11.630  0.0629 -0.7103  1.1952
15897TIP3   OH269105   5.818   2.877   1.474  0.1878  0.2631  0.1159
15897TIP3    H169106   5.729   2.861   1.505 -0.6328  2.8909 -0.5673
15897TIP3    H269107   5.807   2.921   1.390  2.2127 -0.8287 -0.7994
15898TIP3   OH269108   0.223   6.187  11.549 -0.2465  0.6284 -0.2015
15898TIP3    H169109   0.200   6.095  11.536  0.0181  0.6375 -0.7893
15898TIP3    H269110   0.239   6.220  11.460 -3.1117  1.9905 -0.3380
15899TIP3   OH269111   2.144   0.268   0.935 -0.0177  0.5398  0.2552
15899TIP3    H169112   2.062   0.282   0.982 -0.0796  1.5727 -0.1294
15899TIP3    H269113   2.176   0.183   0.966 -1.2534  0.0959  0.3756
15900TIP3   OH269114   0.684   1.757  11.492  0.0827 -0.0293 -0.3224
15900TIP3    H169115   0.616   1.709  11.538  1.8180 -0.9939  1.4217
15900TIP3    H269116   0.744   1.689  11.460 -0.2425  0.7153 -2.7083
15901TIP3   OH269117   4.225   3.852   3.173  0.4422 -0.1015  0.2327
15901TIP3    H169118   4.277   3.927   3.144 -0.0223 -0.2338 -0.9718
15901TIP3    H269119   4.288   3.780   3.179  1.2294  0.6656  2.9256
15902TIP3   OH269120   1.223   3.791  13.807 -0.5864 -0.4212  0.1533
15902TIP3    H169121   1.170   3.832  13.876 -0.7011 -1.2630  0.5727
15902TIP3    H269122   1.303   3.762  13.851 -0.9365 -1.5428  0.0907
15903TIP3   OH269123   6.485   0.319   5.727  0.3227  0.2209 -0.5481
15903TIP3    H169124   6.473   0.288   5.817 -0.6634  3.0668  0.4112
15903TIP3    H269125   6.415   0.276   5.677 -0.0147 -0.3165  0.3661
15904TIP3   OH269126   4.127   2.116   2.446 -0.1760  0.4768  0.0997
15904TIP3    H169127   4.093   2.032   2.415 -0.7486  0.7192  0.0548
15904TIP3    H269128   4.069   2.181   2.406  0.1916  0.8858  0.2307
15905TIP3   OH269129   2.670   1.276  12.192 -0.1653  0.5712 -0.1372
15905TIP3    H169130   2.588   1.253  12.234  0.2581 -0.3880  0.2112
15905TIP3    H269131   2.701   1.193  12.154  1.4435  0.5194  1.1687
15906TIP3   OH269132   0.321   3.806  13.934 -0.0410 -0.1956  0.2136
15906TIP3    H169133   0.332   3.736  13.998 -0.7012  0.5875  1.2185
15906TIP3    H269134   0.227   3.820  13.930  0.1553  1.8527  1.4183
15907TIP3   OH269135   2.059   6.182  14.974 -0.5871  0.3584  0.4357
15907TIP3    H169136   2.002   6.199  14.898  0.0442  0.0612 -0.1152
15907TIP3    H269137   2.087   6.269  15.003 -1.8837  0.5613  1.1674
15908TIP3   OH269138   6.742   0.202   0.254 -0.2466  0.2112 -0.5205
15908TIP3    H169139   6.691   0.125   0.231  3.1617 -1.9925 -1.4965
15908TIP3    H269140   6.794   0.175   0.329 -2.4121  3.3378  2.3578
15909TIP3   OH269141   0.847   1.458  15.199 -0.3081 -0.3634  0.0615
15909TIP3    H169142   0.827   1.528  15.137  0.4149  0.9394  1.2399
15909TIP3    H269143   0.823   1.494  15.284  3.7456  0.0672  1.2096
15910TIP3   OH269144   6.010   6.421  13.350  0.0573 -0.1316  0.2427
15910TIP3    H169145   6.016   6.366  13.272 -0.8621 -0.2632  0.2520
15910TIP3    H269146   5.936   6.479  13.332  0.9908  1.0976  0.2454
15911TIP3   OH269147   1.976   1.615  15.586  0.2774  0.4105 -0.3875
15911TIP3    H169148   1.892   1.611  15.541  0.3762  0.1173 -0.5444
15911TIP3    H269149   1.973   1.543  15.649  0.0962  0.8825  0.1550
15912TIP3   OH269150   2.640   6.148  11.286 -0.5190  0.9247  0.3254
15912TIP3    H169151   2.628   6.227  11.337  0.2956  1.4446 -0.2507
15912TIP3    H269152   2.613   6.172  11.197 -0.4820  0.4943  0.1924
15913TIP3   OH269153   2.172   1.927  13.551  0.0395  0.1095 -0.4252
15913TIP3    H169154   2.171   1.951  13.458 -1.2599  0.3717 -0.3574
15913TIP3    H269155   2.210   2.003  13.595  5.4348 -1.7813 -1.1209
15914TIP3   OH269156   2.597   5.519   2.065  0.5722  0.2097 -0.0374
15914TIP3    H169157   2.660   5.472   2.120 -2.0330 -0.3954  2.7351
15914TIP3    H269158   2.568   5.454   2.001 -0.7276 -1.1242  1.8040
15915TIP3   OH269159   6.370   5.851   1.030  0.5558  0.4477 -0.1783
15915TIP3    H169160   6.418   5.848   1.112  2.3807 -2.7002 -1.2101
15915TIP3    H269161   6.286   5.810   1.049  0.2053  1.4270  0.4793
15916TIP3   OH269162   0.297   5.919  17.259 -0.2514 -0.1999  0.2501
15916TIP3    H169163   0.283   5.934  17.352  0.4899 -2.1503  0.7265
15916TIP3    H269164   0.392   5.920  17.248 -0.3470  1.4411 -0.7846
15917TIP3   OH269165   6.735   5.029  11.693 -0.0245  0.7444  0.6682
15917TIP3    H169166   6.780   4.945  11.687 -0.1092  0.6871  0.8227
15917TIP3    H269167   6.655   5.017  11.640  0.1997  0.8835  0.2989
15918TIP3   OH269168   2.350   3.693   1.908  0.7792 -0.9343  0.0830
15918TIP3    H169169   2.317   3.649   1.987  0.2942 -0.7386 -0.0074
15918TIP3    H269170   2.441   3.714   1.929  0.9984 -1.8888  0.1702
15919TIP3   OH269171   5.084   2.724  11.611  0.0114  0.1107  0.1220
15919TIP3    H169172   5.120   2.810  11.632  1.7237 -0.6960  0.6501
15919TIP3    H269173   5.082   2.722  11.515  1.0251  0.3398  0.0838
15920TIP3   OH269174   6.253   2.607   4.838  0.7380  0.1828 -0.0940
15920TIP3    H169175   6.208   2.523   4.845 -0.8431  0.7501 -2.4434
15920TIP3    H269176   6.346   2.584   4.838  0.3472 -1.5143 -0.2707
15921TIP3   OH269177   2.569   4.924   6.161  0.6469 -0.1749 -0.1186
15921TIP3    H169178   2.498   4.861   6.173  1.1775 -0.6823  0.4042
15921TIP3    H269179   2.597   4.946   6.249  0.1508  1.1789 -0.2836
15922TIP3   OH269180   3.716   0.848  15.074 -1.1163 -0.3960 -0.4920
15922TIP3    H169181   3.753   0.855  14.986  0.7090 -4.4908 -0.2785
15922TIP3    H269182   3.791   0.824  15.130 -2.9165 -2.4313  1.2448
15923TIP3   OH269183   1.106   3.764  13.540  0.2991 -0.1508  0.4859
15923TIP3    H169184   1.113   3.859  13.534 -0.1187 -0.1723 -0.8355
15923TIP3    H269185   1.139   3.742  13.627 -2.3448  1.4641  2.0216
15924TIP3   OH269186   1.948   2.346  12.356  0.4084 -0.0632 -0.1135
15924TIP3    H169187   2.008   2.337  12.430  1.6655  0.8175 -0.9898
15924TIP3    H269188   1.878   2.403  12.389  0.8541  0.1668  0.4517
15925TIP3   OH269189   3.325   1.626   3.960  0.0943  0.3291  0.1348
15925TIP3    H169190   3.339   1.720   3.948 -0.0185  0.4260  0.7268
15925TIP3    H269191   3.411   1.593   3.987 -0.7545  1.0463  4.5149
15926TIP3   OH269192   4.587   0.394   0.983  0.7656 -0.2924  0.3887
15926TIP3    H169193   4.531   0.328   1.024 -0.9246 -0.8953 -2.5902
15926TIP3    H269194   4.652   0.343   0.935 -0.9060  0.0222 -2.4128
15927TIP3   OH269195   2.667   4.614  11.085  0.2374 -0.5741 -0.3067
15927TIP3    H169196   2.588   4.668  11.091  1.1139  0.6113  1.3976
15927TIP3    H269197   2.640   4.537  11.035 -1.1395  1.2840 -2.6248
15928TIP3   OH269198   1.619   6.035   1.419 -0.1035  0.4339 -0.0161
15928TIP3    H169199   1.621   5.965   1.484 -0.9957 -0.3546 -0.8171
15928TIP3    H269200   1.684   6.009   1.354  0.1298  0.7581  0.0824
15929TIP3   OH269201   5.845   6.720  12.534  0.3181 -0.0212  0.5082
15929TIP3    H169202   5.766   6.772  12.522 -0.3985 -1.2135 -0.1386
15929TIP3    H269203   5.917   6.781  12.517 -0.5102  0.3626 -2.1050
15930TIP3   OH269204   5.323   0.669   2.403 -0.3526  0.0553  1.0485
15930TIP3    H169205   5.335   0.579   2.376 -0.3457  0.4726 -0.3875
15930TIP3    H269206   5.319   0.719   2.322  1.5557  1.6082  1.8191
15931TIP3   OH269207   0.492   0.391  16.589 -0.5246  0.1019  0.3645
15931TIP3    H169208   0.510   0.343  16.508 -1.0320  1.2661 -0.4482
15931TIP3    H269209   0.554   0.464  16.588 -1.6942  1.1157  0.1509
15932TIP3   OH269210   4.824   5.436   4.563 -0.3894 -0.4367  0.0328
15932TIP3    H169211   4.857   5.437   4.653 -3.0595 -1.0517  1.1383
15932TIP3    H269212   4.785   5.523   4.551 -1.4224 -0.8775  0.0834
15933TIP3   OH269213   0.513   2.481   6.032  0.2988 -0.1663 -0.0732
15933TIP3    H169214   0.463   2.474   6.114  0.0519  1.6036 -0.0332
15933TIP3    H269215   0.594   2.432   6.049  0.1355 -0.0472  1.1470
15934TIP3   OH269216   3.497   3.011   1.746 -0.4207 -0.0330 -0.0957
15934TIP3    H169217   3.520   2.923   1.717 -0.1080  0.1679 -0.4709
15934TIP3    H269218   3.516   3.067   1.670  0.5315  0.5267  0.5439
15935TIP3   OH269219   4.298   5.574  14.195  0.2291  0.4883  0.5904
15935TIP3    H169220   4.253   5.659  14.202 -0.3583  0.0655  2.2369
15935TIP3    H269221   4.288   5.550  14.103  0.4131  2.1953  0.0798
15936TIP3   OH269222   5.770   2.995   2.711  1.1467 -0.0653 -0.2509
15936TIP3    H169223   5.858   2.962   2.728  0.6406 -1.1319  0.3892
15936TIP3    H269224   5.716   2.917   2.698  0.2373  0.5546 -0.3449
15937TIP3   OH269225   1.308   2.239  16.311 -0.0388  0.0439 -0.1177
15937TIP3    H169226   1.293   2.235  16.217 -0.5045 -1.0491 -0.0094
15937TIP3    H269227   1.403   2.237  16.320 -0.0063 -0.5786 -0.5404
15938TIP3   OH269228   0.048   2.487  14.052 -0.5350 -0.1317  0.2073
15938TIP3    H169229   0.122   2.439  14.089 -0.1741  0.9122  0.8777
15938TIP3    H269230   0.059   2.480  13.957 -0.0928 -0.7550  0.3055
15939TIP3   OH269231   4.895   0.948   0.409 -0.0398  0.1379 -0.2387
15939TIP3    H169232   4.938   0.996   0.338 -1.1316  0.5134 -0.6678
15939TIP3    H269233   4.841   1.014   0.452  0.5702 -0.0974  0.9274
15940TIP3   OH269234   4.138   6.229  16.174  0.3375 -0.3046 -0.2020
15940TIP3    H169235   4.205   6.198  16.236  0.8797  1.5628  0.2383
15940TIP3    H269236   4.102   6.150  16.136  1.8243 -1.4342  0.5996
15941TIP3   OH269237   0.487   3.493  16.437 -0.3252  0.0956 -0.1646
15941TIP3    H169238   0.415   3.502  16.375 -1.2150  1.4703  0.9944
15941TIP3    H269239   0.555   3.552  16.402 -0.4984  0.2343 -0.2703
15942TIP3   OH269240   0.629   0.804  12.379 -0.0254  0.0196  0.4851
15942TIP3    H169241   0.578   0.851  12.445 -1.8179 -0.0982 -0.7567
15942TIP3    H269242   0.622   0.712  12.405  0.1572  0.0683  0.7096
15943TIP3   OH269243   3.900   6.465  11.932  0.0570  0.5340 -0.1843
15943TIP3    H169244   3.994   6.464  11.915  0.0201 -0.7386 -0.4618
15943TIP3    H269245   3.887   6.397  11.998 -0.4892  1.7876  1.0462
15944TIP3   OH269246   4.248   4.029  14.429 -0.1302  0.1040  0.1333
15944TIP3    H169247   4.190   4.035  14.353  1.0970 -0.6952 -0.8946
15944TIP3    H269248   4.286   3.941  14.423  1.0691  0.5479  0.8792
15945TIP3   OH269249   5.429   4.662   1.476 -0.1258  0.0225 -0.0405
15945TIP3    H169250   5.362   4.600   1.446  0.2214  0.1367 -1.1146
15945TIP3    H269251   5.512   4.623   1.447  0.1083  0.8650 -0.5423
15946TIP3   OH269252   2.314   1.482  14.185  0.2022  0.1656  0.1489
15946TIP3    H169253   2.283   1.401  14.226  0.8455  0.3864  1.0985
15946TIP3    H269254   2.248   1.547  14.210  0.7200  0.3548  1.0868
15947TIP3   OH269255   1.208   3.299  11.475 -0.2107 -0.3806  0.3671
15947TIP3    H169256   1.296   3.326  11.447  0.5733 -3.8688 -1.0981
15947TIP3    H269257   1.221   3.257  11.559 -0.7067  0.1659  0.7232
15948TIP3   OH269258   6.282   3.776  15.475 -0.2294 -0.3878  0.1392
15948TIP3    H169259   6.377   3.776  15.463 -0.5427  1.1458 -4.0279
15948TIP3    H269260   6.267   3.838  15.546  1.8516 -0.2949  0.5720
15949TIP3   OH269261   5.927   3.469  15.257  1.3013  0.7430 -0.0013
15949TIP3    H169262   5.981   3.542  15.289  2.0825  0.3206 -0.3413
15949TIP3    H269263   5.906   3.493  15.167  0.3655  1.2138  0.3315
15950TIP3   OH269264   0.972   5.661   1.534  0.0938  0.2004 -0.0918
15950TIP3    H169265   0.886   5.703   1.524 -1.8173 -2.9566  1.4270
15950TIP3    H269266   1.013   5.672   1.449 -2.8475 -0.1194 -1.7149
15951TIP3   OH269267   2.337   5.741  10.587 -0.1116  0.0246  0.2166
15951TIP3    H169268   2.406   5.705  10.530 -1.4293  0.3321 -1.6761
15951TIP3    H269269   2.268   5.674  10.586 -0.7938  0.7097  0.1892
15952TIP3   OH269270   2.011   4.637  14.641  0.1848 -0.1351  0.0100
15952TIP3    H169271   2.104   4.617  14.652 -0.3328 -2.6344  0.5138
15952TIP3    H269272   1.968   4.586  14.710 -1.4178  3.1113  1.6129
15953TIP3   OH269273   4.537   2.352   1.871  0.4395  0.4472  0.2213
15953TIP3    H169274   4.513   2.364   1.962 -1.1331  0.6877 -0.2077
15953TIP3    H269275   4.508   2.263   1.849  1.0321  0.2962  0.0138
15954TIP3   OH269276   0.264   1.063  15.569 -0.1232  0.0990  0.1742
15954TIP3    H169277   0.172   1.085  15.552 -0.7073 -0.3774  2.4320
15954TIP3    H269278   0.267   0.968  15.561  0.9913  0.2825 -3.1974
15955TIP3   OH269279   0.425   2.842  13.309  0.7708  0.3157 -1.1213
15955TIP3    H169280   0.387   2.844  13.397 -1.5726  0.3686 -2.0694
15955TIP3    H269281   0.358   2.802  13.254  2.6734 -0.8851 -2.7078
15956TIP3   OH269282   0.689   1.755   2.980  0.4537 -0.3330 -0.5227
15956TIP3    H169283   0.612   1.797   3.018 -1.0382 -2.4165 -1.0719
15956TIP3    H269284   0.671   1.752   2.886  2.9117  2.3777 -1.2253
15957TIP3   OH269285   0.482   3.018  17.209  0.2692 -0.1450 -0.0016
15957TIP3    H169286   0.553   2.967  17.169  2.0556  1.5833  0.7770
15957TIP3    H269287   0.477   2.987  17.299 -0.8075 -1.0799 -0.3700
15958TIP3   OH269288   0.418   4.291  13.009  0.0043  0.3543 -0.2758
15958TIP3    H169289   0.352   4.305  12.941  0.1968  0.9512 -0.3450
15958TIP3    H269290   0.395   4.354  13.078  0.6708  0.7725 -0.4267
15959TIP3   OH269291   4.025   1.770   3.250  0.0915  0.6522  0.4525
15959TIP3    H169292   4.024   1.816   3.167 -0.1327 -0.1898 -0.0196
15959TIP3    H269293   4.111   1.790   3.287  0.2860  0.8363 -0.0897
15960TIP3   OH269294   2.378   6.266   3.378 -0.0340 -0.0301 -0.6634
15960TIP3    H169295   2.310   6.315   3.422  0.4813  0.5321 -0.4804
15960TIP3    H269296   2.380   6.302   3.289 -1.1248 -1.2134 -1.2046
15961TIP3   OH269297   6.394   4.176   1.632 -0.4671  0.5699  0.1309
15961TIP3    H169298   6.461   4.153   1.567  0.4987 -1.3004  1.6967
15961TIP3    H269299   6.311   4.160   1.587  0.1738 -0.4389 -0.7485
15962TIP3   OH269300   5.635   4.854   2.066  0.2070  0.3604 -0.2606
15962TIP3    H169301   5.659   4.781   2.123 -1.8870 -2.1840 -2.3578
15962TIP3    H269302   5.680   4.835   1.984 -0.0829  1.6377 -0.7301
15963TIP3   OH269303   0.727   2.318  12.073  0.2160  0.1219 -0.3524
15963TIP3    H169304   0.760   2.238  12.033 -0.0324 -0.2851  0.2350
15963TIP3    H269305   0.787   2.335  12.146 -0.4235 -0.2037  0.2570
15964TIP3   OH269306   0.555   1.560  12.798  0.3986 -0.1232  0.1273
15964TIP3    H169307   0.649   1.575  12.787  0.5834 -1.2112  0.0874
15964TIP3    H269308   0.514   1.617  12.733  1.1195 -0.7707 -0.9403
15965TIP3   OH269309   1.565   1.983  11.589 -0.2559  0.3627  0.0156
15965TIP3    H169310   1.537   1.947  11.505 -0.7819 -0.6535  0.6045
15965TIP3    H269311   1.500   1.951  11.651  0.4937  0.5554  0.9191
15966TIP3   OH269312   4.931   4.313  12.380 -0.2631  0.1618 -0.2174
15966TIP3    H169313   5.022   4.342  12.380 -0.1755  0.1884  2.9956
15966TIP3    H269314   4.917   4.277  12.292  3.8904 -3.1507  0.1931
15967TIP3   OH269315   6.351   3.168  16.332  0.2431 -0.5031  0.2501
15967TIP3    H169316   6.291   3.186  16.259 -1.1463 -0.6582  1.2994
15967TIP3    H269317   6.341   3.074  16.348  0.1130 -0.3744  0.9665
15968TIP3   OH269318   5.039   5.079  15.643  0.1987  0.2086  0.0065
15968TIP3    H169319   5.070   5.093  15.554 -0.6971 -0.3817 -0.4194
15968TIP3    H269320   5.003   4.990  15.642 -1.2901  0.7701  0.5137
15969TIP3   OH269321   1.736   6.497  13.967 -0.3450 -0.2658  0.1370
15969TIP3    H169322   1.722   6.592  13.960  1.7330  0.0939  0.2544
15969TIP3    H269323   1.659   6.458  13.925 -1.2216  1.4549  0.0434
15970TIP3   OH269324   4.660   5.538  13.054  0.2852  0.0418 -0.4887
15970TIP3    H169325   4.648   5.456  13.102 -0.3085 -0.7890 -1.9808
15970TIP3    H269326   4.637   5.607  13.117 -2.5143 -1.0678 -0.1193
15971TIP3   OH269327   0.973   5.481   1.049 -0.1593 -0.3435 -0.2174
15971TIP3    H169328   0.940   5.568   1.071  0.4969 -0.8906  3.5798
15971TIP3    H269329   0.915   5.420   1.095 -0.2661 -1.9654 -2.3358
15972TIP3   OH269330   1.091   5.590   2.365 -0.1706 -0.2959  0.0200
15972TIP3    H169331   1.086   5.613   2.458  0.3971 -0.9019  0.2114
15972TIP3    H269332   1.040   5.657   2.320 -1.5456 -0.7256  0.8834
15973TIP3   OH269333   0.991   6.668   3.158 -0.1771  0.1376  0.1954
15973TIP3    H169334   1.059   6.648   3.093  0.2810 -1.5023  1.1157
15973TIP3    H269335   0.917   6.613   3.132 -1.4356  2.3724 -1.1614
15974TIP3   OH269336   1.930   5.820  16.330  0.0546 -0.3031  0.1425
15974TIP3    H169337   1.869   5.833  16.403 -1.9552 -1.0295 -1.3374
15974TIP3    H269338   2.015   5.806  16.373 -0.8203  0.4383  2.2872
15975TIP3   OH269339   3.851   3.918  15.708  0.4915  0.3734 -0.4218
15975TIP3    H169340   3.891   3.862  15.774 -0.5218  0.8024  0.5987
15975TIP3    H269341   3.906   3.996  15.705  0.4498  0.4216  0.0481
15976TIP3   OH269342   1.167   2.982   3.339  0.0393  0.2810 -0.0093
15976TIP3    H169343   1.219   2.938   3.271 -2.1462  0.7312 -2.1032
15976TIP3    H269344   1.213   3.065   3.354  0.8128 -0.0313 -0.5834
15977TIP3   OH269345   5.445   0.276  11.757  0.0198  0.6019  0.1528
15977TIP3    H169346   5.526   0.261  11.806  0.5766  1.8632 -0.3545
15977TIP3    H269347   5.407   0.188  11.747  1.1674  0.0238  0.6490
15978TIP3   OH269348   2.151   2.191   2.750 -0.1227 -0.1161  0.3344
15978TIP3    H169349   2.085   2.148   2.804  1.2166 -3.5808 -0.4846
15978TIP3    H269350   2.102   2.227   2.676 -1.2929 -0.8994  0.7034
15979TIP3   OH269351   3.210   1.919  14.962  0.2402  0.4953 -0.2379
15979TIP3    H169352   3.183   1.992  14.906 -1.0449  0.3154  0.1309
15979TIP3    H269353   3.241   1.853  14.900 -0.2420  0.6754 -0.6850
15980TIP3   OH269354   2.217   5.657  15.869  0.1342 -0.2989 -0.3565
15980TIP3    H169355   2.254   5.652  15.781 -0.8139  1.0236 -0.8592
15980TIP3    H269356   2.205   5.566  15.895  0.8878 -0.7156 -1.3891
15981TIP3   OH269357   1.062   2.367   2.245  0.2233 -0.1696  0.4039
15981TIP3    H169358   1.079   2.432   2.177 -1.4760 -0.7686 -0.6510
15981TIP3    H269359   1.067   2.283   2.200 -0.2030 -0.6287  1.1926
15982TIP3   OH269360   6.539   0.471  16.064  0.0979 -0.3574 -0.4030
15982TIP3    H169361   6.446   0.493  16.057 -0.0196 -0.8301 -0.3189
15982TIP3    H269362   6.544   0.379  16.040  0.6858 -0.0799 -1.4341
15983TIP3   OH269363   0.790   3.285   0.206 -0.1283  0.0019  0.1479
15983TIP3    H169364   0.697   3.307   0.219 -0.2196  0.1459 -0.6932
15983TIP3    H269365   0.823   3.270   0.294 -0.5395  1.5854  0.6053
15984TIP3   OH269366   5.127   4.874   1.870  0.2777 -0.0099  0.2816
15984TIP3    H169367   5.220   4.883   1.849  0.1333 -0.8230 -0.8002
15984TIP3    H269368   5.089   4.959   1.848  0.5455 -0.0927 -0.5344
15985TIP3   OH269369   2.572   4.447  12.473  0.2827  0.0073  0.1431
15985TIP3    H169370   2.487   4.425  12.510  0.0292  1.2226  0.3279
15985TIP3    H269371   2.623   4.366  12.480 -0.2151 -0.1929  1.8835
15986TIP3   OH269372   1.611   3.986   6.135 -0.0613  0.5650  0.2780
15986TIP3    H169373   1.578   3.913   6.189  2.2009 -0.9843 -0.3046
15986TIP3    H269374   1.680   4.026   6.187  0.3862  0.7055 -0.4064
15987TIP3   OH269375   4.819   3.344   2.029 -0.4100  0.3707  0.1686
15987TIP3    H169376   4.762   3.412   2.064 -1.0632  0.6102 -1.2918
15987TIP3    H269377   4.801   3.267   2.082 -0.1665  1.1364  1.4013
15988TIP3   OH269378   4.781   3.119   6.609 -0.5851 -0.0227  0.4153
15988TIP3    H169379   4.827   3.063   6.546 -0.1547 -0.2524  0.9241
15988TIP3    H269380   4.810   3.207   6.588 -0.4876 -0.0920  0.2546
15989TIP3   OH269381   2.754   5.180   1.006 -0.7330  0.0800 -0.1183
15989TIP3    H169382   2.772   5.208   0.917 -0.4228 -0.2496 -0.1587
15989TIP3    H269383   2.715   5.094   0.997 -0.6364  0.0154  0.0681
15990TIP3   OH269384   0.035   0.104   0.897  0.0927  0.0322  0.3965
15990TIP3    H169385   0.028   0.018   0.938 -0.0036 -0.2787 -0.2500
15990TIP3    H269386   0.125   0.132   0.915  0.5938 -0.8553 -0.6100
15991TIP3   OH269387   2.399   3.068  15.227  0.9919  0.2549  0.6689
15991TIP3    H169388   2.347   2.994  15.194  1.3520 -0.2974  1.3182
15991TIP3    H269389   2.357   3.093  15.309  0.9018  0.7457  0.4769
15992TIP3   OH269390   3.365   4.316  17.284  0.5048 -0.3443 -0.1506
15992TIP3    H169391   3.395   4.268  17.361  1.1918  0.5773  0.1621
15992TIP3    H269392   3.418   4.282  17.212  1.4793  0.4116  0.1901
15993TIP3   OH269393   1.826   1.993  16.590  0.3461 -0.4372 -0.4533
15993TIP3    H169394   1.901   2.049  16.569  0.2917 -0.6338 -1.1766
15993TIP3    H269395   1.769   1.998  16.513 -1.1061  0.8744  0.6340
15994TIP3   OH269396   0.980   2.049   3.862  0.5115 -0.0045  0.2758
15994TIP3    H169397   0.888   2.040   3.887  0.3164  0.6214 -0.1856
15994TIP3    H269398   1.021   2.093   3.937  0.3278  0.1805  0.2681
15995TIP3   OH269399   6.240   2.979   2.892  0.0214  0.5659 -0.3609
15995TIP3    H169400   6.329   2.952   2.869  0.1193  1.4931 -1.1138
15995TIP3    H269401   6.216   3.044   2.826 -2.3868 -1.8618 -2.0671
15996TIP3   OH269402   1.568   3.942  14.213 -0.4837  0.5153  0.3047
15996TIP3    H169403   1.571   3.931  14.117  0.0418 -2.0052  0.5394
15996TIP3    H269404   1.595   4.032  14.227  0.6853  0.5816 -1.8655
15997TIP3   OH269405   4.656   1.590   3.391 -0.0379  0.3057 -0.1680
15997TIP3    H169406   4.649   1.503   3.429 -1.1716  0.8357  0.9019
15997TIP3    H269407   4.721   1.581   3.322 -1.0541 -1.6858 -0.9327
15998TIP3   OH269408   4.163   6.365  13.439  0.2144  0.3573 -0.2011
15998TIP3    H169409   4.068   6.364  13.426  0.2931 -2.9342 -1.4172
15998TIP3    H269410   4.176   6.312  13.518  1.0476  0.9875  0.0924
15999TIP3   OH269411   1.302   2.240   2.127 -0.0298 -0.2174  0.0636
15999TIP3    H169412   1.304   2.207   2.217 -0.4102  1.9295  0.8937
15999TIP3    H269413   1.366   2.311   2.126 -1.2345  0.8941 -0.8902
16000TIP3   OH269414   2.978   4.972  15.581 -0.2817 -0.3680 -0.7948
16000TIP3    H169415   2.976   5.050  15.526 -0.3277 -0.1500 -0.4914
16000TIP3    H269416   2.940   5.001  15.664  2.1619  0.0173  0.2643
16001TIP3   OH269417   2.229   2.744   2.121 -0.2713 -0.1921  0.0801
16001TIP3    H169418   2.133   2.741   2.113 -0.1575 -0.8504 -1.2708
16001TIP3    H269419   2.248   2.684   2.193 -0.8928  0.1836  0.5717
16002TIP3   OH269420   6.306   4.293   2.205 -0.1630 -0.5184  0.1147
16002TIP3    H169421   6.391   4.333   2.191  0.2175 -1.2146  0.4000
16002TIP3    H269422   6.321   4.225   2.271 -0.9476 -0.6050  0.2245
16003TIP3   OH269423   5.114   3.227   2.410  0.3049 -0.7784 -0.0007
16003TIP3    H169424   5.060   3.291   2.458 -0.6051  0.1208 -2.0994
16003TIP3    H269425   5.069   3.144   2.422 -0.4224 -0.4004 -0.0545
16004TIP3   OH269426   4.526   2.531   2.569 -0.2325  0.9003  0.0289
16004TIP3    H169427   4.501   2.466   2.504 -1.0581  0.5121  0.7137
16004TIP3    H269428   4.570   2.600   2.518 -1.2607  0.8284 -1.0024
16005TIP3   OH269429   5.737   1.082   4.961  0.4353  0.2966 -0.5543
16005TIP3    H169430   5.751   1.049   4.872 -0.8270 -0.4042 -0.5171
16005TIP3    H269431   5.693   1.011   5.006  1.5404  0.4494  0.8122
16006TIP3   OH269432   4.765   2.374   4.674 -0.0372 -0.2083 -0.0113
16006TIP3    H169433   4.698   2.390   4.741 -1.5414  0.8185 -1.6810
16006TIP3    H269434   4.845   2.356   4.724 -1.5148 -1.4957  2.0556
16007TIP3   OH269435   3.558   6.493  12.553 -0.1718  0.0208  1.0810
16007TIP3    H169436   3.488   6.528  12.609 -0.3194  1.2455  0.1709
16007TIP3    H269437   3.639   6.527  12.592 -0.2610  0.7118  0.6724
16008TIP3   OH269438   1.520   5.054  14.889 -0.8424  0.1644 -0.5344
16008TIP3    H169439   1.543   5.139  14.851  0.4365  0.8281  1.5699
16008TIP3    H269440   1.428   5.063  14.912 -1.1246  0.4158 -1.6700
16009TIP3   OH269441   2.196   2.532  17.089 -0.5885  0.5725  0.5629
16009TIP3    H169442   2.233   2.497  17.008 -1.5319 -0.4673  0.5628
16009TIP3    H269443   2.220   2.625  17.088  0.5655  0.2801 -0.2375
16010TIP3   OH269444   0.278   6.765   0.237  0.0117 -0.3762  0.1362
16010TIP3    H169445   0.230   6.806   0.308 -0.1658 -0.6566  0.1793
16010TIP3    H269446   0.259   6.672   0.245  0.6160 -0.5032  0.1993
16011TIP3   OH269447   1.237   4.143  12.379  0.5372 -0.0952  0.2394
16011TIP3    H169448   1.176   4.198  12.428  1.4641  1.6864 -0.4992
16011TIP3    H269449   1.318   4.195  12.375  0.9703 -0.8523 -1.8142
16012TIP3   OH269450   5.395   1.794   5.764 -0.8420  0.0664 -0.1391
16012TIP3    H169451   5.310   1.754   5.782 -2.3162  2.1822 -1.8505
16012TIP3    H269452   5.398   1.871   5.820  0.1384 -0.1535  0.1448
16013TIP3   OH269453   4.296   6.632  14.611 -0.3584 -0.3354 -0.0965
16013TIP3    H169454   4.305   6.575  14.687 -0.9844 -1.2675 -0.6946
16013TIP3    H269455   4.385   6.661  14.592 -0.2609  0.3089  1.2754
16014TIP3   OH269456   3.973   5.693  11.279  0.5274 -0.0637 -0.0019
16014TIP3    H169457   4.050   5.671  11.227  0.4714  0.8001 -0.4783
16014TIP3    H269458   3.988   5.652  11.364  0.3283 -2.0778 -0.8743
16015TIP3   OH269459   3.141   4.131  15.752 -0.6498  0.2824 -0.2463
16015TIP3    H169460   3.082   4.198  15.787  0.1092  1.2556 -0.7472
16015TIP3    H269461   3.221   4.180  15.730  0.5008 -1.0480  0.7899
16016TIP3   OH269462   0.565   1.919   1.113  0.1821 -1.3751 -0.3020
16016TIP3    H169463   0.510   1.887   1.042 -0.3385 -1.9611  0.3475
16016TIP3    H269464   0.654   1.916   1.078 -0.2875  0.8409 -1.8280
16017TIP3   OH269465   2.514   2.870   2.413 -0.0992 -0.3708  0.0617
16017TIP3    H169466   2.567   2.911   2.344  1.1886 -2.3472 -0.2100
16017TIP3    H269467   2.490   2.785   2.377 -1.5757 -0.4237  1.0944
16018TIP3   OH269468   0.032   2.733   0.535 -0.7264  0.4159  0.1066
16018TIP3    H169469   0.015   2.756   0.444  1.0693  0.4966 -0.2458
16018TIP3    H269470   0.065   2.643   0.532  0.4431  0.8051  0.5163
16019TIP3   OH269471   4.001   0.399   3.321 -0.2257  0.0353  0.8035
16019TIP3    H169472   3.909   0.397   3.295 -0.6472 -1.8790  2.2923
16019TIP3    H269473   4.004   0.355   3.405  2.1892 -0.7893  0.3675
16020TIP3   OH269474   3.592   5.658  15.711 -0.0830 -0.0644 -0.2073
16020TIP3    H169475   3.499   5.665  15.734 -0.2287 -0.5584 -0.6335
16020TIP3    H269476   3.596   5.586  15.648  0.4143  0.7706 -1.1557
16021TIP3   OH269477   4.431   2.292  17.111 -0.1068 -0.2708  0.3653
16021TIP3    H169478   4.360   2.248  17.064  0.5540 -0.6983 -0.2434
16021TIP3    H269479   4.504   2.294  17.050  0.5223 -0.1331  1.0966
16022TIP3   OH269480   3.688   5.105  14.323  0.2394 -0.4504 -0.4955
16022TIP3    H169481   3.775   5.083  14.356  1.5071  2.3912 -1.5911
16022TIP3    H269482   3.686   5.071  14.234 -0.6138 -2.2645  0.1690
16023TIP3   OH269483   0.344   0.793   4.964  0.7499 -0.1594 -0.4461
16023TIP3    H169484   0.399   0.804   4.886 -1.4863  2.5130 -1.8353
16023TIP3    H269485   0.303   0.707   4.954 -0.2728  0.5382 -2.8577
16024TIP3   OH269486   5.298   4.909   5.084  0.0722 -0.6440  0.2018
16024TIP3    H169487   5.326   4.893   4.994 -3.7334 -0.5358 -1.1566
16024TIP3    H269488   5.333   4.996   5.105 -2.6330  1.4360 -2.9688
16025TIP3   OH269489   4.203   5.497   4.920  0.4160  0.0763  0.5014
16025TIP3    H169490   4.179   5.488   5.012  0.0303  0.3647  0.4323
16025TIP3    H269491   4.271   5.431   4.906 -0.1881 -0.6180  0.7584
16026TIP3   OH269492   2.643   3.186   2.488 -0.0839  0.3633  0.0947
16026TIP3    H169493   2.568   3.128   2.497 -0.2401  0.5008 -0.3107
16026TIP3    H269494   2.713   3.142   2.536 -0.0867 -0.3573 -0.5601
16027TIP3   OH269495   2.089   5.392  13.860 -0.0383  0.2321  0.2768
16027TIP3    H169496   2.175   5.350  13.859 -0.5951 -0.9912  0.5475
16027TIP3    H269497   2.100   5.471  13.808  0.9860 -0.4533 -0.6031
16028TIP3   OH269498   3.784   2.902  11.242 -0.2268 -1.1227  0.2358
16028TIP3    H169499   3.758   2.992  11.223  0.9359 -0.7740  0.2393
16028TIP3    H269500   3.701   2.857  11.261 -0.8268 -0.0750  0.1955
16029TIP3   OH269501   0.164   0.124  14.688  0.1495  0.2319  0.1259
16029TIP3    H169502   0.120   0.209  14.680 -1.7165 -0.5030  1.9460
16029TIP3    H269503   0.255   0.147  14.708 -0.2538  1.7989  0.3290
16030TIP3   OH269504   2.770   1.673   2.153 -0.2882  0.4983 -0.0549
16030TIP3    H169505   2.738   1.692   2.241 -0.1896 -0.8618  0.2960
16030TIP3    H269506   2.726   1.591   2.129  1.7049 -0.5816 -0.1873
16031TIP3   OH269507   5.173   6.672  16.612  0.3893  0.4638  0.0853
16031TIP3    H169508   5.102   6.722  16.652  0.5691  0.8345 -0.0633
16031TIP3    H269509   5.220   6.633  16.685  0.9069  1.3910  0.2513
16032TIP3   OH269510   6.315   1.535  16.829 -0.1964 -0.1844 -0.0015
16032TIP3    H169511   6.404   1.562  16.851  0.5707 -0.9786 -1.9280
16032TIP3    H269512   6.268   1.618  16.815  0.9098  0.2369 -1.3809
16033TIP3   OH269513   1.292   0.168  12.456  0.3975  0.5561  0.2547
16033TIP3    H169514   1.383   0.194  12.471  0.0679  0.7221  2.2298
16033TIP3    H269515   1.294   0.072  12.463  0.4458  0.5469  0.1205
16034TIP3   OH269516   4.502   0.392   0.266  0.4512 -0.4929  0.2761
16034TIP3    H169517   4.550   0.452   0.209  0.8890 -0.0246  1.1117
16034TIP3    H269518   4.552   0.311   0.263  1.1023 -0.1262  0.8380
16035TIP3   OH269519   2.935   5.638  16.099  0.0467 -0.0860  0.3655
16035TIP3    H169520   2.994   5.713  16.104 -1.2085  0.9441  0.1277
16035TIP3    H269521   2.993   5.562  16.105  1.4931  0.8610 -0.8106
16036TIP3   OH269522   5.497   0.738   2.964 -0.0739  0.1793  0.1735
16036TIP3    H169523   5.548   0.695   2.895 -1.0521  0.7581 -0.9514
16036TIP3    H269524   5.409   0.705   2.952 -0.0750 -0.4443  1.7931
16037TIP3   OH269525   6.435   6.056   1.558 -0.0630  0.1732  0.0144
16037TIP3    H169526   6.342   6.068   1.541 -0.6885 -1.0980  2.1548
16037TIP3    H269527   6.445   5.963   1.578  1.6699  0.2812 -0.1688
16038TIP3   OH269528   1.662   1.641   2.866  0.7131  0.6148 -0.3453
16038TIP3    H169529   1.676   1.559   2.819  2.2058  0.3373  0.5427
16038TIP3    H269530   1.609   1.617   2.942  1.0757  0.4750 -0.1331
16039TIP3   OH269531   5.479   1.820   6.492 -0.0632 -0.1980  0.4083
16039TIP3    H169532   5.534   1.795   6.418 -2.0429 -1.5766 -0.6816
16039TIP3    H269533   5.468   1.740   6.542 -0.4298  0.2441  1.0564
16040TIP3   OH269534   4.107   5.895   0.374 -0.1636 -0.3505  0.0105
16040TIP3    H169535   4.120   5.801   0.363  0.4554 -0.4692  1.4311
16040TIP3    H269536   4.039   5.902   0.441 -2.2120  0.2686 -2.0120
16041TIP3   OH269537   0.753   3.795  11.464 -0.2912  0.1273 -0.2717
16041TIP3    H169538   0.772   3.884  11.434  2.1528 -0.7599 -1.5836
16041TIP3    H269539   0.725   3.806  11.555  0.2590  2.1870 -0.3029
16042TIP3   OH269540   2.426   4.780  13.980 -0.1719 -0.3100  0.3406
16042TIP3    H169541   2.436   4.734  13.896  0.0347 -0.7484  0.5981
16042TIP3    H269542   2.404   4.710  14.042 -2.0540  0.2331  0.3403
16043TIP3   OH269543   5.167   3.715   4.433 -0.5342  0.0665 -0.4410
16043TIP3    H169544   5.147   3.691   4.524  0.1339  1.1742  0.0189
16043TIP3    H269545   5.241   3.776   4.440 -2.1554  2.2895 -1.5254
16044TIP3   OH269546   5.479   2.522  11.200  0.0669 -0.1476 -0.6076
16044TIP3    H169547   5.425   2.457  11.156 -1.3269  0.9069 -0.4965
16044TIP3    H269548   5.471   2.600  11.146  2.5908 -0.3072 -1.3493
16045TIP3   OH269549   5.150   5.054   2.644 -0.1007  0.5423 -0.2879
16045TIP3    H169550   5.155   4.984   2.709  1.1386  0.0599 -0.8696
16045TIP3    H269551   5.059   5.053   2.614 -0.2327 -0.4394  0.1215
16046TIP3   OH269552   2.189   1.337   3.006 -0.1119  0.3528  0.2331
16046TIP3    H169553   2.141   1.317   3.086  1.3432  1.1194  1.3452
16046TIP3    H269554   2.183   1.257   2.954  0.0891 -0.6659  1.7157
16047TIP3   OH269555   2.682   2.745   3.802 -0.3691 -0.0469 -0.5734
16047TIP3    H169556   2.732   2.825   3.781 -1.0040  1.1818  2.1579
16047TIP3    H269557   2.646   2.762   3.889 -1.6314 -2.8333 -0.4668
16048TIP3   OH269558   3.715   4.543  17.065 -0.2940 -0.2037  0.2275
16048TIP3    H169559   3.707   4.570  17.157 -0.1359  0.7679 -0.0264
16048TIP3    H269560   3.798   4.581  17.036 -1.2702  1.2463 -0.8569
16049TIP3   OH269561   6.485   1.852  12.652  0.8933  0.0658  0.2236
16049TIP3    H169562   6.564   1.900  12.677  0.7505 -0.4714  1.7916
16049TIP3    H269563   6.484   1.775  12.709  0.1662 -0.8759 -0.9987
16050TIP3   OH269564   3.040   3.699   1.662 -0.0439 -0.6794  0.3826
16050TIP3    H169565   3.065   3.646   1.738 -1.1992 -0.8903  0.6398
16050TIP3    H269566   2.949   3.723   1.679  0.3411  1.0909  0.0959
16051TIP3   OH269567   4.255   4.699  13.219 -0.3382  0.2669 -0.7242
16051TIP3    H169568   4.263   4.786  13.259 -3.0452 -0.0436  0.7222
16051TIP3    H269569   4.161   4.685  13.211  0.0106 -2.5716 -0.8531
16052TIP3   OH269570   4.162   1.173   5.611  0.1085  0.1528 -0.6750
16052TIP3    H169571   4.188   1.265   5.609  1.3618 -0.1673 -0.3029
16052TIP3    H269572   4.244   1.125   5.596 -0.2860 -0.9212  0.4100
16053TIP3   OH269573   4.667   4.908   0.131  0.7810 -0.4507 -0.0606
16053TIP3    H169574   4.580   4.948   0.140  1.0189 -0.1535  1.1265
16053TIP3    H269575   4.678   4.894   0.037 -1.1582 -1.8547 -0.1301
16054TIP3   OH269576   3.932   1.657  12.019  0.6607 -0.1709  0.0102
16054TIP3    H169577   4.004   1.700  11.972 -0.5593 -0.5720 -2.3997
16054TIP3    H269578   3.853   1.703  11.988 -0.3211 -1.4867  0.4875
16055TIP3   OH269579   1.071   1.888   0.275 -0.1521  0.3270 -0.2159
16055TIP3    H169580   1.084   1.859   0.184  1.4852  1.3721 -0.3555
16055TIP3    H269581   1.062   1.806   0.324 -0.6656 -0.2686 -1.2563
16056TIP3   OH269582   1.058   3.423   1.027  0.2841  0.2685 -0.0511
16056TIP3    H169583   1.115   3.491   1.063  0.9285  0.0298 -0.5943
16056TIP3    H269584   1.018   3.463   0.950 -1.0794  0.7725  0.8747
16057TIP3   OH269585   3.253   4.471  17.052  0.0060  0.1930  0.5479
16057TIP3    H169586   3.301   4.549  17.025  0.0309 -0.1594 -0.5010
16057TIP3    H269587   3.306   4.433  17.122  1.9355 -0.7864 -1.3067
16058TIP3   OH269588   0.359   6.565  13.929  0.2202 -1.0634 -0.5462
16058TIP3    H169589   0.354   6.472  13.906  0.9928 -0.6477 -2.5407
16058TIP3    H269590   0.403   6.606  13.855 -0.2061  0.9284  0.2456
16059TIP3   OH269591   4.976   1.696  15.140  0.0937  0.3227 -0.5495
16059TIP3    H169592   5.041   1.635  15.176 -1.3924 -0.9832  0.0465
16059TIP3    H269593   4.958   1.662  15.053  1.2747  1.5601 -1.2992
16060TIP3   OH269594   4.565   5.923   4.473  0.1130 -0.3074 -0.2629
16060TIP3    H169595   4.501   5.962   4.532  1.3492  0.4535  0.6049
16060TIP3    H269596   4.534   5.833   4.460 -0.3065 -0.4139  1.3544
16061TIP3   OH269597   0.280   1.379   0.270  0.6162  0.3022  0.3285
16061TIP3    H169598   0.347   1.446   0.260 -1.1909  2.2693  0.7490
16061TIP3    H269599   0.257   1.381   0.363 -0.5699  0.2545  0.0565
16062TIP3   OH269600   4.642   1.029   5.423  0.2253  0.2257  0.1289
16062TIP3    H169601   4.705   0.977   5.472  0.2294  0.6756  0.6056
16062TIP3    H269602   4.689   1.111   5.404  0.2421  0.0396 -0.6689
16063TIP3   OH269603   2.836   5.199  16.965 -0.2841 -0.6538  0.0396
16063TIP3    H169604   2.828   5.221  16.872  0.5039  1.9203  0.5152
16063TIP3    H269605   2.763   5.245  17.007 -0.8778 -2.1214  0.7003
16064TIP3   OH269606   3.694   1.552  13.117  0.3471 -0.0086 -0.2432
16064TIP3    H169607   3.683   1.481  13.054  0.0695  0.1916 -0.4252
16064TIP3    H269608   3.750   1.616  13.071  1.7556 -0.7195  0.4300
16065TIP3   OH269609   0.675   3.709   1.629 -0.2269  0.4999 -0.8786
16065TIP3    H169610   0.621   3.708   1.550 -0.9306 -0.1860 -0.4055
16065TIP3    H269611   0.614   3.729   1.699  0.6150  2.5033 -0.6372
16066TIP3   OH269612   3.703   1.696   1.707  0.4565  0.2632  1.1915
16066TIP3    H169613   3.752   1.734   1.635 -0.3737 -0.8763 -0.0276
16066TIP3    H269614   3.760   1.627   1.741  0.0700 -0.5001  0.3257
16067TIP3   OH269615   0.223   3.000   1.318 -0.1061 -0.0748  0.0602
16067TIP3    H169616   0.158   2.943   1.359  1.6485 -0.5407  2.4670
16067TIP3    H269617   0.208   3.085   1.357 -1.3684  0.6960 -1.9543
16068TIP3   OH269618   5.305   3.412  14.400  0.5329 -0.3176  0.2165
16068TIP3    H169619   5.319   3.339  14.460  1.4302 -0.3533 -0.0292
16068TIP3    H269620   5.371   3.400  14.332  1.0468  1.0136  0.4516
16069TIP3   OH269621   1.458   0.317  12.201 -0.3710  0.7204  0.1329
16069TIP3    H169622   1.410   0.380  12.255 -0.8676  1.0310 -0.6607
16069TIP3    H269623   1.550   0.344  12.209 -0.6610  2.1875 -0.9879
16070TIP3   OH269624   4.575   2.586   3.113 -0.0508  0.4189 -0.0909
16070TIP3    H169625   4.494   2.536   3.107  0.0956  0.3628 -2.3407
16070TIP3    H269626   4.547   2.671   3.148 -0.5974 -0.4838  1.8318
16071TIP3   OH269627   2.827   2.521  11.529 -0.1516  0.1289 -0.0025
16071TIP3    H169628   2.783   2.437  11.542  0.7032 -0.0522  2.0408
16071TIP3    H269629   2.920   2.501  11.540  0.2209  1.0325 -1.3319
16072TIP3   OH269630   6.606   3.832   0.958  0.3153  0.1583  0.1169
16072TIP3    H169631   6.647   3.858   0.875 -0.7811 -0.8531 -0.7738
16072TIP3    H269632   6.630   3.902   1.019 -1.0635  2.3730 -1.7150
16073TIP3   OH269633   0.447   6.102   6.266 -0.3558  0.2223 -0.3713
16073TIP3    H169634   0.508   6.135   6.332  1.0071 -1.0360 -0.9339
16073TIP3    H269635   0.364   6.093   6.313  0.1954  0.7809  0.7640
16074TIP3   OH269636   2.616   3.196   0.271 -0.0568  0.6510 -0.2373
16074TIP3    H169637   2.526   3.193   0.304 -0.5922 -0.2259 -1.6708
16074TIP3    H269638   2.660   3.123   0.315 -0.2017  0.7436  0.0636
16075TIP3   OH269639   0.531   5.643   4.695  0.3808 -0.4274 -0.4678
16075TIP3    H169640   0.496   5.555   4.708 -1.3813  0.0169 -1.7633
16075TIP3    H269641   0.473   5.699   4.746  0.7042  0.1101 -0.6876
16076TIP3   OH269642   5.468   5.789  17.138  0.4684  0.0702 -0.1150
16076TIP3    H169643   5.500   5.879  17.151 -0.8609  0.2761  2.5538
16076TIP3    H269644   5.547   5.735  17.138  1.3407  1.2195 -2.3417
16077TIP3   OH269645   6.083   6.633   6.416  0.2925  0.2339  0.0063
16077TIP3    H169646   6.090   6.724   6.446  1.3903  0.2292 -0.1910
16077TIP3    H269647   6.014   6.595   6.469  0.0354  1.1044  0.3073
16078TIP3   OH269648   5.887   3.603  11.991 -0.6805  0.6584 -0.0366
16078TIP3    H169649   5.936   3.632  11.915 -0.0718 -0.1323  0.0455
16078TIP3    H269650   5.908   3.667  12.059 -0.2951  0.7034 -0.1956
16079TIP3   OH269651   4.106   5.158   0.233 -0.1747  0.8638  0.0321
16079TIP3    H169652   4.023   5.167   0.280 -0.5715 -0.5015 -0.3706
16079TIP3    H269653   4.141   5.074   0.262  0.2047  0.6000 -1.1319
16080TIP3   OH269654   0.175   0.208   1.578 -0.3617 -0.4661 -0.4263
16080TIP3    H169655   0.178   0.207   1.674  1.0784  0.2554 -0.4476
16080TIP3    H269656   0.133   0.291   1.556  1.1002  0.2981 -0.4254
16081TIP3   OH269657   2.570   2.822  14.608 -0.4657 -0.1807 -0.3342
16081TIP3    H169658   2.491   2.835  14.557 -1.3102  0.4234  1.0678
16081TIP3    H269659   2.544   2.839  14.698  1.2108 -0.1690  0.1930
16082TIP3   OH269660   1.981   0.155  12.348  0.0210 -0.0493 -0.2264
16082TIP3    H169661   2.052   0.100  12.382 -0.2037 -0.4688 -0.4268
16082TIP3    H269662   2.023   0.210  12.281  0.1554 -0.3154 -0.3642
16083TIP3   OH269663   3.089   0.111  16.651  0.0561  0.2354 -0.0058
16083TIP3    H169664   3.106   0.130  16.743 -2.3948 -1.2044  0.8358
16083TIP3    H269665   3.004   0.151  16.634 -0.3101 -0.9625 -1.1537
16084TIP3   OH269666   6.516   5.422   1.300  0.1934 -0.1888 -0.5742
16084TIP3    H169667   6.567   5.362   1.355  0.2902  0.9531  0.6427
16084TIP3    H269668   6.438   5.373   1.277  0.5439 -0.9906 -0.1094
16085TIP3   OH269669   4.371   3.881   1.943 -0.0031  0.4566  0.6542
16085TIP3    H169670   4.294   3.861   1.996 -0.4432 -0.8893 -0.4381
16085TIP3    H269671   4.443   3.836   1.987  0.0822  1.2829  1.3850
16086TIP3   OH269672   1.309   0.458   6.383  0.1600 -0.2072 -0.7853
16086TIP3    H169673   1.234   0.404   6.357  0.2623 -0.4927 -0.4979
16086TIP3    H269674   1.276   0.548   6.379  0.1394 -0.2491 -1.7681
16087TIP3   OH269675   5.400   0.336   4.251  0.1522 -0.1361  0.5430
16087TIP3    H169676   5.374   0.244   4.243 -0.3134 -0.0846  1.3546
16087TIP3    H269677   5.403   0.368   4.161 -3.2182  0.0011  0.3730
16088TIP3   OH269678   2.793   0.133   2.958 -0.3066 -0.2161  0.1116
16088TIP3    H169679   2.883   0.100   2.967  0.0060  0.2280 -1.1293
16088TIP3    H269680   2.776   0.178   3.040  0.6151 -0.3002  0.3672
16089TIP3   OH269681   4.746   3.565   3.123  0.3627  0.3992  0.5592
16089TIP3    H169682   4.786   3.500   3.182 -0.1081 -1.2353 -0.8442
16089TIP3    H269683   4.763   3.649   3.165 -0.8868 -0.7371  3.5871
16090TIP3   OH269684   0.788   6.289  11.852 -0.6033 -0.5379  0.3351
16090TIP3    H169685   0.873   6.318  11.818 -0.4450 -0.5030  0.7668
16090TIP3    H269686   0.742   6.258  11.774 -0.7657  0.8116 -0.1332
16091TIP3   OH269687   1.932   4.062   5.892  0.4967 -0.3676  0.1218
16091TIP3    H169688   1.964   4.068   5.982  1.0149  1.9705 -0.1506
16091TIP3    H269689   1.861   3.998   5.896  1.4352 -1.3816  1.8812
16092TIP3   OH269690   2.277   4.750   0.178 -0.1299 -0.4013 -0.2593
16092TIP3    H169691   2.209   4.690   0.209 -0.8484 -0.7804 -2.4419
16092TIP3    H269692   2.359   4.710   0.207 -0.6935 -1.3391  0.0773
16093TIP3   OH269693   1.182   5.934   4.380  0.1374 -0.1862  0.4823
16093TIP3    H169694   1.193   5.855   4.434 -0.9779  0.4484  1.7116
16093TIP3    H269695   1.268   5.974   4.377  0.1538  0.0341  2.3036
16094TIP3   OH269696   3.039   6.222   3.640  0.5016 -0.4188  0.4263
16094TIP3    H169697   2.945   6.208   3.630  0.2154 -0.3839  2.5550
16094TIP3    H269698   3.079   6.152   3.589 -0.7577 -2.4173  2.0313
16095TIP3   OH269699   4.796   1.323  15.411  0.1409 -0.7640 -0.5994
16095TIP3    H169700   4.791   1.393  15.346 -0.2935  1.3306  1.5567
16095TIP3    H269701   4.852   1.256  15.371  1.2680  1.1820 -2.4431
16096TIP3   OH269702   5.929   4.463   3.026  0.5157  0.2962 -0.4095
16096TIP3    H169703   5.859   4.458   2.961 -1.1314  1.1292  1.2003
16096TIP3    H269704   5.942   4.372   3.054  0.0442  0.1356 -0.7014
16097TIP3   OH269705   3.266   4.178   6.607 -0.2376  0.5605 -0.2639
16097TIP3    H169706   3.219   4.202   6.527 -1.9301  0.4882  0.6718
16097TIP3    H269707   3.309   4.259   6.635 -0.8511  0.9647 -0.4689
16098TIP3   OH269708   3.236   6.588  16.896 -0.3322 -0.0637 -0.1022
16098TIP3    H169709   3.231   6.493  16.890 -1.9815 -0.0622  0.5725
16098TIP3    H269710   3.316   6.612  16.849 -0.6252 -1.6548 -1.4729
16099TIP3   OH269711   2.006   3.612  11.257 -0.3281  0.0364 -0.3371
16099TIP3    H169712   1.974   3.525  11.279 -0.7652  0.6463  1.5689
16099TIP3    H269713   1.952   3.640  11.182 -1.0793 -0.7940 -0.1139
16100TIP3   OH269714   5.601   5.778   4.943  0.3708 -0.2772  0.4813
16100TIP3    H169715   5.516   5.758   4.982 -0.7591 -2.3162 -2.6305
16100TIP3    H269716   5.640   5.693   4.926  1.5463  0.5363 -1.1551
16101TIP3   OH269717   2.184   5.655  13.962  0.3252 -0.2509 -0.2746
16101TIP3    H169718   2.153   5.650  13.872 -2.1274  1.2521  0.3936
16101TIP3    H269719   2.229   5.739  13.968 -0.4585  0.1496  0.1389
16102TIP3   OH269720   3.956   4.940  14.938  0.4215  0.3250 -0.6416
16102TIP3    H169721   3.873   4.986  14.928  0.0340 -0.6559 -2.4649
16102TIP3    H269722   3.932   4.851  14.962  1.0235  0.3619  0.1244
16103TIP3   OH269723   2.853   3.808  16.371 -0.4855  0.2204  0.4542
16103TIP3    H169724   2.794   3.832  16.300  0.8662  0.9701 -0.4477
16103TIP3    H269725   2.834   3.715  16.386 -0.4760 -0.0827 -1.2064
16104TIP3   OH269726   6.578   3.423  16.861  0.3326  0.0821  0.1842
16104TIP3    H169727   6.549   3.514  16.868  1.8369  0.4790  1.8009
16104TIP3    H269728   6.620   3.404  16.945 -1.4024 -2.6684  0.5371
16105TIP3   OH269729   0.503   4.879  11.338  0.4427  0.3464 -0.4605
16105TIP3    H169730   0.483   4.925  11.419  0.9253  0.1532 -0.2282
16105TIP3    H269731   0.484   4.787  11.357  1.5070  0.1611 -0.2415
16106TIP3   OH269732   0.402   6.535  16.278  0.0685  0.1984 -0.0388
16106TIP3    H169733   0.343   6.563  16.348 -0.3415 -1.2979  0.2370
16106TIP3    H269734   0.482   6.509  16.324  1.1882  2.6396 -0.4387
16107TIP3   OH269735   5.228   1.702  12.993  0.0199  0.3268 -0.2721
16107TIP3    H169736   5.258   1.690  12.903  0.2002  0.7004 -0.2655
16107TIP3    H269737   5.139   1.668  12.993 -0.6220  1.9153 -1.0420
16108TIP3   OH269738   1.794   0.060   0.544  0.2766  0.4087 -0.3327
16108TIP3    H169739   1.861   0.098   0.601 -0.8061  0.2559  1.1130
16108TIP3    H269740   1.778   0.126   0.477  0.2156  1.4641  0.6832
16109TIP3   OH269741   4.561   3.504   2.438 -0.1361 -1.0220 -0.1728
16109TIP3    H169742   4.574   3.410   2.449  0.5830 -0.6768  2.6423
16109TIP3    H269743   4.574   3.541   2.525 -0.3818  1.7136 -1.1858
16110TIP3   OH269744   2.848   6.491  17.326  0.6062  0.6075 -0.0241
16110TIP3    H169745   2.924   6.548  17.327  0.5305  0.7022  1.2524
16110TIP3    H269746   2.773   6.550  17.316  0.5334  0.7480  1.2202
16111TIP3   OH269747   6.533   5.887   2.157 -0.0839  0.0069 -0.0306
16111TIP3    H169748   6.528   5.940   2.077 -0.8891  1.5566  0.9974
16111TIP3    H269749   6.607   5.827   2.141 -1.6916 -1.4246 -2.8819
16112TIP3   OH269750   4.248   1.866  11.594 -0.2241 -0.1083 -0.5440
16112TIP3    H169751   4.249   1.831  11.505  0.3344 -0.9065 -0.2343
16112TIP3    H269752   4.313   1.813  11.641 -0.2054  0.5889  0.2284
16113TIP3   OH269753   2.964   1.161   2.793  0.2053 -0.0191 -0.0823
16113TIP3    H169754   2.896   1.227   2.786  0.0234 -0.2119 -0.1552
16113TIP3    H269755   2.952   1.106   2.715 -0.4492 -0.8878  0.6043
16114TIP3   OH269756   0.054   1.660  13.147 -0.4503  0.0900 -0.3423
16114TIP3    H169757  -0.008   1.727  13.119  0.5695  0.6185 -1.4506
16114TIP3    H269758   0.139   1.690  13.114  0.2451 -1.1032  0.2600
16115TIP3   OH269759   3.437   2.960   3.003  0.1039  0.1570 -0.1531
16115TIP3    H169760   3.418   3.048   2.969 -1.2149  0.4517  1.2658
16115TIP3    H269761   3.530   2.963   3.026 -0.7162  2.6830  3.8671
16116TIP3   OH269762   5.255   2.425   1.546  0.4512 -0.1000  0.0991
16116TIP3    H169763   5.178   2.469   1.582  0.9249 -0.2488  1.3178
16116TIP3    H269764   5.228   2.400   1.457 -1.5326 -1.6578  1.0406
16117TIP3   OH269765   3.728   3.393  16.192  0.8565  0.0668  0.5247
16117TIP3    H169766   3.788   3.347  16.133  0.9832  2.1105 -1.0482
16117TIP3    H269767   3.704   3.473  16.144 -1.6232  0.2493  1.9105
16118TIP3   OH269768   5.778   1.682  15.370 -0.6086 -0.4065 -0.0969
16118TIP3    H169769   5.787   1.743  15.297  0.2252 -0.8451 -0.3673
16118TIP3    H269770   5.762   1.598  15.328 -0.8758 -0.5296  0.2512
16119TIP3   OH269771   0.443   5.434   2.460  0.4120 -0.0766 -0.8596
16119TIP3    H169772   0.533   5.452   2.487  0.1128 -1.1479  0.9797
16119TIP3    H269773   0.389   5.473   2.529 -0.4645 -1.1109 -0.9458
16120TIP3   OH269774   5.476   4.248   2.905  0.1761  0.3900  0.4888
16120TIP3    H169775   5.493   4.156   2.927  0.1236  0.5915  1.4048
16120TIP3    H269776   5.387   4.263   2.936 -1.0331 -0.0967 -2.4461
16121TIP3   OH269777   1.433   4.787  16.000 -0.0961 -0.0692 -0.1031
16121TIP3    H169778   1.410   4.695  16.002  0.0995 -0.2931 -3.2176
16121TIP3    H269779   1.514   4.791  15.948  0.5397  1.7669  0.9048
16122TIP3   OH269780   4.563   5.138   0.940 -0.3196 -0.4642  0.6544
16122TIP3    H169781   4.649   5.126   0.899 -0.2289  1.6636  0.1369
16122TIP3    H269782   4.582   5.151   1.033 -0.1960 -1.1992  0.7367
16123TIP3   OH269783   1.840   1.844  13.328 -0.2929 -0.5369  0.0887
16123TIP3    H169784   1.889   1.763  13.343 -0.9005 -0.7748  0.8763
16123TIP3    H269785   1.880   1.907  13.388 -0.9405 -0.7309  0.7300
16124TIP3   OH269786   6.106   5.085   4.182  0.3605  0.0202 -0.3824
16124TIP3    H169787   6.022   5.063   4.141  0.9111 -0.1476 -1.4313
16124TIP3    H269788   6.163   5.012   4.161 -0.4030 -2.2753  4.2169
16125TIP3   OH269789   4.297   4.751   2.113 -0.6215 -0.2839  0.1258
16125TIP3    H169790   4.343   4.668   2.098  2.3268  1.3543 -0.6193
16125TIP3    H269791   4.337   4.786   2.192 -0.4444  1.2586 -0.6129
16126TIP3   OH269792   1.200   1.065  16.308 -0.1643 -0.1231  0.2455
16126TIP3    H169793   1.281   1.068  16.360  0.5390 -0.5473 -0.8034
16126TIP3    H269794   1.159   0.982  16.333  0.1206 -0.2794  0.1985
16127TIP3   OH269795   3.193   0.265  13.665 -0.0669  0.2584  0.6855
16127TIP3    H169796   3.181   0.183  13.714  2.7504  0.2784  1.6277
16127TIP3    H269797   3.151   0.331  13.719 -2.4933 -0.4996 -0.1494
16128TIP3   OH269798   2.530   0.604   4.000 -0.0450  0.0583  0.0077
16128TIP3    H169799   2.541   0.634   3.910  1.9871  0.4078  0.3150
16128TIP3    H269800   2.436   0.612   4.017 -0.2515  1.5019 -1.5593
16129TIP3   OH269801   0.790   4.190  16.143  0.2747 -0.0187 -0.0122
16129TIP3    H169802   0.854   4.251  16.107 -0.4224  0.8086  0.1376
16129TIP3    H269803   0.843   4.124  16.188  1.0325  0.4454 -0.2059
16130TIP3   OH269804   6.205   6.436   3.329 -0.3880  0.4785 -0.2810
16130TIP3    H169805   6.238   6.436   3.239  0.8310 -1.2548  0.1367
16130TIP3    H269806   6.121   6.389   3.323  0.5630 -1.3031 -0.2604
16131TIP3   OH269807   4.703   0.228   0.366  0.7828 -0.2117  0.0654
16131TIP3    H169808   4.679   0.297   0.429 -0.4653  0.9780 -1.6133
16131TIP3    H269809   4.797   0.216   0.378  0.5746 -0.1409  2.2268
16132TIP3   OH269810   4.485   3.343  13.276  0.2251  0.3591 -0.4850
16132TIP3    H169811   4.536   3.284  13.222  0.1066 -0.9999  0.8152
16132TIP3    H269812   4.518   3.430  13.254  1.2525 -0.2689 -1.5681
16133TIP3   OH269813   3.120   6.262  13.549  0.0927 -0.9014  0.0766
16133TIP3    H169814   3.052   6.292  13.609 -1.5899  0.2806 -2.2568
16133TIP3    H269815   3.104   6.169  13.538 -0.0182 -0.9861  0.9328
16134TIP3   OH269816   4.243   5.413   6.456 -0.4419  0.2190  0.5811
16134TIP3    H169817   4.249   5.487   6.395  0.7476 -1.4083 -1.3973
16134TIP3    H269818   4.318   5.423   6.514  0.1097  0.2103 -0.1210
16135TIP3   OH269819   5.996   0.299  14.272  0.1450  0.4243  0.3509
16135TIP3    H169820   6.056   0.229  14.297 -0.9853 -0.5012  0.5440
16135TIP3    H269821   6.003   0.304  14.176  2.4496  2.1273  0.5283
16136TIP3   OH269822   2.153   2.679   5.572 -0.1923 -0.0770  0.2179
16136TIP3    H169823   2.076   2.734   5.554 -0.3210 -0.1526  0.5243
16136TIP3    H269824   2.192   2.663   5.486  0.0502  0.7868  0.1576
16137TIP3   OH269825   3.009   2.427   0.384  0.3227 -0.0385 -0.0288
16137TIP3    H169826   2.938   2.448   0.324 -0.7133  1.2943  1.5531
16137TIP3    H269827   2.964   2.394   0.462  1.3936  1.0445  1.0855
16138TIP3   OH269828   5.090   1.505  15.335 -0.2217  0.6927 -0.1076
16138TIP3    H169829   5.079   1.556  15.415 -0.3881 -0.9596  0.9870
16138TIP3    H269830   5.049   1.420  15.356 -1.3766  0.6200 -2.3759
16139TIP3   OH269831   2.752   3.696   5.195 -0.1871 -0.2528 -0.6793
16139TIP3    H169832   2.696   3.626   5.228 -0.2379  0.1040  0.0148
16139TIP3    H269833   2.753   3.761   5.265  1.4836 -0.4646 -0.4665
16140TIP3   OH269834   0.879   0.268   3.422  0.1003  0.0373  0.5531
16140TIP3    H169835   0.919   0.204   3.480 -0.2552  0.4124  1.2238
16140TIP3    H269836   0.870   0.222   3.338  0.6521 -0.4930  0.7784
16141TIP3   OH269837   1.001   5.464  17.240  0.0654 -0.0403 -0.0184
16141TIP3    H169838   0.934   5.494  17.303 -0.6139 -1.0514 -0.2423
16141TIP3    H269839   1.064   5.416  17.294  0.8353  1.2306  0.2515
16142TIP3   OH269840   3.207   1.459  11.510 -0.4370  0.0054  0.4126
16142TIP3    H169841   3.149   1.519  11.557  1.3505  0.9108  1.6089
16142TIP3    H269842   3.271   1.517  11.467  1.2585 -0.9912  1.4842
16143TIP3   OH269843   0.458   5.528  14.777 -0.3477 -0.1516  0.1622
16143TIP3    H169844   0.470   5.438  14.745 -1.1854  0.4148 -1.8792
16143TIP3    H269845   0.488   5.584  14.705 -1.9542  1.1929  0.4811
16144TIP3   OH269846   5.117   2.808   1.027 -0.1743 -0.6749 -0.3053
16144TIP3    H169847   5.133   2.714   1.018 -0.4933 -0.7316 -0.2794
16144TIP3    H269848   5.172   2.848   0.960 -0.9965 -0.9578 -1.1688
16145TIP3   OH269849   1.125   4.850   5.391  0.2882  0.9267  0.0130
16145TIP3    H169850   1.097   4.904   5.464 -1.1749 -1.0287  1.0191
16145TIP3    H269851   1.043   4.819   5.351  0.8993 -2.2080  0.8650
16146TIP3   OH269852   5.854   0.515  11.452 -0.2945  0.5376  0.3242
16146TIP3    H169853   5.937   0.520  11.404 -0.1330  0.3293  0.5792
16146TIP3    H269854   5.878   0.480  11.538 -0.4397  1.7718  0.9010
16147TIP3   OH269855   6.061   4.021   2.531  0.3563  0.3708  0.0826
16147TIP3    H169856   6.066   3.979   2.616 -1.3570 -1.9854 -0.8684
16147TIP3    H269857   6.108   3.962   2.472 -0.6500  0.6299 -1.0180
16148TIP3   OH269858   1.953   2.935   5.739  0.2509 -0.6976 -0.5189
16148TIP3    H169859   1.996   3.018   5.757  0.5823 -0.7322 -1.1253
16148TIP3    H269860   1.866   2.943   5.779 -0.4239  0.6592 -2.1567
16149TIP3   OH269861   2.239   3.857  17.124 -0.7675  0.2861  0.7050
16149TIP3    H169862   2.309   3.902  17.171  0.5993 -0.2298 -0.7351
16149TIP3    H269863   2.196   3.803  17.191  1.2072 -0.5669  1.3712
16150TIP3   OH269864   2.138   1.675  15.931  0.9679  0.0232 -0.1421
16150TIP3    H169865   2.087   1.611  15.881 -0.8350  0.3890  1.1288
16150TIP3    H269866   2.184   1.623  15.997 -1.3074  0.0099  1.5679
16151TIP3   OH269867   0.583   4.575   1.116  0.2800 -0.2342  0.1319
16151TIP3    H169868   0.573   4.595   1.023  1.5346  1.3981  0.2855
16151TIP3    H269869   0.676   4.588   1.133 -0.2213  1.3876  1.9811
16152TIP3   OH269870   2.873   5.947  13.235  0.2869  0.2189  0.5259
16152TIP3    H169871   2.961   5.921  13.208 -0.4048 -2.3044  0.3794
16152TIP3    H269872   2.848   5.881  13.301 -1.4634  0.8850  0.5970
16153TIP3   OH269873   2.053   0.716   5.977 -0.4087  0.1297  0.0862
16153TIP3    H169874   2.121   0.667   6.023 -0.2495  0.7157  0.4811
16153TIP3    H269875   2.092   0.802   5.961  0.0501 -0.4530 -2.3354
16154TIP3   OH269876   6.390   1.035   4.828  0.4633 -0.5816 -0.1499
16154TIP3    H169877   6.310   0.988   4.853  0.8993 -0.8942  0.6952
16154TIP3    H269878   6.449   0.967   4.797  0.8704 -0.5252  0.4801
16155TIP3   OH269879   3.073   4.800   3.455  0.5949  0.6068 -0.5995
16155TIP3    H169880   3.107   4.842   3.377 -0.9666  2.1047 -0.5394
16155TIP3    H269881   3.106   4.853   3.528  2.2005 -0.8906 -0.1783
16156TIP3   OH269882   5.100   0.086   2.535 -0.1212 -0.5638  0.2305
16156TIP3    H169883   5.026   0.102   2.594 -0.8570 -0.0710 -0.7879
16156TIP3    H269884   5.060   0.074   2.449  0.9599 -0.7234 -0.2690
16157TIP3   OH269885   0.064   2.673   3.154  0.1904  0.0891  0.1301
16157TIP3    H169886   0.048   2.755   3.201 -0.2304  0.4450 -0.6282
16157TIP3    H269887   0.159   2.668   3.146  0.5065 -1.1118  3.0089
16158TIP3   OH269888   2.285   0.618   4.123 -0.1919  0.0413  0.0951
16158TIP3    H169889   2.297   0.661   4.208  0.6074  0.0984 -0.0433
16158TIP3    H269890   2.190   0.617   4.110 -0.4290 -1.2670  1.6486
16159TIP3   OH269891   3.926   3.441   2.839  0.1732 -0.6197 -0.0855
16159TIP3    H169892   3.835   3.462   2.816 -0.2867  0.5312  2.3838
16159TIP3    H269893   3.969   3.526   2.846  0.6639 -0.9520  1.4197
16160TIP3   OH269894   2.953   3.851   2.841 -0.1742  0.1368  0.3528
16160TIP3    H169895   3.002   3.828   2.762 -2.0822  1.1936 -1.2011
16160TIP3    H269896   2.887   3.782   2.849 -0.6421  0.5948  0.4315
16161TIP3   OH269897   4.817   4.063  11.714  0.8649 -0.0115  0.0739
16161TIP3    H169898   4.745   4.125  11.698  0.4089 -0.4295  0.4575
16161TIP3    H269899   4.792   4.019  11.795  0.6605 -1.4187 -0.7284
16162TIP3   OH269900   4.878   4.850   5.625  0.5703  0.6957  0.0097
16162TIP3    H169901   4.847   4.782   5.685  2.4729 -0.8226 -0.6253
16162TIP3    H269902   4.899   4.924   5.681 -2.2141  1.1199  0.6462
16163TIP3   OH269903   6.391   4.958  14.954  0.1184  0.1785  0.1652
16163TIP3    H169904   6.404   4.972  14.860 -0.5839  2.8585  0.3778
16163TIP3    H269905   6.299   4.931  14.961  0.0929  0.2473  0.0955
16164TIP3   OH269906   2.513   4.197  14.900 -0.4150  0.0517 -0.3768
16164TIP3    H169907   2.483   4.106  14.906 -1.1902  0.2571 -1.0488
16164TIP3    H269908   2.482   4.237  14.981  1.7193 -0.7586  0.9429
16165TIP3   OH269909   0.641   6.088   3.205 -0.3930 -0.5314  0.3134
16165TIP3    H169910   0.546   6.097   3.191 -0.3544  1.9983  1.2759
16165TIP3    H269911   0.660   6.147   3.278  2.4742  1.9059 -2.1602
16166TIP3   OH269912   4.195   2.180  13.372 -0.1266  0.4582  0.4359
16166TIP3    H169913   4.170   2.181  13.280 -0.3449 -0.8212  0.4631
16166TIP3    H269914   4.206   2.273  13.395  0.4054  0.7752 -0.9898
16167TIP3   OH269915   2.556   5.011  13.497  0.1607  0.2495  0.1774
16167TIP3    H169916   2.522   5.096  13.470  2.3945  2.0125  2.4744
16167TIP3    H269917   2.645   5.028  13.525  0.9117 -3.0025  0.1908
16168TIP3   OH269918   1.407   5.448  11.849  0.1453 -0.0897  0.2623
16168TIP3    H169919   1.361   5.509  11.792 -0.5581 -0.3016  0.5915
16168TIP3    H269920   1.492   5.489  11.865 -0.1708  0.6186  0.1692
16169TIP3   OH269921   6.685   5.948  16.739  0.2477  0.5098  0.3850
16169TIP3    H169922   6.734   5.881  16.787 -1.0506 -0.4952  0.3827
16169TIP3    H269923   6.751   5.996  16.690  1.3241 -0.1537  1.1379
16170TIP3   OH269924   5.933   3.823   2.250 -0.1480  0.5684  0.0099
16170TIP3    H169925   6.016   3.811   2.296  0.2676  0.2692 -0.8039
16170TIP3    H269926   5.953   3.804   2.159 -1.1563  0.3242 -0.1712
16171TIP3   OH269927   2.489   0.747   1.446  0.4063  0.2188  0.0653
16171TIP3    H169928   2.425   0.788   1.388  0.9588 -1.1970 -1.6540
16171TIP3    H269929   2.466   0.654   1.444  2.3490 -0.2988 -0.4530
16172TIP3   OH269930   3.228   3.643   6.124  0.0224  0.1571 -0.0989
16172TIP3    H169931   3.291   3.596   6.180 -0.4907  0.6542  0.9115
16172TIP3    H269932   3.242   3.605   6.037  1.2571 -0.2137  0.2328
16173TIP3   OH269933   1.020   5.576  14.242  0.0479 -0.0011 -0.4427
16173TIP3    H169934   1.018   5.671  14.256 -0.4816  0.0477 -0.8198
16173TIP3    H269935   1.053   5.566  14.153  0.8009 -0.2052 -0.1456
16174TIP3   OH269936   0.918   6.097   3.361 -0.8913  0.1928  0.1200
16174TIP3    H169937   0.868   6.030   3.314 -3.1381  2.0727 -0.3550
16174TIP3    H269938   0.870   6.110   3.443  1.7169 -1.4331  2.0957
16175TIP3   OH269939   2.147   0.922   5.435  0.1432  0.8440  0.4260
16175TIP3    H169940   2.155   0.923   5.340  0.0430  0.3953  0.4123
16175TIP3    H269941   2.097   0.842   5.455  0.0646  0.9930  0.8459
16176TIP3   OH269942   0.217   2.078  11.398 -0.5534 -0.4222 -0.0139
16176TIP3    H169943   0.137   2.078  11.451 -0.5630  2.7319  0.1380
16176TIP3    H269944   0.215   1.994  11.351 -3.3205 -0.9393  0.8742
16177TIP3   OH269945   5.848   0.882  14.884 -0.6781  0.5550  0.4988
16177TIP3    H169946   5.792   0.948  14.844  0.2768  0.4744 -1.0306
16177TIP3    H269947   5.789   0.808  14.902 -1.2584  0.8495 -0.1532
16178TIP3   OH269948   4.530   2.202   4.149 -0.2108 -0.0899  0.0089
16178TIP3    H169949   4.523   2.113   4.184 -0.8786 -0.1040 -0.1527
16178TIP3    H269950   4.616   2.204   4.107  0.8153  0.0719  2.0324
16179TIP3   OH269951   2.775   6.364  16.575 -0.0200  0.2688  0.2075
16179TIP3    H169952   2.793   6.436  16.635  1.7335  0.3521 -0.3651
16179TIP3    H269953   2.683   6.376  16.550 -0.4048  0.9888  1.8248
16180TIP3   OH269954   1.805   5.434   5.349  0.1891 -0.3887  0.0562
16180TIP3    H169955   1.753   5.367   5.305  2.4447 -1.0530 -1.7965
16180TIP3    H269956   1.785   5.421   5.442 -0.7874 -2.4649 -0.3643
16181TIP3   OH269957   3.123   3.194  13.667 -0.4976  0.4423 -0.0228
16181TIP3    H169958   3.059   3.162  13.603  0.2354 -0.9618 -0.1099
16181TIP3    H269959   3.071   3.226  13.740 -1.3197  0.6478 -0.6816
16182TIP3   OH269960   4.122   1.765  13.765 -0.2362  0.2675 -0.1036
16182TIP3    H169961   4.077   1.709  13.702  0.0886  0.2644 -0.3378
16182TIP3    H269962   4.164   1.833  13.711 -2.0029  1.7448  0.2904
16183TIP3   OH269963   1.876   3.080   2.196 -0.0873  0.0878 -0.0528
16183TIP3    H169964   1.798   3.080   2.141 -0.9441 -0.6709  1.1146
16183TIP3    H269965   1.933   3.146   2.157 -0.0763 -1.3395 -2.6184
16184TIP3   OH269966   3.696   1.565  13.998  0.2976 -0.3871 -0.5198
16184TIP3    H169967   3.619   1.527  14.040  1.1048 -1.4868  0.0490
16184TIP3    H269968   3.768   1.542  14.057  1.0329  0.7707 -0.9423
16185TIP3   OH269969   3.302   1.884  15.906  0.5887 -1.0716  0.2071
16185TIP3    H169970   3.350   1.936  15.972 -1.1201 -0.7480  1.2550
16185TIP3    H269971   3.371   1.844  15.853  2.0097  1.6071 -0.1376
16186TIP3   OH269972   0.915   2.598   4.853  0.3356 -0.0065 -0.1637
16186TIP3    H169973   0.966   2.677   4.840  2.3188 -1.3538 -1.0819
16186TIP3    H269974   0.960   2.551   4.923  0.0163 -0.9458 -0.5600
16187TIP3   OH269975   5.691   0.238  11.884  0.7214  0.2525  0.0908
16187TIP3    H169976   5.756   0.168  11.891  1.9092  1.3757  0.6096
16187TIP3    H269977   5.661   0.252  11.974 -0.0989 -0.1166 -0.1183
16188TIP3   OH269978   5.380   4.829   4.710 -0.2492 -0.0677  0.0532
16188TIP3    H169979   5.401   4.764   4.777 -0.3204  1.1309  1.2714
16188TIP3    H269980   5.405   4.913   4.749  1.0771  0.5568 -1.9805
16189TIP3   OH269981   1.598   6.704   3.655 -0.0554  0.0591 -0.4394
16189TIP3    H169982   1.620   6.644   3.584 -2.2986 -1.4919  0.0845
16189TIP3    H269983   1.653   6.676   3.728 -0.0201 -0.3914 -0.6381
16190TIP3   OH269984   1.800   5.022   4.347 -0.2389 -0.2849 -0.0493
16190TIP3    H169985   1.853   5.102   4.345 -1.0743  0.2890 -0.2347
16190TIP3    H269986   1.855   4.955   4.307 -0.0177  0.5214 -1.1557
16191TIP3   OH269987   2.413   3.465   1.275 -0.0285  0.0487 -0.1656
16191TIP3    H169988   2.484   3.402   1.285  0.4670  0.5528 -0.4639
16191TIP3    H269989   2.374   3.472   1.362 -0.5317 -1.1783 -0.2785
16192TIP3   OH269990   0.281   6.138  13.311 -0.5516 -0.0805  0.4297
16192TIP3    H169991   0.191   6.107  13.307 -0.6984  0.4783 -1.3369
16192TIP3    H269992   0.274   6.233  13.322 -0.1568 -0.1024  0.9217
16193TIP3   OH269993   6.258   2.111  13.884 -0.1668 -0.4659 -0.1932
16193TIP3    H169994   6.253   2.026  13.928  0.8900  0.1297  1.1656
16193TIP3    H269995   6.340   2.108  13.836  0.5500  0.2320  0.9320
16194TIP3   OH269996   4.566   5.187  13.053 -0.2530  0.2873  0.3023
16194TIP3    H169997   4.513   5.255  13.012  0.7504  0.9914  0.1242
16194TIP3    H269998   4.596   5.225  13.136 -0.5921 -0.3569  0.7248
16195TIP3   OH269999   2.202   0.783  13.760 -0.6141  0.2025  0.7322
16195TIP3    H170000   2.255   0.704  13.758  1.0587  1.2801 -0.6564
16195TIP3    H270001   2.120   0.756  13.801 -1.0959 -2.8367 -1.8632
16196TIP3   OH270002   2.526   4.641  13.549 -0.3326  0.1528 -0.7522
16196TIP3    H170003   2.488   4.729  13.540  0.8403  0.7197 -0.3974
16196TIP3    H270004   2.607   4.645  13.499 -0.4213 -0.8400 -0.9911
16197TIP3   OH270005   0.891   1.429  14.177  0.1507  0.1388  0.4041
16197TIP3    H170006   0.952   1.453  14.247 -0.4907 -1.4071  1.5534
16197TIP3    H270007   0.848   1.350  14.209 -1.2108  0.2080 -1.1376
16198TIP3   OH270008   1.206   3.865   0.340 -0.2894  0.1101 -0.1269
16198TIP3    H170009   1.302   3.865   0.340 -0.2778  1.0811 -0.4322
16198TIP3    H270010   1.182   3.787   0.291  0.3499  0.0219 -0.3094
16199TIP3   OH270011   6.315   1.754  15.373 -0.1260  0.6297 -0.0297
16199TIP3    H170012   6.251   1.804  15.322  0.7167  1.6096 -0.1561
16199TIP3    H270013   6.267   1.728  15.452 -1.0525  0.2232 -0.7020
16200TIP3   OH270014   6.727   3.141   0.997 -0.4101  0.1274  0.2067
16200TIP3    H170015   6.775   3.221   0.977 -1.3543  0.8659  0.8285
16200TIP3    H270016   6.730   3.090   0.916  2.5501 -0.4905  0.5722
16201TIP3   OH270017   6.319   2.422   4.285 -0.7771 -0.8080 -0.2013
16201TIP3    H170018   6.262   2.345   4.293 -0.3582 -1.0484  0.5424
16201TIP3    H270019   6.346   2.441   4.374 -0.2147 -0.2871 -0.4763
16202TIP3   OH270020   2.617   5.356   6.615  0.3752  0.5185 -0.1151
16202TIP3    H170021   2.645   5.444   6.639  2.0991  0.3399 -1.2268
16202TIP3    H270022   2.669   5.336   6.536 -1.8635 -0.4902 -1.4183
16203TIP3   OH270023   2.716   1.903   0.551  0.7051  0.0336 -0.0089
16203TIP3    H170024   2.726   1.859   0.635  0.3936 -0.3441 -0.1677
16203TIP3    H270025   2.741   1.994   0.568 -1.2291  0.4367  0.9638
16204TIP3   OH270026   4.608   2.528  17.185 -0.3348 -0.1402  0.5945
16204TIP3    H170027   4.545   2.459  17.167  0.3827 -0.2143 -1.9757
16204TIP3    H270028   4.688   2.482  17.208 -0.2457 -0.1365  0.2950
16205TIP3   OH270029   5.661   2.116  11.560 -0.1784  0.2692  0.6597
16205TIP3    H170030   5.575   2.157  11.558 -0.1123  0.4467  1.1528
16205TIP3    H270031   5.643   2.022  11.561 -0.3172  0.2440 -1.0929
16206TIP3   OH270032   2.888   4.630   3.051  0.5984  0.2405  0.6698
16206TIP3    H170033   2.979   4.600   3.060  0.2754 -1.2337 -0.5803
16206TIP3    H270034   2.837   4.566   3.101  0.0088 -0.6698 -1.0314
16207TIP3   OH270035   6.540   2.589   5.609 -0.3137  0.2023 -0.2445
16207TIP3    H170036   6.598   2.513   5.609 -1.6950 -0.9410 -1.7690
16207TIP3    H270037   6.515   2.600   5.517 -1.3968  1.5122  0.1665
16208TIP3   OH270038   4.572   1.653  15.073  0.3249  0.0878  0.1848
16208TIP3    H170039   4.494   1.708  15.080  0.5185  0.7864 -2.2858
16208TIP3    H270040   4.538   1.564  15.061 -0.0304  0.0895  1.0865
16209TIP3   OH270041   2.637   4.611  13.095 -0.0434  0.2200  0.2802
16209TIP3    H170042   2.676   4.595  13.182  1.4526 -0.7060 -0.5114
16209TIP3    H270043   2.561   4.667  13.113 -0.2841 -0.6515  2.2700
16210TIP3   OH270044   4.695   4.779  13.625  0.5746  0.4257 -0.4341
16210TIP3    H170045   4.682   4.755  13.717  0.7491 -0.1354 -0.5590
16210TIP3    H270046   4.729   4.701  13.584 -1.0230  0.1520 -1.3297
16211TIP3   OH270047   3.418   0.880  15.522 -0.1997  0.2211 -0.6196
16211TIP3    H170048   3.489   0.924  15.476 -0.3572  1.1781  0.0098
16211TIP3    H270049   3.458   0.849  15.604  0.0735 -1.4409 -1.3396
16212TIP3   OH270050   1.077   0.228  12.299  0.1385 -1.0242 -0.4276
16212TIP3    H170051   1.098   0.173  12.223  3.3831  1.3800 -1.5098
16212TIP3    H270052   1.155   0.223  12.354 -0.2057  0.9830  0.3146
16213TIP3   OH270053   4.270   3.914  12.574  0.2423  0.3342  0.5045
16213TIP3    H170054   4.177   3.897  12.562  0.4713 -0.9248  0.4383
16213TIP3    H270055   4.305   3.919  12.484  0.3907 -0.0672  0.5394
16214TIP3   OH270056   1.283   4.562  13.897  0.3951 -0.3977  0.3068
16214TIP3    H170057   1.193   4.533  13.882  0.3074  0.3696 -0.7577
16214TIP3    H270058   1.333   4.523  13.825  1.1960 -1.9317  1.6247
16215TIP3   OH270059   5.132   0.741  14.856  0.3191 -0.1506 -0.0309
16215TIP3    H170060   5.053   0.691  14.878  0.6357 -0.3868  0.6016
16215TIP3    H270061   5.101   0.809  14.796 -0.3124 -0.4223 -0.0290
16216TIP3   OH270062   6.310   0.235   3.477 -0.0027  0.1789  0.0738
16216TIP3    H170063   6.284   0.169   3.413  1.6913  0.0577 -0.5478
16216TIP3    H270064   6.261   0.314   3.451 -2.9434 -1.0337  1.5216
16217TIP3   OH270065   2.876   1.724   5.201 -0.1041 -0.1406 -0.1519
16217TIP3    H170066   2.784   1.751   5.208 -0.3466 -0.0526 -2.8016
16217TIP3    H270067   2.877   1.662   5.128  2.3002  1.8838 -2.0116
16218TIP3   OH270068   5.678   4.774   5.352  0.2005 -0.0584 -0.3223
16218TIP3    H170069   5.666   4.755   5.259 -1.7902  0.1760 -0.1607
16218TIP3    H270070   5.677   4.688   5.395 -0.7596 -0.0721 -0.3555
16219TIP3   OH270071   5.836   2.880  13.105 -1.0031  0.2518  0.3589
16219TIP3    H170072   5.762   2.839  13.061 -1.6771  0.2180  1.5065
16219TIP3    H270073   5.839   2.969  13.068  0.3796 -0.6969 -2.0279
16220TIP3   OH270074   4.903   1.003   4.034  0.1895  0.0273  0.2045
16220TIP3    H170075   4.954   0.991   3.954 -1.2605  1.3592 -0.9825
16220TIP3    H270076   4.914   1.096   4.056 -0.4806 -0.0242  0.8007
16221TIP3   OH270077   6.269   1.759  15.669  0.3618  0.4382 -0.3794
16221TIP3    H170078   6.273   1.668  15.700 -1.2411  0.8940  1.3350
16221TIP3    H270079   6.343   1.802  15.712  0.7104  0.1050 -0.6420
16222TIP3   OH270080   5.501   4.119   6.556  0.0053 -0.6026  0.6167
16222TIP3    H170081   5.447   4.182   6.604 -0.4937  0.5461 -1.3672
16222TIP3    H270082   5.591   4.143   6.577 -0.1960 -0.8264  1.8105
16223TIP3   OH270083   5.703   3.047  13.336  0.3486 -0.1845 -0.9637
16223TIP3    H170084   5.787   3.012  13.366 -0.0233 -1.9244 -1.8241
16223TIP3    H270085   5.679   2.992  13.262 -1.3298  0.5879 -1.0449
16224TIP3   OH270086   4.580   3.226   0.860 -0.1576 -0.1849 -0.0049
16224TIP3    H170087   4.581   3.305   0.806 -2.2163  0.5392  0.9197
16224TIP3    H270088   4.487   3.205   0.870  0.2934 -2.0199  0.8156
16225TIP3   OH270089   5.754   4.036  15.676  0.4562 -0.1795  0.1013
16225TIP3    H170090   5.830   4.036  15.733 -0.9559 -0.9480  2.0969
16225TIP3    H270091   5.684   3.997  15.729 -1.7587  1.9445 -1.0706
16226TIP3   OH270092   2.517   3.301   5.206 -0.2487  0.9160 -0.7647
16226TIP3    H170093   2.589   3.357   5.235 -0.0821  0.8251 -0.9992
16226TIP3    H270094   2.444   3.362   5.193 -0.2260  1.0019 -0.4835
16227TIP3   OH270095   3.044   2.269  11.809  0.6175  0.1125  0.3221
16227TIP3    H170096   3.044   2.303  11.720  0.2404 -1.9667 -0.5333
16227TIP3    H270097   3.087   2.337  11.861  2.0983  0.8033 -1.6878
16228TIP3   OH270098   3.876   5.693   4.345  0.1898 -0.2278 -0.4341
16228TIP3    H170099   3.827   5.680   4.426  0.2001  0.5909 -0.2871
16228TIP3    H270100   3.808   5.715   4.280  0.1811 -0.8802 -0.6531
16229TIP3   OH270101   3.259   6.465   6.244 -0.2460  0.2708  0.2778
16229TIP3    H170102   3.321   6.467   6.317 -0.2996  4.4330  0.4344
16229TIP3    H270103   3.175   6.487   6.284 -0.1991  3.1181 -0.9110
16230TIP3   OH270104   3.720   5.836   1.019 -1.3053 -0.2975 -0.0114
16230TIP3    H170105   3.751   5.920   1.055  1.3767 -1.2626  0.1324
16230TIP3    H270106   3.645   5.813   1.074 -1.2384  1.3122  0.8361
16231TIP3   OH270107   3.939   1.896  12.277 -0.5291 -0.3591 -0.2545
16231TIP3    H170108   3.964   1.974  12.326 -0.0299 -1.2312  0.9201
16231TIP3    H270109   3.928   1.927  12.187 -1.0991  1.1979  0.3169
16232TIP3   OH270110   5.704   1.787   1.717  0.7412  0.2307  0.6032
16232TIP3    H170111   5.787   1.778   1.670  0.4880 -1.0536  0.3934
16232TIP3    H270112   5.687   1.882   1.716  0.9282  0.2746 -1.5490
16233TIP3   OH270113   4.490   3.020  14.965  0.0858 -0.4961  0.3047
16233TIP3    H170114   4.397   3.032  14.947  0.0211 -0.8080  0.4211
16233TIP3    H270115   4.520   3.105  14.998  0.2506  0.1650 -1.4399
16234TIP3   OH270116   3.415   6.132   3.249 -0.1600 -0.6926 -0.0559
16234TIP3    H170117   3.489   6.160   3.302 -0.3578  0.3781 -0.3355
16234TIP3    H270118   3.454   6.093   3.171  0.1223 -1.7684  0.5998
16235TIP3   OH270119   0.726   6.209  16.950 -0.1854  0.2335 -0.4480
16235TIP3    H170120   0.669   6.284  16.930 -0.3696  0.1068 -0.4070
16235TIP3    H270121   0.670   6.151  17.002  0.4643  0.8361  0.9827
16236TIP3   OH270122   4.694   4.807   2.139 -0.2671 -0.8958 -0.2578
16236TIP3    H170123   4.662   4.810   2.049 -1.0075 -1.8116 -0.0495
16236TIP3    H270124   4.743   4.889   2.150  0.9925 -1.3682 -1.8920
16237TIP3   OH270125   0.243   2.119   0.138 -0.5743  0.3537  0.5472
16237TIP3    H170126   0.303   2.187   0.106 -0.6645 -0.4622 -1.5445
16237TIP3    H270127   0.296   2.040   0.139 -1.1658 -0.0499  0.3043
16238TIP3   OH270128   6.523   3.319   2.001  0.7494  0.5573 -0.5511
16238TIP3    H170129   6.467   3.393   1.979  2.2732  1.2004 -2.6039
16238TIP3    H270130   6.468   3.242   1.988 -0.2467  1.2345 -0.4402
16239TIP3   OH270131   4.154   2.262  14.848  0.4308 -0.2838 -0.4015
16239TIP3    H170132   4.143   2.210  14.928  3.7023  1.5421  1.4810
16239TIP3    H270133   4.190   2.201  14.784  0.6818 -1.1681  0.5546
16240TIP3   OH270134   5.561   4.818  16.631 -0.3899 -0.2972  0.5274
16240TIP3    H170135   5.536   4.729  16.655 -3.1013  0.4392  0.7268
16240TIP3    H270136   5.630   4.841  16.694 -1.2546 -1.4613  1.9556
16241TIP3   OH270137   3.597   5.680   0.254  0.4529  0.2337  0.3740
16241TIP3    H170138   3.641   5.741   0.314 -2.6621  1.3766  1.7270
16241TIP3    H270139   3.539   5.628   0.311 -0.9594 -0.2086 -1.3623
16242TIP3   OH270140   5.036   4.130  14.206  0.3073  0.1888  0.4017
16242TIP3    H170141   5.031   4.145  14.111 -0.1262 -0.8700  0.2438
16242TIP3    H270142   4.949   4.100  14.230 -0.1020  2.1171  1.4622
16243TIP3   OH270143   5.448   1.754   0.708 -0.5602  0.5739  0.4062
16243TIP3    H170144   5.367   1.712   0.736 -0.6418  1.4122  1.5193
16243TIP3    H270145   5.456   1.831   0.765  0.6126  0.9380 -0.2094
16244TIP3   OH270146   2.684   2.740  13.332  0.3052 -0.2159 -0.3310
16244TIP3    H170147   2.686   2.776  13.244  0.3332 -1.8611 -1.0406
16244TIP3    H270148   2.722   2.653  13.323  0.1929 -0.4635  1.2902
16245TIP3   OH270149   5.405   5.155   6.604  0.3640 -0.0859  0.0485
16245TIP3    H170150   5.338   5.088   6.592 -0.9045  1.1129  0.0543
16245TIP3    H270151   5.485   5.107   6.623 -0.7747 -1.5770  1.3909
16246TIP3   OH270152   3.629   0.049  13.121 -0.0508  0.0225  0.0562
16246TIP3    H170153   3.635  -0.033  13.170 -0.6190  1.4065  2.6291
16246TIP3    H270154   3.536   0.068  13.116 -0.0219 -0.1233 -1.7676
16247TIP3   OH270155   2.491   2.428   1.889  0.2435  0.3300 -0.2428
16247TIP3    H170156   2.411   2.434   1.837  1.0062 -2.1870 -1.8746
16247TIP3    H270157   2.556   2.478   1.839 -0.0389  1.6600  0.6543
16248TIP3   OH270158   5.538   5.413   6.595  0.0333 -0.1014 -0.4524
16248TIP3    H170159   5.493   5.346   6.647  1.4262 -1.1923 -0.5858
16248TIP3    H270160   5.548   5.374   6.508 -2.5227  1.8112 -1.7378
16249TIP3   OH270161   0.903   4.177  16.880  0.5779  0.6105 -0.0832
16249TIP3    H170162   0.928   4.243  16.816 -1.8523  1.0325 -0.6581
16249TIP3    H270163   0.882   4.227  16.959  2.0038  0.2075  0.6006
16250TIP3   OH270164   1.690   0.783   1.503  0.0533 -0.1625 -0.0553
16250TIP3    H170165   1.690   0.877   1.522  2.8533 -0.2711  0.9821
16250TIP3    H270166   1.659   0.742   1.583 -0.2355 -0.1633 -0.1669
16251TIP3   OH270167   3.355   1.237   5.689 -0.0988 -0.0989 -0.4084
16251TIP3    H170168   3.318   1.302   5.629 -1.2715 -0.6911 -0.3586
16251TIP3    H270169   3.288   1.224   5.756  1.7526  1.6518  1.9636
16252TIP3   OH270170   1.536   3.336   6.513 -0.0372 -0.1171 -0.3396
16252TIP3    H170171   1.490   3.410   6.553  0.8828  0.4302 -0.2660
16252TIP3    H270172   1.466   3.277   6.484 -0.7657  0.4782  0.1701
16253TIP3   OH270173   4.765   0.437  13.454  0.0264 -0.6254  0.1724
16253TIP3    H170174   4.704   0.392  13.396 -1.9381  1.7412  0.2490
16253TIP3    H270175   4.733   0.418  13.542  0.5812 -0.9387  0.3093
16254TIP3   OH270176   2.711   4.318   5.348 -0.0560 -0.1459  0.4262
16254TIP3    H170177   2.727   4.413   5.345 -1.4857  0.1360  0.8825
16254TIP3    H270178   2.778   4.281   5.291  0.7258  1.1122  0.4753
16255TIP3   OH270179   5.234   0.288  16.967  0.1770  0.2563 -0.7306
16255TIP3    H170180   5.145   0.304  16.935  0.6552  0.4844 -1.9996
16255TIP3    H270181   5.262   0.209  16.920  0.9971  0.7666 -1.1146
16256TIP3   OH270182   1.964   1.433  15.784  0.0087  0.2998 -0.1076
16256TIP3    H170183   1.921   1.355  15.748 -0.8771  0.9952 -0.5736
16256TIP3    H270184   1.935   1.436  15.875 -1.8994  1.3884 -0.7001
16257TIP3   OH270185   6.479   4.858   3.629 -0.6865  0.9155  0.3262
16257TIP3    H170186   6.500   4.936   3.680 -0.7693  0.9923  0.2450
16257TIP3    H270187   6.551   4.797   3.648 -1.0701  0.6838  1.0634
16258TIP3   OH270188   5.448   2.531  17.378  0.6904 -0.0229  0.4594
16258TIP3    H170189   5.374   2.588  17.357 -0.8889 -1.6697  1.1957
16258TIP3    H270190   5.481   2.502  17.293  1.3681  1.7489  0.0916
16259TIP3   OH270191   0.628   3.115   2.765 -0.3654 -0.3943 -0.1468
16259TIP3    H170192   0.675   3.073   2.837 -0.6218 -2.4947 -1.1232
16259TIP3    H270193   0.536   3.106   2.789 -0.5775 -2.9631 -1.5770
16260TIP3   OH270194   0.149   1.785  11.566  0.2701 -0.3339 -0.8141
16260TIP3    H170195   0.170   1.814  11.477 -0.5704  2.5469 -0.1744
16260TIP3    H270196   0.057   1.807  11.578 -0.2175 -2.5924  0.1417
16261TIP3   OH270197   3.664   5.891  11.642  0.2112  0.4286  0.3125
16261TIP3    H170198   3.674   5.842  11.560  1.5466  0.2957  0.5317
16261TIP3    H270199   3.753   5.918  11.665  0.1188 -0.9170  2.5649
16262TIP3   OH270200   2.546   3.318   5.538 -0.7906  0.6880  0.1226
16262TIP3    H170201   2.528   3.358   5.623 -0.6857 -1.3110  1.1493
16262TIP3    H270202   2.474   3.256   5.526 -0.3717  0.3788 -0.8686
16263TIP3   OH270203   6.759   5.120  12.299  0.0693 -0.7146  0.0036
16263TIP3    H170204   6.742   5.213  12.316 -0.0949 -0.7954  0.2788
16263TIP3    H270205   6.677   5.076  12.322  0.7158 -1.1405  1.6035
16264TIP3   OH270206   5.122   6.313   1.138 -0.2495 -0.0916  0.6621
16264TIP3    H170207   5.057   6.315   1.209 -0.7209 -1.4854  0.3123
16264TIP3    H270208   5.080   6.356   1.064 -1.3465 -2.1354  0.0278
16265TIP3   OH270209   4.684   0.825   2.209 -0.2529  0.5466  0.3625
16265TIP3    H170210   4.655   0.740   2.176 -0.8476  0.9365 -0.1329
16265TIP3    H270211   4.779   0.820   2.207 -0.2517  0.6234 -1.6261
16266TIP3   OH270212   4.067   0.939   2.960 -0.1618  0.9324  0.1777
16266TIP3    H170213   3.974   0.941   2.984 -0.2249 -0.0276  0.0298
16266TIP3    H270214   4.077   1.012   2.899 -0.3759  2.3102  1.7235
16267TIP3   OH270215   2.079   5.748  14.483  0.1314  0.5794  1.0433
16267TIP3    H170216   2.089   5.798  14.402  0.9460  0.6402  1.1785
16267TIP3    H270217   1.984   5.735  14.491  0.1268 -1.4797 -1.1470
16268TIP3   OH270218   5.160   2.837  15.383 -0.1085 -0.2486  0.2618
16268TIP3    H170219   5.173   2.751  15.424  0.9081 -0.1295  0.2278
16268TIP3    H270220   5.094   2.821  15.315 -0.3541 -0.8719  0.6353
16269TIP3   OH270221   6.599   0.574  14.312 -0.4937  0.3338 -0.2625
16269TIP3    H170222   6.603   0.527  14.229  0.6901  0.0990 -0.0823
16269TIP3    H270223   6.661   0.646  14.303 -0.9457  0.7827  0.1281
16270TIP3   OH270224   3.881   2.670  15.043  0.0382 -0.3023 -0.0371
16270TIP3    H170225   3.955   2.690  14.985 -0.7561  1.8946 -0.4056
16270TIP3    H270226   3.841   2.592  15.006 -0.6983  1.2603 -2.8126
16271TIP3   OH270227   4.463   3.669   4.045 -0.2242  0.1835  0.1270
16271TIP3    H170228   4.437   3.738   4.105  0.4460  0.7782 -0.2563
16271TIP3    H270229   4.502   3.601   4.100 -3.0209 -1.0268  0.8178
16272TIP3   OH270230   4.726   5.032  15.339  0.2793 -0.4029 -0.0032
16272TIP3    H170231   4.727   5.022  15.434 -0.5093  1.2878  0.2282
16272TIP3    H270232   4.679   4.955  15.307  1.1422 -1.3342  0.9021
16273TIP3   OH270233   1.916   3.443   2.580  0.5769  0.1957  0.1488
16273TIP3    H170234   1.852   3.514   2.588 -1.0217 -1.0383 -0.9648
16273TIP3    H270235   1.875   3.368   2.622  2.0346 -0.2190  0.8861
16274TIP3   OH270236   2.650   4.574   3.600  0.0542  0.3672  0.1456
16274TIP3    H170237   2.592   4.553   3.527 -0.5613 -0.6576  0.9031
16274TIP3    H270238   2.726   4.614   3.559 -0.8094  0.9404 -0.9428
16275TIP3   OH270239   5.371   2.132  14.459 -0.1385 -0.1263  0.1564
16275TIP3    H170240   5.307   2.061  14.457  0.1404 -0.3814 -1.8307
16275TIP3    H270241   5.454   2.089  14.475 -0.1899 -0.0358  0.6790
16276TIP3   OH270242   4.133   3.833   5.874  0.3874  0.8041  0.2851
16276TIP3    H170243   4.081   3.798   5.946  1.7584 -0.6207  0.6366
16276TIP3    H270244   4.210   3.777   5.870  1.2654  2.0165 -1.0781
16277TIP3   OH270245   0.079   5.526   4.998 -0.6469  0.0711  0.0762
16277TIP3    H170246   0.145   5.457   4.999  0.0759  0.7376 -0.3324
16277TIP3    H270247   0.031   5.515   5.081  0.9845  0.5215  1.1254
16278TIP3   OH270248   0.030   4.310  15.689 -0.0000  0.4438 -0.3221
16278TIP3    H170249   0.000   4.232  15.643 -0.0531  0.3436 -0.1202
16278TIP3    H270250  -0.010   4.304  15.776  1.4920 -0.2653  0.3481
16279TIP3   OH270251   1.434   1.192  16.506 -0.0355  0.0912 -0.1206
16279TIP3    H170252   1.495   1.189  16.579  0.3994  1.6431 -0.3876
16279TIP3    H270253   1.378   1.267  16.524 -0.4827 -0.0323 -0.9460
16280TIP3   OH270254   5.252   2.207  17.233 -0.0225  0.2669  0.6041
16280TIP3    H170255   5.301   2.215  17.151 -0.3301 -0.1490  0.3784
16280TIP3    H270256   5.311   2.161  17.292 -0.1730 -0.3334  0.2969
16281TIP3   OH270257   4.561   2.961  12.189 -0.7851 -0.0534  0.8332
16281TIP3    H170258   4.509   3.021  12.241 -1.2803  1.4700 -1.2672
16281TIP3    H270259   4.499   2.925  12.125  0.4776  1.2508 -1.2686
16282TIP3   OH270260   6.035   2.154  11.816 -0.2154  0.0841 -0.3327
16282TIP3    H170261   6.084   2.100  11.754 -0.3767 -2.5973  1.6771
16282TIP3    H270262   5.944   2.144  11.790 -0.2051 -0.2426 -0.2458
16283TIP3   OH270263   6.377   0.067   1.616  0.3141 -0.3937 -0.0614
16283TIP3    H170264   6.466   0.076   1.581 -0.1737  1.4679 -0.9305
16283TIP3    H270265   6.342  -0.011   1.574  1.5664 -1.2463  0.4126
16284TIP3   OH270266   3.334   2.468   0.438 -0.4935  0.2259  0.3362
16284TIP3    H170267   3.276   2.540   0.462  1.2375  2.1707 -0.9094
16284TIP3    H270268   3.282   2.415   0.377 -1.7612  0.4438  1.1793
16285TIP3   OH270269   0.632   1.692   5.591  0.4958 -0.6528 -0.0675
16285TIP3    H170270   0.615   1.610   5.636 -1.1656 -0.2627  0.0987
16285TIP3    H270271   0.551   1.710   5.542  1.5215 -0.0669 -1.6262
16286TIP3   OH270272   1.421   2.223  14.142 -0.2651  0.5193  0.4371
16286TIP3    H170273   1.511   2.193  14.153 -0.6005 -1.5921 -1.6892
16286TIP3    H270274   1.423   2.277  14.063 -0.8806  0.4010  0.3384
16287TIP3   OH270275   6.079   3.881   2.766  0.4626  0.2595  0.5863
16287TIP3    H170276   6.164   3.897   2.807  1.4860  1.2692 -1.7157
16287TIP3    H270277   6.072   3.786   2.759  1.5561  0.1718  0.5560
16288TIP3   OH270278   4.633   4.994  13.952 -0.0924 -0.2191  0.5042
16288TIP3    H170279   4.726   5.009  13.967 -0.4185  0.3274  2.0847
16288TIP3    H270280   4.596   4.980  14.039 -1.6516  0.4932 -0.0134
16289TIP3   OH270281   6.466   5.844  12.428 -0.5561 -0.4416  0.5182
16289TIP3    H170282   6.375   5.872  12.431 -1.0180 -1.8986  0.6486
16289TIP3    H270283   6.481   5.801  12.512  0.0965 -0.7004  0.2783
16290TIP3   OH270284   1.434   1.689   4.297 -0.0833 -0.0061 -0.5466
16290TIP3    H170285   1.467   1.751   4.231  1.1683  0.1509  0.2015
16290TIP3    H270286   1.513   1.656   4.341 -0.7811 -1.5355 -0.3837
16291TIP3   OH270287   5.492   5.325   0.285 -0.2601  0.2687 -0.2621
16291TIP3    H170288   5.559   5.367   0.339  1.7468 -1.0783 -1.5547
16291TIP3    H270289   5.482   5.384   0.210 -0.1444  0.2395 -0.3016
16292TIP3   OH270290   4.333   0.468  15.312 -0.3546  0.1498 -0.0530
16292TIP3    H170291   4.375   0.545  15.351  1.8598 -0.4614 -1.0533
16292TIP3    H270292   4.365   0.466  15.221  0.5718 -2.4997  0.2203
16293TIP3   OH270293   6.475   2.361  15.594 -0.0748  0.2039 -0.2827
16293TIP3    H170294   6.531   2.295  15.551  1.2448  1.2711 -0.2577
16293TIP3    H270295   6.492   2.349  15.688 -1.3266 -0.7004 -0.1556
16294TIP3   OH270296   0.348   2.625  16.702 -0.2784  0.2622  0.3671
16294TIP3    H170297   0.429   2.673  16.720 -0.1093  0.8082 -1.5907
16294TIP3    H270298   0.281   2.671  16.753  0.8637 -1.4022  3.6313
16295TIP3   OH270299   5.845   2.615  14.199 -0.1956 -0.4862  0.1269
16295TIP3    H170300   5.935   2.647  14.193 -0.6353  0.6473 -0.8815
16295TIP3    H270301   5.793   2.693  14.216 -1.0320 -1.0857  0.3805
16296TIP3   OH270302   2.075   2.986   5.479  0.0393 -0.2802  0.0048
16296TIP3    H170303   2.017   2.995   5.554  0.9466 -1.4020  0.8685
16296TIP3    H270304   2.158   2.953   5.515 -0.0279 -2.5330 -1.6428
16297TIP3   OH270305   3.988   4.494   3.097 -0.1358 -0.2960  0.2731
16297TIP3    H170306   3.942   4.450   3.168  0.3314 -1.7054 -0.2524
16297TIP3    H270307   4.073   4.518   3.134 -0.3307  0.0371  0.5137
16298TIP3   OH270308   2.747   5.669   5.429 -0.2869 -0.3278  0.0859
16298TIP3    H170309   2.713   5.757   5.444 -0.5668 -0.3678 -0.2933
16298TIP3    H270310   2.710   5.643   5.344 -1.4857 -1.4339  0.9064
16299TIP3   OH270311   4.987   3.775   5.090 -0.3027  0.5386  0.4703
16299TIP3    H170312   4.915   3.758   5.030 -0.0522  2.5144 -0.4653
16299TIP3    H270313   5.039   3.842   5.047  3.0139 -1.8134  0.4018
16300TIP3   OH270314   4.617   4.317   3.135  0.0877  0.0512  0.2952
16300TIP3    H170315   4.668   4.349   3.210 -0.3130  0.0251  0.5805
16300TIP3    H270316   4.527   4.315   3.166  0.1541 -1.9927  0.5107
16301TIP3   OH270317   6.062   2.511   1.351 -0.0142  0.4096  0.3164
16301TIP3    H170318   6.073   2.599   1.387  1.2306  0.2513  0.3637
16301TIP3    H270319   6.151   2.480   1.335 -0.4509 -0.6606 -0.1556
16302TIP3   OH270320   4.457   5.899  11.085 -0.2875 -0.3944  0.2596
16302TIP3    H170321   4.390   5.832  11.095 -1.2127  0.6213  1.1011
16302TIP3    H270322   4.447   5.931  10.995 -0.4649 -0.7152  0.1652
16303TIP3   OH270323   3.816   2.290  16.193 -0.4991 -0.3957 -0.0313
16303TIP3    H170324   3.745   2.245  16.239 -1.4272  1.1326  0.1019
16303TIP3    H270325   3.803   2.383  16.215  2.3958 -0.1812  1.1858
16304TIP3   OH270326   5.670   2.378   3.609 -0.5738  0.6287  0.3567
16304TIP3    H170327   5.638   2.462   3.574 -1.1053  0.3390  0.1318
16304TIP3    H270328   5.756   2.399   3.645 -0.6500  1.2507  0.2022
16305TIP3   OH270329   4.105   1.414  13.351 -0.1654  0.4577  0.3606
16305TIP3    H170330   4.063   1.376  13.428 -0.9720  0.5499 -0.0265
16305TIP3    H270331   4.133   1.338  13.299 -1.1814  0.3821 -0.0912
16306TIP3   OH270332   6.464   2.823  11.649 -0.5669  0.2866  0.0564
16306TIP3    H170333   6.486   2.879  11.575  0.6317  0.2257  0.3587
16306TIP3    H270334   6.453   2.736  11.611  0.6850  0.1308  0.0372
16307TIP3   OH270335   4.664   0.946  15.617 -0.5753  0.3023  0.2651
16307TIP3    H170336   4.586   0.931  15.670 -0.5091 -1.1494 -0.0108
16307TIP3    H270337   4.726   0.879  15.646  1.5091  2.8519  2.1808
16308TIP3   OH270338   1.535   6.167   3.280 -0.4379 -0.6563  0.4255
16308TIP3    H170339   1.554   6.134   3.192  1.9878  0.1176  0.5722
16308TIP3    H270340   1.538   6.090   3.336  0.8726 -0.8062  0.1820
16309TIP3   OH270341   3.418   2.343  14.361  0.7637  0.5489  0.5502
16309TIP3    H170342   3.386   2.290  14.288  2.0957  0.0900  0.2703
16309TIP3    H270343   3.416   2.284  14.436 -0.8644  1.0994  0.9873
16310TIP3   OH270344   5.170   3.923  15.560  1.1078  0.4690  0.1726
16310TIP3    H170345   5.162   3.828  15.569 -2.0203  0.6589  0.4636
16310TIP3    H270346   5.142   3.940  15.470  1.1507  1.1569  0.2881
16311TIP3   OH270347   2.038   4.020  17.097 -0.5831  0.0462 -0.3036
16311TIP3    H170348   2.106   3.953  17.089 -0.3810 -0.0213  1.4708
16311TIP3    H270349   2.075   4.098  17.054 -0.4755 -0.7168 -1.6350
16312TIP3   OH270350   0.539   1.299   0.091  0.1760 -0.4739 -0.5299
16312TIP3    H170351   0.465   1.245   0.064  1.1943 -1.4565 -1.4631
16312TIP3    H270352   0.500   1.369   0.144 -1.4778 -0.6002 -1.5129
16313TIP3   OH270353   5.092   4.113  16.409  0.1301 -0.2663  0.0373
16313TIP3    H170354   5.094   4.155  16.496  0.4483 -0.6060  0.1951
16313TIP3    H270355   5.172   4.144  16.366 -0.1206  0.0479 -0.2060
16314TIP3   OH270356   3.108   6.551  13.060 -0.1301  0.0809  0.3191
16314TIP3    H170357   3.036   6.594  13.106 -0.8162  0.3999 -0.9858
16314TIP3    H270358   3.111   6.595  12.975  1.7400  0.1937  0.4062
16315TIP3   OH270359   4.498   5.494   4.157 -0.3117 -0.3301  0.0782
16315TIP3    H170360   4.415   5.540   4.142  0.2877  0.5241 -0.7572
16315TIP3    H270361   4.560   5.539   4.100  0.6688 -1.1390  0.4895
16316TIP3   OH270362   1.674   5.840  11.112 -0.8777 -0.0675 -0.1865
16316TIP3    H170363   1.698   5.764  11.060  0.6753 -0.4468  1.0167
16316TIP3    H270364   1.704   5.915  11.061 -0.9777 -0.3411 -0.6472
16317TIP3   OH270365   2.714   3.521   6.511 -0.1804  0.3889  0.0745
16317TIP3    H170366   2.702   3.560   6.424  2.2289  1.3705  0.1195
16317TIP3    H270367   2.673   3.584   6.570 -0.2445  0.6245 -0.2160
16318TIP3   OH270368   1.865   0.021  16.380 -0.6248  0.2291  0.1735
16318TIP3    H170369   1.913   0.046  16.301 -0.9397 -1.1104 -0.4587
16318TIP3    H270370   1.773   0.031  16.357 -0.7079  0.3650  0.5585
16319TIP3   OH270371   3.588   3.670  15.785 -0.2058  0.7274  0.3883
16319TIP3    H170372   3.635   3.598  15.742  0.0300 -0.1634  2.0436
16319TIP3    H270373   3.506   3.676  15.736  0.1891 -0.0049 -0.4065
16320TIP3   OH270374   3.443   6.165   4.871 -0.4832 -0.8805 -0.1526
16320TIP3    H170375   3.400   6.131   4.950 -4.1271 -0.8443 -1.8905
16320TIP3    H270376   3.508   6.099   4.849 -1.6367 -2.5377  1.1107
16321TIP3   OH270377   3.399   4.828  15.451  0.1639  0.5783  0.6562
16321TIP3    H170378   3.425   4.832  15.543 -0.7515 -1.1153  1.0148
16321TIP3    H270379   3.348   4.908  15.438  0.1525  0.7492  1.6627
16322TIP3   OH270380   5.589   6.137  14.439  0.2856 -0.2904  0.1493
16322TIP3    H170381   5.683   6.117  14.441  0.2105 -0.7439 -0.5528
16322TIP3    H270382   5.577   6.187  14.358  0.1417  0.9917  0.9272
16323TIP3   OH270383   1.842   3.692   3.879 -0.1858 -0.2593  0.4626
16323TIP3    H170384   1.852   3.730   3.792 -0.6519 -0.4953  0.3083
16323TIP3    H270385   1.896   3.748   3.935  0.0644 -0.0685  0.0364
16324TIP3   OH270386   4.788   4.681  11.350  0.3105 -0.0977 -0.4838
16324TIP3    H170387   4.710   4.726  11.318  0.6288 -0.2915 -1.5632
16324TIP3    H270388   4.853   4.750  11.363 -0.3022  0.2011  1.3566
16325TIP3   OH270389   3.722   2.268   1.847  0.0652  0.2452 -0.2288
16325TIP3    H170390   3.653   2.247   1.909  1.5651 -0.6918  1.2002
16325TIP3    H270391   3.734   2.189   1.795  0.0222  0.4271 -0.5205
16326TIP3   OH270392   3.596   4.282   3.407 -0.5353 -0.2744  0.0218
16326TIP3    H170393   3.658   4.348   3.373  1.2340 -1.6173  0.4904
16326TIP3    H270394   3.619   4.274   3.500 -0.7799 -1.4867 -0.0152
16327TIP3   OH270395   0.717   4.461   5.600 -0.5491 -0.1151  0.4142
16327TIP3    H170396   0.809   4.471   5.626  0.0223 -2.3017 -0.5200
16327TIP3    H270397   0.669   4.523   5.655  1.4153  0.6613  1.3317
16328TIP3   OH270398   1.247   0.672  16.465  0.3857  0.2009  0.0404
16328TIP3    H170399   1.289   0.758  16.469 -0.3216  0.7148 -2.2243
16328TIP3    H270400   1.303   0.622  16.406 -1.0238  0.2539 -1.4091
16329TIP3   OH270401   2.197   5.926  17.143  0.2703 -0.2040  0.8092
16329TIP3    H170402   2.262   5.863  17.112  0.5386  0.6301 -0.3941
16329TIP3    H270403   2.115   5.877  17.149  0.5103 -0.7068  0.0451
16330TIP3   OH270404   0.510   4.788  13.700 -0.5799 -0.2766  0.2020
16330TIP3    H170405   0.583   4.803  13.761 -0.7568  1.7079 -0.0066
16330TIP3    H270406   0.434   4.824  13.745 -1.1386 -0.8766 -0.2571
16331TIP3   OH270407   4.057   6.293  11.717 -0.2458  0.2010  0.0791
16331TIP3    H170408   4.150   6.292  11.694 -0.3618 -3.0877 -0.7511
16331TIP3    H270409   4.056   6.268  11.810 -0.2871 -0.2476 -0.0382
16332TIP3   OH270410   4.928   4.458  11.477 -0.0739  0.0120  0.0959
16332TIP3    H170411   4.972   4.435  11.396 -0.4196  1.7873 -0.6344
16332TIP3    H270412   4.909   4.551  11.469  1.2232  0.6267  2.8359
16333TIP3   OH270413   0.806   2.786   5.933 -0.1325  0.6255 -0.1596
16333TIP3    H170414   0.796   2.738   5.851 -1.2520 -2.1907  1.4924
16333TIP3    H270415   0.726   2.838   5.942 -1.0280 -0.7577  0.1283
16334TIP3   OH270416   2.773   6.199   3.552 -0.4358  0.4935 -0.2535
16334TIP3    H170417   2.720   6.276   3.573  1.4525  1.5152  1.0454
16334TIP3    H270418   2.722   6.126   3.588 -0.6922  1.5148  1.6219
16335TIP3   OH270419   3.353   6.222   4.319  0.2853  0.2289  0.8973
16335TIP3    H170420   3.366   6.234   4.413 -0.3780 -1.8410  1.3261
16335TIP3    H270421   3.440   6.227   4.282  0.8030 -0.7187  1.9122
16336TIP3   OH270422   5.397   0.658   6.726  0.6155  0.1163 -0.1183
16336TIP3    H170423   5.421   0.748   6.701 -0.7111  0.7655  0.8367
16336TIP3    H270424   5.357   0.621   6.647  1.3439  0.2840 -0.5792
16337TIP3   OH270425   5.846   5.047  16.267  0.2752 -0.3200  0.0761
16337TIP3    H170426   5.879   4.996  16.193  2.1379  0.6096  0.2179
16337TIP3    H270427   5.921   5.100  16.296 -0.4496 -0.4913  2.4979
16338TIP3   OH270428   4.255   3.904  17.155 -0.2619  0.6215 -0.0148
16338TIP3    H170429   4.315   3.911  17.229 -0.0963  0.3150 -0.1182
16338TIP3    H270430   4.247   3.810  17.139 -3.2762  0.3635  2.0385
16339TIP3   OH270431   2.116   0.152   6.386  0.3271  0.3945  0.1206
16339TIP3    H170432   2.036   0.132   6.337  1.4605 -0.6104 -1.4378
16339TIP3    H270433   2.096   0.125   6.476 -0.3740 -2.0242 -0.6658
16340TIP3   OH270434   3.554   3.944   1.529  0.2131 -0.9508 -0.0813
16340TIP3    H170435   3.496   4.000   1.478  0.2598 -0.7251  0.1109
16340TIP3    H270436   3.595   3.887   1.464  1.2580  0.1989 -0.4742
16341TIP3   OH270437   0.996   0.730   1.956 -0.0726  0.0396  0.0476
16341TIP3    H170438   0.964   0.652   2.001 -1.3120  0.2196 -0.4716
16341TIP3    H270439   0.948   0.803   1.996  0.2349  0.4068 -0.2419
16342TIP3   OH270440   4.309   1.450  14.687  0.9543  0.7668  0.1420
16342TIP3    H170441   4.265   1.518  14.737 -3.1684 -1.3531 -0.2356
16342TIP3    H270442   4.310   1.374  14.745 -2.7496 -1.3546 -2.1552
16343TIP3   OH270443   3.210   5.199   5.458 -0.2038 -0.1595  0.1576
16343TIP3    H170444   3.158   5.278   5.441  0.4096  0.4416  0.9868
16343TIP3    H270445   3.158   5.149   5.521  0.6112  0.8989  1.7294
16344TIP3   OH270446   1.140   1.437   5.424 -0.4478  0.1332 -0.4631
16344TIP3    H170447   1.225   1.451   5.465 -0.3142 -0.9367 -0.3598
16344TIP3    H270448   1.115   1.348   5.448 -1.2188  0.1395 -1.1784
16345TIP3   OH270449   4.065   3.761   3.681  0.2076  0.0231 -0.1084
16345TIP3    H170450   4.058   3.810   3.762 -0.2952  0.4919 -0.4324
16345TIP3    H270451   4.130   3.808   3.629  1.4406 -0.9595  0.4961
16346TIP3   OH270452   1.889   1.528   4.861 -0.3275  0.1448 -0.2501
16346TIP3    H170453   1.831   1.475   4.915  0.5711 -1.9955 -1.2819
16346TIP3    H270454   1.838   1.546   4.782 -0.8932  1.5049  0.3949
16347TIP3   OH270455   1.970   1.512   5.768  0.1878 -0.0735  0.3097
16347TIP3    H170456   1.883   1.473   5.769  1.0380 -2.2261 -1.0615
16347TIP3    H270457   1.965   1.581   5.703 -0.3976 -0.5011 -0.1151
16348TIP3   OH270458   5.011   3.795  14.833  0.5381  0.6200 -0.6671
16348TIP3    H170459   5.018   3.703  14.808  0.2232  0.7023 -1.0733
16348TIP3    H270460   5.078   3.839  14.781 -0.3096  0.8343 -1.6211
16349TIP3   OH270461   6.738   6.263   1.952 -0.1609 -0.0081 -0.1990
16349TIP3    H170462   6.707   6.173   1.938 -1.7309  0.4126  0.3422
16349TIP3    H270463   6.681   6.316   1.897  0.1354  0.7421  0.2111
16350TIP3   OH270464   5.371   3.608  12.636 -0.4454 -0.1984  0.0790
16350TIP3    H170465   5.375   3.679  12.700 -0.3011 -1.7453  1.8628
16350TIP3    H270466   5.361   3.653  12.552 -1.2661  1.8928  1.2087
16351TIP3   OH270467   1.084   2.798  14.139  0.3977  0.0858 -0.3784
16351TIP3    H170468   0.995   2.795  14.173  0.9152 -0.4248  1.0181
16351TIP3    H270469   1.123   2.875  14.181  0.4896  0.5828 -1.3428
16352TIP3   OH270470   4.322   3.645   5.762  0.1643 -0.2288  0.2150
16352TIP3    H170471   4.380   3.611   5.830  1.2509 -0.7873 -0.9517
16352TIP3    H270472   4.372   3.636   5.681 -1.1130  0.3786 -0.6752
16353TIP3   OH270473   4.898   3.933   0.158 -0.1114 -0.6899  0.1654
16353TIP3    H170474   4.916   4.021   0.125  0.8309 -0.5096  1.1154
16353TIP3    H270475   4.917   3.876   0.084  0.1134 -0.1617 -0.1950
16354TIP3   OH270476   3.649   5.166   3.866  0.0503  0.3261  0.1990
16354TIP3    H170477   3.663   5.104   3.795  1.3090  1.5181 -0.6315
16354TIP3    H270478   3.560   5.199   3.852  0.5273  1.0426 -1.2244
16355TIP3   OH270479   4.776   6.167   0.687  0.7311  0.5169 -0.5773
16355TIP3    H170480   4.749   6.079   0.663  0.3989  0.0515  1.2921
16355TIP3    H270481   4.870   6.169   0.671  0.5583  0.1989 -1.6661
16356TIP3   OH270482   1.817   1.762  14.449 -0.2378 -0.2106  0.4185
16356TIP3    H170483   1.908   1.740  14.427 -0.1476 -0.5376  1.1159
16356TIP3    H270484   1.813   1.858  14.439 -0.3017 -0.3589 -1.3707
16357TIP3   OH270485   2.503   2.982   1.886 -0.1227  0.4797  0.2365
16357TIP3    H170486   2.593   3.016   1.885 -0.0121  0.2334 -1.1124
16357TIP3    H270487   2.504   2.914   1.953  0.9115 -0.0115 -0.2472
16358TIP3   OH270488   2.001   4.693  16.705 -1.0019  0.1769  0.6101
16358TIP3    H170489   1.915   4.706  16.665 -1.9219  3.3316  3.1511
16358TIP3    H270490   2.064   4.715  16.637 -2.4077  2.8635  0.0841
16359TIP3   OH270491   3.620   3.778   0.209  0.7672 -0.4710 -0.0138
16359TIP3    H170492   3.527   3.779   0.234  0.3150  2.7132 -1.2962
16359TIP3    H270493   3.619   3.748   0.118  1.4054 -3.0227  0.7231
16360TIP3   OH270494   2.007   5.326  16.070  0.0383 -0.2805  0.6678
16360TIP3    H170495   2.044   5.364  15.990 -1.3960 -1.6332 -0.6850
16360TIP3    H270496   1.945   5.391  16.101 -1.8225 -1.0699 -1.1972
16361TIP3   OH270497   5.804   1.682   5.082 -0.0345 -0.2647 -0.5211
16361TIP3    H170498   5.898   1.694   5.098  0.1460 -1.3670 -0.6514
16361TIP3    H270499   5.770   1.770   5.071  1.4101  0.0824 -2.8663
16362TIP3   OH270500   2.317   5.259  12.874 -0.8572  0.0033 -0.5187
16362TIP3    H170501   2.312   5.165  12.855 -2.5379 -0.5846  2.2465
16362TIP3    H270502   2.313   5.301  12.788 -0.0384 -2.4283 -1.8424
16363TIP3   OH270503   1.417   3.323   1.124  0.1655  0.1989 -0.6519
16363TIP3    H170504   1.469   3.243   1.123  0.0766  0.1058  0.7301
16363TIP3    H270505   1.342   3.304   1.068  0.4167 -0.4845 -0.7633
16364TIP3   OH270506   5.212   3.705   1.711  0.4639 -0.3165  0.0690
16364TIP3    H170507   5.141   3.645   1.690  0.5642  0.0794 -1.4930
16364TIP3    H270508   5.277   3.692   1.642  1.5375 -0.0474  0.9792
16365TIP3   OH270509   5.786   4.575  11.680  0.3881  0.0421  0.1165
16365TIP3    H170510   5.880   4.581  11.697  0.1948  1.7287  0.8125
16365TIP3    H270511   5.777   4.504  11.617  2.0852 -0.4260  0.3627
16366TIP3   OH270512   4.381   0.060  15.816  0.1270 -0.8936 -0.6020
16366TIP3    H170513   4.365  -0.027  15.853  0.4188 -0.1247  1.4566
16366TIP3    H270514   4.470   0.054  15.780 -1.1383 -2.4749 -3.9148
16367TIP3   OH270515   2.428   1.643   3.707  0.1317  0.4705 -0.9286
16367TIP3    H170516   2.485   1.693   3.648 -2.0084  3.2775 -0.8446
16367TIP3    H270517   2.389   1.575   3.652  0.5846  1.0323 -1.9687
16368TIP3   OH270518   3.535   5.030   4.512  0.3803 -0.0852 -0.4350
16368TIP3    H170519   3.563   4.939   4.503  1.2241 -0.0784  1.5109
16368TIP3    H270520   3.452   5.025   4.559  1.7726  0.1441  2.2783
16369TIP3   OH270521   4.189   2.353   5.925  0.0735 -0.2436 -0.1554
16369TIP3    H170522   4.146   2.282   5.972  0.3337 -0.3178 -0.0294
16369TIP3    H270523   4.211   2.417   5.993 -1.1178  0.4596 -0.3924
16370TIP3   OH270524   6.025   5.878  17.235 -0.5130  0.0651  0.1987
16370TIP3    H170525   6.017   5.796  17.284 -0.6823  0.0387  0.1289
16370TIP3    H270526   6.111   5.874  17.194 -0.7984 -0.3768 -0.3513
16371TIP3   OH270527   3.684   4.934   2.063  0.2705 -0.0035  0.3352
16371TIP3    H170528   3.692   5.008   2.124 -0.6948 -1.3558  2.2035
16371TIP3    H270529   3.590   4.922   2.052  0.3782 -1.7360  1.0982
16372TIP3   OH270530   3.314   1.040   2.322 -0.1504 -0.1782  0.6125
16372TIP3    H170531   3.395   1.089   2.309 -1.6872  2.7864  1.3745
16372TIP3    H270532   3.335   0.951   2.294  2.0835  1.4120 -3.6007
16373TIP3   OH270533   2.511   3.606   4.231  0.5284  0.0893 -0.0053
16373TIP3    H170534   2.588   3.551   4.215  0.4104 -0.5349  1.4616
16373TIP3    H270535   2.520   3.635   4.321 -0.9955 -0.0607  0.2264
16374TIP3   OH270536   5.477   4.894   1.106 -0.1341 -0.7013  0.0447
16374TIP3    H170537   5.542   4.931   1.167 -1.1743  1.3920 -0.0298
16374TIP3    H270538   5.504   4.926   1.020 -0.5815 -0.8285 -0.1445
16375TIP3   OH270539   6.692   2.544   1.234  0.2118 -0.1470 -0.2454
16375TIP3    H170540   6.635   2.538   1.158  1.3439 -0.2197 -1.1039
16375TIP3    H270541   6.654   2.615   1.286 -0.5303 -0.0494 -0.8946
16376TIP3   OH270542   6.432   0.223  16.283  0.2189 -0.9302 -0.6448
16376TIP3    H170543   6.405   0.195  16.196 -0.4254 -1.3178 -0.3295
16376TIP3    H270544   6.352   0.218  16.336  0.6195 -0.7805 -0.0102
16377TIP3   OH270545   6.492   2.131   3.266  0.0219  0.6926 -0.3213
16377TIP3    H170546   6.488   2.035   3.263  1.1294  0.5569  1.5795
16377TIP3    H270547   6.532   2.152   3.350  0.5124  2.8222 -1.0073
16378TIP3   OH270548   1.533   2.818   2.531 -0.1915  0.0765  0.8876
16378TIP3    H170549   1.480   2.787   2.605 -1.5884 -0.9168 -0.4652
16378TIP3    H270550   1.612   2.764   2.534  1.2744  2.1348  3.4334
16379TIP3   OH270551   6.368   3.829   6.095  0.3506  0.4595  0.1869
16379TIP3    H170552   6.427   3.876   6.036  1.0200 -1.1328 -0.4702
16379TIP3    H270553   6.286   3.878   6.090  0.5298  0.6569 -1.7206
16380TIP3   OH270554   6.276   6.048  16.310  0.3100 -0.1347 -0.2349
16380TIP3    H170555   6.325   6.038  16.391  2.8238 -1.1575 -1.7815
16380TIP3    H270556   6.212   5.977  16.312 -0.8026  0.8287  1.5095
16381TIP3   OH270557   4.012   3.799  14.382 -0.2620  0.1537  0.3086
16381TIP3    H170558   4.076   3.740  14.422 -0.5018  0.1257  0.6521
16381TIP3    H270559   3.992   3.863  14.450 -0.0746  0.5791 -0.0319
16382TIP3   OH270560   5.760   1.770   3.699  0.4917  0.0541  0.1209
16382TIP3    H170561   5.845   1.806   3.673  0.5613 -0.7947 -0.8453
16382TIP3    H270562   5.749   1.801   3.789  1.1422  1.3963 -0.2256
16383TIP3   OH270563   2.186   0.773  14.312 -0.8049 -0.1482 -0.9126
16383TIP3    H170564   2.274   0.749  14.340 -0.5033  1.0751 -0.7611
16383TIP3    H270565   2.139   0.790  14.394 -1.3339 -1.2216 -0.9673
16384TIP3   OH270566   0.384   6.178  16.694 -0.0225 -0.2820  0.5069
16384TIP3    H170567   0.391   6.195  16.600 -0.9533 -0.0393  0.4636
16384TIP3    H270568   0.438   6.245  16.735 -1.2875  0.9893  0.2135
16385TIP3   OH270569   2.780   1.848   1.483 -0.2620 -0.1178 -0.4071
16385TIP3    H170570   2.754   1.792   1.409 -2.8693 -1.1421  1.1345
16385TIP3    H270571   2.856   1.804   1.521  0.2130 -0.3681 -1.5944
16386TIP3   OH270572   1.983   0.582  12.703  0.2066 -0.0965 -0.3141
16386TIP3    H170573   1.993   0.645  12.632  2.2895  0.1901  0.1807
16386TIP3    H270574   1.952   0.502  12.660  0.1257  0.4664 -1.3279
16387TIP3   OH270575   3.175   2.464  16.330  0.0042 -0.2870  0.1671
16387TIP3    H170576   3.114   2.416  16.275  1.0522 -1.5456  0.0649
16387TIP3    H270577   3.225   2.397  16.376  2.8015  0.5821 -1.3697
16388TIP3   OH270578   4.743   3.132  13.868 -0.4225  0.1845  0.3225
16388TIP3    H170579   4.787   3.087  13.795  0.5147  0.6059  0.6191
16388TIP3    H270580   4.663   3.167  13.828  0.0876  0.4345 -0.5147
16389TIP3   OH270581   2.526   6.682  13.643 -0.6102 -0.4710  1.0680
16389TIP3    H170582   2.520   6.596  13.685  0.1368 -1.4415 -0.6901
16389TIP3    H270583   2.524   6.745  13.715 -2.9105 -1.8512  2.3010
16390TIP3   OH270584   1.010   3.667  13.279  0.1821 -0.2917 -0.0789
16390TIP3    H170585   1.016   3.714  13.362  1.2959  1.2064 -0.9531
16390TIP3    H270586   0.923   3.688  13.245  0.3650  0.4987 -0.0741
16391TIP3   OH270587   4.697   2.021   6.087 -0.0486  0.2138  0.3161
16391TIP3    H170588   4.681   1.974   6.169  1.2748  0.1628  0.5668
16391TIP3    H270589   4.752   2.096   6.113  1.7325 -0.6640 -0.7236
16392TIP3   OH270590   3.903   1.929  11.094  0.3194  0.7209 -1.0418
16392TIP3    H170591   3.867   1.904  11.178 -1.7969 -0.0402 -2.1047
16392TIP3    H270592   3.980   1.873  11.083 -0.3957 -0.4347 -0.3693
16393TIP3   OH270593   1.975   5.930  13.165 -1.4540  0.0695  0.3854
16393TIP3    H170594   1.949   5.870  13.235  0.2832 -0.7617  0.3555
16393TIP3    H270595   1.992   5.874  13.090 -2.1030  0.8486 -0.3661
16394TIP3   OH270596   4.221   3.948  11.957  0.1601 -0.2187 -0.5803
16394TIP3    H170597   4.289   4.015  11.966 -2.2533  2.7931 -2.6803
16394TIP3    H270598   4.232   3.916  11.867  0.9432 -2.4225  0.2294
16395TIP3   OH270599   2.700   2.606   1.326 -0.4441 -0.1222  0.0951
16395TIP3    H170600   2.676   2.635   1.414  1.6748 -0.9218  1.0242
16395TIP3    H270601   2.689   2.683   1.271  0.2960  1.0471  1.5120
16396TIP3   OH270602   1.589   5.823  15.871  0.0363  0.1099 -0.1118
16396TIP3    H170603   1.600   5.857  15.782 -1.2533  0.3476 -0.1965
16396TIP3    H270604   1.600   5.900  15.927  0.8995 -0.0484 -0.0382
16397TIP3   OH270605   3.051   1.893  11.164  0.2588  0.7060  0.0260
16397TIP3    H170606   3.122   1.889  11.100  0.4538  1.4458  0.1849
16397TIP3    H270607   3.094   1.876  11.248 -0.3167 -2.4037 -0.1967
16398TIP3   OH270608   0.836   4.714   2.437  0.1559  0.3052 -0.3744
16398TIP3    H170609   0.805   4.632   2.399  1.0901  0.0913 -0.6921
16398TIP3    H270610   0.924   4.694   2.469  0.4209  1.2021 -0.5225
16399TIP3   OH270611   2.825   5.721   1.138  0.0461  0.3358  0.0453
16399TIP3    H170612   2.824   5.734   1.233 -2.2322  0.2394  0.1069
16399TIP3    H270613   2.860   5.633   1.126  1.7092  0.8736  0.6598
16400TIP3   OH270614   5.132   5.306  13.415 -0.2337  0.4616  0.5590
16400TIP3    H170615   5.200   5.258  13.462 -1.4850 -0.7547  1.2327
16400TIP3    H270616   5.068   5.238  13.391 -0.6236  1.3853 -1.1097
16401TIP3   OH270617   1.988   3.643  12.260  0.5064 -0.0311  0.7090
16401TIP3    H170618   1.917   3.586  12.287  1.2830 -0.1878  2.6111
16401TIP3    H270619   2.067   3.589  12.267  0.8452  0.1353 -1.3585
16402TIP3   OH270620   0.835   0.658   2.785  0.0938 -0.0053 -0.7410
16402TIP3    H170621   0.750   0.650   2.828 -0.7007  0.9501 -2.0410
16402TIP3    H270622   0.855   0.752   2.790  1.4050 -0.3072  0.1278
16403TIP3   OH270623   2.505   5.384  15.702 -0.5640  0.6684  0.4053
16403TIP3    H170624   2.443   5.348  15.766  0.1388 -0.2749  0.5856
16403TIP3    H270625   2.484   5.339  15.620 -1.1018  1.4727  0.0862
16404TIP3   OH270626   0.752   6.243   2.785 -0.1027  0.5376  0.4472
16404TIP3    H170627   0.807   6.233   2.707 -3.9832 -0.8552 -2.4471
16404TIP3    H270628   0.767   6.333   2.813  1.2500  1.2125 -2.1305
16405TIP3   OH270629   2.441   6.077   0.314 -0.0007  0.1432 -0.0717
16405TIP3    H170630   2.381   6.002   0.309 -0.9317  0.9291 -1.2998
16405TIP3    H270631   2.385   6.154   0.301  1.0007  1.0435  0.6902
16406TIP3   OH270632   6.055   2.083   3.945 -0.1834 -1.1604  0.3791
16406TIP3    H170633   6.138   2.093   3.899 -0.8728 -0.0192 -0.6568
16406TIP3    H270634   6.049   1.989   3.963 -0.4675 -1.9392 -3.0775
16407TIP3   OH270635   1.130   4.693  15.229  0.4701  0.0220  0.2078
16407TIP3    H170636   1.070   4.747  15.281  0.0291 -1.0917  0.9019
16407TIP3    H270637   1.215   4.702  15.272  0.5379  0.6406 -0.0480
16408TIP3   OH270638   6.321   2.680   5.775 -0.3222  0.4502 -0.1445
16408TIP3    H170639   6.388   2.678   5.706 -0.0335 -0.5022  0.1578
16408TIP3    H270640   6.246   2.722   5.733 -0.3842 -0.7160 -1.2718
16409TIP3   OH270641   4.959   0.966  14.771 -0.5268 -0.7062 -0.8662
16409TIP3    H170642   4.898   0.977  14.844  1.0872  0.9772  0.3150
16409TIP3    H270643   4.920   1.017  14.700 -1.0319 -0.5075 -0.4548
16410TIP3   OH270644   0.490   0.199   3.971 -0.1054 -0.3000 -0.9531
16410TIP3    H170645   0.579   0.176   3.995  0.1118  1.5851  0.2917
16410TIP3    H270646   0.435   0.148   4.031  0.2357  0.0388 -0.3397
16411TIP3   OH270647   6.290   0.189  14.666 -0.2410 -0.4009  0.6083
16411TIP3    H170648   6.331   0.207  14.581  0.0131 -3.2172  0.0193
16411TIP3    H270649   6.209   0.239  14.665  0.2884  0.4819 -0.8188
16412TIP3   OH270650   2.319   4.756   5.738  0.9477  0.3279  0.2294
16412TIP3    H170651   2.398   4.786   5.783  1.1823  1.5217 -0.9345
16412TIP3    H270652   2.303   4.822   5.671 -0.1604 -0.7134 -0.5653
16413TIP3   OH270653   3.764   2.640  12.526  0.2954  0.1549 -0.2307
16413TIP3    H170654   3.843   2.678  12.490  0.3177 -0.0948 -0.4477
16413TIP3    H270655   3.781   2.634  12.620  0.1805  0.9406 -0.1535
16414TIP3   OH270656   1.309   0.186   0.727  0.0371  0.2166 -0.3136
16414TIP3    H170657   1.300   0.280   0.715 -0.1347  0.3796  0.8938
16414TIP3    H270658   1.403   0.170   0.727  0.0987  0.5286  0.3178
16415TIP3   OH270659   4.444   4.295   1.987  0.0071 -0.4968  0.1201
16415TIP3    H170660   4.361   4.269   2.027  1.0639  1.2610  3.8180
16415TIP3    H270661   4.511   4.254   2.040  1.5861 -0.1953 -1.5393
16416TIP3   OH270662   3.724   6.719   2.789  0.0220  0.2001 -0.1473
16416TIP3    H170663   3.784   6.686   2.855 -0.4196  1.3961  0.8987
16416TIP3    H270664   3.770   6.705   2.706  0.9703 -0.5132  0.4708
16417TIP3   OH270665   4.248   4.900   3.257  0.8484  0.2677  0.1819
16417TIP3    H170666   4.304   4.897   3.335  0.4771 -0.3530  0.4293
16417TIP3    H270667   4.232   4.994   3.244  0.1621  0.3410  1.4023
16418TIP3   OH270668   0.297   5.931   1.525 -0.0197  0.1324  0.3565
16418TIP3    H170669   0.364   5.870   1.556 -0.3037 -1.2216 -1.4568
16418TIP3    H270670   0.215   5.899   1.564 -0.5223 -2.1135 -2.2065
16419TIP3   OH270671   2.352   0.537  15.080  0.0586 -0.4710  0.4469
16419TIP3    H170672   2.333   0.526  14.987 -0.4597 -1.2335  0.6330
16419TIP3    H270673   2.303   0.615  15.106  1.1031  0.4134 -0.1549
16420TIP3   OH270674   5.985   1.087  15.030 -0.2304  0.1733 -1.1180
16420TIP3    H170675   5.983   1.006  14.979 -2.4125  0.3917 -1.4736
16420TIP3    H270676   5.959   1.060  15.118 -2.0361  0.5711 -1.4780
16421TIP3   OH270677   3.373   6.353  13.505  0.4810  0.2071  0.1925
16421TIP3    H170678   3.287   6.326  13.539  1.0685 -0.3621  1.3079
16421TIP3    H270679   3.368   6.449  13.502 -0.0662  0.2037  0.6396
16422TIP3   OH270680   4.191   4.546   1.583  0.3624 -0.2737  0.6773
16422TIP3    H170681   4.226   4.535   1.671 -0.3257  1.8191  1.2492
16422TIP3    H270682   4.096   4.545   1.594  0.2602  1.2740  0.1780
16423TIP3   OH270683   4.192   4.213   2.097 -0.1081  0.7407 -0.3940
16423TIP3    H170684   4.187   4.180   2.007 -1.1642 -0.6489  0.1271
16423TIP3    H270685   4.175   4.307   2.089  0.7965  0.8199 -1.7366
16424TIP3   OH270686   6.130   3.192   6.084 -0.2840  0.1440 -0.2443
16424TIP3    H170687   6.215   3.152   6.104 -0.4997 -0.9671 -1.4712
16424TIP3    H270688   6.139   3.282   6.115  1.4196  0.1041 -0.5150
16425TIP3   OH270689   5.758   1.151  11.593 -0.4811 -0.6851  0.4244
16425TIP3    H170690   5.718   1.219  11.538  0.1871 -0.5303  0.1196
16425TIP3    H270691   5.797   1.199  11.666 -1.0411 -0.8573  0.8459
16426TIP3   OH270692   4.634   0.961   3.752  0.2144 -0.0227  0.0188
16426TIP3    H170693   4.610   1.051   3.777 -1.2147  0.3846 -2.4313
16426TIP3    H270694   4.626   0.911   3.832  0.1218  1.8891  1.2722
16427TIP3   OH270695   4.370   4.253   1.648  0.2328 -0.0061 -0.1473
16427TIP3    H170696   4.279   4.228   1.633 -0.3916  1.9465  0.0674
16427TIP3    H270697   4.385   4.326   1.587  2.4950 -1.9186 -2.0495
16428TIP3   OH270698   6.130   6.204  12.295 -0.1602 -0.4834 -0.6140
16428TIP3    H170699   6.130   6.300  12.293 -0.4056 -0.4797 -0.5089
16428TIP3    H270700   6.221   6.180  12.313 -0.1336 -0.2655 -0.4602
16429TIP3   OH270701   3.309   4.656  13.030  0.2449 -0.0395  0.3795
16429TIP3    H170702   3.303   4.677  12.937 -0.2949 -0.8842  0.2118
16429TIP3    H270703   3.300   4.560  13.034  1.1069 -0.1060  1.2298
16430TIP3   OH270704   5.652   2.178  13.335  0.0893 -0.8226  0.1829
16430TIP3    H170705   5.695   2.095  13.315  2.7736  0.2480  1.0661
16430TIP3    H270706   5.585   2.187  13.267  0.2804 -3.2853 -0.4357
16431TIP3   OH270707   4.725   0.348   3.632 -0.0632 -0.0347 -0.0748
16431TIP3    H170708   4.797   0.314   3.578  0.3690 -0.1286  0.5477
16431TIP3    H270709   4.713   0.282   3.700 -0.2984  0.2971  0.2089
16432TIP3   OH270710   3.980   5.878   4.779  0.6102 -0.0321 -0.0224
16432TIP3    H170711   3.969   5.789   4.746  0.7130 -1.6258  3.7185
16432TIP3    H270712   4.050   5.870   4.844 -0.1531  2.5382  1.2270
16433TIP3   OH270713   1.714   1.857   2.648 -0.1701 -0.3040  0.5563
16433TIP3    H170714   1.703   1.768   2.615  1.8594 -0.1802 -0.6130
16433TIP3    H270715   1.738   1.846   2.740 -0.8522 -0.8977  0.6727
16434TIP3   OH270716   4.525   0.135  14.647  0.2667 -0.7270 -0.6949
16434TIP3    H170717   4.603   0.183  14.619  0.4430 -0.7493 -0.2385
16434TIP3    H270718   4.476   0.198  14.700 -1.2868  0.1407 -3.0114
16435TIP3   OH270719   1.076   2.834  15.932 -0.3232  0.7037  0.1902
16435TIP3    H170720   1.071   2.916  15.883  1.0928  1.1385  0.7059
16435TIP3    H270721   0.985   2.810  15.949 -0.8308  0.9171 -1.9893
16436TIP3   OH270722   0.254   1.421  15.489 -0.1280  0.3085  0.5576
16436TIP3    H170723   0.188   1.378  15.435 -0.0752 -1.2769  1.6833
16436TIP3    H270724   0.270   1.505  15.446 -1.9435  0.1888 -0.4471
16437TIP3   OH270725   0.209   6.613   0.616 -0.2206 -0.2901 -0.2014
16437TIP3    H170726   0.262   6.664   0.555 -1.2020  1.0483  0.0212
16437TIP3    H270727   0.121   6.615   0.579 -0.9715  1.0548  1.5209
16438TIP3   OH270728   0.001   4.688   1.496  0.0045 -0.3692  0.2316
16438TIP3    H170729   0.071   4.701   1.432  0.2363 -0.4452  0.4705
16438TIP3    H270730  -0.071   4.742   1.463 -0.0914 -0.8740 -0.4195
16439TIP3   OH270731   3.408   6.374  10.517 -0.8462 -0.7060 -0.0821
16439TIP3    H170732   3.419   6.407  10.428  1.5877 -0.9548  0.0601
16439TIP3    H270733   3.444   6.285  10.514 -1.6437 -1.0917  0.9513
16440TIP3   OH270734   5.240   5.393   0.583  0.7306  0.1785 -0.3455
16440TIP3    H170735   5.286   5.411   0.665  1.3371  0.5835 -0.7631
16440TIP3    H270736   5.267   5.464   0.524 -1.4375  1.1847 -0.2288
16441TIP3   OH270737   6.040   3.719  16.905  0.2974  0.4930  0.4360
16441TIP3    H170738   5.990   3.648  16.947  0.6434  0.0703  0.1345
16441TIP3    H270739   6.022   3.796  16.960 -2.5319  0.9267 -0.9200
16442TIP3   OH270740   2.597   2.728  15.468  0.0910 -0.0496 -0.6137
16442TIP3    H170741   2.537   2.694  15.535 -0.2890  0.5698 -0.6391
16442TIP3    H270742   2.571   2.684  15.387  0.3945 -0.6159 -0.4158
16443TIP3   OH270743   5.199   1.608   1.877 -0.2996  0.3396  0.3702
16443TIP3    H170744   5.267   1.653   1.928  0.0317  0.5760 -0.2751
16443TIP3    H270745   5.163   1.675   1.820  0.6911 -0.3400 -1.1210
16444TIP3   OH270746   6.301   2.494   1.982  0.2512 -0.1747  0.3867
16444TIP3    H170747   6.303   2.435   1.907  0.3848  0.0272  0.2297
16444TIP3    H270748   6.319   2.580   1.945  1.1383 -0.1866  0.7518
16445TIP3   OH270749   2.687   4.760   4.355  0.3153 -0.1961 -0.2194
16445TIP3    H170750   2.637   4.683   4.382  0.7165 -0.7185 -0.9265
16445TIP3    H270751   2.660   4.828   4.416  0.5634 -1.1071  0.9550
16446TIP3   OH270752   4.672   2.952   5.487  0.4235  0.0743 -0.1081
16446TIP3    H170753   4.642   3.017   5.550 -1.0295 -1.0561  0.4361
16446TIP3    H270754   4.615   2.877   5.502 -0.8234  0.1797 -3.6073
16447TIP3   OH270755   2.949   1.535  15.932 -0.1759  1.0510  0.2726
16447TIP3    H170756   2.957   1.466  15.998  0.7222  0.7339 -0.1532
16447TIP3    H270757   2.897   1.603  15.975 -0.0508  0.6278  1.1202
16448TIP3   OH270758   1.411   4.228  11.217  0.4096  0.4138 -0.0028
16448TIP3    H170759   1.467   4.277  11.157  1.1322 -0.0287  0.3072
16448TIP3    H270760   1.323   4.262  11.199  0.6851  0.6973 -0.9075
16449TIP3   OH270761   5.416   1.214   2.006  0.1356  0.5455 -0.0546
16449TIP3    H170762   5.328   1.193   2.037 -0.2198  2.8076  0.6905
16449TIP3    H270763   5.466   1.233   2.086  0.5480  1.7679 -0.5716
16450TIP3   OH270764   0.932   3.889   0.317  0.5805  0.6073 -0.0293
16450TIP3    H170765   0.892   3.969   0.351  1.9131  1.5956 -0.6794
16450TIP3    H270766   1.026   3.901   0.333  1.0028  0.0717 -1.9062
16451TIP3   OH270767   6.149   3.631  15.266 -0.1245 -0.2136  0.2648
16451TIP3    H170768   6.170   3.689  15.339 -1.1999  0.0330  0.3836
16451TIP3    H270769   6.100   3.686  15.205 -1.9751 -1.2192  0.7957
16452TIP3   OH270770   5.556   1.408   1.084 -0.2720 -0.2806 -0.3578
16452TIP3    H170771   5.594   1.427   1.170  2.7709  0.6528 -1.7572
16452TIP3    H270772   5.484   1.349   1.102 -1.3815  1.7963  3.0479
16453TIP3   OH270773   0.568   2.251  14.631  0.0183  0.4208 -0.1635
16453TIP3    H170774   0.619   2.320  14.588  0.4144  0.4567  0.3392
16453TIP3    H270775   0.491   2.239  14.576  0.1698  0.9505 -0.4995
16454TIP3   OH270776   1.792   3.387  11.542  0.7260  0.0442  0.0996
16454TIP3    H170777   1.859   3.356  11.481  1.3442  2.8144 -0.7423
16454TIP3    H270778   1.838   3.398  11.625  1.2407  1.5369 -0.3700
16455TIP3   OH270779   5.577   3.920  15.473  0.0330  0.3396 -0.0211
16455TIP3    H170780   5.620   3.950  15.553 -0.5526  1.5725 -0.1450
16455TIP3    H270781   5.600   3.986  15.407 -0.1753 -0.2156 -0.6637
16456TIP3   OH270782   3.069   4.185   0.622  0.1400  0.2027 -0.7138
16456TIP3    H170783   3.012   4.131   0.567  1.7993  0.0689 -2.3924
16456TIP3    H270784   3.152   4.137   0.626  0.8223  1.3837 -0.1008
16457TIP3   OH270785   4.436   4.470  13.188  0.2698  0.6729  0.2952
16457TIP3    H170786   4.403   4.552  13.225 -0.2414 -0.0119  1.3688
16457TIP3    H270787   4.375   4.450  13.117  0.5505  1.3523 -0.1483
16458TIP3   OH270788   2.920   5.846   4.233 -0.4281 -0.3259 -0.6312
16458TIP3    H170789   2.998   5.793   4.222 -0.3923 -0.7813  1.3781
16458TIP3    H270790   2.853   5.784   4.264  0.5195  1.0374  5.3410
16459TIP3   OH270791   0.745   4.399   0.142 -0.3319  0.6418 -0.1480
16459TIP3    H170792   0.665   4.408   0.194 -0.1996 -1.3081  0.4531
16459TIP3    H270793   0.757   4.305   0.131  0.8697  0.9320 -1.8545
16460TIP3   OH270794   0.310   0.524   1.796  0.6585  0.2001  0.2444
16460TIP3    H170795   0.239   0.554   1.739  2.0604  1.3734 -0.9672
16460TIP3    H270796   0.277   0.443   1.835 -1.6960  1.1861  0.4704
16461TIP3   OH270797   6.265   1.047  14.072 -0.0905 -0.2398  0.0256
16461TIP3    H170798   6.286   1.020  14.162  0.5914  0.9413  0.2413
16461TIP3    H270799   6.170   1.062  14.074  0.0464  0.6099  0.7883
16462TIP3   OH270800   0.927   0.384  17.312  0.0018  0.6154 -0.6231
16462TIP3    H170801   0.886   0.471  17.304 -1.5408 -0.2123 -2.9318
16462TIP3    H270802   0.932   0.369  17.406 -2.7503  1.9063 -0.1477
16463TIP3   OH270803   0.424   2.998  12.246 -0.1764  0.3216  0.1714
16463TIP3    H170804   0.511   3.036  12.239 -0.7098  1.4107 -0.8184
16463TIP3    H270805   0.387   3.037  12.325  0.0870  0.1473  0.3824
16464TIP3   OH270806   4.411   2.637  13.947  0.1492 -0.5787 -1.0548
16464TIP3    H170807   4.450   2.713  13.904  1.9000 -0.1661  1.0913
16464TIP3    H270808   4.358   2.675  14.019 -0.0834 -1.3406 -0.8167
16465TIP3   OH270809   1.211   5.203   4.415 -0.0173 -0.3050  0.4182
16465TIP3    H170810   1.179   5.265   4.350  0.4603 -0.8603 -0.3509
16465TIP3    H270811   1.135   5.184   4.470 -0.3538  0.3602  0.1885
16466TIP3   OH270812   5.406   2.567  10.929 -0.2002  0.4753 -0.0759
16466TIP3    H170813   5.368   2.479  10.934  0.5295  0.1092 -0.7277
16466TIP3    H270814   5.377   2.601  10.844 -1.6489  1.4406  0.7637
16467TIP3   OH270815   6.687   2.103  13.375 -0.3732 -0.2143 -0.2700
16467TIP3    H170816   6.781   2.103  13.397 -0.4338  1.8403  0.2475
16467TIP3    H270817   6.649   2.036  13.431  0.7435 -0.9093 -0.3055
16468TIP3   OH270818   4.803   0.215   4.779  0.1671  0.7060  0.1068
16468TIP3    H170819   4.817   0.221   4.684 -1.4049  0.0012 -0.2038
16468TIP3    H270820   4.830   0.127   4.802 -0.1561  0.6235  0.1753
16469TIP3   OH270821   4.136   0.221   1.958  0.1022  0.7811 -0.2820
16469TIP3    H170822   4.230   0.207   1.962  0.1563  0.9977 -0.7131
16469TIP3    H270823   4.119   0.290   2.022  0.2204  0.6826 -0.1418
16470TIP3   OH270824   5.859   2.585   2.567 -0.5384 -0.2640  0.0184
16470TIP3    H170825   5.801   2.618   2.636 -0.4415 -1.7191  0.8427
16470TIP3    H270826   5.870   2.659   2.508  0.0960  1.3518  2.0231
16471TIP3   OH270827   0.484   2.320   4.887  0.6634 -0.7824  0.1814
16471TIP3    H170828   0.420   2.255   4.917 -0.1382  0.0713  0.3650
16471TIP3    H270829   0.432   2.388   4.845  1.4261  0.0371  0.5254
16472TIP3   OH270830   0.009   1.070  15.525  0.2025 -0.3924 -0.4753
16472TIP3    H170831  -0.055   1.041  15.590 -1.4842 -0.0220 -1.9043
16472TIP3    H270832   0.005   1.004  15.456  1.6674 -0.5609 -0.4278
16473TIP3   OH270833   5.675   3.029  16.095  0.6568  0.1562 -0.4081
16473TIP3    H170834   5.738   3.095  16.123  0.6134  0.0516 -0.0547
16473TIP3    H270835   5.673   3.036  15.999  1.1908  0.1683 -0.4204
16474TIP3   OH270836   2.990   0.798   2.200  0.0474 -0.0964  0.3098
16474TIP3    H170837   2.980   0.831   2.111  1.6720  1.1446  0.5455
16474TIP3    H270838   3.050   0.724   2.192  0.9338  0.5935  0.4672
16475TIP3   OH270839   6.703   1.829  15.725 -0.2353 -0.3550  0.0594
16475TIP3    H170840   6.618   1.863  15.752  0.7329  0.0793  3.0173
16475TIP3    H270841   6.705   1.740  15.761  0.8474 -0.0335  0.8698
16476TIP3   OH270842   1.462   5.611  15.021 -0.0347 -0.2731  0.0749
16476TIP3    H170843   1.413   5.584  15.099 -2.3191  1.3695 -0.6655
16476TIP3    H270844   1.473   5.705  15.032 -0.6066  0.0204 -1.6440
16477TIP3   OH270845   6.486   6.016  14.864 -0.2231  0.2225 -0.0004
16477TIP3    H170846   6.511   6.100  14.904 -0.9701  0.0124  0.9639
16477TIP3    H270847   6.530   5.950  14.918  1.2855 -0.0103 -1.4347
16478TIP3   OH270848   5.887   3.156  14.287 -0.0825  0.4549  0.0601
16478TIP3    H170849   5.848   3.223  14.343 -0.5588 -1.1935  1.8022
16478TIP3    H270850   5.814   3.121  14.236 -0.6993 -1.4437  2.0834
16479TIP3   OH270851   5.520   3.095  15.452 -0.0068  0.4386 -0.1461
16479TIP3    H170852   5.490   3.167  15.396  1.8986  0.2831 -1.4584
16479TIP3    H270853   5.486   3.117  15.539 -1.2887  1.7838 -0.9245
16480TIP3   OH270854   6.137   1.131  16.232 -0.5256 -0.5313  0.2832
16480TIP3    H170855   6.170   1.057  16.282  0.5691  0.5083  1.1822
16480TIP3    H270856   6.117   1.198  16.297 -0.2865  0.4042 -0.5580
16481TIP3   OH270857   4.530   6.068   2.396  0.1636  0.1923  0.2769
16481TIP3    H170858   4.505   5.977   2.411 -0.7965  0.2066 -0.9889
16481TIP3    H270859   4.453   6.119   2.424 -0.3338  0.4133 -1.3771
16482TIP3   OH270860   3.506   4.413   4.558 -0.7058 -0.0904  0.3860
16482TIP3    H170861   3.552   4.484   4.602 -0.2532 -0.1287 -0.0168
16482TIP3    H270862   3.422   4.452   4.533  0.1503  0.8407 -1.2704
16483TIP3   OH270863   0.285   2.754   3.385  0.1438 -0.0101  0.1578
16483TIP3    H170864   0.274   2.819   3.455 -0.4632 -0.0638  0.1139
16483TIP3    H270865   0.292   2.805   3.305 -0.8508 -0.0151  0.0621
16484TIP3   OH270866   6.258   1.403   2.238 -0.3401 -0.0198 -0.2882
16484TIP3    H170867   6.285   1.311   2.231 -1.0130 -0.4400  1.9528
16484TIP3    H270868   6.304   1.435   2.315 -0.3413  1.4628 -0.8802
16485TIP3   OH270869   5.396   3.531  13.482 -0.8974  0.0491  0.9775
16485TIP3    H170870   5.343   3.484  13.547  0.2174 -2.7556  0.0208
16485TIP3    H270871   5.484   3.494  13.493 -0.3161  0.7496 -0.9666
16486TIP3   OH270872   1.131   1.714  16.970  0.4345 -0.6090 -0.1794
16486TIP3    H170873   1.185   1.746  16.898  1.3402  0.4995  0.9571
16486TIP3    H270874   1.080   1.790  16.998  0.4023 -0.9214  0.6283
16487TIP3   OH270875   3.167   4.244  11.177  0.1791  0.1795 -0.4608
16487TIP3    H170876   3.163   4.334  11.210  2.4305  0.1202  0.1494
16487TIP3    H270877   3.182   4.254  11.083 -2.3829  0.3689 -0.9162
16488TIP3   OH270878   3.382   6.769  15.535 -0.2795 -0.1584 -0.0674
16488TIP3    H170879   3.455   6.744  15.592 -0.5930 -1.4708 -0.1997
16488TIP3    H270880   3.411   6.849  15.492  0.1116  0.6899  1.6618
16489TIP3   OH270881   2.388   3.687  13.628 -0.4513  0.8203  0.4198
16489TIP3    H170882   2.438   3.674  13.708  3.0113  1.2964 -1.4605
16489TIP3    H270883   2.343   3.603  13.615  0.7157 -0.0730  1.7192
16490TIP3   OH270884   5.820   4.991   0.455  0.2022  0.1873 -0.9744
16490TIP3    H170885   5.752   4.992   0.523 -1.1855  0.2028 -2.3049
16490TIP3    H270886   5.902   4.997   0.503 -0.7165 -0.1520  0.7208
16491TIP3   OH270887   5.815   1.038  13.453  0.1416  0.1793  0.1263
16491TIP3    H170888   5.872   1.110  13.428 -0.2047  0.0946 -0.9690
16491TIP3    H270889   5.859   0.959  13.420  0.0036 -0.0064  0.3816
16492TIP3   OH270890   0.250   0.250  15.440 -0.1481 -0.6501  0.6295
16492TIP3    H170891   0.191   0.232  15.513  0.3946 -0.9172  1.0061
16492TIP3    H270892   0.201   0.223  15.363 -0.9417  0.1213  0.8333
16493TIP3   OH270893   4.876   3.248  11.643 -0.4359 -0.2296  0.2452
16493TIP3    H170894   4.809   3.313  11.623  0.0067 -0.3587 -1.9067
16493TIP3    H270895   4.840   3.197  11.716 -2.3664  0.1112 -0.4211
16494TIP3   OH270896   5.797   3.093   3.610  0.1801  0.5566 -0.0910
16494TIP3    H170897   5.758   3.068   3.526 -0.1480  3.9115 -1.0879
16494TIP3    H270898   5.758   3.033   3.673 -1.5358 -0.4506 -1.9977
16495TIP3   OH270899   5.815   5.837   4.574 -0.1928 -0.0406 -0.6269
16495TIP3    H170900   5.776   5.781   4.641 -0.1590  0.3883 -0.2490
16495TIP3    H270901   5.777   5.924   4.589  1.7575  0.6852  0.5120
16496TIP3   OH270902   3.744   1.597  13.725  0.0229 -0.6173  0.4086
16496TIP3    H170903   3.725   1.556  13.810  0.1856 -1.3752  0.0927
16496TIP3    H270904   3.690   1.548  13.663  1.0185 -1.0696 -0.1310
16497TIP3   OH270905   5.218   2.156  13.821 -0.2066 -0.1818 -0.0439
16497TIP3    H170906   5.134   2.194  13.797 -0.0345  1.1414  1.2725
16497TIP3    H270907   5.206   2.062  13.809 -1.2329  0.1082 -1.7053
16498TIP3   OH270908   1.879   2.986  13.375 -0.0053  0.7205  0.4787
16498TIP3    H170909   1.971   3.004  13.355  0.1514 -0.4180  0.1061
16498TIP3    H270910   1.867   2.893  13.354 -0.7422  0.3368  2.4173
16499TIP3   OH270911   0.346   1.865   4.510 -0.5080 -1.2967 -0.0734
16499TIP3    H170912   0.324   1.813   4.434 -1.0376 -0.3861 -0.5577
16499TIP3    H270913   0.274   1.927   4.519 -0.2189 -1.0760  0.8804
16500TIP3   OH270914   3.768   1.917   6.681  0.0459 -0.0400  0.5588
16500TIP3    H170915   3.856   1.884   6.660  0.3537  0.5948  0.8278
16500TIP3    H270916   3.755   1.990   6.620 -0.4025 -0.2974  0.3443
16501TIP3   OH270917   5.223   5.733  16.126 -0.4389 -0.2214  0.1895
16501TIP3    H170918   5.293   5.773  16.178  0.3310 -1.4477  0.1227
16501TIP3    H270919   5.244   5.755  16.035 -0.2916 -0.3710  0.1882
16502TIP3   OH270920   3.980   5.611   4.754 -0.4485  0.3115 -0.5984
16502TIP3    H170921   4.067   5.596   4.793 -0.2768  0.0161 -1.0860
16502TIP3    H270922   3.956   5.527   4.716 -0.9663  0.3873 -0.4464
16503TIP3   OH270923   6.543   6.472   4.030  0.4458 -0.2101 -0.4272
16503TIP3    H170924   6.470   6.532   4.019  0.2740 -0.2581  0.3875
16503TIP3    H270925   6.591   6.476   3.947 -0.1452  0.2656 -0.7484
16504TIP3   OH270926   2.801   0.297  14.344 -0.3217 -0.3984 -0.1053
16504TIP3    H170927   2.715   0.258  14.328 -1.3819  0.8274  2.1337
16504TIP3    H270928   2.782   0.389  14.364  1.4484 -0.2179  0.9657
16505TIP3   OH270929   0.479   1.857  10.974 -0.3577 -0.0028  0.3497
16505TIP3    H170930   0.547   1.906  10.928  1.0420 -0.3385  1.9810
16505TIP3    H270931   0.484   1.888  11.064  0.5808 -3.0381  1.4487
16506TIP3   OH270932   1.834   3.569   1.346 -0.5836 -0.0302  0.1531
16506TIP3    H170933   1.743   3.540   1.351 -0.0363 -1.7042  1.2160
16506TIP3    H270934   1.856   3.562   1.253 -1.1818 -0.8263  0.0578
16507TIP3   OH270935   2.514   4.278  16.148  0.6769 -0.2266  0.0923
16507TIP3    H170936   2.432   4.308  16.187  1.2989  0.3173  1.0184
16507TIP3    H270937   2.547   4.355  16.102  0.5843 -0.5032 -0.4494
16508TIP3   OH270938   0.461   5.475   6.150  0.0474  0.3086  0.3156
16508TIP3    H170939   0.479   5.542   6.216  0.0352 -0.2428  0.8943
16508TIP3    H270940   0.433   5.523   6.072  3.4268  1.2318 -0.4928
16509TIP3   OH270941   1.473   3.781   2.281 -0.5786  0.5551 -0.1891
16509TIP3    H170942   1.554   3.831   2.287 -0.8836  1.2257 -1.2800
16509TIP3    H270943   1.428   3.797   2.364  0.4369  0.0868  0.4712
16510TIP3   OH270944   0.964   5.000  14.894  0.4875  0.3081  0.3977
16510TIP3    H170945   0.998   5.069  14.838 -0.6579  0.4065 -0.2055
16510TIP3    H270946   0.909   4.947  14.837 -2.4052  1.6111  1.7727
16511TIP3   OH270947   0.597   2.703   0.246 -0.0286 -0.3999  0.0213
16511TIP3    H170948   0.587   2.634   0.311  1.0825 -0.5783  0.0178
16511TIP3    H270949   0.592   2.658   0.162  2.2396 -0.7600  0.0159
16512TIP3   OH270950   2.782   6.248  11.727  0.0421  0.1412 -0.1653
16512TIP3    H170951   2.778   6.172  11.786 -1.8435 -0.0951 -0.5416
16512TIP3    H270952   2.693   6.282  11.725  0.6241  1.7308 -0.8751
16513TIP3   OH270953   0.666   4.270  13.232 -0.5177  0.7236 -0.3294
16513TIP3    H170954   0.719   4.261  13.152  2.0836 -0.4814  1.3960
16513TIP3    H270955   0.675   4.361  13.257 -0.0960  0.7653 -0.6219
16514TIP3   OH270956   5.058   1.435   3.792 -0.2685 -0.7049  0.0517
16514TIP3    H170957   5.050   1.520   3.835 -0.5442 -0.7829  0.1592
16514TIP3    H270958   4.969   1.401   3.790 -0.1755 -0.9433 -0.0912
16515TIP3   OH270959   3.530   5.578  17.153  0.3099 -0.5489 -0.5974
16515TIP3    H170960   3.446   5.535  17.170 -1.7486  2.8587 -1.1649
16515TIP3    H270961   3.541   5.575  17.058 -2.7973  4.4951 -1.5056
16516TIP3   OH270962   3.158   0.439  16.951 -0.0714  0.2333 -0.8972
16516TIP3    H170963   3.079   0.385  16.959  0.5106 -0.7190 -1.4419
16516TIP3    H270964   3.140   0.498  16.878 -0.0106 -0.4647 -1.4845
16517TIP3   OH270965   3.725   6.048   1.551 -0.6003 -0.0822  0.8548
16517TIP3    H170966   3.774   5.984   1.499  1.2787  1.7973  0.1584
16517TIP3    H270967   3.650   5.999   1.586  0.1639 -2.3540 -0.4960
16518TIP3   OH270968   3.744   2.804   3.410 -0.5259 -0.5596 -0.4184
16518TIP3    H170969   3.808   2.742   3.376  1.3327 -0.2992  2.2422
16518TIP3    H270970   3.721   2.769   3.496 -1.5278  1.0166 -0.0009
16519TIP3   OH270971   4.888   5.168   2.822  0.1441  0.0121 -0.3295
16519TIP3    H170972   4.819   5.101   2.824  0.8705 -0.7380  0.2064
16519TIP3    H270973   4.860   5.229   2.754 -0.3360 -1.0674 -1.1248
16520TIP3   OH270974   5.025   3.241  16.927 -0.3000 -0.2013 -0.0122
16520TIP3    H170975   5.014   3.323  16.976  2.2635 -0.8513  1.8298
16520TIP3    H270976   4.987   3.174  16.983 -0.0610 -0.5919 -0.3133
16521TIP3   OH270977   5.132   5.430  12.346  0.0551  0.3529 -0.1091
16521TIP3    H170978   5.063   5.468  12.401 -0.4635 -1.4322  0.5528
16521TIP3    H270979   5.096   5.346  12.316  1.6897 -0.3411 -0.2589
16522TIP3   OH270980   5.437   2.596  11.957  0.2950  0.2429  0.2000
16522TIP3    H170981   5.500   2.524  11.957  0.2006  0.1593 -0.2331
16522TIP3    H270982   5.435   2.626  12.048  0.0535 -0.5389  0.4521
16523TIP3   OH270983   6.563   6.774  15.270  0.3542  0.2012  0.1108
16523TIP3    H170984   6.562   6.824  15.189  2.1553  1.4991  0.8308
16523TIP3    H270985   6.603   6.690  15.246 -0.5509 -0.0277 -0.6368
16524TIP3   OH270986   2.327   5.896  14.061 -0.0926 -0.0172  0.0983
16524TIP3    H170987   2.315   5.952  13.985  1.7267 -1.1292 -1.0878
16524TIP3    H270988   2.414   5.917  14.093  0.8192 -2.3484 -0.6344
16525TIP3   OH270989   1.541   0.775   4.802 -0.7027 -0.1859  0.1211
16525TIP3    H170990   1.561   0.816   4.886  0.6433  1.2391 -0.8477
16525TIP3    H270991   1.616   0.720   4.783 -2.1008 -2.5235  0.9784
16526TIP3   OH270992   1.522   4.108  15.344  0.3026 -0.0786  0.5344
16526TIP3    H170993   1.460   4.053  15.392  0.5680 -3.2388 -2.3119
16526TIP3    H270994   1.468   4.167  15.292 -0.3302 -1.5981 -0.5942
16527TIP3   OH270995   4.863   6.451  13.828 -0.0113  0.4433  0.6073
16527TIP3    H170996   4.807   6.465  13.904 -1.4378  0.1498 -0.3495
16527TIP3    H270997   4.803   6.426  13.758  1.2267  0.9691 -0.7002
16528TIP3   OH270998   2.722   1.628   1.016  0.1720  0.0030 -0.1894
16528TIP3    H170999   2.781   1.556   1.038  0.7209  0.0597 -1.4024
16528TIP3    H271000   2.635   1.597   1.042  0.8686  0.7407  3.6753
16529TIP3   OH271001   2.324   1.715  12.140  0.4712  0.3915  0.1652
16529TIP3    H171002   2.397   1.684  12.192  1.3595  0.0950 -1.1952
16529TIP3    H271003   2.325   1.810  12.150  0.2510  0.2978  1.1409
16530TIP3   OH271004   6.293   5.464  11.785 -0.1404  0.4186 -0.1409
16530TIP3    H171005   6.363   5.449  11.721  0.4688 -0.3551  0.6901
16530TIP3    H271006   6.267   5.555  11.771 -2.0015 -0.4477 -3.4331
16531TIP3   OH271007   0.131   3.166   5.346  0.1567  1.2025  0.6995
16531TIP3    H171008   0.103   3.236   5.405  0.0932 -0.1240  2.3064
16531TIP3    H271009   0.051   3.140   5.300 -0.5997 -0.0868  2.6123
16532TIP3   OH271010   5.296   5.077  13.083  0.1928 -0.2167  0.3585
16532TIP3    H171011   5.250   5.057  13.002 -2.2774 -1.1368  1.8779
16532TIP3    H271012   5.389   5.066  13.061 -0.4547 -1.9853 -1.9170
16533TIP3   OH271013   3.549   1.134   2.251 -0.9795  0.0844 -0.3472
16533TIP3    H171014   3.643   1.116   2.258 -0.1575  2.6070 -3.0327
16533TIP3    H271015   3.527   1.107   2.162 -2.3345  1.3655 -0.4296
16534TIP3   OH271016   0.872   4.797   3.619 -0.0846 -0.1660 -0.0114
16534TIP3    H171017   0.913   4.883   3.613 -0.5553  0.4580  3.5993
16534TIP3    H271018   0.790   4.813   3.667 -0.8283 -2.4470 -0.4182
16535TIP3   OH271019   0.652   5.838  15.531 -0.4152 -0.4930 -0.4449
16535TIP3    H171020   0.644   5.780  15.455 -1.5976 -0.7573 -0.1319
16535TIP3    H271021   0.562   5.853  15.560 -0.0585  0.5902  0.1757
16536TIP3   OH271022   6.733   4.237   1.526 -0.0865  0.2998  0.5248
16536TIP3    H171023   6.824   4.212   1.510 -0.2734  0.5599 -1.1773
16536TIP3    H271024   6.702   4.175   1.591  1.0118 -0.4650  0.3462
16537TIP3   OH271025   1.268   1.333   2.395  0.2906  0.4411 -0.2240
16537TIP3    H171026   1.297   1.400   2.457 -0.2887  0.5551 -0.0634
16537TIP3    H271027   1.339   1.325   2.332 -0.1780  2.1906 -1.0347
16538TIP3   OH271028   3.731   0.898  13.693 -0.4785 -0.4241  0.2469
16538TIP3    H171029   3.773   0.958  13.632 -1.2609  0.1512  0.2622
16538TIP3    H271030   3.771   0.813  13.675  0.2227 -0.0083 -0.1726
16539TIP3   OH271031   3.796   2.225   3.567 -0.4404 -0.8730 -0.4456
16539TIP3    H171032   3.772   2.134   3.584 -1.3470 -0.4698  0.5482
16539TIP3    H271033   3.846   2.222   3.485 -0.1314 -2.3015 -0.2354
16540TIP3   OH271034   0.363   1.073   6.019  0.5554 -0.3454 -0.3902
16540TIP3    H171035   0.276   1.096   6.051  0.2648 -0.2288 -1.2603
16540TIP3    H271036   0.360   0.978   6.006  0.0026 -0.1342 -2.0253
16541TIP3   OH271037   5.586   1.973  11.914 -0.0359  0.7254 -0.0092
16541TIP3    H171038   5.527   1.956  11.841  0.4194 -0.5137 -0.1145
16541TIP3    H271039   5.660   1.914  11.898  0.8010  1.5872  0.6051
16542TIP3   OH271040   5.501   6.541   1.498 -0.5730  0.2970  0.3345
16542TIP3    H171041   5.408   6.527   1.513 -0.4976 -0.4578  0.1141
16542TIP3    H271042   5.514   6.635   1.514 -1.5395  0.5993 -0.5346
16543TIP3   OH271043   2.990   6.513   3.108 -0.8114  0.8382  0.1379
16543TIP3    H171044   3.002   6.563   3.188  2.7078  2.7229 -1.3766
16543TIP3    H271045   3.049   6.438   3.116 -1.6969  0.0927 -0.0507
16544TIP3   OH271046   2.082   5.769   2.648 -0.3425  0.3609  0.2989
16544TIP3    H171047   2.147   5.710   2.610 -2.0734 -0.0711 -2.3084
16544TIP3    H271048   2.133   5.836   2.693  1.7352 -2.0730  1.8366
16545TIP3   OH271049   3.421   4.061   4.335  0.3102 -0.9577 -0.1592
16545TIP3    H171050   3.344   4.016   4.370  1.2353 -1.7283  0.9891
16545TIP3    H271051   3.461   3.998   4.276 -0.1586 -0.3991 -1.0873
16546TIP3   OH271052   6.756   2.542   2.868  0.1662  0.2397 -0.6058
16546TIP3    H171053   6.788   2.617   2.919  2.9668 -0.8242 -0.6415
16546TIP3    H271054   6.671   2.571   2.834  1.3895  3.6453 -1.1466
16547TIP3   OH271055   3.384   6.428   5.754 -1.0171 -0.0971  0.3163
16547TIP3    H171056   3.419   6.450   5.840  0.4906 -0.3809 -0.1759
16547TIP3    H271057   3.422   6.494   5.695 -0.7277 -0.8310 -0.3520
16548TIP3   OH271058   0.458   5.801   0.734  0.3889 -0.6983 -0.0636
16548TIP3    H171059   0.434   5.893   0.748 -0.2745 -0.5051 -2.2430
16548TIP3    H271060   0.406   5.753   0.799 -1.4356  0.2320 -0.7822
16549TIP3   OH271061   2.493   5.037   1.266  0.1199 -0.4413  0.0657
16549TIP3    H171062   2.498   5.071   1.356  0.9046  1.8573 -0.7789
16549TIP3    H271063   2.544   4.956   1.268 -0.7862 -1.0162  1.9180
16550TIP3   OH271064   1.154   5.555   3.633 -0.2322  0.5676 -0.4722
16550TIP3    H171065   1.149   5.624   3.699  0.8552  0.1529  0.0619
16550TIP3    H271066   1.097   5.486   3.667  1.8907 -0.5018  1.1256
16551TIP3   OH271067   1.810   1.880   4.344  0.3425 -0.7243 -0.1927
16551TIP3    H171068   1.780   1.873   4.253 -0.8614 -0.6314  0.1823
16551TIP3    H271069   1.733   1.856   4.396  0.8495 -0.1999  0.8102
16552TIP3   OH271070   4.715   6.569   3.385 -0.1932  0.1626 -0.6936
16552TIP3    H171071   4.732   6.553   3.478 -1.1150 -2.3585 -0.8685
16552TIP3    H271072   4.801   6.567   3.344  0.0195 -2.2246 -0.2759
16553TIP3   OH271073   0.622   1.261  13.034 -1.2894 -0.0181 -0.2849
16553TIP3    H171074   0.551   1.275  12.972 -1.2925  0.1542 -0.2418
16553TIP3    H271075   0.651   1.349  13.058 -0.4452 -0.0899 -1.0096
16554TIP3   OH271076   3.480   0.745   0.297  0.4300 -0.1484  0.4576
16554TIP3    H171077   3.436   0.702   0.371  0.9699 -1.3267  0.1219
16554TIP3    H271078   3.514   0.672   0.244  0.6457  0.6912 -0.5862
16555TIP3   OH271079   5.230   6.659  11.311  0.3801 -0.2379 -0.0256
16555TIP3    H171080   5.229   6.564  11.308 -0.1395 -0.2208 -0.5512
16555TIP3    H271081   5.162   6.686  11.249  0.7763  0.4805 -0.1609
16556TIP3   OH271082   3.605   1.245   0.847 -0.5767 -0.1485  0.1040
16556TIP3    H171083   3.614   1.272   0.756 -0.4592  2.0172  0.6932
16556TIP3    H271084   3.683   1.192   0.864  0.2579  0.8028 -0.6318
16557TIP3   OH271085   1.017   2.489  12.681 -0.1324  0.3596  0.0384
16557TIP3    H171086   0.977   2.546  12.746  0.1218  1.6537 -0.8940
16557TIP3    H271087   1.061   2.421  12.732 -0.9544  0.6360  1.1626
16558TIP3   OH271088   3.647   3.370  14.231  0.1419 -0.0195  0.4188
16558TIP3    H171089   3.615   3.387  14.142 -0.3891  0.4773  0.7042
16558TIP3    H271090   3.741   3.352  14.219  0.4081  1.5625 -0.0784
16559TIP3   OH271091   0.105   0.779   5.421  0.1733 -0.4893 -0.0355
16559TIP3    H171092   0.113   0.711   5.489  1.1127 -1.6429 -1.2525
16559TIP3    H271093   0.047   0.740   5.356  0.0947  0.2004 -0.3868
16560TIP3   OH271094   1.380   2.375   4.177  0.1360 -0.2140  0.0189
16560TIP3    H171095   1.329   2.446   4.215 -1.7150 -0.6211 -1.5457
16560TIP3    H271096   1.447   2.418   4.125 -0.1622  0.3734  0.1147
16561TIP3   OH271097   5.925   1.382  14.393 -0.4671  0.2040 -0.0759
16561TIP3    H171098   5.840   1.343  14.416 -1.7091  2.1465 -1.0260
16561TIP3    H271099   5.961   1.323  14.327 -0.0715 -1.7355  1.7804
16562TIP3   OH271100   4.703   4.735  16.276 -0.1464  0.0702 -0.1139
16562TIP3    H171101   4.733   4.824  16.259  0.0849  0.6998  2.9804
16562TIP3    H271102   4.772   4.696  16.329 -0.2727 -1.9940 -1.3666
16563TIP3   OH271103   2.781   3.487  10.919  0.2606 -0.1967  0.1684
16563TIP3    H171104   2.687   3.475  10.903  0.2594  0.7452 -0.6204
16563TIP3    H271105   2.801   3.572  10.881  1.1567  0.2498  1.5781
16564TIP3   OH271106   2.078   5.206  12.561  0.0636  0.0398  0.5736
16564TIP3    H171107   2.036   5.150  12.627  0.3628  0.3576  1.0459
16564TIP3    H271108   2.148   5.251  12.610  1.6625 -1.2603 -0.4159
16565TIP3   OH271109   5.610   5.539   5.445 -0.3766  0.5299 -0.5597
16565TIP3    H171110   5.577   5.628   5.462  0.1365  0.7298 -0.5723
16565TIP3    H271111   5.534   5.483   5.455 -0.5429  0.8831  0.2555
16566TIP3   OH271112   5.387   5.075   3.548 -0.1319  0.5145 -0.6724
16566TIP3    H171113   5.322   5.120   3.601  0.4461  0.3334  0.2145
16566TIP3    H271114   5.453   5.143   3.529  1.2144 -0.1028  1.4445
16567TIP3   OH271115   3.170   5.349   6.993  0.0264 -0.0240 -0.6459
16567TIP3    H171116   3.181   5.438   7.025  0.1308 -0.0375 -0.6431
16567TIP3    H271117   3.240   5.299   7.037 -0.4076 -0.2311 -0.1822
16568TIP3   OH271118   3.711   6.319   4.931 -0.4542  0.0653  0.2009
16568TIP3    H171119   3.626   6.286   4.904  0.0961 -0.5840 -0.8274
16568TIP3    H271120   3.769   6.296   4.859  1.0624 -1.5219  1.8181
16569TIP3   OH271121   6.041   6.162  15.314  0.0463  0.5141 -0.1723
16569TIP3    H171122   5.999   6.247  15.323 -1.6684 -0.1869 -1.0009
16569TIP3    H271123   5.972   6.099  15.334  1.1039 -0.6897 -0.1879
16570TIP3   OH271124   0.110   3.356   6.065 -0.3622 -0.2071 -0.7265
16570TIP3    H171125   0.125   3.436   6.015  0.1826  2.8179  3.7573
16570TIP3    H271126   0.017   3.359   6.089 -0.3583 -0.9891 -0.5762
16571TIP3   OH271127   5.791   1.943   4.995  0.2885 -0.3486  0.3200
16571TIP3    H171128   5.744   1.999   4.934  0.3851  0.2903  0.8228
16571TIP3    H271129   5.838   1.881   4.939  0.6317  0.4252 -0.2677
16572TIP3   OH271130   5.735   0.924   0.335 -0.6303 -0.5623  0.1431
16572TIP3    H171131   5.784   1.004   0.314 -2.0866  0.2194 -0.4973
16572TIP3    H271132   5.779   0.855   0.287  2.1870 -0.6858  2.6462
16573TIP3   OH271133   5.028   6.322   0.717 -0.0849  0.0905  0.5378
16573TIP3    H171134   5.080   6.242   0.719 -1.5871 -0.9161  1.1266
16573TIP3    H271135   5.058   6.369   0.639 -0.0768 -1.6822 -0.5730
16574TIP3   OH271136   0.746   5.452   3.323 -0.2769 -0.0721  0.5642
16574TIP3    H171137   0.837   5.471   3.346  0.7497 -1.9042 -1.5663
16574TIP3    H271138   0.722   5.378   3.378 -0.2901  0.0467  0.7195
16575TIP3   OH271139   5.844   5.347   3.621  0.4553 -0.4716  0.0502
16575TIP3    H171140   5.780   5.328   3.553 -1.1499  0.9051  1.1062
16575TIP3    H271141   5.865   5.440   3.608 -0.5631  0.0710  1.9361
16576TIP3   OH271142   0.088   0.742  12.408  0.3648  0.1618  0.3417
16576TIP3    H171143   0.135   0.660  12.424  1.5590  0.7255 -0.1052
16576TIP3    H271144   0.105   0.795  12.486  1.0584  0.6153 -0.1004
16577TIP3   OH271145   0.713   4.837   5.491  0.2750  0.0547 -0.2111
16577TIP3    H171146   0.642   4.858   5.430 -0.7052 -0.6007  0.6717
16577TIP3    H271147   0.728   4.919   5.538 -0.2883  0.0506 -0.0143
16578TIP3   OH271148   6.536   0.845  16.448 -0.1066  0.4524  0.2030
16578TIP3    H171149   6.512   0.895  16.525 -2.6850  0.3638 -0.4380
16578TIP3    H271150   6.566   0.760  16.482  1.4649  1.3344  1.1537
16579TIP3   OH271151   2.365   1.789  14.129  0.2369  0.0514 -0.1163
16579TIP3    H171152   2.409   1.874  14.123 -0.0903  0.2580  0.2773
16579TIP3    H271153   2.414   1.742  14.196  0.4111 -0.0642 -0.3262
16580TIP3   OH271154   3.847   3.009  16.134 -0.6258 -0.3108  0.0028
16580TIP3    H171155   3.868   2.971  16.049  0.8218  1.0327 -0.2838
16580TIP3    H271156   3.851   3.104  16.120 -0.9019 -0.0578  1.4367
16581TIP3   OH271157   0.636   1.955  13.427 -0.7356  0.1519 -0.8518
16581TIP3    H171158   0.566   1.919  13.371 -0.4303 -0.5189 -0.8150
16581TIP3    H271159   0.685   1.878  13.456  0.7542  0.6846 -1.8350
16582TIP3   OH271160   3.128   1.234   5.124  0.6585 -0.1189 -0.6732
16582TIP3    H171161   3.131   1.328   5.137 -0.0526 -0.1192 -0.5151
16582TIP3    H271162   3.173   1.219   5.040  1.7034  0.2529 -0.2012
16583TIP3   OH271163   4.589   2.278  13.808 -0.1054  0.2846  0.5654
16583TIP3    H171164   4.590   2.245  13.898 -1.7274 -0.5488  0.3282
16583TIP3    H271165   4.577   2.200  13.754 -1.8760  1.0024 -0.1597
16584TIP3   OH271166   2.023   5.855   2.001 -0.4198  0.0679 -0.0155
16584TIP3    H171167   2.032   5.793   2.074  0.1459 -1.2044 -1.1250
16584TIP3    H271168   2.059   5.937   2.035 -1.9145  0.0525  1.7552
16585TIP3   OH271169   1.941   0.107  15.074 -0.2900 -0.2077 -0.4712
16585TIP3    H171170   1.887   0.053  15.016 -0.2869 -0.0076 -0.6623
16585TIP3    H271171   1.971   0.179  15.019 -0.1689 -0.0926 -0.2576
16586TIP3   OH271172   6.109   4.947  15.306 -0.3924 -0.0478 -0.0066
16586TIP3    H171173   6.166   4.918  15.377  0.1472 -2.3089 -1.2564
16586TIP3    H271174   6.021   4.922  15.335 -0.6826  2.2688  1.3486
16587TIP3   OH271175   2.826   0.578  13.319 -0.1080 -0.4050 -0.0352
16587TIP3    H171176   2.781   0.527  13.252 -1.7438  0.1146  0.6234
16587TIP3    H271177   2.796   0.668  13.306  0.6300 -0.0586  0.5302
16588TIP3   OH271178   5.186   0.762   2.146  0.9058  0.3162 -0.4719
16588TIP3    H171179   5.128   0.836   2.164  1.4442  0.3622  1.1990
16588TIP3    H271180   5.273   0.801   2.138  0.9972  0.0170 -0.9830
16589TIP3   OH271181   5.015   6.610   1.704  0.2057  0.0113  0.1704
16589TIP3    H171182   4.968   6.528   1.689 -0.4760  0.1921  1.1996
16589TIP3    H271183   5.099   6.598   1.661  0.6383 -1.7591  1.4255
16590TIP3   OH271184   0.723   0.653   5.757  0.0603 -0.1124 -0.1140
16590TIP3    H171185   0.649   0.709   5.735  0.8946  1.6649  1.3415
16590TIP3    H271186   0.685   0.566   5.769 -1.1293 -0.2060 -3.5142
16591TIP3   OH271187   4.482   5.888  15.839  0.5006  0.2733 -0.6857
16591TIP3    H171188   4.551   5.826  15.815  0.3849  0.2743 -1.0149
16591TIP3    H271189   4.404   5.834  15.850  1.0762 -0.1661  2.3308
16592TIP3   OH271190   3.912   2.773   2.543 -0.2205 -0.6300 -0.4146
16592TIP3    H171191   3.972   2.726   2.601  0.2350 -1.0728 -1.2306
16592TIP3    H271192   3.829   2.726   2.551 -0.1851 -0.6394 -0.0698
16593TIP3   OH271193   6.430   6.517   2.571  0.2769  0.8069 -0.4721
16593TIP3    H171194   6.404   6.431   2.536  0.8204 -0.3812  1.8783
16593TIP3    H271195   6.507   6.541   2.520 -0.4902  0.4451 -1.8684
16594TIP3   OH271196   4.589   5.296  16.234 -0.1687  0.2062  0.4398
16594TIP3    H171197   4.648   5.359  16.191  0.3058 -0.3859  0.2079
16594TIP3    H271198   4.638   5.267  16.311  0.1017 -0.7240 -0.0637
16595TIP3   OH271199   6.297   4.242  17.166 -0.2658 -0.0206 -0.4041
16595TIP3    H171200   6.323   4.240  17.259 -0.0426 -1.8629 -0.4846
16595TIP3    H271201   6.220   4.299  17.165 -1.4018 -1.4265  1.2354
16596TIP3   OH271202   1.719   3.647   2.556 -0.2944  0.5280 -0.3883
16596TIP3    H171203   1.689   3.640   2.647 -0.0906  1.4001 -0.2443
16596TIP3    H271204   1.662   3.589   2.507  0.4285 -0.9697  0.4861
16597TIP3   OH271205   6.187   0.012  11.753  0.2172  0.0286  0.2651
16597TIP3    H171206   6.165   0.071  11.681 -2.1985 -0.8833  0.1549
16597TIP3    H271207   6.226  -0.064  11.712  1.0310  0.4774  0.1796
16598TIP3   OH271208   0.555   5.558  16.561  0.7923  0.0698 -0.1299
16598TIP3    H171209   0.501   5.504  16.618 -0.9557  0.2880 -1.4912
16598TIP3    H271210   0.535   5.648  16.587 -0.4680  0.1924 -1.4063
16599TIP3   OH271211   2.016   6.049   6.323  0.3706 -0.1127 -0.5163
16599TIP3    H171212   2.094   6.025   6.273  2.7707  2.0311  1.8255
16599TIP3    H271213   2.037   6.023   6.413 -1.0669  1.6270  0.3894
16600TIP3   OH271214   2.437   1.194  14.823  0.2749  0.4805  0.4895
16600TIP3    H171215   2.446   1.135  14.898  1.3412 -0.1664 -0.1198
16600TIP3    H271216   2.491   1.270  14.845  0.4004  0.3928  0.4883
16601TIP3   OH271217   2.271   4.910  11.956  0.0616  0.7311 -0.0820
16601TIP3    H171218   2.267   4.823  11.917 -0.5116  0.1555  1.1995
16601TIP3    H271219   2.338   4.904  12.023 -0.2542  1.1633  0.2794
16602TIP3   OH271220   3.852   2.404   0.125 -0.4433 -0.3848  0.3633
16602TIP3    H171221   3.836   2.494   0.154 -0.6697 -0.2632 -0.1190
16602TIP3    H271222   3.842   2.408   0.030  2.0432 -0.3943  0.0505
16603TIP3   OH271223   1.861   0.743  16.631  0.3005  1.2480  0.6351
16603TIP3    H171224   1.840   0.800  16.557 -2.2939 -1.1283 -0.6665
16603TIP3    H271225   1.793   0.763  16.696 -1.1635 -0.7444 -0.1705
16604TIP3   OH271226   2.203   0.789   2.888  0.3683  0.2389  0.3778
16604TIP3    H171227   2.265   0.812   2.818 -0.6565 -0.0052 -0.6513
16604TIP3    H271228   2.221   0.697   2.907 -0.2730 -0.1063 -0.5908
16605TIP3   OH271229   0.975   2.742   5.184 -0.0767 -0.4670  0.3881
16605TIP3    H171230   0.982   2.833   5.213 -0.9388 -0.1544 -0.3410
16605TIP3    H271231   0.896   2.740   5.130 -0.5765 -1.8462  1.1191
16606TIP3   OH271232   5.581   2.699   3.009 -0.3823 -0.1229 -0.2585
16606TIP3    H171233   5.633   2.700   3.089 -0.7484  0.8352 -0.0215
16606TIP3    H271234   5.551   2.608   3.001  0.3850 -0.4279  0.2046
16607TIP3   OH271235   4.346   4.977  15.834 -0.0331  0.4676 -0.2070
16607TIP3    H171236   4.393   5.010  15.911  0.2558 -0.1306 -0.1214
16607TIP3    H271237   4.416   4.958  15.771 -0.1527 -0.4975 -0.0534
16608TIP3   OH271238   2.145   3.583   2.324 -0.5952  0.4880  0.5013
16608TIP3    H171239   2.219   3.608   2.268  0.2146  0.6774  1.6124
16608TIP3    H271240   2.106   3.667   2.351 -2.3789  0.3771 -1.5173
16609TIP3   OH271241   1.098   4.015   2.522 -0.6229 -0.1287  0.5327
16609TIP3    H171242   1.020   4.056   2.485 -1.0376 -1.7332 -0.4878
16609TIP3    H271243   1.071   3.989   2.611 -0.4690  1.3984  1.0507
16610TIP3   OH271244   5.572   1.769  16.931 -0.0170  0.2366 -0.5971
16610TIP3    H171245   5.552   1.688  16.978 -0.0856  2.0003  2.6771
16610TIP3    H271246   5.659   1.794  16.960 -0.5692  2.0631 -0.3583
16611TIP3   OH271247   6.315   2.432  13.759  0.0190  0.3265 -0.2565
16611TIP3    H171248   6.406   2.407  13.739  0.2811  1.6059 -0.7772
16611TIP3    H271249   6.322   2.493  13.832 -0.2966  1.3658 -1.0702
16612TIP3   OH271250   5.272   3.356  12.605 -0.2125  0.5715  0.7634
16612TIP3    H171251   5.309   3.440  12.631  3.8216 -0.5067 -0.7325
16612TIP3    H271252   5.185   3.377  12.571  0.3439  3.9677  1.1307
16613TIP3   OH271253   6.315   3.999  15.668  0.1121  0.1073  0.9830
16613TIP3    H171254   6.317   4.093  15.685 -0.0870 -0.0515  1.9536
16613TIP3    H271255   6.407   3.974  15.660  0.1753  0.3512  0.9505
16614TIP3   OH271256   0.846   5.674  14.472  0.3981 -0.5561  0.1052
16614TIP3    H171257   0.813   5.642  14.388  0.7157  1.4149 -0.8079
16614TIP3    H271258   0.940   5.685  14.458  0.3936  0.1235  0.6028
16615TIP3   OH271259   3.591   5.092   3.372  0.0006 -0.7492 -0.0465
16615TIP3    H171260   3.542   5.133   3.444 -0.0512 -1.7528  0.5079
16615TIP3    H271261   3.525   5.078   3.304 -0.2153 -0.8988  0.1895
16616TIP3   OH271262   6.351   6.626  13.901  0.0670  0.3488 -0.2546
16616TIP3    H171263   6.290   6.693  13.931 -1.4072 -0.1112 -2.0316
16616TIP3    H271264   6.329   6.548  13.952 -0.6105  0.2760 -0.6579
16617TIP3   OH271265   2.876   1.674  15.023 -0.2413 -0.0181 -0.3579
16617TIP3    H171266   2.887   1.768  15.011 -1.5650  0.0487 -1.2704
16617TIP3    H271267   2.792   1.664  15.067 -0.4301 -0.7924 -0.8695
16618TIP3   OH271268   0.528   6.051  17.081 -0.1465  0.0903  0.0817
16618TIP3    H171269   0.557   5.984  17.143  0.5862  1.2690  1.0682
16618TIP3    H271270   0.498   6.124  17.136  1.1747  1.4546 -0.9032
16619TIP3   OH271271   0.736   6.367  14.207  0.0150 -0.2716 -0.5350
16619TIP3    H171272   0.717   6.369  14.113  0.7352 -0.6275 -0.6946
16619TIP3    H271273   0.831   6.371  14.213 -0.0665  2.8227  0.3121
16620TIP3   OH271274   4.317   5.245   4.819 -0.6610 -0.1639 -0.1641
16620TIP3    H171275   4.273   5.185   4.760 -0.7595 -0.2036 -0.0507
16620TIP3    H271276   4.287   5.220   4.907 -0.3649 -0.2314 -0.0807
16621TIP3   OH271277   3.179   4.691   1.753  0.6820 -0.9454 -0.1667
16621TIP3    H171278   3.261   4.710   1.709  0.9842  0.3504  0.9005
16621TIP3    H271279   3.185   4.598   1.777  0.5869 -1.6635 -2.5707
16622TIP3   OH271280   6.411   1.282  13.015 -0.1798 -0.0133  0.5784
16622TIP3    H171281   6.498   1.245  13.001 -0.8032 -0.9708 -1.1135
16622TIP3    H271282   6.381   1.305  12.927 -0.7051  2.5583  1.3565
16623TIP3   OH271283   1.749   1.367   1.350 -0.4580  0.4953 -0.3249
16623TIP3    H171284   1.826   1.329   1.392 -0.2258  0.3436 -0.8780
16623TIP3    H271285   1.770   1.461   1.344 -0.2529  0.4331 -0.6045
16624TIP3   OH271286   3.787   2.183  14.624  0.2394  0.4021  0.1876
16624TIP3    H171287   3.769   2.143  14.709 -0.1033 -0.9044 -0.4766
16624TIP3    H271288   3.877   2.158  14.605 -0.3289 -1.0523 -0.7332
16625TIP3   OH271289   2.117   2.491   0.574 -0.3826 -0.3492 -0.0123
16625TIP3    H171290   2.063   2.450   0.506 -2.5616  0.3359  1.2337
16625TIP3    H271291   2.110   2.432   0.649  0.0210  0.1187  0.3987
16626TIP3   OH271292   2.629   5.524  14.483 -0.0282 -0.3602  0.6331
16626TIP3    H171293   2.633   5.616  14.508 -1.1371 -0.3626  0.8683
16626TIP3    H271294   2.541   5.512  14.448  0.6375 -0.9594 -0.9377
16627TIP3   OH271295   4.320   6.189  12.712 -0.0323 -0.0292  0.1277
16627TIP3    H171296   4.356   6.116  12.764 -1.8250 -1.0484  0.0062
16627TIP3    H271297   4.365   6.182  12.628  0.4390 -0.4635  0.4040
16628TIP3   OH271298   5.147   2.745  11.056  0.3114 -0.0806 -0.2833
16628TIP3    H171299   5.229   2.768  11.100 -0.2137  0.8939  0.1950
16628TIP3    H271300   5.164   2.658  11.019  1.2672 -0.2677  0.5523
16629TIP3   OH271301   6.349   6.549   1.667 -0.0793 -0.5500  0.0711
16629TIP3    H171302   6.406   6.475   1.689 -0.2718 -0.5498  0.5854
16629TIP3    H271303   6.288   6.513   1.603  1.2225 -0.2408 -1.4119
16630TIP3   OH271304   0.640   3.562  11.360 -0.3422 -0.8464 -0.2239
16630TIP3    H171305   0.679   3.636  11.408 -0.1641 -0.5189 -0.8697
16630TIP3    H271306   0.654   3.583  11.268  0.2534 -1.9923 -0.4039
16631TIP3   OH271307   4.279   3.411  11.583  0.1465 -0.1660  0.0595
16631TIP3    H171308   4.257   3.456  11.664 -2.4175 -2.5483  0.8515
16631TIP3    H271309   4.316   3.328  11.611 -1.0127 -1.1375 -1.1419
16632TIP3   OH271310   4.243   2.707  15.715 -0.1217 -0.1399 -0.7880
16632TIP3    H171311   4.274   2.663  15.635  1.4075  0.6784 -0.6856
16632TIP3    H271312   4.172   2.764  15.684 -0.6517 -1.0332 -1.2745
16633TIP3   OH271313   5.464   0.627  15.980  0.4919  0.3522  0.0644
16633TIP3    H171314   5.533   0.688  15.955  0.2224 -0.2336 -2.3311
16633TIP3    H271315   5.450   0.573  15.902 -2.8293  0.6228  0.3096
16634TIP3   OH271316   2.607   1.567   5.821  0.6225  0.0103 -0.1101
16634TIP3    H171317   2.560   1.632   5.873  1.1821  0.1114  0.2895
16634TIP3    H271318   2.540   1.507   5.790  0.4611 -1.3940  2.6150
16635TIP3   OH271319   6.023   2.021   0.513 -0.2174 -0.9142  0.1204
16635TIP3    H171320   6.042   2.107   0.552 -1.5761 -1.0093  1.0793
16635TIP3    H271321   6.095   1.965   0.542  0.9699 -0.0144 -0.9408
16636TIP3   OH271322   4.553   3.549  13.506 -0.1257 -0.0475  0.1181
16636TIP3    H171323   4.505   3.559  13.424 -0.6118 -3.1941 -0.1009
16636TIP3    H271324   4.508   3.607  13.568 -1.6469  0.1248 -1.0960
16637TIP3   OH271325   4.231   5.844  13.869 -0.5686  0.3444  0.0515
16637TIP3    H171326   4.247   5.808  13.956  0.0232 -1.4677 -0.7483
16637TIP3    H271327   4.170   5.782  13.829  0.3970  0.2339 -1.3452
16638TIP3   OH271328   3.828   4.418   1.400  0.6707 -0.2548 -0.1540
16638TIP3    H171329   3.854   4.426   1.308  0.2624  1.3129 -0.1701
16638TIP3    H271330   3.734   4.437   1.400  0.9009  1.0087  0.7138
16639TIP3   OH271331   0.970   0.424   5.418 -0.1160 -0.3674 -0.5295
16639TIP3    H171332   0.934   0.507   5.449 -0.1750 -0.3986 -0.5142
16639TIP3    H271333   0.925   0.358   5.470 -0.3881 -0.4344 -0.8474
16640TIP3   OH271334   0.168   4.182   0.839  0.2666 -0.3521  0.3204
16640TIP3    H171335   0.219   4.261   0.855 -1.2032  0.5172  1.0113
16640TIP3    H271336   0.231   4.111   0.844  1.9365  0.8459 -1.9069
16641TIP3   OH271337   6.701   0.160   5.646  0.0378 -0.2542 -0.6074
16641TIP3    H171338   6.723   0.096   5.713  0.3856 -1.1947 -1.5837
16641TIP3    H271339   6.630   0.212   5.683  0.1533 -0.8201  0.4287
16642TIP3   OH271340   4.958   4.763  17.156  0.5336 -0.4650 -0.4170
16642TIP3    H171341   4.993   4.850  17.173 -2.8497  0.9155  0.3951
16642TIP3    H271342   4.973   4.714  17.237  0.3011  0.1938  0.0316
16643TIP3   OH271343   3.420   5.205  16.355 -0.0530  0.3272  0.6349
16643TIP3    H171344   3.399   5.205  16.448  0.3155 -1.3015  0.7386
16643TIP3    H271345   3.338   5.232  16.312 -1.2312 -1.9205  1.2775
16644TIP3   OH271346   2.480   3.628   0.140  0.0269 -0.2915 -0.6339
16644TIP3    H171347   2.477   3.572   0.217 -1.6949  2.9467  1.9189
16644TIP3    H271348   2.569   3.663   0.140  0.0301 -0.2905 -0.0777
16645TIP3   OH271349   2.511   2.276   4.935 -0.0369 -0.0403  0.7137
16645TIP3    H171350   2.476   2.246   5.019  0.5509  1.2595  1.4470
16645TIP3    H271351   2.477   2.364   4.924  1.0972  0.3650  0.3046
16646TIP3   OH271352   5.064   3.574   2.238 -0.1004 -0.0507  0.0208
16646TIP3    H171353   5.044   3.543   2.326 -0.3095 -0.1022 -0.0448
16646TIP3    H271354   4.980   3.604   2.203 -0.3897 -1.6864 -0.8091
16647TIP3   OH271355   3.791   6.055   2.457 -0.0145  0.0205  0.1269
16647TIP3    H171356   3.877   6.098   2.460 -0.3232  0.5926  1.8576
16647TIP3    H271357   3.739   6.111   2.399  0.9306 -0.7270 -1.5453
16648TIP3   OH271358   2.845   5.804   1.402 -0.3645 -0.1137  0.6998
16648TIP3    H171359   2.940   5.808   1.413 -0.5788  1.3214  2.5189
16648TIP3    H271360   2.811   5.783   1.489 -1.7741  1.0168  0.4645
16649TIP3   OH271361   0.959   3.483  15.432  0.2614  0.3853  0.4885
16649TIP3    H171362   1.007   3.490  15.515  0.7128  0.4348  0.2250
16649TIP3    H271363   0.871   3.514  15.454  1.0069  2.8469  0.4055
16650TIP3   OH271364   0.502   1.504  12.067  0.0111 -0.0991  0.0913
16650TIP3    H171365   0.560   1.439  12.106  0.4261  0.8337  1.1070
16650TIP3    H271366   0.441   1.528  12.137 -0.4667  0.2269 -0.4206
16651TIP3   OH271367   2.977   2.246  17.108 -0.3226  0.3757  0.1808
16651TIP3    H171368   2.951   2.232  17.199  0.5734  1.1637  0.5835
16651TIP3    H271369   2.945   2.333  17.087  0.9578  0.9126  0.3315
16652TIP3   OH271370   0.420   0.453  14.771  0.4974  0.0073 -0.5821
16652TIP3    H171371   0.488   0.464  14.705 -0.0572 -2.2365 -1.6248
16652TIP3    H271372   0.428   0.362  14.799 -1.5487 -0.0848 -0.1344
16653TIP3   OH271373   3.314   4.590  11.684 -0.5235  0.5696  0.0058
16653TIP3    H171374   3.235   4.607  11.735 -0.6881 -0.8553  0.2716
16653TIP3    H271375   3.301   4.503  11.648  1.0309  0.1993  0.2666
16654TIP3   OH271376   1.321   5.745  14.160  0.1181 -0.2720 -0.4903
16654TIP3    H171377   1.412   5.726  14.136  0.7856  1.1492  0.7475
16654TIP3    H271378   1.292   5.808  14.095 -0.0278 -0.8059 -0.9500
16655TIP3   OH271379   1.977   3.164  16.321  0.1846 -0.0090 -0.0964
16655TIP3    H171380   1.946   3.128  16.237 -0.0914  0.9243 -0.4094
16655TIP3    H271381   1.937   3.108  16.387  0.6498 -0.9441 -0.5904
16656TIP3   OH271382   2.082   0.710   1.464 -0.2342 -0.1468 -0.0694
16656TIP3    H171383   2.121   0.705   1.551 -1.5140  0.8501  0.5920
16656TIP3    H271384   1.997   0.668   1.473 -0.6833  0.6163 -0.6507
16657TIP3   OH271385   0.118   5.993  12.639 -0.6200  0.2209 -0.2733
16657TIP3    H171386   0.183   5.988  12.710 -0.8512  0.5067 -0.0394
16657TIP3    H271387   0.042   5.946  12.673 -0.1385 -1.1695 -1.0072
16658TIP3   OH271388   6.446   6.011  11.623 -0.0727 -0.0679  0.0176
16658TIP3    H171389   6.412   6.089  11.666 -1.5664  1.2573 -3.2648
16658TIP3    H271390   6.390   5.940  11.654 -0.3180  0.5946  1.1379
16659TIP3   OH271391   3.845   0.149  14.560  0.0117  0.4582 -0.0410
16659TIP3    H171392   3.806   0.216  14.616  1.1285  1.7273 -0.7405
16659TIP3    H271393   3.937   0.145  14.587  0.0661 -0.5027 -0.3061
16660TIP3   OH271394   5.350   4.415  15.667  0.2653  0.4051  0.2244
16660TIP3    H171395   5.394   4.344  15.621  0.1981  0.5867 -0.1297
16660TIP3    H271396   5.414   4.448  15.730  0.1409 -0.2647  0.7101
16661TIP3   OH271397   6.409   6.491  11.113  0.1907  0.1280  0.5297
16661TIP3    H171398   6.368   6.493  11.026  1.6902 -2.7789 -0.3692
16661TIP3    H271399   6.486   6.548  11.105 -0.7119  1.3983  0.6025
16662TIP3   OH271400   3.652   6.441   2.436  0.1551  0.4338 -0.7376
16662TIP3    H171401   3.647   6.372   2.370  1.1686  0.5120 -0.9191
16662TIP3    H271402   3.565   6.443   2.475  0.0754 -0.8865 -0.7911
16663TIP3   OH271403   1.897   0.095  11.711 -0.4938 -0.4837 -0.0825
16663TIP3    H171404   1.891   0.130  11.799 -0.7912  0.9068 -0.6338
16663TIP3    H271405   1.886   0.000  11.722 -0.2702 -0.3546  1.3799
16664TIP3   OH271406   2.507   3.133  13.384  0.3258  0.3033 -0.0234
16664TIP3    H171407   2.503   3.076  13.461  4.1874  0.6113  0.5959
16664TIP3    H271408   2.505   3.072  13.309  1.1181 -0.4122  0.5135
16665TIP3   OH271409   4.796   3.671  12.967  0.2143 -0.6916 -0.1009
16665TIP3    H171410   4.880   3.650  13.009  1.1138  2.6523  0.1524
16665TIP3    H271411   4.733   3.611  13.006  1.8528 -0.8228  2.5960
16666TIP3   OH271412   4.189   4.690   0.776 -0.1831  0.0594 -0.8544
16666TIP3    H171413   4.279   4.696   0.809 -0.5893  0.1884  0.2849
16666TIP3    H271414   4.196   4.640   0.695  0.6440 -1.9023  0.3778
16667TIP3   OH271415   4.984   2.690   4.335 -0.1123  0.2596 -0.0463
16667TIP3    H171416   5.056   2.720   4.279 -0.4281  1.3304  0.0972
16667TIP3    H271417   4.905   2.719   4.290 -0.5311 -1.7904 -0.7150
16668TIP3   OH271418   5.981   5.499  13.468 -0.0811  0.3014  0.0809
16668TIP3    H171419   6.026   5.577  13.435 -0.4883  0.4403 -0.1533
16668TIP3    H271420   5.969   5.444  13.391  0.4806 -0.1379  0.2981
16669TIP3   OH271421   6.584   6.328  13.562  0.1676  0.4165 -0.0412
16669TIP3    H171422   6.491   6.325  13.586 -0.1715 -2.0302 -1.2846
16669TIP3    H271423   6.630   6.314  13.645 -0.4948  2.4165  0.7150
16670TIP3   OH271424   5.587   5.269  15.630 -0.3662  0.5463  0.5817
16670TIP3    H171425   5.623   5.195  15.583  0.0432  1.2937 -0.3049
16670TIP3    H271426   5.502   5.238  15.663  0.9741 -1.2345  2.6690
16671TIP3   OH271427   1.123   1.404  15.174 -0.0626  0.7090 -0.4475
16671TIP3    H171428   1.029   1.420  15.178 -0.5238 -1.7796  1.7245
16671TIP3    H271429   1.150   1.397  15.265  2.2203  1.1835 -1.0268
16672TIP3   OH271430   3.713   2.446  14.597  0.0713 -0.2376 -0.2935
16672TIP3    H171431   3.765   2.461  14.518  0.3783  2.3739  0.3212
16672TIP3    H271432   3.688   2.353  14.592  1.1643 -0.4749 -2.7641
16673TIP3   OH271433   6.174   0.363   2.454  0.0567 -0.1972  0.3155
16673TIP3    H171434   6.215   0.331   2.534 -1.7173 -2.0260  0.5821
16673TIP3    H271435   6.220   0.315   2.384 -0.3009 -0.7811  0.4711
16674TIP3   OH271436   2.901   4.991   5.110 -0.3563 -0.4487  0.5066
16674TIP3    H171437   2.833   4.960   5.049 -0.3791  2.3232 -1.0365
16674TIP3    H271438   2.857   4.994   5.195 -1.5627 -0.6194 -0.0791
16675TIP3   OH271439   4.331   0.000   3.882 -0.2111  0.1886  0.0209
16675TIP3    H171440   4.337  -0.055   3.959 -1.1231  0.5269  0.3527
16675TIP3    H271441   4.403  -0.028   3.826  0.3803 -0.1508  0.9323
16676TIP3   OH271442   6.075   2.540   0.311  0.5868  0.0816 -0.0112
16676TIP3    H171443   6.098   2.538   0.404  0.3236  0.0605  0.0528
16676TIP3    H271444   5.987   2.505   0.307  1.3210 -1.8108 -0.5012
16677TIP3   OH271445   0.073   5.164  14.478 -0.4127  0.2177 -0.1882
16677TIP3    H171446   0.104   5.094  14.421  1.1057  0.7605 -0.0544
16677TIP3    H271447   0.094   5.135  14.566 -1.1735  0.1718 -0.0139
16678TIP3   OH271448   2.000   4.993   2.892 -0.0890  0.3832  0.5822
16678TIP3    H171449   2.024   4.901   2.886  1.5636  0.8422 -0.5019
16678TIP3    H271450   1.935   4.996   2.962  0.1072 -1.5357  0.9082
16679TIP3   OH271451   3.143   1.822   4.524 -1.0056  0.3466  0.2617
16679TIP3    H171452   3.123   1.759   4.455  3.6988 -1.6990  0.3838
16679TIP3    H271453   3.117   1.778   4.605  0.7158 -0.8489  0.2204
16680TIP3   OH271454   3.466   4.036   0.009 -0.0178 -0.0611 -0.2056
16680TIP3    H171455   3.543   4.092   0.004  0.3913 -0.6995 -1.5579
16680TIP3    H271456   3.430   4.052   0.096 -1.2061  3.9575 -1.2144
16681TIP3   OH271457   1.108   1.038   1.007 -0.1611  0.3048 -0.5476
16681TIP3    H171458   1.077   0.967   0.951 -0.1730  1.8683 -2.6325
16681TIP3    H271459   1.048   1.038   1.082 -1.1007 -0.8920 -1.2811
16682TIP3   OH271460   4.536   4.657  17.322  0.0011  0.8460  0.2979
16682TIP3    H171461   4.442   4.665  17.343 -0.0256  1.1870  0.0531
16682TIP3    H271462   4.551   4.723  17.254  0.4909  1.0127  0.5667
16683TIP3   OH271463   4.920   2.962   0.893  0.3609  0.3838 -0.3905
16683TIP3    H171464   4.982   2.904   0.937  0.6749 -1.5794 -3.1682
16683TIP3    H271465   4.975   3.018   0.838 -0.0129  2.8383  1.5489
16684TIP3   OH271466   5.562   5.702  14.939  0.2205  0.3088  0.7117
16684TIP3    H171467   5.535   5.623  14.986 -4.0218  0.0846 -1.6132
16684TIP3    H271468   5.639   5.674  14.889  1.0095 -1.2201  2.6234
16685TIP3   OH271469   6.149   4.969  13.624 -0.3165  0.3572 -0.3787
16685TIP3    H171470   6.090   4.990  13.552 -0.9806 -0.4317 -0.0844
16685TIP3    H271471   6.091   4.959  13.700  0.3355  0.8196  0.1909
16686TIP3   OH271472   2.159   1.361  12.093 -0.0375 -0.2717 -0.2306
16686TIP3    H171473   2.165   1.340  12.000  0.9264 -0.0485 -0.2304
16686TIP3    H271474   2.149   1.457  12.095 -1.4918 -0.4014 -0.1391
16687TIP3   OH271475   0.594   2.077  14.287  0.4796 -0.5554 -0.1694
16687TIP3    H171476   0.559   2.146  14.230  3.0922  0.0280 -1.1775
16687TIP3    H271477   0.624   2.124  14.365 -0.5254 -1.0087  0.5179
16688TIP3   OH271478   4.005   5.998  12.149  0.0954 -0.4757  0.1044
16688TIP3    H171479   4.048   5.925  12.106 -1.6657 -1.7271  0.3584
16688TIP3    H271480   3.917   5.966  12.169 -0.1685  1.1354  1.7928
16689TIP3   OH271481   2.426   0.659   0.023  0.7144  0.3294 -0.0162
16689TIP3    H171482   2.507   0.665   0.074  0.3269  0.3680  0.6037
16689TIP3    H271483   2.356   0.668   0.087  0.1986 -0.6214 -0.4248
16690TIP3   OH271484   2.694   0.928  11.831 -0.5384 -0.8759 -0.0880
16690TIP3    H171485   2.717   0.848  11.784 -0.6715  0.2063 -2.0748
16690TIP3    H271486   2.778   0.973  11.842 -0.6292 -0.7222 -0.0352
16691TIP3   OH271487   0.963   0.674  12.405 -0.5421  0.0420 -0.1816
16691TIP3    H171488   1.013   0.687  12.324  0.5188  1.4915  0.6450
16691TIP3    H271489   0.935   0.583  12.402  1.1859 -0.5008 -1.2445
16692TIP3   OH271490   3.211   4.656  13.718  0.5972 -0.3067 -0.6776
16692TIP3    H171491   3.230   4.718  13.788  0.8753 -1.0696 -0.0577
16692TIP3    H271492   3.120   4.630  13.733  0.9206 -1.1242 -0.0600
16693TIP3   OH271493   5.904   1.956   1.865  0.0287 -0.4779  0.1645
16693TIP3    H171494   5.956   1.959   1.946 -0.1189 -2.1629  0.3464
16693TIP3    H271495   5.894   1.863   1.846 -0.2287 -0.1131 -1.6298
16694TIP3   OH271496   3.651   3.153  10.781  0.0539  0.4652  0.2157
16694TIP3    H171497   3.635   3.245  10.759 -1.0599  0.3115  0.3373
16694TIP3    H271498   3.587   3.133  10.849 -1.3583 -1.0477 -1.4677
16695TIP3   OH271499   1.252   4.267  15.503  0.8174  0.2962 -0.1398
16695TIP3    H171500   1.346   4.280  15.512  1.0424 -0.9873 -0.4293
16695TIP3    H271501   1.243   4.186  15.453 -0.4406  1.5099 -2.0042
16696TIP3   OH271502   5.755   0.360  13.826 -0.0883 -0.3966 -0.1421
16696TIP3    H171503   5.718   0.281  13.864 -0.6588 -0.6689 -1.2267
16696TIP3    H271504   5.686   0.394  13.769 -0.3338  1.5659  1.2176
16697TIP3   OH271505   3.373   5.680  13.450  0.4126 -0.2095 -0.2788
16697TIP3    H171506   3.468   5.696  13.455  0.5760 -0.1552 -2.6407
16697TIP3    H271507   3.335   5.766  13.432 -0.0479 -0.3374  0.0515
16698TIP3   OH271508   5.059   1.795   5.760  0.8889 -0.3485 -0.2143
16698TIP3    H171509   4.991   1.733   5.788 -0.2382 -0.4771 -2.8900
16698TIP3    H271510   5.033   1.879   5.797 -0.5484 -0.4857 -0.8564
16699TIP3   OH271511   2.617   1.797  12.398 -0.5382 -0.0638  0.1372
16699TIP3    H171512   2.704   1.767  12.424 -1.0446 -0.5176  1.4061
16699TIP3    H271513   2.578   1.723  12.351 -0.1929  0.1986 -0.5771
16700TIP3   OH271514   5.651   3.036  14.165 -0.6045 -0.0274 -0.5724
16700TIP3    H171515   5.609   2.987  14.235 -1.1552  0.3810 -0.6115
16700TIP3    H271516   5.641   2.981  14.087 -0.1020 -0.4244 -0.3665
16701TIP3   OH271517   4.234   0.759   0.479 -0.4908  0.1651  0.1325
16701TIP3    H171518   4.264   0.816   0.408 -0.4632  0.2295  0.1955
16701TIP3    H271519   4.254   0.808   0.559  0.0268 -0.1656  0.2097
16702TIP3   OH271520   4.475   0.554  12.122  0.3012 -0.3575 -0.5296
16702TIP3    H171521   4.422   0.489  12.169 -1.2651  1.7650  0.7848
16702TIP3    H271522   4.491   0.513  12.037 -1.3048 -2.1349 -0.0629
16703TIP3   OH271523   0.441   3.175  15.610 -0.5246 -0.5296 -0.1784
16703TIP3    H171524   0.532   3.201  15.596 -1.3700  2.4336 -0.8739
16703TIP3    H271525   0.423   3.195  15.702 -0.7355 -0.1639 -0.2960
16704TIP3   OH271526   2.135   2.067  12.500 -0.1010  0.2669  0.3175
16704TIP3    H171527   2.208   2.091  12.443 -0.7133 -1.3063 -1.2205
16704TIP3    H271528   2.102   1.985  12.463 -1.2964 -0.1870  2.2571
16705TIP3   OH271529   3.781   6.151   0.669  0.3384 -0.0102 -0.0555
16705TIP3    H171530   3.790   6.236   0.627  0.9078 -0.3094 -0.5577
16705TIP3    H271531   3.697   6.155   0.714  0.7873  1.1594  0.7359
16706TIP3   OH271532   4.918   2.226   0.194  0.2052  0.4299  0.7755
16706TIP3    H171533   4.944   2.136   0.174  1.7434  0.7524  1.2289
16706TIP3    H271534   4.877   2.257   0.113  0.4729 -0.3895  0.3114
16707TIP3   OH271535   5.702   4.731   1.812 -0.1026 -0.9410  0.4869
16707TIP3    H171536   5.655   4.765   1.736  0.3404 -3.3424 -0.9523
16707TIP3    H271537   5.794   4.750   1.793 -0.0646 -0.6876  0.9090
16708TIP3   OH271538   5.749   1.542   0.249 -0.3475 -0.4060  0.2410
16708TIP3    H171539   5.656   1.560   0.263 -0.5403  0.1612 -1.5253
16708TIP3    H271540   5.793   1.626   0.268 -0.2907 -0.4256  0.1957
16709TIP3   OH271541   4.071   5.827  11.958 -0.3417 -0.3101 -0.0354
16709TIP3    H171542   4.089   5.794  11.870 -1.8153 -0.5460 -0.2762
16709TIP3    H271543   3.989   5.784  11.984  0.3023 -0.6180  1.6574
16710TIP3   OH271544   2.034   0.283   1.918  0.9400 -0.1539  0.1406
16710TIP3    H171545   2.095   0.354   1.941  0.0564  0.8287 -0.4532
16710TIP3    H271546   1.950   0.327   1.908  0.3066 -1.3539  0.0611
16711TIP3   OH271547   0.586   5.106  16.912  0.6106  0.1313 -0.2345
16711TIP3    H171548   0.596   5.018  16.948  1.0132 -0.2290 -1.2146
16711TIP3    H271549   0.675   5.133  16.888  0.4941  0.8193  0.0594
16712TIP3   OH271550   3.619   1.945  11.434  0.3824 -0.2483  0.2652
16712TIP3    H171551   3.713   1.925  11.443  0.8770  1.0400 -1.4151
16712TIP3    H271552   3.595   1.904  11.351 -0.2946  0.2929  0.1904
16713TIP3   OH271553   0.686   6.220   2.362 -0.2385  0.1526 -0.1568
16713TIP3    H171554   0.608   6.236   2.309  0.6476  0.2150 -1.4929
16713TIP3    H271555   0.694   6.298   2.418 -0.1470  0.9733 -1.2850
16714TIP3   OH271556   3.791   3.286   3.059 -0.4774  0.5346  0.4770
16714TIP3    H171557   3.842   3.304   2.979 -0.8672  0.0558  0.1144
16714TIP3    H271558   3.856   3.286   3.129  0.2276 -1.1793 -0.1178
16715TIP3   OH271559   0.325   2.036   6.449  0.2894 -0.2381  0.3654
16715TIP3    H171560   0.377   2.030   6.369  0.3359  0.3738  0.3443
16715TIP3    H271561   0.274   1.955   6.451  0.5757 -0.4323 -0.0796
16716TIP3   OH271562   5.666   4.368  14.286 -0.1331  0.5998  0.9070
16716TIP3    H171563   5.726   4.419  14.233  1.2268 -0.5712  1.2690
16716TIP3    H271564   5.721   4.304  14.331 -1.6598 -0.6118  1.1544
16717TIP3   OH271565   3.761   0.337  11.199 -0.1383 -0.0056 -0.1489
16717TIP3    H171566   3.761   0.347  11.104 -0.2682  0.1733 -0.1293
16717TIP3    H271567   3.753   0.243  11.213  1.9052 -0.2610 -0.3494
16718TIP3   OH271568   2.481   6.337   3.081  0.1385  0.1231  0.5314
16718TIP3    H171569   2.440   6.412   3.124 -0.4253 -1.4894  2.9664
16718TIP3    H271570   2.567   6.368   3.055  0.4348  1.2744  2.7039
16719TIP3   OH271571   4.672   0.452  11.176 -0.2978 -0.1267 -0.3220
16719TIP3    H171572   4.588   0.424  11.139 -1.9141  3.3795  0.1799
16719TIP3    H271573   4.738   0.405  11.126 -2.5168 -0.3962 -3.2335
16720TIP3   OH271574   6.171   2.659  13.267 -0.0264  0.1604  0.3418
16720TIP3    H171575   6.227   2.595  13.222 -1.1562 -1.9368  1.7794
16720TIP3    H271576   6.231   2.709  13.322  1.0722  1.3624 -1.7995
16721TIP3   OH271577   0.282   5.553  13.958 -0.6238 -0.4030 -0.0100
16721TIP3    H171578   0.209   5.595  13.913  0.5037 -0.1122 -1.6171
16721TIP3    H271579   0.357   5.609  13.941  0.0604 -0.8045  1.4469
16722TIP3   OH271580   4.488   3.168  13.710  0.1486 -0.0926  0.0506
16722TIP3    H171581   4.500   3.125  13.625 -0.4766 -0.8926  0.3446
16722TIP3    H271582   4.394   3.160  13.727  0.1721  0.6059  0.5362
16723TIP3   OH271583   5.881   0.712  12.735 -0.4163 -0.2143  0.2635
16723TIP3    H171584   5.942   0.685  12.804 -0.7640 -0.8897  0.3149
16723TIP3    H271585   5.919   0.677  12.655  1.4639  2.8510 -0.3812
16724TIP3   OH271586   5.113   2.761  13.378  0.0749  0.2947 -0.4368
16724TIP3    H171587   5.182   2.801  13.325 -1.1964  1.1560 -1.5139
16724TIP3    H271588   5.084   2.686  13.327  0.1213  0.0143 -0.0500
16725TIP3   OH271589   3.840   6.742  13.370 -0.1960 -0.0487  0.5407
16725TIP3    H171590   3.835   6.690  13.289 -1.3936  0.5906  0.1756
16725TIP3    H271591   3.864   6.830  13.340 -0.3354  0.1132  0.9026
16726TIP3   OH271592   2.246   6.318   2.875 -0.3394  0.1221 -0.1041
16726TIP3    H171593   2.310   6.296   2.942 -1.3987 -0.2060  0.8422
16726TIP3    H271594   2.273   6.269   2.798  0.4341 -0.1497  0.3322
16727TIP3   OH271595   4.421   3.894  17.368  0.7633 -0.1741 -0.2261
16727TIP3    H171596   4.485   3.957  17.402  0.2949 -0.7163  1.8431
16727TIP3    H271597   4.456   3.809  17.395  0.4056 -0.6711 -1.2837
16728TIP3   OH271598   0.863   6.110   2.210  0.0928 -0.5315  0.2857
16728TIP3    H171599   0.866   6.169   2.134 -0.1731 -0.1179  0.5875
16728TIP3    H271600   0.818   6.161   2.277 -2.1895 -1.8580 -0.1387
16729TIP3   OH271601   0.422   1.335   2.437  0.0255 -0.7166  0.1706
16729TIP3    H171602   0.474   1.365   2.512  0.6107 -0.3652 -0.3619
16729TIP3    H271603   0.468   1.256   2.407 -0.6631 -1.3109  0.6642
16730TIP3   OH271604   0.234   1.305  16.593 -0.2335  0.0537 -0.2066
16730TIP3    H171605   0.147   1.315  16.554 -0.2939  0.9523  0.1397
16730TIP3    H271606   0.217   1.299  16.687 -0.0686 -1.8455 -0.2672
16731TIP3   OH271607   3.598   1.553  14.386  0.0455  0.1692 -1.3954
16731TIP3    H171608   3.564   1.507  14.309 -0.9082 -1.6120 -0.0021
16731TIP3    H271609   3.681   1.590  14.358  0.1962 -1.2872 -3.0033
16732TIP3   OH271610   5.766   1.653   0.991  0.0531 -0.6589 -0.2308
16732TIP3    H171611   5.829   1.716   1.028 -0.7891  0.3486 -0.4468
16732TIP3    H271612   5.693   1.653   1.053 -2.1629  2.3423 -2.5215
16733TIP3   OH271613   1.038   4.077   3.525  0.5338 -0.3359 -0.6984
16733TIP3    H171614   0.947   4.046   3.529  0.5830 -0.4103 -0.0261
16733TIP3    H271615   1.060   4.074   3.432 -0.1917 -0.1961 -0.8835
16734TIP3   OH271616   3.334   2.407   0.917  0.3354  0.0473  0.6214
16734TIP3    H171617   3.354   2.381   1.007  0.4167  2.0145  1.2148
16734TIP3    H271618   3.243   2.380   0.905  1.1377 -2.8867  0.2083
16735TIP3   OH271619   0.549   6.686  11.338 -0.5490  0.5462 -0.1179
16735TIP3    H171620   0.494   6.661  11.412  0.0962 -2.3480 -0.4950
16735TIP3    H271621   0.543   6.612  11.278  0.9700  1.7021 -1.7991
16736TIP3   OH271622   3.186   4.392   5.509  0.0853 -0.3200 -0.2978
16736TIP3    H171623   3.238   4.453   5.456 -0.1142  0.6309  0.5797
16736TIP3    H271624   3.203   4.417   5.599 -0.6059 -1.0764  0.0574
16737TIP3   OH271625   1.640   1.204  13.023  0.0736  0.3546 -0.2653
16737TIP3    H171626   1.729   1.238  13.022 -0.7284  2.6922  0.3865
16737TIP3    H271627   1.618   1.195  13.116 -1.0161  1.8288 -0.3351
16738TIP3   OH271628   4.205   6.366   1.489  0.9781  0.3527  0.3434
16738TIP3    H171629   4.276   6.384   1.427 -0.2363  0.7954 -0.9559
16738TIP3    H271630   4.249   6.363   1.574  2.9118 -1.7174 -0.6348
16739TIP3   OH271631   4.963   5.910   5.043  0.0850 -0.2819  0.3914
16739TIP3    H171632   5.004   5.828   5.016  0.9544  0.2459  0.0835
16739TIP3    H271633   5.006   5.977   4.990 -0.2838  0.4312  0.9770
16740TIP3   OH271634   4.963   0.748  11.917 -0.2797  0.1308 -0.5752
16740TIP3    H171635   4.917   0.664  11.925 -2.3016  1.2080 -0.1308
16740TIP3    H271636   4.902   0.803  11.869 -0.5149  2.3457  2.0159
16741TIP3   OH271637   2.742   3.391   3.703  0.6402 -0.4672 -0.5601
16741TIP3    H171638   2.727   3.387   3.609  1.4145 -3.2595 -0.6401
16741TIP3    H271639   2.837   3.396   3.712  0.6955 -2.1063  0.0493
16742TIP3   OH271640   3.932   3.070   3.388  0.6803  0.4377  0.5206
16742TIP3    H171641   3.917   2.999   3.326  0.2762  1.1451 -0.2159
16742TIP3    H271642   3.988   3.032   3.456  0.0114 -0.7268  0.4406
16743TIP3   OH271643   2.155   2.113  17.263  0.6082  0.2560  0.0217
16743TIP3    H171644   2.233   2.148  17.307  1.3596 -0.3787 -0.7641
16743TIP3    H271645   2.131   2.036  17.316 -1.4786  2.2358  2.1751
16744TIP3   OH271646   3.221   0.044   0.804 -0.1337 -0.3394  0.7708
16744TIP3    H171647   3.279   0.011   0.735 -1.5034 -0.0725 -0.5616
16744TIP3    H271648   3.264   0.124   0.834  0.7566 -0.7425  0.6005
16745TIP3   OH271649   2.849   1.200  15.301 -0.4504  0.3087 -0.4411
16745TIP3    H171650   2.757   1.219  15.281 -0.9670 -1.2467  0.2614
16745TIP3    H271651   2.877   1.140  15.232  0.8096  2.5352 -1.9967
16746TIP3   OH271652   0.528   5.092   0.229 -0.3552 -0.1460  0.5319
16746TIP3    H171653   0.559   5.084   0.139  0.5438  0.0136  0.8174
16746TIP3    H271654   0.482   5.176   0.231 -0.0230  0.0444  0.3177
16747TIP3   OH271655   1.768   0.426   1.965 -0.2543  0.3154 -0.2353
16747TIP3    H171656   1.747   0.351   2.022 -0.0460  0.4606  0.0350
16747TIP3    H271657   1.709   0.495   1.994  0.0760  0.4911  0.0267
16748TIP3   OH271658   6.154   2.953   0.998  0.3684  0.3123 -0.5697
16748TIP3    H171659   6.094   2.887   1.033  1.4907  0.0088  0.8761
16748TIP3    H271660   6.100   3.031   0.987 -0.0379  0.5092  2.1639
16749TIP3   OH271661   2.809   4.117  17.186 -0.1441 -0.2148 -0.5312
16749TIP3    H171662   2.901   4.091  17.194 -0.6027 -2.0827 -0.8819
16749TIP3    H271663   2.795   4.176  17.260  0.4346 -2.7512  1.7509
16750TIP3   OH271664   1.745   5.610  14.349  0.5036  0.1587 -0.0554
16750TIP3    H171665   1.750   5.660  14.430 -0.2020 -0.0314  0.1157
16750TIP3    H271666   1.651   5.602  14.331  0.6311 -0.3449 -0.5509
16751TIP3   OH271667   5.591   6.620  12.837  0.5179  0.0646 -0.4513
16751TIP3    H171668   5.541   6.628  12.918  1.1359 -1.2619  0.0985
16751TIP3    H271669   5.666   6.679  12.850  1.2248 -0.9886  0.4621
16752TIP3   OH271670   5.528   3.594  13.957  0.6202 -0.4247  0.9648
16752TIP3    H171671   5.557   3.663  13.897  0.1069 -0.8833  0.1564
16752TIP3    H271672   5.433   3.589  13.943  0.2588  0.4164  2.8810
16753TIP3   OH271673   1.484   1.283  12.293  0.2866 -0.2928  0.3429
16753TIP3    H171674   1.515   1.208  12.344  1.1353  0.0459  0.3491
16753TIP3    H271675   1.445   1.245  12.215  1.9234 -0.7215 -0.3071
16754TIP3   OH271676   2.289   5.733  13.344  0.1492 -0.1326  0.0995
16754TIP3    H171677   2.219   5.671  13.320 -1.0085  0.6621  1.2515
16754TIP3    H271678   2.363   5.677  13.367 -0.0968 -1.0064 -1.1142
16755TIP3   OH271679   1.252   6.185   2.406 -0.0758 -0.1581 -0.0127
16755TIP3    H171680   1.312   6.127   2.453  0.7675  2.3259  2.2734
16755TIP3    H271681   1.169   6.176   2.453 -0.0242  0.2332  0.1570
16756TIP3   OH271682   1.136   3.278  12.132  0.2977  0.1873 -0.4113
16756TIP3    H171683   1.151   3.185  12.117  0.0074  0.0850 -0.0907
16756TIP3    H271684   1.223   3.314  12.150  0.4568  0.0461 -0.8949
16757TIP3   OH271685   4.054   1.260   6.425  1.0013 -0.3701 -0.7441
16757TIP3    H171686   4.083   1.345   6.457  2.2149 -0.7495 -0.7537
16757TIP3    H271687   4.004   1.223   6.498  0.2339  0.4552 -0.8453
16758TIP3   OH271688   1.036   6.307  13.494 -0.0639 -0.2580 -0.3404
16758TIP3    H171689   1.100   6.237  13.490  0.7049  0.4817 -1.3648
16758TIP3    H271690   0.951   6.262  13.488  0.0777 -1.5286  3.7097
16759TIP3   OH271691   1.507   1.258  15.896  0.1686 -0.1066 -0.5946
16759TIP3    H171692   1.417   1.225  15.887  0.2099 -0.1444 -0.8909
16759TIP3    H271693   1.527   1.248  15.989 -1.3654  3.0515  0.2244
16760TIP3   OH271694   2.973   6.684  12.581 -0.0480  0.3635  0.0639
16760TIP3    H171695   2.974   6.778  12.566 -0.7287  0.8794  2.7422
16760TIP3    H271696   2.881   6.662  12.594  0.2472 -0.2931  1.2679
16761TIP3   OH271697   3.413   3.610  13.658  0.3202 -0.0161 -0.5195
16761TIP3    H171698   3.325   3.642  13.678  0.0237 -0.5961 -0.8872
16761TIP3    H271699   3.401   3.551  13.584  1.2131  0.9906 -1.4964
16762TIP3   OH271700   0.621   4.035   5.620  0.0218  0.2337  0.1154
16762TIP3    H171701   0.689   4.102   5.617 -0.6461  0.9617  0.9059
16762TIP3    H271702   0.647   3.977   5.692 -0.4137  0.7539  0.6931
16763TIP3   OH271703   2.528   4.748   5.314 -0.2835  0.0058 -0.1622
16763TIP3    H171704   2.561   4.822   5.366 -1.0600 -1.2331  2.2099
16763TIP3    H271705   2.598   4.684   5.316  0.3501  0.5599 -2.1425
16764TIP3   OH271706   5.373   5.718  16.579 -0.3904  0.3047 -0.4202
16764TIP3    H171707   5.425   5.641  16.603 -0.4714  0.5298  0.5414
16764TIP3    H271708   5.436   5.790  16.577 -0.8145  0.8599  2.1951
16765TIP3   OH271709   6.704   0.016   1.675 -0.5778 -0.2741  0.1143
16765TIP3    H171710   6.786   0.066   1.681  0.0256 -1.1487 -0.5790
16765TIP3    H271711   6.667   0.041   1.590 -0.9425 -0.0297  0.3402
16766TIP3   OH271712   5.923   3.961   2.996 -0.4780 -0.4228  0.0776
16766TIP3    H171713   5.851   3.899   3.009  0.5266 -2.2358 -2.1917
16766TIP3    H271714   5.970   3.928   2.919  1.8622  1.5750  0.4994
16767TIP3   OH271715   6.051   4.599   3.520  0.2771 -0.3504 -0.0529
16767TIP3    H171716   6.138   4.592   3.559 -0.1471  0.5488  1.1459
16767TIP3    H271717   6.062   4.660   3.447  0.5359  0.3140  0.5309
16768TIP3   OH271718   2.974   1.521   0.509 -0.6564  0.0353 -0.5505
16768TIP3    H171719   2.935   1.507   0.422 -2.1320 -0.5066  0.1541
16768TIP3    H271720   3.033   1.596   0.497 -1.6483  0.6702 -1.7779
16769TIP3   OH271721   6.371   1.711   4.047  0.3654  0.3825 -0.3757
16769TIP3    H171722   6.363   1.627   4.002 -1.8743 -0.3541  1.1887
16769TIP3    H271723   6.374   1.688   4.140  3.3325  1.9125  0.0147
16770TIP3   OH271724   0.710   5.548  13.391 -0.0812  0.4039 -0.3773
16770TIP3    H171725   0.630   5.595  13.414  1.1517  2.3396  0.2381
16770TIP3    H271726   0.766   5.614  13.351  1.7965 -0.4826  0.6228
16771TIP3   OH271727   4.874   0.272  12.430 -0.1608 -0.1323 -0.0174
16771TIP3    H171728   4.896   0.354  12.475  1.2005 -1.3080  1.6041
16771TIP3    H271729   4.789   0.246  12.467 -0.6576  0.5971 -0.6332
16772TIP3   OH271730   6.246   4.600  13.171  0.1887 -0.2092 -0.2014
16772TIP3    H171731   6.166   4.625  13.218  0.6719  0.4743  0.2677
16772TIP3    H271732   6.306   4.672  13.185  1.4763 -1.4247  0.8513
16773TIP3   OH271733   3.359   3.995  11.156  0.4616 -0.4144  0.2124
16773TIP3    H171734   3.340   4.029  11.068 -0.7914 -0.0229  0.6025
16773TIP3    H271735   3.305   3.916  11.163  0.0429 -0.0851  0.8442
16774TIP3   OH271736   5.385   1.612  15.610 -0.3558  0.2506  0.1767
16774TIP3    H171737   5.361   1.679  15.546  3.5612  0.7615 -0.9629
16774TIP3    H271738   5.370   1.529  15.563  1.4129  0.5945 -1.1079
16775TIP3   OH271739   4.809   6.470  15.045  0.4750 -0.0337  0.2661
16775TIP3    H171740   4.812   6.438  15.136  0.6743 -1.0799 -0.0870
16775TIP3    H271741   4.874   6.416  14.999 -0.1779 -0.0632 -0.6591
16776TIP3   OH271742   4.282   2.549  16.553  0.3438  0.1265 -0.2219
16776TIP3    H171743   4.204   2.606  16.550  0.4975  0.3356 -0.2672
16776TIP3    H271744   4.355   2.610  16.563  0.5910 -0.0001 -1.1714
16777TIP3   OH271745   1.400   0.249  12.754 -0.1475 -0.3008 -0.0281
16777TIP3    H171746   1.416   0.332  12.710  1.3143 -1.1272 -1.1136
16777TIP3    H271747   1.309   0.254  12.783  0.0126  1.7910  0.2030
16778TIP3   OH271748   0.146   3.447   3.372 -0.3419 -0.2355  0.5824
16778TIP3    H171749   0.070   3.449   3.314 -0.1583 -0.3900  0.3332
16778TIP3    H271750   0.181   3.359   3.362 -1.0468 -0.6957  1.9032
16779TIP3   OH271751   3.542   3.823   5.195  0.6978  0.2706 -0.4294
16779TIP3    H171752   3.610   3.758   5.181  1.9728  1.5721 -0.5991
16779TIP3    H271753   3.547   3.845   5.288 -0.8114 -0.9711 -0.0088
16780TIP3   OH271754   0.065   0.651   5.713  0.1528 -0.0578  0.0240
16780TIP3    H171755   0.022   0.729   5.748  0.4684  1.0175 -1.8795
16780TIP3    H271756  -0.005   0.601   5.671 -0.3507 -1.6798  2.5375
16781TIP3   OH271757   5.999   2.366   1.805 -0.0025 -0.3045  0.8175
16781TIP3    H171758   5.973   2.435   1.865  3.0206  0.7210  1.0957
16781TIP3    H271759   5.980   2.401   1.718 -1.2956 -0.4320  1.0281
16782TIP3   OH271760   2.216   0.261  14.528  0.0315 -0.4746 -0.0238
16782TIP3    H171761   2.300   0.298  14.503  0.4991 -1.3385  0.2221
16782TIP3    H271762   2.220   0.254  14.623 -0.7290  0.4202  0.0875
16783TIP3   OH271763   5.465   4.522  10.810 -0.9774 -0.2259  0.0107
16783TIP3    H171764   5.452   4.592  10.874 -1.1697 -1.0482  0.8964
16783TIP3    H271765   5.559   4.507  10.809 -0.9557 -0.0842 -0.0394
16784TIP3   OH271766   2.151   0.288   4.585 -0.4994  0.2258  0.4323
16784TIP3    H171767   2.168   0.283   4.491  0.0542  3.6616  0.2299
16784TIP3    H271768   2.239   0.290   4.624 -0.7257 -0.8793  1.0343
16785TIP3   OH271769   2.209   3.629   0.438 -0.3137 -0.1778  0.0429
16785TIP3    H171770   2.157   3.709   0.448  0.1397  0.4656 -2.0657
16785TIP3    H271771   2.191   3.600   0.348  2.5694 -0.1758 -0.6398
16786TIP3   OH271772   4.136   1.056   1.441  0.0791  0.7496  0.1648
16786TIP3    H171773   4.102   1.061   1.531  0.8880 -1.9633  0.7297
16786TIP3    H271774   4.228   1.033   1.452 -0.0823 -0.7895 -1.3400
16787TIP3   OH271775   2.229   5.134   3.845 -0.2090  0.1576 -0.2789
16787TIP3    H171776   2.237   5.222   3.808  0.0396  1.2138  2.0793
16787TIP3    H271777   2.318   5.098   3.840 -0.5193 -0.4476 -2.2357
16788TIP3   OH271778   1.203   0.576   0.979  0.4850  0.3584 -0.3443
16788TIP3    H171779   1.224   0.669   0.973 -3.3693  1.5783  1.8754
16788TIP3    H271780   1.214   0.554   1.071  2.8887 -1.9888 -1.0390
16789TIP3   OH271781   2.360   3.644   5.860  0.2144  0.1733  0.1316
16789TIP3    H171782   2.323   3.674   5.943 -0.3337 -2.2424  0.8258
16789TIP3    H271783   2.293   3.667   5.795 -1.7003 -2.2853  1.0864
16790TIP3   OH271784   2.247   4.260   4.383 -0.6088  0.4076  0.4443
16790TIP3    H171785   2.295   4.189   4.340 -1.0477  1.0956 -1.2405
16790TIP3    H271786   2.314   4.323   4.409 -0.4966  0.9159 -1.0349
16791TIP3   OH271787   5.601   4.087  13.264  0.1390  0.3952  0.2552
16791TIP3    H171788   5.523   4.032  13.276  1.5221 -1.8227 -0.3310
16791TIP3    H271789   5.609   4.096  13.170 -0.2723  2.0312  0.3397
16792TIP3   OH271790   0.326   1.997   2.598 -0.2909  0.4956  0.2823
16792TIP3    H171791   0.321   2.023   2.506 -1.9778  0.5205  0.3415
16792TIP3    H271792   0.412   2.027   2.627  0.5340 -0.1112 -1.4497
16793TIP3   OH271793   3.905   4.546   0.466  0.9573 -0.1180  0.1319
16793TIP3    H171794   3.872   4.636   0.456  2.2015  0.1873 -1.8821
16793TIP3    H271795   3.827   4.494   0.482 -0.1129  1.0228 -1.1162
16794TIP3   OH271796   6.581   2.205  14.557  0.4401  0.2570 -0.3321
16794TIP3    H171797   6.637   2.144  14.605  1.8335 -0.6394 -2.9249
16794TIP3    H271798   6.621   2.213  14.471 -0.8660  3.2831 -0.7980
16795TIP3   OH271799   3.847   2.737   4.519 -0.3018 -0.3393 -0.3077
16795TIP3    H171800   3.755   2.708   4.520 -0.1153 -0.9264  0.6875
16795TIP3    H271801   3.894   2.664   4.477 -0.1506 -0.5154  0.1562
16796TIP3   OH271802   5.429   3.827   5.824  0.0546  0.2755  0.1617
16796TIP3    H171803   5.393   3.907   5.862  0.6663  0.3701  0.5593
16796TIP3    H271804   5.411   3.759   5.889  1.2403  0.4667  0.7130
16797TIP3   OH271805   5.035   2.283  12.370  0.4886  0.4291  0.5631
16797TIP3    H171806   4.962   2.228  12.344  0.7431  0.5230 -0.3610
16797TIP3    H271807   5.107   2.222  12.387  0.7711  0.4621 -0.4624
16798TIP3   OH271808   2.266   5.248   5.255 -0.0307  0.4096  0.2127
16798TIP3    H171809   2.218   5.309   5.311 -1.8526 -1.3218  0.6507
16798TIP3    H271810   2.250   5.280   5.166 -2.9666 -0.6303  0.2505
16799TIP3   OH271811   5.985   5.927   0.819  0.0312 -0.4751  0.1839
16799TIP3    H171812   5.910   5.984   0.834  0.0084 -0.7492  1.1728
16799TIP3    H271813   6.049   5.953   0.885  0.1263 -1.4103  0.4772
16800TIP3   OH271814   6.432   1.168   6.703  0.1164  0.0465  0.6989
16800TIP3    H171815   6.470   1.129   6.624  1.8835  0.3992  1.3245
16800TIP3    H271816   6.507   1.184   6.760 -1.1249 -0.2829  2.5072
16801TIP3   OH271817   5.006   1.949   0.199 -0.6736 -0.0075  0.1811
16801TIP3    H171818   5.018   1.881   0.133 -0.5472 -0.4651  0.6734
16801TIP3    H271819   4.992   1.902   0.281 -1.3818  0.5488  0.3970
16802TIP3   OH271820   5.342   2.629  16.248 -0.1628  0.5962 -0.3845
16802TIP3    H171821   5.425   2.602  16.287  1.2048  1.4697 -2.4958
16802TIP3    H271822   5.358   2.718  16.217 -2.3524  1.2878  0.3275
16803TIP3   OH271823   5.823   0.460  13.173 -0.0059  0.4138 -0.0019
16803TIP3    H171824   5.829   0.377  13.219  1.2203  0.1204 -0.6518
16803TIP3    H271825   5.892   0.456  13.107  0.2641  2.0544  0.1374
16804TIP3   OH271826   4.134   5.894  15.574 -0.4769  0.1072  0.0467
16804TIP3    H171827   4.128   5.890  15.669  2.3961  0.8891  0.3670
16804TIP3    H271828   4.098   5.979  15.551  1.2818  1.1232  0.8137
16805TIP3   OH271829   5.529   2.007  14.214 -0.2122 -0.0895 -0.1911
16805TIP3    H171830   5.472   2.050  14.150 -0.0681 -0.3941 -0.5360
16805TIP3    H271831   5.597   2.071  14.232  0.2501 -0.3259 -1.0409
16806TIP3   OH271832   6.209   0.967  11.500 -0.2879 -0.4994  0.3995
16806TIP3    H171833   6.272   1.038  11.488  0.0563 -1.0165 -1.0892
16806TIP3    H271834   6.221   0.911  11.424 -1.6553 -1.3147  0.7416
16807TIP3   OH271835   4.505   4.910   0.778  0.8228 -0.3296 -0.6181
16807TIP3    H171836   4.584   4.875   0.819  1.1321  0.3788 -0.6063
16807TIP3    H271837   4.486   4.990   0.827  1.5675  0.8977 -2.2478
16808TIP3   OH271838   4.613   0.729  15.132  0.1205 -0.2518 -0.0181
16808TIP3    H171839   4.616   0.758  15.041 -1.3535  0.2085  0.0548
16808TIP3    H271840   4.648   0.802  15.182  1.8988 -0.8953 -0.2682
16809TIP3   OH271841   5.910   6.409  11.939  0.2782  0.6641  0.4066
16809TIP3    H171842   5.874   6.341  11.882 -0.6661  1.8377 -0.4442
16809TIP3    H271843   5.950   6.471  11.878  0.0736  1.4727  1.0934
16810TIP3   OH271844   4.707   2.703   5.745  0.1963 -0.2880  0.4862
16810TIP3    H171845   4.682   2.790   5.776 -1.3033 -1.0620  1.5547
16810TIP3    H271846   4.799   2.712   5.721  0.4850  1.2367  1.9541
16811TIP3   OH271847   1.992   5.196   3.997  0.2369 -0.2150 -0.4797
16811TIP3    H171848   1.928   5.137   3.957  0.1877  0.8161 -2.0072
16811TIP3    H271849   2.071   5.185   3.944  0.1074  1.3407 -1.0334
16812TIP3   OH271850   4.503   4.039   0.814 -0.3255  0.3093 -0.4156
16812TIP3    H171851   4.547   4.072   0.735 -0.3775  0.1627 -0.5072
16812TIP3    H271852   4.446   4.111   0.841  0.0863  0.5586 -0.2039
16813TIP3   OH271853   1.274   6.440  12.595 -0.3814 -0.0982  0.4205
16813TIP3    H171854   1.365   6.457  12.568 -0.4708  0.3599  0.4111
16813TIP3    H271855   1.283   6.380  12.669 -0.0268  0.7900  1.1060
16814TIP3   OH271856   1.727   4.203  11.700  0.5425  0.4247  0.1251
16814TIP3    H171857   1.729   4.121  11.750 -0.9665  0.8123  0.8594
16814TIP3    H271858   1.745   4.271  11.765  1.5782  0.7126 -0.4455
16815TIP3   OH271859   6.119   5.745   0.570 -0.0891  0.7519  0.3262
16815TIP3    H171860   6.173   5.822   0.556  0.8486 -0.0682 -0.6664
16815TIP3    H271861   6.178   5.681   0.610 -0.3070 -0.1326 -0.7154
16816TIP3   OH271862   2.377   3.864   3.410  0.9151  0.6748 -0.1276
16816TIP3    H171863   2.455   3.816   3.440  2.0764  1.5775 -1.5532
16816TIP3    H271864   2.385   3.951   3.451  1.1308  1.0484 -0.9344
16817TIP3   OH271865   5.507   0.761  11.054 -0.2602 -0.0997  0.5327
16817TIP3    H171866   5.558   0.722  10.983  2.0305  1.7382  1.0640
16817TIP3    H271867   5.539   0.718  11.133 -0.2988  0.2944  0.7652
16818TIP3   OH271868   1.879   5.329   0.684 -0.3063  0.3015 -0.4055
16818TIP3    H171869   1.828   5.323   0.765  0.5954  0.4695  0.1951
16818TIP3    H271870   1.944   5.397   0.702  0.5099 -0.3123 -0.9196
16819TIP3   OH271871   6.244   0.968   0.706 -0.2878  0.1323 -0.1854
16819TIP3    H171872   6.230   1.060   0.683  0.4223  0.1886 -0.4349
16819TIP3    H271873   6.334   0.966   0.740  0.4426 -0.8151 -2.0535
16820TIP3   OH271874   1.807   4.979  10.848 -0.2690 -0.3484 -0.4783
16820TIP3    H171875   1.854   4.917  10.792 -1.4836 -2.2924  0.5526
16820TIP3    H271876   1.857   4.980  10.930 -0.9117 -0.9245 -0.0675
16821TIP3   OH271877   5.621   1.798   4.755  0.0328 -0.4002 -0.1100
16821TIP3    H171878   5.577   1.788   4.671  0.7913 -1.7564 -0.3661
16821TIP3    H271879   5.624   1.892   4.770 -2.0388 -0.2179 -0.5573
16822TIP3   OH271880   6.413   4.068   4.000  0.0159  0.0844  0.4782
16822TIP3    H171881   6.402   4.019   3.918 -0.8659  1.5176 -0.3178
16822TIP3    H271882   6.374   4.153   3.981 -0.4812  0.3426  2.5183
16823TIP3   OH271883   0.710   0.633  16.418 -0.0481  0.1617  0.0467
16823TIP3    H171884   0.701   0.640  16.513 -2.2748  0.7642 -0.1608
16823TIP3    H271885   0.622   0.649  16.384  0.4410 -1.2802 -2.0721
16824TIP3   OH271886   1.798   5.938  13.952 -0.2863 -0.2127  0.4829
16824TIP3    H171887   1.836   5.860  13.910 -1.4822 -1.0568  0.9300
16824TIP3    H271888   1.873   5.982  13.992  0.5206 -0.7093 -0.4303
16825TIP3   OH271889   5.589   6.271   2.536 -0.2485 -0.7263 -1.4685
16825TIP3    H171890   5.631   6.345   2.491  1.8372 -1.2073 -0.4667
16825TIP3    H271891   5.499   6.270   2.503 -0.9143  3.2849 -0.3468
16826TIP3   OH271892   4.903   4.994   0.522 -0.4682 -0.6531 -0.8810
16826TIP3    H171893   4.956   5.070   0.496 -1.0603 -0.1112 -0.5370
16826TIP3    H271894   4.814   5.016   0.495 -1.1023 -0.0937  1.4269
16827TIP3   OH271895   3.146   0.273   0.397  0.1480 -0.0318 -0.1830
16827TIP3    H171896   3.207   0.346   0.388  0.1057 -0.1153 -1.2510
16827TIP3    H271897   3.195   0.197   0.366  0.0929 -0.4154  0.6471
16828TIP3   OH271898   0.759   5.450  10.534  0.0370  0.0379  0.1292
16828TIP3    H171899   0.684   5.500  10.568 -0.5055  0.1386 -1.1611
16828TIP3    H271900   0.827   5.516  10.523  0.9817 -0.3153  2.9559
16829TIP3   OH271901   4.454   2.097  13.600  0.0360 -0.1457 -0.5034
16829TIP3    H171902   4.438   2.005  13.619  2.0459 -0.0789  2.0626
16829TIP3    H271903   4.521   2.097  13.532  0.2829 -0.5834 -0.2627
16830TIP3   OH271904   3.119   5.254  13.448 -0.0326 -0.0515  0.2024
16830TIP3    H171905   3.070   5.204  13.383 -1.9962  0.6975  1.0209
16830TIP3    H271906   3.156   5.327  13.399 -1.0582  0.2248 -0.1884
16831TIP3   OH271907   1.489   1.876  14.593 -0.2029 -0.6238  0.0280
16831TIP3    H171908   1.525   1.907  14.676 -3.6888  0.4178  1.3735
16831TIP3    H271909   1.443   1.795  14.616 -1.6756 -0.0400 -0.7138
16832TIP3   OH271910   5.149   5.892  14.942 -0.0593  0.1598 -1.0594
16832TIP3    H171911   5.243   5.887  14.926 -0.0066 -0.9370 -0.5199
16832TIP3    H271912   5.121   5.800  14.945 -1.1850  0.4730 -1.4256
16833TIP3   OH271913   1.214   2.506   1.206 -0.0073  0.3139 -0.2824
16833TIP3    H171914   1.204   2.599   1.185 -2.0974 -0.1497 -1.7978
16833TIP3    H271915   1.179   2.497   1.294 -0.4197  0.8835 -0.3842
16834TIP3   OH271916   2.939   0.310  14.698  0.3572  0.2003 -0.4457
16834TIP3    H171917   2.891   0.365  14.635  0.1892 -1.8391 -2.2262
16834TIP3    H271918   3.024   0.295  14.656  1.2172  0.8208  1.0148
16835TIP3   OH271919   2.480   1.425   3.040  0.2431  0.1393  0.1134
16835TIP3    H171920   2.477   1.485   2.965  1.5977 -0.6355 -0.6044
16835TIP3    H271921   2.395   1.382   3.040 -0.1099  0.8109 -0.4102
16836TIP3   OH271922   2.788   1.360  13.621  0.2990  0.0178 -0.0044
16836TIP3    H171923   2.816   1.428  13.683  1.2926  0.2515 -0.6800
16836TIP3    H271924   2.709   1.395  13.580  0.5766  0.6008 -0.0525
16837TIP3   OH271925   0.605   5.304  13.955  0.4268  0.5269  0.1306
16837TIP3    H171926   0.657   5.338  14.028  1.5678  1.0183 -0.8699
16837TIP3    H271927   0.606   5.375  13.890  2.0594 -0.9751 -1.6185
16838TIP3   OH271928   2.785   6.706  14.317 -0.1016  0.0045  0.3644
16838TIP3    H171929   2.712   6.743  14.268  0.6109  2.1517  0.7964
16838TIP3    H271930   2.848   6.778  14.325  3.2014 -2.3153 -2.0027
16839TIP3   OH271931   6.028   6.168   3.343  0.0265  0.2071  0.0929
16839TIP3    H171932   5.974   6.122   3.407 -1.7965  0.6974 -1.0275
16839TIP3    H271933   6.115   6.129   3.353 -0.9349 -1.9534  0.6735
16840TIP3   OH271934   4.531   3.135   4.945 -0.1492 -0.5366 -0.3304
16840TIP3    H171935   4.481   3.122   4.864  0.5812 -0.4961 -0.7879
16840TIP3    H271936   4.531   3.049   4.987 -1.8579 -0.2198  0.4153
16841TIP3   OH271937   5.680   3.540  17.150 -0.3129  0.1320  0.6851
16841TIP3    H171938   5.641   3.502  17.071 -0.1016  1.5089 -0.0976
16841TIP3    H271939   5.774   3.535  17.136  0.0173  6.4041 -2.3897
16842TIP3   OH271940   5.217   5.939   1.169 -0.6162  0.4887  0.0137
16842TIP3    H171941   5.150   5.966   1.233 -1.1374 -0.9099  0.0885
16842TIP3    H271942   5.297   5.932   1.220 -0.9059 -0.0477  0.4120
16843TIP3   OH271943   2.466   2.603  15.278 -0.6126  0.0087 -0.3478
16843TIP3    H171944   2.493   2.606  15.187 -0.1605 -3.3873 -0.4500
16843TIP3    H271945   2.371   2.590  15.275 -0.5274 -0.6019 -0.3358
16844TIP3   OH271946   5.987   6.548   4.881 -0.4384 -0.6723 -0.2520
16844TIP3    H171947   5.942   6.608   4.821  0.1130  1.8373  1.6563
16844TIP3    H271948   6.068   6.526   4.836 -0.7990 -0.2121 -1.1489
16845TIP3   OH271949   0.530   4.471  10.449 -0.7136  0.1819  0.1130
16845TIP3    H171950   0.472   4.401  10.477 -1.1330  1.0715  1.5927
16845TIP3    H271951   0.498   4.496  10.362 -1.5249 -0.4063  0.2395
16846TIP3   OH271952   0.797   4.619   0.638  0.4140 -0.3674 -0.0882
16846TIP3    H171953   0.742   4.692   0.609  2.1608  0.5134 -1.3508
16846TIP3    H271954   0.811   4.635   0.731 -0.6001 -0.0459  0.0215
16847TIP3   OH271955   5.343   6.362  13.719 -0.4740 -0.2551  0.2210
16847TIP3    H171956   5.291   6.429  13.675 -0.3284 -1.1963 -1.4641
16847TIP3    H271957   5.385   6.408  13.792 -1.0871  1.2559 -0.3414
16848TIP3   OH271958   4.430   1.827   6.576  0.4861  0.0524  0.1220
16848TIP3    H171959   4.505   1.769   6.562  1.4354  0.7288  2.0305
16848TIP3    H271960   4.359   1.769   6.603  1.1554 -0.3331  1.0876
16849TIP3   OH271961   5.646   2.242   0.757  0.1171 -0.1019 -0.1283
16849TIP3    H171962   5.734   2.243   0.794  0.6709  1.1793 -1.3557
16849TIP3    H271963   5.621   2.150   0.755  2.5025 -0.8020 -2.1077
16850TIP3   OH271964   1.948   1.114  11.335 -0.0941 -0.1743 -0.0042
16850TIP3    H171965   1.922   1.038  11.283  2.5531 -0.7590 -0.6135
16850TIP3    H271966   2.041   1.124  11.318  0.3482  1.2019  2.6479
16851TIP3   OH271967   4.901   5.070   3.872  0.1113 -0.1044  0.1608
16851TIP3    H171968   4.880   5.077   3.965  0.8571  0.0282  0.3258
16851TIP3    H271969   4.841   5.132   3.829 -1.1592 -1.1431  0.3942
16852TIP3   OH271970   5.826   3.735   1.035 -0.3518  0.1772 -0.5267
16852TIP3    H171971   5.747   3.683   1.023 -0.7999  0.6832  0.1788
16852TIP3    H271972   5.876   3.721   0.954 -0.7451 -0.8372 -0.6180
16853TIP3   OH271973   3.467   1.519  14.138 -0.0557  0.0400  0.1101
16853TIP3    H171974   3.392   1.574  14.113  0.2510 -0.3815 -1.8841
16853TIP3    H271975   3.428   1.436  14.165 -0.3887  0.3778  0.6814
16854TIP3   OH271976   0.790   4.802  14.168  0.1518  0.1487  0.3965
16854TIP3    H171977   0.712   4.771  14.213  0.3583 -0.1337  0.5622
16854TIP3    H271978   0.777   4.897  14.160 -1.0636 -0.1112 -1.2212
16855TIP3   OH271979   0.854   0.205  14.438 -0.8748  0.5227 -0.1315
16855TIP3    H171980   0.801   0.193  14.360  0.2406 -2.8260 -0.5228
16855TIP3    H271981   0.811   0.152  14.505  0.6636 -0.4657  0.1465
16856TIP3   OH271982   0.804   5.547  15.258 -0.5223  0.3885  0.7419
16856TIP3    H171983   0.797   5.549  15.162  0.1557  0.2588  0.6833
16856TIP3    H271984   0.772   5.459  15.282  1.3050 -0.4009  0.4383
16857TIP3   OH271985   2.198   3.874   5.956 -0.0330 -0.0130 -0.1695
16857TIP3    H171986   2.236   3.883   6.043 -0.4960 -0.3179  0.0702
16857TIP3    H271987   2.137   3.800   5.964 -0.3268  0.1687 -0.6610
16858TIP3   OH271988   3.860   5.303  16.709 -0.5988 -0.4850 -0.1503
16858TIP3    H171989   3.895   5.306  16.620  1.2397  1.1538  0.5503
16858TIP3    H271990   3.884   5.217  16.742 -1.3350 -1.1190 -1.2398
16859TIP3   OH271991   5.565   3.862  16.207  0.0697  0.4427  0.1039
16859TIP3    H171992   5.653   3.824  16.202 -0.9229 -1.8904 -0.7477
16859TIP3    H271993   5.506   3.787  16.206 -1.9429  1.8755  1.8684
16860TIP3   OH271994   2.539   0.604   3.684  0.1047  0.0411 -0.1828
16860TIP3    H171995   2.445   0.619   3.672 -0.5015 -2.6992  0.2928
16860TIP3    H271996   2.549   0.509   3.672  2.3683 -0.1656  2.4663
16861TIP3   OH271997   5.287   6.707   6.026 -0.0481 -0.4978 -0.3332
16861TIP3    H171998   5.338   6.724   5.947  1.0862 -2.4183 -0.0675
16861TIP3    H271999   5.301   6.784   6.081  1.2112 -0.2402 -0.9805
16862TIP3   OH272000   1.178   6.089   3.434 -0.0284 -0.1273 -0.4761
16862TIP3    H172001   1.095   6.091   3.388 -0.3802  0.1265  0.1495
16862TIP3    H272002   1.164   6.027   3.506 -0.0968  0.8157  0.3652
16863TIP3   OH272003   5.989   3.762  12.196 -0.4159 -0.1254  0.1367
16863TIP3    H172004   5.958   3.821  12.265  2.0572 -0.2342  1.4456
16863TIP3    H272005   6.060   3.809  12.155  2.2218 -2.3611  1.7732
16864TIP3   OH272006   2.577   2.678   3.507  0.4472 -0.1159 -0.3569
16864TIP3    H172007   2.522   2.756   3.508 -1.8313 -1.5835  2.0637
16864TIP3    H272008   2.624   2.681   3.590  0.4029 -1.2750 -0.2816
16865TIP3   OH272009   5.162   5.853   4.666 -0.1967  0.4104 -0.0006
16865TIP3    H172010   5.156   5.925   4.729 -0.3673  0.9519 -0.6312
16865TIP3    H272011   5.161   5.896   4.580 -0.4851 -0.3549 -0.3857
16866TIP3   OH272012   4.369   1.218   2.539  0.5740  1.3846  0.0761
16866TIP3    H172013   4.277   1.221   2.513  1.2200  0.6796 -2.5301
16866TIP3    H272014   4.411   1.287   2.488  1.8437  0.2908 -0.4124
16867TIP3   OH272015   6.098   4.076   3.833 -0.1693  0.6940  0.1043
16867TIP3    H172016   6.087   3.981   3.825  0.6879  0.5296  0.8201
16867TIP3    H272017   6.014   4.112   3.804 -0.3025 -0.2513 -0.7296
16868TIP3   OH272018   0.708   4.501  17.263 -0.1829 -0.2013  0.8539
16868TIP3    H172019   0.621   4.532  17.289 -0.2061 -0.7344  1.4472
16868TIP3    H272020   0.748   4.472  17.345  0.4617 -0.1942  0.5473
16869TIP3   OH272021   1.808   1.164  14.853  0.5420 -0.1790  0.0428
16869TIP3    H172022   1.870   1.173  14.781 -1.5968 -0.1629 -1.9099
16869TIP3    H272023   1.767   1.079  14.839 -1.0214  0.4956  0.2908
16870TIP3   OH272024   5.436   3.309  15.272  0.0289 -0.4075  0.3616
16870TIP3    H172025   5.483   3.286  15.192 -1.2954 -0.1024 -0.5286
16870TIP3    H272026   5.344   3.291  15.252 -0.5574  1.4830  1.1441
16871TIP3   OH272027   6.238   3.804   1.861 -0.7692  0.1027  0.2978
16871TIP3    H172028   6.330   3.827   1.856 -0.5233 -0.8593  0.3007
16871TIP3    H272029   6.192   3.883   1.832  0.0606  0.4576 -0.0709
16872TIP3   OH272030   0.932   1.831  11.611  0.3852 -0.0539 -0.1133
16872TIP3    H172031   0.944   1.749  11.659  1.8324  0.2222  0.0341
16872TIP3    H272032   0.838   1.834  11.593 -0.5131  0.4134  3.7479
16873TIP3   OH272033   4.046   6.094  13.907  0.4960  0.2203 -0.2219
16873TIP3    H172034   4.071   6.002  13.913 -0.2089  0.0070 -0.4376
16873TIP3    H272035   3.950   6.093  13.908  0.3237  0.6449 -4.1330
16874TIP3   OH272036   0.931   1.258  12.246 -0.0753 -0.1227 -0.0605
16874TIP3    H172037   0.951   1.221  12.332 -2.1138 -1.1461  0.0347
16874TIP3    H272038   0.944   1.185  12.185  1.4043  0.6075 -0.6816
16875TIP3   OH272039   3.038   0.629   4.749  0.0810  0.1722  0.1101
16875TIP3    H172040   3.130   0.645   4.773  0.4589  1.7221 -2.0007
16875TIP3    H272041   3.040   0.547   4.701  0.5698  0.6764 -0.7598
16876TIP3   OH272042   5.577   0.284  14.099 -0.5323  0.4605  0.1057
16876TIP3    H172043   5.601   0.369  14.061 -2.6770  0.7386 -0.8292
16876TIP3    H272044   5.563   0.227  14.023 -1.6341  0.0492  0.5909
16877TIP3   OH272045   5.471   2.502   1.693  0.2587  0.8846  0.0429
16877TIP3    H172046   5.437   2.511   1.782  0.0352  1.7958 -0.1238
16877TIP3    H272047   5.398   2.464   1.644 -0.4087  2.4383 -0.2201
16878TIP3   OH272048   2.014   1.267   2.315  0.0100  0.0395 -0.0736
16878TIP3    H172049   2.039   1.287   2.405 -0.8106  2.9180 -0.3882
16878TIP3    H272050   2.096   1.242   2.273  0.7630  0.5692  1.0140
16879TIP3   OH272051   4.140   5.491  12.578 -0.2869  0.4231 -0.1951
16879TIP3    H172052   4.072   5.534  12.526 -0.9317 -0.7225 -0.3277
16879TIP3    H272053   4.129   5.526  12.666 -1.0064  0.2922 -0.2322
16880TIP3   OH272054   6.436   3.026   5.128  0.6763  0.1599  0.6830
16880TIP3    H172055   6.492   3.063   5.059  0.2919  1.3267  0.9696
16880TIP3    H272056   6.425   2.934   5.103  0.5605  0.5446 -0.8197
16881TIP3   OH272057   6.542   3.842  12.861 -0.2458 -0.2945  0.3410
16881TIP3    H172058   6.525   3.809  12.773  0.2045  0.8138 -0.1872
16881TIP3    H272059   6.551   3.764  12.916 -0.7885 -0.9849 -0.5464
16882TIP3   OH272060   2.856   5.657   4.589 -0.6176 -0.2014 -0.1643
16882TIP3    H172061   2.790   5.634   4.523 -1.0145  0.7815 -0.1262
16882TIP3    H272062   2.807   5.703   4.657  0.4105  2.8118 -1.2931
16883TIP3   OH272063   5.586   5.750  15.970  0.2168 -0.3006 -0.0441
16883TIP3    H172064   5.576   5.845  15.965  1.5494 -0.2184 -1.9674
16883TIP3    H272065   5.499   5.715  15.949  0.1215  0.4856 -0.9915
16884TIP3   OH272066   3.814   4.208  16.824 -0.2933 -0.3402 -0.0078
16884TIP3    H172067   3.837   4.123  16.785 -1.1407 -0.3826 -0.4445
16884TIP3    H272068   3.791   4.263  16.750 -1.2738 -0.2131  0.3748
16885TIP3   OH272069   1.756   4.484   2.330  0.3671 -0.5425  0.0110
16885TIP3    H172070   1.797   4.458   2.413  0.1675 -2.7702 -0.5181
16885TIP3    H272071   1.828   4.482   2.267  0.2243 -0.3710 -0.1552
16886TIP3   OH272072   0.014   3.660   4.654  0.3687  0.2581  0.0831
16886TIP3    H172073  -0.034   3.670   4.572  2.2141 -1.9765 -1.4190
16886TIP3    H272074  -0.001   3.568   4.679  1.6423  0.2753  1.0177
16887TIP3   OH272075   2.320   6.602  14.055  0.1349  0.0860 -0.0581
16887TIP3    H172076   2.304   6.566  14.143  1.1027  1.7327  0.8512
16887TIP3    H272077   2.291   6.533  13.995  0.4349 -1.5133  1.5502
16888TIP3   OH272078   2.976   5.623   3.661 -0.2208 -0.4952  0.3036
16888TIP3    H172079   2.905   5.581   3.710 -0.4509  0.4063  0.7738
16888TIP3    H272080   3.056   5.593   3.704 -0.3330 -1.1988  0.0267
16889TIP3   OH272081   5.562   5.072  13.572 -0.5704  0.6109  0.4072
16889TIP3    H172082   5.628   5.124  13.618 -2.0728  0.8088  2.4799
16889TIP3    H272083   5.589   4.981  13.588 -0.0455  0.6971  0.0415
16890TIP3   OH272084   2.797   4.247  12.506 -0.2983  0.0962  0.0486
16890TIP3    H172085   2.863   4.270  12.440 -0.7485 -1.2879 -0.9398
16890TIP3    H272086   2.845   4.195  12.570 -0.5340 -1.7090 -1.1516
16891TIP3   OH272087   3.084   0.502  11.934  0.3304 -0.3548 -0.4351
16891TIP3    H172088   3.051   0.534  12.018 -2.0150  0.7089 -1.6651
16891TIP3    H272089   3.160   0.556  11.915 -1.3976  2.1801 -0.7309
16892TIP3   OH272090   1.362   0.181  11.980  0.2886 -0.1418 -0.3973
16892TIP3    H172091   1.384   0.088  11.994 -1.4967 -0.4241  0.8512
16892TIP3    H272092   1.401   0.225  12.055  0.4758  0.0119 -0.5846
16893TIP3   OH272093   2.158   5.937   6.117  0.3947  0.3704 -0.2903
16893TIP3    H172094   2.249   5.918   6.094 -0.1522 -2.0425 -0.7219
16893TIP3    H272095   2.114   5.853   6.109 -1.6281  1.2346  1.1654
16894TIP3   OH272096   4.412   0.484  15.060 -0.0840  0.4750 -0.5608
16894TIP3    H172097   4.479   0.418  15.078 -0.9337 -0.4018 -0.5102
16894TIP3    H272098   4.461   0.563  15.040  1.0448 -0.6668 -2.7078
16895TIP3   OH272099   6.679   5.957  12.280 -0.1983  0.0605 -0.4816
16895TIP3    H172100   6.600   5.928  12.327  1.0219 -0.8734  1.0864
16895TIP3    H272101   6.651   5.965  12.189 -1.8869 -1.1392 -0.1172
16896TIP3   OH272102   0.301   1.699  11.094 -0.2845  0.2646  0.3114
16896TIP3    H172103   0.226   1.700  11.035 -0.4710 -2.2675  0.3940
16896TIP3    H272104   0.357   1.770  11.063 -2.0407  1.3429 -0.5994
16897TIP3   OH272105   5.441   2.167   3.561  0.2587  0.3031 -0.4667
16897TIP3    H172106   5.457   2.083   3.518 -0.4329 -1.5947  2.6471
16897TIP3    H272107   5.502   2.168   3.635 -0.3176  2.2068  0.0450
16898TIP3   OH272108   5.104   5.089   1.120  0.5242  0.5192 -0.8451
16898TIP3    H172109   5.191   5.051   1.112  0.0452 -0.8150  0.0346
16898TIP3    H272110   5.046   5.025   1.078 -0.4634 -0.4426  1.8205
16899TIP3   OH272111   4.132   2.820  10.848 -0.2997 -0.1257 -0.2650
16899TIP3    H172112   4.114   2.843  10.757 -0.0198 -1.2331 -0.6134
16899TIP3    H272113   4.127   2.724  10.850  0.3975 -0.1536  0.7376
16900TIP3   OH272114   0.776   2.558  15.308  0.0133 -0.2348  0.4740
16900TIP3    H172115   0.740   2.574  15.221 -2.2321  0.6629  1.4939
16900TIP3    H272116   0.751   2.468  15.327  0.5078 -0.4329  0.1974
16901TIP3   OH272117   3.616   4.236   6.151 -0.1387  0.0593 -0.2474
16901TIP3    H172118   3.529   4.234   6.193 -0.2768  0.7728 -0.4859
16901TIP3    H272119   3.612   4.168   6.084 -0.0686 -0.7978  0.5993
16902TIP3   OH272120   5.180   1.225   5.458 -0.9742  0.3942  0.3320
16902TIP3    H172121   5.137   1.256   5.378 -1.2727 -1.7617 -0.3899
16902TIP3    H272122   5.273   1.243   5.443 -0.9667 -0.4212 -0.7368
16903TIP3   OH272123   5.927   3.359  12.759  0.5999 -0.0625  0.0802
16903TIP3    H172124   5.929   3.432  12.821  0.4277  0.9663 -1.0850
16903TIP3    H272125   5.838   3.362  12.722  0.5396 -0.9748  0.1356
16904TIP3   OH272126   5.020   1.428   5.675  0.4797 -0.2228  0.4075
16904TIP3    H172127   4.974   1.391   5.600 -1.5805  0.0036  1.5041
16904TIP3    H272128   4.974   1.509   5.695  1.4389  0.0893  1.4890
16905TIP3   OH272129   5.307   5.728   3.377  0.4987 -0.4186 -0.4034
16905TIP3    H172130   5.235   5.685   3.332  0.1689 -1.4929  1.0766
16905TIP3    H272131   5.354   5.775   3.308 -0.8566 -0.7479 -1.5948
16906TIP3   OH272132   4.324   3.153  11.644 -0.2507  0.4645 -0.5399
16906TIP3    H172133   4.336   3.179  11.735  0.4366 -0.4606 -0.3487
16906TIP3    H272134   4.278   3.069  11.648 -0.1895  0.4003 -1.0444
16907TIP3   OH272135   1.087   3.625  15.180  0.9160  0.1578 -0.5826
16907TIP3    H172136   0.995   3.638  15.200  1.2318  1.3869  0.1616
16907TIP3    H272137   1.133   3.648  15.261  1.8592 -0.8134 -0.8153
16908TIP3   OH272138   0.244   0.459  16.490  0.2783 -0.0686  0.2141
16908TIP3    H172139   0.266   0.550  16.511 -1.0830  0.3496 -0.0659
16908TIP3    H272140   0.316   0.408  16.526  1.1492  1.1325  0.2312
16909TIP3   OH272141   3.500   2.138  13.350 -0.0533  0.4120  0.0912
16909TIP3    H172142   3.532   2.162  13.437  0.7471  0.4231 -0.1988
16909TIP3    H272143   3.491   2.222  13.304  0.4562  0.3341 -0.1505
16910TIP3   OH272144   6.762   3.297   0.266  0.5685 -0.7422  0.1470
16910TIP3    H172145   6.804   3.377   0.297  0.3410 -0.4872 -0.1882
16910TIP3    H272146   6.684   3.328   0.218  0.3832 -1.1710  0.1679
16911TIP3   OH272147   2.971   6.681  16.946 -0.8774  0.1247 -0.3914
16911TIP3    H172148   3.041   6.639  16.898 -1.0547  0.0936 -0.6233
16911TIP3    H272149   3.015   6.735  17.011 -0.6026  1.2939 -1.5171
16912TIP3   OH272150   0.888   2.456  17.376  0.1496  0.2142  0.0932
16912TIP3    H172151   0.970   2.433  17.420 -0.9394 -1.2457  1.4504
16912TIP3    H272152   0.847   2.372  17.354 -2.5469  0.7232  2.5079
16913TIP3   OH272153   6.438   0.532   2.303  0.4285 -0.6679  0.3266
16913TIP3    H172154   6.387   0.605   2.267  3.0366  1.1615  0.0649
16913TIP3    H272155   6.476   0.489   2.227  0.1927 -1.3334  0.5741
16914TIP3   OH272156   0.319   6.393   1.144 -0.7722  0.1308 -0.3227
16914TIP3    H172157   0.395   6.336   1.156 -1.8671 -0.8810  3.1903
16914TIP3    H272158   0.258   6.342   1.092 -0.5243 -0.6751  0.1576
16915TIP3   OH272159   5.536   4.410   0.865  0.2515  0.2094 -0.0856
16915TIP3    H172160   5.611   4.400   0.924  2.7652  0.3380 -2.9909
16915TIP3    H272161   5.552   4.492   0.820 -2.0813  0.5851 -0.3488
16916TIP3   OH272162   4.953   3.368  12.169  0.1091  0.1786 -0.6764
16916TIP3    H172163   4.901   3.289  12.185  0.8798 -0.0393  0.9992
16916TIP3    H272164   5.043   3.337  12.173  0.4068  1.0813 -0.3193
16917TIP3   OH272165   6.503   6.542  12.779  0.8251  0.4983  0.0141
16917TIP3    H172166   6.419   6.546  12.825  0.2510 -3.4030 -0.3444
16917TIP3    H272167   6.561   6.493  12.837  1.9998  0.7537 -0.8941
16918TIP3   OH272168   0.966   0.215   1.186 -0.2827 -0.1877  0.2997
16918TIP3    H172169   0.993   0.272   1.115  0.1939  1.9321  2.0652
16918TIP3    H272170   0.882   0.250   1.215  0.3385  0.1017  1.8584
16919TIP3   OH272171   2.089   6.430   0.710 -0.3938  0.7874  0.3931
16919TIP3    H172172   2.182   6.414   0.692 -0.1773  0.9430  1.3314
16919TIP3    H272173   2.083   6.525   0.724 -0.6048  0.7148  0.8062
16920TIP3   OH272174   5.843   4.531  16.953  0.0910  0.0867  0.2060
16920TIP3    H172175   5.917   4.546  17.012  0.2342  1.8736 -0.3617
16920TIP3    H272176   5.877   4.470  16.888  0.8038  0.2187  0.4444
16921TIP3   OH272177   5.277   0.941  13.403  0.1707  0.1176 -0.1119
16921TIP3    H172178   5.280   0.855  13.446  0.9941  0.0157 -0.3640
16921TIP3    H272179   5.367   0.974  13.409 -0.0121  0.7034 -0.5520
16922TIP3   OH272180   1.032   3.456  14.213 -0.0919  0.1146  0.3216
16922TIP3    H172181   1.089   3.455  14.136  0.1813 -0.3375  0.5232
16922TIP3    H272182   0.966   3.389  14.196  0.7586 -0.9518  1.0457
16923TIP3   OH272183   5.532   6.410  15.264 -0.0106 -0.2223  0.1458
16923TIP3    H172184   5.554   6.317  15.263  1.2425  0.0070  1.5379
16923TIP3    H272185   5.463   6.417  15.330  0.5975 -0.0733  0.7915
16924TIP3   OH272186   3.322   6.125  17.009  0.1208 -0.1582  0.2781
16924TIP3    H172187   3.343   6.195  17.071  0.3232  1.1090 -1.1459
16924TIP3    H272188   3.392   6.061  17.020 -0.0586 -0.1497  1.6059
16925TIP3   OH272189   0.406   0.212   4.922  0.6986  0.0378  0.1439
16925TIP3    H172190   0.398   0.201   5.017  1.5163  0.2093  0.2464
16925TIP3    H272191   0.477   0.276   4.911  0.9769 -0.3777 -0.5894
16926TIP3   OH272192   5.121   4.956  14.541 -0.5522 -0.3420 -0.1636
16926TIP3    H172193   5.070   4.948  14.621 -1.1388 -3.2630 -0.7313
16926TIP3    H272194   5.183   5.026  14.559 -0.4467 -1.1166  2.9600
16927TIP3   OH272195   3.239   0.676   0.193  0.3528  0.0644  0.0553
16927TIP3    H172196   3.222   0.763   0.157  0.1823 -0.7388 -1.9858
16927TIP3    H272197   3.151   0.638   0.205  0.4361 -0.0222  0.3879
16928TIP3   OH272198   4.104   4.648  13.790  0.3335  0.1042 -0.5235
16928TIP3    H172199   4.134   4.703  13.718 -0.7596 -0.7754 -1.7078
16928TIP3    H272200   4.177   4.588  13.806  0.5576  0.2513 -0.9696
16929TIP3   OH272201   6.460   1.321  12.742  0.0442 -0.6580  0.1716
16929TIP3    H172202   6.541   1.272  12.727  1.4618  1.7384 -0.5122
16929TIP3    H272203   6.490   1.409  12.764 -2.4029  0.1054  0.6757
16930TIP3   OH272204   3.214   0.297  12.793  0.4356 -0.5733  0.0753
16930TIP3    H172205   3.132   0.321  12.836 -0.0428 -1.7560 -0.1296
16930TIP3    H272206   3.188   0.234  12.725  1.5772 -1.4558  0.4209
16931TIP3   OH272207   0.068   3.761   1.396 -0.3575 -0.1303 -0.4855
16931TIP3    H172208   0.012   3.693   1.432 -1.1869  0.0850 -1.3363
16931TIP3    H272209   0.120   3.717   1.329  0.4669 -0.3136  0.2499
16932TIP3   OH272210   2.017   4.161   4.218  0.2491 -0.3172 -0.1638
16932TIP3    H172211   2.080   4.090   4.217  0.1611 -0.4171  0.8374
16932TIP3    H272212   1.955   4.137   4.287 -1.0885 -0.3981 -1.3400
16933TIP3   OH272213   3.500   2.650   0.555 -0.0924 -0.1982 -1.1674
16933TIP3    H172214   3.432   2.608   0.502 -1.4094  0.4356 -0.0480
16933TIP3    H272215   3.452   2.690   0.628  1.4489  0.6314 -0.5642
16934TIP3   OH272216   1.630   3.893  10.588 -0.2336  0.0651 -0.0985
16934TIP3    H172217   1.617   3.801  10.611 -0.0675  0.1433  0.3079
16934TIP3    H272218   1.558   3.912  10.528 -1.5508  0.2531  1.4685
16935TIP3   OH272219   0.585   5.296   4.931 -0.5230  0.1443  0.1240
16935TIP3    H172220   0.630   5.374   4.964 -0.3836 -0.0779  0.4632
16935TIP3    H272221   0.516   5.330   4.874 -1.4887  0.5866  1.5170
16936TIP3   OH272222   0.727   1.746  15.777  0.2998  0.0290 -0.6628
16936TIP3    H172223   0.681   1.669  15.810  0.1812  1.5814  3.2438
16936TIP3    H272224   0.797   1.762  15.840 -0.5325  3.8544 -0.4439
16937TIP3   OH272225   4.284   4.399   2.978  0.5026 -0.5242  0.5859
16937TIP3    H172226   4.286   4.483   3.023  0.2942  0.2545 -0.7848
16937TIP3    H272227   4.317   4.418   2.890 -0.2971 -1.6984 -0.0001
16938TIP3   OH272228   5.453   2.651  14.851  0.6273  0.7082 -0.3120
16938TIP3    H172229   5.483   2.741  14.860  3.2671 -0.2456  1.6110
16938TIP3    H272230   5.439   2.621  14.941 -0.5057 -0.7403 -0.9292
16939TIP3   OH272231   6.436   0.782   4.114  0.1496 -0.1753 -1.0247
16939TIP3    H172232   6.443   0.734   4.031 -1.9337  0.2028 -1.4808
16939TIP3    H272233   6.410   0.871   4.088 -4.5750 -0.9761  0.0006
16940TIP3   OH272234   3.683   1.401  15.722  0.2498  0.0545 -0.0854
16940TIP3    H172235   3.656   1.312  15.746 -1.7102  0.6127 -0.0609
16940TIP3    H272236   3.668   1.405  15.627 -2.0917  1.0770  0.2593
16941TIP3   OH272237   3.610   2.589  13.458  0.2541  0.1543  0.1101
16941TIP3    H172238   3.616   2.557  13.548 -0.2979 -0.2977 -0.0143
16941TIP3    H272239   3.550   2.663  13.463  1.2665  1.0023  0.3362
16942TIP3   OH272240   1.159   5.440  14.772  0.2645  0.0479  0.0139
16942TIP3    H172241   1.074   5.483  14.781 -1.1968 -2.5170 -0.4942
16942TIP3    H272242   1.184   5.416  14.861 -1.2973 -2.1932 -0.0832
16943TIP3   OH272243   4.234   2.584   0.787 -0.3056  0.0279 -0.0162
16943TIP3    H172244   4.300   2.602   0.720 -0.4576  0.3647 -0.0771
16943TIP3    H272245   4.281   2.592   0.870 -0.0882 -0.5134 -0.0860
16944TIP3   OH272246   0.251   1.898   3.835  0.4933  0.3060 -0.2697
16944TIP3    H172247   0.185   1.844   3.879 -0.3530  1.0217 -0.6283
16944TIP3    H272248   0.268   1.969   3.897 -0.0355  0.8242 -0.7082
16945TIP3   OH272249   1.799   0.412  11.002  0.1657  0.0752 -0.4420
16945TIP3    H172250   1.828   0.331  10.959 -0.6362 -0.0550 -0.7630
16945TIP3    H272251   1.724   0.385  11.056 -0.6972  0.7465 -1.2592
16946TIP3   OH272252   3.505   2.830   2.572  0.0881  0.0448 -0.1523
16946TIP3    H172253   3.482   2.809   2.662 -0.4050 -1.5102 -0.6104
16946TIP3    H272254   3.457   2.911   2.553  0.0594  0.2877  0.9138
16947TIP3   OH272255   1.207   5.530   1.311 -0.0254  0.2112  0.4152
16947TIP3    H172256   1.155   5.450   1.319  0.1400 -0.2248 -1.8993
16947TIP3    H272257   1.150   5.591   1.265  0.5865  0.6588  0.2367
16948TIP3   OH272258   4.054   6.431  11.073 -0.1584 -0.1597 -0.5676
16948TIP3    H172259   4.037   6.482  11.152 -0.5495 -0.7700 -0.2497
16948TIP3    H272260   3.967   6.412  11.037  0.0348  0.7314 -1.5566
16949TIP3   OH272261   2.583   5.318  12.613  0.1501 -0.1591  0.0472
16949TIP3    H172262   2.524   5.243  12.623  0.2986 -0.5139 -1.4965
16949TIP3    H272263   2.539   5.374  12.550  1.5180 -0.5205 -1.2911
16950TIP3   OH272264   1.192   6.703  10.831  0.3287 -0.3276 -0.3656
16950TIP3    H172265   1.162   6.637  10.768  1.3780 -1.3011  0.1268
16950TIP3    H272266   1.173   6.787  10.788 -0.5702 -0.9426 -1.2210
16951TIP3   OH272267   2.312   2.770  11.347 -0.4442 -0.2529 -0.3424
16951TIP3    H172268   2.257   2.847  11.330 -1.5078 -0.7068  0.8877
16951TIP3    H272269   2.376   2.801  11.411  0.9341  0.3279 -1.9141
16952TIP3   OH272270   1.346   6.339  15.662 -0.5847  0.3487 -0.0431
16952TIP3    H172271   1.431   6.347  15.619 -1.3982 -2.4197 -2.4526
16952TIP3    H272272   1.299   6.419  15.638 -0.4344 -0.3766 -3.1859
16953TIP3   OH272273   3.004   2.912  12.938  0.2518 -0.1623  0.0560
16953TIP3    H172274   2.989   2.949  12.851 -0.0631 -0.5339 -0.0491
16953TIP3    H272275   2.990   2.986  12.998  2.7327  0.7048 -0.3161
16954TIP3   OH272276   6.679   3.581   3.456 -0.1098  0.1137  0.1143
16954TIP3    H172277   6.769   3.568   3.428  0.1592 -0.7709  1.3299
16954TIP3    H272278   6.628   3.582   3.375  1.1655  2.5544 -0.7770
16955TIP3   OH272279   3.028   4.296  12.374  0.3370 -0.3609 -0.1808
16955TIP3    H172280   3.103   4.241  12.352 -0.4396 -1.7393  0.4898
16955TIP3    H272281   3.067   4.375  12.412  1.4719 -0.6696 -0.6499
16956TIP3   OH272282   5.022   5.326   1.428  0.0987 -0.9897  0.2437
16956TIP3    H172283   5.011   5.400   1.368 -0.8055 -0.9584  0.4413
16956TIP3    H272284   5.038   5.367   1.514  2.7990 -1.0105 -0.1470
16957TIP3   OH272285   0.540   2.623   3.384  0.2028  0.4247  0.2290
16957TIP3    H172286   0.451   2.653   3.403 -0.4279  0.0714 -1.8556
16957TIP3    H272287   0.579   2.695   3.335  0.6623  0.1145  0.1353
16958TIP3   OH272288   5.616   5.759  15.520 -0.2184  0.3671 -0.0641
16958TIP3    H172289   5.638   5.772  15.428 -0.4593  0.8954 -0.0533
16958TIP3    H272290   5.633   5.667  15.537 -0.0685  0.2958 -0.6098
16959TIP3   OH272291   2.558   0.538  14.050 -0.0274 -0.1373 -0.1363
16959TIP3    H172292   2.649   0.509  14.058  0.9180  2.8236  1.7792
16959TIP3    H272293   2.514   0.499  14.126 -0.1451 -0.8867 -0.5877
16960TIP3   OH272294   6.140   0.873  17.312  0.6006 -0.1173 -1.2123
16960TIP3    H172295   6.073   0.918  17.262 -0.9503 -0.1814  0.6760
16960TIP3    H272296   6.170   0.938  17.376  0.1522 -0.9790 -0.0956
16961TIP3   OH272297   4.154   3.407  16.208 -0.1742 -0.2382 -0.0050
16961TIP3    H172298   4.125   3.498  16.207  1.8606  0.4878  0.7703
16961TIP3    H272299   4.164   3.386  16.301 -1.3137 -1.5113 -0.1521
16962TIP3   OH272300   3.477   5.634   0.963  0.2304  0.3652  0.5981
16962TIP3    H172301   3.414   5.605   0.897  0.9531  0.9178 -0.3600
16962TIP3    H272302   3.556   5.582   0.946  1.6497  2.9433 -1.3356
16963TIP3   OH272303   0.759   5.787   4.014 -0.5451 -0.6101  0.0322
16963TIP3    H172304   0.800   5.701   4.022 -3.8864 -2.2214  1.7805
16963TIP3    H272305   0.801   5.839   4.083 -1.0612 -2.0553  1.5141
16964TIP3   OH272306   3.853   3.123   4.446 -0.3656  0.1867  0.1521
16964TIP3    H172307   3.826   3.097   4.534  1.7058 -1.1740  0.4386
16964TIP3    H272308   3.772   3.119   4.394 -0.9786 -2.6450  1.1563
16965TIP3   OH272309   4.734   1.937  11.369  0.2768  0.2609 -0.1858
16965TIP3    H172310   4.724   1.857  11.317  1.1216 -1.9322  2.7218
16965TIP3    H272311   4.818   1.973  11.343 -0.2505  0.4431 -1.7514
16966TIP3   OH272312   4.894   6.257  12.508  0.5022  0.2189 -0.7220
16966TIP3    H172313   4.929   6.335  12.465  1.7278 -0.1123 -0.3554
16966TIP3    H272314   4.896   6.189  12.440 -0.4440  0.4540 -1.0041
16967TIP3   OH272315   1.167   2.152  15.785 -0.5307 -0.1384 -0.8178
16967TIP3    H172316   1.224   2.080  15.759  0.0012 -0.8482  1.9514
16967TIP3    H272317   1.226   2.226  15.800 -0.8973  0.4461 -2.1184
16968TIP3   OH272318   6.229   2.837   0.754  0.7094 -0.2789 -0.4367
16968TIP3    H172319   6.215   2.866   0.844  0.4412  1.3456 -0.9670
16968TIP3    H272320   6.190   2.906   0.700 -1.1516 -2.2745 -1.8126
16969TIP3   OH272321   3.045   6.124   2.571 -0.0013 -0.3670 -0.2222
16969TIP3    H172322   3.031   6.040   2.616 -1.6416 -1.4085 -2.4777
16969TIP3    H272323   3.092   6.100   2.491  0.5482  1.0756 -0.3608
16970TIP3   OH272324   4.367   0.597   5.062 -0.4081  0.3954 -0.1019
16970TIP3    H172325   4.440   0.573   5.005  0.0341 -0.9834  0.9867
16970TIP3    H272326   4.363   0.692   5.057  0.7630  0.4216 -1.0251
16971TIP3   OH272327   0.699   4.349   0.546  0.6639 -0.5908 -0.5492
16971TIP3    H172328   0.676   4.375   0.457  1.6402 -0.4189 -0.7662
16971TIP3    H272329   0.664   4.418   0.602  0.8888 -0.2036 -0.8836
16972TIP3   OH272330   4.972   0.025   2.299 -0.2077  0.1587  0.1263
16972TIP3    H172331   4.905  -0.012   2.356  0.0287  0.7654  0.8162
16972TIP3    H272332   4.943   0.003   2.210 -0.3122 -1.2336  0.4922
16973TIP3   OH272333   3.535   4.821  14.946 -0.0022 -0.4597  0.3842
16973TIP3    H172334   3.631   4.819  14.950  0.1529  1.5756 -1.0307
16973TIP3    H272335   3.512   4.745  14.892  0.8284 -0.7771  0.4587
16974TIP3   OH272336   2.448   2.581   3.275 -0.3161 -0.1317  0.7648
16974TIP3    H172337   2.490   2.603   3.359  0.0657 -1.0594  0.8318
16974TIP3    H272338   2.517   2.535   3.226 -0.4382  0.6883 -0.1887
16975TIP3   OH272339   6.541   5.718   4.549 -0.3709 -0.7377  0.2388
16975TIP3    H172340   6.452   5.699   4.519 -0.2815 -1.0534  0.1702
16975TIP3    H272341   6.584   5.632   4.552 -0.3974 -0.7184  1.3361
16976TIP3   OH272342   1.505   2.223  12.581 -0.3185 -0.2550 -0.2893
16976TIP3    H172343   1.467   2.179  12.506  0.9461 -0.0175 -1.1123
16976TIP3    H272344   1.598   2.198  12.580 -0.6780 -2.2385  2.6514
16977TIP3   OH272345   2.359   4.033  11.093  0.0230  0.4410  0.0450
16977TIP3    H172346   2.448   4.006  11.115 -0.2172 -0.5612 -0.1582
16977TIP3    H272347   2.363   4.056  11.000 -0.3094 -1.3665 -0.4386
16978TIP3   OH272348   3.088   3.994  14.917 -0.0169  0.3449 -0.2474
16978TIP3    H172349   3.129   4.079  14.931 -0.9472  0.6084  1.1381
16978TIP3    H272350   3.100   3.948  15.000 -1.2156 -0.1036 -0.2952
16979TIP3   OH272351   2.337   2.101   1.711 -0.0565  0.0766 -0.1527
16979TIP3    H172352   2.323   2.186   1.669 -0.1282  0.2390  0.1973
16979TIP3    H272353   2.417   2.067   1.670 -0.7201 -0.2604 -1.2074
16980TIP3   OH272354   3.463   3.217  14.393  0.0575 -0.4904  0.3720
16980TIP3    H172355   3.529   3.244  14.330  0.2442 -1.0312  0.3307
16980TIP3    H272356   3.465   3.285  14.461 -0.0582  0.0234 -0.1353
16981TIP3   OH272357   5.518   2.924   6.086 -0.4818 -0.7510 -0.1770
16981TIP3    H172358   5.586   2.944   6.022  0.0046  0.7664  0.7710
16981TIP3    H272359   5.552   2.849   6.135  1.5967  1.3192  1.7489
16982TIP3   OH272360   4.579   3.432   1.772 -0.9129  0.3981  0.0920
16982TIP3    H172361   4.528   3.512   1.775 -1.3755  0.1123 -0.0873
16982TIP3    H272362   4.596   3.417   1.679 -0.9561  0.2077  0.1138
16983TIP3   OH272363   6.211   5.879   4.778 -0.3032 -0.1737 -0.3754
16983TIP3    H172364   6.218   5.846   4.868 -0.7236  0.8219  0.0393
16983TIP3    H272365   6.176   5.805   4.728  0.9135 -1.0836  0.0545
16984TIP3   OH272366   3.457   6.632   4.075 -0.0069 -0.8735 -0.5436
16984TIP3    H172367   3.458   6.625   4.170 -0.9448  1.3821 -0.3172
16984TIP3    H272368   3.441   6.542   4.045  0.5428 -1.6704  1.3827
16985TIP3   OH272369   4.929   3.695   3.345  0.0989 -0.5696 -0.3141
16985TIP3    H172370   5.019   3.717   3.368 -0.0998 -1.7747  1.7666
16985TIP3    H272371   4.927   3.600   3.339 -0.8293 -0.5122 -1.3318
16986TIP3   OH272372   0.698   3.677   6.071  0.0423 -0.1853 -0.5008
16986TIP3    H172373   0.673   3.677   6.163 -0.7965  1.5737 -0.6931
16986TIP3    H272374   0.774   3.618   6.067 -1.4948 -2.4382  0.8091
16987TIP3   OH272375   6.731   1.413   1.877  0.1844 -0.3515  0.4360
16987TIP3    H172376   6.660   1.396   1.816  1.9013  0.1985 -1.8505
16987TIP3    H272377   6.759   1.503   1.858  2.8027 -1.2152 -0.2673
16988TIP3   OH272378   1.685   3.884  15.321 -0.4932  0.0749 -0.2777
16988TIP3    H172379   1.655   3.972  15.344 -0.3275 -0.0030  0.2515
16988TIP3    H272380   1.669   3.832  15.399 -0.0256 -0.2238 -0.3753
16989TIP3   OH272381   5.041   2.563  14.476  0.1672 -0.0234  0.2396
16989TIP3    H172382   4.979   2.493  14.498  0.5006 -0.7900 -1.1453
16989TIP3    H272383   5.100   2.567  14.551  0.9177 -2.1309 -0.1662
16990TIP3   OH272384   1.637   0.406   4.941  0.2258 -0.1914  0.2360
16990TIP3    H172385   1.552   0.436   4.908  1.0857 -0.6609 -2.7039
16990TIP3    H272386   1.623   0.393   5.035 -2.0026  2.9504  0.5228
16991TIP3   OH272387   1.809   0.547  11.800 -1.2724  0.3715 -0.3714
16991TIP3    H172388   1.782   0.598  11.723  0.5156  0.3340 -1.0699
16991TIP3    H272389   1.802   0.456  11.773  1.2403  0.3854 -1.2181
16992TIP3   OH272390   1.479   5.708  11.419  0.4744 -0.1743  0.5243
16992TIP3    H172391   1.413   5.672  11.478 -1.1916  1.4761 -0.2401
16992TIP3    H272392   1.545   5.745  11.476 -0.2456 -0.1344  1.3470
16993TIP3   OH272393   0.762   2.419   5.318 -0.4631  0.1515  0.5500
16993TIP3    H172394   0.737   2.352   5.381 -0.1742 -0.4053  0.0810
16993TIP3    H272395   0.758   2.375   5.233  1.5082  0.1789  0.3929
16994TIP3   OH272396   2.133   3.854  14.188 -0.2338 -0.4188  0.1370
16994TIP3    H172397   2.204   3.897  14.142 -0.0613 -0.3787  0.4392
16994TIP3    H272398   2.092   3.923  14.240 -0.0039 -0.5984  0.5651
16995TIP3   OH272399   3.317   4.667   6.057 -0.3783 -0.1242 -0.3975
16995TIP3    H172400   3.389   4.636   6.002  0.4489  0.1151  0.5111
16995TIP3    H272401   3.280   4.587   6.095 -0.0502 -0.2005 -0.2323
16996TIP3   OH272402   6.133   6.303  16.172  0.1883  0.2729  0.3432
16996TIP3    H172403   6.075   6.246  16.121  0.7046  1.3496 -1.5463
16996TIP3    H272404   6.074   6.364  16.215 -0.2319 -0.2416  0.5030
16997TIP3   OH272405   5.407   0.892   5.726 -0.5056 -0.5552 -0.6550
16997TIP3    H172406   5.399   0.983   5.700  1.2897 -0.7702 -2.1531
16997TIP3    H272407   5.382   0.891   5.818 -2.4325  1.0822 -1.0816
16998TIP3   OH272408   0.612   5.188   5.196 -0.6396  0.2407 -0.1357
16998TIP3    H172409   0.516   5.180   5.200 -0.5489 -0.3784  1.1866
16998TIP3    H272410   0.629   5.216   5.106 -2.0400  0.0597 -0.4891
16999TIP3   OH272411   6.300   5.852   0.040  0.9919  0.0728 -0.6746
16999TIP3    H172412   6.209   5.875   0.061  0.7583 -1.0464 -0.4326
16999TIP3    H272413   6.300   5.840  -0.055  0.5548 -1.3002 -0.5169
17000TIP3   OH272414   4.290   2.738   2.926  0.3906 -0.9722  0.0824
17000TIP3    H172415   4.246   2.748   3.010 -3.4731 -1.0281 -1.7203
17000TIP3    H272416   4.329   2.650   2.929 -0.4688 -1.3256  1.4817
17001TIP3   OH272417   5.761   2.692   5.079  0.3014 -0.5020 -0.2111
17001TIP3    H172418   5.782   2.707   4.987 -0.0004 -0.7863 -0.3274
17001TIP3    H272419   5.722   2.605   5.082 -1.0299  0.0729 -0.0393
17002TIP3   OH272420   0.670   0.977   1.239 -0.2795  0.2310  0.3451
17002TIP3    H172421   0.677   0.930   1.322 -0.0056 -0.5964 -0.1367
17002TIP3    H272422   0.746   1.035   1.238 -0.9549  1.1841  1.2239
17003TIP3   OH272423   5.421   3.530  12.182 -0.3456  0.6108  0.3234
17003TIP3    H172424   5.400   3.623  12.191 -0.5699  0.8506 -2.1002
17003TIP3    H272425   5.514   3.524  12.203 -0.5432  1.2054  1.4156
17004TIP3   OH272426   1.512   3.252  13.985 -0.3562 -0.7834  0.7628
17004TIP3    H172427   1.434   3.198  13.997 -1.2347  0.3651  0.3573
17004TIP3    H272428   1.484   3.323  13.928 -0.1011  1.8663  3.7049
17005TIP3   OH272429   0.204   5.357  15.153 -0.2982  0.1807  0.7897
17005TIP3    H172430   0.113   5.374  15.177 -0.5970 -0.0408 -0.1626
17005TIP3    H272431   0.249   5.345  15.237 -1.2585 -0.2757  1.2495
17006TIP3   OH272432   6.388   3.434  16.144 -0.3255 -0.7791 -0.3476
17006TIP3    H172433   6.436   3.516  16.131 -0.2963 -0.8508 -0.6850
17006TIP3    H272434   6.456   3.366  16.143 -0.0356 -0.6259  2.2275
17007TIP3   OH272435   5.738   5.701  12.544  0.8987 -1.2759 -0.2325
17007TIP3    H172436   5.666   5.639  12.559  0.1066 -0.3665 -0.1869
17007TIP3    H272437   5.796   5.689  12.619  0.0154 -0.9586  0.5210
17008TIP3   OH272438   4.381   0.884   0.695  0.3015  0.4229  0.4804
17008TIP3    H172439   4.402   0.942   0.622  0.9182 -0.0828  0.2417
17008TIP3    H272440   4.463   0.878   0.745  0.2580 -0.2597  0.4817
17009TIP3   OH272441   0.598   2.714   2.792  0.5095  0.2775  0.2950
17009TIP3    H172442   0.693   2.712   2.778  0.5313 -0.6685  0.5004
17009TIP3    H272443   0.566   2.632   2.753 -0.4680  1.3750 -1.3475
17010TIP3   OH272444   4.383   2.302  12.122  0.0979 -0.1342 -0.2076
17010TIP3    H172445   4.411   2.294  12.031 -1.3373 -0.3588 -0.6585
17010TIP3    H272446   4.443   2.366  12.160  0.8795 -0.2298 -1.2389
17011TIP3   OH272447   1.699   0.129  13.523  0.1194 -0.0452 -0.4452
17011TIP3    H172448   1.659   0.119  13.437  1.8324 -0.5102 -1.2160
17011TIP3    H272449   1.669   0.053  13.573 -2.1669  1.0243 -0.0397
17012TIP3   OH272450   1.574   6.005   2.796  1.0765 -0.1642 -0.2528
17012TIP3    H172451   1.654   6.057   2.807  0.2620  0.9018  1.0100
17012TIP3    H272452   1.556   5.971   2.884 -1.3700  2.0054  0.2178
17013TIP3   OH272453   5.044   2.811  11.923 -0.2847  0.4847  0.2577
17013TIP3    H172454   5.080   2.735  11.969  1.1952  1.3758  0.6330
17013TIP3    H272455   4.967   2.835  11.975  0.4983  0.5561  1.4320
17014TIP3   OH272456   3.020   0.495   1.361  0.1257  0.6001  0.0045
17014TIP3    H172457   2.924   0.501   1.363  0.1737  1.5406  1.9533
17014TIP3    H272458   3.038   0.402   1.348 -1.1190 -0.0270  2.2985
17015TIP3   OH272459   2.354   4.328   2.278 -0.3468  0.4824 -0.2669
17015TIP3    H172460   2.367   4.390   2.206  0.7493 -1.1122 -1.5095
17015TIP3    H272461   2.282   4.272   2.249  1.4401 -1.4838 -1.1414
17016TIP3   OH272462   0.245   0.515   3.305 -0.2894 -0.2009  0.5164
17016TIP3    H172463   0.324   0.552   3.266  0.2583 -0.9344  0.8951
17016TIP3    H272464   0.269   0.425   3.327 -1.7267 -0.9594 -0.8279
17017TIP3   OH272465   5.703   2.913  12.199 -0.3143  0.9522 -0.2052
17017TIP3    H172466   5.697   2.952  12.286 -1.8792  0.6901 -0.1686
17017TIP3    H272467   5.687   2.986  12.139 -0.2120  0.9392 -0.2494
17018TIP3   OH272468   3.902   2.363  12.481 -0.0179 -0.2037 -0.1905
17018TIP3    H172469   3.930   2.372  12.390  0.4784  0.8240  0.0547
17018TIP3    H272470   3.818   2.408  12.485  0.1285  0.0599 -0.0646
17019TIP3   OH272471   2.574   3.876  13.547  0.2384  0.0917 -0.2775
17019TIP3    H172472   2.545   3.957  13.505  0.8088 -0.7898 -2.5197
17019TIP3    H272473   2.494   3.826  13.562 -0.3217  1.6380  2.6469
17020TIP3   OH272474   4.688   1.040  16.001 -0.0842 -0.0671  0.1943
17020TIP3    H172475   4.729   1.091  15.931  1.1838 -0.2826  0.7482
17020TIP3    H272476   4.740   1.060  16.079  0.0506 -1.7052  0.5687
17021TIP3   OH272477   0.229   4.854  11.532 -0.3463 -1.0289 -0.1279
17021TIP3    H172478   0.176   4.789  11.577  0.0570 -0.1649  1.6734
17021TIP3    H272479   0.193   4.938  11.561  2.1118 -0.4032  1.3835
17022TIP3   OH272480   2.303   6.211   3.805 -0.1613 -0.1373  0.3406
17022TIP3    H172481   2.315   6.122   3.772  0.6256  0.0231  0.1684
17022TIP3    H272482   2.277   6.262   3.728 -0.5472 -0.2063  0.4255
17023TIP3   OH272483   3.105   6.749  14.129 -0.2112  0.7765 -0.4386
17023TIP3    H172484   3.052   6.746  14.209  1.5901  0.5371  0.8042
17023TIP3    H272485   3.084   6.668  14.083  0.3541 -0.1781  0.9235
17024TIP3   OH272486   1.432   2.449  13.008  1.3857 -0.2108 -0.0837
17024TIP3    H172487   1.391   2.447  13.094 -0.7321  1.0244 -0.9792
17024TIP3    H272488   1.447   2.357  12.986 -0.0800 -0.6521  0.6794
17025TIP3   OH272489   6.223   6.204   1.615  0.4602  0.2801  0.1013
17025TIP3    H172490   6.143   6.185   1.664 -0.0858  1.0147 -0.4896
17025TIP3    H272491   6.288   6.225   1.683 -0.4764  2.0176  0.5216
17026TIP3   OH272492   2.708   2.353   5.334 -0.5312 -0.3016 -0.1088
17026TIP3    H172493   2.744   2.286   5.393 -0.5680  1.1338  1.6524
17026TIP3    H272494   2.769   2.354   5.260  0.1156 -1.4772  0.3594
17027TIP3   OH272495   3.328   1.026  10.832 -0.2404 -0.4229 -0.5413
17027TIP3    H172496   3.407   0.997  10.878 -1.2075 -2.5363 -0.1167
17027TIP3    H272497   3.342   1.000  10.741  0.9164  2.2160 -1.2440
17028TIP3   OH272498   4.239   2.043  17.245 -0.0749 -0.2691  0.0288
17028TIP3    H172499   4.273   2.072  17.161 -0.5606  0.2642  0.0100
17028TIP3    H272500   4.242   2.121  17.300 -2.7598  0.2633 -0.4422
17029TIP3   OH272501   2.435   2.436   0.994  0.3783  0.5361 -0.4652
17029TIP3    H172502   2.501   2.397   1.051 -1.1161  0.9394  1.6795
17029TIP3    H272503   2.446   2.531   1.007 -0.4759  0.6083 -0.2482
17030TIP3   OH272504   3.585   3.240  13.742 -0.0417  0.4155 -0.0997
17030TIP3    H172505   3.610   3.277  13.657 -0.4779  0.2822 -0.2906
17030TIP3    H272506   3.498   3.204  13.727  0.4750 -0.9336  0.0038
17031TIP3   OH272507   3.195   2.285  13.350  0.1341  0.1911  0.0811
17031TIP3    H172508   3.139   2.346  13.398 -0.2236 -0.2407  0.2198
17031TIP3    H272509   3.221   2.220  13.416 -1.9191 -1.5274 -0.6703
17032TIP3   OH272510   2.292   5.273  16.281 -0.2915  0.0545 -0.1472
17032TIP3    H172511   2.200   5.247  16.284 -0.2899  0.0594  2.8846
17032TIP3    H272512   2.290   5.368  16.269 -0.6710  0.0646 -0.0113
17033TIP3   OH272513   4.695   4.383  13.564 -0.6619  0.0541  0.2448
17033TIP3    H172514   4.683   4.321  13.491  4.2098 -2.2282  0.9254
17033TIP3    H272515   4.754   4.450  13.528 -1.2866  1.0817  1.0984
17034TIP3   OH272516   0.725   4.371  15.044  0.1394 -0.8586  0.1893
17034TIP3    H172517   0.743   4.344  14.954 -1.0416 -0.2258 -0.2524
17034TIP3    H272518   0.777   4.450  15.057 -2.0971  0.9205 -1.0551
17035TIP3   OH272519   3.420   5.507   4.813  0.3713 -0.3241 -0.0687
17035TIP3    H172520   3.330   5.511   4.781 -0.0834 -0.7495  1.1322
17035TIP3    H272521   3.459   5.432   4.767  0.1750 -0.0486 -0.7018
17036TIP3   OH272522   5.988   2.048  14.096 -0.4677  1.0966  0.1943
17036TIP3    H172523   5.941   2.126  14.067 -0.4976  1.5796  1.4743
17036TIP3    H272524   6.016   2.069  14.186  1.3895  0.4690 -0.1964
17037TIP3   OH272525   1.169   4.145   1.944 -0.0507 -0.0565 -0.0080
17037TIP3    H172526   1.231   4.087   1.901 -1.5281 -0.6436 -1.4703
17037TIP3    H272527   1.214   4.175   2.023  2.6312  0.7367 -1.7220
17038TIP3   OH272528   1.813   2.267  12.815  0.5944  0.1775 -0.4341
17038TIP3    H172529   1.841   2.307  12.898  0.6473  1.2038 -0.9399
17038TIP3    H272530   1.717   2.263  12.821  0.6654 -1.3691  0.3891
17039TIP3   OH272531   1.856   3.047  14.828  0.1041 -0.0217  0.0391
17039TIP3    H172532   1.876   3.139  14.814  0.1662 -0.0470 -0.0389
17039TIP3    H272533   1.820   3.016  14.745  0.9943 -0.3080 -0.2457
17040TIP3   OH272534   4.392   1.198   0.813 -0.6245 -0.3140  0.2602
17040TIP3    H172535   4.326   1.267   0.808 -1.5681 -1.2288 -0.2933
17040TIP3    H272536   4.342   1.117   0.817  0.4663 -1.0470 -0.4122
17041TIP3   OH272537   6.463   5.972   4.705 -0.4225  0.5161  0.4616
17041TIP3    H172538   6.375   5.948   4.736 -0.2087 -0.6938  0.1550
17041TIP3    H272539   6.489   5.900   4.649  0.9088  0.7089  0.8066
17042TIP3   OH272540   0.295   6.638  14.774 -0.2058 -0.1092 -0.9651
17042TIP3    H172541   0.386   6.667  14.763 -0.5821  0.9440 -1.4989
17042TIP3    H272542   0.243   6.710  14.738 -1.3615  0.4115  1.5385
17043TIP3   OH272543   0.216   2.235  12.677 -0.1570  0.2321 -0.6982
17043TIP3    H172544   0.206   2.170  12.746 -0.8144  0.4573 -0.5681
17043TIP3    H272545   0.310   2.250  12.671 -0.1192  0.5164  0.4279
17044TIP3   OH272546   0.670   2.477   5.032  0.1147 -0.6806 -0.3386
17044TIP3    H172547   0.736   2.487   4.964  0.0553  2.0352 -0.0687
17044TIP3    H272548   0.609   2.411   4.996  0.2707  0.4175 -2.7861
17045TIP3   OH272549   4.573   1.287   5.584  0.5796  0.5495 -0.7208
17045TIP3    H172550   4.606   1.353   5.523  1.8783  1.9356  1.3680
17045TIP3    H272551   4.639   1.217   5.581 -0.6513 -0.6229 -2.7158
17046TIP3   OH272552   6.596   1.844   5.011 -0.3629 -0.4879 -0.5405
17046TIP3    H172553   6.625   1.764   4.967  1.9813  0.0414 -0.1359
17046TIP3    H272554   6.648   1.846   5.091 -1.0183  1.0023 -0.1334
17047TIP3   OH272555   2.090   0.434  13.993 -0.3515  0.5616 -0.7034
17047TIP3    H172556   2.101   0.522  14.028 -0.1754  1.0382 -1.9167
17047TIP3    H272557   2.049   0.447  13.907 -0.5632 -0.5493 -0.7820
17048TIP3   OH272558   6.023   3.892  15.623 -0.2847 -0.4712  0.8107
17048TIP3    H172559   6.040   3.903  15.716 -0.4609 -1.0089  0.9075
17048TIP3    H272560   6.103   3.853  15.588 -0.3134 -0.5070  0.7844
17049TIP3   OH272561   1.734   2.991   6.438 -0.0222  0.2911 -0.6430
17049TIP3    H172562   1.794   3.065   6.426 -1.2701  1.2955 -0.9795
17049TIP3    H272563   1.647   3.031   6.432 -0.7239 -1.0183  0.4777
17050TIP3   OH272564   4.659   3.099   2.286  0.7686 -0.2454  0.1069
17050TIP3    H172565   4.569   3.068   2.270  1.0054 -0.3922 -1.0477
17050TIP3    H272566   4.653   3.148   2.368  0.1321 -2.3006  1.3725
17051TIP3   OH272567   2.210   0.544   3.824  0.3272  0.1982 -0.1152
17051TIP3    H172568   2.164   0.531   3.907  1.4279  0.6525  0.5749
17051TIP3    H272569   2.182   0.469   3.770 -1.6526  0.7558  0.0548
17052TIP3   OH272570   2.823   1.689   3.693  0.3136  0.5536 -0.2710
17052TIP3    H172571   2.772   1.639   3.630  0.0670  0.9097 -0.3597
17052TIP3    H272572   2.888   1.628   3.726 -0.3374  0.0221  0.0384
17053TIP3   OH272573   1.990   4.899  13.530 -0.5852  0.0309 -0.3131
17053TIP3    H172574   1.942   4.976  13.500 -0.6181 -0.3579 -1.2997
17053TIP3    H272575   1.970   4.892  13.623  2.3154  3.3608  0.7811
17054TIP3   OH272576   3.011   3.326   3.678  0.1020 -0.1632  0.4973
17054TIP3    H172577   3.030   3.259   3.613 -1.2499  0.1399 -0.2538
17054TIP3    H272578   3.039   3.408   3.638  0.0972 -0.0733  0.6733
17055TIP3   OH272579   0.858   4.534   3.432 -0.5025 -0.4130  0.6516
17055TIP3    H172580   0.840   4.578   3.515  0.4062 -0.7017  1.0245
17055TIP3    H272581   0.798   4.574   3.369 -1.1299 -0.1126  1.4230
17056TIP3   OH272582   5.821   6.522   7.246  0.3622  0.2276 -0.7829
17056TIP3    H172583   5.876   6.499   7.170  1.0410 -0.5273 -0.0814
17056TIP3    H272584   5.862   6.476   7.319  0.4761  1.9762  0.2961
17057TIP3   OH272585   2.546   6.094  11.994  0.1419  0.0254  0.0298
17057TIP3    H172586   2.563   6.120  12.084  0.7033  0.8261 -0.2983
17057TIP3    H272587   2.625   6.046  11.968 -1.0176 -2.4548  0.7505
17058TIP3   OH272588   3.472   5.264   3.548 -0.0635  0.0451  0.4115
17058TIP3    H172589   3.411   5.256   3.475  1.4803  0.8024 -1.0088
17058TIP3    H272590   3.447   5.345   3.592 -0.1143  0.3123 -0.1133
17059TIP3   OH272591   0.676   1.822  14.527 -0.0218 -0.2308 -0.0569
17059TIP3    H172592   0.757   1.871  14.534  0.3639 -0.9482  0.6878
17059TIP3    H272593   0.680   1.780  14.441 -0.1427  0.6526 -0.4981
17060TIP3   OH272594   2.378   4.916   2.998 -0.1688 -1.0796 -0.1351
17060TIP3    H172595   2.455   4.861   2.988 -0.7263 -1.5777 -1.9689
17060TIP3    H272596   2.364   4.954   2.911 -0.7575  0.6908  0.6825
17061TIP3   OH272597   2.529   0.452   5.622  0.4318  0.5016  0.3216
17061TIP3    H172598   2.459   0.506   5.657  0.8165  1.4249 -0.3060
17061TIP3    H272599   2.594   0.449   5.692  0.3768  0.7945  0.3839
17062TIP3   OH272600   2.044   1.132  15.811  0.2250 -0.8988 -0.4406
17062TIP3    H172601   2.137   1.154  15.807 -0.0935  0.9922  1.1302
17062TIP3    H272602   2.019   1.119  15.719  1.8540 -0.6754 -0.9513
17063TIP3   OH272603   2.044   0.726   2.180 -0.3387  0.6885  0.2369
17063TIP3    H172604   2.113   0.780   2.143 -0.4920  0.2495 -0.7379
17063TIP3    H272605   1.982   0.788   2.219 -0.3717  1.2075 -0.6174
17064TIP3   OH272606   0.442   5.325   4.075  0.1781  0.1573 -0.5002
17064TIP3    H172607   0.352   5.326   4.108  0.4000 -2.9456  0.4655
17064TIP3    H272608   0.434   5.341   3.981 -1.4459 -0.5133 -0.5015
17065TIP3   OH272609   4.128   4.242  11.911  0.4848  0.8588  0.0810
17065TIP3    H172610   4.140   4.337  11.916  0.4960  0.9550 -1.3341
17065TIP3    H272611   4.162   4.209  11.994 -0.1223  2.1456  0.8777
17066TIP3   OH272612   4.950   2.280  14.272 -0.6380 -0.0879  0.0871
17066TIP3    H172613   5.044   2.289  14.254 -1.1327  2.3113 -1.9477
17066TIP3    H272614   4.939   2.316  14.360  0.0930  2.1411 -0.6634
17067TIP3   OH272615   4.358   6.513  12.379 -0.6646 -0.4871  0.3609
17067TIP3    H172616   4.379   6.552  12.294 -1.7568  1.0449  0.7557
17067TIP3    H272617   4.419   6.555  12.440 -0.9322 -0.4000  0.5721
17068TIP3   OH272618   4.288   1.479   4.881 -0.5154  0.0025  0.2968
17068TIP3    H172619   4.202   1.465   4.841 -1.1033 -1.2485  1.9239
17068TIP3    H272620   4.282   1.564   4.923 -0.9064 -0.0129  0.2689
17069TIP3   OH272621   2.351   4.993   2.070  0.1286  0.3081 -0.5645
17069TIP3    H172622   2.271   4.940   2.067  0.1269  0.3449 -1.4758
17069TIP3    H272623   2.337   5.054   2.142 -0.2504 -0.3318 -0.0844
17070TIP3   OH272624   5.219   0.179  13.980  0.3256  0.1258  0.1152
17070TIP3    H172625   5.291   0.220  13.932  1.9583  0.0816  2.3621
17070TIP3    H272626   5.208   0.093  13.939  1.5417  0.1571 -0.3002
17071TIP3   OH272627   3.479   3.071  12.436 -0.0238  0.4914  0.4584
17071TIP3    H172628   3.420   3.118  12.495 -1.6877 -0.1625 -0.6464
17071TIP3    H272629   3.423   3.012  12.386  1.4461  0.4001 -1.1922
17072TIP3   OH272630   1.314   6.436  17.354  0.1204  1.1016 -0.5722
17072TIP3    H172631   1.225   6.402  17.368 -0.1167  1.1574 -1.8464
17072TIP3    H272632   1.364   6.403  17.429 -0.9419  0.9788  0.1106
17073TIP3   OH272633   5.133   6.272  13.946 -0.1351 -0.8475 -0.4435
17073TIP3    H172634   5.097   6.352  13.908 -0.4909 -0.9326 -0.2857
17073TIP3    H272635   5.192   6.238  13.879  3.1467  1.6130  0.8992
17074TIP3   OH272636   5.009   0.450  16.307  0.7231 -0.9566  0.3331
17074TIP3    H172637   4.948   0.488  16.245  1.0353  0.8289  1.0641
17074TIP3    H272638   5.094   0.453  16.263  0.8550 -0.1719  0.6190
17075TIP3   OH272639   0.343   6.668   3.865 -0.4906  0.0170 -0.0220
17075TIP3    H172640   0.262   6.714   3.890 -0.6066  0.2947 -0.8863
17075TIP3    H272641   0.391   6.659   3.947 -1.2487  0.1435  0.4518
17076TIP3   OH272642   0.549   3.944  15.464 -0.2079  0.1034 -0.5095
17076TIP3    H172643   0.610   3.941  15.391 -0.6649 -1.7366 -0.8767
17076TIP3    H272644   0.603   3.927  15.542  0.1281  1.1322 -0.5003
17077TIP3   OH272645   0.789   4.960   0.741  0.1238  0.3462 -0.0959
17077TIP3    H172646   0.814   5.003   0.660 -1.2078  1.1380 -0.1201
17077TIP3    H272647   0.693   4.958   0.739  0.0390  0.7573  1.6239
17078TIP3   OH272648   1.177   2.662   4.597  0.5627  0.2326  0.1722
17078TIP3    H172649   1.254   2.644   4.650  0.1212 -1.5315  0.3017
17078TIP3    H272650   1.121   2.716   4.653  1.5374  1.2359  0.2011
17079TIP3   OH272651   6.745   6.219   0.663 -0.1744 -0.0611 -0.7214
17079TIP3    H172652   6.832   6.252   0.642 -0.2183  1.8228  1.5760
17079TIP3    H272653   6.689   6.297   0.660 -1.7798 -1.1738 -1.8356
17080TIP3   OH272654   3.521   3.272   4.924  0.4709 -0.1965 -0.1966
17080TIP3    H172655   3.436   3.308   4.951 -0.0657 -0.7471 -1.0886
17080TIP3    H272656   3.526   3.188   4.969  1.0235  0.2966  0.6743
17081TIP3   OH272657   4.861   2.408   4.225  0.4170 -0.5485 -0.2295
17081TIP3    H172658   4.847   2.501   4.207  0.3790 -0.4821  0.1362
17081TIP3    H272659   4.773   2.369   4.221  0.2014 -0.2782  1.2290
17082TIP3   OH272660   5.161   4.428  12.971 -0.2928 -0.6513 -0.3822
17082TIP3    H172661   5.135   4.487  12.900  2.8625  1.6712  0.1747
17082TIP3    H272662   5.252   4.405  12.951 -0.3574 -2.6523  1.2406
17083TIP3   OH272663   0.173   4.300  17.296  0.1839 -0.0991  0.1725
17083TIP3    H172664   0.142   4.370  17.239 -0.1160  0.3815  0.9101
17083TIP3    H272665   0.126   4.222  17.267 -0.6528  0.3347  0.3611
17084TIP3   OH272666   0.281   5.017  16.364 -0.2388 -0.2471  1.1549
17084TIP3    H172667   0.328   4.976  16.292  1.2614  0.5259  1.6487
17084TIP3    H272668   0.348   5.034  16.430 -1.0999  1.3681  1.6741
17085TIP3   OH272669   2.428   0.840   3.118  0.1017  0.4098 -0.0163
17085TIP3    H172670   2.411   0.906   3.185 -1.4885  0.4380 -0.3973
17085TIP3    H272671   2.368   0.768   3.139  0.9531 -0.4178 -0.3024
17086TIP3   OH272672   4.261   3.672   5.123  0.0048  0.4448  0.2238
17086TIP3    H172673   4.326   3.712   5.066  2.2325  1.2941  3.1289
17086TIP3    H272674   4.263   3.579   5.100  0.3704  0.8413 -1.4516
17087TIP3   OH272675   5.348   4.423  17.270  0.1178 -0.4337  0.2073
17087TIP3    H172676   5.297   4.490  17.316 -0.4156  0.4905 -1.6112
17087TIP3    H272677   5.340   4.447  17.177  3.1061 -0.8135 -0.2297
17088TIP3   OH272678   1.034   6.406   3.481 -0.2554 -0.0061 -0.2166
17088TIP3    H172679   0.948   6.423   3.520 -0.3931 -0.1187 -0.4671
17088TIP3    H272680   1.026   6.319   3.442 -0.0785  0.0496 -0.3792
17089TIP3   OH272681   1.199   4.509  16.923 -0.4635  0.0826 -0.2396
17089TIP3    H172682   1.192   4.456  17.003 -0.4260  0.6927  0.1736
17089TIP3    H272683   1.282   4.483  16.885 -0.5117 -0.2614 -0.1174
17090TIP3   OH272684   6.270   5.818  15.327  0.2699  0.4017  0.4778
17090TIP3    H172685   6.256   5.799  15.420  0.5490 -1.1434  0.2334
17090TIP3    H272686   6.364   5.805  15.314  0.2173  0.5172 -0.0339
17091TIP3   OH272687   0.167   6.015  16.613 -0.2035  0.1745  0.8662
17091TIP3    H172688   0.223   5.954  16.565 -2.0692 -1.1442  0.2646
17091TIP3    H272689   0.227   6.083  16.644  1.3496  0.2100 -1.8905
17092TIP3   OH272690   1.557   3.179  11.502  0.3278  0.0473  0.0013
17092TIP3    H172691   1.565   3.195  11.408  1.6923 -0.7891 -0.0565
17092TIP3    H272692   1.584   3.260  11.543 -1.5928  0.8971 -0.3016
17093TIP3   OH272693   4.706   3.562  15.141  0.2606 -0.2044  0.5693
17093TIP3    H172694   4.613   3.544  15.155  0.5033 -0.8383  1.4785
17093TIP3    H272695   4.720   3.545  15.049 -0.2913 -1.2170  0.6565
17094TIP3   OH272696   4.910   3.081  17.183  0.3052  0.4166  0.0020
17094TIP3    H172697   4.986   3.023  17.179  1.0514  1.2585  1.2015
17094TIP3    H272698   4.835   3.022  17.194  0.6661 -0.4621 -1.8594
17095TIP3   OH272699   1.124   4.934   2.409 -0.3323  0.6821 -0.3382
17095TIP3    H172700   1.119   4.839   2.416 -1.3223  0.5582 -2.1238
17095TIP3    H272701   1.159   4.963   2.493  2.1461 -1.4043 -0.5295
17096TIP3   OH272702   6.554   0.322   3.495  0.1791 -0.1093  0.1244
17096TIP3    H172703   6.536   0.415   3.479 -0.4917 -0.1162  0.7872
17096TIP3    H272704   6.468   0.280   3.498  0.4938 -0.8184 -0.5184
17097TIP3   OH272705   5.214   1.719   0.830  0.3442 -0.2474 -0.2882
17097TIP3    H172706   5.152   1.657   0.869 -1.1041  0.7459 -0.8932
17097TIP3    H272707   5.181   1.805   0.855 -0.3590  0.4278 -3.1126
17098TIP3   OH272708   3.208   3.436  17.375  0.0337 -0.0676  0.1633
17098TIP3    H172709   3.297   3.424  17.342  0.0484  0.9227 -0.2005
17098TIP3    H272710   3.220   3.450  17.469  0.4047  1.3523 -0.0730
17099TIP3   OH272711   2.650   3.071   3.521  0.3372 -0.2044  0.6817
17099TIP3    H172712   2.656   3.142   3.457 -2.5558  0.2276  0.7338
17099TIP3    H272713   2.570   3.090   3.570 -0.2224 -3.1447  1.1105
17100TIP3   OH272714   6.380   0.975   0.990  0.3150  0.3739  0.2587
17100TIP3    H172715   6.433   0.932   0.922  0.2018 -0.2360  0.5493
17100TIP3    H272716   6.378   0.912   1.062  1.6282  1.6122  1.4162
17101TIP3   OH272717   2.643   4.294  11.275 -0.1829  0.5686  0.1166
17101TIP3    H172718   2.727   4.321  11.237  0.3477 -0.8863  0.1893
17101TIP3    H272719   2.623   4.211  11.231  0.1163 -0.8444  2.4987
17102TIP3   OH272720   4.895   2.941   4.469  0.2938 -0.3624  0.1340
17102TIP3    H172721   4.927   2.929   4.380  0.4651 -0.0315  0.1489
17102TIP3    H272722   4.966   2.987   4.514 -0.3313  0.6717  0.0874
17103TIP3   OH272723   0.845   5.257  11.780  0.2130 -0.0550  0.1927
17103TIP3    H172724   0.800   5.245  11.696  0.1441  0.6824  0.1158
17103TIP3    H272725   0.935   5.277  11.755  0.4933 -1.0980  0.3358
17104TIP3   OH272726   2.091   0.715   0.513 -0.1046 -0.6190  0.3785
17104TIP3    H172727   2.102   0.737   0.605 -0.5896  0.8651  0.1016
17104TIP3    H272728   2.164   0.759   0.469  1.1653 -2.7332  0.2073
17105TIP3   OH272729   3.210   3.608  12.661  0.1063 -0.1504  0.0046
17105TIP3    H172730   3.206   3.578  12.570 -1.7640  3.8488 -1.4743
17105TIP3    H272731   3.303   3.615  12.680  0.5354 -1.5562 -1.3649
17106TIP3   OH272732   1.017   3.966  12.231  0.2103  0.0127  0.3080
17106TIP3    H172733   0.935   4.003  12.264 -0.0517  0.0820 -0.4154
17106TIP3    H272734   1.083   3.994  12.295 -0.6624 -2.0201  2.1947
17107TIP3   OH272735   1.170   5.917  16.702 -0.1724  0.4645 -0.0407
17107TIP3    H172736   1.231   5.983  16.737  1.1701 -1.5454  1.6370
17107TIP3    H272737   1.186   5.917  16.608  1.0559  1.3215  0.1411
17108TIP3   OH272738   3.536   1.267   3.978 -0.2723  0.0240  0.2867
17108TIP3    H172739   3.547   1.355   3.941  2.2802 -0.5938 -0.5618
17108TIP3    H272740   3.538   1.209   3.903 -0.2839 -0.9080  0.9904
17109TIP3   OH272741   0.606   5.716   4.329  0.3229 -0.5170 -0.2343
17109TIP3    H172742   0.670   5.727   4.400  0.2779 -1.5077 -0.0261
17109TIP3    H272743   0.596   5.804   4.292 -0.1948  0.1676  1.4340
17110TIP3   OH272744   3.443   5.452  11.923  0.1276  0.6442  0.0706
17110TIP3    H172745   3.368   5.394  11.914  2.1827 -2.4237  1.3698
17110TIP3    H272746   3.436   5.486  12.013 -0.3069  1.3204 -0.2109
17111TIP3   OH272747   4.901   6.354  16.605  0.2830  0.3432  0.4547
17111TIP3    H172748   4.861   6.438  16.627  1.8988  0.8319  1.8076
17111TIP3    H272749   4.973   6.345  16.668  1.6611 -0.9141 -1.1866
17112TIP3   OH272750   1.902   1.865  15.671 -0.2776  0.6023  0.7388
17112TIP3    H172751   1.919   1.865  15.766 -2.1098 -0.2577  1.1084
17112TIP3    H272752   1.938   1.782  15.640  0.3211  0.8832  0.6574
17113TIP3   OH272753   0.605   2.699  16.766 -0.4481 -0.1667 -0.7085
17113TIP3    H172754   0.661   2.647  16.708  0.9315  1.5966 -1.0451
17113TIP3    H272755   0.629   2.789  16.746 -1.0259  0.5338  1.5748
17114TIP3   OH272756   4.661   4.853   4.165  0.1397 -0.1047  0.3025
17114TIP3    H172757   4.657   4.788   4.094 -2.1784  1.4748 -1.1497
17114TIP3    H272758   4.749   4.842   4.203  0.8693 -2.1073 -1.7359
17115TIP3   OH272759   1.241   6.650   5.758  0.1146  0.1348 -0.0167
17115TIP3    H172760   1.187   6.636   5.681 -0.2547  0.4290  0.1837
17115TIP3    H272761   1.320   6.598   5.742  0.3070  0.6739 -0.8549
17116TIP3   OH272762   1.408   0.686   6.093  0.2415 -0.2205  0.2127
17116TIP3    H172763   1.360   0.760   6.056  1.4448  0.8288  0.7111
17116TIP3    H272764   1.351   0.610   6.077 -0.6746  0.6865 -0.9643
17117TIP3   OH272765   4.703   1.299  17.263  0.1287 -0.4299 -0.4304
17117TIP3    H172766   4.735   1.225  17.212  0.1744  0.4350 -1.7006
17117TIP3    H272767   4.759   1.372  17.238 -0.8370  0.3726 -0.3183
17118TIP3   OH272768   4.655   1.289   4.339  0.0062 -0.2075  0.1603
17118TIP3    H172769   4.658   1.202   4.299  0.8421 -0.1192  0.0113
17118TIP3    H272770   4.615   1.345   4.272  1.4064 -0.0584 -0.5966
17119TIP3   OH272771   3.643   0.971   5.449  0.6759 -0.3395 -0.2720
17119TIP3    H172772   3.589   0.936   5.378  0.4228  0.0261 -0.2645
17119TIP3    H272773   3.668   0.895   5.501  1.1441 -0.6571 -0.9438
17120TIP3   OH272774   0.628   0.065  12.706  0.2020 -0.0623  0.6074
17120TIP3    H172775   0.592   0.152  12.693  0.0855 -0.0642  0.9102
17120TIP3    H272776   0.689   0.053  12.633  0.0478  0.1810  0.4393
17121TIP3   OH272777   4.750   6.670  11.748 -0.1831 -0.8970 -0.1287
17121TIP3    H172778   4.807   6.702  11.817 -2.2659 -0.6101  1.5739
17121TIP3    H272779   4.670   6.644  11.793 -1.7086 -0.5607 -2.4371
17122TIP3   OH272780   1.389   2.129   0.767  0.4589 -0.4305 -0.6983
17122TIP3    H172781   1.313   2.072   0.780  0.0467  0.4677  1.1016
17122TIP3    H272782   1.357   2.217   0.788  1.8086  0.0543 -0.5935
17123TIP3   OH272783   2.839   0.458  14.054 -0.6175  0.2228 -0.1864
17123TIP3    H172784   2.832   0.403  14.132  2.5291 -2.3944 -1.4953
17123TIP3    H272785   2.908   0.521  14.075 -0.2906  0.0057 -0.6077
17124TIP3   OH272786   4.739   0.218   5.652  0.7141  0.8014 -0.6043
17124TIP3    H172787   4.687   0.144   5.685  0.8617 -0.0972 -2.3008
17124TIP3    H272788   4.678   0.292   5.655  0.0908  0.2964 -0.3098
17125TIP3   OH272789   5.250   2.599   5.738  0.3324 -0.9276 -0.0391
17125TIP3    H172790   5.255   2.692   5.715 -0.1368 -0.3486  1.9469
17125TIP3    H272791   5.319   2.587   5.803 -1.7854 -1.0549  2.3433
17126TIP3   OH272792   3.453   1.035  12.366  0.1565  0.0942 -0.0965
17126TIP3    H172793   3.412   1.121  12.365  0.5894  0.3171  0.9279
17126TIP3    H272794   3.443   1.003  12.276  0.5783  1.4832 -0.6584
17127TIP3   OH272795   3.352   0.428   6.287 -0.2579  0.0562  0.3633
17127TIP3    H172796   3.433   0.477   6.268 -0.2400 -0.5155 -1.1293
17127TIP3    H272797   3.282   0.491   6.273 -0.0945  0.5993  1.8115
17128TIP3   OH272798   5.926   3.412   0.949 -0.1736 -0.9306 -0.7324
17128TIP3    H172799   6.008   3.384   0.911  1.2144  1.3344  0.3715
17128TIP3    H272800   5.946   3.424   1.042 -1.4935  0.4975 -0.5962
17129TIP3   OH272801   1.049   5.208  14.071  0.4627  0.2082 -0.2085
17129TIP3    H172802   1.109   5.282  14.070  1.2896 -0.4522 -0.6714
17129TIP3    H272803   1.064   5.167  14.157 -2.4565  2.4821  1.5886
17130TIP3   OH272804   2.807   5.954   0.112 -0.2645  0.0932 -0.4777
17130TIP3    H172805   2.881   6.013   0.099  0.5055 -0.9669 -1.1096
17130TIP3    H272806   2.829   5.904   0.190 -0.4200 -0.0889 -0.5505
17131TIP3   OH272807   5.090   5.535  14.689  0.0837  0.0698 -0.0466
17131TIP3    H172808   5.125   5.567  14.772  0.5909 -1.2576  0.2746
17131TIP3    H272809   5.155   5.563  14.624  0.0645  0.4642  0.1017
17132TIP3   OH272810   3.187   6.384   2.477  0.0524 -0.2460  0.1404
17132TIP3    H172811   3.186   6.307   2.419 -2.6842  1.0280 -1.7014
17132TIP3    H272812   3.105   6.378   2.526  0.8636  0.3726  1.6363
17133TIP3   OH272813   1.345   3.890   2.070  0.0162 -0.4213 -0.2841
17133TIP3    H172814   1.257   3.895   2.108 -0.9137 -0.8565 -2.2702
17133TIP3    H272815   1.391   3.827   2.126 -1.3197 -1.0921  0.1142
17134TIP3   OH272816   2.975   2.319   5.225  0.3096  0.0030 -0.2203
17134TIP3    H172817   3.056   2.284   5.263 -0.8513 -1.5393  0.9551
17134TIP3    H272818   2.971   2.278   5.138  1.5221  1.2848 -0.9159
17135TIP3   OH272819   2.302   1.760   3.933 -0.1033  0.2677  0.0985
17135TIP3    H172820   2.314   1.708   3.854  0.1175 -0.4276  0.5716
17135TIP3    H272821   2.354   1.839   3.919  0.5156 -0.1799 -0.1574
17136TIP3   OH272822   0.364   5.413   0.611 -0.4348 -0.5982 -0.9335
17136TIP3    H172823   0.311   5.433   0.533 -0.8086  0.1744 -0.4905
17136TIP3    H272824   0.453   5.404   0.577 -0.4971  0.3205 -1.3797
17137TIP3   OH272825   3.072   3.608   1.050  0.2315  0.2793  0.2395
17137TIP3    H172826   3.055   3.535   1.109  0.4799  0.6623  0.7957
17137TIP3    H272827   3.043   3.685   1.099 -0.2474  0.5389 -0.4301
17138TIP3   OH272828   0.855   5.124  13.197 -0.0757 -0.0636 -0.1076
17138TIP3    H172829   0.838   5.156  13.108  1.3622 -2.6099 -1.4108
17138TIP3    H272830   0.947   5.099  13.197  0.1187  0.3901  2.3320
17139TIP3   OH272831   0.105   1.391   3.656 -0.3761 -0.5589  0.3078
17139TIP3    H172832   0.109   1.331   3.582 -0.3431  0.0563 -0.2003
17139TIP3    H272833   0.015   1.423   3.655 -1.1353 -2.4336  2.0793
17140TIP3   OH272834   6.156   6.501   3.581 -0.0423 -0.1182  0.3868
17140TIP3    H172835   6.192   6.491   3.492 -1.3600 -0.6164 -0.1074
17140TIP3    H272836   6.062   6.489   3.570 -0.1694 -0.6837  1.9419
17141TIP3   OH272837   6.484   4.475  15.516 -0.0820 -0.1678  0.0291
17141TIP3    H172838   6.539   4.546  15.484 -0.0277  0.3272  1.1699
17141TIP3    H272839   6.399   4.517  15.532 -0.9059 -0.9598 -1.8989
17142TIP3   OH272840   4.690   4.466   3.675  0.5633 -0.3453 -0.2545
17142TIP3    H172841   4.612   4.510   3.641 -0.5042 -1.3664  0.8115
17142TIP3    H272842   4.759   4.532   3.669 -0.6035  0.9176 -0.2693
17143TIP3   OH272843   0.759   6.163  11.583 -0.2292  0.1906  0.0582
17143TIP3    H172844   0.823   6.097  11.609 -0.3290 -0.3275 -0.9625
17143TIP3    H272845   0.774   6.175  11.490 -0.6540  1.1406  0.1023
17144TIP3   OH272846   1.370   0.602  17.315 -0.3367  0.5020  0.1885
17144TIP3    H172847   1.395   0.672  17.375  1.0271 -0.5156  0.8697
17144TIP3    H272848   1.275   0.608  17.309 -0.1503  3.9624 -1.7458
17145TIP3   OH272849   0.946   3.965   5.832 -0.3974 -0.5162 -0.2472
17145TIP3    H172850   0.867   3.923   5.795 -1.4596  1.6364 -0.5743
17145TIP3    H272851   0.950   3.933   5.922 -1.2679 -1.1813 -0.4306
17146TIP3   OH272852   3.187   6.080  13.894  0.4189  0.4652  0.5597
17146TIP3    H172853   3.201   6.045  13.982 -1.3338  0.0028  0.6983
17146TIP3    H272854   3.217   6.171  13.900 -0.1055  0.5869  1.7836
17147TIP3   OH272855   5.459   6.298  11.265  0.8662  0.1822 -0.4062
17147TIP3    H172856   5.391   6.301  11.332 -0.6299  1.3773 -1.8844
17147TIP3    H272857   5.542   6.305  11.313 -0.0606 -0.6176  1.3833
17148TIP3   OH272858   1.632   4.142  15.754 -0.3198 -0.1179 -0.5232
17148TIP3    H172859   1.607   4.192  15.677 -1.6525 -0.2434 -0.1935
17148TIP3    H272860   1.698   4.197  15.797 -0.7110  0.6934 -0.9250
17149TIP3   OH272861   2.817   4.733   3.945 -0.0217 -0.1999  0.0384
17149TIP3    H172862   2.748   4.678   3.981  0.3933  0.2161  1.5551
17149TIP3    H272863   2.891   4.720   4.005  1.0873 -0.3384 -1.3267
17150TIP3   OH272864   0.947   1.868   2.920 -0.1245 -0.4232  0.1368
17150TIP3    H172865   0.880   1.814   2.961  0.4125 -0.2384  1.2717
17150TIP3    H272866   0.925   1.958   2.947  0.5425 -0.3551  0.4720
17151TIP3   OH272867   2.154   2.618   0.962 -0.0466  0.2234 -0.5783
17151TIP3    H172868   2.085   2.633   1.027 -0.0469 -0.4880 -0.4084
17151TIP3    H272869   2.235   2.637   1.008 -0.0155 -0.7252 -0.2208
17152TIP3   OH272870   6.757   0.933   3.008  0.2142 -0.7454  0.2106
17152TIP3    H172871   6.847   0.935   2.976  0.1654 -0.5822  0.0823
17152TIP3    H272872   6.720   0.853   2.971  0.1791 -0.5929 -0.0855
17153TIP3   OH272873   3.830   2.369  13.727 -0.0438 -0.3536  0.5470
17153TIP3    H172874   3.758   2.432  13.723  1.0818  0.9647 -0.2184
17153TIP3    H272875   3.789   2.283  13.721 -1.4000  0.3967 -3.1998
17154TIP3   OH272876   4.366   0.672  12.444 -0.1913 -0.0519 -0.2417
17154TIP3    H172877   4.363   0.602  12.379 -3.9565 -0.2312 -0.0766
17154TIP3    H272878   4.410   0.744  12.400 -0.2484 -1.0549 -2.0114
17155TIP3   OH272879   4.503   0.505  14.051  0.4564  0.5886  0.1513
17155TIP3    H172880   4.442   0.469  14.115 -0.7058  1.5320 -0.3816
17155TIP3    H272881   4.545   0.428  14.012 -1.0705 -0.1534 -0.1103
17156TIP3   OH272882   6.634   0.953  11.332  0.3766  0.1558  0.5545
17156TIP3    H172883   6.560   0.999  11.372 -0.0890  0.3273 -0.4739
17156TIP3    H272884   6.594   0.898  11.265  1.1008 -0.4861  0.6288
17157TIP3   OH272885   1.690   6.282  15.077 -0.4809 -0.0425 -0.0460
17157TIP3    H172886   1.642   6.294  14.995  0.3571 -1.5235 -0.7834
17157TIP3    H272887   1.665   6.195  15.107 -1.6490  0.8944  1.9094
17158TIP3   OH272888   0.003   2.886  14.463 -0.2248  0.6294 -0.0447
17158TIP3    H172889  -0.037   2.953  14.407 -0.3627  0.1114 -0.5918
17158TIP3    H272890  -0.030   2.803  14.426  1.0443  0.2043 -0.2666
17159TIP3   OH272891   0.407   6.215   2.220  0.0187 -0.1621 -0.8075
17159TIP3    H172892   0.429   6.201   2.128 -2.1696 -1.3384 -1.2085
17159TIP3    H272893   0.345   6.288   2.219  0.4471  0.2261 -0.1655
17160TIP3   OH272894   3.575   2.392  10.687 -0.2194 -0.0357 -0.4116
17160TIP3    H172895   3.531   2.307  10.692  1.3297 -0.9243 -1.2335
17160TIP3    H272896   3.510   2.454  10.720 -1.3293 -1.5490  0.3982
17161TIP3   OH272897   0.606   5.415  17.106 -0.3447 -0.1564  0.2434
17161TIP3    H172898   0.607   5.445  17.015 -2.3034  0.7637  0.4792
17161TIP3    H272899   0.600   5.320  17.101 -0.9393 -0.0801 -0.6044
17162TIP3   OH272900   4.602   4.532   4.384 -0.8247 -0.4690  0.5441
17162TIP3    H172901   4.583   4.590   4.310  0.3736  1.0636  1.3667
17162TIP3    H272902   4.650   4.458   4.345  0.9222  0.9197 -0.1178
17163TIP3   OH272903   3.643   2.811  14.896 -0.5171 -0.5602 -0.1948
17163TIP3    H172904   3.637   2.816  14.991 -1.0133 -1.7207 -0.1468
17163TIP3    H272905   3.731   2.775  14.879 -0.0890  0.4671 -0.2232
17164TIP3   OH272906   4.485   3.131  14.110  0.2250  0.2038 -0.6967
17164TIP3    H172907   4.448   3.043  14.118  0.6082  0.0674 -0.3793
17164TIP3    H272908   4.554   3.134  14.177 -0.1567  0.9348 -0.3190
17165TIP3   OH272909   5.591   3.811  16.783 -0.1247  0.5463 -0.5091
17165TIP3    H172910   5.512   3.866  16.788 -2.4406 -2.5045 -0.2776
17165TIP3    H272911   5.579   3.760  16.703 -0.6895 -2.9432  1.5672
17166TIP3   OH272912   0.976   0.398  10.811  0.0860 -0.1303 -0.8522
17166TIP3    H172913   1.023   0.454  10.872  1.4007  0.7500 -2.5679
17166TIP3    H272914   0.912   0.351  10.865  1.5267  0.1787  1.2537
17167TIP3   OH272915   4.133   5.433  12.860  0.2722 -0.4239 -0.1537
17167TIP3    H172916   4.079   5.381  12.919 -1.0436 -0.7298 -1.5739
17167TIP3    H272917   4.090   5.519  12.857  1.7003  0.3948  1.1636
17168TIP3   OH272918   6.389   4.680  11.929  0.1543  0.2556  0.8262
17168TIP3    H172919   6.476   4.719  11.942  0.8614 -1.2480  0.7496
17168TIP3    H272920   6.406   4.588  11.908 -1.5095 -0.5224  2.5828
17169TIP3   OH272921   5.691   4.208   4.990  0.3018  0.0483 -0.7071
17169TIP3    H172922   5.713   4.122   4.955 -1.9039  0.0504 -2.2940
17169TIP3    H272923   5.674   4.193   5.083  0.0993 -1.1837 -0.9300
17170TIP3   OH272924   3.067   1.489  13.556  0.4359 -0.9258  0.0727
17170TIP3    H172925   3.003   1.529  13.615  0.2031  1.8524 -1.8118
17170TIP3    H272926   3.015   1.441  13.492  0.0657  1.4627 -1.5511
17171TIP3   OH272927   5.880   4.148  11.750  0.2353 -0.3022  0.4605
17171TIP3    H172928   5.956   4.104  11.712  0.4900  1.1704 -0.8189
17171TIP3    H272929   5.818   4.154  11.678 -0.1228  0.6798  0.8424
17172TIP3   OH272930   5.750   0.025  13.670 -0.4071 -1.0360 -0.6732
17172TIP3    H172931   5.818   0.014  13.737 -2.3134  1.9070  2.0756
17172TIP3    H272932   5.796   0.062  13.595  1.4880 -2.3700 -0.2549
17173TIP3   OH272933   4.614   3.851   1.565 -0.6528 -0.4940 -0.0792
17173TIP3    H172934   4.591   3.916   1.630  1.3453  0.0816  0.1294
17173TIP3    H272935   4.699   3.880   1.531  0.7758 -3.4023  0.6770
17174TIP3   OH272936   4.816   4.324   1.174  0.0711  0.3361 -0.1008
17174TIP3    H172937   4.880   4.370   1.120 -0.2659  2.4567  1.2173
17174TIP3    H272938   4.733   4.336   1.128 -0.0865  1.4467  0.4617
17175TIP3   OH272939   2.701   2.672   2.287  0.1245  0.1354  0.4168
17175TIP3    H172940   2.655   2.621   2.354 -2.7295 -0.6849 -1.9242
17175TIP3    H272941   2.770   2.614   2.255  2.7795  1.1794  3.6212
17176TIP3   OH272942   1.789   0.457  16.573  0.7680  0.2877  0.4202
17176TIP3    H172943   1.766   0.545  16.604 -0.0371  0.6896 -1.1710
17176TIP3    H272944   1.834   0.473  16.490 -3.0356 -0.7975 -2.1048
17177TIP3   OH272945   3.934   5.813   2.429 -0.3812  0.0393  0.6141
17177TIP3    H172946   3.892   5.727   2.425  0.4868 -0.3490 -1.4944
17177TIP3    H272947   3.862   5.874   2.446 -0.9024 -1.1061  2.9337
17178TIP3   OH272948   4.624   0.624  14.543 -0.4561 -0.1624 -0.0667
17178TIP3    H172949   4.540   0.592  14.511 -0.9015  0.8965  0.0155
17178TIP3    H272950   4.689   0.570  14.497 -1.1602 -0.5700 -0.6059
17179TIP3   OH272951   4.395   3.229   5.486  0.0415  0.1753 -0.1000
17179TIP3    H172952   4.383   3.211   5.393  0.9662  1.7907 -0.5779
17179TIP3    H272953   4.307   3.222   5.523 -0.0961 -2.1887 -0.7186
17180TIP3   OH272954   1.096   1.383  11.314 -0.1205  0.2490 -0.1426
17180TIP3    H172955   1.079   1.335  11.395 -0.0314 -0.2587 -0.4238
17180TIP3    H272956   1.021   1.364  11.258 -0.2716  0.7487 -0.1140
17181TIP3   OH272957   0.030   4.885   5.651  0.3313 -0.6993 -0.7607
17181TIP3    H172958   0.021   4.834   5.571  0.4242 -0.6438 -0.8063
17181TIP3    H272959   0.020   4.821   5.721 -0.2256 -0.6742 -0.8091
17182TIP3   OH272960   4.183   1.868   2.152 -0.2547  0.1273 -0.1699
17182TIP3    H172961   4.096   1.884   2.114 -0.6418 -1.5503 -0.0574
17182TIP3    H272962   4.167   1.861   2.246  0.0329 -0.0882 -0.1368
17183TIP3   OH272963   2.927   3.708  15.497  0.4793  0.5485  0.3144
17183TIP3    H172964   2.977   3.669  15.426  1.0861  2.0036 -0.0912
17183TIP3    H272965   2.978   3.688  15.576  0.2946 -0.2589  0.2355
17184TIP3   OH272966   6.735   1.386  12.946 -0.2254 -0.5140 -0.1088
17184TIP3    H172967   6.708   1.401  13.037  0.5000  1.0767 -0.1254
17184TIP3    H272968   6.685   1.449  12.896 -0.8700 -1.6103 -0.8943
17185TIP3   OH272969   0.115   4.594   1.911  0.1137 -0.3046 -0.1072
17185TIP3    H172970   0.191   4.651   1.900  0.1757 -0.3469  0.0934
17185TIP3    H272971   0.087   4.573   1.822 -0.7075  1.0959 -0.2153
17186TIP3   OH272972   1.993   0.885  14.492  0.0653  0.3478  0.2643
17186TIP3    H172973   2.017   0.970  14.528 -0.3345  0.1690  0.9660
17186TIP3    H272974   1.922   0.854  14.547 -0.8607  0.2494 -0.9443
17187TIP3   OH272975   1.285   5.536   4.072  0.3014  0.1578 -0.0273
17187TIP3    H172976   1.225   5.479   4.121  0.2964 -1.3526 -1.6918
17187TIP3    H272977   1.253   5.624   4.090 -0.3183 -0.3858  1.8432
17188TIP3   OH272978   4.309   0.247  15.615  0.2241 -0.9341  0.3485
17188TIP3    H172979   4.248   0.318  15.597  1.3442  0.0107  0.1415
17188TIP3    H272980   4.293   0.224  15.706  1.1289  0.9153  1.0228
17189TIP3   OH272981   4.022   3.353   1.274  0.0425  0.0548  0.3537
17189TIP3    H172982   3.963   3.308   1.213  0.4813 -0.6249  0.4092
17189TIP3    H272983   4.009   3.446   1.257 -0.1156 -0.1175 -0.5210
17190TIP3   OH272984   3.782   3.571  16.822  0.2029  0.4455 -0.4352
17190TIP3    H172985   3.829   3.648  16.857  0.1698  0.4720 -0.4487
17190TIP3    H272986   3.690   3.595  16.828  0.1993  0.4715 -0.5895
17191TIP3   OH272987   2.319   4.799   0.774 -0.2159  0.4122 -0.3074
17191TIP3    H172988   2.290   4.776   0.686 -0.9432 -0.5672  0.1647
17191TIP3    H272989   2.262   4.748   0.832 -1.9940  3.4747  0.8576
17192TIP3   OH272990   2.222   3.310  10.912  0.1235  0.6112  0.1456
17192TIP3    H172991   2.286   3.279  10.976 -1.2877 -1.5179  0.6162
17192TIP3    H272992   2.205   3.234  10.856 -2.1800  0.9980  0.2258
17193TIP3   OH272993   4.665   6.024  16.033 -0.5659 -0.6378  0.1411
17193TIP3    H172994   4.590   6.012  15.975 -0.3473 -0.6713 -0.1319
17193TIP3    H272995   4.726   6.078  15.984  0.0939 -1.5597 -0.0947
17194TIP3   OH272996   2.848   3.755  10.921 -0.2436  0.1473 -0.1582
17194TIP3    H172997   2.842   3.849  10.906 -0.4375 -0.0031 -1.0983
17194TIP3    H272998   2.942   3.736  10.915 -0.2427  0.2194 -0.3811
17195TIP3   OH272999   4.478   1.360  17.116 -0.3175  0.0615 -0.0671
17195TIP3    H173000   4.524   1.339  17.196 -1.0201 -0.8726  0.1100
17195TIP3    H273001   4.395   1.311  17.122  0.1750 -1.1122 -1.9384
17196TIP3   OH273002   2.004   6.095  14.033 -0.3032 -0.8169  0.1475
17196TIP3    H173003   1.998   6.189  14.046 -0.7623 -0.7290 -0.6231
17196TIP3    H273004   2.096   6.079  14.011  0.2302 -0.8197  2.1238
17197TIP3   OH273005   1.431   1.745   5.732  0.3694 -0.1346 -0.1047
17197TIP3    H173006   1.449   1.663   5.780 -2.0644 -1.0276 -0.6047
17197TIP3    H273007   1.508   1.799   5.749  1.6702 -2.1803  0.9806
17198TIP3   OH273008   5.559   0.090  13.375 -0.7820  0.1794 -0.1941
17198TIP3    H173009   5.524   0.179  13.378  1.0544  0.9157  0.9349
17198TIP3    H273010   5.652   0.100  13.396 -0.1574 -1.8236 -1.7184
17199TIP3   OH273011   5.544   1.250  17.170 -0.5622 -0.2273 -0.4183
17199TIP3    H173012   5.486   1.212  17.236 -0.9606  1.4039  0.2246
17199TIP3    H273013   5.627   1.206  17.182 -0.5720  0.1609  1.3267
17200TIP3   OH273014   0.812   2.235   1.584  0.9211  0.2460  0.0877
17200TIP3    H173015   0.903   2.235   1.555  0.6941  1.2748 -0.6951
17200TIP3    H273016   0.767   2.294   1.523 -0.3648 -0.5922  0.1772
17201TIP3   OH273017   0.698   0.742   4.423 -0.1347  0.1370 -0.2109
17201TIP3    H173018   0.678   0.823   4.377 -1.3626 -0.0907 -0.1207
17201TIP3    H273019   0.660   0.754   4.510 -1.2447 -0.9070 -0.5179
17202TIP3   OH273020   1.079   0.572   6.218 -0.1526  0.1953 -0.3616
17202TIP3    H173021   1.064   0.666   6.224 -0.8838  0.0946 -0.4524
17202TIP3    H273022   1.047   0.537   6.301  3.0821  0.3365  1.0929
17203TIP3   OH273023   6.404   4.108  11.620 -0.3464  0.3422 -0.6289
17203TIP3    H173024   6.432   4.068  11.537  1.3005  2.0626 -0.9812
17203TIP3    H273025   6.459   4.067  11.686 -1.8418 -1.2216 -0.2979
17204TIP3   OH273026   4.805   0.473  13.907 -0.1836  0.0358  0.0832
17204TIP3    H173027   4.894   0.454  13.878 -0.0600 -0.5094  0.8077
17204TIP3    H273028   4.802   0.569  13.914  0.3583  0.0546  0.1076
17205TIP3   OH273029   6.176   1.168   1.000 -0.1115  0.0304 -0.5635
17205TIP3    H173030   6.239   1.097   0.984  0.4424  0.0831  1.2066
17205TIP3    H273031   6.093   1.133   0.968  0.6235 -0.3767 -2.1352
17206TIP3   OH273032   2.423   1.106   1.201  0.0382  0.3875 -0.1664
17206TIP3    H173033   2.497   1.164   1.185  0.8011 -0.0739  1.5533
17206TIP3    H273034   2.453   1.020   1.172  0.5557  0.0128  1.4225
17207TIP3   OH273035   1.748   0.506   4.346 -0.4214  0.8396 -0.2887
17207TIP3    H173036   1.673   0.493   4.289 -2.4230  0.4191  2.2836
17207TIP3    H273037   1.786   0.418   4.357 -1.1343  0.6102  0.4182
17208TIP3   OH273038   1.486   3.798  14.625  0.5540  0.0083 -0.5908
17208TIP3    H173039   1.462   3.788  14.533  2.0920 -2.1065 -0.8456
17208TIP3    H273040   1.556   3.864  14.624  0.3829  0.1898 -0.8806
17209TIP3   OH273041   1.581   4.624   4.001 -0.4402  0.3344 -0.4760
17209TIP3    H173042   1.492   4.645   3.973 -1.1688  0.4489  1.7175
17209TIP3    H273043   1.626   4.709   4.000 -0.4536  0.3448 -1.1661
17210TIP3   OH273044   0.875   1.138  12.836 -0.0895 -0.2252  0.0332
17210TIP3    H173045   0.946   1.095  12.884 -1.3864 -1.4713  0.8952
17210TIP3    H273046   0.820   1.177  12.904 -0.0619  1.0505 -0.6408
17211TIP3   OH273047   2.406   4.752   2.213 -0.5860  0.1765 -0.3592
17211TIP3    H173048   2.382   4.840   2.184 -2.0574 -0.2010 -0.3869
17211TIP3    H273049   2.330   4.722   2.263 -0.0557 -1.0304 -0.2335
17212TIP3   OH273050   2.524   3.910  11.749 -0.1094 -0.4812  0.2976
17212TIP3    H173051   2.460   3.869  11.691 -0.0035 -0.2854  0.0413
17212TIP3    H273052   2.609   3.890  11.710  0.0097 -1.0328  0.8252
17213TIP3   OH273053   1.452   6.618  17.190  0.3653 -0.3839  0.2899
17213TIP3    H173054   1.401   6.547  17.229  0.2357 -0.6251 -0.3114
17213TIP3    H273055   1.540   6.607  17.228 -0.1118  0.3080  1.6790
17214TIP3   OH273056   2.938   3.823   3.919  0.1846 -0.0461  0.0289
17214TIP3    H173057   2.930   3.919   3.914  1.5299  0.1362  0.8382
17214TIP3    H273058   2.858   3.790   3.878 -0.4624  1.4291  0.0385
17215TIP3   OH273059   6.457   3.328   3.252 -0.1305 -0.4017 -0.0050
17215TIP3    H173060   6.390   3.370   3.307 -0.0182 -1.3028  0.8640
17215TIP3    H273061   6.421   3.330   3.164  0.4218  2.6219 -0.2443
17216TIP3   OH273062   6.323   2.705   3.884  0.3045 -0.1999 -0.2073
17216TIP3    H173063   6.383   2.716   3.958  0.7418 -0.3880 -0.5306
17216TIP3    H273064   6.281   2.791   3.875  1.3660  0.2941 -0.7001
17217TIP3   OH273065   3.475   4.516   4.884 -0.2261 -0.0313  0.0714
17217TIP3    H173066   3.502   4.584   4.821  1.6217 -1.1869 -0.4535
17217TIP3    H273067   3.482   4.559   4.969 -0.3910  0.8286 -0.3302
17218TIP3   OH273068   2.645   2.140   1.404  0.7178 -0.4648  0.0557
17218TIP3    H173069   2.693   2.170   1.482  1.9595 -2.3086  0.0454
17218TIP3    H273070   2.637   2.046   1.415 -2.1490 -0.3787 -0.4272
17219TIP3   OH273071   2.288   2.807  17.370 -0.3443  0.1683 -0.3896
17219TIP3    H173072   2.204   2.810  17.417 -1.0746  1.6046 -1.7012
17219TIP3    H273073   2.265   2.822  17.278  1.3114  0.0771 -0.8490
17220TIP3   OH273074   0.652   6.443   6.039 -0.2090 -0.2488  0.0265
17220TIP3    H173075   0.680   6.489   6.118  1.2141 -0.8727 -0.0675
17220TIP3    H273076   0.733   6.407   6.003 -1.1350 -2.0521 -0.3742
17221TIP3   OH273077   0.310   1.511   1.435  0.1572  0.0000  0.0948
17221TIP3    H173078   0.329   1.499   1.342  0.1098  0.4700  0.0194
17221TIP3    H273079   0.264   1.595   1.439 -1.8966 -1.0824  0.2758
17222TIP3   OH273080   3.121   4.562  16.674 -0.0171  0.2760  0.1558
17222TIP3    H173081   3.184   4.610  16.620 -1.8341  1.2944 -1.2040
17222TIP3    H273082   3.135   4.470  16.652 -0.0278  0.6020 -1.3554
17223TIP3   OH273083   5.377   1.937  14.727  0.1325 -0.2074  0.1641
17223TIP3    H173084   5.331   1.990  14.793 -1.2223  0.8637 -1.5351
17223TIP3    H273085   5.324   1.858  14.718  0.4482 -0.4618  0.5087
17224TIP3   OH273086   5.487   3.836  10.843  0.1297  0.7013  0.0678
17224TIP3    H173087   5.435   3.867  10.770  0.0634  2.4185  0.8066
17224TIP3    H273088   5.423   3.803  10.906  0.1027  0.4751 -0.0771
17225TIP3   OH273089   6.463   2.976  10.651  0.0070 -0.1189  0.7465
17225TIP3    H173090   6.484   2.937  10.736 -0.7281 -0.7944  0.6249
17225TIP3    H273091   6.368   2.969  10.644  0.0787 -0.2470 -0.2140
17226TIP3   OH273092   0.154   4.597  12.275 -0.0123 -0.2632 -0.3947
17226TIP3    H173093   0.080   4.592  12.214 -0.7470  0.8829  0.3721
17226TIP3    H273094   0.210   4.666  12.239 -0.3331  0.2572  0.0971
17227TIP3   OH273095   4.024   4.797   0.082 -0.3159  0.9067 -0.0319
17227TIP3    H173096   4.029   4.844   0.166  2.0792  1.2127 -0.2838
17227TIP3    H273097   3.934   4.764   0.079 -0.6998  1.5301  2.3028
17228TIP3   OH273098   2.953   4.044   5.472 -0.4450 -0.0499 -0.4693
17228TIP3    H173099   3.012   3.978   5.435 -1.8943 -0.9880 -1.1729
17228TIP3    H273100   2.993   4.067   5.556  1.3602 -0.0265 -1.2685
17229TIP3   OH273101   0.472   5.787  14.118 -0.5479  0.0983 -0.4916
17229TIP3    H173102   0.451   5.880  14.109  0.2467  0.3749  0.3847
17229TIP3    H273103   0.393   5.747  14.154 -0.0566  0.8951  1.5553
17230TIP3   OH273104   1.320   1.103   1.566  0.3174  0.0630  0.0029
17230TIP3    H173105   1.301   1.163   1.494  2.6265  1.0958  0.1897
17230TIP3    H273106   1.322   1.158   1.644 -2.3293 -1.0676  0.9926
17231TIP3   OH273107   3.812   2.365  11.822  0.6020 -1.4765  0.0656
17231TIP3    H173108   3.809   2.353  11.727  1.3325  1.3130 -0.3920
17231TIP3    H273109   3.886   2.310  11.850  2.5990  0.2096 -1.5253
17232TIP3   OH273110   3.251   6.212  16.527 -0.1181 -0.2601  0.3700
17232TIP3    H173111   3.241   6.130  16.575  3.1319 -0.7998  0.3452
17232TIP3    H273112   3.277   6.184  16.439  0.9150  0.7579  0.3321
17233TIP3   OH273113   4.409   0.947  13.209  0.1414  0.4514 -0.3916
17233TIP3    H173114   4.424   0.860  13.247 -1.0861  1.3400  2.3708
17233TIP3    H273115   4.359   0.930  13.129 -2.3797 -1.3572  1.4132
17234TIP3   OH273116   1.656   0.155   3.454 -0.2684  0.7961  0.3482
17234TIP3    H173117   1.721   0.189   3.516  1.1357  1.7077 -1.4907
17234TIP3    H273118   1.576   0.146   3.505  1.0360  0.6079  2.4815
17235TIP3   OH273119   1.611   4.549   4.979  0.2522 -0.1614 -0.5647
17235TIP3    H173120   1.599   4.470   5.031  2.9478 -0.8660 -0.8805
17235TIP3    H273121   1.565   4.530   4.897  0.3982 -1.1732 -0.4285
17236TIP3   OH273122   2.956   3.091  16.585 -0.3757 -0.5049  0.1639
17236TIP3    H173123   2.894   3.132  16.524 -2.1263 -0.8011  1.6558
17236TIP3    H273124   3.011   3.164  16.616 -1.7796  0.3013  0.8475
17237TIP3   OH273125   0.012   2.263   2.415  0.2716 -0.7555  0.3227
17237TIP3    H173126  -0.020   2.353   2.422  1.2601 -0.2421 -1.3438
17237TIP3    H273127  -0.000   2.240   2.323 -1.6725 -3.0217  1.0466
17238TIP3   OH273128   6.131   0.852   0.465 -0.1651 -0.3868  0.3676
17238TIP3    H173129   6.115   0.865   0.558  1.2656  1.6140  0.3812
17238TIP3    H273130   6.203   0.789   0.462  0.6027  0.4623  0.6704
17239TIP3   OH273131   1.733   1.663  14.712  1.0169  0.5132  0.6089
17239TIP3    H173132   1.752   1.712  14.632  2.1848  1.3203  1.3392
17239TIP3    H273133   1.703   1.577  14.682  3.9293 -0.1489 -0.7448
17240TIP3   OH273134   3.452   4.596  13.368 -0.7708  0.4329 -0.5798
17240TIP3    H173135   3.491   4.628  13.287 -1.0268  0.5432 -0.6623
17240TIP3    H273136   3.487   4.653  13.436 -1.1255  0.8166 -0.7100
17241TIP3   OH273137   5.188   5.846   3.105 -0.5625 -0.3312 -0.0151
17241TIP3    H173138   5.113   5.896   3.138 -0.3837 -0.2786  0.3171
17241TIP3    H273139   5.223   5.901   3.035 -1.2251 -0.6649 -0.6097
17242TIP3   OH273140   0.838   2.855  12.847 -0.1576  0.6584 -0.0697
17242TIP3    H173141   0.905   2.808  12.897 -0.7345  1.2238  1.2850
17242TIP3    H273142   0.762   2.797  12.849 -0.5640  1.2053  0.7736
17243TIP3   OH273143   6.109   0.380  11.773 -0.2689 -0.7668 -0.6170
17243TIP3    H173144   6.174   0.337  11.828  0.3419  1.8094  0.8624
17243TIP3    H273145   6.153   0.394  11.689  0.5757 -0.3313 -0.1079
17244TIP3   OH273146   3.367   4.055  17.135  0.3630  0.2049 -0.1773
17244TIP3    H173147   3.392   4.044  17.227 -0.7284  2.5498  0.4802
17244TIP3    H273148   3.450   4.068  17.089  0.9384 -1.2176  0.4052
17245TIP3   OH273149   3.832   2.016  14.244  0.3482  0.5758 -0.0347
17245TIP3    H173150   3.852   2.045  14.333  1.2494  2.6171 -0.8395
17245TIP3    H273151   3.737   2.020  14.238  0.3180  1.0593  0.6494
17246TIP3   OH273152   3.464   3.995  12.415 -0.4769  0.0195 -0.1834
17246TIP3    H173153   3.446   3.905  12.442 -0.0382  0.3251  1.2098
17246TIP3    H273154   3.536   4.023  12.471 -0.5786  1.2319 -0.6321
17247TIP3   OH273155   3.494   2.402  16.548  0.0016  0.0499 -0.0514
17247TIP3    H173156   3.500   2.443  16.461 -0.3494 -1.0209 -0.6053
17247TIP3    H273157   3.513   2.309  16.531 -1.5241 -0.4458  0.7794
17248TIP3   OH273158   4.935   3.334  15.217  0.2341  0.9086  0.0084
17248TIP3    H173159   4.874   3.395  15.175 -1.6442 -1.0897 -0.3586
17248TIP3    H273160   4.879   3.277  15.270  1.9794 -0.0923  0.8568
17249TIP3   OH273161   4.945   5.872  16.671  0.0164  0.3078  0.1750
17249TIP3    H173162   4.904   5.815  16.737 -0.0478 -0.8554 -0.8323
17249TIP3    H273163   4.996   5.812  16.617  2.6905  1.6369  1.0608
17250TIP3   OH273164   0.270   2.082  14.709 -0.1645 -0.1377  0.0878
17250TIP3    H173165   0.282   2.138  14.633 -1.7118  1.6291  1.0756
17250TIP3    H273166   0.358   2.051  14.730  0.7201  1.7826 -0.6107
17251TIP3   OH273167   0.266   0.088  17.364  0.3709  0.4703  0.3610
17251TIP3    H173168   0.179   0.053  17.343  0.5162 -0.7298  1.6323
17251TIP3    H273169   0.266   0.096  17.459  1.0154  2.2731  0.2443
17252TIP3   OH273170   4.609   6.432   5.646  0.5152 -0.0391  0.0267
17252TIP3    H173171   4.691   6.481   5.647  2.0566 -2.4684  0.4864
17252TIP3    H273172   4.575   6.443   5.557  0.9939  1.4965  0.0087
17253TIP3   OH273173   5.821   3.027  16.841 -0.1596  0.1513 -0.0864
17253TIP3    H173174   5.868   3.057  16.762  0.4458 -2.1681 -0.6707
17253TIP3    H273175   5.729   3.045  16.822  0.1570  1.7881 -0.2790
17254TIP3   OH273176   2.032   5.129  11.635 -0.1475  0.2196 -0.4001
17254TIP3    H173177   2.118   5.107  11.669 -0.8100 -2.9574 -0.3964
17254TIP3    H273178   2.042   5.124  11.539 -0.4441 -1.0227 -0.3902
17255TIP3   OH273179   1.738   1.955  12.190 -0.1422 -0.0446 -0.0790
17255TIP3    H173180   1.719   1.972  12.098 -1.0626 -0.1839  0.0814
17255TIP3    H273181   1.834   1.955  12.195 -0.0742 -0.4941 -1.1221
17256TIP3   OH273182   2.626   4.811   0.148  0.1997  0.3645 -0.6104
17256TIP3    H173183   2.695   4.863   0.189 -1.1747  1.1256  0.8285
17256TIP3    H273184   2.611   4.739   0.209 -1.1734  0.9511 -0.2237
17257TIP3   OH273185   1.929   4.985  13.091 -0.0589 -0.3729  0.2174
17257TIP3    H173186   2.018   5.010  13.118  0.5149 -1.9639 -0.1224
17257TIP3    H273187   1.893   4.939  13.166 -1.0300  1.1641  0.7518
17258TIP3   OH273188   0.504   6.253  16.118  0.2522 -0.5706 -0.5577
17258TIP3    H173189   0.529   6.344  16.129 -0.0636 -0.5818  0.2571
17258TIP3    H273190   0.478   6.246  16.026  0.1422  0.1916 -0.5844
17259TIP3   OH273191   0.625   5.483  12.767 -0.1054  0.7085  0.1201
17259TIP3    H173192   0.586   5.558  12.811 -2.2257  0.2346 -0.8393
17259TIP3    H273193   0.651   5.517  12.681  1.1793  0.8954  0.5651
17260TIP3   OH273194   4.756   4.322  11.926 -0.1867  0.0414  0.2386
17260TIP3    H173195   4.660   4.322  11.923 -0.1865 -0.4490  0.1535
17260TIP3    H273196   4.782   4.317  11.834 -0.0940 -1.4729  0.3280
17261TIP3   OH273197   5.898   5.979  12.539 -0.4192 -0.6596 -0.1092
17261TIP3    H173198   5.839   6.016  12.604 -1.2774  0.4589 -1.4741
17261TIP3    H273199   5.859   5.893  12.518 -1.2642 -0.1833 -0.5648
17262TIP3   OH273200   2.395   0.408   5.204 -0.1659 -0.0269 -0.0038
17262TIP3    H173201   2.394   0.342   5.274  0.1434  0.6951  0.7088
17262TIP3    H273202   2.383   0.491   5.250 -2.4045  0.3035 -1.0590
17263TIP3   OH273203   5.914   1.784   4.684  0.0004 -0.7363  0.2083
17263TIP3    H173204   5.960   1.706   4.656  0.8235 -1.0908  2.3835
17263TIP3    H273205   5.821   1.761   4.678  0.1910 -1.3260 -0.5952
17264TIP3   OH273206   1.831   0.476  14.149  0.3791  0.0047  0.1827
17264TIP3    H173207   1.829   0.561  14.194 -0.9511  0.6550 -1.0144
17264TIP3    H273208   1.904   0.483  14.088 -0.0582  0.5211 -0.2972
17265TIP3   OH273209   6.567   1.307   3.509  0.5873  0.1545 -0.6417
17265TIP3    H173210   6.511   1.369   3.462  0.2018 -0.7644 -1.4404
17265TIP3    H273211   6.575   1.343   3.597  0.9772  1.7044 -1.2880
17266TIP3   OH273212   5.124   5.399   5.934 -0.0424  0.0650 -0.0977
17266TIP3    H173213   5.170   5.331   5.983 -0.7772  0.9392  1.9073
17266TIP3    H273214   5.182   5.419   5.861  1.2228 -1.1387  0.5369
17267TIP3   OH273215   1.863   3.491   2.285  0.0770  0.0300 -0.5247
17267TIP3    H173216   1.801   3.473   2.355 -0.7890  0.5962 -1.1180
17267TIP3    H273217   1.943   3.518   2.329 -0.7097  1.1899  0.2534
17268TIP3   OH273218   3.377   6.352  17.174 -0.1522  0.2376 -0.2360
17268TIP3    H173219   3.403   6.440  17.199 -0.0110  0.2993 -0.5836
17268TIP3    H273220   3.404   6.297  17.248 -0.8180  0.5670  0.2555
17269TIP3   OH273221   2.808   0.292  12.799 -0.2367 -0.0414  0.7318
17269TIP3    H173222   2.715   0.278  12.784 -0.2482  0.8688 -0.2025
17269TIP3    H273223   2.818   0.388  12.802  0.6072 -0.1311  1.2256
17270TIP3   OH273224   0.686   1.102   0.440  0.4270 -0.3779 -0.2885
17270TIP3    H173225   0.625   1.056   0.497 -0.5979 -0.8753 -1.7482
17270TIP3    H273226   0.699   1.187   0.483  1.1752 -1.3998  1.6478
17271TIP3   OH273227   5.258   1.962   1.268 -0.1956  0.4400 -0.4025
17271TIP3    H173228   5.332   1.924   1.219 -0.4287  1.2588 -1.4353
17271TIP3    H273229   5.287   1.962   1.359  0.1289 -1.4353 -0.4757
17272TIP3   OH273230   2.842   3.382   0.929  0.0331  0.1153 -0.2541
17272TIP3    H173231   2.795   3.466   0.920 -0.6922 -0.3696 -1.2805
17272TIP3    H273232   2.890   3.390   1.011  1.3749  2.2255 -1.1512
17273TIP3   OH273233   4.727   5.223   5.477  0.4924  0.1636  0.5286
17273TIP3    H173234   4.777   5.145   5.451  1.0827  0.6145  0.2721
17273TIP3    H273235   4.676   5.245   5.399 -0.0618 -0.2486  0.7640
17274TIP3   OH273236   3.001   1.142  10.398  0.1106  0.0373  0.0030
17274TIP3    H173237   3.084   1.100  10.420 -0.3959 -2.0334 -1.6477
17274TIP3    H273238   2.960   1.082  10.336 -2.2605  1.3969  0.1285
17275TIP3   OH273239   3.932   6.661  17.182  0.0381 -0.2053 -0.7354
17275TIP3    H173240   4.002   6.674  17.246  1.1593  0.8785 -2.1132
17275TIP3    H273241   3.854   6.643  17.235  0.8509  0.9335  0.9377
17276TIP3   OH273242   4.078   5.976  13.585  0.0720 -0.2654  0.2865
17276TIP3    H173243   4.165   5.991  13.622  0.3377  0.0383 -0.4469
17276TIP3    H273244   4.080   6.020  13.500 -1.1058  0.5103  0.6423
17277TIP3   OH273245   4.644   1.391  14.456  0.2688  0.8092  0.3172
17277TIP3    H173246   4.582   1.456  14.489 -1.6914 -0.1829 -1.1997
17277TIP3    H273247   4.635   1.317  14.517  0.4789  0.9228  0.4871
17278TIP3   OH273248   4.449   4.473  13.659  0.3433 -0.0284  0.1737
17278TIP3    H173249   4.405   4.447  13.578 -0.9242 -2.1819  1.4648
17278TIP3    H273250   4.541   4.449  13.645  0.1892 -0.1271 -0.7168
17279TIP3   OH273251   6.756   2.314  13.123  0.4454 -0.1230 -0.0651
17279TIP3    H173252   6.731   2.225  13.148  1.0315 -0.1362  0.4822
17279TIP3    H273253   6.682   2.345  13.070 -1.1754  0.1500  2.1945
17280TIP3   OH273254   3.380   3.788  16.358 -0.1083  0.1101  0.5056
17280TIP3    H173255   3.372   3.845  16.435 -1.0768 -0.8847  1.1721
17280TIP3    H273256   3.408   3.846  16.288 -1.1598  1.4234  1.1362
17281TIP3   OH273257   6.731   3.349  14.936 -0.3135  0.5913  0.1779
17281TIP3    H173258   6.712   3.350  14.843  1.9343 -1.4748 -0.4042
17281TIP3    H273259   6.826   3.337  14.942 -0.5505 -0.8374  2.6887
17282TIP3   OH273260   0.539   0.115  16.169  0.0361  0.0502  0.3029
17282TIP3    H173261   0.594   0.184  16.133 -1.1303  1.0459  0.3736
17282TIP3    H273262   0.597   0.039  16.175  0.8954  0.4955 -1.4744
17283TIP3   OH273263   1.946   0.662   0.944  0.1000 -0.5307  0.4433
17283TIP3    H173264   1.906   0.637   0.861 -0.6299 -0.3449  0.7216
17283TIP3    H273265   1.903   0.606   1.009  0.9262 -0.9276  0.6559
17284TIP3   OH273266   1.664   4.208   4.886  0.0508  0.3675  0.1968
17284TIP3    H173267   1.747   4.164   4.908 -0.2354 -0.5350 -0.4540
17284TIP3    H273268   1.608   4.193   4.962  0.7463  1.7352  1.0195
17285TIP3   OH273269   5.545   1.272  12.721 -0.0277  0.4553  0.2355
17285TIP3    H173270   5.454   1.281  12.692  0.2534  1.6440 -0.3082
17285TIP3    H273271   5.543   1.195  12.779 -0.9153 -0.9423 -1.5531
17286TIP3   OH273272   5.921   2.103   4.181  0.9046  0.2854 -0.2915
17286TIP3    H173273   5.983   2.106   4.108 -0.0427  1.0778 -1.0755
17286TIP3    H273274   5.942   2.180   4.233  1.5328 -0.2419  0.2746
17287TIP3   OH273275   3.229   1.469  10.817  1.0621 -0.0491  0.7330
17287TIP3    H173276   3.178   1.545  10.847 -0.1604 -0.5893  0.1131
17287TIP3    H273277   3.278   1.503  10.742 -0.7448 -0.2131 -0.5997
17288TIP3   OH273278   6.427   2.554   3.645 -0.7258  0.1223 -0.5598
17288TIP3    H173279   6.352   2.497   3.631 -0.2918 -1.1537  1.7901
17288TIP3    H273280   6.397   2.619   3.708  0.1608 -0.5483  0.5939
17289TIP3   OH273281   1.775   1.211   4.412 -0.4811 -0.1387 -0.2523
17289TIP3    H173282   1.800   1.160   4.489  1.2130 -0.2154 -0.7996
17289TIP3    H273283   1.687   1.181   4.390  0.0650 -2.0758  0.0655
17290TIP3   OH273284   6.031   6.563   0.913 -0.2135 -0.3988  0.0356
17290TIP3    H173285   6.073   6.575   0.828 -0.0739 -0.2206  0.1299
17290TIP3    H273286   5.937   6.563   0.893 -0.2230  0.6230 -0.0067
17291TIP3   OH273287   2.692   3.614   0.899 -0.0151 -0.1157 -0.4892
17291TIP3    H173288   2.637   3.561   0.842 -0.3837  0.5128 -0.7220
17291TIP3    H273289   2.632   3.650   0.964  0.4813 -1.2650  0.6511
17292TIP3   OH273290   6.146   5.218   5.085  0.0426  0.0462 -0.1921
17292TIP3    H173291   6.078   5.270   5.130 -0.5979 -0.2201 -0.8382
17292TIP3    H273292   6.108   5.198   5.000  0.1619 -1.7056  0.1244
17293TIP3   OH273293   6.630   1.278  14.282  0.3310  0.2513  0.1197
17293TIP3    H173294   6.626   1.207  14.346 -2.4285  0.3739  0.2265
17293TIP3    H273295   6.667   1.239  14.203  0.7833 -0.7376  0.8075
17294TIP3   OH273296   2.620   6.616  15.146 -0.5004  0.2935  0.0257
17294TIP3    H173297   2.629   6.561  15.224 -2.8443 -0.7398 -0.3488
17294TIP3    H273298   2.632   6.555  15.073 -1.1180  0.6926 -0.4103
17295TIP3   OH273299   0.580   1.263   3.744  0.0702 -0.5322  0.7072
17295TIP3    H173300   0.655   1.291   3.693 -0.1822 -0.2354  0.4970
17295TIP3    H273301   0.514   1.331   3.730 -1.2176 -2.1042 -1.2604
17296TIP3   OH273302   1.019   2.514   5.367  0.1172 -0.6267 -0.5942
17296TIP3    H173303   1.022   2.600   5.327 -0.9792  1.1967  2.8137
17296TIP3    H273304   0.934   2.478   5.341 -0.2294  0.1689 -0.5868
17297TIP3   OH273305   4.590   5.361  13.550 -0.7706  0.3113  0.0955
17297TIP3    H173306   4.532   5.291  13.578 -1.4316  0.7514 -0.1532
17297TIP3    H273307   4.661   5.361  13.614 -1.1619 -0.0780  0.5325
17298TIP3   OH273308   3.884   6.415  13.341 -0.4139  0.1955 -0.1743
17298TIP3    H173309   3.916   6.344  13.286 -0.5648  0.3648 -0.4852
17298TIP3    H273310   3.829   6.467  13.283 -0.8834  0.1643  0.2339
17299TIP3   OH273311   3.518   2.461   1.409 -0.5924  0.0442 -0.0254
17299TIP3    H173312   3.531   2.432   1.318  1.1719 -0.9801  0.4992
17299TIP3    H273313   3.607   2.473   1.442 -1.2060 -0.2037  1.7775
17300TIP3   OH273314   2.980   3.493   2.974  0.2101 -0.4469 -0.5453
17300TIP3    H173315   2.976   3.401   2.948 -0.5530 -0.5053 -0.2525
17300TIP3    H273316   2.951   3.542   2.896  1.2399 -0.4114 -0.9115
17301TIP3   OH273317   6.655   5.140  16.412  0.1741  0.0103 -0.0726
17301TIP3    H173318   6.652   5.064  16.355  2.5488 -0.7030  0.6212
17301TIP3    H273319   6.594   5.120  16.483 -1.5084  0.1575 -1.4244
17302TIP3   OH273320   5.105   0.772  12.252  0.1651 -0.1756  0.1822
17302TIP3    H173321   5.018   0.810  12.238 -0.7300 -1.2500  2.3635
17302TIP3    H273322   5.087   0.685  12.288  2.1562 -0.3899  0.7651
17303TIP3   OH273323   0.638   1.536   3.150 -0.5143 -0.3678 -0.2075
17303TIP3    H173324   0.669   1.605   3.090 -1.4367  1.0647  0.8920
17303TIP3    H273325   0.672   1.455   3.113 -1.8075  0.3255 -3.2382
17304TIP3   OH273326   2.842   6.503   4.937 -0.3015 -0.1740  0.1903
17304TIP3    H173327   2.876   6.560   4.868  0.9124  1.0507  1.6886
17304TIP3    H273328   2.812   6.425   4.892  2.1369 -0.2266 -1.5724
17305TIP3   OH273329   4.307   3.200   0.894  0.4234  0.6734  0.0429
17305TIP3    H173330   4.231   3.222   0.841 -0.8037  0.8718  1.7929
17305TIP3    H273331   4.315   3.105   0.887  0.5191  0.7391 -0.7919
17306TIP3   OH273332   0.162   1.704  16.968 -0.1710  0.3569  0.1055
17306TIP3    H173333   0.086   1.758  16.946  0.0675  0.3506 -0.7762
17306TIP3    H273334   0.235   1.746  16.921  0.2818  0.0970  0.5680
17307TIP3   OH273335   6.550   2.523  14.075 -0.0036  0.7752 -0.3785
17307TIP3    H173336   6.544   2.481  14.161  2.6612  3.2764  1.2362
17307TIP3    H273337   6.640   2.506  14.047  0.3947  3.2203 -0.7715
17308TIP3   OH273338   0.093   2.645  12.702 -0.1438 -0.1099 -0.1397
17308TIP3    H173339   0.089   2.671  12.609 -0.9265 -1.4193 -0.5002
17308TIP3    H273340   0.182   2.612  12.713  0.0054  0.2026 -0.3872
17309TIP3   OH273341   2.716   3.180  14.502 -0.4633  0.4280  0.0520
17309TIP3    H173342   2.750   3.263  14.469 -0.1183  0.7858  1.2707
17309TIP3    H273343   2.787   3.145  14.556 -0.4371 -0.8754 -0.7843
17310TIP3   OH273344   6.218   5.854   5.068 -0.2584 -0.0982 -0.1687
17310TIP3    H173345   6.177   5.791   5.127 -1.6453  0.5688 -0.3839
17310TIP3    H273346   6.244   5.926   5.125  1.7173 -0.9840  0.1459
17311TIP3   OH273347   2.697   4.388  13.884 -0.0736 -0.0525  0.2556
17311TIP3    H173348   2.728   4.338  13.960 -1.1519 -0.8750  0.1727
17311TIP3    H273349   2.695   4.325  13.813 -0.6501  0.3130 -0.0592
17312TIP3   OH273350   1.800   3.383  13.240 -0.3076  0.2768  0.5294
17312TIP3    H173351   1.762   3.318  13.181  1.6586 -0.0913 -0.4363
17312TIP3    H273352   1.866   3.428  13.186 -1.1692  2.6749  1.3512
17313TIP3   OH273353   2.074   1.244   0.125  0.2774 -0.3213 -0.1374
17313TIP3    H173354   2.071   1.238   0.030 -0.4268  2.7084 -0.4007
17313TIP3    H273355   1.990   1.206   0.154  0.2670 -0.7776 -0.7522
17314TIP3   OH273356   0.601   0.412  14.565  0.6650 -0.1530 -0.2293
17314TIP3    H173357   0.590   0.428  14.471 -1.3833  0.8200  0.1053
17314TIP3    H273358   0.572   0.322  14.578 -0.5861  0.1980 -0.3697
17315TIP3   OH273359   3.823   3.711   3.509 -0.3909 -0.2604  0.2683
17315TIP3    H173360   3.886   3.705   3.581  0.1257 -0.8940 -0.2212
17315TIP3    H273361   3.859   3.780   3.453 -0.1124 -0.6414 -0.0253
17316TIP3   OH273362   1.160   0.771   5.830  0.1404  0.4214 -0.1327
17316TIP3    H173363   1.196   0.839   5.888 -0.6655  0.9060 -0.1742
17316TIP3    H273364   1.067   0.765   5.856  0.0965 -0.3402 -0.4473
17317TIP3   OH273365   3.414   5.933  11.206 -0.7124 -0.0742  0.2119
17317TIP3    H173366   3.410   5.903  11.115  0.7313 -1.2544  0.5009
17317TIP3    H273367   3.359   5.871  11.254  1.4190 -1.7283  0.6470
17318TIP3   OH273368   0.222   6.241  15.954 -0.0010 -0.2248  0.4207
17318TIP3    H173369   0.178   6.277  16.030  0.2092  0.9756 -0.0039
17318TIP3    H273370   0.215   6.146  15.964 -3.2928 -0.1214  0.0096
17319TIP3   OH273371   5.858   4.400   2.511  0.5241  0.7923 -0.2903
17319TIP3    H173372   5.845   4.398   2.605 -0.5417  1.1391 -0.4213
17319TIP3    H273373   5.936   4.454   2.498  1.2133 -0.0007  0.4323
17320TIP3   OH273374   4.266   4.133   3.010  0.6068  0.0025  0.8081
17320TIP3    H173375   4.203   4.098   2.947  3.4460 -1.9822 -1.1563
17320TIP3    H273376   4.288   4.220   2.975  2.6267 -1.3134 -1.5306
17321TIP3   OH273377   5.073   0.715  13.824 -0.5276  0.3781  0.0015
17321TIP3    H173378   5.135   0.642  13.822  0.7337  1.3896  0.6561
17321TIP3    H273379   5.093   0.761  13.906 -1.9789  0.8902  0.1004
17322TIP3   OH273380   6.156   5.587   3.103  0.1918 -0.6958  0.3389
17322TIP3    H173381   6.180   5.637   3.181  1.3254  0.9180 -0.9542
17322TIP3    H273382   6.240   5.565   3.062 -0.3807 -1.3108 -0.5276
17323TIP3   OH273383   6.426   4.060   1.870  0.6617 -0.0861 -0.1646
17323TIP3    H173384   6.366   4.120   1.914 -0.3123 -1.3576  0.3207
17323TIP3    H273385   6.438   4.097   1.783  0.2500  0.9108  0.1934
17324TIP3   OH273386   3.727   1.213  13.316  0.1149 -0.2437 -0.2867
17324TIP3    H173387   3.761   1.240  13.231 -2.8173  0.5730 -1.3092
17324TIP3    H273388   3.681   1.291  13.349 -1.1084 -1.3513  0.7534
17325TIP3   OH273389   3.698   4.680   1.627 -0.4642  0.3120 -0.2575
17325TIP3    H173390   3.613   4.684   1.585 -1.4939 -0.4667  1.6196
17325TIP3    H273391   3.700   4.758   1.684  0.8151  1.2517 -1.5085
17326TIP3   OH273392   3.547   6.147  11.086  0.2544  0.2001 -0.5262
17326TIP3    H173393   3.495   6.087  11.140  0.6203  0.3533  0.0068
17326TIP3    H273394   3.529   6.120  10.996 -0.9693  0.4401 -0.3605
17327TIP3   OH273395   5.027   2.089   1.179  0.3995 -0.7993 -0.1686
17327TIP3    H173396   4.950   2.050   1.220  0.3564  0.9073  1.5384
17327TIP3    H273397   5.101   2.040   1.215  0.2203 -1.4260 -0.6221
17328TIP3   OH273398   6.459   1.641   5.356 -0.6315 -0.0504  0.3092
17328TIP3    H173399   6.380   1.638   5.410 -1.1213 -1.0887 -0.4368
17328TIP3    H273400   6.430   1.617   5.268  0.5497 -0.7233  0.0769
17329TIP3   OH273401   2.939   6.523  14.960 -0.3665 -0.2930  0.6465
17329TIP3    H173402   3.004   6.472  14.911  0.7846  0.8201  0.9755
17329TIP3    H273403   2.862   6.466  14.963 -0.8239 -0.1614 -3.1663
17330TIP3   OH273404   4.720   0.492   4.283  0.4058 -1.3246 -0.3186
17330TIP3    H173405   4.694   0.556   4.349  1.8119 -1.5144  0.4578
17330TIP3    H273406   4.637   0.452   4.256 -0.5251  0.7919 -0.8503
17331TIP3   OH273407   3.193   3.464  17.100 -0.3673  0.7079 -0.0066
17331TIP3    H173408   3.139   3.395  17.062 -2.4365  1.2595  1.6949
17331TIP3    H273409   3.181   3.455  17.195  1.3306  1.8534  0.3820
17332TIP3   OH273410   5.360   4.982  15.422 -0.1777  0.2734  0.3588
17332TIP3    H173411   5.348   4.946  15.510 -1.5764 -0.5640 -0.1354
17332TIP3    H273412   5.325   4.914  15.364 -0.0407  1.1641 -0.7990
17333TIP3   OH273413   0.820   0.200  15.432 -0.2661 -0.3459 -0.2448
17333TIP3    H173414   0.860   0.145  15.500 -0.2794  2.0625  1.8949
17333TIP3    H273415   0.737   0.157  15.413 -0.4291 -0.9573  1.5819
17334TIP3   OH273416   5.936   4.781   1.685 -0.6160  0.0460  0.2967
17334TIP3    H173417   5.978   4.768   1.600  1.3629 -1.6695  1.4299
17334TIP3    H273418   5.999   4.833   1.735 -1.3275  0.2144  1.0478
17335TIP3   OH273419   3.720   4.099   0.351  0.5733  0.1918  0.0493
17335TIP3    H173420   3.732   4.179   0.401 -0.4173  0.9441 -0.8706
17335TIP3    H273421   3.774   4.111   0.273  1.1829 -0.4617  0.3621
17336TIP3   OH273422   6.464   6.363   0.727 -0.3039 -0.1813 -0.4161
17336TIP3    H173423   6.521   6.409   0.664  0.1781 -1.4215 -0.9160
17336TIP3    H273424   6.388   6.337   0.675  0.0506 -1.1220 -0.4724
17337TIP3   OH273425   3.561   4.403   5.621  0.8740 -0.8833 -1.0051
17337TIP3    H173426   3.646   4.397   5.664  1.0120 -2.3613 -1.4181
17337TIP3    H273427   3.525   4.315   5.628 -2.1097  0.3825  2.0444
17338TIP3   OH273428   1.358   5.418   6.336 -0.7334  0.2533  0.0883
17338TIP3    H173429   1.372   5.366   6.416  1.4067  0.8097  0.1504
17338TIP3    H273430   1.289   5.480   6.359  0.4989  1.0425  1.8744
17339TIP3   OH273431   2.071   1.038   4.137  0.0636 -0.6720  0.4018
17339TIP3    H173432   2.089   0.949   4.167 -1.4282 -1.7437 -1.6179
17339TIP3    H273433   1.976   1.048   4.147 -0.2552 -0.4617 -2.0506
17340TIP3   OH273434   0.746   1.065   2.748 -0.2430 -0.7069 -0.0413
17340TIP3    H173435   0.805   1.111   2.809 -0.3307 -0.1618 -0.3635
17340TIP3    H273436   0.759   1.109   2.664  0.6726 -2.1418 -0.6991
17341TIP3   OH273437   2.136   5.475   5.035 -0.1964 -0.3038 -0.1285
17341TIP3    H173438   2.130   5.385   5.002  0.8280 -0.1549 -0.7920
17341TIP3    H273439   2.231   5.492   5.039 -0.3652  1.5496 -2.3068
17342TIP3   OH273440   3.791   3.035  10.536  0.4474 -0.0041  0.3778
17342TIP3    H173441   3.746   3.068  10.613  0.3293  0.1810  0.2301
17342TIP3    H273442   3.739   2.960  10.508  0.4660 -0.0449  0.4508
17343TIP3   OH273443   0.938   1.718   2.692  0.3910 -0.5775  0.3636
17343TIP3    H173444   1.018   1.718   2.640 -0.6897 -2.7359 -1.4739
17343TIP3    H273445   0.940   1.801   2.740  2.4924  0.5708 -1.5417
17344TIP3   OH273446   0.575   2.885   5.667 -0.5785 -0.4322 -0.3150
17344TIP3    H173447   0.516   2.811   5.680  0.3393 -0.9715  1.0458
17344TIP3    H273448   0.580   2.927   5.753 -1.4879  1.5648 -1.1756
17345TIP3   OH273449   1.101   1.055   0.227  0.3173 -0.9751 -0.5199
17345TIP3    H173450   1.151   1.075   0.306 -0.6351 -1.0608  0.1195
17345TIP3    H273451   1.043   1.131   0.215 -0.6852 -1.6570 -0.1955
17346TIP3   OH273452   5.894   3.782   0.558 -0.2407  0.3909  0.7990
17346TIP3    H173453   5.969   3.742   0.514  0.1398  1.1596  0.7363
17346TIP3    H273454   5.855   3.711   0.609 -0.1628 -0.3009 -0.0761
17347TIP3   OH273455   3.027   2.234   2.692  0.7651 -0.0718 -0.4124
17347TIP3    H173456   3.087   2.169   2.728  0.6173 -0.5790 -1.0766
17347TIP3    H273457   3.036   2.310   2.750  0.3482 -0.9617  0.8432
17348TIP3   OH273458   5.543   3.786   4.427  0.6471  0.4950 -0.3194
17348TIP3    H173459   5.534   3.792   4.522  2.2314  2.6087 -0.2121
17348TIP3    H273460   5.503   3.867   4.394  0.7444  0.1233 -1.3910
17349TIP3   OH273461   4.665   3.334   4.316  0.4054  0.0867 -0.2936
17349TIP3    H173462   4.673   3.399   4.247  1.0728 -0.1313 -0.4294
17349TIP3    H273463   4.724   3.365   4.385  0.4035 -0.1552 -0.1826
17350TIP3   OH273464   2.181   4.003  11.505 -0.0736  0.3044  0.2409
17350TIP3    H173465   2.111   4.045  11.554 -0.7518  2.6841 -2.5141
17350TIP3    H273466   2.136   3.947  11.441  0.2905  2.7816 -2.3767
17351TIP3   OH273467   0.734   3.970   3.182 -0.8668  0.3735  0.2777
17351TIP3    H173468   0.731   3.876   3.163  1.7059 -0.2473  2.3443
17351TIP3    H273469   0.788   4.007   3.113  0.0762 -0.1067  0.7388
17352TIP3   OH273470   0.546   1.840   3.820  0.2651 -0.4678  0.7966
17352TIP3    H173471   0.553   1.845   3.916  0.8390  0.5556  0.7149
17352TIP3    H273472   0.453   1.857   3.803 -0.4863 -3.5501  1.2980
17353TIP3   OH273473   1.397   5.429   4.791  0.0082 -0.0984 -0.4056
17353TIP3    H173474   1.431   5.494   4.730 -0.3266  0.1400 -0.3432
17353TIP3    H273475   1.339   5.478   4.849  0.0562 -0.3845 -0.1101
17354TIP3   OH273476   2.249   2.764   3.234  0.1745 -0.6178  0.3454
17354TIP3    H173477   2.277   2.749   3.144 -0.5352 -2.0323  0.3320
17354TIP3    H273478   2.306   2.708   3.287  0.7298  0.3627  0.8141
17355TIP3   OH273479   1.370   4.752  14.795  0.9710 -0.0035  0.6240
17355TIP3    H173480   1.308   4.682  14.774  0.7168  0.6082 -0.7554
17355TIP3    H273481   1.318   4.816  14.844 -0.5227  2.0679 -3.2108
17356TIP3   OH273482   1.269   2.169  11.454 -0.5067 -0.3879  0.0855
17356TIP3    H173483   1.283   2.218  11.535 -2.1786  0.2588  0.0197
17356TIP3    H273484   1.207   2.101  11.477 -0.4743 -0.6219 -0.5023
17357TIP3   OH273485   5.974   4.684  11.451 -0.1179  0.0909 -0.0632
17357TIP3    H173486   5.896   4.632  11.471  1.1032 -1.6746  0.3848
17357TIP3    H273487   6.035   4.621  11.412  1.4459  1.1907  0.5176
17358TIP3   OH273488   3.502   0.022  13.699 -0.5545  0.0476  0.3005
17358TIP3    H173489   3.582  -0.010  13.740 -0.6590 -0.8482 -0.1799
17358TIP3    H273490   3.533   0.075  13.625 -0.3647  1.6903  1.4864
17359TIP3   OH273491   2.077   0.914   1.306 -0.7218 -0.0558 -0.2535
17359TIP3    H173492   2.152   0.894   1.250 -1.3767  2.3696 -2.1523
17359TIP3    H273493   2.086   0.854   1.380  2.9151 -0.0458 -0.5300
17360TIP3   OH273494   3.950   0.126  14.174  0.3585 -0.1181 -1.0172
17360TIP3    H173495   3.992   0.207  14.202 -1.3062  0.8790 -1.2775
17360TIP3    H273496   3.943   0.134  14.079 -3.4340  1.4029 -0.7854
17361TIP3   OH273497   3.406   1.938   2.681  0.2450  0.1789 -0.0243
17361TIP3    H173498   3.361   1.933   2.597  0.0779 -2.0863  0.1336
17361TIP3    H273499   3.484   1.883   2.669  0.6722  0.5336  1.0436
17362TIP3   OH273500   1.515   3.653  12.381 -0.3330 -0.2173 -0.0317
17362TIP3    H173501   1.422   3.669  12.368 -0.1071  2.4606  1.0914
17362TIP3    H273502   1.524   3.632  12.474  0.3830  2.1912  0.5258
17363TIP3   OH273503   6.047   6.227   3.034  0.3776  0.4222 -0.6289
17363TIP3    H173504   6.131   6.182   3.031  1.5537  2.3147  1.1774
17363TIP3    H273505   6.008   6.200   3.117 -1.5346 -1.5118 -2.0476
17364TIP3   OH273506   4.934   3.472  17.075 -0.0938  0.0668  0.0179
17364TIP3    H173507   4.906   3.562  17.090  0.8016  0.1253  1.4762
17364TIP3    H273508   4.924   3.429  17.159 -0.2690 -1.1470 -0.6000
17365TIP3   OH273509   6.497   2.394  16.852 -0.2103  0.3641 -0.0913
17365TIP3    H173510   6.585   2.382  16.817 -0.4682  1.2348 -1.0792
17365TIP3    H273511   6.499   2.350  16.937  1.4257  1.0909  0.2804
17366TIP3   OH273512   1.982   3.766  11.570 -0.4131 -0.0834  0.1940
17366TIP3    H173513   1.905   3.805  11.531 -0.1322 -0.7090 -1.0387
17366TIP3    H273514   2.000   3.689  11.516  0.2242 -0.7612  1.3354
17367TIP3   OH273515   3.620   3.333   3.740  0.1094 -0.6045  0.3101
17367TIP3    H173516   3.684   3.403   3.755 -0.0209 -0.3539 -0.2784
17367TIP3    H273517   3.670   3.264   3.696 -0.1356 -0.1958 -0.6245
17368TIP3   OH273518   0.680   0.049   0.672  0.1462  0.2889 -0.4485
17368TIP3    H173519   0.749  -0.017   0.660  1.8152  1.7980  0.3666
17368TIP3    H273520   0.693   0.081   0.761 -0.7002  1.6484 -0.7841
17369TIP3   OH273521   4.866   0.550   4.709  0.0308  0.5875 -0.0913
17369TIP3    H173522   4.907   0.597   4.636 -1.0806  0.9478 -0.4918
17369TIP3    H273523   4.803   0.491   4.667 -0.0425  0.2141  0.5363
17370TIP3   OH273524   2.298   5.423   4.691 -0.4071  0.5963  0.5623
17370TIP3    H173525   2.250   5.506   4.697 -2.3526 -0.5284  1.5248
17370TIP3    H273526   2.232   5.356   4.706  1.4158 -1.0964  1.4975
17371TIP3   OH273527   5.423   0.139  14.532 -0.3213  0.4248  0.1257
17371TIP3    H173528   5.423   0.127  14.438  1.9106  1.4234 -0.0645
17371TIP3    H273529   5.345   0.092  14.563 -1.4156  0.5620 -2.2375
17372TIP3   OH273530   0.464   6.649   6.257 -0.0219 -0.2849 -0.7405
17372TIP3    H173531   0.554   6.631   6.284 -0.3423 -0.8415 -0.0027
17372TIP3    H273532   0.421   6.681   6.337 -0.0033  1.8665 -1.5330
17373TIP3   OH273533   5.412   1.687  13.796  0.1140  0.2200 -0.3248
17373TIP3    H173534   5.477   1.737  13.845 -0.3837 -0.0870  0.7053
17373TIP3    H273535   5.382   1.620  13.859 -1.3417  0.4993 -0.6798
17374TIP3   OH273536   6.675   0.818  16.177  0.6387 -0.0143 -0.3921
17374TIP3    H173537   6.708   0.736  16.142 -0.0847 -0.7069  0.4742
17374TIP3    H273538   6.644   0.795  16.265 -4.6409 -0.1525 -1.9486
17375TIP3   OH273539   3.978   5.899   5.427 -0.2684  0.0712  0.3458
17375TIP3    H173540   4.067   5.887   5.460 -0.1434 -2.5431 -0.6920
17375TIP3    H273541   3.936   5.956   5.490  1.6088 -0.1260  1.8566
17376TIP3   OH273542   5.974   0.105   1.397 -0.2987 -0.1672  0.2100
17376TIP3    H173543   5.899   0.139   1.347  0.8814  1.2446 -0.6776
17376TIP3    H273544   5.955   0.126   1.488 -0.0008  2.2101 -0.2304
17377TIP3   OH273545   4.757   4.774  14.204 -0.0632 -0.1203 -0.7607
17377TIP3    H173546   4.841   4.736  14.179 -1.0326 -0.6400 -3.6365
17377TIP3    H273547   4.778   4.860  14.239  1.6441  0.4746 -3.0037
17378TIP3   OH273548   3.891   4.916   3.821  0.0342  0.3247 -0.0552
17378TIP3    H173549   3.861   4.869   3.744  1.7336  1.2520 -1.3527
17378TIP3    H273550   3.940   4.851   3.872 -1.0860 -0.2878  0.2707
17379TIP3   OH273551   0.825   2.361   3.538  0.6424 -0.1099 -0.1707
17379TIP3    H173552   0.815   2.267   3.554 -0.7370 -0.3753 -2.1806
17379TIP3    H273553   0.912   2.370   3.499  0.0599 -0.8838 -1.7428
17380TIP3   OH273554   1.613   1.228  16.747  0.4780 -0.6785 -0.7341
17380TIP3    H173555   1.594   1.310  16.791  0.7990 -0.1899 -1.4755
17380TIP3    H273556   1.687   1.248  16.689  2.2417 -2.1080  0.8897
17381TIP3   OH273557   2.822   3.840   3.503  0.1128  0.0538 -0.1609
17381TIP3    H173558   2.877   3.826   3.426  0.2801 -0.5496  0.0607
17381TIP3    H273559   2.835   3.932   3.526 -0.2488  0.3413 -1.0837
17382TIP3   OH273560   4.328   1.551  13.484  0.8548 -0.1135 -0.0809
17382TIP3    H173561   4.387   1.507  13.545  1.3200 -0.0618 -0.4920
17382TIP3    H273562   4.265   1.484  13.458  1.0270 -0.2975 -0.0228
17383TIP3   OH273563   2.027   5.727  11.379 -0.1474 -0.0805  0.1282
17383TIP3    H173564   2.044   5.789  11.450  1.8218  0.4331 -0.7199
17383TIP3    H273565   2.108   5.676  11.372 -1.2927 -1.9594  0.0116
17384TIP3   OH273566   1.348   3.985   1.391 -0.2205 -0.0146  0.0131
17384TIP3    H173567   1.316   3.964   1.303  0.7888 -1.3401 -0.0739
17384TIP3    H273568   1.417   4.050   1.376  0.0436 -0.3392 -0.1955
17385TIP3   OH273569   3.674   1.907   4.327  0.5009  0.3519 -0.0042
17385TIP3    H173570   3.685   2.002   4.324  0.5770  0.3181 -1.2037
17385TIP3    H273571   3.580   1.894   4.316  0.3974  0.2992  0.8596
17386TIP3   OH273572   5.744   1.554   3.292 -0.1751  0.6522  0.0293
17386TIP3    H173573   5.687   1.512   3.227 -0.4420  0.6025  0.2935
17386TIP3    H273574   5.820   1.583   3.242  0.5960 -1.2433  0.0402
17387TIP3   OH273575   2.128   6.400   3.104  0.1160 -0.0768  0.2370
17387TIP3    H173576   2.207   6.426   3.152  0.3832 -1.8298  0.8339
17387TIP3    H273577   2.161   6.355   3.026 -0.2409 -1.8022  1.0397
17388TIP3   OH273578   5.508   2.804  12.438 -0.3069  0.5434 -0.5450
17388TIP3    H173579   5.515   2.899  12.435  0.1558  0.5534  0.3105
17388TIP3    H273580   5.574   2.778  12.503 -1.4701 -0.2291  0.3700
17389TIP3   OH273581   1.430   6.684  11.937 -0.0648 -0.5414 -0.6390
17389TIP3    H173582   1.454   6.632  11.860 -0.6297 -2.3956  0.3795
17389TIP3    H273583   1.338   6.661  11.954  0.1859 -0.5290  0.8567
17390TIP3   OH273584   1.904   4.634  12.382 -0.0518 -0.4488 -0.0689
17390TIP3    H173585   1.877   4.633  12.474  0.2073 -0.7325  0.0064
17390TIP3    H273586   1.836   4.684  12.337 -0.9070 -1.4736  0.0501
17391TIP3   OH273587   4.237   6.189   3.920  0.5913  0.3151 -0.4716
17391TIP3    H173588   4.183   6.122   3.960  1.3705 -0.6005 -0.9182
17391TIP3    H273589   4.176   6.240   3.866 -0.5418  1.7704  1.9917
17392TIP3   OH273590   1.701   4.456  11.351  0.7583  0.2903 -0.0034
17392TIP3    H173591   1.787   4.460  11.393  0.6932  1.9225  0.0378
17392TIP3    H273592   1.713   4.397  11.277  1.0660 -2.0765  1.8101
17393TIP3   OH273593   2.035   0.664  16.098  0.1814  0.0285 -0.2953
17393TIP3    H173594   2.040   0.760  16.095  0.7215  0.0446  0.6243
17393TIP3    H273595   1.973   0.641  16.029 -2.0671  1.2134  1.2006
17394TIP3   OH273596   6.383   3.620  14.440  0.4180 -0.0200 -0.1012
17394TIP3    H173597   6.383   3.524  14.442  0.1387 -0.0125  0.5456
17394TIP3    H273598   6.476   3.643  14.438  0.4757 -0.3102 -1.6844
17395TIP3   OH273599   4.017   6.289  16.774  0.1180 -0.1245  0.0724
17395TIP3    H173600   4.005   6.194  16.769  0.9681 -0.2221 -0.2973
17395TIP3    H273601   4.034   6.307  16.867 -2.4216 -0.0048  0.5945
17396TIP3   OH273602   3.663   2.386   3.347  0.1940  0.0079  0.8445
17396TIP3    H173603   3.609   2.456   3.384  0.8579  0.4756  0.9406
17396TIP3    H273604   3.656   2.314   3.410  0.3836  0.3858  1.3030
17397TIP3   OH273605   2.092   0.769  13.195  0.0035 -0.3861  0.1453
17397TIP3    H173606   2.141   0.834  13.144  1.2635 -0.3187  1.4004
17397TIP3    H273607   2.093   0.690  13.140  0.4589 -0.0140 -0.3903
17398TIP3   OH273608   3.002   1.309  14.706  0.5328 -0.2550  0.1242
17398TIP3    H173609   2.932   1.368  14.736  1.6592  0.7909  0.7560
17398TIP3    H273610   2.986   1.227  14.753 -0.1378  0.0462  0.4343
17399TIP3   OH273611   3.529   6.619  16.864 -0.2532 -0.0562 -0.0363
17399TIP3    H173612   3.575   6.596  16.783  0.0696  3.1326 -0.8983
17399TIP3    H273613   3.592   6.601  16.933  0.7654  0.3391 -0.8280
17400TIP3   OH273614   5.712   0.175  11.533  0.2242 -0.4012  0.0252
17400TIP3    H173615   5.748   0.245  11.587  0.3243  2.2058 -3.0888
17400TIP3    H273616   5.623   0.204  11.512 -1.6041 -3.6176  2.3592
17401TIP3   OH273617   2.591   5.894  16.608 -0.0574  0.2166 -0.2334
17401TIP3    H173618   2.668   5.951  16.609  0.6978 -0.6612 -2.4348
17401TIP3    H273619   2.517   5.954  16.620  0.9294  1.0076  2.5380
17402TIP3   OH273620   0.160   1.587  15.852 -0.8284 -0.0488 -0.7525
17402TIP3    H173621   0.118   1.614  15.934  1.0286 -2.8509  1.3143
17402TIP3    H273622   0.193   1.669  15.815 -0.5116  1.2392  2.0700
17403TIP3   OH273623   0.098   2.037  12.087 -0.2657  0.1543 -0.8116
17403TIP3    H173624   0.112   1.945  12.065 -0.7432 -0.2172  0.3853
17403TIP3    H273625   0.180   2.080  12.063  0.6974 -0.9235  0.3842
17404TIP3   OH273626   4.286   5.556  15.206 -0.1566  0.5271 -0.5190
17404TIP3    H173627   4.256   5.602  15.128  1.7209  1.2693 -0.8481
17404TIP3    H273628   4.301   5.625  15.271  0.7682  0.1742 -0.3496
17405TIP3   OH273629   2.748   2.766  13.915 -0.3527 -0.5165 -0.7410
17405TIP3    H173630   2.813   2.819  13.869 -0.7528  0.9797  0.3714
17405TIP3    H273631   2.799   2.713  13.976  0.0423 -1.4536 -1.8382
17406TIP3   OH273632   2.625   2.467   2.472  0.2825 -0.0972 -0.0757
17406TIP3    H173633   2.701   2.410   2.458  0.8022  0.6139 -0.2170
17406TIP3    H273634   2.576   2.425   2.542  2.5812  1.1220  2.4537
17407TIP3   OH273635   6.062   0.383   5.536  0.9988 -0.3388  0.3223
17407TIP3    H173636   6.073   0.389   5.631  1.1293 -0.3610  0.3080
17407TIP3    H273637   6.150   0.365   5.502  1.0028 -0.0474  0.1732
17408TIP3   OH273638   0.409   4.270   0.534 -0.4098  0.3586  0.1820
17408TIP3    H173639   0.494   4.311   0.519 -1.6004  2.2140 -2.2226
17408TIP3    H273640   0.346   4.342   0.527 -2.4122 -1.3901 -1.1131
17409TIP3   OH273641   0.902   1.591  14.420 -0.0426  0.1526 -0.3993
17409TIP3    H173642   0.994   1.615  14.415 -0.0629  0.8799  1.6185
17409TIP3    H273643   0.856   1.658  14.369  0.5406 -0.5571 -1.9278
17410TIP3   OH273644   3.122   0.809   2.521  0.1795  0.2156  0.1814
17410TIP3    H173645   3.028   0.825   2.518 -0.1177 -0.9759  1.9022
17410TIP3    H273646   3.137   0.737   2.460  0.0512  0.6307 -0.3499
17411TIP3   OH273647   2.688   3.410  13.823 -0.3696 -0.2757  0.0235
17411TIP3    H173648   2.623   3.421  13.754 -1.2045 -2.1767  0.4439
17411TIP3    H273649   2.653   3.341  13.879  1.9270 -1.2870  0.3422
17412TIP3   OH273650   1.032   4.946  13.364  0.0751 -0.3948 -0.6230
17412TIP3    H173651   1.048   4.991  13.447  1.4789 -0.3455 -0.8858
17412TIP3    H273652   0.942   4.915  13.370  0.0252 -0.0454  0.7534
17413TIP3   OH273653   6.704   0.174  12.864 -0.0950 -0.1953  0.2368
17413TIP3    H173654   6.743   0.138  12.785  1.6786  0.1611  0.9123
17413TIP3    H273655   6.721   0.268  12.859  3.1621 -0.5050  2.5869
17414TIP3   OH273656   2.857   4.143  14.909 -0.4572 -0.0782 -0.4346
17414TIP3    H173657   2.925   4.085  14.876  0.1984  0.6012 -0.2944
17414TIP3    H273658   2.809   4.172  14.832 -0.5335 -0.4913 -0.5414
17415TIP3   OH273659   6.639   2.729   3.509  0.3331  0.2324 -0.3283
17415TIP3    H173660   6.591   2.696   3.433  0.8406  0.4692 -0.7498
17415TIP3    H273661   6.575   2.724   3.581 -0.4702  0.9768 -0.9790
17416TIP3   OH273662   3.094   3.844  14.671 -0.0201  0.0411  0.0460
17416TIP3    H173663   3.010   3.800  14.657  0.6278 -1.2242  0.0386
17416TIP3    H273664   3.079   3.903  14.745 -0.4864 -1.3533  1.0906
17417TIP3   OH273665   3.142   0.550   5.984  0.2285  0.3653 -0.7309
17417TIP3    H173666   3.162   0.571   6.075  1.2899 -1.5758 -0.4562
17417TIP3    H273667   3.216   0.497   5.954 -0.1451  0.8584 -2.7018
17418TIP3   OH273668   0.211   0.692   3.547 -0.6149  0.0891 -0.5525
17418TIP3    H173669   0.173   0.652   3.469 -0.1410  0.5402 -1.0259
17418TIP3    H273670   0.302   0.663   3.547  0.4346  2.9035 -2.2127
17419TIP3   OH273671   1.212   1.876   3.984 -0.7951  0.4782  0.0034
17419TIP3    H173672   1.195   1.820   4.061 -1.1464 -1.5455 -1.4700
17419TIP3    H273673   1.129   1.921   3.969 -0.8703  0.5181  0.5122
17420TIP3   OH273674   1.436   4.228   6.228 -0.1911  0.0757  0.1782
17420TIP3    H173675   1.473   4.217   6.315 -2.5783 -0.4827  1.1959
17420TIP3    H273676   1.411   4.320   6.224  0.9271  0.3700 -0.3755
17421TIP3   OH273677   2.184   3.378  15.623  0.3691 -0.3039 -0.0656
17421TIP3    H173678   2.208   3.375  15.716 -0.2561  0.2568  0.1187
17421TIP3    H273679   2.093   3.350  15.621 -0.3742  1.9088 -0.2171
17422TIP3   OH273680   1.082   2.212  15.044 -0.5780  0.5175 -0.0120
17422TIP3    H173681   1.068   2.191  15.137  1.4677  0.7969  0.4220
17422TIP3    H273682   1.048   2.135  14.997  1.0571 -1.0444  1.1887
17423TIP3   OH273683   1.479   0.487   2.636  0.3516  0.6140  0.1864
17423TIP3    H173684   1.431   0.517   2.713 -1.9626 -0.2887 -0.8015
17423TIP3    H273685   1.559   0.448   2.671 -0.8295 -0.1537  2.1788
17424TIP3   OH273686   5.229   2.165   2.017  0.1102  0.4255  0.0987
17424TIP3    H173687   5.278   2.133   1.942  0.7505 -0.5667  0.9137
17424TIP3    H273688   5.138   2.169   1.987  0.3894  0.2239 -0.7738
17425TIP3   OH273689   3.694   5.591  15.161  0.4263 -0.7530 -0.0957
17425TIP3    H173690   3.675   5.678  15.195 -0.3461 -1.3198  0.9970
17425TIP3    H273691   3.616   5.540  15.182  1.3364 -2.0119  0.3482
17426TIP3   OH273692   4.440   5.386  16.472  0.2573  0.2581 -0.6441
17426TIP3    H173693   4.485   5.350  16.395  1.1878  1.2618 -0.5972
17426TIP3    H273694   4.398   5.466  16.440 -0.4595 -0.0117 -0.3966
17427TIP3   OH273695   0.660   5.751   2.092  0.1799 -0.2128  0.2899
17427TIP3    H173696   0.573   5.781   2.066 -0.4432 -1.5498  0.7480
17427TIP3    H273697   0.663   5.764   2.187  0.5352 -0.0352  0.2568
17428TIP3   OH273698   0.915   2.225  16.711 -0.0911 -0.3033  0.1706
17428TIP3    H173699   0.998   2.181  16.692  1.9716  2.7186  1.4706
17428TIP3    H273700   0.940   2.305  16.756 -3.8939 -0.7484  3.6980
17429TIP3   OH273701   2.431   2.608  15.027  0.3713 -0.4203  0.4803
17429TIP3    H173702   2.423   2.533  14.968 -2.0164 -0.6319  0.9485
17429TIP3    H273703   2.391   2.681  14.980  0.7380  0.0329  0.8540
17430TIP3   OH273704   5.586   5.707   0.628 -0.1100 -0.0399 -0.5969
17430TIP3    H173705   5.504   5.748   0.602 -0.8594 -0.6547  0.7314
17430TIP3    H273706   5.644   5.780   0.649 -0.8180  0.3825 -0.0758
17431TIP3   OH273707   3.851   4.598  16.417  0.2571 -0.0663  0.3051
17431TIP3    H173708   3.825   4.588  16.326  0.2128  0.0516  0.3024
17431TIP3    H273709   3.768   4.606  16.464  0.2855  0.2121  0.3124
17432TIP3   OH273710   0.599   0.002   1.151  0.1511  0.0459  0.4316
17432TIP3    H173711   0.587  -0.076   1.205 -2.9339  0.0565 -0.0449
17432TIP3    H273712   0.541   0.068   1.191 -0.5732  0.7091 -1.5732
17433TIP3   OH273713   3.175   1.086   3.131  0.1883 -0.0902 -0.5891
17433TIP3    H173714   3.216   1.123   3.053  0.0321  3.0257  0.6704
17433TIP3    H273715   3.081   1.092   3.115  0.1572  0.4496 -0.2218
17434TIP3   OH273716   2.450   3.601   3.938 -0.6473  0.5115  0.6685
17434TIP3    H173717   2.464   3.541   4.011 -0.6279  1.2750  1.3022
17434TIP3    H273718   2.533   3.649   3.931 -0.3242 -0.1542 -0.4342
17435TIP3   OH273719   3.295   1.072   3.954 -0.5716  0.5731 -0.0061
17435TIP3    H173720   3.210   1.040   3.982  0.5432 -2.7487  0.0311
17435TIP3    H273721   3.342   1.091   4.036  0.6042 -3.3255  0.4426
17436TIP3   OH273722   4.165   4.148   1.250 -0.0725  0.0981 -0.1546
17436TIP3    H173723   4.251   4.142   1.206 -0.9887  2.2142 -2.4543
17436TIP3    H273724   4.121   4.066   1.226  1.3090 -1.1238  1.2440
17437TIP3   OH273725   0.478   2.669   2.269  0.5250  0.0191  0.0649
17437TIP3    H173726   0.404   2.723   2.298 -0.3545 -0.5170 -1.0997
17437TIP3    H273727   0.494   2.695   2.179 -0.0799 -1.7731 -0.6154
17438TIP3   OH273728   4.858   5.726   4.700 -0.5497  0.1510 -0.7150
17438TIP3    H173729   4.788   5.713   4.764 -0.1577 -0.3275 -0.3754
17438TIP3    H273730   4.937   5.736   4.752 -0.3728  0.7703 -1.0943
17439TIP3   OH273731   5.672   2.272  17.253  0.0227 -0.6050 -0.0023
17439TIP3    H173732   5.684   2.238  17.341 -0.3928 -0.2667  0.1890
17439TIP3    H273733   5.600   2.221  17.217 -0.5739  0.0410  0.2706
17440TIP3   OH273734   4.625   0.965  17.150 -0.1598 -0.4822  0.2319
17440TIP3    H173735   4.560   1.031  17.173  0.8583  0.2725  1.0705
17440TIP3    H273736   4.673   1.003  17.076  1.1078  0.2271  1.3757
17441TIP3   OH273737   0.315   4.761  15.228  0.0038 -0.4096  0.2571
17441TIP3    H173738   0.388   4.779  15.287 -0.7205  1.1167  0.7432
17441TIP3    H273739   0.267   4.843  15.224 -0.2646 -0.6284 -2.0806
17442TIP3   OH273740   4.411   0.749  16.031 -0.1574  0.3026 -0.2993
17442TIP3    H173741   4.419   0.716  16.120  0.0957 -0.5373 -0.6217
17442TIP3    H273742   4.332   0.708  15.997 -0.8276  1.4226 -0.1368
17443TIP3   OH273743   0.336   4.684   3.320  0.2824 -0.6673 -0.6214
17443TIP3    H173744   0.266   4.623   3.295  0.0367 -0.5434 -0.2486
17443TIP3    H273745   0.367   4.721   3.237 -0.5112 -0.2645 -0.7499
17444TIP3   OH273746   0.535   0.351  12.148 -0.3405 -0.3108  0.0372
17444TIP3    H173747   0.469   0.361  12.217  0.0714 -0.5057  0.4683
17444TIP3    H273748   0.485   0.347  12.067 -0.7481  1.2367  0.1980
17445TIP3   OH273749   6.421   3.920   0.663  0.1699 -0.4086 -0.2162
17445TIP3    H173750   6.499   3.868   0.643  0.1544 -1.0401  1.2166
17445TIP3    H273751   6.446   4.010   0.645  1.3454 -0.5726  0.5035
17446TIP3   OH273752   0.645   5.757   2.399 -0.1721 -0.2431  0.0247
17446TIP3    H173753   0.558   5.782   2.428  0.3562 -0.3097  1.7727
17446TIP3    H273754   0.696   5.750   2.480  2.3363  3.0146 -1.0785
17447TIP3   OH273755   0.251   1.758   4.781  0.1540 -0.5194 -0.2318
17447TIP3    H173756   0.324   1.710   4.742  0.2195 -1.5715  1.1004
17447TIP3    H273757   0.291   1.836   4.820  0.0883  0.5436 -2.1565
17448TIP3   OH273758   6.194   0.573  15.306 -0.5735 -0.5648 -0.6555
17448TIP3    H173759   6.140   0.503  15.342  0.3707 -0.8024  0.3736
17448TIP3    H273760   6.164   0.652  15.350  2.4026 -1.2102  3.0343
17449TIP3   OH273761   3.670   0.620   0.741  0.0136 -0.1253  0.1963
17449TIP3    H173762   3.672   0.578   0.655 -1.1097  0.1013  0.0419
17449TIP3    H273763   3.592   0.677   0.738  0.5096  0.6247  1.0181
17450TIP3   OH273764   5.578   5.782   3.493  0.6590 -0.1763 -0.2454
17450TIP3    H173765   5.581   5.843   3.567  2.4036 -0.2366 -0.2366
17450TIP3    H273766   5.537   5.832   3.423  3.2291  1.5579 -0.6644
17451TIP3   OH273767   4.190   4.385  13.038  0.1684 -0.0121  0.1662
17451TIP3    H173768   4.160   4.431  13.116 -1.7710 -0.8041 -0.0591
17451TIP3    H273769   4.163   4.442  12.966  1.5363  0.4916  0.0250
17452TIP3   OH273770   2.664   0.487  17.265  0.1437  0.0720  0.5564
17452TIP3    H173771   2.699   0.468  17.178 -0.0475 -1.6618  0.8279
17452TIP3    H273772   2.570   0.502  17.249 -0.0721 -1.1717  0.5523
17453TIP3   OH273773   0.179   3.601  16.910  0.3595  0.2442  0.3875
17453TIP3    H173774   0.261   3.563  16.878  0.3043 -0.1504  0.7040
17453TIP3    H273775   0.125   3.525  16.932 -0.6603  0.4663 -1.2150
17454TIP3   OH273776   2.976   4.097  11.720  0.0280 -0.2502 -0.2060
17454TIP3    H173777   2.990   4.143  11.637 -0.2162 -0.1956 -0.2184
17454TIP3    H273778   3.061   4.058  11.740 -0.0508 -0.7184 -0.7587
17455TIP3   OH273779   1.013   4.369  16.684  0.1934 -0.7762  0.4382
17455TIP3    H173780   0.969   4.412  16.610  2.8489  0.3346 -0.6323
17455TIP3    H273781   1.021   4.438  16.750 -1.1898 -1.4714  1.3818
17456TIP3   OH273782   2.137   1.098   4.665  0.0823 -0.0693  0.4312
17456TIP3    H173783   2.126   1.067   4.755 -0.7809  1.7296  0.9841
17456TIP3    H273784   2.207   1.163   4.671 -1.1313  1.3030  0.1410
17457TIP3   OH273785   3.344   0.398  15.322  0.3138  0.1832 -0.2904
17457TIP3    H173786   3.366   0.312  15.357 -0.9949  0.1619  0.5382
17457TIP3    H273787   3.396   0.459  15.375 -0.7988  0.0673  0.9907
17458TIP3   OH273788   0.447   6.057  14.085  0.0024  0.3269 -0.3573
17458TIP3    H173789   0.395   6.128  14.046 -1.5320 -0.8515 -0.5597
17458TIP3    H273790   0.448   6.078  14.178 -0.4029  0.6470 -0.4181
17459TIP3   OH273791   0.523   0.883   5.138  0.0645  0.3000  0.5801
17459TIP3    H173792   0.469   0.852   5.065  0.4211 -1.7722  1.1250
17459TIP3    H273793   0.463   0.888   5.212  0.1673  0.1437  0.6752
17460TIP3   OH273794   6.156   0.763   1.335  0.2418 -0.1477  0.1288
17460TIP3    H173795   6.159   0.783   1.428 -0.3527 -2.7009  0.7791
17460TIP3    H273796   6.242   0.788   1.302  0.8381 -0.1633  1.6046
17461TIP3   OH273797   0.582   1.619   2.280  0.1290 -0.1269  0.1847
17461TIP3    H173798   0.488   1.623   2.296 -0.0968 -1.7192 -0.6131
17461TIP3    H273799   0.617   1.572   2.356  0.2517  0.2253  0.3480
17462TIP3   OH273800   2.882   2.035  13.562 -0.0147 -0.0543  0.1005
17462TIP3    H173801   2.868   2.076  13.648 -2.2311 -0.2915 -0.0755
17462TIP3    H273802   2.860   2.104  13.499  0.5568 -0.2080 -0.2773
17463TIP3   OH273803   0.748   1.599  16.234  0.4297 -0.4294 -0.1044
17463TIP3    H173804   0.728   1.521  16.287  1.2128 -0.2285  0.5097
17463TIP3    H273805   0.841   1.590  16.214  0.1480 -0.4849 -1.4449
17464TIP3   OH273806   1.962   4.992   4.840  0.1232 -0.1851  0.1380
17464TIP3    H173807   1.941   5.047   4.765 -0.8157  1.6180  1.6200
17464TIP3    H273808   1.877   4.963   4.873  0.4238  0.1092  1.2204
17465TIP3   OH273809   0.956   4.459   1.362  0.1764 -0.2979 -0.0400
17465TIP3    H173810   0.966   4.396   1.433  0.5457  2.1627  2.2474
17465TIP3    H273811   0.884   4.425   1.309  0.6243 -2.7857  0.8432
17466TIP3   OH273812   0.515   6.695  14.165 -0.3761 -0.2700 -0.1168
17466TIP3    H173813   0.592   6.650  14.201  0.1991  1.9097  1.5448
17466TIP3    H273814   0.485   6.637  14.094  3.6514 -0.5225 -1.8746
17467TIP3   OH273815   2.585   5.048   1.633 -0.3907  0.0280 -0.0327
17467TIP3    H173816   2.602   5.029   1.726 -1.7909  1.8281  0.6461
17467TIP3    H273817   2.587   5.143   1.627 -2.3637  0.0303 -1.4296
17468TIP3   OH273818   3.774   2.586   1.424  0.1584  0.0667  0.2532
17468TIP3    H173819   3.804   2.584   1.515 -1.3230 -0.6753  0.7745
17468TIP3    H273820   3.758   2.678   1.406 -2.6696  0.0287  1.9274
17469TIP3   OH273821   0.556   6.488   1.482 -0.4829 -0.3931 -0.0307
17469TIP3    H173822   0.480   6.431   1.491 -2.7589  2.1494 -1.6632
17469TIP3    H273823   0.532   6.569   1.528  1.5320  0.2653 -0.0118
17470TIP3   OH273824   2.422   4.363   2.943 -0.3688 -0.3542  0.2169
17470TIP3    H173825   2.417   4.272   2.972  1.8495 -0.1148  1.6278
17470TIP3    H273826   2.454   4.358   2.853  0.1162 -0.9703  0.4163
17471TIP3   OH273827   1.485   0.199   2.845 -0.4431 -0.7033 -0.1717
17471TIP3    H173828   1.425   0.233   2.779  0.3431 -0.7833 -0.9336
17471TIP3    H273829   1.428   0.172   2.917 -1.1147  2.3834  0.5833
17472TIP3   OH273830   4.057   3.637  16.296  0.6201 -0.0253 -0.5099
17472TIP3    H173831   3.974   3.685  16.301 -0.0113 -1.0945 -0.2872
17472TIP3    H273832   4.053   3.574  16.368  1.3035 -0.5853 -0.9393
17473TIP3   OH273833   1.873   2.455  14.719 -0.1421  0.2384 -0.1309
17473TIP3    H173834   1.934   2.449  14.793  0.4416  0.0804 -0.6155
17473TIP3    H273835   1.849   2.364  14.701  2.0931 -0.0657 -2.0554
17474TIP3   OH273836   4.731   5.183   5.824  0.2890  0.2051  0.5445
17474TIP3    H173837   4.760   5.273   5.813 -1.7977  0.8087 -0.5323
17474TIP3    H273838   4.801   5.130   5.787  0.6921  1.4854 -0.5990
17475TIP3   OH273839   5.752   5.714  15.259  0.0290 -0.2632  0.1862
17475TIP3    H173840   5.806   5.636  15.259  0.6840  0.1809  0.3831
17475TIP3    H273841   5.716   5.720  15.170  1.2245  0.0580 -0.2890
17476TIP3   OH273842   1.517   0.350  15.615  0.2640  0.4940 -0.4040
17476TIP3    H173843   1.539   0.375  15.526  2.2955 -1.2827 -0.4642
17476TIP3    H273844   1.455   0.277  15.606 -0.0249  0.7252 -0.3293
17477TIP3   OH273845   1.489   5.190  15.585  0.4006 -0.0562 -0.0797
17477TIP3    H173846   1.405   5.199  15.630 -0.2520  3.0681 -1.6460
17477TIP3    H273847   1.552   5.233  15.643  0.2965  0.4458 -0.3325
17478TIP3   OH273848   2.824   4.416  17.083 -0.3039 -0.1745  0.8266
17478TIP3    H173849   2.906   4.389  17.042  0.0692  0.0992  1.3800
17478TIP3    H273850   2.759   4.354  17.049  0.2829 -0.9237  1.0422
17479TIP3   OH273851   5.730   2.396  13.482 -0.0193 -0.1608 -0.4759
17479TIP3    H173852   5.703   2.318  13.434 -3.3678  0.2179  0.5637
17479TIP3    H273853   5.708   2.469  13.425 -0.7162  0.1403  0.1548
17480TIP3   OH273854   5.070   1.838  12.422 -0.0810  0.1633  0.2847
17480TIP3    H173855   5.053   1.767  12.361 -2.7702  0.2664  0.7931
17480TIP3    H273856   5.105   1.909  12.368 -2.4493  0.2905 -1.2398
17481TIP3   OH273857   2.081   0.394   1.630  0.2773 -0.0971 -0.0845
17481TIP3    H173858   1.993   0.409   1.663 -0.0839  0.1674 -1.1190
17481TIP3    H273859   2.128   0.353   1.702 -1.0184 -1.3124  0.0923
17482TIP3   OH273860   2.570   1.216  15.294 -0.1130 -0.0127 -0.5328
17482TIP3    H173861   2.548   1.189  15.205 -0.5919  0.5588 -0.5961
17482TIP3    H273862   2.524   1.299  15.306 -0.6986 -0.4609  0.5195
17483TIP3   OH273863   0.023   6.470  15.287  0.2315 -0.2232  0.2232
17483TIP3    H173864  -0.029   6.510  15.356 -0.9889  0.1758 -0.8823
17483TIP3    H273865  -0.040   6.419  15.236  1.1808 -0.8635 -0.3390
17484TIP3   OH273866   1.699   1.957  16.004 -0.8304 -0.7661 -0.2013
17484TIP3    H173867   1.728   1.998  15.922 -0.5749 -1.7796 -0.6336
17484TIP3    H273868   1.632   1.895  15.976  0.1793 -2.0713  0.1826
17485TIP3   OH273869   2.931   6.020  14.326  0.2892 -0.0814 -0.3126
17485TIP3    H173870   2.943   6.092  14.265 -1.5841 -0.6030 -1.3841
17485TIP3    H273871   2.865   6.052  14.389 -0.7375 -0.8912 -0.9407
17486TIP3   OH273872   3.782   0.558  13.081  0.0066  0.3953 -0.1317
17486TIP3    H173873   3.837   0.619  13.033 -1.5038  1.2335 -0.8842
17486TIP3    H273874   3.694   0.595  13.075 -0.8895 -1.5813 -0.1664
17487TIP3   OH273875   2.300   3.798   2.725 -0.2934  0.1673  0.3621
17487TIP3    H173876   2.231   3.863   2.713 -1.3021 -0.8818  0.3898
17487TIP3    H273877   2.259   3.714   2.706  0.2737 -0.7440  2.8253
17488TIP3   OH273878   1.213   1.384  12.439 -0.4496  0.2809 -0.1265
17488TIP3    H173879   1.295   1.343  12.411 -0.7104 -0.0604 -0.3906
17488TIP3    H273880   1.185   1.333  12.514 -1.0508 -0.3640 -0.7804
17489TIP3   OH273881   0.788   4.818   3.352 -0.0435  0.6964  0.1708
17489TIP3    H173882   0.831   4.826   3.438 -0.4992  2.0136  0.3055
17489TIP3    H273883   0.857   4.786   3.294  0.5006  0.5811  0.8553
17490TIP3   OH273884   1.573   1.483  16.860  0.7900 -0.1226  0.3054
17490TIP3    H173885   1.480   1.472  16.881  0.2701 -2.6834 -2.6091
17490TIP3    H273886   1.576   1.562  16.806 -0.1375 -1.1380 -1.3227
17491TIP3   OH273887   1.667   6.640   3.897 -0.2606 -0.0114 -0.5816
17491TIP3    H173888   1.592   6.634   3.957 -0.5540  0.0897 -0.9348
17491TIP3    H273889   1.736   6.589   3.941 -0.3546  0.3600  0.0088
17492TIP3   OH273890   5.280   4.735  16.001  0.2071 -0.0592  0.3610
17492TIP3    H173891   5.310   4.765  15.915  0.7037  0.7384  0.7968
17492TIP3    H273892   5.205   4.679  15.982 -0.4225  1.0295 -0.5422
17493TIP3   OH273893   1.733   0.113  12.219 -0.5921  0.4442 -0.1531
17493TIP3    H173894   1.819   0.122  12.261  0.1737  0.3986 -1.6425
17493TIP3    H273895   1.680   0.182  12.260  0.4779  1.2100  0.0110
17494TIP3   OH273896   3.721   5.807  10.806 -0.1123  0.2077  0.2657
17494TIP3    H173897   3.646   5.750  10.823 -0.3421  0.4898  0.2076
17494TIP3    H273898   3.732   5.857  10.887 -1.2777  1.6333 -0.3952
17495TIP3   OH273899   3.519   1.900   6.791 -0.0544  0.5252  0.2589
17495TIP3    H173900   3.564   1.861   6.865  0.5674  0.1346 -0.3147
17495TIP3    H273901   3.588   1.914   6.726 -0.4896  1.3967 -0.0269
17496TIP3   OH273902   4.359   6.259  14.523 -0.0227 -0.3704  0.3049
17496TIP3    H173903   4.400   6.188  14.573  0.4428  1.0968  2.1452
17496TIP3    H273904   4.425   6.328  14.521 -0.4841  0.0623 -1.3931
17497TIP3   OH273905   4.393   2.018  13.238 -0.1023  0.4978 -0.2677
17497TIP3    H173906   4.347   2.038  13.319 -0.1442  0.5505 -0.3044
17497TIP3    H273907   4.484   2.041  13.256  0.3189 -1.5978  0.5253
17498TIP3   OH273908   6.559   4.081  11.875 -0.0329  0.0600  0.2135
17498TIP3    H173909   6.577   4.016  11.943  0.8474  0.3561  0.2726
17498TIP3    H273910   6.483   4.129  11.907 -0.5838 -0.8067  0.2563
17499TIP3   OH273911   1.753   6.148  15.779 -0.0832 -0.0091  0.1594
17499TIP3    H173912   1.697   6.083  15.821 -1.6987 -0.7866 -2.8929
17499TIP3    H273913   1.796   6.101  15.708  0.8903  1.6248 -0.3926
17500TIP3   OH273914   1.009   4.626   3.784  0.0019 -0.1107 -0.5536
17500TIP3    H173915   0.959   4.692   3.736 -0.1733 -0.9751 -1.5761
17500TIP3    H273916   1.021   4.665   3.871 -4.0105 -0.5650  0.4192
17501TIP3   OH273917   3.780   1.050   6.079  0.9083  0.2435 -0.2842
17501TIP3    H173918   3.766   0.961   6.111  1.4326  0.3365  0.2188
17501TIP3    H273919   3.835   1.038   6.001 -1.3392 -0.0714 -1.9106
17502TIP3   OH273920   1.493   0.906  13.155 -0.1443  0.0219 -0.2512
17502TIP3    H173921   1.566   0.850  13.127  0.6367 -0.6092  2.5996
17502TIP3    H273922   1.487   0.890  13.250 -3.8932  0.1907 -0.2981
17503TIP3   OH273923   1.561   6.406   0.974  0.0007  0.7999 -0.3153
17503TIP3    H173924   1.631   6.437   0.916  0.5894  2.8596  1.3442
17503TIP3    H273925   1.482   6.409   0.920  0.7569  1.1734 -1.4363
17504TIP3   OH273926   6.282   2.091   5.940  0.0310 -0.1721  0.4463
17504TIP3    H173927   6.370   2.076   5.905 -0.1200  0.3588 -0.1723
17504TIP3    H273928   6.297   2.131   6.026  0.4155  2.2451 -0.6714
17505TIP3   OH273929   2.481   3.946   0.328  0.6264 -0.5821  0.2994
17505TIP3    H173930   2.463   3.856   0.301  1.1166 -0.8271  0.7875
17505TIP3    H273931   2.395   3.988   0.329  0.4947 -0.7921 -0.8247
17506TIP3   OH273932   3.337   0.039   2.162 -0.2335 -0.3927 -0.6348
17506TIP3    H173933   3.299   0.124   2.183 -0.4089 -0.6229  0.0046
17506TIP3    H273934   3.265  -0.023   2.172  0.7096 -1.1321  2.7121
17507TIP3   OH273935   4.114   4.899  17.186  0.3822 -0.3337  0.1447
17507TIP3    H173936   4.103   4.861  17.273 -1.0577 -1.4388 -0.4770
17507TIP3    H273937   4.149   4.987  17.202 -2.5632  0.6259  2.0373
17508TIP3   OH273938   6.371   5.658  13.830 -0.0370 -0.0342 -0.1918
17508TIP3    H173939   6.304   5.661  13.762  0.8595  1.4135 -1.0518
17508TIP3    H273940   6.345   5.584  13.885 -1.0763 -0.9312 -1.7902
17509TIP3   OH273941   1.575   5.658   5.805 -0.0902  0.0672 -0.5775
17509TIP3    H173942   1.585   5.580   5.859 -3.5017  0.2388  0.5855
17509TIP3    H273943   1.508   5.634   5.741 -0.8529  1.8477 -0.5015
17510TIP3   OH273944   1.674   6.701   1.998 -0.1426 -0.0988 -0.4513
17510TIP3    H173945   1.736   6.721   1.928 -0.6542  1.3862 -0.5309
17510TIP3    H273946   1.637   6.616   1.974 -0.2945  0.3585 -2.0066
17511TIP3   OH273947   3.811   3.680  14.217  0.1193  0.0674  0.0038
17511TIP3    H173948   3.844   3.622  14.149  0.4405 -0.3799  0.5266
17511TIP3    H273949   3.889   3.715  14.259 -0.0761  0.9387 -0.3568
17512TIP3   OH273950   4.381   5.243  12.417  0.0733 -0.0229  0.6409
17512TIP3    H173951   4.295   5.205  12.401 -0.2290  1.4082 -1.6390
17512TIP3    H273952   4.381   5.268  12.509 -1.5404 -0.9425  0.9247
17513TIP3   OH273953   0.234   1.329  17.232 -0.1440  0.2397 -0.0460
17513TIP3    H173954   0.144   1.351  17.256  0.0291  1.3648 -0.3584
17513TIP3    H273955   0.267   1.408  17.190  1.5389  0.4370  1.5335
17514TIP3   OH273956   2.268   0.542   1.240  0.2261 -0.1213 -0.0058
17514TIP3    H173957   2.263   0.636   1.253  0.3329  0.5025 -3.6177
17514TIP3    H273958   2.177   0.513   1.241  0.1308  0.1786  0.1404
17515TIP3   OH273959   2.746   2.290   4.787  0.2605  0.0035 -0.1789
17515TIP3    H173960   2.754   2.208   4.740  1.0408 -0.0438  0.0269
17515TIP3    H273961   2.676   2.275   4.850  1.7736 -1.2189  1.2969
17516TIP3   OH273962   2.313   2.600   2.348 -0.0034  0.0160 -0.4163
17516TIP3    H173963   2.288   2.548   2.424 -2.0768 -0.5820 -1.4300
17516TIP3    H273964   2.352   2.537   2.287 -0.1000  0.1504 -0.6186
17517TIP3   OH273965   0.751   6.632  14.289 -0.3053 -0.3247  0.1634
17517TIP3    H173966   0.784   6.722  14.297 -1.5642  0.0852  0.9837
17517TIP3    H273967   0.830   6.578  14.285  0.4770  0.7090  1.0585
17518TIP3   OH273968   1.594   5.355   2.489 -0.1458  0.6147 -0.4480
17518TIP3    H173969   1.600   5.282   2.551  2.2072  1.0645 -0.0355
17518TIP3    H273970   1.505   5.388   2.499  0.1833  0.8460  2.9216
17519TIP3   OH273971   4.350   2.607  15.935 -0.4324  0.5202 -0.0639
17519TIP3    H173972   4.264   2.591  15.974 -0.1054  0.9345  0.8574
17519TIP3    H273973   4.331   2.642  15.848 -1.1806 -1.6976 -0.8746
17520TIP3   OH273974   1.546   6.756  15.645  0.6194  0.5685  0.3359
17520TIP3    H173975   1.627   6.705  15.639  0.8120  0.9772 -0.6792
17520TIP3    H273976   1.556   6.808  15.725  1.8863  1.4682 -0.3681
17521TIP3   OH273977   5.937   0.000   1.124 -0.1332 -0.1815  0.2788
17521TIP3    H173978   5.990  -0.075   1.096  0.5397  0.5996 -0.6350
17521TIP3    H273979   5.981   0.031   1.203 -0.9873 -1.3197  1.2264
17522TIP3   OH273980   4.185   1.500   2.192  0.9783 -0.3849  0.2164
17522TIP3    H173981   4.195   1.448   2.113  0.2393 -1.5350  0.8464
17522TIP3    H273982   4.249   1.570   2.184  1.3505 -0.8592 -1.0917
17523TIP3   OH273983   4.852   5.168  13.333  0.2992  0.5894 -0.1127
17523TIP3    H173984   4.913   5.134  13.267  0.9922 -1.2763  1.3970
17523TIP3    H273985   4.824   5.091  13.382 -0.0883  1.9179  1.8586
17524TIP3   OH273986   2.042   0.569  12.990  0.3466 -0.2298  0.3392
17524TIP3    H173987   2.076   0.549  12.903 -0.6669  1.0326 -0.3907
17524TIP3    H273988   1.950   0.543  12.986  0.2220  0.0996  0.9341
17525TIP3   OH273989   5.279   6.522  16.823 -0.0906  0.3495  0.0691
17525TIP3    H173990   5.340   6.552  16.756 -0.4707  0.6710 -0.1361
17525TIP3    H273991   5.332   6.468  16.882  0.2469  0.0791 -0.4789
17526TIP3   OH273992   0.789   4.264  17.125 -0.0794 -0.0849  0.3319
17526TIP3    H173993   0.744   4.346  17.143  1.2187  0.7016  0.1968
17526TIP3    H273994   0.860   4.261  17.190  2.8386  1.3296 -2.4893
17527TIP3   OH273995   1.805   0.204   1.139  0.1317 -0.0914  0.6366
17527TIP3    H173996   1.830   0.220   1.230 -0.4209 -1.3745  1.0432
17527TIP3    H273997   1.722   0.251   1.129 -0.9369 -1.7079  1.4906
17528TIP3   OH273998   1.687   1.850  13.766 -0.1256 -0.4348  0.3195
17528TIP3    H173999   1.680   1.773  13.710  0.8964 -0.7496  0.5943
17528TIP3    H274000   1.767   1.894  13.737  0.5150 -0.6875  1.5960
17529TIP3   OH274001   3.581   4.290  17.052 -0.7441  0.3299 -0.3420
17529TIP3    H174002   3.623   4.245  16.979 -0.1940 -0.5363  0.4835
17529TIP3    H274003   3.628   4.373  17.060 -0.5862  0.2820 -0.7545
17530TIP3   OH274004   1.544   1.547  15.154 -0.0957  0.8305 -0.1419
17530TIP3    H174005   1.606   1.501  15.097 -0.9515 -0.6178  0.0350
17530TIP3    H274006   1.470   1.486  15.163  0.4688  0.4125  3.4457
17531TIP3   OH274007   4.518   2.565   5.220  0.0616  0.0489  0.6191
17531TIP3    H174008   4.613   2.564   5.207  0.0928 -3.1698  0.2526
17531TIP3    H274009   4.504   2.629   5.289  2.5369  0.4035  0.8887
17532TIP3   OH274010   4.494   0.123  17.045  0.4248 -0.5935 -0.1632
17532TIP3    H174011   4.480   0.217  17.034 -0.8738 -0.7957 -0.3524
17532TIP3    H274012   4.539   0.115  17.129  0.1040  0.1516  0.0855
17533TIP3   OH274013   1.073   2.721   0.402  0.5703  0.6181 -0.0414
17533TIP3    H174014   1.095   2.717   0.495  1.3080 -1.0405 -0.2499
17533TIP3    H274015   1.032   2.636   0.383 -0.9727  1.5121 -0.9114
17534TIP3   OH274016   2.362   5.515  14.924 -0.0200  0.2017 -0.1299
17534TIP3    H174017   2.328   5.549  15.007 -0.6965 -1.2134  0.2011
17534TIP3    H274018   2.354   5.589  14.863  3.7156  2.4834  1.7733
17535TIP3   OH274019   3.657   3.924  15.043 -0.0329 -0.2400  0.2517
17535TIP3    H174020   3.712   4.001  15.026 -1.1058  0.3095 -0.9242
17535TIP3    H274021   3.568   3.957  15.035 -0.5693 -1.1176  2.1384
17536TIP3   OH274022   1.718   1.465   5.722  0.4334 -0.3348 -0.1526
17536TIP3    H174023   1.708   1.558   5.702  1.5867  0.1529  1.3398
17536TIP3    H274024   1.677   1.420   5.648 -2.6416  1.3387  0.4048
17537TIP3   OH274025   6.434   5.471  15.560  0.3582 -0.3464 -0.3528
17537TIP3    H174026   6.394   5.557  15.570  0.3538 -0.1773 -1.6706
17537TIP3    H274027   6.508   5.472  15.621  0.2228  0.5049 -0.1915
17538TIP3   OH274028   1.512   2.724   0.911 -0.1343 -0.1305 -0.0319
17538TIP3    H174029   1.471   2.802   0.873  1.3801  1.6150  1.7188
17538TIP3    H274030   1.558   2.684   0.838 -0.1736  1.1530 -0.8009
17539TIP3   OH274031   6.687   1.098   4.898  0.3420 -0.4807 -0.6433
17539TIP3    H174032   6.761   1.050   4.937 -0.0140  1.9815  3.6094
17539TIP3    H274033   6.610   1.050   4.927  0.0916  1.0951  1.4985
17540TIP3   OH274034   5.840   0.001  12.812  0.0500 -0.0902  0.2044
17540TIP3    H174035   5.929   0.003  12.848 -0.4104 -1.6672  1.5513
17540TIP3    H274036   5.852  -0.032  12.723  0.8610  0.2391  0.1789
17541TIP3   OH274037   0.991   5.758   3.467  0.0518 -0.9602 -0.3288
17541TIP3    H174038   1.054   5.722   3.529 -1.7634 -2.4792  0.7600
17541TIP3    H274039   1.042   5.779   3.389  2.1203 -0.6669  1.0423
17542TIP3   OH274040   0.668   2.548  14.738 -0.0822 -0.4097 -0.6621
17542TIP3    H174041   0.672   2.508  14.651  0.1382 -0.5435 -0.5917
17542TIP3    H274042   0.750   2.521  14.780 -0.1069 -0.1969 -0.4784
17543TIP3   OH274043   0.023   5.597  11.653 -0.1074 -0.1313  0.1868
17543TIP3    H174044   0.061   5.603  11.741  3.9687 -1.9547 -1.2217
17543TIP3    H274045   0.044   5.680  11.612  1.4355 -0.6911 -0.2050
17544TIP3   OH274046   1.810   1.128   5.561 -0.1801 -0.4918 -0.1730
17544TIP3    H174047   1.755   1.204   5.544 -1.5627 -0.6502  2.9064
17544TIP3    H274048   1.894   1.164   5.588  0.4329 -0.2040 -2.2962
17545TIP3   OH274049   6.455   0.643   5.537  0.3477  0.2234  0.3007
17545TIP3    H174050   6.460   0.730   5.497 -0.3661  0.0099 -0.2736
17545TIP3    H274051   6.535   0.599   5.509  0.3897  0.4682  0.0279
17546TIP3   OH274052   2.623   4.132   3.877 -0.0610 -0.3930 -0.5693
17546TIP3    H174053   2.639   4.202   3.814 -1.1838  0.3664 -0.0535
17546TIP3    H274054   2.707   4.119   3.921  0.2534  0.3793 -0.9281
17547TIP3   OH274055   2.226   0.001  15.954  0.4933 -0.2985 -0.5501
17547TIP3    H174056   2.182  -0.005  15.870  0.2290 -0.0517 -0.4322
17547TIP3    H274057   2.227   0.095  15.974  1.6396 -0.2276 -0.8501
17548TIP3   OH274058   2.063   1.157   1.049 -0.1230  0.4216  0.2301
17548TIP3    H174059   2.003   1.083   1.044 -2.3608  2.0093  1.9587
17548TIP3    H274060   2.070   1.188   0.958  1.0604 -1.9619 -0.5708
17549TIP3   OH274061   5.752   4.939  14.685 -0.3801  0.4812  0.0984
17549TIP3    H174062   5.817   4.940  14.755 -0.3135 -0.2871  0.0591
17549TIP3    H274063   5.799   4.970  14.608  0.1651 -0.7316 -0.0957
17550TIP3   OH274064   2.667   2.713   0.942  0.7322  0.7523 -0.4362
17550TIP3    H174065   2.706   2.788   0.987  1.7035  0.1422 -0.2412
17550TIP3    H274066   2.708   2.712   0.856  1.5056 -0.1622 -0.0681
17551TIP3   OH274067   6.224   3.394  12.761 -0.1241 -0.3515  0.1272
17551TIP3    H174068   6.131   3.385  12.742 -0.2405  1.3098 -0.2290
17551TIP3    H274069   6.263   3.423  12.678  0.8857 -1.8385  0.0223
17552TIP3   OH274070   1.857   4.087   4.424  0.1873 -0.0433 -0.1443
17552TIP3    H174071   1.831   3.998   4.450  0.8943  0.4673  2.7026
17552TIP3    H274072   1.783   4.142   4.449  0.0806  0.2956 -1.1522
17553TIP3   OH274073   6.323   1.931  13.288  0.2758 -0.2921  0.0470
17553TIP3    H174074   6.233   1.898  13.291 -0.2160  0.9226 -0.5658
17553TIP3    H274075   6.313   2.026  13.282  1.6260 -0.0707  0.9380
17554TIP3   OH274076   4.353   3.187   2.355  0.4125 -0.0552  0.3860
17554TIP3    H174077   4.345   3.105   2.306  3.3419 -0.4052  0.3265
17554TIP3    H274078   4.398   3.163   2.435 -1.2627  1.0966  1.7485
17555TIP3   OH274079   2.180   5.879   4.974 -0.1743  0.2637  0.3843
17555TIP3    H174080   2.216   5.953   5.022  1.3504 -0.9414  1.1749
17555TIP3    H274081   2.210   5.893   4.884  1.4349 -0.1731  0.8282
17556TIP3   OH274082   6.543   0.993   3.332  0.8620 -0.5215  0.0547
17556TIP3    H174083   6.532   1.023   3.422  0.2447 -2.0354  0.5218
17556TIP3    H274084   6.613   1.047   3.296 -0.1063  1.3455  0.8428
17557TIP3   OH274085   6.075   4.695   1.005  0.4831  0.1757  0.2436
17557TIP3    H174086   6.039   4.612   1.034 -1.1765  0.9997  0.6869
17557TIP3    H274087   6.160   4.701   1.048  0.7544 -1.3995 -0.0310
17558TIP3   OH274088   5.422   0.602   1.657 -0.2522 -0.1056  0.2689
17558TIP3    H174089   5.494   0.540   1.670  0.7867  0.5826 -1.8139
17558TIP3    H274090   5.360   0.556   1.600  0.3716  0.5928 -1.0219
17559TIP3   OH274091   1.066   3.081  14.232 -0.7143 -0.4510 -0.5139
17559TIP3    H174092   1.150   3.091  14.186 -1.1959  0.0843 -1.2763
17559TIP3    H274093   1.075   3.135  14.310 -0.7031  0.3916 -1.0872
17560TIP3   OH274094   2.700   0.228   4.465  0.8540 -0.5048  0.0086
17560TIP3    H174095   2.740   0.153   4.422 -0.7274 -0.8029 -1.0529
17560TIP3    H274096   2.711   0.300   4.402  0.7918 -0.3055  0.2253
17561TIP3   OH274097   0.519   1.955  14.704  0.0101  0.2271  0.3501
17561TIP3    H174098   0.586   1.897  14.667  1.0696  0.4139  1.8915
17561TIP3    H274099   0.561   2.040  14.710 -0.3625  0.3633  1.2762
17562TIP3   OH274100   6.156   5.841  14.259 -0.4671  0.2330  0.0779
17562TIP3    H174101   6.236   5.893  14.270  0.0151  0.2826 -2.8589
17562TIP3    H274102   6.101   5.894  14.202 -1.2465 -1.1793 -0.5284
17563TIP3   OH274103   0.083   1.793  10.944  0.1276  0.5577  0.8286
17563TIP3    H174104  -0.003   1.763  10.915  0.1721 -0.9531  2.1309
17563TIP3    H274105   0.104   1.865  10.884 -1.6713  0.4469 -0.0245
17564TIP3   OH274106   0.369   6.762  15.055 -0.5499 -0.6558 -0.6767
17564TIP3    H174107   0.329   6.732  15.136  0.0913 -2.8700 -1.0948
17564TIP3    H274108   0.463   6.748  15.068 -0.4598 -1.2601 -1.8537
17565TIP3   OH274109   0.616   2.377   3.325  0.4435  0.1747 -0.6929
17565TIP3    H174110   0.698   2.356   3.281  1.2657  1.3134  0.2103
17565TIP3    H274111   0.625   2.470   3.348  0.2235 -0.4351  2.1516
17566TIP3   OH274112   5.229   4.203  14.830 -0.3470 -0.2328  0.2554
17566TIP3    H174113   5.245   4.249  14.913 -0.6993  0.5160 -0.0831
17566TIP3    H274114   5.316   4.190  14.793 -0.1885 -0.5634  0.7397
17567TIP3   OH274115   6.692   3.281   3.471 -0.2247  0.0682 -0.2551
17567TIP3    H174116   6.785   3.259   3.471 -0.5938 -2.7916 -4.8600
17567TIP3    H274117   6.679   3.334   3.393 -2.5298 -0.0823 -0.0529
17568TIP3   OH274118   2.834   0.830  16.723 -0.1253 -0.5262  0.1352
17568TIP3    H174119   2.917   0.824  16.772 -0.5992 -0.6247  0.9471
17568TIP3    H274120   2.774   0.773  16.771 -1.1182  0.7954  0.5311
17569TIP3   OH274121   3.551   4.654  13.137  0.2292  0.2343 -0.5155
17569TIP3    H174122   3.597   4.653  13.053 -0.9125 -0.4401 -1.1618
17569TIP3    H274123   3.458   4.652  13.113 -0.1042 -0.6447  0.7664
17570TIP3   OH274124   4.617   5.436   2.481 -0.2329  0.2917  0.4989
17570TIP3    H174125   4.640   5.395   2.398 -5.4902 -1.5624 -0.4443
17570TIP3    H274126   4.640   5.370   2.547  2.1524  0.9572  0.4089
17571TIP3   OH274127   0.948   1.054  12.048  0.5445  0.2358  0.4500
17571TIP3    H174128   0.869   1.002  12.031 -0.4151  1.1990  1.7086
17571TIP3    H274129   1.020   0.999  12.017 -0.3819 -2.0124  1.9598
17572TIP3   OH274130   1.291   3.283  11.731  0.3635 -0.0394 -0.1833
17572TIP3    H174131   1.276   3.286  11.825  0.7243  0.8928 -0.1451
17572TIP3    H274132   1.379   3.321  11.719 -0.4335  1.6659 -1.0370
17573TIP3   OH274133   0.353   4.532   2.392  0.3971  0.1042  0.0213
17573TIP3    H174134   0.262   4.558   2.399  0.6005  0.4503  1.7572
17573TIP3    H274135   0.377   4.502   2.480  2.3478  1.3230 -0.0364
17574TIP3   OH274136   1.125   0.656  17.168  0.1032 -0.3426 -0.7042
17574TIP3    H174137   1.119   0.747  17.139  1.4576 -0.1278 -0.3794
17574TIP3    H274138   1.038   0.636  17.202 -0.0124  1.0702 -0.1019
17575TIP3   OH274139   4.959   2.217   4.410  0.0899 -0.0123  0.4981
17575TIP3    H174140   4.904   2.260   4.344  2.6035  2.3596 -0.2422
17575TIP3    H274141   4.961   2.279   4.483 -0.8795 -1.6306  1.9843
17576TIP3   OH274142   1.999   0.829  15.788 -0.8522 -0.4225 -0.1737
17576TIP3    H174143   1.974   0.848  15.697  1.2760  0.1396 -0.6894
17576TIP3    H274144   1.965   0.741  15.803 -1.9315 -0.2203 -1.2389
17577TIP3   OH274145   4.609   3.661  15.807  0.1685  0.4829  0.0376
17577TIP3    H174146   4.596   3.702  15.722 -1.4854 -0.2313 -0.0947
17577TIP3    H274147   4.549   3.708  15.866  1.9020  1.5440  1.0419
17578TIP3   OH274148   3.299   6.496   1.337  0.3381 -0.2899 -0.0517
17578TIP3    H174149   3.297   6.474   1.430  0.0395  0.0869  0.0360
17578TIP3    H274150   3.348   6.577   1.332 -0.0379 -0.0667 -0.1682
17579TIP3   OH274151   5.141   4.712  16.792 -0.0261 -0.6653  0.1398
17579TIP3    H174152   5.234   4.725  16.813  0.9474  1.0616 -4.2578
17579TIP3    H274153   5.126   4.619  16.810  2.1594 -0.7574  2.0521
17580TIP3   OH274154   5.453   1.687  15.854  0.1317  0.2966  0.3700
17580TIP3    H174155   5.415   1.643  15.778  0.6828 -0.5789  0.5858
17580TIP3    H274156   5.446   1.780  15.833 -2.0223  0.1824  0.3795
17581TIP3   OH274157   4.736   4.013   2.471 -0.0314 -0.2279 -0.0152
17581TIP3    H174158   4.768   3.968   2.549 -0.6490 -0.7956 -0.0776
17581TIP3    H274159   4.659   3.963   2.445 -0.8930  1.0354  0.0527
17582TIP3   OH274160   1.323   5.812   2.705  0.1001 -0.2560 -0.2236
17582TIP3    H174161   1.379   5.884   2.676  0.3349 -0.4821 -0.3332
17582TIP3    H274162   1.370   5.772   2.778 -0.2667  0.0147  0.1638
17583TIP3   OH274163   0.643   1.875  12.759 -0.0171 -0.0535 -0.1662
17583TIP3    H174164   0.633   1.879  12.664 -0.7671 -1.7377 -0.1861
17583TIP3    H274165   0.555   1.892  12.793 -0.0256 -0.7501  0.1749
17584TIP3   OH274166   4.486   2.371   2.331 -0.1531 -0.4625  0.3514
17584TIP3    H174167   4.466   2.292   2.381 -1.5305 -0.2180  0.2126
17584TIP3    H274168   4.417   2.376   2.265  1.0250 -0.1837 -0.8946
17585TIP3   OH274169   6.103   6.303   5.408 -0.4110 -0.4779 -0.4356
17585TIP3    H174170   6.182   6.283   5.357 -0.2611  0.5863 -0.6457
17585TIP3    H274171   6.043   6.342   5.344 -0.6686 -0.2069 -0.0318
17586TIP3   OH274172   3.317   6.298  11.386 -0.1543  0.1476  0.1391
17586TIP3    H174173   3.258   6.369  11.361  0.9068  1.1916  0.5617
17586TIP3    H274174   3.404   6.337  11.388  0.4748 -1.1834  0.2947
17587TIP3   OH274175   1.026   4.585  11.718  0.2153 -0.2984  0.0800
17587TIP3    H174176   0.946   4.637  11.714  0.1869 -0.3697 -0.2388
17587TIP3    H274177   1.061   4.587  11.629 -0.6224 -2.1418 -0.3394
17588TIP3   OH274178   2.579   4.872   0.771  0.4483 -0.0247 -0.6300
17588TIP3    H174179   2.490   4.838   0.778  0.7373 -0.8112 -0.7289
17588TIP3    H274180   2.609   4.844   0.685  1.5578 -1.6694  0.2323
17589TIP3   OH274181   5.905   6.464   2.391  0.6265  0.0666  0.0329
17589TIP3    H174182   5.936   6.554   2.385 -0.3969  0.3484 -1.4616
17589TIP3    H274183   5.810   6.470   2.381  0.6758 -1.2750 -1.8404
17590TIP3   OH274184   1.736   4.273   1.141  0.3052 -0.1804 -0.2194
17590TIP3    H174185   1.801   4.325   1.188  0.1403  1.3818 -1.6028
17590TIP3    H274186   1.708   4.330   1.068 -2.6959 -0.7206  0.3752
17591TIP3   OH274187   1.523   4.341  13.419 -0.2089 -0.2442  0.1985
17591TIP3    H174188   1.461   4.306  13.483  0.0824  1.6061  1.5622
17591TIP3    H274189   1.608   4.337  13.463  0.2714 -0.4538 -0.7157
17592TIP3   OH274190   3.179   2.998   0.792  0.3058 -0.3948  0.1345
17592TIP3    H174191   3.210   3.073   0.740  1.5826 -0.7228  0.4004
17592TIP3    H274192   3.172   2.927   0.728 -2.4529  0.2788 -0.4577
17593TIP3   OH274193   1.227   2.026  14.219  0.0136 -0.6348 -0.1556
17593TIP3    H174194   1.296   2.080  14.180 -0.1209  0.8060  1.4908
17593TIP3    H274195   1.251   2.019  14.311 -2.6847  1.0851  0.8063
17594TIP3   OH274196   0.938   3.249  11.537  0.1044 -0.1843  0.6075
17594TIP3    H174197   0.883   3.311  11.584  1.2801  1.8361 -0.5523
17594TIP3    H274198   1.025   3.290  11.535  1.1655 -2.2583  0.4809
17595TIP3   OH274199   6.641   0.843  13.597 -0.4426  0.0683 -0.7479
17595TIP3    H174200   6.705   0.906  13.633  0.1796 -0.1827 -1.3810
17595TIP3    H274201   6.556   0.879  13.620 -0.1205  1.5189 -1.6559
17596TIP3   OH274202   2.493   4.003   4.663 -0.2701  0.3053 -0.4696
17596TIP3    H174203   2.413   4.022   4.711  0.0723 -0.5239  0.4589
17596TIP3    H274204   2.563   4.038   4.718  0.0663  0.3528 -0.9182
17597TIP3   OH274205   1.462   1.063  13.736 -0.0366 -0.2030 -0.1622
17597TIP3    H174206   1.448   0.969  13.747 -0.9974 -0.0964 -0.4499
17597TIP3    H274207   1.376   1.098  13.715  0.4393  0.6495 -0.7347
17598TIP3   OH274208   6.498   2.746  15.287  0.1248  0.2996 -0.4108
17598TIP3    H174209   6.507   2.833  15.325 -1.6042  0.7335 -0.8708
17598TIP3    H274210   6.475   2.689  15.361  1.0492  0.2635 -0.1436
17599TIP3   OH274211   1.466   1.180  11.679 -0.0380 -0.1147 -0.1970
17599TIP3    H174212   1.539   1.212  11.625 -1.2651  0.8522 -1.3470
17599TIP3    H274213   1.405   1.253  11.683 -1.5794 -1.3436 -0.3955
17600TIP3   OH274214   5.673   5.527   4.562  0.1026  0.3734  0.0371
17600TIP3    H174215   5.677   5.513   4.657 -1.5231  0.1068  0.0814
17600TIP3    H274216   5.594   5.482   4.534 -0.7086  2.4068 -1.1110
17601TIP3   OH274217   6.108   4.642   2.878 -0.2532  0.1229 -0.0987
17601TIP3    H174218   6.043   4.594   2.930 -1.9256  1.3595 -0.9234
17601TIP3    H274219   6.069   4.729   2.866  1.6333  0.9532 -0.5644
17602TIP3   OH274220   5.857   4.856  15.790 -0.5626 -0.0798 -0.7909
17602TIP3    H174221   5.776   4.818  15.825  0.4714 -1.0659  0.6026
17602TIP3    H274222   5.872   4.933  15.844  1.9318 -2.4999  2.3381
17603TIP3   OH274223   0.847   3.723  11.918  0.4661  0.1181 -0.2106
17603TIP3    H174224   0.908   3.771  11.973  0.0691  0.9022 -0.4419
17603TIP3    H274225   0.781   3.689  11.979  1.5089 -1.3584  0.1349
17604TIP3   OH274226   0.333   3.233  13.657  0.2491  0.2965 -0.0606
17604TIP3    H174227   0.341   3.252  13.751  0.3239 -2.0615  0.4575
17604TIP3    H274228   0.253   3.181  13.650  0.4611  0.1100 -1.2614
17605TIP3   OH274229   6.256   3.270  15.588 -0.1773 -0.5133  0.2449
17605TIP3    H174230   6.248   3.307  15.500 -0.8544  0.4566  0.7070
17605TIP3    H274231   6.295   3.339  15.640 -0.0099 -0.9966  0.7746
17606TIP3   OH274232   6.392   2.325   0.136  0.1990  0.2856  0.5756
17606TIP3    H174233   6.324   2.367   0.084 -0.3487  0.5921  1.5161
17606TIP3    H274234   6.358   2.325   0.226 -0.0930 -2.6746  0.5802
17607TIP3   OH274235   3.559   1.586  12.165  0.1447  0.3196  0.7385
17607TIP3    H174236   3.585   1.518  12.102 -1.1014  2.8267 -2.8238
17607TIP3    H274237   3.630   1.588  12.229  3.5892 -0.0053 -2.7090
17608TIP3   OH274238   6.118   3.164   3.379 -0.0486 -0.6951 -0.4385
17608TIP3    H174239   6.212   3.152   3.362  0.2950 -0.8022  1.3530
17608TIP3    H274240   6.080   3.174   3.292  2.0047  2.3492 -1.1662
17609TIP3   OH274241   4.252   5.459  13.922 -0.3305 -0.1441  0.2672
17609TIP3    H174242   4.200   5.408  13.860  1.0979 -1.2855 -0.0388
17609TIP3    H274243   4.247   5.549  13.889 -1.7220 -0.2877  0.0058
17610TIP3   OH274244   2.945   6.448  15.969  0.5545  0.9141  0.4364
17610TIP3    H174245   2.888   6.475  16.040  1.0485  1.2097  0.7303
17610TIP3    H274246   2.928   6.512  15.899 -0.1685  0.4271  0.1633
17611TIP3   OH274247   5.213   0.479   2.667  1.0564 -0.4322  0.3078
17611TIP3    H174248   5.258   0.521   2.740 -0.7060  2.2881 -0.0221
17611TIP3    H274249   5.143   0.540   2.643 -0.0205 -2.3889 -2.0354
17612TIP3   OH274250   0.477   0.693   5.671 -0.2369 -0.9995 -0.1178
17612TIP3    H174251   0.425   0.773   5.676  0.5732 -0.3631 -1.2883
17612TIP3    H274252   0.422   0.625   5.710 -1.0305  0.0738  0.6891
17613TIP3   OH274253   5.022   2.275  13.672 -0.4270  0.1868  0.5931
17613TIP3    H174254   5.061   2.349  13.626 -1.3434 -0.0890 -0.6895
17613TIP3    H274255   4.983   2.221  13.602 -1.3151 -0.5773  1.6443
17614TIP3   OH274256   5.396   4.312  12.894 -0.3290 -0.4650 -0.0767
17614TIP3    H174257   5.387   4.230  12.943  0.2234 -0.5033 -0.0404
17614TIP3    H274258   5.452   4.291  12.820  0.5204  0.0789  0.3978
17615TIP3   OH274259   3.400   6.640   1.073 -0.0176 -0.3499  0.2090
17615TIP3    H174260   3.434   6.728   1.063 -0.7354  0.4229  3.5068
17615TIP3    H274261   3.475   6.588   1.101  0.2642 -0.6754 -1.1011
17616TIP3   OH274262   3.725   3.538  12.873 -0.0177 -0.8176  0.2227
17616TIP3    H174263   3.809   3.561  12.912  1.1474 -0.4628 -2.3089
17616TIP3    H274264   3.719   3.443  12.882  1.3671 -1.0323 -0.8137
17617TIP3   OH274265   2.627   1.112   5.347 -0.4638 -0.1058  0.0058
17617TIP3    H174266   2.657   1.024   5.366 -0.0726  0.2472  1.0788
17617TIP3    H274267   2.571   1.136   5.420 -0.4308  0.5936 -0.1833
17618TIP3   OH274268   2.447   4.090  13.448 -0.2820 -0.2894 -0.0443
17618TIP3    H174269   2.398   4.061  13.371 -0.5696  1.5631 -0.6116
17618TIP3    H274270   2.384   4.142  13.498  0.8987  1.7899 -0.5782
17619TIP3   OH274271   4.981   0.610   3.254 -0.0169 -0.2203  0.1486
17619TIP3    H174272   4.956   0.688   3.204 -1.7001 -0.5255  0.4700
17619TIP3    H274273   4.949   0.627   3.343  1.1634 -0.5477  0.6563
17620TIP3   OH274274   3.499   2.020  12.053 -0.4011  0.4784  0.0105
17620TIP3    H174275   3.563   2.057  11.992  2.4090  1.3085  3.1457
17620TIP3    H274276   3.488   1.929  12.023  0.2738  1.0126 -2.0760
17621TIP3   OH274277   6.257   6.643  14.328  0.3172 -0.4386  0.4477
17621TIP3    H174278   6.207   6.649  14.247 -0.0233  0.0400  0.6948
17621TIP3    H274279   6.228   6.560  14.367  1.0386 -1.0529 -0.2815
17622TIP3   OH274280   3.040   5.355  12.601 -0.2983  0.2202  0.0493
17622TIP3    H174281   2.977   5.284  12.591 -0.0897  0.1136 -0.5510
17622TIP3    H274282   3.007   5.406  12.676 -1.4982  0.5824 -0.6898
17623TIP3   OH274283   5.745   6.127  16.526 -0.2446 -0.2645 -0.1369
17623TIP3    H174284   5.719   6.195  16.464  0.2792  1.0395  1.0135
17623TIP3    H274285   5.774   6.054  16.471  0.1423  0.8142 -1.4182
17624TIP3   OH274286   6.149   1.323  10.839  0.3677  0.2667 -0.4064
17624TIP3    H174287   6.122   1.237  10.871 -0.0267  0.3452 -0.5222
17624TIP3    H274288   6.173   1.371  10.919 -0.1863  0.3140 -0.2643
17625TIP3   OH274289   1.507   0.128  14.155  0.0673 -0.0879 -0.3112
17625TIP3    H174290   1.593   0.161  14.131 -0.3384  0.5990 -0.8897
17625TIP3    H274291   1.503   0.039  14.118  1.4036 -1.0778  1.7877
17626TIP3   OH274292   6.320   6.427  14.630 -0.0971 -0.0826  0.0036
17626TIP3    H174293   6.341   6.520  14.628 -3.3203  0.7914  1.1450
17626TIP3    H274294   6.357   6.395  14.712  1.4704  0.0004 -0.6348
17627TIP3   OH274295   3.986   5.567   5.267 -0.5489 -0.4496  0.0296
17627TIP3    H174296   3.946   5.500   5.211 -2.2313  2.3263 -2.4215
17627TIP3    H274297   3.911   5.617   5.300  0.5691 -0.5606  2.9567
17628TIP3   OH274298   0.036   2.340   3.990  0.4599 -0.0671 -0.3876
17628TIP3    H174299   0.124   2.354   4.025  1.2104  0.9887 -2.5281
17628TIP3    H274300   0.023   2.245   3.995  2.7367 -0.5662 -2.2164
17629TIP3   OH274301   5.853   6.694   4.256  0.5371 -0.7342 -0.0380
17629TIP3    H174302   5.816   6.672   4.171 -1.3526  0.5466  0.3994
17629TIP3    H274303   5.896   6.779   4.242  1.2244 -1.0560  0.0499
17630TIP3   OH274304   0.061   6.255   5.385  0.2986 -0.1373  0.2545
17630TIP3    H174305   0.086   6.188   5.321 -0.2138 -0.0215 -0.0689
17630TIP3    H274306   0.020   6.205   5.456  1.2661 -0.3122  0.7137
17631TIP3   OH274307   2.727   0.971  13.483 -0.0268  0.0341  0.4664
17631TIP3    H174308   2.805   1.020  13.507 -0.7417  0.8352  1.2212
17631TIP3    H274309   2.740   0.884  13.521 -0.0660  0.5543  1.7201
17632TIP3   OH274310   1.962   0.139  14.483 -0.1865 -0.0323 -0.0951
17632TIP3    H174311   1.950   0.118  14.391 -1.4029  1.9768 -0.4431
17632TIP3    H274312   2.050   0.177  14.488 -0.0697 -0.2614 -0.4013
17633TIP3   OH274313   1.735   4.838  12.104  0.1934 -0.0221  0.1391
17633TIP3    H174314   1.696   4.915  12.145  0.2186  0.2062 -0.2571
17633TIP3    H274315   1.824   4.865  12.080  1.4667 -1.2331  3.0884
17634TIP3   OH274316   0.591   1.091   1.796  0.3646 -0.3406 -0.8500
17634TIP3    H174317   0.499   1.067   1.797 -0.3579  1.9786 -2.5065
17634TIP3    H274318   0.603   1.148   1.872  0.5394 -0.8975 -0.4520
17635TIP3   OH274319   6.657   0.329   0.860 -0.1683  0.0155  0.3920
17635TIP3    H174320   6.709   0.249   0.873  1.7573  0.9016 -1.2152
17635TIP3    H274321   6.714   0.399   0.891 -0.4306  1.0085 -1.2630
17636TIP3   OH274322   4.322   3.450  14.394  0.3286  0.3550 -0.0967
17636TIP3    H174323   4.306   3.476  14.303  3.0902  1.6136 -0.3095
17636TIP3    H274324   4.238   3.464  14.438 -1.4042 -1.2822 -2.5974
17637TIP3   OH274325   2.328   1.415   3.554  0.0498 -0.0805 -0.8103
17637TIP3    H174326   2.238   1.407   3.585  0.3018 -0.5174 -0.1832
17637TIP3    H274327   2.364   1.327   3.562  0.0365 -0.3027 -2.6542
17638TIP3   OH274328   1.085   1.263  13.860  0.3550  0.0035 -0.2076
17638TIP3    H174329   1.143   1.230  13.929  0.8746 -0.2525 -0.7541
17638TIP3    H274330   1.135   1.250  13.780  0.2927  1.5226 -0.5033
17639TIP3   OH274331   1.453   3.176  17.301 -0.4332 -0.4508  0.1828
17639TIP3    H174332   1.489   3.144  17.219 -1.3260 -0.2983 -0.2787
17639TIP3    H274333   1.510   3.250  17.325  1.2929 -1.9656  0.9697
17640TIP3   OH274334   4.789   1.285  12.933  0.1428  0.3009  0.0199
17640TIP3    H174335   4.834   1.261  13.014 -0.2875  0.0729  0.1959
17640TIP3    H274336   4.738   1.208  12.910 -0.4752  0.6941  0.0479
17641TIP3   OH274337   1.492   0.926  15.746  0.1059  0.1221 -0.1877
17641TIP3    H174338   1.403   0.902  15.722  0.0055  0.2156  0.0885
17641TIP3    H274339   1.531   0.843  15.775  0.5149 -0.1811 -1.5114
17642TIP3   OH274340   5.051   1.135  13.412 -0.2975  0.4745 -0.2574
17642TIP3    H174341   5.128   1.078  13.415  0.2479  1.1305 -1.4899
17642TIP3    H274342   5.036   1.160  13.504  0.1260 -0.7270  0.1619
17643TIP3   OH274343   4.456   6.536  10.496 -0.1795  0.6337 -0.4637
17643TIP3    H174344   4.380   6.588  10.520 -0.5088  0.4524 -1.0707
17643TIP3    H274345   4.468   6.475  10.569 -1.3297 -0.1087 -0.8567
17644TIP3   OH274346   6.096   2.020   1.166 -0.1869  0.2337  0.0181
17644TIP3    H174347   6.155   2.095   1.166 -0.5370  0.5165 -0.8112
17644TIP3    H274348   6.010   2.057   1.145  0.0459 -0.6807 -3.0244
17645TIP3   OH274349   0.368   3.615   3.662 -0.0260 -0.0862 -0.3164
17645TIP3    H174350   0.338   3.526   3.680  0.1900 -0.2022 -0.5236
17645TIP3    H274351   0.345   3.665   3.741 -0.7272 -0.1763 -0.4543
17646TIP3   OH274352   4.494   6.522   0.941 -0.2268 -0.4040 -0.2753
17646TIP3    H174353   4.475   6.431   0.917 -1.0387  0.0431 -1.4140
17646TIP3    H274354   4.539   6.558   0.864 -0.5746  0.3571 -0.1285
17647TIP3   OH274355   0.169   4.147   3.476  0.0074 -0.2334 -0.6577
17647TIP3    H174356   0.250   4.195   3.460  1.2540 -2.4094 -1.2213
17647TIP3    H274357   0.117   4.160   3.396 -0.3244  1.2779 -0.2394
17648TIP3   OH274358   3.658   2.011  13.178  1.0015  0.0014  0.0085
17648TIP3    H174359   3.572   2.042  13.206 -0.2999 -2.0798 -1.3675
17648TIP3    H274360   3.718   2.040  13.246 -1.1613 -0.4418  2.2301
17649TIP3   OH274361   4.806   2.214  17.008 -0.1320  0.1001 -0.3139
17649TIP3    H174362   4.883   2.268  16.988 -2.1865  2.7944 -1.6336
17649TIP3    H274363   4.802   2.152  16.935  2.0483 -1.7485  1.0167
17650TIP3   OH274364   1.222   3.445   4.235 -0.1810 -0.1873 -0.4700
17650TIP3    H174365   1.173   3.373   4.274 -1.8968  0.2430 -1.7010
17650TIP3    H274366   1.240   3.505   4.308  1.1458 -1.7403  0.5427
17651TIP3   OH274367   1.289   3.748  14.364  0.2631 -0.1495 -0.0140
17651TIP3    H174368   1.337   3.718  14.287  1.0124 -0.7455  0.6646
17651TIP3    H274369   1.275   3.669  14.416  0.0031  0.2811  0.5851
17652TIP3   OH274370   1.570   6.073   5.925  0.3703  0.4144  0.6833
17652TIP3    H174371   1.654   6.112   5.949  1.3029 -1.2825  0.3638
17652TIP3    H274372   1.531   6.135   5.864  2.2876  0.3960 -0.6586
17653TIP3   OH274373   4.184   2.964  15.392 -0.5841 -0.3886 -0.6664
17653TIP3    H174374   4.113   2.955  15.328 -0.7130  0.7519 -0.7179
17653TIP3    H274375   4.139   2.970  15.477 -0.4753 -0.8695 -0.5731
17654TIP3   OH274376   1.122   4.298  14.468  0.3473  0.6132  0.0464
17654TIP3    H174377   1.114   4.393  14.476  0.3991  0.6111  0.1233
17654TIP3    H274378   1.053   4.272  14.407  0.8719  0.8064 -0.6466
17655TIP3   OH274379   3.711   5.865  12.216  0.2115 -0.9188  0.4325
17655TIP3    H174380   3.739   5.871  12.307 -0.0857  2.1630  0.4352
17655TIP3    H274381   3.678   5.952  12.196 -4.1030 -2.6959 -1.2658
17656TIP3   OH274382   5.378   3.469   1.422 -0.2302 -0.1433 -0.4888
17656TIP3    H174383   5.397   3.401   1.487 -0.2086 -0.1293 -0.4803
17656TIP3    H274384   5.358   3.421   1.342 -2.1490 -0.2381  0.0021
17657TIP3   OH274385   4.569   4.939  12.359  0.3300  0.1869 -0.2140
17657TIP3    H174386   4.644   4.910  12.306 -0.1943 -0.0998 -0.8073
17657TIP3    H274387   4.492   4.913  12.308 -0.1733  0.8022  0.2249
17658TIP3   OH274388   0.604   1.163   3.202 -0.0487  0.0374  0.2553
17658TIP3    H174389   0.529   1.156   3.143  0.0385 -1.2942  0.2750
17658TIP3    H274390   0.571   1.214   3.276 -0.2330  1.5107 -0.7872
17659TIP3   OH274391   5.544   1.598  16.197  0.5364 -0.1312 -0.3354
17659TIP3    H174392   5.558   1.690  16.217  1.8335 -0.0495 -1.4267
17659TIP3    H274393   5.472   1.597  16.134  0.5501  0.1593 -0.3572
17660TIP3   OH274394   6.136   4.045   4.849 -0.0114  0.1160 -0.1233
17660TIP3    H174395   6.201   4.042   4.779 -0.4304  1.4828 -0.5965
17660TIP3    H274396   6.111   4.137   4.856 -0.9850 -0.1931  0.8998
17661TIP3   OH274397   2.701   4.233  14.699  0.9961 -0.0358  0.1756
17661TIP3    H174398   2.610   4.225  14.727  0.6712 -1.0576 -1.0783
17661TIP3    H274399   2.698   4.284  14.618  1.6831  0.9388  0.7341
17662TIP3   OH274400   1.000   4.287  12.866  0.3696  0.0343 -0.0379
17662TIP3    H174401   0.933   4.254  12.925  1.6198 -0.9213  0.8951
17662TIP3    H274402   0.990   4.234  12.787 -0.8151  0.8064 -0.4273
17663TIP3   OH274403   1.275   2.002  16.495 -0.0946  0.6696 -0.3826
17663TIP3    H174404   1.337   2.057  16.545  0.3032 -0.1260  0.0240
17663TIP3    H274405   1.232   2.063  16.436  0.2672  1.4439  0.1246
17664TIP3   OH274406   5.448   6.203  13.335 -0.2588  0.0257 -0.3846
17664TIP3    H174407   5.454   6.132  13.399  0.1647  0.1061 -0.3363
17664TIP3    H274408   5.513   6.267  13.364 -1.1972  0.8060  0.0329
17665TIP3   OH274409   5.340   0.775  16.192 -0.1678 -0.2177 -0.1037
17665TIP3    H174410   5.413   0.792  16.253 -1.0802 -1.0727  1.2831
17665TIP3    H274411   5.383   0.751  16.110  1.1614 -1.5732  0.9141
17666TIP3   OH274412   6.369   4.159   0.047 -0.1506 -0.2525  0.2599
17666TIP3    H174413   6.465   4.167   0.046 -0.1391 -0.4390 -0.1193
17666TIP3    H274414   6.352   4.085   0.105 -0.0803 -0.0402  0.5565
17667TIP3   OH274415   3.124   3.334   3.922  0.0952  0.6763 -0.1030
17667TIP3    H174416   3.062   3.321   3.850  2.2656 -1.1386 -1.7852
17667TIP3    H274417   3.208   3.352   3.879  1.5328 -0.7043  1.9332
17668TIP3   OH274418   3.366   5.068  16.049  0.5725  0.0668  0.0554
17668TIP3    H174419   3.361   5.143  15.989  0.5570 -0.4996 -0.6619
17668TIP3    H274420   3.459   5.061  16.071  0.8344 -0.7323 -1.2206
17669TIP3   OH274421   2.571   6.324  14.352 -0.2191  0.4102  0.2399
17669TIP3    H174422   2.590   6.240  14.394 -2.9068 -1.0004 -1.0967
17669TIP3    H274423   2.538   6.379  14.423  0.5894  0.0114  0.9436
17670TIP3   OH274424   3.244   0.483  10.979 -0.1275 -0.1050 -0.4241
17670TIP3    H174425   3.181   0.475  10.907 -0.1237 -2.4054 -0.2587
17670TIP3    H274426   3.293   0.400  10.977  1.0103  0.4786  1.1917
17671TIP3   OH274427   6.266   0.262   4.338  0.2597 -0.5220 -0.5493
17671TIP3    H174428   6.258   0.199   4.267  2.3169 -1.3012 -0.1481
17671TIP3    H274429   6.305   0.340   4.297  0.2895 -0.5198 -0.5173
17672TIP3   OH274430   1.952   2.434  16.504  0.3433  0.8977 -0.1229
17672TIP3    H174431   1.951   2.420  16.410  0.0455  2.7947 -0.4353
17672TIP3    H274432   1.961   2.346  16.541  0.5283  0.1258 -1.9027
17673TIP3   OH274433   2.361   5.328   3.507 -0.3859 -0.7804  0.1094
17673TIP3    H174434   2.453   5.306   3.498  0.2474  1.0079  1.6343
17673TIP3    H274435   2.316   5.272   3.442  1.6786 -1.9917 -0.3566
17674TIP3   OH274436   1.496   2.384  11.250 -0.4531 -0.1868  0.2000
17674TIP3    H174437   1.535   2.464  11.285  0.5594 -1.0391  1.0665
17674TIP3    H274438   1.502   2.395  11.155  0.3270  0.4620  0.3113
17675TIP3   OH274439   1.402   0.853  12.341  0.4923 -0.9637 -0.3659
17675TIP3    H174440   1.493   0.845  12.368  0.5171 -0.8965 -0.4277
17675TIP3    H274441   1.403   0.836  12.247  1.0267  2.6516 -1.1740
17676TIP3   OH274442   4.988   1.728  15.572  0.1590  0.3359  0.3324
17676TIP3    H174443   4.991   1.732  15.667  1.4902 -1.4450  0.4099
17676TIP3    H274444   4.947   1.643  15.553  0.9379  0.1665 -0.6651
17677TIP3   OH274445   2.160   5.172  13.161  0.2622 -0.7807  0.0857
17677TIP3    H174446   2.252   5.180  13.185  0.5050 -1.2081 -0.6894
17677TIP3    H274447   2.126   5.261  13.169  0.4355 -0.8230  1.5443
17678TIP3   OH274448   4.556   4.071  16.113 -0.0762 -0.7055  0.3509
17678TIP3    H174449   4.572   3.996  16.170 -0.4913 -0.8008  0.3464
17678TIP3    H274450   4.612   4.140  16.148 -1.0405 -0.4619  1.4790
17679TIP3   OH274451   1.253   6.241   1.671  0.4567 -0.0872  0.3378
17679TIP3    H174452   1.184   6.210   1.730 -0.6014 -0.2089 -0.9006
17679TIP3    H274453   1.329   6.186   1.692  0.0692 -0.2077  1.4789
17680TIP3   OH274454   0.202   2.530   2.328  0.0176  0.0888  0.2263
17680TIP3    H174455   0.295   2.519   2.308 -0.1160 -0.1230 -0.2822
17680TIP3    H274456   0.157   2.472   2.267 -0.4710  0.5159  0.1764
17681TIP3   OH274457   5.639   0.641  16.888  0.0643 -0.4936  0.2738
17681TIP3    H174458   5.628   0.686  16.972  2.3077 -0.2300  0.4902
17681TIP3    H274459   5.674   0.555  16.911  2.1302  0.1112 -0.3888
17682TIP3   OH274460   4.789   2.789  12.796 -0.3843 -0.9984  0.4115
17682TIP3    H174461   4.868   2.825  12.757 -0.5655 -0.0978  0.8540
17682TIP3    H274462   4.798   2.694  12.786  0.6091 -0.8892  0.1979
17683TIP3   OH274463   1.181   5.426  12.645 -0.5316  0.3739  0.0909
17683TIP3    H174464   1.093   5.417  12.608 -0.3778  0.4556 -0.2881
17683TIP3    H274465   1.224   5.492  12.591  0.6972 -1.5806 -1.4619
17684TIP3   OH274466   3.180   0.246   2.245  0.3172  0.2786 -0.4309
17684TIP3    H174467   3.191   0.341   2.235 -0.7944  0.5304  0.5001
17684TIP3    H274468   3.127   0.220   2.170 -2.5949  1.0778  1.1928
17685TIP3   OH274469   0.183   4.059  15.795 -0.3645  0.2421  0.8515
17685TIP3    H174470   0.119   4.129  15.788 -1.2005 -0.5826 -0.1379
17685TIP3    H274471   0.265   4.098  15.768 -0.5013  1.2213  1.7757
17686TIP3   OH274472   6.185   0.682  14.922 -0.1848  0.9958  0.4315
17686TIP3    H174473   6.203   0.730  15.002 -0.7955 -0.1192  1.2644
17686TIP3    H274474   6.186   0.748  14.853  0.5537  1.9404  1.3217
17687TIP3   OH274475   4.105   2.894  14.375  1.0049 -0.2190 -0.3558
17687TIP3    H174476   4.139   2.951  14.306  0.8322  0.1384 -0.1482
17687TIP3    H274477   4.012   2.884  14.354  0.7894  0.4789  0.2220
17688TIP3   OH274478   4.590   2.365  16.474 -0.1271  0.2412 -0.3712
17688TIP3    H174479   4.682   2.378  16.493  0.4357 -0.8384 -2.1747
17688TIP3    H274480   4.554   2.454  16.468  1.3591  0.7762 -2.1853
17689TIP3   OH274481   3.021   2.329   4.309 -0.3405  0.3327  0.1484
17689TIP3    H174482   3.002   2.264   4.241 -1.1732  1.2218 -0.4933
17689TIP3    H274483   2.999   2.285   4.391 -2.7992  0.4126 -0.3873
17690TIP3   OH274484   0.922   0.837   2.995 -0.7693  0.0769 -0.3909
17690TIP3    H174485   0.900   0.920   2.953 -0.9627  0.1620 -0.1227
17690TIP3    H274486   0.866   0.833   3.072 -0.1403  0.1002  0.0716
17691TIP3   OH274487   6.385   0.762   3.287  0.1158  0.5066  0.1822
17691TIP3    H174488   6.310   0.779   3.345 -1.3272 -0.5754 -1.2604
17691TIP3    H274489   6.431   0.846   3.281 -1.0404  1.2296  1.0440
17692TIP3   OH274490   2.818   3.301   5.544 -0.4067  0.2263  0.1706
17692TIP3    H174491   2.854   3.216   5.567 -0.2812  0.8174  2.3652
17692TIP3    H274492   2.725   3.284   5.528 -0.1345 -0.5082 -0.7468
17693TIP3   OH274493   5.654   3.819   2.690 -0.0369  0.2379 -0.1322
17693TIP3    H174494   5.741   3.857   2.680  0.2409 -0.0007  1.2110
17693TIP3    H274495   5.609   3.839   2.608  0.7774  1.6793 -0.2524
17694TIP3   OH274496   2.642   0.700   2.044  0.1343 -0.1811  0.4469
17694TIP3    H174497   2.734   0.689   2.066  0.2443  0.5183  0.3524
17694TIP3    H274498   2.633   0.792   2.021 -0.5123 -0.3236  0.0823
17695TIP3   OH274499   3.358   1.986   3.363  0.7617 -0.8485 -0.2601
17695TIP3    H174500   3.267   1.965   3.346  1.3735 -3.2858 -0.9320
17695TIP3    H274501   3.398   1.994   3.276  1.0169  1.3918 -0.0108
17696TIP3   OH274502   5.732   4.464  11.383  0.5053  0.1970 -0.4103
17696TIP3    H174503   5.690   4.442  11.299  0.1082  1.4680 -0.5679
17696TIP3    H274504   5.764   4.380  11.416 -0.6597 -0.5654 -1.1099
17697TIP3   OH274505   5.923   0.064   3.151  0.1273  0.5747  0.1165
17697TIP3    H174506   5.923  -0.031   3.157  0.1401  0.5006 -0.9270
17697TIP3    H274507   5.842   0.091   3.195  0.8174  0.1867  1.6872
17698TIP3   OH274508   3.457   6.075  11.476  0.1584  0.0016  0.9549
17698TIP3    H174509   3.431   5.997  11.428  4.7816 -2.2293  1.4881
17698TIP3    H274510   3.407   6.146  11.435 -1.8317 -2.7477 -1.8468
17699TIP3   OH274511   0.071   4.460   5.161 -0.1588 -0.7605  0.1090
17699TIP3    H174512   0.005   4.474   5.092 -0.7454 -1.6158  0.4786
17699TIP3    H274513   0.081   4.546   5.202  0.2726 -0.2115 -1.0887
17700TIP3   OH274514   4.638   0.299  16.763 -0.0220  0.0591 -0.0408
17700TIP3    H174515   4.641   0.373  16.703 -2.7653  0.6636  0.4108
17700TIP3    H274516   4.669   0.334  16.846  1.7471 -0.2116 -0.5503
17701TIP3   OH274517   5.580   4.580  14.724  0.4696 -0.1232  0.0236
17701TIP3    H174518   5.511   4.522  14.757 -0.3897  0.1900 -1.1528
17701TIP3    H274519   5.643   4.522  14.683 -0.6220 -0.2458 -1.5707
17702TIP3   OH274520   5.567   2.638   5.276  0.2431  0.2330  0.3513
17702TIP3    H174521   5.565   2.672   5.365  0.2002  1.3371 -0.0535
17702TIP3    H274522   5.634   2.690   5.232  0.6381 -0.6559 -0.1315
17703TIP3   OH274523   3.853   5.566  16.795 -0.2487 -0.2695  0.6532
17703TIP3    H174524   3.830   5.481  16.756 -0.3605 -0.0562  0.2510
17703TIP3    H274525   3.925   5.546  16.854 -0.0617 -0.5984  0.3207
17704TIP3   OH274526   4.837   4.805   4.934  0.8530 -0.0535  1.3244
17704TIP3    H174527   4.751   4.781   4.901  0.2575  0.4070  2.4897
17704TIP3    H274528   4.889   4.725   4.925 -0.4043 -1.1077  2.8722
17705TIP3   OH274529   1.598   3.560  12.649 -0.3882 -0.0983  0.3693
17705TIP3    H174530   1.518   3.508  12.647 -0.1948 -0.4116  0.8052
17705TIP3    H274531   1.612   3.580  12.741  0.2368 -0.3504  0.3309
17706TIP3   OH274532   2.840   3.042  14.064 -0.0180  0.2278  0.4506
17706TIP3    H174533   2.924   3.000  14.048 -0.1209  0.3645 -0.5676
17706TIP3    H274534   2.816   3.017  14.153  0.8862 -0.1720  0.5904
17707TIP3   OH274535   4.731   2.186  10.732  0.2447  0.2402  0.1849
17707TIP3    H174536   4.739   2.244  10.808  0.3197  1.9597 -1.0708
17707TIP3    H274537   4.676   2.114  10.762 -0.8095  1.5385  1.5143
17708TIP3   OH274538   5.341   3.345   0.798  0.3098 -0.2200 -0.4154
17708TIP3    H174539   5.315   3.282   0.730 -0.5048 -2.2462  1.6706
17708TIP3    H274540   5.262   3.356   0.852  1.1243  0.8276  0.6013
17709TIP3   OH274541   4.259   0.253   2.221  0.4820  0.1039  0.1598
17709TIP3    H174542   4.354   0.245   2.222  0.4729 -0.0758 -0.4513
17709TIP3    H274543   4.231   0.217   2.306  0.8158 -1.7036 -0.4574
17710TIP3   OH274544   1.001   3.527   3.867 -0.3408  0.8923  0.1501
17710TIP3    H174545   0.938   3.515   3.938  2.3485  0.0729  2.5581
17710TIP3    H274546   0.999   3.621   3.849 -1.8236  0.9640  0.5267
17711TIP3   OH274547   3.173   5.286  16.222 -0.3288  0.4348 -0.6587
17711TIP3    H174548   3.145   5.367  16.265  1.3717  0.7885 -0.1497
17711TIP3    H274549   3.094   5.231  16.220 -0.8478  1.0146  1.5285
17712TIP3   OH274550   0.744   6.000   6.404  0.3729 -0.2597  0.6020
17712TIP3    H174551   0.830   6.041   6.407  0.5769 -0.5150 -0.9767
17712TIP3    H274552   0.694   6.046   6.472  1.1008  1.4199  0.0678
17713TIP3   OH274553   5.994   2.199   0.280  0.1525 -0.0694  0.5880
17713TIP3    H174554   6.034   2.159   0.358  0.9387 -0.4835 -0.0111
17713TIP3    H274555   5.919   2.248   0.314  0.4113 -0.3422  1.5912
17714TIP3   OH274556   1.996   6.556   5.355  0.6509  0.3745 -0.1849
17714TIP3    H174557   2.043   6.639   5.357  0.0983  0.7808 -2.1467
17714TIP3    H274558   1.904   6.580   5.351  0.4690 -0.3232 -0.4383
17715TIP3   OH274559   6.408   0.808   5.293  0.5647 -0.0081 -0.2132
17715TIP3    H174560   6.323   0.768   5.273  0.5638  0.2424 -0.7150
17715TIP3    H274561   6.395   0.902   5.276  0.7369  0.1368  0.3990
17716TIP3   OH274562   6.393   6.165  15.731 -0.3192 -0.2399 -0.1923
17716TIP3    H174563   6.355   6.179  15.818  0.3783  2.4305 -0.2100
17716TIP3    H274564   6.320   6.173  15.670 -0.2496  2.0591 -0.0518
17717TIP3   OH274565   3.496   1.969  15.484 -0.1800  0.0273 -0.6636
17717TIP3    H174566   3.412   1.958  15.441 -1.1600  0.9596  0.8869
17717TIP3    H274567   3.488   1.920  15.566  0.3362  1.0547  0.0363
17718TIP3   OH274568   4.013   1.491   5.861 -1.1064  0.2840  0.4990
17718TIP3    H174569   4.005   1.458   5.951 -2.5840  0.0109  0.2980
17718TIP3    H274570   3.936   1.455   5.816  0.6277 -1.2593 -1.4315
17719TIP3   OH274571   6.506   5.670  12.181  0.5691  0.4065 -0.8399
17719TIP3    H174572   6.591   5.626  12.185 -0.0495 -0.8024 -0.5298
17719TIP3    H274573   6.490   5.698  12.272 -1.3512 -3.3853  0.2040
17720TIP3   OH274574   3.892   2.486   1.212  0.3890 -0.3244 -0.3698
17720TIP3    H174575   3.858   2.528   1.291  1.1125 -0.4449  0.0148
17720TIP3    H274576   3.834   2.516   1.142 -0.6354 -0.6993  0.2969
17721TIP3   OH274577   2.327   2.714  14.279 -0.3959  0.0256 -0.2085
17721TIP3    H174578   2.415   2.695  14.312 -0.1169  0.9174 -0.4204
17721TIP3    H274579   2.341   2.749  14.191 -0.8665  1.4208  0.2510
17722TIP3   OH274580   2.660   2.851   5.905  0.2947  0.5432  0.2280
17722TIP3    H174581   2.648   2.771   5.853 -1.6388  1.1252 -0.3185
17722TIP3    H274582   2.667   2.819   5.995  0.9711 -0.3191 -0.1092
17723TIP3   OH274583   0.668   1.582   3.417 -0.6799  0.0002  0.0828
17723TIP3    H174584   0.572   1.588   3.417 -0.6037  1.7505  0.9886
17723TIP3    H274585   0.690   1.550   3.330 -2.0922 -0.7275 -0.0378
17724TIP3   OH274586   2.890   1.144   6.104 -0.0151 -0.2612  0.1000
17724TIP3    H174587   2.983   1.150   6.124  0.1983 -0.2115 -0.8496
17724TIP3    H274588   2.866   1.231   6.074 -0.4430 -0.1941  0.6187
17725TIP3   OH274589   6.323   2.859   2.138  1.0201  0.2881 -0.2199
17725TIP3    H174590   6.237   2.838   2.175  0.2530  2.5136 -0.6397
17725TIP3    H274591   6.384   2.801   2.186 -0.3951  0.3807  1.8197
17726TIP3   OH274592   4.361   3.599  13.317 -0.7009 -0.1573 -0.1218
17726TIP3    H174593   4.320   3.515  13.298  0.1258 -0.7479  0.6128
17726TIP3    H274594   4.289   3.655  13.346 -1.2125 -0.7110 -0.3049
17727TIP3   OH274595   0.214   0.768  12.665  0.0612 -0.3367  0.8660
17727TIP3    H174596   0.249   0.724  12.743 -2.0083 -0.7415  1.6388
17727TIP3    H274597   0.287   0.822  12.633  1.7874 -2.1416  1.5401
17728TIP3   OH274598   4.843   2.491  16.738  0.2820 -0.4788 -0.4744
17728TIP3    H174599   4.797   2.571  16.766 -0.4903 -1.5399  1.4470
17728TIP3    H274600   4.936   2.513  16.747  0.0974  0.3836 -0.5480
17729TIP3   OH274601   0.975   6.108   3.735 -0.2077 -0.3553 -0.1277
17729TIP3    H174602   0.889   6.082   3.700 -0.0437 -0.9076 -0.1318
17729TIP3    H274603   0.961   6.196   3.769 -0.8905 -0.5893  0.2322
17730TIP3   OH274604   5.958   6.164   2.009 -0.2094  0.1189 -0.1524
17730TIP3    H174605   5.888   6.143   2.071 -0.5682 -0.7127 -0.8325
17730TIP3    H274606   6.010   6.230   2.054 -0.8459  0.0034  0.7759
17731TIP3   OH274607   1.106   0.069  12.085 -0.1556  0.9564  0.5078
17731TIP3    H174608   1.041   0.118  12.035  0.8652  0.5786 -1.2838
17731TIP3    H274609   1.189   0.091  12.044  0.7693  0.8160  2.2519
17732TIP3   OH274610   5.714   6.161  13.451  0.0864 -0.1545 -0.4034
17732TIP3    H174611   5.693   6.114  13.532  0.7018 -0.1258 -0.2189
17732TIP3    H274612   5.728   6.251  13.478  2.0744 -0.4746 -0.2361
17733TIP3   OH274613   1.623   1.222   0.245  0.6757  0.6441 -0.1703
17733TIP3    H174614   1.654   1.220   0.155  1.0069 -0.3976 -0.0484
17733TIP3    H274615   1.607   1.130   0.267  0.9267  0.8555  0.9403
17734TIP3   OH274616   0.575   2.198  15.528 -0.5850 -0.1050  0.3728
17734TIP3    H174617   0.483   2.203  15.554 -0.6586 -1.8987  0.5639
17734TIP3    H274618   0.605   2.114  15.561  0.7291 -0.2033 -0.9683
17735TIP3   OH274619   0.468   0.413  13.665  0.3646  0.6814  0.0675
17735TIP3    H174620   0.564   0.418  13.671  0.5231 -1.4661  0.0691
17735TIP3    H274621   0.437   0.437  13.752  0.9686  0.2503  0.4070
17736TIP3   OH274622   2.688   5.765  13.880 -0.2432  0.5193  0.3803
17736TIP3    H174623   2.740   5.699  13.926 -0.9884  0.5442  1.2937
17736TIP3    H274624   2.723   5.849  13.910  0.5567  0.5504 -0.6089
17737TIP3   OH274625   6.154   1.862  16.056  0.1868 -0.3122  0.3667
17737TIP3    H174626   6.084   1.867  15.990 -0.6188 -1.4447  1.1131
17737TIP3    H274627   6.143   1.942  16.108  1.7651  1.3743 -1.7138
17738TIP3   OH274628   6.467   5.749  14.982 -0.9264  0.0225  0.3606
17738TIP3    H174629   6.385   5.796  14.998 -1.6358 -0.9909 -0.1671
17738TIP3    H274630   6.482   5.699  15.062 -1.6988 -1.0184 -0.1136
17739TIP3   OH274631   5.247   5.493  15.466  0.3197  0.2914  0.0625
17739TIP3    H174632   5.331   5.463  15.432  0.5641  0.4992  0.4776
17739TIP3    H274633   5.184   5.427  15.437  0.8745 -0.7342  1.1573
17740TIP3   OH274634   5.257   4.108   0.093 -0.1735 -0.2254  0.3273
17740TIP3    H174635   5.338   4.137   0.052 -0.4445 -1.5534 -1.2641
17740TIP3    H274636   5.284   4.039   0.153 -0.0558 -0.2459  0.2517
17741TIP3   OH274637   5.210   6.014  12.612  0.0154  0.3136 -0.0072
17741TIP3    H174638   5.244   6.065  12.539 -0.7659  1.2294  0.2440
17741TIP3    H274639   5.153   6.075  12.660 -0.9851 -0.7985  0.2795
17742TIP3   OH274640   0.872   4.081  13.079 -0.2330 -0.7320  0.9733
17742TIP3    H174641   0.805   4.039  13.134 -1.1442 -0.3678  0.1807
17742TIP3    H274642   0.826   4.101  12.997  0.1350  1.8134  1.3018
17743TIP3   OH274643   2.102   3.785   6.466  0.4376  0.3824  0.7433
17743TIP3    H174644   2.017   3.828   6.452  0.0773 -0.0994  1.3993
17743TIP3    H274645   2.155   3.851   6.510 -0.0236  0.2633  1.4982
17744TIP3   OH274646   1.387   6.185  15.325 -0.0831 -0.0701  0.0898
17744TIP3    H174647   1.337   6.104  15.338 -0.7743  0.4689  1.0138
17744TIP3    H274648   1.468   6.172  15.375 -0.1811 -0.2082  0.2142
17745TIP3   OH274649   3.636   1.620  16.784  0.5996 -0.4286 -0.4192
17745TIP3    H174650   3.563   1.606  16.724 -0.7090  0.1579  0.9618
17745TIP3    H274651   3.595   1.632  16.870  2.3318 -0.1330  0.4247
17746TIP3   OH274652   0.325   3.780   0.070 -0.3411  0.5345 -0.1818
17746TIP3    H174653   0.347   3.776  -0.023 -0.6570  0.4548 -0.2567
17746TIP3    H274654   0.330   3.689   0.099 -1.0435  0.4458 -0.3176
17747TIP3   OH274655   0.448   2.745  17.307  0.1676 -0.2786  0.2361
17747TIP3    H174656   0.501   2.665  17.304  1.2047  0.3976 -0.4365
17747TIP3    H274657   0.382   2.728  17.374 -0.7027 -2.3400 -1.0270
17748TIP3   OH274658   4.143   2.127   3.251  0.0117  0.1879  0.2216
17748TIP3    H174659   4.204   2.067   3.294  1.0755  1.6951  0.8912
17748TIP3    H274660   4.175   2.134   3.161 -0.4761 -0.6826 -0.0321
17749TIP3   OH274661   1.059   3.323  17.190 -0.0894  0.3462 -0.0942
17749TIP3    H174662   1.131   3.280  17.143  0.5424  0.2308  0.9547
17749TIP3    H274663   1.098   3.353  17.271 -1.0981  0.8151  0.2321
17750TIP3   OH274664   2.025   6.407  16.788  0.0355  0.2819 -0.3705
17750TIP3    H174665   2.050   6.355  16.712  0.0084 -2.9957  1.6795
17750TIP3    H274666   1.930   6.408  16.786  0.0467  1.3408 -1.0414
17751TIP3   OH274667   6.251   2.341  16.751  0.1731 -0.2646  0.2990
17751TIP3    H174668   6.342   2.369  16.763 -0.3217  2.3042 -1.1337
17751TIP3    H274669   6.237   2.346  16.657 -1.6692  0.2293  0.5534
17752TIP3   OH274670   3.922   1.604   1.576 -0.1426 -0.4894 -0.3765
17752TIP3    H174671   4.000   1.627   1.525  0.3861  0.1479  0.6999
17752TIP3    H274672   3.858   1.578   1.510 -0.0837  2.0440 -1.5371
17753TIP3   OH274673   0.880   5.808   5.906  0.0879 -0.9939  0.2212
17753TIP3    H174674   0.838   5.859   5.975 -0.8719 -1.7028  0.1753
17753TIP3    H274675   0.881   5.718   5.939 -0.3089 -1.3274 -0.6455
17754TIP3   OH274676   0.576   0.380  16.915  0.0237  0.3260  0.2700
17754TIP3    H174677   0.624   0.455  16.879 -0.8663 -0.2058 -2.2793
17754TIP3    H274678   0.642   0.310  16.920  0.2729  0.5392  0.0253
17755TIP3   OH274679   4.446   1.264   6.040  0.4415  0.0495  0.0688
17755TIP3    H174680   4.361   1.235   6.073  0.2266  1.0273  0.4301
17755TIP3    H274681   4.503   1.261   6.117  0.4030  0.5898  0.1264
17756TIP3   OH274682   6.646   4.633  10.844  0.6364 -0.3721 -0.3682
17756TIP3    H174683   6.679   4.623  10.755 -0.2634 -0.2523 -0.7261
17756TIP3    H274684   6.564   4.681  10.834  0.6853 -0.0708  0.5576
17757TIP3   OH274685   2.499   3.554  14.054 -0.5087 -0.5026  0.0552
17757TIP3    H174686   2.574   3.612  14.050 -0.0991 -1.0037  0.3910
17757TIP3    H274687   2.430   3.606  14.095 -0.3027 -0.0955 -0.1112
17758TIP3   OH274688   2.494   3.796  10.908 -0.1056 -0.5394  0.4572
17758TIP3    H174689   2.405   3.809  10.942  0.6672  2.5425  1.6523
17758TIP3    H274690   2.500   3.702  10.893 -4.1936 -0.7111 -1.5231
17759TIP3   OH274691   2.410   0.661  16.712 -0.3350  0.4966 -0.0002
17759TIP3    H174692   2.346   0.732  16.703 -0.1501  0.8145  1.0507
17759TIP3    H274693   2.425   0.631  16.622 -1.4855  0.8303 -0.3265
17760TIP3   OH274694   3.012   4.886  12.866  0.2234  0.0754  0.0370
17760TIP3    H174695   2.961   4.906  12.787 -1.5159 -0.4173  0.9792
17760TIP3    H274696   3.026   4.791  12.862  1.8001  0.2932 -0.5840
17761TIP3   OH274697   4.685   3.771   4.369  0.4722 -0.5427 -0.2269
17761TIP3    H174698   4.722   3.738   4.287  1.2627 -0.5805  0.1373
17761TIP3    H274699   4.730   3.854   4.384  0.8259 -0.8585  0.5094
17762TIP3   OH274700   2.458   5.938  15.657  0.1545 -0.1950 -0.0179
17762TIP3    H174701   2.414   5.866  15.612  0.1362 -0.0457 -0.2423
17762TIP3    H274702   2.443   5.921  15.750  1.0719 -1.0651 -0.0209
17763TIP3   OH274703   2.162   5.021   0.338 -0.2078 -0.0032 -0.0430
17763TIP3    H174704   2.253   5.045   0.352  0.1619 -1.1575 -0.3296
17763TIP3    H274705   2.121   5.028   0.425  1.0336 -2.9343  0.8997
17764TIP3   OH274706   6.057   0.068  15.532  0.2628 -0.1175  0.0865
17764TIP3    H174707   6.108   0.031  15.604 -0.1250  1.9423  1.5130
17764TIP3    H274708   5.974   0.020  15.534  0.1690  0.0611  1.1830
17765TIP3   OH274709   3.999   3.298   3.235  0.7265 -0.1003  0.1138
17765TIP3    H174710   3.966   3.243   3.306  0.7638  0.3216  0.4626
17765TIP3    H274711   4.070   3.348   3.275  1.1258 -0.2794 -0.3743
17766TIP3   OH274712   3.866   3.950   0.001  0.7162  0.3214  0.2408
17766TIP3    H174713   3.788   3.981   0.047  1.2464  0.6893  0.9246
17766TIP3    H274714   3.834   3.883  -0.059 -0.1174  0.4420  0.5348
17767TIP3   OH274715   0.182   4.666   0.014  0.1315 -0.1770  0.4939
17767TIP3    H174716   0.162   4.628  -0.072  0.7597  0.8384 -0.1160
17767TIP3    H274717   0.096   4.679   0.055 -0.3764  1.5466 -0.9737
17768TIP3   OH274718   4.268   4.734  15.551 -0.0872 -0.7011 -0.0499
17768TIP3    H174719   4.226   4.743  15.465  0.7209  0.7263 -0.3385
17768TIP3    H274720   4.324   4.812  15.558  1.7360 -1.9996  0.7346
17769TIP3   OH274721   3.474   3.900  11.765  0.5191 -0.4794 -0.5119
17769TIP3    H174722   3.480   3.807  11.789  0.0323 -0.3249  0.2316
17769TIP3    H274723   3.561   3.936  11.783  0.6763 -0.7587 -0.6979
17770TIP3   OH274724   6.463   5.723   3.881 -0.0606 -0.4821 -0.5413
17770TIP3    H174725   6.481   5.629   3.883 -0.1036 -0.5168  1.6794
17770TIP3    H274726   6.477   5.751   3.972 -1.6061  1.3537 -0.8070
17771TIP3   OH274727   6.008   3.670  14.695 -0.5257  0.0884 -0.3331
17771TIP3    H174728   6.009   3.575  14.687  0.9282  0.0874 -0.4286
17771TIP3    H274729   5.916   3.694  14.683 -1.1117 -1.3799  0.9021
17772TIP3   OH274730   3.764   2.497  12.073 -0.3172 -0.1838  0.7302
17772TIP3    H174731   3.828   2.451  12.127 -0.8781 -2.3096 -0.3054
17772TIP3    H274732   3.776   2.461  11.985 -0.6985  1.8187 -0.2046
17773TIP3   OH274733   4.692   6.511  16.278 -0.2975  0.2621 -0.1722
17773TIP3    H174734   4.698   6.417  16.296 -2.3875  0.2186  0.6880
17773TIP3    H274735   4.780   6.544  16.294  0.6347 -1.6236 -1.0868
17774TIP3   OH274736   3.658   4.727   5.347 -0.0663  0.2223 -0.5865
17774TIP3    H174737   3.629   4.790   5.413 -0.4525 -0.9227  0.3637
17774TIP3    H274738   3.746   4.756   5.323 -0.1605  0.9952 -0.0128
17775TIP3   OH274739   0.069   6.044  14.037  0.0955 -0.1114  0.3283
17775TIP3    H174740   0.108   5.977  14.093  2.2138  0.3468 -0.5198
17775TIP3    H274741  -0.012   6.068  14.083 -0.2976 -2.5663  1.1106
17776TIP3   OH274742   1.109   0.666  11.782 -0.0398  0.3768  0.1006
17776TIP3    H174743   1.018   0.639  11.773  0.0886  0.4280 -1.6940
17776TIP3    H274744   1.154   0.587  11.813 -0.4405 -0.1185 -0.5418
17777TIP3   OH274745   0.724   4.193  12.869 -0.0900 -0.4041  0.6424
17777TIP3    H174746   0.654   4.158  12.815  0.8667  0.6182 -1.3728
17777TIP3    H274747   0.697   4.284  12.888  1.2917  0.5105 -1.4400
17778TIP3   OH274748   3.076   2.691  12.228  0.1992 -0.5210  0.3046
17778TIP3    H174749   3.047   2.602  12.244 -0.5426 -0.7361 -1.9268
17778TIP3    H274750   3.128   2.714  12.306  0.3457 -2.8361  0.9522
17779TIP3   OH274751   0.463   3.041   2.406 -0.0884  0.3760 -0.1885
17779TIP3    H174752   0.480   2.995   2.323  0.0251  0.4238 -0.1906
17779TIP3    H274753   0.376   3.080   2.393 -1.0853 -1.4768  0.5321
17780TIP3   OH274754   5.801   5.015   1.029 -0.1382 -0.1138  0.0224
17780TIP3    H174755   5.885   4.972   1.045  0.9512  1.9041  0.0711
17780TIP3    H274756   5.815   5.105   1.057 -1.9591  0.5646 -1.1014
17781TIP3   OH274757   3.961   4.820   0.803 -0.3171 -0.2579 -0.0359
17781TIP3    H174758   4.052   4.790   0.799 -0.1330  0.3659 -0.6924
17781TIP3    H274759   3.936   4.808   0.894  0.3137 -0.7530  0.0822
17782TIP3   OH274760   3.322   6.244  15.061 -0.1131 -0.0942  0.0940
17782TIP3    H174761   3.351   6.177  15.123 -0.5564 -0.0663  0.3340
17782TIP3    H274762   3.239   6.275  15.096 -0.5208 -0.2936 -0.6723
17783TIP3   OH274763   0.579   4.549  13.259 -0.1984  0.7753  0.4305
17783TIP3    H174764   0.541   4.607  13.325 -0.9183 -0.1863  0.8867
17783TIP3    H274765   0.578   4.600  13.178 -0.5462  1.4958  0.8857
17784TIP3   OH274766   4.922   1.931  17.152  0.4283  0.4323  0.0690
17784TIP3    H174767   4.963   1.917  17.067 -1.4300 -1.6834 -0.5709
17784TIP3    H274768   4.829   1.914  17.138  0.0892 -0.2426  2.5528
17785TIP3   OH274769   6.176   3.970  17.347  0.6496 -0.3148  0.1870
17785TIP3    H174770   6.214   4.058  17.348 -0.3163  0.3721 -4.2245
17785TIP3    H274771   6.249   3.912  17.324  0.7045 -0.2481  0.1937
17786TIP3   OH274772   0.998   5.355  13.477 -0.0061 -0.0765  0.9067
17786TIP3    H174773   0.990   5.368  13.572 -0.4818  1.2868  0.7005
17786TIP3    H274774   1.081   5.309  13.467 -0.3500 -0.9892  2.0397
17787TIP3   OH274775   3.944   3.840   3.289 -0.1195  0.1376 -0.3112
17787TIP3    H174776   4.036   3.847   3.264  0.0971  0.8581  0.6247
17787TIP3    H274777   3.905   3.782   3.223  0.9347  0.0602 -0.8818
17788TIP3   OH274778   4.358   0.606   6.049  0.1620  0.1853  0.0623
17788TIP3    H174779   4.337   0.628   5.959  0.2468 -0.9488 -0.2390
17788TIP3    H274780   4.422   0.673   6.076 -1.7960  2.1376  0.1718
17789TIP3   OH274781   5.626   4.996   6.135 -0.3772  0.6751 -0.1391
17789TIP3    H174782   5.698   4.967   6.191 -0.3782  1.2667  0.1769
17789TIP3    H274783   5.596   4.916   6.091  0.7041  0.4700 -0.5499
17790TIP3   OH274784   4.009   0.578   4.284  0.2995 -0.0904 -0.0618
17790TIP3    H174785   3.975   0.620   4.363  0.1888  1.2696 -0.8163
17790TIP3    H274786   4.044   0.494   4.315 -1.4958 -0.4682  1.1223
17791TIP3   OH274787   0.647   0.518  14.225  0.1997 -0.2447  0.3376
17791TIP3    H174788   0.720   0.456  14.227  0.7563  0.3571 -0.4493
17791TIP3    H274789   0.645   0.550  14.135 -1.0155 -0.2112  0.3537
17792TIP3   OH274790   5.794   0.060   6.268  0.2270 -1.1158 -0.6923
17792TIP3    H174791   5.710   0.104   6.256  1.1618  1.1728  0.6437
17792TIP3    H274792   5.803   0.048   6.362  1.1300 -1.8840 -0.8564
17793TIP3   OH274793   1.659   0.844   5.940 -0.0448  0.0944 -0.0458
17793TIP3    H174794   1.694   0.926   5.904  0.4430 -0.0873  0.0049
17793TIP3    H274795   1.731   0.808   5.992 -0.0909 -0.5977 -0.4455
17794TIP3   OH274796   1.103   5.601  10.693 -0.7077 -0.2540 -0.1542
17794TIP3    H174797   1.065   5.685  10.721 -0.7695 -0.5158  0.5700
17794TIP3    H274798   1.120   5.612  10.600 -0.5910  0.6180 -0.0388
17795TIP3   OH274799   3.839   3.544  13.704  0.1549 -0.3161 -0.9519
17795TIP3    H174800   3.826   3.552  13.798 -0.5440  0.9911 -1.1401
17795TIP3    H274801   3.887   3.461  13.693 -1.9538 -1.8136  0.3388
17796TIP3   OH274802   1.364   6.528   2.504 -0.1847 -0.4696 -0.3669
17796TIP3    H174803   1.287   6.541   2.449  0.2658  0.8223 -0.7361
17796TIP3    H274804   1.329   6.503   2.589 -1.1314  1.5395 -0.0912
17797TIP3   OH274805   3.742   6.579   1.886 -0.2478  0.4858 -0.5555
17797TIP3    H174806   3.748   6.489   1.918  1.1200  0.5103 -0.6872
17797TIP3    H274807   3.669   6.617   1.936 -0.6977 -0.6208 -0.3405
17798TIP3   OH274808   6.374   4.243  12.012  0.2777  0.0328  0.3932
17798TIP3    H174809   6.357   4.303  12.086 -1.7162  0.9790 -0.7423
17798TIP3    H274810   6.288   4.209  11.989  0.4715  1.3845 -2.8011
17799TIP3   OH274811   4.804   6.770  12.658 -0.6755 -0.0706 -0.5730
17799TIP3    H174812   4.886   6.818  12.645 -0.8075  0.6559  1.0910
17799TIP3    H274813   4.809   6.698  12.595  1.0555  0.2010 -0.8064
17800TIP3   OH274814   4.139   4.575  12.853 -0.2697  0.1129 -0.0822
17800TIP3    H174815   4.102   4.651  12.808  2.0850  1.6862  0.4692
17800TIP3    H274816   4.232   4.578  12.834  0.2828 -1.1835  2.0217
17801TIP3   OH274817   1.607   5.531  14.794 -0.0724 -0.8099 -0.1640
17801TIP3    H174818   1.701   5.541  14.807 -0.0682  1.1195 -1.4106
17801TIP3    H274819   1.568   5.598  14.851 -0.6621 -1.0186 -0.3169
17802TIP3   OH274820   2.794   0.787  11.201 -0.2611 -0.6585  0.2124
17802TIP3    H174821   2.845   0.720  11.154  0.0173  0.3849 -1.0512
17802TIP3    H274822   2.716   0.799  11.147  0.0586  0.5722 -0.0034
17803TIP3   OH274823   5.743   2.319  12.248  0.6007  0.5381 -0.0353
17803TIP3    H174824   5.661   2.347  12.287  0.8982 -0.0480  1.0495
17803TIP3    H274825   5.807   2.385  12.275  0.8544  0.0103  0.6979
17804TIP3   OH274826   4.971   4.630  14.614 -0.1110 -0.1049  0.1210
17804TIP3    H174827   4.906   4.645  14.545  0.2127 -0.6650 -0.3108
17804TIP3    H274828   5.054   4.657  14.574 -0.1925  1.6413  1.0225
17805TIP3   OH274829   2.873   0.698  14.911  0.4492 -0.0276 -0.1553
17805TIP3    H174830   2.931   0.774  14.916  0.5334  0.0202 -1.5293
17805TIP3    H274831   2.850   0.691  14.818  1.1838 -2.2332 -0.2280
17806TIP3   OH274832   5.936   5.990  12.866 -0.6271 -0.7113 -0.9143
17806TIP3    H174833   5.990   5.949  12.933 -0.8989 -2.1125 -1.5078
17806TIP3    H274834   5.998   6.039  12.812 -0.5010  1.0209  0.7316
17807TIP3   OH274835   2.474   5.006   2.676 -0.5030 -0.0059 -0.2745
17807TIP3    H174836   2.382   4.987   2.660 -0.6185  0.7257 -0.5145
17807TIP3    H274837   2.521   4.932   2.639 -0.9891 -0.3318 -0.2400
17808TIP3   OH274838   5.632   0.838   5.070 -0.0749 -0.3515 -0.1961
17808TIP3    H174839   5.679   0.822   5.152  0.5897 -1.2286 -0.7324
17808TIP3    H274840   5.539   0.832   5.094  0.0887  0.1217  0.6224
17809TIP3   OH274841   0.449   5.939  13.381 -0.3174  0.1101 -0.3483
17809TIP3    H174842   0.399   6.018  13.362  2.3053  1.6917 -1.1188
17809TIP3    H274843   0.507   5.963  13.453  0.0958 -1.3230 -0.1598
17810TIP3   OH274844   0.470   2.904   5.014  0.2078 -0.0516 -0.2185
17810TIP3    H174845   0.416   2.893   5.092 -0.6399  0.2975 -0.7365
17810TIP3    H274846   0.432   2.844   4.949 -0.9605  1.7120 -1.2730
17811TIP3   OH274847   2.325   6.500  13.302  0.0720  0.3719  0.0238
17811TIP3    H174848   2.373   6.419  13.317  1.3380  0.7983 -1.4834
17811TIP3    H274849   2.235   6.480  13.326  0.4728 -1.2944  0.2237
17812TIP3   OH274850   5.922   3.659  15.017 -0.1123  0.0071  0.5656
17812TIP3    H174851   6.007   3.699  15.001 -0.4498  0.0502 -1.4240
17812TIP3    H274852   5.885   3.646  14.929 -1.3952 -1.6637  1.2945
17813TIP3   OH274853   4.527   0.445   1.424  0.2202  0.1327  0.1321
17813TIP3    H174854   4.457   0.384   1.401  0.5784 -0.0996 -0.3760
17813TIP3    H274855   4.520   0.515   1.359  0.2164  0.3074  0.3186
17814TIP3   OH274856   6.218   6.103   6.501  0.1081 -0.4273  0.6611
17814TIP3    H174857   6.158   6.031   6.521 -0.3309 -0.8085 -1.7196
17814TIP3    H274858   6.297   6.060   6.470 -0.3363  0.0662 -1.2680
17815TIP3   OH274859   0.493   3.700   4.549  0.3794 -0.5361  0.5973
17815TIP3    H174860   0.471   3.611   4.579 -0.1500 -0.2509  1.0681
17815TIP3    H274861   0.410   3.748   4.555  0.9413  0.3341  1.5802
17816TIP3   OH274862   0.522   6.295   4.721 -0.1509 -0.1981 -0.1372
17816TIP3    H174863   0.495   6.265   4.808  0.2426 -0.4018 -0.0822
17816TIP3    H274864   0.603   6.247   4.704  2.1853  2.9036  1.2108
17817TIP3   OH274865   5.643   0.287  12.141 -0.3314 -0.2907 -0.8576
17817TIP3    H174866   5.547   0.285  12.148 -0.3103 -1.1673 -0.7366
17817TIP3    H274867   5.663   0.378  12.117 -1.1973 -0.1204 -0.9775
17818TIP3   OH274868   1.019   3.001   5.428  0.2756 -0.1403  0.0575
17818TIP3    H174869   0.987   2.942   5.496  0.3840 -0.4375 -0.1442
17818TIP3    H274870   0.945   3.058   5.409  0.1044 -0.3406  0.1170
17819TIP3   OH274871   3.416   0.853  13.369  0.1127 -1.0065  0.4813
17819TIP3    H174872   3.492   0.903  13.341 -0.1569 -0.5488  0.5590
17819TIP3    H274873   3.441   0.762  13.355 -0.4126 -0.8175 -2.4118
17820TIP3   OH274874   1.183   0.458  12.855 -0.5415 -0.7754  0.0384
17820TIP3    H174875   1.248   0.512  12.899  0.0916 -1.3180 -0.2061
17820TIP3    H274876   1.103   0.510  12.856 -0.1770 -0.2155  0.5972
17821TIP3   OH274877   3.306   5.656   3.361  0.4742 -0.1221  0.3655
17821TIP3    H174878   3.258   5.583   3.322  0.3988 -0.0056  0.2406
17821TIP3    H274879   3.378   5.614   3.408  0.1543 -0.3095  0.6968
17822TIP3   OH274880   5.947   2.342   4.358  0.2186  0.2151  0.2074
17822TIP3    H174881   5.880   2.377   4.418 -0.6502 -0.6717 -0.2084
17822TIP3    H274882   5.952   2.406   4.287  0.2476  0.5842  0.5374
17823TIP3   OH274883   4.444   3.683  16.018  0.3231  0.2709 -0.1486
17823TIP3    H174884   4.471   3.696  16.109 -0.2871  1.1834 -0.0815
17823TIP3    H274885   4.353   3.713  16.016 -0.7560 -2.7551 -0.3541
17824TIP3   OH274886   3.765   0.501  16.156  0.1686  0.1633  0.1403
17824TIP3    H174887   3.767   0.596  16.140  0.1719 -0.1296 -1.9495
17824TIP3    H274888   3.855   0.472  16.139 -0.2287 -0.4281 -1.1301
17825TIP3   OH274889   5.096   5.567  15.685 -0.1720  0.4924 -0.0025
17825TIP3    H174890   5.094   5.482  15.730 -1.5234  1.1339  1.2014
17825TIP3    H274891   5.153   5.552  15.610  1.9644 -0.6916  1.7469
17826TIP3   OH274892   0.852   5.894   5.000 -0.0192  0.4365  0.1189
17826TIP3    H174893   0.833   5.938   5.083 -0.7687 -1.2640  0.8800
17826TIP3    H274894   0.896   5.813   5.025 -2.9083 -1.5754 -0.8778
17827TIP3   OH274895   2.577   3.316   1.928 -0.0798 -0.1732 -0.4371
17827TIP3    H174896   2.541   3.310   1.840  0.2293 -1.9132 -0.4877
17827TIP3    H274897   2.671   3.306   1.917  0.2467  2.0000 -0.0862
17828TIP3   OH274898   3.106   4.041  17.216 -0.4951  0.7305 -0.6294
17828TIP3    H174899   3.197   4.052  17.187 -0.5664 -0.9267 -1.5930
17828TIP3    H274900   3.105   4.077  17.305  1.0521  0.9814 -0.6861
17829TIP3   OH274901   3.692   2.429   6.460  0.2916 -0.3748 -0.1381
17829TIP3    H174902   3.674   2.488   6.386 -0.4072  0.4333  0.6643
17829TIP3    H274903   3.606   2.403   6.491  0.5742 -0.4320  0.6123
17830TIP3   OH274904   6.765   4.966  15.672 -0.3914  0.3173  0.5426
17830TIP3    H174905   6.725   4.927  15.595  0.1556  0.2455  0.2851
17830TIP3    H274906   6.718   4.929  15.746 -0.6836  0.1127  0.2545
17831TIP3   OH274907   6.513   2.068  12.937  0.3993  0.4776 -0.3946
17831TIP3    H174908   6.542   2.074  13.028 -0.3374 -0.0234 -0.1158
17831TIP3    H274909   6.457   1.991  12.934  0.2107  0.6311 -1.2208
17832TIP3   OH274910   2.362   0.178   2.973  0.3395 -0.5111  0.2782
17832TIP3    H174911   2.384   0.086   2.986  0.4294 -0.3314  1.4583
17832TIP3    H274912   2.428   0.211   2.912  0.3108 -1.2203 -0.1378
17833TIP3   OH274913   6.174   3.645  15.762  0.1027 -0.4642 -0.2841
17833TIP3    H174914   6.137   3.699  15.833 -2.8793 -1.1830 -1.1681
17833TIP3    H274915   6.206   3.567  15.807 -0.6411 -0.3871  0.4140
17834TIP3   OH274916   1.930   1.850  14.183  1.1022 -0.7051 -0.0702
17834TIP3    H174917   1.839   1.823  14.199  0.9064 -0.1873 -0.2779
17834TIP3    H274918   1.970   1.775  14.141  0.6712 -0.8162 -0.2909
17835TIP3   OH274919   0.112   5.000   1.801 -0.1365  0.0763  0.1157
17835TIP3    H174920   0.037   4.941   1.791 -0.4412 -0.0406  2.5344
17835TIP3    H274921   0.167   4.957   1.867  0.9386  1.2590  0.0183
17836TIP3   OH274922   6.757   6.739  11.995  0.2846  0.3149  0.8495
17836TIP3    H174923   6.744   6.711  12.085 -0.7948 -2.5518 -0.1177
17836TIP3    H274924   6.847   6.711  11.974 -0.0921 -0.6635  0.5045
17837TIP3   OH274925   5.697   2.388  15.180 -0.1211  0.0644  0.7105
17837TIP3    H174926   5.760   2.322  15.153 -1.1177 -0.7206  0.2116
17837TIP3    H274927   5.618   2.368  15.128 -0.8590  0.8494  1.4906
17838TIP3   OH274928   2.998   2.439  14.477  0.4289  0.1848 -0.1257
17838TIP3    H174929   3.007   2.370  14.543  1.1344  1.0180  0.6507
17838TIP3    H274930   3.041   2.515  14.514 -0.0250  0.9606 -1.1377
17839TIP3   OH274931   2.357   6.502  15.169 -0.2937 -0.0162  0.0814
17839TIP3    H174932   2.330   6.589  15.141  1.0634  1.3300  2.6344
17839TIP3    H274933   2.427   6.478  15.107  0.3837  1.4116  0.2537
17840TIP3   OH274934   1.240   1.532  16.309 -0.4679  0.3662  0.3369
17840TIP3    H174935   1.242   1.605  16.370 -0.5858  1.1940 -0.6251
17840TIP3    H274936   1.258   1.455  16.363 -0.1732  1.1184  1.3351
17841TIP3   OH274937   4.332   0.302  13.764 -0.5786  0.5651 -0.4560
17841TIP3    H174938   4.245   0.278  13.731 -0.9327  0.0236  0.7895
17841TIP3    H274939   4.375   0.345  13.691 -0.8067 -1.7740 -2.0638
17842TIP3   OH274940   1.997   4.040  17.365  0.2793 -0.4150  0.2322
17842TIP3    H174941   2.028   4.025  17.275  0.7229  1.9469 -0.0639
17842TIP3    H274942   1.930   4.108  17.356  0.6056  0.1305  1.7251
17843TIP3   OH274943   2.821   1.547  16.705  0.0277 -0.2742 -0.2361
17843TIP3    H174944   2.899   1.601  16.718  0.3024 -0.7513  0.1502
17843TIP3    H274945   2.747   1.608  16.713  0.3903  0.4949 -2.2690
17844TIP3   OH274946   0.381   3.629   0.880  0.3049  0.4020  0.0659
17844TIP3    H174947   0.375   3.610   0.787  0.1880  0.9943 -0.0485
17844TIP3    H274948   0.291   3.653   0.906  0.1521 -0.5713  0.5160
17845TIP3   OH274949   3.197   4.083   2.293  0.1930  0.6281  0.6291
17845TIP3    H174950   3.234   4.170   2.286 -0.5276  0.8080 -2.6343
17845TIP3    H274951   3.243   4.031   2.227 -0.3010 -1.1274  1.5792
17846TIP3   OH274952   5.598   4.777   3.293  0.0036 -0.3882 -0.5562
17846TIP3    H174953   5.649   4.704   3.327  0.1584 -0.0257 -0.0081
17846TIP3    H274954   5.660   4.828   3.241  1.0170  1.6956  2.4761
17847TIP3   OH274955   1.191   0.085   1.800  0.1145 -0.1771 -0.3853
17847TIP3    H174956   1.213   0.162   1.747  0.3353 -0.5678 -0.8638
17847TIP3    H274957   1.182   0.014   1.737  1.0602 -0.8008  0.1687
17848TIP3   OH274958   1.515   2.417  17.374  0.2670 -0.1332 -0.5814
17848TIP3    H174959   1.571   2.363  17.318 -0.6724 -2.1370  0.3096
17848TIP3    H274960   1.436   2.364  17.387  0.3879  0.2418  2.5346
17849TIP3   OH274961   1.458   0.608   1.372 -0.2184 -0.0239 -0.1479
17849TIP3    H174962   1.437   0.656   1.451  0.5767  0.3019 -0.1182
17849TIP3    H274963   1.517   0.538   1.401  1.6820  1.2815 -0.6821
17850TIP3   OH274964   4.843   3.810   4.151  0.2619  0.6557 -0.4620
17850TIP3    H174965   4.914   3.870   4.130  1.0354 -0.5171 -1.3099
17850TIP3    H274966   4.877   3.723   4.128 -0.8965 -0.0967  0.5241
17851TIP3   OH274967   6.752   5.854  15.151 -0.0930 -0.2284 -0.7161
17851TIP3    H174968   6.807   5.841  15.073 -0.0132 -0.4092 -0.6309
17851TIP3    H274969   6.807   5.825  15.224 -0.5935 -1.1960 -0.7102
17852TIP3   OH274970   6.664   4.596  15.739 -0.1285 -0.5922 -0.5005
17852TIP3    H174971   6.735   4.604  15.803  0.6645 -0.0390 -1.4313
17852TIP3    H274972   6.688   4.521  15.685 -1.5171 -1.9796  0.6821
17853TIP3   OH274973   4.294   3.643   1.513 -0.1101 -0.2479  0.6075
17853TIP3    H174974   4.332   3.556   1.501 -1.7385 -1.0256  0.8496
17853TIP3    H274975   4.353   3.686   1.575  0.5024 -1.3217  0.8070
17854TIP3   OH274976   0.225   1.460   0.897  0.5148 -0.2939 -0.3649
17854TIP3    H174977   0.153   1.522   0.895  1.5228  1.0397  1.6420
17854TIP3    H274978   0.275   1.479   0.818  0.7128  1.3629  0.1282
17855TIP3   OH274979   4.598   3.462   2.112 -0.3843  0.4386 -0.4232
17855TIP3    H174980   4.540   3.492   2.182  0.2847  3.2792 -0.9841
17855TIP3    H274981   4.541   3.443   2.038 -0.8891 -0.5656  0.1917
17856TIP3   OH274982   1.327   4.513  12.565  0.4474  0.1751 -0.2722
17856TIP3    H174983   1.252   4.522  12.506  1.3441 -0.4694 -1.5664
17856TIP3    H274984   1.308   4.433  12.615 -0.0726  0.4323 -0.0508
17857TIP3   OH274985   4.258   0.238   0.292 -0.3097 -0.5187  0.6193
17857TIP3    H174986   4.279   0.317   0.343  0.1685 -0.5337  0.4524
17857TIP3    H274987   4.204   0.185   0.351  1.6877 -1.3561  1.8236
17858TIP3   OH274988   1.140   2.789   1.651 -0.3956 -0.1657  0.2953
17858TIP3    H174989   1.187   2.722   1.601 -0.7575 -0.8254  0.8114
17858TIP3    H274990   1.070   2.818   1.592 -0.7825 -0.8933  0.3818
17859TIP3   OH274991   2.390   3.084   2.532  0.1181  0.0926  0.0253
17859TIP3    H174992   2.420   3.001   2.494 -2.5257 -1.3588  0.8218
17859TIP3    H274993   2.310   3.105   2.484  0.1880  1.6616  0.5393
17860TIP3   OH274994   1.560   5.303   3.055  0.3694  0.2531 -0.0057
17860TIP3    H174995   1.584   5.229   2.999  0.0028  0.4450 -0.4314
17860TIP3    H274996   1.559   5.267   3.144  0.3941 -0.2030 -0.1847
17861TIP3   OH274997   0.148   4.688  12.944 -0.7383 -1.4076 -0.3673
17861TIP3    H174998   0.062   4.715  12.912 -1.1485 -1.7886  0.3813
17861TIP3    H274999   0.137   4.680  13.039 -0.5491 -3.7597 -0.4896
17862TIP3   OH275000   4.540   5.194   4.459  0.2527  0.2858  0.0406
17862TIP3    H175001   4.447   5.207   4.442  0.1624  1.0472  1.0141
17862TIP3    H275002   4.545   5.169   4.552  0.9780 -0.3369 -0.1462
17863TIP3   OH275003   6.357   6.156  10.721 -0.0871  0.2421  0.3617
17863TIP3    H175004   6.274   6.146  10.768 -1.2310 -0.7614 -1.7711
17863TIP3    H275005   6.337   6.218  10.651  1.2193  0.6377  0.3170
17864TIP3   OH275006   6.333   3.754  11.351  0.2239 -0.0104  0.2295
17864TIP3    H175007   6.381   3.805  11.416 -0.3202  1.1041 -0.2259
17864TIP3    H275008   6.284   3.691  11.403 -1.9917  2.3151  1.1717
17865TIP3   OH275009   0.750   3.986  16.755  0.1745 -0.4420  0.3705
17865TIP3    H175010   0.690   4.060  16.743 -0.2043 -1.0523 -1.8315
17865TIP3    H275011   0.809   4.015  16.825 -0.9503  1.2773  0.6832
17866TIP3   OH275012   3.121   6.289   1.672 -0.1291  0.5142  0.5918
17866TIP3    H175013   3.211   6.322   1.677 -0.2229  0.9657 -0.4793
17866TIP3    H275014   3.067   6.367   1.659 -0.5983  0.1707  0.4603
17867TIP3   OH275015   4.128   0.606  12.570 -0.2428  0.2848 -0.3893
17867TIP3    H175016   4.194   0.662  12.529 -0.0831  1.9448  1.9238
17867TIP3    H275017   4.056   0.666  12.591  0.6078  0.1900  3.6738
17868TIP3   OH275018   6.760   2.653   2.467 -0.1334 -0.0395  0.6752
17868TIP3    H175019   6.727   2.717   2.404 -0.9211 -0.8282  0.2566
17868TIP3    H275020   6.839   2.617   2.427  0.7068  1.1309  1.2212
17869TIP3   OH275021   3.675   1.876   0.248 -0.0604 -0.2656 -0.1707
17869TIP3    H175022   3.676   1.967   0.221  0.2252  0.1130  1.0376
17869TIP3    H275023   3.757   1.840   0.213  0.8635  0.5127  1.0888
17870TIP3   OH275024   1.602   0.382   1.389 -0.2195 -0.4791 -0.5154
17870TIP3    H175025   1.615   0.311   1.452  0.7604  0.8786  0.9009
17870TIP3    H275026   1.691   0.406   1.363 -0.4271  1.1929  0.2015
17871TIP3   OH275027   2.111   4.068   1.253 -0.3482 -0.2714  0.8373
17871TIP3    H175028   2.034   4.071   1.311 -0.0542  0.7567  1.2019
17871TIP3    H275029   2.178   4.118   1.300 -0.4055  1.4921 -0.8002
17872TIP3   OH275030   6.040   3.049  15.805  0.2481 -0.2293 -0.7326
17872TIP3    H175031   5.953   3.081  15.831  0.5543  0.0325 -0.0115
17872TIP3    H275032   6.041   3.059  15.710 -0.2531  0.4222 -0.6786
17873TIP3   OH275033   3.083   6.433   3.943  0.3191  0.2104 -0.1395
17873TIP3    H175034   3.056   6.345   3.916 -0.5801  0.0219  1.2730
17873TIP3    H275035   3.003   6.475   3.973  1.2166  0.2809  2.4159
17874TIP3   OH275036   6.761   5.847   4.704  0.7203  0.0821 -0.3282
17874TIP3    H175037   6.718   5.921   4.747 -0.1201  0.6930 -2.1389
17874TIP3    H275038   6.692   5.780   4.697  0.7322  0.1471 -1.0855
17875TIP3   OH275039   3.319   2.392  12.351  0.4533  0.1061  0.7604
17875TIP3    H175040   3.359   2.325  12.296  0.0503  1.2106 -0.9642
17875TIP3    H275041   3.384   2.463  12.352 -1.3375  1.9713 -2.1650
17876TIP3   OH275042   5.629   0.674  14.936  0.1946 -0.7586  0.2615
17876TIP3    H175043   5.681   0.594  14.936  0.8201 -0.3895 -1.1749
17876TIP3    H275044   5.548   0.651  14.889  0.8291 -0.3259 -1.1241
17877TIP3   OH275045   5.452   2.912   1.144  0.2958  0.1304 -0.2675
17877TIP3    H175046   5.520   2.901   1.078  1.8894  2.1322  0.8866
17877TIP3    H275047   5.450   2.829   1.192  0.7128 -0.5409 -1.3889
17878TIP3   OH275048   2.550   0.287  16.941  0.6288  0.2318  0.5122
17878TIP3    H175049   2.494   0.271  17.017 -2.1828  0.8021 -1.2664
17878TIP3    H275050   2.501   0.350  16.888  1.2627 -1.8654 -2.8979
17879TIP3   OH275051   2.895   1.100   1.271  0.8264  0.1012  0.0414
17879TIP3    H175052   2.805   1.084   1.297  0.2919  1.4698 -0.8513
17879TIP3    H275053   2.928   1.162   1.336  0.8252  0.3120 -0.1570
17880TIP3   OH275054   3.888   0.827   3.918 -0.1582  0.5574  0.3340
17880TIP3    H175055   3.920   0.849   4.005 -1.0259  2.6316  0.1689
17880TIP3    H275056   3.934   0.886   3.859 -2.1216  1.6643 -0.1938
17881TIP3   OH275057   6.266   4.910  12.538 -0.1747  0.1025  0.5452
17881TIP3    H175058   6.277   4.878  12.627  0.0281 -0.7068  0.2416
17881TIP3    H275059   6.224   4.837  12.492 -1.0762  0.8276  0.1826
17882TIP3   OH275060   0.833   0.628  17.344  0.0977  0.3917 -0.5493
17882TIP3    H175061   0.843   0.707  17.398  1.3783  0.1732 -0.4516
17882TIP3    H275062   0.748   0.639  17.302 -0.9109  0.6416  1.4134
17883TIP3   OH275063   4.480   4.166  14.439 -0.0682  0.6901  0.7766
17883TIP3    H175064   4.400   4.137  14.395 -0.5269  2.1362  0.6169
17883TIP3    H275065   4.464   4.149  14.532 -0.9686  1.8194  0.8545
17884TIP3   OH275066   6.043   4.064  15.392 -0.2822 -0.2164 -0.2980
17884TIP3    H175067   6.013   4.003  15.460 -1.9950 -0.4182 -1.1621
17884TIP3    H275068   6.109   4.118  15.435  1.1214 -2.4802  0.5876
17885TIP3   OH275069   0.697   5.432   3.929  0.6610  0.7862 -0.0197
17885TIP3    H175070   0.644   5.438   3.849  1.5476  1.3210 -0.5895
17885TIP3    H275071   0.721   5.339   3.935  0.5093  0.7263 -0.3196
17886TIP3   OH275072   6.446   5.454   3.816 -0.5792  0.0659 -0.6191
17886TIP3    H175073   6.518   5.441   3.755 -0.7449 -1.3208 -0.5555
17886TIP3    H275074   6.368   5.454   3.761 -0.5786  1.2553 -0.6522
17887TIP3   OH275075   4.993   5.324  14.018  0.7137  0.5560  0.6044
17887TIP3    H175076   4.968   5.320  14.111  1.2216  1.8362  0.8220
17887TIP3    H275077   5.088   5.332  14.019  0.8429 -0.6728 -0.0946
17888TIP3   OH275078   1.068   2.389   5.005  0.0477 -0.7632  0.0550
17888TIP3    H175079   1.126   2.342   4.946  1.2019 -0.3693  0.8475
17888TIP3    H275080   1.107   2.377   5.092  1.4369  3.0699  0.1377
17889TIP3   OH275081   1.499   3.558  13.136  0.3954 -0.3802  0.7754
17889TIP3    H175082   1.421   3.550  13.191 -0.5126 -0.0460 -0.4170
17889TIP3    H275083   1.571   3.573  13.198 -0.1702 -2.4792  2.0385
17890TIP3   OH275084   1.482   0.592   6.761 -0.1508  0.2730  0.3494
17890TIP3    H175085   1.444   0.679   6.758  0.5497  0.5610 -0.7563
17890TIP3    H275086   1.563   0.599   6.711 -0.2311 -1.0931 -0.0192
17891TIP3   OH275087   5.083   2.340   4.068  0.4396  0.3559  0.8020
17891TIP3    H175088   5.008   2.352   4.126  0.4448  1.7022  0.5687
17891TIP3    H275089   5.045   2.329   3.981  0.4877  1.1001  0.6741
17892TIP3   OH275090   5.902   2.608  15.656 -0.0052 -0.6056  0.0354
17892TIP3    H175091   5.887   2.561  15.574 -1.3936  2.6986 -1.8124
17892TIP3    H275092   5.984   2.656  15.641  1.5496 -2.4674  1.9904
17893TIP3   OH275093   0.380   6.727   5.310  0.3992 -0.4816  0.0146
17893TIP3    H175094   0.410   6.718   5.400  0.7455 -3.0743 -0.2750
17893TIP3    H275095   0.411   6.648   5.266 -1.2902 -0.1580 -1.9468
17894TIP3   OH275096   4.552   6.649  13.441 -0.3753  0.2522 -0.7305
17894TIP3    H175097   4.518   6.738  13.451  1.6321  0.9672  0.1042
17894TIP3    H275098   4.564   6.617  13.530  2.2876  0.5297 -0.9297
17895TIP3   OH275099   5.611   1.845   2.218  0.0412 -0.2516  0.7377
17895TIP3    H175100   5.647   1.794   2.291  1.3893 -0.0335  0.2625
17895TIP3    H275101   5.614   1.787   2.143  0.5010  0.1433  0.4422
17896TIP3   OH275102   0.083   5.300  16.962 -0.1764  0.6613 -0.8951
17896TIP3    H175103   0.016   5.233  16.978 -0.2577  0.7892 -0.6944
17896TIP3    H275104   0.130   5.268  16.885 -0.0362  0.2297 -0.6339
17897TIP3   OH275105   3.976   4.250   5.431 -0.0820  0.0623  0.2938
17897TIP3    H175106   3.898   4.297   5.462  1.3608  3.0423 -0.1779
17897TIP3    H275107   3.990   4.283   5.342  3.3147  2.0505  1.3677
17898TIP3   OH275108   1.869   2.369   2.852  0.8335  0.0750  1.2601
17898TIP3    H175109   1.871   2.274   2.866  0.6581 -0.6348 -2.3875
17898TIP3    H275110   1.787   2.397   2.892  0.3630 -1.5190  1.4889
17899TIP3   OH275111   3.368   1.721  16.643  0.1894  0.1857 -0.9524
17899TIP3    H175112   3.341   1.784  16.710  0.4696 -0.5354 -0.1415
17899TIP3    H275113   3.313   1.644  16.659  1.3745 -0.5917 -0.4985
17900TIP3   OH275114   3.085   5.651  11.618 -0.2919  0.7975  0.1110
17900TIP3    H175115   3.082   5.568  11.665  1.3554  1.3754  1.3515
17900TIP3    H275116   3.042   5.633  11.535 -1.7575 -0.7442  1.1303
17901TIP3   OH275117   4.018   3.031   2.696 -0.5121  0.0407  0.6997
17901TIP3    H175118   4.019   2.974   2.620 -0.3426 -1.0652  1.5136
17901TIP3    H275119   3.941   3.087   2.683  0.1764  0.7007 -0.8482
17902TIP3   OH275120   3.258   2.724  15.733  0.0485  0.0523 -0.2706
17902TIP3    H175121   3.338   2.765  15.768  0.8697 -1.7226  0.0685
17902TIP3    H275122   3.276   2.712  15.640  1.6291 -3.2265  0.3037
17903TIP3   OH275123   5.722   1.518   3.817  0.3277 -0.7646 -0.2395
17903TIP3    H175124   5.760   1.457   3.755  0.7691  1.0527 -1.8495
17903TIP3    H275125   5.753   1.604   3.789 -0.6370  0.2716  1.6479
17904TIP3   OH275126   2.435   5.380  12.028 -0.9947 -0.1534 -0.5831
17904TIP3    H175127   2.441   5.328  12.108 -1.5097 -1.5921 -1.4412
17904TIP3    H275128   2.342   5.377  12.005 -0.9638  0.8255 -0.8868
17905TIP3   OH275129   5.515   5.465   1.143 -0.4560  0.2151  0.9750
17905TIP3    H175130   5.589   5.461   1.082 -0.6254 -0.3188  0.7966
17905TIP3    H275131   5.546   5.518   1.216  0.8221 -1.6990  1.8864
17906TIP3   OH275132   2.487   2.368   4.243  0.0563 -0.5552 -0.2078
17906TIP3    H175133   2.429   2.388   4.169 -1.6492 -0.0982  1.1875
17906TIP3    H275134   2.516   2.454   4.274  0.5568 -0.7353 -0.1649
17907TIP3   OH275135   3.658   0.887  12.144 -0.3325 -0.2141  0.0960
17907TIP3    H175136   3.679   0.905  12.236 -2.8337  1.8743  0.3714
17907TIP3    H275137   3.697   0.960  12.096  1.7109 -1.7291 -0.7352
17908TIP3   OH275138   6.491   0.583  14.933 -0.4108  0.2203 -0.2145
17908TIP3    H175139   6.418   0.643  14.916 -1.2458 -0.6065  0.3653
17908TIP3    H275140   6.553   0.635  14.985 -0.3304  1.0876 -1.1463
17909TIP3   OH275141   5.920   0.261   4.970  1.0302  0.0824 -0.2673
17909TIP3    H175142   5.937   0.180   5.018  0.2106  0.6654  1.0425
17909TIP3    H275143   5.848   0.302   5.017  1.5043  1.6319 -0.8489
17910TIP3   OH275144   1.728   4.271  14.811  0.2444 -0.2054  0.4297
17910TIP3    H175145   1.698   4.216  14.739 -0.6356 -0.2286  0.8013
17910TIP3    H275146   1.701   4.359  14.787  0.2862 -0.1576  0.5537
17911TIP3   OH275147   2.828   1.492   4.573  0.2968  0.3851 -0.1874
17911TIP3    H175148   2.778   1.443   4.639 -1.8419  1.5839 -0.7973
17911TIP3    H275149   2.887   1.427   4.535 -1.2902 -1.3458  0.1198
17912TIP3   OH275150   4.145   4.550  17.310 -0.4890 -0.1077 -0.3231
17912TIP3    H175151   4.130   4.635  17.352 -1.3128 -0.5346  0.2680
17912TIP3    H275152   4.063   4.502  17.321 -0.2055 -0.8040 -1.0952
17913TIP3   OH275153   3.672   5.789   2.650  0.0740  0.1347  0.2035
17913TIP3    H175154   3.618   5.793   2.729  0.3932  2.5935  0.3559
17913TIP3    H275155   3.639   5.860   2.595  1.4259 -0.0252 -0.8444
17914TIP3   OH275156   4.222   1.542   2.985  0.3582 -0.2277  0.3118
17914TIP3    H175157   4.236   1.560   3.078  0.7519 -0.0567  0.2238
17914TIP3    H275158   4.266   1.615   2.940 -1.2371  0.5977  0.0130
17915TIP3   OH275159   6.340   6.317  13.668  0.1007 -0.1464  0.5455
17915TIP3    H175160   6.310   6.368  13.592  2.1249  0.5532  0.1673
17915TIP3    H275161   6.259   6.284  13.707 -1.1095  1.0044 -0.8434
17916TIP3   OH275162   3.695   4.112  13.160  0.2340 -0.2052 -0.3807
17916TIP3    H175163   3.707   4.063  13.242  2.5816 -0.3743 -0.7594
17916TIP3    H275164   3.634   4.182  13.182  1.7315  0.5023  1.8925
17917TIP3   OH275165   4.366   0.617   1.852 -0.2089  0.6589  0.5703
17917TIP3    H175166   4.383   0.701   1.809  0.5122  1.2782  2.0161
17917TIP3    H275167   4.340   0.558   1.780 -1.1052  2.1998 -0.4132
17918TIP3   OH275168   6.434   5.225   3.508  0.2060  0.0214 -0.2272
17918TIP3    H175169   6.516   5.257   3.471 -0.3846  0.4119 -1.2408
17918TIP3    H275170   6.409   5.152   3.451  1.3894 -2.1682  1.8690
17919TIP3   OH275171   1.724   2.530  12.435  0.0075 -0.2045  0.1128
17919TIP3    H175172   1.702   2.557  12.346  1.4205 -0.5396 -0.3680
17919TIP3    H275173   1.640   2.518  12.478 -0.7016  2.0303 -0.5235
17920TIP3   OH275174   5.255   2.962  14.773  0.1221  0.2712 -0.0019
17920TIP3    H175175   5.330   2.928  14.821 -0.4382 -0.1261  0.6035
17920TIP3    H275176   5.253   2.910  14.692 -0.6023 -1.0116  0.8179
17921TIP3   OH275177   6.216   2.522  14.216 -0.1556 -0.2852 -0.9894
17921TIP3    H175178   6.262   2.446  14.183 -1.3512 -1.6586  0.3405
17921TIP3    H275179   6.141   2.486  14.264 -0.2705  1.6735  0.4400
17922TIP3   OH275180   0.451   6.679   3.477  0.5233  0.3831 -0.1610
17922TIP3    H175181   0.415   6.740   3.413  0.7205  1.6093  0.8489
17922TIP3    H275182   0.491   6.735   3.544  0.7007 -0.8556  0.8154
17923TIP3   OH275183   4.377   0.344   6.163 -0.0019 -0.1215  0.5893
17923TIP3    H175184   4.387   0.435   6.134  3.5279 -0.4509  0.3220
17923TIP3    H275185   4.352   0.296   6.084 -0.5654  0.3927  0.4456
17924TIP3   OH275186   0.744   3.320  16.192 -0.1795  0.2001 -0.6626
17924TIP3    H175187   0.669   3.340  16.136 -1.6145  0.0378  1.1280
17924TIP3    H275188   0.706   3.302  16.278  2.0059  1.4951  0.6718
17925TIP3   OH275189   0.238   6.035  12.008 -0.1593  0.0662  0.0599
17925TIP3    H175190   0.272   6.038  11.918  1.5122 -0.2731  0.6571
17925TIP3    H275191   0.291   6.098  12.056 -0.5918 -0.2398  0.9621
17926TIP3   OH275192   0.747   4.313   4.524  0.3833 -0.2721  0.0436
17926TIP3    H175193   0.785   4.300   4.611  1.0808 -1.0815 -0.3724
17926TIP3    H275194   0.749   4.227   4.484 -1.4414 -0.2414 -0.1943
17927TIP3   OH275195   5.479   5.128   4.730 -0.4019 -0.4754 -0.2135
17927TIP3    H175196   5.518   5.073   4.797 -0.7624 -1.0854 -0.4949
17927TIP3    H275197   5.553   5.174   4.690  0.0463 -1.5873 -0.7188
17928TIP3   OH275198   5.895   6.356   5.025  0.6204  0.0305 -0.2533
17928TIP3    H175199   5.956   6.426   4.998  0.7979 -0.5895 -1.5294
17928TIP3    H275200   5.893   6.296   4.951 -1.8312  0.1974 -0.3850
17929TIP3   OH275201   4.949   6.491  11.922  0.1655  0.0544 -0.4558
17929TIP3    H175202   5.033   6.453  11.898 -0.4821 -1.5495 -0.2896
17929TIP3    H275203   4.970   6.558  11.986  1.2598 -0.8631  0.1736
17930TIP3   OH275204   5.708   2.855   3.721 -0.3059 -0.6059 -0.1784
17930TIP3    H175205   5.621   2.852   3.682 -0.2536  3.2545 -0.9555
17930TIP3    H275206   5.693   2.839   3.814 -1.3063 -3.1585 -0.6847
17931TIP3   OH275207   5.386   1.751  10.760  0.3643  0.4717 -0.0306
17931TIP3    H175208   5.365   1.703  10.840  1.4251  0.8247  0.4832
17931TIP3    H275209   5.480   1.736  10.747  0.6571  2.1207 -0.0476
17932TIP3   OH275210   6.229   1.135  14.808 -0.0321  0.3073  0.4104
17932TIP3    H175211   6.186   1.159  14.890  0.0146  0.7395  0.3090
17932TIP3    H275212   6.158   1.122  14.746 -0.1339 -1.0109  0.7642
17933TIP3   OH275213   3.322   5.326  16.586  0.6957  0.1794  0.4232
17933TIP3    H175214   3.390   5.332  16.653  2.4649  0.9999 -1.3443
17933TIP3    H275215   3.245   5.296  16.634  1.6050  1.5434  2.9788
17934TIP3   OH275216   3.433   1.301  10.689 -0.1008 -0.2803 -0.1392
17934TIP3    H175217   3.516   1.254  10.690 -0.2929 -0.6308  0.6638
17934TIP3    H275218   3.454   1.387  10.653  0.0911 -1.2475 -2.5151
17935TIP3   OH275219   5.335   4.853  17.297 -0.3066 -0.1308  0.3754
17935TIP3    H175220   5.303   4.941  17.313  0.0380  0.0893 -0.1072
17935TIP3    H275221   5.430   4.860  17.308 -0.0477  0.0100 -1.4918
17936TIP3   OH275222   3.663   1.540  11.900  0.3805 -0.4223  0.0525
17936TIP3    H175223   3.594   1.602  11.875 -0.4710 -2.1149 -2.1609
17936TIP3    H275224   3.735   1.560  11.840  0.3419 -1.1064 -0.2345
17937TIP3   OH275225   0.820   5.940   0.365 -0.7384  0.0102  1.1080
17937TIP3    H175226   0.773   5.979   0.438  0.5095  1.1858  1.3215
17937TIP3    H275227   0.889   6.003   0.344 -0.2066 -0.9501 -0.1766
17938TIP3   OH275228   2.283   5.052   5.469 -0.3029  0.2737 -0.3019
17938TIP3    H175229   2.261   5.010   5.386  1.1711  0.8018 -1.0008
17938TIP3    H275230   2.201   5.053   5.518 -1.0285 -0.7455 -1.4324
17939TIP3   OH275231   5.121   1.086   5.679  1.1814  0.2964  0.2555
17939TIP3    H175232   5.135   1.148   5.607  0.6828 -1.1635 -1.1446
17939TIP3    H275233   5.085   1.140   5.749  0.7944  1.6058 -0.8891
17940TIP3   OH275234   1.968   3.063  17.166  0.0254  0.0815 -0.5437
17940TIP3    H175235   2.025   3.034  17.094  1.4847  0.1663  0.5300
17940TIP3    H275236   1.964   2.988  17.225 -0.0168  0.4854 -0.0311
17941TIP3   OH275237   5.336   1.285   1.222  0.8544  0.1771 -0.3423
17941TIP3    H175238   5.312   1.195   1.200  0.9631  0.0254  0.1395
17941TIP3    H275239   5.360   1.281   1.315  1.1535  0.6430 -0.3961
17942TIP3   OH275240   3.281   3.884  13.487  0.2507 -0.3462 -0.8110
17942TIP3    H175241   3.233   3.889  13.570  0.6444  0.0485 -0.6057
17942TIP3    H275242   3.314   3.972  13.473  2.1392 -0.9171 -0.2313
17943TIP3   OH275243   2.701   3.354   3.423 -0.0961 -0.4177  0.5436
17943TIP3    H175244   2.616   3.381   3.390 -0.7223 -1.1519  1.5118
17943TIP3    H275245   2.764   3.410   3.376 -1.1388  0.5758  0.2904
17944TIP3   OH275246   5.300   3.982  11.990 -0.0372  0.1796  0.6781
17944TIP3    H175247   5.382   4.027  11.968  0.2575 -0.7723 -0.2594
17944TIP3    H275248   5.272   3.943  11.907 -0.9853 -0.2275  1.1855
17945TIP3   OH275249   5.385   0.185  12.424 -0.1632  0.3524  0.6597
17945TIP3    H175250   5.460   0.127  12.410 -2.2344 -1.8705 -2.7847
17945TIP3    H275251   5.378   0.235  12.343 -0.2162  3.4418  2.4309
17946TIP3   OH275252   3.629   1.368   0.008  0.1982 -0.5565 -0.2931
17946TIP3    H175253   3.693   1.423   0.053  0.5232 -0.3023 -1.0612
17946TIP3    H275254   3.578   1.328   0.079  0.4961  0.0846  0.2918
17947TIP3   OH275255   2.737   0.878  13.226 -0.1564  0.5645 -0.3586
17947TIP3    H175256   2.712   0.874  13.318  1.3291 -0.2879  0.0463
17947TIP3    H275257   2.704   0.963  13.196  0.7724  1.6077  1.4027
17948TIP3   OH275258   1.443   3.604  14.181 -0.3352 -0.4623 -0.0442
17948TIP3    H175259   1.501   3.601  14.105 -1.6251  0.3847 -1.1228
17948TIP3    H275260   1.492   3.561  14.251  1.8846  0.8960 -0.6645
17949TIP3   OH275261   1.452   0.814   2.840 -0.1405  0.3671  0.6307
17949TIP3    H175262   1.375   0.776   2.799  0.8784 -1.4557  0.2809
17949TIP3    H275263   1.518   0.815   2.771  1.0144 -0.9312  1.6443
17950TIP3   OH275264   1.342   5.615   1.718  0.1106  0.1826  0.5573
17950TIP3    H175265   1.338   5.562   1.798 -0.6797  0.7985  0.9426
17950TIP3    H275266   1.382   5.557   1.653  0.4490 -0.4457  1.3051
17951TIP3   OH275267   4.653   1.806   5.914  0.4675  0.0267 -0.0854
17951TIP3    H175268   4.563   1.836   5.905  0.6383  0.3179 -0.8611
17951TIP3    H275269   4.696   1.875   5.966  0.4942  0.4145 -0.6101
17952TIP3   OH275270   6.576   6.077  16.154 -0.5211 -0.5298  0.4220
17952TIP3    H175271   6.543   6.136  16.222  0.6088 -0.2833  0.7753
17952TIP3    H275272   6.505   6.014  16.140 -1.8949  1.0653 -0.1895
17953TIP3   OH275273   5.258   5.736   1.647  1.1030  0.3231  0.1317
17953TIP3    H175274   5.296   5.817   1.611  0.6127 -0.0733 -1.3523
17953TIP3    H275275   5.310   5.666   1.608  0.4341 -0.1288  0.0318
17954TIP3   OH275276   5.367   6.514  13.289  0.4914  0.7771  0.4452
17954TIP3    H175277   5.300   6.467  13.339  1.3259  0.3238  1.1528
17954TIP3    H275278   5.353   6.486  13.198  0.0415  0.3040  0.6523
17955TIP3   OH275279   2.240   2.891   2.716  0.0712  1.1498 -0.4218
17955TIP3    H175280   2.171   2.952   2.693  0.1391  0.8669 -1.4123
17955TIP3    H275281   2.321   2.937   2.695  0.1999  1.4744  0.7175
17956TIP3   OH275282   0.076   2.440  16.866  0.0867 -0.1144 -0.5218
17956TIP3    H175283   0.063   2.393  16.949 -0.7118 -0.3308 -0.7617
17956TIP3    H275284   0.098   2.372  16.803  0.3025  0.0039 -0.5751
17957TIP3   OH275285   3.161   1.079  12.024  0.2303 -0.4320 -0.0124
17957TIP3    H175286   3.246   1.040  12.044  0.3057  0.2899  1.2255
17957TIP3    H275287   3.171   1.171  12.049 -1.7232 -0.8636  2.8724
17958TIP3   OH275288   4.791   1.134   5.676 -0.8261  1.0761  0.4642
17958TIP3    H175289   4.796   1.039   5.671 -0.0910  1.1586 -0.9265
17958TIP3    H275290   4.852   1.159   5.745 -0.2435  0.5973  0.1221
17959TIP3   OH275291   5.043   1.320  14.884  0.2406 -0.1957 -0.0333
17959TIP3    H175292   4.973   1.287  14.939  0.2681 -0.7972 -0.3470
17959TIP3    H275293   5.007   1.318  14.795  0.6704 -0.5799 -0.2056
17960TIP3   OH275294   5.691   1.775   3.436 -0.0976 -0.7277 -0.6680
17960TIP3    H175295   5.703   1.747   3.527 -1.4334 -0.0557 -0.2615
17960TIP3    H275296   5.706   1.695   3.385  0.6508 -1.1248  0.1224
17961TIP3   OH275297   3.930   0.807  12.111 -0.2660  0.0710 -0.0154
17961TIP3    H175298   3.878   0.864  12.168 -0.7737 -0.0558 -0.3419
17961TIP3    H275299   3.865   0.766  12.053  0.1253 -0.6027  0.0119
17962TIP3   OH275300   0.004   0.383  16.684 -0.0386  0.1358  0.0042
17962TIP3    H175301   0.095   0.387  16.654  0.5085  0.2582  1.6075
17962TIP3    H275302  -0.036   0.464  16.650  0.4360  0.0590 -0.7415
17963TIP3   OH275303   5.694   5.825  12.145  0.2927  0.0429 -0.6691
17963TIP3    H175304   5.777   5.782  12.126  0.7666  0.3611  0.5807
17963TIP3    H275305   5.637   5.754  12.177  0.4477  0.0286 -0.4306
17964TIP3   OH275306   6.345   4.869  15.468  0.2118  0.7708 -0.5728
17964TIP3    H175307   6.343   4.959  15.500  0.8604  1.0917 -1.3826
17964TIP3    H275308   6.436   4.841  15.482 -0.1562 -0.0187  0.3405
17965TIP3   OH275309   1.599   2.111   4.041 -0.4088 -0.2642 -0.4838
17965TIP3    H175310   1.561   2.102   3.953  0.3012 -0.9697 -0.7313
17965TIP3    H275311   1.638   2.198   4.042  0.3890 -0.6017 -1.2031
17966TIP3   OH275312   2.571   4.038   5.707  0.4078  0.0844 -0.0547
17966TIP3    H175313   2.601   4.129   5.715  3.1494 -0.8538  1.6756
17966TIP3    H275314   2.559   4.009   5.797  3.4211 -2.3337 -0.2782
17967TIP3   OH275315   1.654   5.695   5.008  0.7257 -0.3385  0.0862
17967TIP3    H175316   1.570   5.663   5.041  0.9596 -0.1227  0.9232
17967TIP3    H275317   1.637   5.785   4.982  0.9204  0.0443  1.2233
17968TIP3   OH275318   5.836   5.647  11.133 -0.0324  0.0591  0.1995
17968TIP3    H175319   5.748   5.660  11.099 -0.0344  2.4876  0.9591
17968TIP3    H275320   5.880   5.595  11.066 -2.5371 -3.0834  0.7013
17969TIP3   OH275321   1.463   1.032   6.681 -0.2440  0.1217 -0.7108
17969TIP3    H175322   1.401   1.103   6.666  0.3544  0.7782 -0.1809
17969TIP3    H275323   1.548   1.076   6.688  0.0009 -0.5127  0.7469
17970TIP3   OH275324   6.649   6.157   5.848  0.5054  0.3044  0.1725
17970TIP3    H175325   6.594   6.216   5.899 -1.6302  0.1964 -1.8372
17970TIP3    H275326   6.634   6.070   5.885  1.4264  0.6049  1.3049
17971TIP3   OH275327   2.902   4.470  14.664  0.4741  0.2637  0.5611
17971TIP3    H175328   2.817   4.464  14.707  0.5781  0.8645  0.8662
17971TIP3    H275329   2.914   4.564  14.648  0.1917  0.0183 -1.2801
17972TIP3   OH275330   1.682   1.083  12.197 -0.5406  0.2831 -0.1136
17972TIP3    H175331   1.644   1.126  12.120 -0.1767  2.2473  0.7630
17972TIP3    H275332   1.762   1.131  12.215 -0.7498  0.0280  1.6592
17973TIP3   OH275333   2.668   1.216   3.068  0.0989 -0.6133  0.2640
17973TIP3    H175334   2.589   1.177   3.032 -1.7775  0.9057  2.4007
17973TIP3    H275335   2.655   1.310   3.057  2.0674 -0.3580 -0.1523
17974TIP3   OH275336   2.388   0.479   4.950 -0.5304 -0.0391 -0.1405
17974TIP3    H175337   2.305   0.524   4.934 -0.4653  0.0219 -0.3059
17974TIP3    H275338   2.387   0.459   5.044 -1.5787 -1.7147 -0.4743
17975TIP3   OH275339   5.971   2.483  12.341 -0.3709  0.3536 -0.4325
17975TIP3    H175340   6.062   2.462  12.323 -0.9233 -1.2439 -1.5588
17975TIP3    H275341   5.950   2.553  12.279  0.1966  1.0500  0.1467
17976TIP3   OH275342   1.145   1.054   2.134  0.1998  0.2735  0.0604
17976TIP3    H175343   1.077   0.995   2.101  2.7189 -1.4523 -2.4784
17976TIP3    H275344   1.128   1.137   2.090 -2.0527  0.9388  1.9604
17977TIP3   OH275345   3.796   5.535   5.902 -0.0922 -0.1128  0.4328
17977TIP3    H175346   3.717   5.533   5.957 -0.7018  0.5457 -0.4048
17977TIP3    H275347   3.801   5.447   5.864 -0.7358  0.0072  0.0604
17978TIP3   OH275348   0.874   2.156   1.263  0.2478 -0.2562  0.3858
17978TIP3    H175349   0.907   2.069   1.288 -1.9959 -1.2666  0.0858
17978TIP3    H275350   0.887   2.160   1.168 -0.5102 -0.7120  0.2467
17979TIP3   OH275351   6.538   3.539   4.372  0.2804 -0.0131  0.1972
17979TIP3    H175352   6.456   3.527   4.325  0.3980 -0.8254  0.1847
17979TIP3    H275353   6.606   3.522   4.306  0.5222  2.2157 -0.2348
17980TIP3   OH275354   2.639   4.629   4.115 -0.7070 -0.3135  0.0926
17980TIP3    H175355   2.690   4.664   4.189 -0.6735  1.4568 -0.7142
17980TIP3    H275356   2.549   4.657   4.133 -0.8846 -0.8039 -0.0170
17981TIP3   OH275357   0.079   2.692   4.233  0.4233 -0.8110 -0.9458
17981TIP3    H175358   0.048   2.686   4.143  0.1043 -1.6202 -0.7885
17981TIP3    H275359   0.173   2.675   4.227  0.4054 -0.8415 -1.1256
17982TIP3   OH275360   3.089   3.227  15.876  0.0793 -0.4146  0.2274
17982TIP3    H175361   3.117   3.152  15.824  0.9582  1.0476 -1.5245
17982TIP3    H275362   3.165   3.245  15.933  0.0746 -0.5092  0.2646
17983TIP3   OH275363   6.233   4.236   1.927  0.2551 -0.6492 -0.0063
17983TIP3    H175364   6.225   4.307   1.863  4.0342 -1.4459 -1.5982
17983TIP3    H275365   6.217   4.278   2.012 -0.2585  1.4804 -1.0950
17984TIP3   OH275366   4.780   0.390   2.794 -0.1621 -0.2308 -0.3018
17984TIP3    H175367   4.721   0.458   2.761  2.5116  1.9374 -0.9995
17984TIP3    H275368   4.777   0.321   2.728 -2.2050 -0.4156 -0.0735
17985TIP3   OH275369   0.766   4.839  11.461 -0.1864  0.3125  0.3384
17985TIP3    H175370   0.774   4.818  11.554  1.6346  1.4261  0.4800
17985TIP3    H275371   0.672   4.845  11.446 -0.5248 -0.4720  1.9606
17986TIP3   OH275372   4.796   5.697  14.099  0.3986  0.2982 -0.5198
17986TIP3    H175373   4.878   5.743  14.081  0.3439  0.9346  0.7617
17986TIP3    H275374   4.738   5.764  14.134  0.3856 -0.7378  1.6342
17987TIP3   OH275375   5.433   3.824   4.689  0.6027 -0.3212  0.4961
17987TIP3    H175376   5.431   3.802   4.782  1.6833 -0.0434  0.5995
17987TIP3    H275377   5.371   3.896   4.679  0.8520 -0.0197  1.0922
17988TIP3   OH275378   4.596   6.374   4.936  0.0753 -0.4261 -0.3980
17988TIP3    H175379   4.621   6.374   4.844  0.2544  0.2625 -0.3480
17988TIP3    H275380   4.520   6.433   4.940 -0.0552 -0.6102 -0.1373
17989TIP3   OH275381   1.840   3.974  12.453  0.1772 -0.7892 -0.3813
17989TIP3    H175382   1.925   3.937  12.431  0.7438  0.9802 -1.3714
17989TIP3    H275383   1.801   3.998  12.369 -0.4634  0.1589  0.1642
17990TIP3   OH275384   3.326   5.247  17.354 -0.3275  0.4518 -0.1083
17990TIP3    H175385   3.297   5.311  17.289 -1.8927 -1.0338 -0.9380
17990TIP3    H275386   3.308   5.289  17.439 -1.7021  0.9562 -0.6321
17991TIP3   OH275387   1.043   3.501  11.631  0.4057  0.2661 -0.2198
17991TIP3    H175388   1.119   3.483  11.576 -0.2597 -1.6771 -0.6032
17991TIP3    H275389   0.994   3.569  11.584  0.8670  0.0511 -1.0264
17992TIP3   OH275390   6.137   3.561  11.267 -0.9448  0.3137 -0.2120
17992TIP3    H175391   6.090   3.591  11.344  2.3263  1.0851  1.6949
17992TIP3    H275392   6.085   3.488  11.233 -1.8487 -1.0924  3.6481
17993TIP3   OH275393   5.665   1.804  12.375  0.0011 -0.0230  0.0765
17993TIP3    H175394   5.732   1.762  12.428 -0.7449 -1.2482  0.0965
17993TIP3    H275395   5.700   1.803  12.286  0.8291  1.1357  0.3711
17994TIP3   OH275396   3.282   4.857  13.512 -0.4084  0.3842 -0.2747
17994TIP3    H175397   3.189   4.850  13.488 -0.4965  1.2816 -0.2106
17994TIP3    H275398   3.299   4.778  13.563 -1.1776  0.2905 -0.1506
17995TIP3   OH275399   3.691   3.531   3.357  0.2405 -1.0433 -0.2943
17995TIP3    H175400   3.723   3.563   3.272 -1.1452  0.9361 -0.1432
17995TIP3    H275401   3.732   3.589   3.421 -3.5595  1.8346 -0.1046
17996TIP3   OH275402   0.889   4.135   2.034 -0.0166  0.0209  0.1413
17996TIP3    H175403   0.966   4.129   1.978 -1.0703 -0.0573 -1.3584
17996TIP3    H275404   0.872   4.229   2.040 -0.6829 -0.0164 -0.8346
17997TIP3   OH275405   4.099   1.894  16.723 -0.4268 -0.0487  0.8649
17997TIP3    H175406   4.018   1.909  16.673  0.2906  1.1060 -0.0151
17997TIP3    H275407   4.074   1.832  16.791 -1.6873 -0.9453 -0.3431
17998TIP3   OH275408   3.186   5.838   5.503 -0.3343  0.3999 -1.0960
17998TIP3    H175409   3.136   5.886   5.569 -0.0727 -0.1269 -0.5066
17998TIP3    H275410   3.126   5.768   5.474 -0.1784  0.1781 -0.8794
17999TIP3   OH275411   2.313   3.190  15.462 -0.3117 -0.3354  0.8300
17999TIP3    H175412   2.226   3.152  15.466 -1.0323  1.1058 -0.3588
17999TIP3    H275413   2.302   3.280  15.493  0.4411  0.3279 -0.7027
18000TIP3   OH275414   3.061   4.897  14.422  0.5067 -0.3877 -0.4185
18000TIP3    H175415   3.070   4.988  14.452 -0.2469 -0.2252 -0.6673
18000TIP3    H275416   3.105   4.896  14.337  1.7196 -0.5981  0.1797
18001TIP3   OH275417   4.781   4.587   3.288  0.2819 -0.3059 -0.3199
18001TIP3    H175418   4.788   4.523   3.359  0.4657  1.0762  0.9474
18001TIP3    H275419   4.799   4.671   3.329 -4.6474  1.2816 -0.8114
18002TIP3   OH275420   0.169   3.508  15.270 -0.4532  0.5727 -0.3732
18002TIP3    H175421   0.259   3.527  15.245  0.0658 -1.7327 -0.5247
18002TIP3    H275422   0.177   3.442  15.340 -2.0168  0.8257  0.0944
18003TIP3   OH275423   4.150   3.008  14.667  0.6473  0.2609 -0.5183
18003TIP3    H175424   4.065   2.964  14.669  0.9330 -0.3099 -0.5069
18003TIP3    H275425   4.213   2.936  14.674  1.1599  0.5496 -1.9048
18004TIP3   OH275426   0.716   2.751  11.374  0.0549 -0.2311  0.0465
18004TIP3    H175427   0.684   2.837  11.402  0.5607 -0.0807  0.1876
18004TIP3    H275428   0.712   2.754  11.278 -1.8207 -0.8011  0.0725
18005TIP3   OH275429   1.150   4.330  11.177  0.1966 -0.5016  0.4074
18005TIP3    H175430   1.056   4.338  11.191  0.5820  0.0282  3.4329
18005TIP3    H275431   1.166   4.374  11.093 -2.3574 -1.9503 -0.9801
18006TIP3   OH275432   3.533   4.055   0.829 -0.2071 -0.3991 -0.2631
18006TIP3    H175433   3.490   4.054   0.914 -1.1080 -0.5920 -0.7117
18006TIP3    H275434   3.602   4.121   0.837 -1.9164  1.4728 -0.1786
18007TIP3   OH275435   0.292   1.246  13.746  0.3256 -0.2192 -0.0969
18007TIP3    H175436   0.276   1.193  13.668 -1.9076  1.7015 -1.0490
18007TIP3    H275437   0.215   1.232  13.801  1.9890 -1.7615  2.0086
18008TIP3   OH275438   1.089   2.821   4.794  0.1988  0.2683 -0.3693
18008TIP3    H175439   1.182   2.813   4.817  0.3540 -2.5682 -1.5226
18008TIP3    H275440   1.070   2.914   4.805  2.5281  0.5962  2.1794
18009TIP3   OH275441   1.361   1.412  14.397 -0.9652 -0.1930  0.6347
18009TIP3    H175442   1.411   1.332  14.414 -0.4061 -0.2032 -0.8627
18009TIP3    H275443   1.415   1.461  14.336 -1.6703  0.9732  0.9126
18010TIP3   OH275444   2.491   2.984  15.572 -0.2046 -0.7478  0.5978
18010TIP3    H175445   2.419   3.045  15.557  0.0141 -0.8575 -1.1903
18010TIP3    H275446   2.455   2.898  15.552  0.0511 -0.9624  1.0551
18011TIP3   OH275447   1.210   3.546  14.021  0.4418  0.0608  0.2596
18011TIP3    H175448   1.273   3.579  14.085  0.0083 -0.6416  1.0783
18011TIP3    H275449   1.262   3.529  13.943  1.3922 -0.9562  1.0729
18012TIP3   OH275450   0.819   1.188  14.645  0.4208  0.2349 -0.2795
18012TIP3    H175451   0.809   1.250  14.573  0.7155 -1.6827 -2.0320
18012TIP3    H275452   0.754   1.217  14.710  0.2371  2.0790 -1.2118
18013TIP3   OH275453   1.653   1.478   0.614 -0.1200  0.4319 -0.1739
18013TIP3    H175454   1.623   1.478   0.704 -0.4409 -1.3531 -0.2501
18013TIP3    H275455   1.690   1.390   0.601  0.7853  0.9747 -1.4964
18014TIP3   OH275456   3.631   1.318  17.090  0.3650 -0.2172 -0.1473
18014TIP3    H175457   3.645   1.340  17.182  1.9933  0.4349 -0.5184
18014TIP3    H275458   3.683   1.239  17.076  3.1080  1.6241 -1.2915
18015TIP3   OH275459   0.292   2.317  14.008  0.4414  0.0736  0.1376
18015TIP3    H175460   0.308   2.323  13.914  1.6289  1.0517  0.3791
18015TIP3    H275461   0.347   2.244  14.037  1.7538  1.1179  0.3824
18016TIP3   OH275462   6.325   1.351   3.838  0.1449 -0.5853 -0.3782
18016TIP3    H175463   6.344   1.333   3.930 -2.5669  1.7730  0.7916
18016TIP3    H275464   6.314   1.265   3.799 -0.3198 -1.6581  1.9423
18017TIP3   OH275465   5.642   5.451   1.540 -0.1567  0.1200 -0.2667
18017TIP3    H175466   5.580   5.491   1.600  0.6014 -0.2833  0.8199
18017TIP3    H275467   5.725   5.497   1.556 -0.0386  0.3282 -1.3448
18018TIP3   OH275468   4.133   2.908  11.107  0.6398 -0.4085  0.3671
18018TIP3    H175469   4.181   2.983  11.070 -1.7596  1.2948  0.4837
18018TIP3    H275470   4.098   2.862  11.031 -0.3942  0.3750  0.3526
18019TIP3   OH275471   2.077   3.917   1.682 -0.0723  0.2905  0.3124
18019TIP3    H175472   2.106   3.914   1.591  1.1434  1.5285  0.6340
18019TIP3    H275473   2.011   3.986   1.684  0.8727  1.2074  0.6067
18020TIP3   OH275474   4.590   3.373   1.513 -0.0805 -0.4632 -0.7428
18020TIP3    H175475   4.657   3.306   1.503  0.3810  0.0518 -1.1567
18020TIP3    H275476   4.622   3.448   1.463 -0.1187  0.4299  0.5106
18021TIP3   OH275477   5.268   0.083  16.218  0.0600  0.0278 -0.1524
18021TIP3    H175478   5.285   0.175  16.197  1.0204  0.3401  1.8192
18021TIP3    H275479   5.349   0.038  16.194  0.5070  0.1100  1.1493
18022TIP3   OH275480   1.219   1.316  14.632  0.1724  0.4084  0.2388
18022TIP3    H175481   1.137   1.363  14.648 -0.2834 -0.7793  1.7316
18022TIP3    H275482   1.240   1.334  14.541 -0.3181  2.9198  0.5492
18023TIP3   OH275483   4.978   2.899  13.128  0.1727 -0.1362 -0.8744
18023TIP3    H175484   5.017   2.985  13.144  0.3013 -0.0195 -1.7381
18023TIP3    H275485   4.898   2.918  13.080  0.8923 -0.5427 -2.3076
18024TIP3   OH275486   3.500   1.808  15.704  0.0396 -0.0311 -0.3583
18024TIP3    H175487   3.448   1.736  15.667  0.9940 -0.1635 -1.4999
18024TIP3    H275488   3.580   1.765  15.735 -0.4651  0.1823  1.3164
18025TIP3   OH275489   5.891   6.702   2.154 -0.0984 -0.2957 -0.2255
18025TIP3    H175490   5.810   6.731   2.196  0.3398  1.5671 -0.5580
18025TIP3    H275491   5.864   6.669   2.068 -0.4240  1.9270 -1.0623
18026TIP3   OH275492   2.102   4.867  12.484 -0.0045 -0.2692  0.1985
18026TIP3    H175493   2.019   4.857  12.439  0.6080 -0.7454 -0.8674
18026TIP3    H275494   2.094   4.948  12.534 -1.2410 -0.5248  0.4312
18027TIP3   OH275495   5.614   3.385  13.538 -0.3855  0.4750  0.2837
18027TIP3    H175496   5.619   3.372  13.443  0.7831 -0.5430  0.4612
18027TIP3    H275497   5.697   3.425  13.561 -0.5023  0.3605  0.9250
18028TIP3   OH275498   0.283   4.123  14.988  0.1401  0.2717 -0.1260
18028TIP3    H175499   0.309   4.208  15.025  2.3103 -0.0447 -0.8138
18028TIP3    H275500   0.306   4.129  14.895 -2.8928  0.1310 -0.9857
18029TIP3   OH275501   4.367   0.917   6.656 -0.1980 -0.7146 -0.0682
18029TIP3    H175502   4.321   0.877   6.730  0.7704 -1.3773  0.1874
18029TIP3    H275503   4.375   1.010   6.680  0.3727 -0.9833  0.7920
18030TIP3   OH275504   2.183   1.445  12.390 -0.4434 -0.0687 -0.1704
18030TIP3    H175505   2.163   1.499  12.314 -1.5070  2.3012  1.6499
18030TIP3    H275506   2.105   1.452  12.446  0.9902 -0.1264  1.9764
18031TIP3   OH275507   1.153   4.108  13.045 -0.2434  0.0906  0.4856
18031TIP3    H175508   1.059   4.097  13.056 -0.2743 -1.9476 -1.2427
18031TIP3    H275509   1.192   4.063  13.121 -0.6537 -1.6999 -0.3188
18032TIP3   OH275510   5.201   0.812  15.750  0.2871  0.1963  0.5366
18032TIP3    H175511   5.294   0.834  15.744  0.6926 -1.6160 -0.3550
18032TIP3    H275512   5.197   0.738  15.810 -0.6316  0.4319  0.7900
18033TIP3   OH275513   5.649   6.076   4.524  0.8048  0.5033 -0.9792
18033TIP3    H175514   5.640   6.161   4.567  1.5075  0.7555 -1.3142
18033TIP3    H275515   5.705   6.093   4.448 -0.2000  0.0093 -1.8459
18034TIP3   OH275516   4.146   4.874  16.125  0.4047 -0.1635 -0.3124
18034TIP3    H175517   4.099   4.923  16.057  2.7567  1.0982 -1.1279
18034TIP3    H275518   4.100   4.896  16.206  0.1598  1.8174 -0.9308
18035TIP3   OH275519   1.824   3.865   6.474  0.3386  0.0521  0.2704
18035TIP3    H175520   1.842   3.958   6.461 -0.3181  0.0890 -0.4502
18035TIP3    H275521   1.744   3.848   6.424  0.1385 -0.7805  0.8403
18036TIP3   OH275522   5.937   6.409   0.148 -0.3435 -0.1759 -0.3880
18036TIP3    H175523   5.857   6.433   0.100 -0.5253 -2.2839 -1.2572
18036TIP3    H275524   5.997   6.378   0.080 -0.1086 -1.9598  0.5655
18037TIP3   OH275525   1.450   3.929   0.423 -0.6212  0.0314  0.1881
18037TIP3    H175526   1.476   3.851   0.472 -0.6792 -0.2090 -0.1624
18037TIP3    H275527   1.516   3.994   0.445 -0.8330  0.0263  0.8438
18038TIP3   OH275528   3.644   6.418   4.534  0.0013 -0.4925 -1.0503
18038TIP3    H175529   3.724   6.386   4.575 -0.5165 -0.7860 -0.2532
18038TIP3    H275530   3.574   6.386   4.590 -0.5793  1.4540 -0.5929
18039TIP3   OH275531   0.188   1.180  11.245  0.1134 -0.5243 -0.0792
18039TIP3    H175532   0.195   1.095  11.202  0.2699  0.6314 -2.5231
18039TIP3    H275533   0.277   1.215  11.246 -0.0573 -0.0760  0.2555
18040TIP3   OH275534   3.456   2.057   4.215 -0.3442 -0.1981 -0.1830
18040TIP3    H175535   3.396   1.989   4.184  1.7966 -1.9450 -0.8062
18040TIP3    H275536   3.422   2.082   4.300 -1.1668 -2.1740  0.1275
18041TIP3   OH275537   0.050   4.342  14.007 -0.4850  0.1560 -0.1204
18041TIP3    H175538   0.024   4.426  13.969  0.9029 -0.3539 -2.3937
18041TIP3    H275539   0.003   4.277  13.954 -1.8131 -0.5577  1.8264
18042TIP3   OH275540   6.689   2.893  16.875  0.1173 -0.3298  0.0328
18042TIP3    H175541   6.707   2.830  16.945  1.4904 -0.3009 -0.2598
18042TIP3    H275542   6.715   2.978  16.911 -1.6695  0.1042  0.4013
18043TIP3   OH275543   5.654   1.234  14.333 -0.1114  0.1587  0.4521
18043TIP3    H175544   5.584   1.182  14.294 -0.0074  1.2785 -1.3625
18043TIP3    H275545   5.609   1.303  14.382 -0.2661  0.0994  0.3929
18044TIP3   OH275546   0.157   3.781  12.169 -0.7425 -0.4019  0.3944
18044TIP3    H175547   0.100   3.843  12.215 -2.4046 -0.7020 -1.1335
18044TIP3    H275548   0.202   3.734  12.239 -1.2540  0.8743  1.6357
18045TIP3   OH275549   4.211   0.091   6.068  0.3743 -0.5301  0.9784
18045TIP3    H175550   4.211  -0.005   6.065  0.4542 -0.5403  1.2523
18045TIP3    H275551   4.178   0.112   6.155  1.3564 -0.3311  1.3184
18046TIP3   OH275552   6.252   3.685   1.606  0.5886 -0.0218 -0.1725
18046TIP3    H175553   6.221   3.603   1.644 -0.5602 -0.1298 -1.2611
18046TIP3    H275554   6.264   3.743   1.681 -0.4900 -0.5824  0.4670
18047TIP3   OH275555   2.148   5.790  12.912  0.5139 -0.2141 -0.1151
18047TIP3    H175556   2.229   5.840  12.925  1.1574 -0.3231 -2.9435
18047TIP3    H275557   2.169   5.729  12.841 -1.0102 -2.8033  1.5018
18048TIP3   OH275558   4.706   2.568   1.768 -0.0349  0.2297  0.2802
18048TIP3    H175559   4.676   2.477   1.779 -0.1788  0.2811  0.3119
18048TIP3    H275560   4.708   2.604   1.856  1.2734 -0.1330  0.4192
18049TIP3   OH275561   1.378   4.349  12.168 -0.4741  0.2122  0.7741
18049TIP3    H175562   1.349   4.431  12.130 -1.0578  0.2137  1.2061
18049TIP3    H275563   1.444   4.375  12.232 -1.2836  0.4400  1.5433
18050TIP3   OH275564   0.460   0.780  13.979 -0.0361  0.1643  0.5419
18050TIP3    H175565   0.405   0.837  13.925  0.1129 -0.8418 -0.7191
18050TIP3    H275566   0.550   0.805  13.958  0.0120  0.8112  1.4943
18051TIP3   OH275567   4.044   1.007   0.222  0.0249 -0.8023  0.0073
18051TIP3    H175568   4.138   1.007   0.242  0.3280  2.6670 -0.6815
18051TIP3    H275569   4.038   1.047   0.135 -2.1308  0.8084  0.7908
18052TIP3   OH275570   1.642   3.400   2.467 -0.2081  0.2058 -0.8012
18052TIP3    H175571   1.602   3.328   2.516  0.5935  0.4079  0.1827
18052TIP3    H275572   1.592   3.404   2.385 -0.6820 -1.0374 -0.5920
18053TIP3   OH275573   0.942   0.200  13.787 -0.3622  0.4044  0.1632
18053TIP3    H175574   1.003   0.168  13.854  0.6347  1.2751 -0.3058
18053TIP3    H275575   0.974   0.288  13.766  0.1468 -0.3200 -2.3761
18054TIP3   OH275576   0.932   1.445   2.743 -0.8341 -0.8266 -0.7155
18054TIP3    H175577   0.923   1.539   2.728 -0.0075 -0.2847  1.7111
18054TIP3    H275578   1.026   1.432   2.755 -0.8805 -2.0856 -1.5083
18055TIP3   OH275579   3.492   4.443  12.334 -0.2328  0.0763 -0.0094
18055TIP3    H175580   3.429   4.449  12.262  0.6179  1.8517 -0.6498
18055TIP3    H275581   3.561   4.384  12.302 -1.0579 -1.1313  0.3473
18056TIP3   OH275582   1.639   6.366  16.358 -0.4804  0.6868  0.2833
18056TIP3    H175583   1.727   6.350  16.391 -0.1652 -2.3587 -1.6447
18056TIP3    H275584   1.581   6.323  16.422 -0.4593  1.3460  0.7499
18057TIP3   OH275585   1.984   5.794   5.396  0.0834  0.1195  0.4231
18057TIP3    H175586   2.077   5.794   5.415  0.1302 -0.4976  0.2131
18057TIP3    H275587   1.976   5.754   5.310 -0.4945 -1.4259  1.1494
18058TIP3   OH275588   5.632   5.157  16.426 -0.4873  0.7998 -0.0723
18058TIP3    H175589   5.657   5.219  16.494 -0.6386  0.0859  0.6510
18058TIP3    H275590   5.715   5.131  16.385 -0.3235  0.7250  0.2991
18059TIP3   OH275591   2.264   4.078   4.833  0.3145  0.0996 -0.6826
18059TIP3    H175592   2.212   4.138   4.780  0.6982  0.6744 -0.4195
18059TIP3    H275593   2.254   4.110   4.923  1.8575  0.7933 -0.7266
18060TIP3   OH275594   2.033   3.133   2.714  0.1572 -0.5421 -0.1310
18060TIP3    H175595   2.072   3.217   2.741  0.2007 -0.8001  0.6359
18060TIP3    H275596   1.999   3.095   2.795 -1.8309 -0.2817 -0.7822
18061TIP3   OH275597   3.052   6.340   5.225 -0.2084 -0.2708  0.0627
18061TIP3    H175598   3.067   6.333   5.131 -2.9354  1.8740 -0.6849
18061TIP3    H275599   3.137   6.362   5.262  1.2866 -2.8080 -1.5956
18062TIP3   OH275600   0.932   5.729  16.445  0.2639  0.1444  0.2072
18062TIP3    H175601   0.991   5.788  16.398  0.8334 -1.1171 -0.7171
18062TIP3    H275602   0.916   5.774  16.529  2.0387  0.8146  0.2474
18063TIP3   OH275603   3.562   3.235  13.154  0.4145 -0.8059  0.6462
18063TIP3    H175604   3.567   3.307  13.217 -0.4201  0.2886 -0.4795
18063TIP3    H275605   3.487   3.183  13.184 -2.1975  1.5725 -1.1621
18064TIP3   OH275606   4.521   4.302  14.682  0.8932  0.0025  0.1999
18064TIP3    H175607   4.551   4.246  14.754  1.3058 -0.0646 -0.0197
18064TIP3    H275608   4.601   4.325  14.636  0.8170  1.3613  0.7073
18065TIP3   OH275609   2.024   0.245   5.316 -0.9411  0.4590  0.4902
18065TIP3    H175610   2.078   0.185   5.368 -1.0550  0.2222  0.3425
18065TIP3    H275611   2.014   0.201   5.232 -1.3142  0.5228  0.4960
18066TIP3   OH275612   4.204   0.524  11.667  0.4078 -0.2389  0.3543
18066TIP3    H175613   4.118   0.566  11.659  0.3711 -0.4831 -0.6763
18066TIP3    H275614   4.196   0.469  11.745 -1.6767 -3.1342 -1.6873
18067TIP3   OH275615   1.718   1.568   5.395 -0.5164  0.1615 -0.0654
18067TIP3    H175616   1.744   1.609   5.312  1.9145 -1.0982 -0.0131
18067TIP3    H275617   1.741   1.633   5.462  2.4544 -0.7289 -0.0579
18068TIP3   OH275618   4.651   5.873   1.106  0.3809 -0.1427 -0.2009
18068TIP3    H175619   4.643   5.918   1.190 -0.7564  2.3341 -1.5144
18068TIP3    H275620   4.744   5.850   1.101  0.5284 -0.1182  1.6082
18069TIP3   OH275621   2.372   0.200  15.734 -0.0898  0.2837  0.0030
18069TIP3    H175622   2.393   0.117  15.692  0.9169  1.0771 -1.1302
18069TIP3    H275623   2.283   0.220  15.705  0.6884  0.9621 -2.1102
18070TIP3   OH275624   6.206   3.107  12.163  0.0665  0.1730 -0.3195
18070TIP3    H175625   6.188   3.139  12.251 -1.2134 -1.6376  0.1323
18070TIP3    H275626   6.136   3.145  12.109  1.7829  2.6609 -1.0000
18071TIP3   OH275627   1.128   6.052  14.140  0.7963  0.1164 -0.0021
18071TIP3    H175628   1.074   6.130  14.151  0.4060 -0.0887 -0.4260
18071TIP3    H275629   1.169   6.064  14.054 -0.2252 -0.7102 -0.6317
18072TIP3   OH275630   2.179   1.226   1.273 -0.1467  0.1503 -0.5277
18072TIP3    H175631   2.133   1.188   1.199  1.0459 -0.0081 -1.2025
18072TIP3    H275632   2.271   1.220   1.250  0.2520  0.0531  0.9896
18073TIP3   OH275633   4.960   6.310   5.772  0.2940 -0.4480 -0.2177
18073TIP3    H175634   5.017   6.375   5.730 -1.7366  1.0924 -0.7848
18073TIP3    H275635   4.972   6.230   5.720  3.1351 -0.7345  0.7199
18074TIP3   OH275636   3.769   4.230   3.915 -1.0360 -0.0386  0.0148
18074TIP3    H175637   3.682   4.241   3.877 -0.6131 -1.2007 -1.3898
18074TIP3    H275638   3.806   4.155   3.868 -0.4052 -1.5000  2.6547
18075TIP3   OH275639   2.424   6.411  15.736 -0.1607 -0.3023  0.8598
18075TIP3    H175640   2.356   6.350  15.706 -0.1987 -0.0924  0.5221
18075TIP3    H275641   2.447   6.462  15.659  0.8880 -0.8447  0.7881
18076TIP3   OH275642   0.946   0.562  16.281  0.6812 -0.2841 -0.4544
18076TIP3    H175643   0.876   0.546  16.217  1.4793 -0.1942 -1.3835
18076TIP3    H275644   0.905   0.612  16.351 -0.2082 -0.3407 -0.9312
18077TIP3   OH275645   3.163   6.323  12.931 -0.1335  0.8565 -0.3391
18077TIP3    H175646   3.071   6.324  12.906  0.0776  0.5767 -1.1459
18077TIP3    H275647   3.170   6.391  12.997 -1.4227 -0.7275  1.5561
18078TIP3   OH275648   2.522   0.702  12.059  0.2882 -0.4664  0.1849
18078TIP3    H175649   2.538   0.769  12.125  1.6017  0.4041 -0.9768
18078TIP3    H275650   2.484   0.749  11.985 -0.1444 -1.2528 -0.1051
18079TIP3   OH275651   2.565   3.478  15.573 -0.3965  0.0828  0.4450
18079TIP3    H175652   2.491   3.499  15.515 -1.8214  2.3606  2.8861
18079TIP3    H275653   2.548   3.389  15.601 -0.1837 -0.7351 -1.8131
18080TIP3   OH275654   0.483   2.958  11.935 -1.0103  0.0907 -0.4072
18080TIP3    H175655   0.403   2.963  11.883 -0.6485  2.3534 -0.8220
18080TIP3    H275656   0.458   2.990  12.021 -0.6258  0.5192 -0.4515
18081TIP3   OH275657   5.423   6.669  13.043  0.2843  0.0006 -0.2463
18081TIP3    H175658   5.331   6.669  13.017  0.5365  0.1835 -1.1571
18081TIP3    H275659   5.421   6.690  13.137 -0.5687  0.4971 -0.3642
18082TIP3   OH275660   5.029   6.015   2.106  0.5306 -0.6141  0.3566
18082TIP3    H175661   5.008   5.922   2.097  0.7578 -0.4570 -2.7973
18082TIP3    H275662   4.954   6.061   2.069  1.2380  0.3766  0.1029
18083TIP3   OH275663   3.817   0.134   1.268 -0.2380 -0.0851 -0.5670
18083TIP3    H175664   3.903   0.111   1.303  0.6678  0.5550 -2.2366
18083TIP3    H275665   3.773   0.180   1.339  1.2621  0.6197 -0.0626
18084TIP3   OH275666   2.326   3.146  11.123  0.3544  0.0920  0.0697
18084TIP3    H175667   2.299   3.063  11.083  2.1503 -0.1649 -0.6908
18084TIP3    H275668   2.421   3.147  11.113  0.5414  1.4224  1.7000
18085TIP3   OH275669   0.237   3.157  16.520  0.0361  0.3342 -0.3624
18085TIP3    H175670   0.185   3.189  16.594  0.5407  1.0346 -0.2973
18085TIP3    H275671   0.306   3.104  16.561 -0.6183 -0.6158 -0.4505
18086TIP3   OH275672   3.643   2.219  16.721  0.3305  0.2577  0.6187
18086TIP3    H175673   3.612   2.141  16.673  1.1996  0.8445 -0.9834
18086TIP3    H275674   3.675   2.185  16.804 -0.2394 -0.9701  0.3594
18087TIP3   OH275675   0.206   3.821   4.523 -0.0062  0.0934  0.3931
18087TIP3    H175676   0.173   3.767   4.594 -0.5454 -1.4770 -0.9832
18087TIP3    H275677   0.150   3.800   4.448  2.4041 -0.6798 -1.3434
18088TIP3   OH275678   3.572   3.167   4.469 -0.2424  0.0636 -0.5072
18088TIP3    H175679   3.591   3.078   4.438  0.5912 -0.3151  1.0112
18088TIP3    H275680   3.497   3.156   4.527 -1.6414  0.7335 -2.1276
18089TIP3   OH275681   1.717   4.996  14.590  0.6663 -0.3012  0.0002
18089TIP3    H175682   1.727   5.060  14.661  2.1848 -0.3378 -0.1372
18089TIP3    H275683   1.805   4.959  14.579  0.5528 -0.0633 -2.1035
18090TIP3   OH275684   3.309   3.914   2.106 -0.3098 -0.3484  0.2465
18090TIP3    H175685   3.366   3.902   2.030 -1.1069  0.7367 -0.5464
18090TIP3    H275686   3.261   3.831   2.113 -0.6509 -0.2568 -0.8006
18091TIP3   OH275687   1.518   5.194   5.834  1.0072  0.2463  0.0483
18091TIP3    H175688   1.481   5.184   5.746  0.7049 -1.5428  0.3539
18091TIP3    H275689   1.454   5.247   5.881 -0.9541 -2.2602  0.3811
18092TIP3   OH275690   0.244   1.565  13.470 -0.0184 -0.7496  0.0210
18092TIP3    H175691   0.296   1.499  13.516  0.5287  0.8298  1.7299
18092TIP3    H275692   0.154   1.546  13.496  0.0512 -1.2424 -0.0704
18093TIP3   OH275693   3.706   2.843  13.185  0.4124  0.2636  0.0140
18093TIP3    H175694   3.639   2.900  13.223  0.0424  0.7321 -1.2877
18093TIP3    H275695   3.768   2.828  13.256 -0.1738  1.2305  0.7500
18094TIP3   OH275696   3.380   2.995   1.169  0.2572 -0.1575  0.1920
18094TIP3    H175697   3.419   2.966   1.087 -0.0431 -1.3243  0.4413
18094TIP3    H275698   3.323   3.068   1.144  0.2392 -0.4362 -0.6225
18095TIP3   OH275699   2.885   5.939   0.839 -0.3756  0.0700  0.2252
18095TIP3    H175700   2.953   5.876   0.864 -0.7991 -0.4971 -0.0507
18095TIP3    H275701   2.820   5.933   0.909 -2.3256 -2.6317 -1.6573
18096TIP3   OH275702   0.879   4.365  11.226 -0.5017 -0.4382 -0.4458
18096TIP3    H175703   0.817   4.303  11.264 -1.9952  0.1851 -1.7331
18096TIP3    H275704   0.826   4.441  11.204  1.3268  1.4630  1.3403
18097TIP3   OH275705   3.438   1.265   1.065 -0.2866  0.1861  0.9663
18097TIP3    H175706   3.485   1.267   0.982  0.1544  1.5056  1.2167
18097TIP3    H275707   3.447   1.354   1.099 -0.9450 -0.1843  2.1545
18098TIP3   OH275708   4.403   2.507   2.825  0.3398  0.4374 -0.6892
18098TIP3    H175709   4.337   2.440   2.808  1.2263 -0.0977 -2.2970
18098TIP3    H275710   4.453   2.513   2.743 -0.0725  3.5238 -0.8560
18099TIP3   OH275711   6.284   4.616   5.498  0.6003 -0.5006  0.0886
18099TIP3    H175712   6.302   4.523   5.489  0.0834 -0.5408 -0.6014
18099TIP3    H275713   6.252   4.626   5.588  1.4405 -0.8530  0.4318
18100TIP3   OH275714   2.347   3.165   0.758 -0.3042 -0.1695 -0.1841
18100TIP3    H175715   2.282   3.098   0.739  1.1862 -1.5097 -0.8190
18100TIP3    H275716   2.411   3.120   0.814  0.6920  0.7387 -0.5768
18101TIP3   OH275717   4.773   5.726   4.254  0.3393  0.6212  0.0810
18101TIP3    H175718   4.752   5.798   4.314  0.7093  0.7088  0.1040
18101TIP3    H275719   4.738   5.755   4.169  1.3191  1.2549 -0.1255
18102TIP3   OH275720   0.435   1.779   0.924  0.6756  0.2280  0.6807
18102TIP3    H175721   0.447   1.697   0.875 -0.6241  0.1746  0.4281
18102TIP3    H275722   0.392   1.838   0.862  0.3573  0.6512  1.2960
18103TIP3   OH275723   0.090   6.743  14.481  0.1108  0.2208 -0.2036
18103TIP3    H175724   0.000   6.726  14.511  0.5208 -1.2433  0.2748
18103TIP3    H275725   0.123   6.809  14.541 -0.1951 -0.2587  0.5107
18104TIP3   OH275726   6.625   0.745   2.861 -0.0427 -0.2546  0.2073
18104TIP3    H175727   6.545   0.697   2.883 -0.6937 -0.3017 -2.0592
18104TIP3    H275728   6.598   0.812   2.800  1.4105  0.8827  0.7364
18105TIP3   OH275729   0.570   0.227   5.299 -0.3523  0.1574 -0.0038
18105TIP3    H175730   0.562   0.241   5.393 -1.6623  0.0257 -0.0680
18105TIP3    H275731   0.641   0.285   5.272  0.5931 -0.4100  1.1808
18106TIP3   OH275732   0.934   2.039  14.902 -0.2660  0.2506  0.2369
18106TIP3    H175733   0.850   2.082  14.886 -0.1614 -0.0653 -1.2958
18106TIP3    H275734   0.926   1.955  14.858  1.3091  0.7361 -1.0266
18107TIP3   OH275735   0.935   4.340   3.854 -0.0054  0.2520  0.1345
18107TIP3    H175736   0.842   4.331   3.834  0.0601 -0.0410 -0.0467
18107TIP3    H275737   0.958   4.428   3.824 -0.5665  0.9152  1.5650
18108TIP3   OH275738   5.992   0.958   2.262 -0.4435 -0.0769  0.0328
18108TIP3    H175739   6.079   0.942   2.226 -0.1601 -1.3539  1.2110
18108TIP3    H275740   6.007   0.980   2.353 -1.0287  4.6627 -0.7781
18109TIP3   OH275741   6.153   0.766   1.060 -0.4106 -0.0159 -0.1737
18109TIP3    H175742   6.080   0.812   1.018  0.0193 -0.3259 -1.2752
18109TIP3    H275743   6.207   0.836   1.096 -0.2500  0.3124 -1.0306
18110TIP3   OH275744   1.031   4.918   3.964 -0.8779  0.0064  0.4319
18110TIP3    H175745   0.950   4.877   3.995 -0.3261  0.0506  2.0515
18110TIP3    H275746   1.100   4.880   4.018  0.0573  0.7519 -0.1840
18111TIP3   OH275747   5.089   4.969  16.929  0.1886 -0.4351 -0.3642
18111TIP3    H175748   5.144   4.899  16.894  2.5617  1.3495 -0.4588
18111TIP3    H275749   5.080   5.031  16.856 -0.9265 -0.0916  0.0502
18112TIP3   OH275750   1.737   4.946   4.957  0.9697 -0.2437  0.4966
18112TIP3    H175751   1.731   5.037   4.988 -0.4820 -1.0965  2.9299
18112TIP3    H275752   1.769   4.897   5.032 -1.0547 -2.1693  0.1945
18113TIP3   OH275753   2.813   0.317   4.218  0.5667  0.4199  0.7623
18113TIP3    H175754   2.807   0.411   4.233 -0.1921  0.7492 -1.2692
18113TIP3    H275755   2.742   0.298   4.157  2.0025 -1.0610 -0.5464
18114TIP3   OH275756   5.575   6.676  10.714  0.0737 -0.1274  0.4957
18114TIP3    H175757   5.616   6.610  10.658 -0.0224  0.0611  0.1998
18114TIP3    H275758   5.593   6.646  10.803 -1.0251 -1.2249  0.3828
18115TIP3   OH275759   6.136   5.499  13.704  0.7248 -0.5333 -0.0941
18115TIP3    H175760   6.087   5.530  13.627  0.7413 -2.7348 -1.0506
18115TIP3    H275761   6.072   5.453  13.757  0.9299  0.1141  0.7359
18116TIP3   OH275762   0.380   1.313  15.747  0.0267  0.4919  0.6440
18116TIP3    H175763   0.423   1.232  15.720  0.9751  1.6457 -1.6170
18116TIP3    H275764   0.340   1.347  15.667 -1.3395  1.6947  1.7740
18117TIP3   OH275765   5.566   2.469   2.024  0.0640  0.5154  0.4037
18117TIP3    H175766   5.539   2.549   1.979 -1.4348 -0.8166 -1.2436
18117TIP3    H275767   5.505   2.461   2.097 -0.4162  0.4164  0.0021
18118TIP3   OH275768   3.435   4.213   2.659 -0.3077 -0.4482  0.2716
18118TIP3    H175769   3.512   4.237   2.710 -0.1531 -3.6463  1.7533
18118TIP3    H275770   3.361   4.239   2.714 -0.3157  0.7879 -0.2707
18119TIP3   OH275771   5.059   3.731  14.439  0.1739  0.1510  0.2406
18119TIP3    H175772   5.137   3.717  14.386  2.7361  0.2246  3.6851
18119TIP3    H275773   5.036   3.644  14.472 -0.0299  0.4196  0.8110
18120TIP3   OH275774   6.691   4.449   6.331 -0.5467 -0.1327  0.1780
18120TIP3    H175775   6.683   4.534   6.287  0.5715 -1.2074 -2.2591
18120TIP3    H275776   6.734   4.470   6.414 -0.8924  1.7492 -0.0623
18121TIP3   OH275777   3.903   2.875   3.160 -0.2783  0.6795 -0.0590
18121TIP3    H175778   3.936   2.894   3.072 -0.5495 -0.8021 -0.5017
18121TIP3    H275779   3.813   2.909   3.160  0.4928  2.8786  0.4815
18122TIP3   OH275780   4.113   5.142  13.659  0.1706  0.1768  0.0341
18122TIP3    H175781   4.121   5.083  13.584 -0.3852  0.6942 -0.4392
18122TIP3    H275782   4.182   5.114  13.719  0.0784 -0.7778 -0.3026
18123TIP3   OH275783   2.907   1.882  17.158  0.8955 -0.3996 -0.0434
18123TIP3    H175784   2.996   1.916  17.148  1.1758 -1.3137 -0.7403
18123TIP3    H275785   2.907   1.800  17.110 -0.2407 -0.5730  0.2286
18124TIP3   OH275786   2.319   1.816   6.414 -0.7390  0.2695 -0.3791
18124TIP3    H175787   2.377   1.890   6.424 -0.3794 -0.0804  0.2405
18124TIP3    H275788   2.365   1.755   6.357  0.2375 -0.6881  1.3268
18125TIP3   OH275789   4.860   1.323  16.196 -0.2280  0.0054 -0.4025
18125TIP3    H175790   4.887   1.232  16.185 -0.0959  0.1757 -1.6834
18125TIP3    H275791   4.939   1.367  16.228 -0.5972 -0.5047  1.3241
18126TIP3   OH275792   1.199   0.015  13.140 -0.5337  0.3544  0.4650
18126TIP3    H175793   1.287  -0.020  13.150 -0.6523  0.4144  2.0720
18126TIP3    H275794   1.193   0.041  13.048  0.7395 -0.6426  0.0746
18127TIP3   OH275795   3.568   5.865  16.001 -0.0384  0.3248  0.9890
18127TIP3    H175796   3.549   5.774  16.025 -0.5671  0.0595 -0.3825
18127TIP3    H275797   3.482   5.904  15.984 -0.0182  1.7182  3.5711
18128TIP3   OH275798   4.425   3.799  13.633 -0.3685 -0.2952 -0.4758
18128TIP3    H175799   4.377   3.863  13.685 -1.8137  0.2343 -2.3478
18128TIP3    H275800   4.362   3.769  13.568  0.9629 -1.9407 -1.0781
18129TIP3   OH275801   0.484   5.887  14.928  0.1823 -0.3978  0.1476
18129TIP3    H175802   0.507   5.965  14.978 -1.5922 -0.7700  1.6842
18129TIP3    H275803   0.536   5.893  14.848  1.6773  1.2477  1.1639
18130TIP3   OH275804   0.029   5.814  17.168  0.3312  0.0287  0.2917
18130TIP3    H175805   0.113   5.838  17.210  0.1844  1.5816 -0.2232
18130TIP3    H275806  -0.004   5.741  17.220  2.5797 -1.4581 -0.2323
18131TIP3   OH275807   3.113   6.290  16.178  0.1110  0.0251  0.0849
18131TIP3    H175808   3.050   6.323  16.242 -0.5657 -1.3771  0.1923
18131TIP3    H275809   3.138   6.366  16.126 -1.4835  0.6644  0.2134
18132TIP3   OH275810   4.883   3.812   3.741 -0.2891 -0.1764 -0.2498
18132TIP3    H175811   4.799   3.846   3.774  0.1406  1.3889 -0.7175
18132TIP3    H275812   4.928   3.888   3.706 -0.1982 -1.5427 -3.4098
18133TIP3   OH275813   4.519   1.974   1.363 -0.1486 -1.0595  0.5483
18133TIP3    H175814   4.514   1.900   1.424 -0.4879  0.7097  2.7770
18133TIP3    H275815   4.440   2.025   1.381  0.2217  0.0062 -0.7511
18134TIP3   OH275816   4.831   3.504  11.209  0.1511  0.0757 -0.0257
18134TIP3    H175817   4.835   3.528  11.116  0.7297 -0.9998 -0.2895
18134TIP3    H275818   4.805   3.412  11.210 -2.7523  0.7952  0.9979
18135TIP3   OH275819   5.037   1.703   0.405  0.8108 -0.0421  0.4910
18135TIP3    H175820   5.124   1.743   0.403  0.1400  1.5161  0.7483
18135TIP3    H275821   4.987   1.757   0.467 -0.7397 -0.0249 -0.7098
18136TIP3   OH275822   2.157   1.773   4.182 -0.0982 -0.0857 -0.2190
18136TIP3    H175823   2.182   1.864   4.172 -0.8072  0.0325 -0.9925
18136TIP3    H275824   2.115   1.768   4.268 -0.4625  0.4023 -0.3722
18137TIP3   OH275825   6.592   6.419  12.328 -0.0162  0.6003 -0.2334
18137TIP3    H175826   6.503   6.386  12.313  0.6442 -0.2655 -2.6598
18137TIP3    H275827   6.588   6.510  12.300 -0.2677  0.7400  0.2416
18138TIP3   OH275828   5.907   6.430  16.980 -0.1700 -0.1263 -0.6661
18138TIP3    H175829   5.858   6.350  16.961 -1.2859  0.6357 -1.1057
18138TIP3    H275830   5.995   6.400  16.999 -1.1065 -1.7153  1.6994
18139TIP3   OH275831   4.029   4.982  16.369 -0.5840 -0.5378  0.3592
18139TIP3    H175832   4.095   5.027  16.422  0.3051 -0.5697 -0.7085
18139TIP3    H275833   3.984   4.925  16.432  1.3611 -1.6204  0.8642
18140TIP3   OH275834   1.019   3.476   2.771 -0.8189 -0.0126  0.4596
18140TIP3    H175835   0.975   3.548   2.725 -0.6675  0.9315  1.7455
18140TIP3    H275836   1.112   3.489   2.750 -0.8937 -0.5550 -0.2616
18141TIP3   OH275837   0.211   2.861   1.656  0.1938 -0.2595  0.0587
18141TIP3    H175838   0.219   2.777   1.701 -1.1625  0.1384  1.1306
18141TIP3    H275839   0.294   2.871   1.609  2.0809 -0.3957  3.0657
18142TIP3   OH275840   0.902   0.370   4.175 -0.8458  0.3364 -0.2469
18142TIP3    H175841   0.915   0.420   4.094  1.7670  1.3222  0.6652
18142TIP3    H275842   0.843   0.424   4.227 -0.7516  0.8004 -0.6105
18143TIP3   OH275843   5.662   2.856  17.116 -0.3348 -0.2426  0.1769
18143TIP3    H175844   5.734   2.824  17.062  0.4498  1.4494  0.1740
18143TIP3    H275845   5.701   2.922  17.173 -1.7855  0.3884  0.4982
18144TIP3   OH275846   6.515   6.135  13.846  0.2340  0.1644  0.0048
18144TIP3    H175847   6.441   6.190  13.820  0.8033  1.7618  1.5096
18144TIP3    H275848   6.476   6.049  13.861 -1.0021  0.5355 -0.8843
18145TIP3   OH275849   1.290   2.742   0.094 -0.2264  0.0137  0.1650
18145TIP3    H175850   1.220   2.806   0.108  0.7712  0.9423  1.1717
18145TIP3    H275851   1.289   2.724   0.000 -0.9592  1.0157 -0.0286
18146TIP3   OH275852   6.478   6.347  16.630 -0.0083 -0.0103  0.3161
18146TIP3    H175853   6.404   6.333  16.689  1.1290  0.2013  1.8562
18146TIP3    H275854   6.516   6.261  16.618 -1.4917 -0.4450 -1.9473
18147TIP3   OH275855   3.232   1.092  14.883  0.5094 -0.5875 -0.2009
18147TIP3    H175856   3.273   1.143  14.813  0.8287 -0.1072  0.3227
18147TIP3    H275857   3.256   1.139  14.963 -1.0329 -0.3244  0.1336
18148TIP3   OH275858   4.618   3.715   6.706 -0.2230  0.7728 -0.1030
18148TIP3    H175859   4.688   3.706   6.642 -0.3661  0.7342 -0.2560
18148TIP3    H275860   4.545   3.754   6.656 -1.0687 -1.1849 -0.4946
18149TIP3   OH275861   3.190   2.230  11.268 -0.1732 -0.2795  0.1365
18149TIP3    H175862   3.170   2.158  11.327  0.4205  0.3742  1.1664
18149TIP3    H275863   3.276   2.207  11.231  0.9096  0.7405  1.8848
18150TIP3   OH275864   4.098   1.268  17.226  0.3730 -0.3474  0.4850
18150TIP3    H175865   4.115   1.177  17.250  0.0807 -0.9227 -1.3386
18150TIP3    H275866   4.062   1.263  17.137  0.6014  1.5768  0.2468
18151TIP3   OH275867   5.051   6.407   5.338 -0.1100 -0.0449 -0.3344
18151TIP3    H175868   4.977   6.356   5.371 -0.5663  0.6660 -0.2205
18151TIP3    H275869   5.033   6.497   5.368  1.5344 -0.0936  0.9671
18152TIP3   OH275870   0.578   4.674   3.489 -0.6429 -0.3448 -0.2145
18152TIP3    H175871   0.615   4.733   3.423 -0.2817  0.6665  0.8656
18152TIP3    H275872   0.491   4.652   3.455 -1.0505  1.3554 -0.3338
18153TIP3   OH275873   1.223   6.657   1.617  0.0414 -0.5004  0.2610
18153TIP3    H175874   1.243   6.599   1.691  1.0141 -0.3212  0.1486
18153TIP3    H275875   1.159   6.608   1.566 -1.6793 -0.0734  1.9036
18154TIP3   OH275876   4.096   2.172   3.612  0.2048  0.3500 -0.3669
18154TIP3    H175877   4.141   2.225   3.547 -0.7470  0.7869 -0.6867
18154TIP3    H275878   4.020   2.224   3.637 -0.0531 -0.3089  0.2680
18155TIP3   OH275879   4.701   1.414   5.863  0.0022 -0.4987  0.2358
18155TIP3    H175880   4.608   1.423   5.843 -0.4339  0.8365  2.5936
18155TIP3    H275881   4.719   1.321   5.851 -1.5446 -0.7430 -0.4819
18156TIP3   OH275882   5.745   2.215  12.755  0.0243  0.0090 -0.3994
18156TIP3    H175883   5.811   2.156  12.790 -0.3027  0.1203  0.4329
18156TIP3    H275884   5.761   2.217  12.661  1.2273  0.0680 -0.2022
18157TIP3   OH275885   1.319   2.654  12.156 -0.6452  0.2131  0.3814
18157TIP3    H175886   1.223   2.659  12.151 -0.5737  1.2857 -0.1361
18157TIP3    H275887   1.349   2.681  12.070  0.1312 -0.5078  0.4120
18158TIP3   OH275888   6.513   0.577   0.957  0.2529 -0.1627  1.0498
18158TIP3    H175889   6.513   0.529   1.039  0.0261 -1.2489  0.4404
18158TIP3    H275890   6.604   0.573   0.927  0.3267  0.1931  1.2182
18159TIP3   OH275891   3.341   4.056   1.359  0.2989  0.0470  0.7309
18159TIP3    H175892   3.254   4.016   1.357 -0.0847  0.6577 -3.0481
18159TIP3    H275893   3.326   4.145   1.393 -1.0801  0.8923 -1.8216
18160TIP3   OH275894   3.354   4.167   3.259 -0.0952  0.0747  0.2807
18160TIP3    H175895   3.439   4.199   3.287 -0.0903 -0.5476  1.0100
18160TIP3    H275896   3.295   4.188   3.332  0.0163 -2.0239  1.0351
18161TIP3   OH275897   0.463   4.797  15.494 -0.4295  0.0800  0.0307
18161TIP3    H175898   0.368   4.798  15.497 -0.4402  2.0369 -0.1912
18161TIP3    H275899   0.487   4.717  15.541 -2.1403  0.0574  0.9432
18162TIP3   OH275900   0.126   6.260   0.343 -0.0221  0.0350 -0.2086
18162TIP3    H175901   0.145   6.171   0.373 -1.0978 -0.2601 -0.3542
18162TIP3    H275902   0.032   6.269   0.354  0.0392  1.0623 -0.4716
18163TIP3   OH275903   0.358   1.061   6.369 -0.0133 -0.2919 -0.6867
18163TIP3    H175904   0.349   1.114   6.290  1.2459  1.5724  0.3384
18163TIP3    H275905   0.443   1.087   6.405  0.3603 -2.5666  0.2470
18164TIP3   OH275906   5.255   4.280   3.778 -0.4385  0.1951 -0.1054
18164TIP3    H175907   5.286   4.194   3.804 -2.7558 -1.9015 -3.5428
18164TIP3    H275908   5.303   4.299   3.697  0.3807  2.4393  0.8304
18165TIP3   OH275909   4.612   6.771  10.907  0.2366 -0.1615  0.3268
18165TIP3    H175910   4.533   6.762  10.853 -1.2513 -0.1548  2.3645
18165TIP3    H275911   4.679   6.724  10.859 -1.1666 -0.7671 -1.1644
18166TIP3   OH275912   0.941   0.858  14.069 -0.4219  0.1464  0.3174
18166TIP3    H175913   0.977   0.871  14.157  0.3595 -0.9157  0.1780
18166TIP3    H275914   1.018   0.860  14.011 -0.7370 -0.8010 -0.1523
18167TIP3   OH275915   4.431   0.877  15.797  0.3042  0.0653 -0.3085
18167TIP3    H175916   4.368   0.828  15.745 -1.6986  0.2681  1.7426
18167TIP3    H275917   4.422   0.841  15.885  0.0151  2.8525  0.9247
18168TIP3   OH275918   5.671   3.201   4.454 -0.1321 -0.2276 -0.5088
18168TIP3    H175919   5.632   3.260   4.517 -1.4959 -1.0323 -0.5709
18168TIP3    H275920   5.598   3.152   4.417  0.8934 -1.6277 -0.7920
18169TIP3   OH275921   3.915   6.667   2.970  0.2431  0.4894 -0.0681
18169TIP3    H175922   3.986   6.629   2.917  0.3740  0.3650  0.1916
18169TIP3    H275923   3.945   6.655   3.060 -1.0080 -1.4264  0.1552
18170TIP3   OH275924   2.924   1.906  13.063  0.1284 -0.6243  0.1498
18170TIP3    H175925   3.011   1.946  13.067  0.2508 -0.9944  1.7608
18170TIP3    H275926   2.921   1.862  12.978  1.4310 -0.4268 -0.0074
18171TIP3   OH275927   5.742   6.407   1.994  0.1650 -0.3359  0.3073
18171TIP3    H175928   5.773   6.348   2.063  0.3171 -0.6751 -0.0489
18171TIP3    H275929   5.656   6.436   2.024  0.8731  0.7562  1.3949
18172TIP3   OH275930   1.419   5.312  12.366  0.5046  0.4742 -0.0325
18172TIP3    H175931   1.431   5.378  12.298  0.7988  0.3052 -0.1449
18172TIP3    H275932   1.328   5.284  12.357  0.8308 -0.3143 -1.0393
18173TIP3   OH275933   2.916   0.554  11.115 -0.2953  0.1305  0.0394
18173TIP3    H175934   2.898   0.485  11.179 -0.6885 -1.0532 -1.2935
18173TIP3    H275935   2.910   0.510  11.031 -2.1823  2.1352 -0.9696
18174TIP3   OH275936   4.052   2.555  16.310  0.1039  0.1105  0.3800
18174TIP3    H175937   3.980   2.605  16.350  0.3665  0.9063 -0.1103
18174TIP3    H275938   4.044   2.468  16.348 -0.8318  0.3151  0.6973
18175TIP3   OH275939   6.624   3.417   5.096 -0.3487 -0.7151 -0.9083
18175TIP3    H175940   6.579   3.469   5.030  1.0307 -0.6850 -1.8475
18175TIP3    H275941   6.661   3.343   5.048  0.2367 -0.9695 -0.0928
18176TIP3   OH275942   0.909   0.670   5.518  0.2452 -0.5741  0.8208
18176TIP3    H175943   0.862   0.703   5.441  0.4249 -0.6162  0.6909
18176TIP3    H275944   0.841   0.649   5.581  0.0506 -1.2640  0.3857
18177TIP3   OH275945   0.007   2.759   2.195  0.2192 -0.1200  0.1652
18177TIP3    H175946   0.101   2.769   2.180  0.0500  0.1052 -0.8131
18177TIP3    H275947  -0.034   2.785   2.112 -0.6708 -0.8569  0.3478
18178TIP3   OH275948   1.985   2.313  15.336 -0.2133  0.0434 -0.2590
18178TIP3    H175949   2.034   2.394  15.348 -0.4341 -0.2985  5.6078
18178TIP3    H275950   2.049   2.243  15.351 -0.6840 -0.8824 -2.1532
18179TIP3   OH275951   1.920   5.789  13.601 -0.1482 -0.4781 -0.4242
18179TIP3    H175952   1.847   5.778  13.662 -1.1415  2.3923 -0.9558
18179TIP3    H275953   1.879   5.807  13.517  1.1293  1.1631 -0.7428
18180TIP3   OH275954   5.819   2.772   4.746 -0.1461 -0.3568  0.5292
18180TIP3    H175955   5.865   2.736   4.670  0.9825 -1.5874  1.7438
18180TIP3    H275956   5.873   2.847   4.773 -0.7287  0.2847 -0.0709
18181TIP3   OH275957   5.774   0.507   2.480 -0.6700 -0.6294 -0.3418
18181TIP3    H175958   5.842   0.491   2.415  1.5582 -1.1291  1.9539
18181TIP3    H275959   5.754   0.601   2.471 -0.0761 -0.5870 -1.3787
18182TIP3   OH275960   2.494   2.159  11.758  0.0089  0.9677  0.4361
18182TIP3    H175961   2.404   2.163  11.727  0.4626  1.7006 -0.8293
18182TIP3    H275962   2.517   2.066  11.753 -0.6666  0.7807  0.7538
18183TIP3   OH275963   1.248   2.696   3.642 -0.4325 -0.2661  0.4871
18183TIP3    H175964   1.277   2.788   3.637 -1.9819  0.2907  1.2618
18183TIP3    H275965   1.283   2.656   3.562  1.1965  0.7127  0.6666
18184TIP3   OH275966   5.684   1.607  15.624 -0.2606  0.1574  0.1983
18184TIP3    H175967   5.706   1.636  15.535 -1.0167  2.0465  0.5820
18184TIP3    H275968   5.588   1.604  15.625 -0.3323  1.6480  1.3504
18185TIP3   OH275969   6.103   4.176  14.404 -0.1996 -0.3393  0.7306
18185TIP3    H175970   6.186   4.183  14.357  0.7018  0.6699  2.3961
18185TIP3    H275971   6.117   4.106  14.468 -0.7237 -0.3151  0.8782
18186TIP3   OH275972   2.598   4.561  15.602  1.0963 -0.4934  0.0636
18186TIP3    H175973   2.579   4.475  15.564  0.9202 -0.3219 -0.2334
18186TIP3    H275974   2.693   4.568  15.598  1.1648 -0.9693  0.7290
18187TIP3   OH275975   3.017   3.067  12.043 -0.3107  0.3313 -0.5150
18187TIP3    H175976   3.038   3.136  11.980 -2.4197  2.2400  0.6975
18187TIP3    H275977   2.937   3.027  12.007 -0.1395 -0.2395 -0.2667
18188TIP3   OH275978   4.816   4.933  16.681 -0.0595  0.1663  0.4739
18188TIP3    H175979   4.824   4.945  16.775 -0.2835 -1.8756  0.7958
18188TIP3    H275980   4.889   4.876  16.657  0.4949  1.3318 -0.7565
18189TIP3   OH275981   6.015   3.703   0.827  0.0656 -0.2702 -0.0223
18189TIP3    H175982   6.100   3.685   0.867  0.5316 -0.4570 -1.0435
18189TIP3    H275983   6.037   3.753   0.748 -0.8071  0.0152 -0.0926
18190TIP3   OH275984   1.978   5.555  14.224 -0.2524 -0.1728 -0.1967
18190TIP3    H175985   1.995   5.649  14.219 -0.4214 -0.1550 -0.4706
18190TIP3    H275986   1.918   5.546  14.297 -1.3883  0.1112 -1.0551
18191TIP3   OH275987   3.969   5.455   1.892 -0.3736  0.4363  0.4245
18191TIP3    H175988   4.029   5.399   1.843 -0.5257 -0.9722  1.7675
18191TIP3    H275989   3.905   5.395   1.930 -0.5085  1.5056  1.9840
18192TIP3   OH275990   3.194   3.229   4.456  0.5035  0.4902  0.4549
18192TIP3    H175991   3.218   3.155   4.399  1.5105  1.5757 -0.5987
18192TIP3    H275992   3.274   3.250   4.504  0.0859  0.5859  1.1264
18193TIP3   OH275993   1.929   1.485   4.423 -0.1397  0.1151 -0.2395
18193TIP3    H175994   1.972   1.430   4.489 -2.2240 -1.2474  0.0796
18193TIP3    H275995   1.904   1.424   4.353 -0.7609  0.9939 -0.8084
18194TIP3   OH275996   2.844   4.166  14.083  1.1661  0.2185 -0.2510
18194TIP3    H175997   2.755   4.189  14.108  0.6780 -1.6625 -0.0945
18194TIP3    H275998   2.888   4.250  14.069 -1.1452  1.2322 -2.2175
18195TIP3   OH275999   0.771   0.125  12.994  0.3955  0.0913  0.2308
18195TIP3    H176000   0.752   0.196  13.055  1.4115  1.2930 -0.7840
18195TIP3    H276001   0.832   0.068  13.041  1.3908  1.1524  0.2610
18196TIP3   OH276002   4.666   3.681   3.452  0.1783 -0.1996  0.1790
18196TIP3    H176003   4.611   3.758   3.439  1.1734  1.2600  3.6544
18196TIP3    H276004   4.727   3.682   3.378 -1.5345  0.7263 -1.2906
18197TIP3   OH276005   0.772   5.515  14.964 -0.6315 -0.5711 -0.2088
18197TIP3    H176006   0.829   5.522  14.888  1.0758 -1.7680  0.8923
18197TIP3    H276007   0.734   5.428  14.958  1.8693 -1.9559  1.7491
18198TIP3   OH276008   3.066   0.329   1.773  0.0433 -0.4060 -0.0617
18198TIP3    H176009   3.045   0.272   1.698  0.6450 -0.4759 -0.1836
18198TIP3    H276010   3.103   0.408   1.733 -1.7547  0.5323  0.0490
18199TIP3   OH276011   1.320   3.264  17.023  0.3630  0.0911  0.4300
18199TIP3    H176012   1.334   3.356  17.042  0.7960 -0.0103  0.6217
18199TIP3    H276013   1.405   3.222  17.042  0.2113 -0.3216  0.2193
18200TIP3   OH276014   4.355   2.826  16.276  0.5988  0.8147 -0.4056
18200TIP3    H176015   4.278   2.821  16.333 -1.4141 -1.7586 -3.0833
18200TIP3    H276016   4.320   2.853  16.191  2.7312 -0.0217 -1.6205
18201TIP3   OH276017   0.331   5.652   6.490 -0.9532  0.2262  0.8299
18201TIP3    H176018   0.258   5.686   6.438  0.1860  0.5921 -0.5908
18201TIP3    H276019   0.345   5.717   6.558 -0.7522  1.1302 -0.0456
18202TIP3   OH276020   0.305   2.931   3.191  0.2667  0.5289 -0.1541
18202TIP3    H176021   0.274   2.871   3.123 -2.2700  0.7375  0.7146
18202TIP3    H276022   0.396   2.950   3.167 -0.3002  0.0211 -3.0714
18203TIP3   OH276023   2.268   6.708  10.928  0.5463 -0.1071 -0.0988
18203TIP3    H176024   2.216   6.695  10.849  1.3260 -0.6100 -0.5433
18203TIP3    H276025   2.204   6.730  10.996 -0.2614 -0.9009 -0.5857
18204TIP3   OH276026   1.586   2.465   4.708 -0.6985  0.1145  0.4335
18204TIP3    H176027   1.602   2.371   4.720  0.5328  0.5073  2.2802
18204TIP3    H276028   1.541   2.492   4.787  1.4508  1.5636  1.2589
18205TIP3   OH276029   2.919   4.304   2.916 -0.6628 -0.0868  0.0674
18205TIP3    H176030   2.982   4.232   2.912  0.0711  0.6013 -1.5313
18205TIP3    H276031   2.902   4.327   2.825 -3.1438 -0.1209  0.4415
18206TIP3   OH276032   0.342   2.536  13.472  0.6441 -0.2744  0.3317
18206TIP3    H176033   0.421   2.483  13.458 -0.2438 -2.0608  1.7202
18206TIP3    H276034   0.285   2.512  13.399  0.4705 -0.8143  0.6393
18207TIP3   OH276035   3.638   3.496   0.424 -0.4772  0.1759  0.5133
18207TIP3    H176036   3.706   3.473   0.488 -0.0612 -0.4091 -0.1217
18207TIP3    H276037   3.643   3.427   0.358 -1.8876 -0.0273  0.5904
18208TIP3   OH276038   3.758   6.336  10.309 -0.3876 -0.6469 -0.0795
18208TIP3    H176039   3.775   6.333  10.403  0.8875 -0.3880 -0.2823
18208TIP3    H276040   3.791   6.253  10.276  1.1485  0.1198 -0.5739
18209TIP3   OH276041   3.719   5.424  12.435 -0.3532  0.4500 -0.3070
18209TIP3    H176042   3.637   5.384  12.466  0.3933 -1.0585 -0.1874
18209TIP3    H276043   3.739   5.376  12.355  0.3455  0.8977 -0.4000
18210TIP3   OH276044   4.747   5.100  13.705  0.1841  0.0826  0.1776
18210TIP3    H176045   4.779   5.054  13.628  0.6564 -0.0416  0.4440
18210TIP3    H276046   4.721   5.030  13.765 -0.2512  0.1786  0.1066
18211TIP3   OH276047   1.112   1.803  17.359 -0.0997 -0.0753  0.1557
18211TIP3    H176048   1.087   1.726  17.308 -0.1549  0.3537 -0.4679
18211TIP3    H276049   1.208   1.803  17.357 -0.0762 -0.5393  0.7865
18212TIP3   OH276050   6.254   1.252   1.944 -0.3626 -0.2975  0.0730
18212TIP3    H176051   6.343   1.218   1.930 -0.6706 -0.4619 -1.7331
18212TIP3    H276052   6.199   1.174   1.946 -0.3951 -0.2590  2.1143
18213TIP3   OH276053   6.105   4.054   0.223  0.2323 -0.2237 -0.6189
18213TIP3    H176054   6.103   4.028   0.131  0.9741  1.0056 -1.0014
18213TIP3    H276055   6.054   4.135   0.226 -0.9050 -0.9458  0.3016
18214TIP3   OH276056   6.527   0.788   0.197 -0.3654  1.1131 -0.0763
18214TIP3    H176057   6.534   0.730   0.273  1.6299 -0.7511 -1.5874
18214TIP3    H276058   6.452   0.754   0.148 -0.3291  0.9655 -0.0305
18215TIP3   OH276059   1.431   3.781   2.817 -0.1028  0.1591  0.0479
18215TIP3    H176060   1.352   3.734   2.788 -1.2378  1.5002  0.8148
18215TIP3    H276061   1.478   3.718   2.871 -0.8482 -0.5562 -0.1162
18216TIP3   OH276062   0.107   6.504  15.790 -0.0872 -0.3031 -0.0160
18216TIP3    H176063   0.087   6.415  15.760  1.7763 -0.3071 -1.4534
18216TIP3    H276064   0.165   6.491  15.865  2.0342 -0.3989 -1.5785
18217TIP3   OH276065   5.985   0.387  12.953 -0.4526  0.2106  0.4329
18217TIP3    H176066   6.037   0.315  12.989 -1.4204 -1.0675 -0.5844
18217TIP3    H276067   5.983   0.369  12.859 -1.3892  1.1272  0.2609
18218TIP3   OH276068   5.292   1.102   4.221 -0.8598 -0.2028  0.1842
18218TIP3    H176069   5.309   1.058   4.138  0.0654 -1.0028  0.7815
18218TIP3    H276070   5.237   1.177   4.197  0.5842  0.4418 -1.3478
18219TIP3   OH276071   2.369   2.978   2.141  0.3323 -0.0012 -0.2115
18219TIP3    H176072   2.308   2.904   2.144 -0.7060  0.7880 -1.0820
18219TIP3    H276073   2.382   2.995   2.048  1.0425  0.5363 -0.0253
18220TIP3   OH276074   1.653   3.787   1.727 -0.2053  0.1182  0.0125
18220TIP3    H176075   1.570   3.750   1.697 -0.7886  1.3482  0.0811
18220TIP3    H276076   1.719   3.725   1.694 -1.1165 -0.7796 -0.1997
18221TIP3   OH276077   2.854   0.005  13.633  0.3633 -0.6906 -0.5559
18221TIP3    H176078   2.838   0.089  13.677  2.4277 -0.1019 -0.8183
18221TIP3    H276079   2.776  -0.009  13.579 -0.2741  0.7727 -0.0680
18222TIP3   OH276080   2.587   5.999  15.429  0.5729  0.0406  0.3778
18222TIP3    H176081   2.550   6.019  15.515  0.6540  0.5123  0.3097
18222TIP3    H276082   2.664   5.944  15.448 -0.3702 -1.2836  0.4951
18223TIP3   OH276083   2.071   0.221  13.665  0.2044 -0.4739  0.2974
18223TIP3    H176084   2.042   0.303  13.624 -1.9470 -1.4619 -0.2826
18223TIP3    H276085   2.137   0.249  13.729  1.0865  1.4723 -1.3286
18224TIP3   OH276086   1.602   1.413  11.863 -0.0795 -0.0164  0.5010
18224TIP3    H176087   1.603   1.425  11.768 -1.9074 -0.4465  0.3853
18224TIP3    H276088   1.520   1.368  11.881 -0.5197  1.3833  2.4329
18225TIP3   OH276089   6.555   0.215  15.989  0.4866  0.2842 -0.2083
18225TIP3    H176090   6.592   0.198  15.902 -0.5373 -0.0184 -0.6014
18225TIP3    H276091   6.470   0.171  15.988  0.7001 -0.1988  1.1548
18226TIP3   OH276092   2.100   3.879  11.275  0.1697  0.5802 -0.3659
18226TIP3    H176093   2.165   3.858  11.207  1.7728  0.4678  1.1320
18226TIP3    H276094   2.046   3.800  11.281  0.1537  0.4984 -1.3099
18227TIP3   OH276095   4.051   4.332  12.548 -0.2678  0.6345 -0.0785
18227TIP3    H176096   4.040   4.237  12.547  3.1010  0.0997  0.9328
18227TIP3    H276097   4.084   4.353  12.461 -0.9531  0.9067 -0.2812
18228TIP3   OH276098   3.210   0.249  14.581  0.3178  0.3971  0.1752
18228TIP3    H176099   3.234   0.196  14.505  1.2879  2.2615 -0.8869
18228TIP3    H276100   3.290   0.251  14.634 -0.6429 -1.7382  1.8589
18229TIP3   OH276101   2.318   6.268  14.142 -0.0471  0.3454  0.9403
18229TIP3    H176102   2.408   6.235  14.136 -0.3567 -0.3289 -0.3229
18229TIP3    H276103   2.300   6.304  14.056 -1.1678  0.0041  1.0121
18230TIP3   OH276104   3.895   5.568   0.201 -0.2877 -0.3115 -0.2971
18230TIP3    H176105   3.851   5.510   0.264  2.2602 -3.1670 -0.8866
18230TIP3    H276106   3.846   5.556   0.120 -1.0143 -0.0115  0.0909
18231TIP3   OH276107   4.522   5.528   3.668 -0.0013  0.5461 -0.3885
18231TIP3    H176108   4.483   5.551   3.752 -0.4403 -0.0571 -0.4240
18231TIP3    H276109   4.614   5.554   3.676  0.3726 -1.0217  0.8968
18232TIP3   OH276110   4.345   6.670   2.568 -0.1789 -0.6596  0.2234
18232TIP3    H176111   4.364   6.666   2.662 -0.7399  0.7265  0.4228
18232TIP3    H276112   4.429   6.694   2.529 -0.0922 -0.5985  0.4411
18233TIP3   OH276113   4.321   3.845  16.283  0.3723 -0.0281  0.0354
18233TIP3    H176114   4.311   3.917  16.345  0.3734  0.4769 -0.5420
18233TIP3    H276115   4.387   3.788  16.322  0.6667  0.4950  0.3040
18234TIP3   OH276116   1.645   6.431   5.343 -0.1091 -0.0358  0.2697
18234TIP3    H176117   1.671   6.515   5.306  0.3913 -0.9614 -1.5628
18234TIP3    H276118   1.676   6.434   5.434 -0.2042  1.7720  0.2684
18235TIP3   OH276119   0.580   3.951  14.460 -0.0409  0.3844  0.4939
18235TIP3    H176120   0.578   4.045  14.439 -1.0915  0.3231  0.2933
18235TIP3    H276121   0.664   3.921  14.424 -0.2568  0.9915 -0.5884
18236TIP3   OH276122   4.668   4.389  15.130  0.0175  0.1720  0.0928
18236TIP3    H176123   4.630   4.367  15.215  2.5424 -0.3871  1.1433
18236TIP3    H276124   4.655   4.310  15.077 -2.1694  0.7524 -0.3670
18237TIP3   OH276125   0.719   1.921   5.185 -0.1983  0.1757  0.2475
18237TIP3    H176126   0.808   1.919   5.149  0.1617  1.6220  0.9919
18237TIP3    H276127   0.724   1.981   5.259 -2.2708  2.0814 -1.0021
18238TIP3   OH276128   0.656   1.255  12.235 -0.2449 -0.4802  0.2170
18238TIP3    H176129   0.618   1.176  12.198 -0.4870 -0.4746  0.4531
18238TIP3    H276130   0.751   1.245  12.220 -0.1866 -1.1980  0.9766
18239TIP3   OH276131   4.755   0.241  14.557  0.0201  0.1245  0.5479
18239TIP3    H176132   4.797   0.198  14.483  1.1480  3.1003 -0.6781
18239TIP3    H276133   4.827   0.262  14.617 -0.0464  2.3849 -0.0587
18240TIP3   OH276134   2.658   2.890   0.345 -0.1979  0.2118  0.1741
18240TIP3    H176135   2.714   2.813   0.335  1.1459  1.0903  0.7100
18240TIP3    H276136   2.657   2.906   0.439 -1.9874 -0.2205  0.2581
18241TIP3   OH276137   0.763   0.956   4.224  0.0054 -0.1473  0.2539
18241TIP3    H176138   0.785   0.993   4.138  0.5270  0.8596  0.8004
18241TIP3    H276139   0.670   0.935   4.218  0.2165 -0.8448 -0.8172
18242TIP3   OH276140   6.535   1.696  13.876 -0.6817  0.2955 -0.5990
18242TIP3    H176141   6.599   1.727  13.940 -1.2200 -2.9813  1.7842
18242TIP3    H276142   6.460   1.755  13.886  0.3057  1.5553 -0.3357
18243TIP3   OH276143   5.247   0.262   2.133  0.0071  0.6762  0.0367
18243TIP3    H176144   5.256   0.292   2.043  1.1265  1.7734  0.4860
18243TIP3    H276145   5.307   0.187   2.139  0.6576  1.1816  0.0868
18244TIP3   OH276146   2.380   3.104  12.099 -0.4400  0.2464  0.3261
18244TIP3    H176147   2.396   3.043  12.170 -0.0313  0.9063  0.8142
18244TIP3    H276148   2.463   3.109  12.051 -1.0154 -1.0066 -0.8622
18245TIP3   OH276149   1.916   2.749  11.440  0.1485 -0.1150  0.1640
18245TIP3    H176150   1.837   2.802  11.450  0.7600  1.0333 -0.7862
18245TIP3    H276151   1.987   2.813  11.444  0.9951 -1.0516  0.3378
18246TIP3   OH276152   5.198   3.864  14.641  0.3598  0.1013  0.2620
18246TIP3    H176153   5.172   3.799  14.575  1.0316  1.7723 -1.7647
18246TIP3    H276154   5.280   3.831  14.676  0.2501 -0.5683 -0.0921
18247TIP3   OH276155   5.846   1.928   3.292 -0.0464  0.4997  0.3714
18247TIP3    H176156   5.794   1.864   3.342 -0.4031 -0.3887 -1.0868
18247TIP3    H276157   5.808   2.013   3.315 -0.9097  0.0196  0.7818
18248TIP3   OH276158   5.525   4.452  15.243  0.1303 -0.4040  0.0459
18248TIP3    H176159   5.548   4.437  15.151  0.6131 -1.0472  0.2644
18248TIP3    H276160   5.439   4.413  15.253  0.0159 -0.2080 -0.1660
18249TIP3   OH276161   5.266   4.082  13.929 -0.0331  0.2153 -0.0363
18249TIP3    H176162   5.269   4.032  13.847  0.6274 -1.8461  1.1687
18249TIP3    H276163   5.293   4.171  13.904  3.1734 -1.0366 -1.6449
18250TIP3   OH276164   1.322   0.504  12.358 -0.2123 -0.0168 -0.4432
18250TIP3    H176165   1.246   0.479  12.411  0.6634  0.0704  0.9050
18250TIP3    H276166   1.392   0.518  12.422  0.8953  0.0864 -1.6404
18251TIP3   OH276167   0.735   0.272  16.088 -0.4698  0.5422 -0.0786
18251TIP3    H176168   0.825   0.268  16.121 -0.4367  0.6934 -0.1509
18251TIP3    H276169   0.732   0.351  16.035 -0.1222 -0.4330 -1.6114
18252TIP3   OH276170   4.696   4.053  10.751  0.0249  0.3704 -0.0737
18252TIP3    H176171   4.751   4.124  10.784  0.7961 -0.5696  0.7127
18252TIP3    H276172   4.612   4.066  10.795 -0.7593  2.3463 -1.9627
18253TIP3   OH276173   5.070   1.779  13.536 -0.2651 -0.3763 -0.2044
18253TIP3    H176174   5.021   1.698  13.520 -0.4687 -0.0259 -1.4054
18253TIP3    H276175   5.115   1.797  13.454 -0.7296  1.0665 -0.1717
18254TIP3   OH276176   5.572   6.597  15.515  0.0259 -0.0657  0.2778
18254TIP3    H176177   5.501   6.633  15.569  0.0118 -2.0330  1.6746
18254TIP3    H276178   5.559   6.503  15.518  1.8716 -0.3925 -0.6336
18255TIP3   OH276179   0.946   4.548  16.381  0.6457 -0.5453  0.0535
18255TIP3    H176180   0.974   4.636  16.405  0.4263 -1.0661  2.4958
18255TIP3    H276181   0.863   4.561  16.335 -0.3251  0.5114  1.9395
18256TIP3   OH276182   6.670   2.789  17.371 -0.2505 -0.1617  0.1106
18256TIP3    H176183   6.697   2.788  17.463 -0.1558 -0.3065  0.0812
18256TIP3    H276184   6.628   2.875  17.360 -1.9954 -0.8721  0.7831
18257TIP3   OH276185   5.807   3.355  15.588  0.2123  0.2157 -0.4473
18257TIP3    H176186   5.719   3.367  15.553 -0.1022 -0.5662  0.0594
18257TIP3    H276187   5.845   3.443  15.588 -0.7082  0.6201 -0.3006
18258TIP3   OH276188   0.084   2.757   5.392 -0.7880  0.5071  0.7136
18258TIP3    H176189   0.143   2.832   5.386 -1.9373  1.3966  0.1927
18258TIP3    H276190   0.141   2.684   5.420  0.9508  0.8786 -1.4862
18259TIP3   OH276191   4.036   1.826   0.368 -0.2160  0.2473 -0.2112
18259TIP3    H176192   4.029   1.780   0.284 -0.5899 -0.2544  0.0843
18259TIP3    H276193   4.118   1.874   0.363 -0.2865  0.3010 -0.9053
18260TIP3   OH276194   3.503   2.162   0.781  0.3434 -0.1619 -0.1883
18260TIP3    H176195   3.532   2.253   0.784  0.1983 -0.0618 -1.4596
18260TIP3    H276196   3.582   2.112   0.764  0.5605 -0.3732  1.3074
18261TIP3   OH276197   2.110   6.588   4.323 -0.3937  0.3470  0.2961
18261TIP3    H176198   2.039   6.543   4.369 -0.7792  1.1031  0.4496
18261TIP3    H276199   2.184   6.527   4.329 -0.3789  0.4770  2.0584
18262TIP3   OH276200   1.447   0.108   0.175  0.1903  0.0347  0.8348
18262TIP3    H176201   1.415   0.174   0.113 -3.5349  1.7610  4.1236
18262TIP3    H276202   1.439   0.151   0.261  2.0320 -3.2267  2.8298
18263TIP3   OH276203   4.472   4.949   2.246 -0.3719 -0.3096 -0.2570
18263TIP3    H176204   4.480   4.981   2.157  1.0446  1.0583  0.3197
18263TIP3    H276205   4.551   4.897   2.260  0.1809  0.7239  0.6521
18264TIP3   OH276206   1.616   1.333   1.631  0.0292 -0.4082 -0.0065
18264TIP3    H176207   1.657   1.339   1.545  1.1321  0.6397  0.5596
18264TIP3    H276208   1.537   1.386   1.624  0.1601 -0.2571 -0.3522
18265TIP3   OH276209   3.383   1.617   4.732  0.1081  0.1666  0.5620
18265TIP3    H176210   3.412   1.665   4.810 -0.9951  0.8195  0.6041
18265TIP3    H276211   3.446   1.641   4.664 -0.5358  1.9570  0.5128
18266TIP3   OH276212   6.021   3.084  14.895  0.0496  0.0865  0.6157
18266TIP3    H176213   5.959   3.076  14.967 -0.5439  1.0636  0.2371
18266TIP3    H276214   6.008   3.006  14.843 -0.7470  0.2049  0.6359
18267TIP3   OH276215   5.871   4.044   0.453  0.3144 -0.2184 -0.1270
18267TIP3    H176216   5.950   4.080   0.495  1.7317  0.5529 -3.1555
18267TIP3    H276217   5.858   3.960   0.496  1.4682  0.5832  1.9593
18268TIP3   OH276218   5.704   5.001  15.425  1.0123 -0.0728  0.4871
18268TIP3    H176219   5.650   4.953  15.362  0.2628 -0.4321  1.3865
18268TIP3    H276220   5.785   4.950  15.430  0.4383 -0.9678  1.0217
18269TIP3   OH276221   3.436   6.225  12.004 -0.1497  0.3308 -0.4089
18269TIP3    H176222   3.382   6.304  12.007  0.4156  0.6928  0.4540
18269TIP3    H276223   3.443   6.206  11.910 -0.7294  0.9938 -0.6027
18270TIP3   OH276224   1.869   5.160  13.457 -0.9182 -0.0771 -0.3189
18270TIP3    H176225   1.809   5.168  13.383  0.4051 -1.1102 -1.5677
18270TIP3    H276226   1.923   5.239  13.453  1.0518 -1.3795 -2.3256
18271TIP3   OH276227   0.194   5.574  15.897 -0.5762  0.1038  0.0515
18271TIP3    H176228   0.172   5.505  15.835 -0.6892 -0.2166  0.4443
18271TIP3    H276229   0.162   5.542  15.981  1.2027 -0.3086  0.6190
18272TIP3   OH276230   6.595   4.906   5.938 -0.5022  0.0640  0.4398
18272TIP3    H176231   6.561   4.943   5.857 -0.7104  0.3933  0.6807
18272TIP3    H276232   6.646   4.829   5.909  0.1783  0.6954 -0.0778
18273TIP3   OH276233   1.147   5.063  16.527 -0.3846  0.0338  0.3245
18273TIP3    H176234   1.161   5.047  16.621  1.0780 -0.4028  0.0522
18273TIP3    H276235   1.197   5.143  16.509  0.2917 -0.5123 -0.2952
18274TIP3   OH276236   5.238   5.975   4.202 -0.7833 -0.3070  0.5035
18274TIP3    H176237   5.201   6.057   4.236 -0.3338 -0.0249  0.3233
18274TIP3    H276238   5.164   5.932   4.159 -1.0981 -0.1490  0.8716
18275TIP3   OH276239   6.247   5.865  14.826 -0.2441  0.8808 -0.6191
18275TIP3    H176240   6.194   5.903  14.756  0.5651  2.3775 -0.4457
18275TIP3    H276241   6.336   5.896  14.809  0.2886 -0.2182  0.0554
18276TIP3   OH276242   6.345   4.977   3.430 -0.2893 -0.9869  0.3520
18276TIP3    H176243   6.362   4.932   3.513 -0.1869 -0.1479  0.7998
18276TIP3    H276244   6.432   4.991   3.392 -0.4170 -3.1072 -0.8784
18277TIP3   OH276245   5.144   6.245  14.232  0.5431 -0.1010  0.5608
18277TIP3    H176246   5.056   6.275  14.255  0.7719  0.3979  0.7913
18277TIP3    H276247   5.143   6.239  14.136  0.6545  1.1445  0.4757
18278TIP3   OH276248   5.488   6.630  16.136  0.1601  0.3196 -0.2470
18278TIP3    H176249   5.552   6.615  16.205  0.7113  1.7894 -0.4085
18278TIP3    H276250   5.532   6.602  16.056  0.2429  0.4386 -0.2437
18279TIP3   OH276251   1.911   0.108   2.304 -0.1143 -0.4303 -0.4143
18279TIP3    H176252   1.976   0.116   2.374 -0.1315 -0.2287 -0.4213
18279TIP3    H276253   1.934   0.177   2.242 -0.6756  0.0015 -0.1396
18280TIP3   OH276254   2.121   6.010   2.397 -0.1886  0.2885 -0.8375
18280TIP3    H176255   2.189   6.071   2.427  1.0570 -2.1288  1.6742
18280TIP3    H276256   2.068   5.994   2.475 -0.6567 -1.5661 -1.5126
18281TIP3   OH276257   2.848   3.915   3.124  0.0271  0.0524  0.3047
18281TIP3    H176258   2.823   3.998   3.165  0.8103  0.6175 -0.3206
18281TIP3    H276259   2.850   3.935   3.030 -0.4058 -0.8521  0.0991
18282TIP3   OH276260   1.546   0.749  14.056  0.4540  0.2961  0.3199
18282TIP3    H176261   1.549   0.738  14.151 -1.6942 -0.7868  0.3211
18282TIP3    H276262   1.547   0.844  14.043  0.8680  0.4561  1.4070
18283TIP3   OH276263   5.136   2.058   4.931  0.3309 -0.5318 -0.2470
18283TIP3    H176264   5.109   1.982   4.982 -2.2534 -0.1134 -0.8297
18283TIP3    H276265   5.073   2.126   4.955  1.7006  0.9902 -0.8057
18284TIP3   OH276266   2.515   2.743   2.708  0.1164 -0.7759  0.3169
18284TIP3    H176267   2.444   2.699   2.662 -1.6847  0.7875  1.4351
18284TIP3    H276268   2.505   2.836   2.685  0.4408 -0.2339  2.1910
18285TIP3   OH276269   5.410   1.889   4.594  0.6229 -0.1113  0.4422
18285TIP3    H176270   5.332   1.876   4.649 -1.8949 -2.6353 -3.2143
18285TIP3    H276271   5.396   1.975   4.554  0.1802 -0.1479  0.5051
18286TIP3   OH276272   2.983   6.145  15.072  0.0543 -0.4261 -0.5375
18286TIP3    H176273   3.038   6.075  15.106 -0.9280 -0.4022  1.2380
18286TIP3    H276274   2.896   6.125  15.106 -0.2186  1.7113  0.1714
18287TIP3   OH276275   0.456   3.173   5.207 -0.1879 -0.0564  0.7876
18287TIP3    H176276   0.416   3.256   5.231 -0.7186  0.6705 -2.1760
18287TIP3    H276277   0.385   3.109   5.216 -0.6107  0.3424  0.3823
18288TIP3   OH276278   6.259   2.516   1.627 -0.1998  0.0740  0.4910
18288TIP3    H176279   6.354   2.510   1.617 -0.4430 -0.0135 -2.6242
18288TIP3    H276280   6.238   2.606   1.605 -1.0464 -0.6901 -2.2583
18289TIP3   OH276281   0.824   3.765   4.357  0.0332  0.4659  0.2857
18289TIP3    H176282   0.848   3.674   4.339  0.0001  0.1442  1.7590
18289TIP3    H276283   0.735   3.773   4.322 -0.1589 -0.2188  0.5897
18290TIP3   OH276284   5.709   5.262   2.160 -0.5299 -0.5667  0.7735
18290TIP3    H176285   5.616   5.257   2.181 -0.4301 -3.5832  1.0182
18290TIP3    H276286   5.749   5.193   2.213  1.7167  0.0988  0.0617
18291TIP3   OH276287   6.470   1.510  12.401  0.4855  0.4504  0.2069
18291TIP3    H176288   6.392   1.558  12.431  0.7629  1.7847 -1.0834
18291TIP3    H276289   6.536   1.528  12.468  0.0400  0.3231  0.6839
18292TIP3   OH276290   2.383   5.443   4.402 -1.1177  0.1220 -0.2399
18292TIP3    H176291   2.444   5.379   4.366  1.3593  1.2665  1.6164
18292TIP3    H276292   2.346   5.400   4.479  0.7400  0.9179  1.1558
18293TIP3   OH276293   4.478   0.973   3.210 -1.1392  0.7703 -0.2494
18293TIP3    H176294   4.394   0.926   3.206 -0.5706 -0.4792  1.4011
18293TIP3    H276295   4.542   0.908   3.181 -0.4395  0.7749  1.2101
18294TIP3   OH276296   1.165   5.695  14.975 -0.8871 -0.3914 -0.2033
18294TIP3    H176297   1.118   5.756  15.032 -0.6283  1.7838 -2.1600
18294TIP3    H276298   1.151   5.609  15.015 -0.8013  0.9473  3.0195
18295TIP3   OH276299   2.989   2.836   3.388  0.1386  0.4718 -0.5306
18295TIP3    H176300   3.029   2.774   3.449 -0.5170 -0.0475 -0.6166
18295TIP3    H276301   3.063   2.884   3.350  0.7399 -0.9273 -1.1895
18296TIP3   OH276302   2.005   6.723   1.337 -0.0465 -0.1133 -0.3127
18296TIP3    H176303   1.919   6.709   1.297 -1.4371  1.1800  2.0135
18296TIP3    H276304   2.009   6.657   1.406  0.7806 -0.0450 -0.2892
18297TIP3   OH276305   1.926   3.636  12.651 -0.2268  0.1483  0.2007
18297TIP3    H176306   1.887   3.585  12.580  3.5080  0.1162 -2.1002
18297TIP3    H276307   1.989   3.576  12.691  1.6503  1.7546 -0.1952
18298TIP3   OH276308   2.097   5.896  15.481  0.0637  0.2995 -0.4392
18298TIP3    H176309   2.080   5.854  15.397 -0.0159  0.5335 -0.5414
18298TIP3    H276310   2.113   5.824  15.541 -0.4154  0.1135 -0.5348
18299TIP3   OH276311   5.592   6.539   3.262  0.1029  0.9912 -0.4338
18299TIP3    H176312   5.674   6.524   3.307 -0.1236 -0.8691 -0.5729
18299TIP3    H276313   5.576   6.633   3.272  1.5294  1.1403  0.7716
18300TIP3   OH276314   4.813   3.188  14.970 -0.7360 -0.6090 -0.0218
18300TIP3    H176315   4.809   3.093  14.979  1.0233 -0.8034 -0.9076
18300TIP3    H276316   4.906   3.209  14.974 -1.0642  1.0473 -0.2098
18301TIP3   OH276317   4.947   5.740  11.691 -0.1220  0.0216  0.4937
18301TIP3    H176318   5.025   5.788  11.663 -1.2123  1.3973 -0.3443
18301TIP3    H276319   4.921   5.782  11.773  0.8402 -1.4443  1.6091
18302TIP3   OH276320   2.780   6.194  13.278  0.2761  0.0044  0.0051
18302TIP3    H176321   2.693   6.156  13.290 -0.2825  1.4448  0.8082
18302TIP3    H276322   2.832   6.124  13.239 -1.3027 -0.8180 -0.7298
18303TIP3   OH276323   0.197   3.333  16.296 -0.3465  0.5410 -0.0082
18303TIP3    H176324   0.217   3.274  16.369  0.8665  0.9932  0.0464
18303TIP3    H276325   0.105   3.357  16.310 -0.4509 -0.2140  0.7592
18304TIP3   OH276326   0.728   5.219  13.544 -0.6503  0.0460  0.3719
18304TIP3    H176327   0.807   5.166  13.554 -1.1870 -0.5210  1.8793
18304TIP3    H276328   0.665   5.180  13.604 -1.6808  1.2507  0.1195
18305TIP3   OH276329   4.167   4.046   3.666 -0.3622 -0.9856  0.0563
18305TIP3    H176330   4.247   4.019   3.711 -0.4534 -0.0922  0.7817
18305TIP3    H276331   4.185   4.029   3.574  0.1674 -2.0145  0.3298
18306TIP3   OH276332   5.918   2.610   5.703  0.4375  0.2814  0.5638
18306TIP3    H176333   5.980   2.548   5.666 -0.6276 -0.7964  0.5480
18306TIP3    H276334   5.958   2.696   5.688  1.1071 -0.2769 -0.9765
18307TIP3   OH276335   2.305   4.989   5.002 -0.6084 -0.0885  0.4184
18307TIP3    H176336   2.362   4.915   5.024 -0.3815 -0.1153 -0.2375
18307TIP3    H276337   2.317   5.001   4.908 -0.8580  0.6068  0.4715
18308TIP3   OH276338   2.311   6.204   1.655  0.0487 -0.2189 -0.1506
18308TIP3    H176339   2.339   6.227   1.744 -0.3673  0.2760 -0.1439
18308TIP3    H276340   2.388   6.165   1.615 -0.1862 -1.9334  0.9514
18309TIP3   OH276341   4.168   2.171  15.879  0.5620  0.0541 -0.5889
18309TIP3    H176342   4.138   2.261  15.868  0.8640  0.1958 -0.2614
18309TIP3    H276343   4.100   2.118  15.836 -0.2365  0.3640  0.2443
18310TIP3   OH276344   2.655   6.598  13.904  0.7591 -0.8999  0.1456
18310TIP3    H176345   2.624   6.526  13.959 -1.9574 -0.5557 -0.8227
18310TIP3    H276346   2.672   6.558  13.819 -0.0556 -0.5385 -0.1916
18311TIP3   OH276347   2.713   6.514   3.088 -0.1349  0.1261  0.0951
18311TIP3    H176348   2.801   6.480   3.104  0.1435  1.8621  2.8772
18311TIP3    H276349   2.719   6.556   3.002  1.1939 -1.3046 -0.5730
18312TIP3   OH276350   5.953   3.736  16.453  0.1188 -0.2057 -0.3972
18312TIP3    H176351   5.908   3.728  16.537  0.1316  0.2352 -0.3480
18312TIP3    H276352   6.022   3.801  16.468 -1.1758  1.4471 -1.2789
18313TIP3   OH276353   0.604   0.667   3.904  0.0970  0.6406  0.7759
18313TIP3    H176354   0.545   0.593   3.920 -0.1041  0.7193  0.4068
18313TIP3    H276355   0.549   0.745   3.915 -0.1125  0.6946 -0.5069
18314TIP3   OH276356   1.366   3.696  15.007 -0.1088  0.6496 -0.1139
18314TIP3    H176357   1.370   3.760  15.077 -3.3034 -0.3608  1.1978
18314TIP3    H276358   1.338   3.746  14.930  1.6381  1.4648 -0.2520
18315TIP3   OH276359   3.307   2.672   0.122 -0.3889  0.6818  0.1301
18315TIP3    H176360   3.220   2.697   0.154 -0.7205  1.1143 -1.0592
18315TIP3    H276361   3.290   2.599   0.062 -0.0745  1.4284 -0.9021
18316TIP3   OH276362   2.442   5.236  12.246  0.1012  0.3739 -0.1897
18316TIP3    H176363   2.498   5.165  12.278  1.9951  1.7893 -0.1939
18316TIP3    H276364   2.359   5.224  12.293  0.9011 -0.9221  0.9612
18317TIP3   OH276365   4.181   0.170  13.484 -0.1576  0.1063 -0.3172
18317TIP3    H176366   4.252   0.174  13.420 -1.7979  0.1118 -2.2278
18317TIP3    H276367   4.215   0.115  13.554  2.3252  1.4790 -0.3248
18318TIP3   OH276368   1.442   6.115   4.594  0.6675 -0.3079 -0.1102
18318TIP3    H176369   1.469   6.031   4.556  1.0520 -0.4466  0.4518
18318TIP3    H276370   1.415   6.093   4.683  4.4913  0.6384  1.4954
18319TIP3   OH276371   1.102   3.237   0.617 -0.1572 -0.3725  0.3459
18319TIP3    H176372   1.158   3.164   0.591 -0.9587 -1.4844  1.6304
18319TIP3    H276373   1.046   3.252   0.541  1.1605  0.0797 -0.5707
18320TIP3   OH276374   5.361   4.704  11.854 -0.7689 -0.1002 -0.5792
18320TIP3    H176375   5.402   4.634  11.803 -0.8368 -0.6384  0.0909
18320TIP3    H276376   5.434   4.763  11.876 -0.6088 -0.2732 -0.6442
18321TIP3   OH276377   2.022   6.712  11.065  0.5144 -0.8991 -0.4991
18321TIP3    H176378   1.981   6.770  11.000 -1.4927 -0.3825  1.1417
18321TIP3    H276379   1.971   6.631  11.061  0.0340 -0.6816  0.7371
18322TIP3   OH276380   0.048   2.975  16.094 -0.1716  0.0309  0.0574
18322TIP3    H176381   0.020   2.978  16.185 -1.4171  0.4752 -0.3047
18322TIP3    H276382   0.133   2.932  16.095 -1.1225 -1.9491  1.2110
18323TIP3   OH276383   1.623   1.077  16.974  0.7328 -0.1435  0.5578
18323TIP3    H176384   1.635   1.125  16.892 -1.0757 -1.2101 -0.4028
18323TIP3    H276385   1.651   0.988  16.954 -1.0700 -0.7618  0.6084
18324TIP3   OH276386   5.405   2.183  14.023  0.0830 -0.6369 -0.0092
18324TIP3    H176387   5.373   2.269  14.049  0.4236 -1.0073  1.7100
18324TIP3    H276388   5.339   2.151  13.961 -1.2404 -0.0664  1.0499
18325TIP3   OH276389   3.534   2.784  13.776 -0.2782 -0.1717 -0.3057
18325TIP3    H176390   3.560   2.868  13.815 -0.2220 -0.3001 -0.0672
18325TIP3    H276391   3.441   2.796  13.755 -0.7411 -0.6527  1.3570
18326TIP3   OH276392   4.620   1.170  14.645  0.5284  0.0364  0.1472
18326TIP3    H176393   4.639   1.094  14.589 -0.6491 -0.2039  0.0512
18326TIP3    H276394   4.532   1.154  14.678  0.9533  0.4833  1.5907
18327TIP3   OH276395   1.989   4.410  13.187 -0.0635  0.1263  0.1235
18327TIP3    H176396   2.034   4.349  13.245 -0.5303 -1.4497 -1.1135
18327TIP3    H276397   2.057   4.441  13.126 -0.2520 -0.8765 -0.6203
18328TIP3   OH276398   6.210   3.608  12.218  0.2406  0.7301  0.2026
18328TIP3    H176399   6.233   3.595  12.126  3.4556  3.1311  0.4797
18328TIP3    H276400   6.121   3.643  12.216 -2.2783 -4.7074 -1.3779
18329TIP3   OH276401   0.309   3.643  11.700  0.1231  0.2120  0.0412
18329TIP3    H176402   0.231   3.588  11.702 -0.0213  0.4061 -0.3353
18329TIP3    H276403   0.293   3.707  11.631 -0.0135  1.1790  0.9481
18330TIP3   OH276404   2.952   6.027   6.630  0.2461  0.1369  0.0889
18330TIP3    H176405   2.909   6.012   6.545  0.9550 -0.7205 -0.1444
18330TIP3    H276406   3.045   6.015   6.611  0.4664  0.6127  0.8562
18331TIP3   OH276407   3.583   6.673  15.958 -0.2006  0.5737  0.0562
18331TIP3    H176408   3.572   6.730  16.034  2.9572  0.1148  1.0268
18331TIP3    H276409   3.606   6.587  15.996  0.2131  0.0146 -1.3958
18332TIP3   OH276410   3.419   2.950  12.796 -0.1426 -0.2622 -0.1874
18332TIP3    H176411   3.448   2.872  12.844  2.1201  1.1374  0.8322
18332TIP3    H276412   3.482   2.958  12.724  0.6910  1.5353  0.6990
18333TIP3   OH276413   4.322   6.128  13.979  0.1541 -0.5216 -0.1609
18333TIP3    H176414   4.258   6.061  14.002  0.0633 -0.4984 -0.3462
18333TIP3    H276415   4.392   6.118  14.043 -0.2228 -0.2832  0.2979
18334TIP3   OH276416   1.955   6.014  17.344 -0.1963 -0.0587  0.1083
18334TIP3    H176417   1.879   5.956  17.342  0.1837 -0.5666  0.1198
18334TIP3    H276418   1.924   6.093  17.388 -0.5833 -0.4550  0.5644
18335TIP3   OH276419   2.289   3.032   4.211 -0.3157  0.3408  0.1103
18335TIP3    H176420   2.297   2.945   4.174  1.4534  1.3521 -2.1414
18335TIP3    H276421   2.206   3.031   4.259 -0.2636 -2.5603  0.2875
18336TIP3   OH276422   3.633   4.734  10.953 -0.0399 -0.0460 -0.0140
18336TIP3    H176423   3.694   4.804  10.928  1.2809  0.1086  3.1332
18336TIP3    H276424   3.688   4.656  10.960 -0.6288 -0.4087  0.7186
18337TIP3   OH276425   6.367   0.159  17.360 -0.6528  0.1464  0.0791
18337TIP3    H176426   6.351   0.245  17.321 -0.0397  1.1867  1.9869
18337TIP3    H276427   6.315   0.159  17.441  0.4970 -0.6803  0.8561
18338TIP3   OH276428   3.828   1.264   5.764 -0.7022 -0.7182  0.1646
18338TIP3    H176429   3.820   1.246   5.670  0.8669  1.3918 -0.4505
18338TIP3    H276430   3.886   1.196   5.797 -0.7705 -1.1255 -0.5408
18339TIP3   OH276431   0.883   4.653  16.718 -0.1347  0.4588 -0.1333
18339TIP3    H176432   0.842   4.677  16.635  1.2715 -0.0432 -1.0055
18339TIP3    H276433   0.816   4.601  16.763 -0.1535 -1.2415 -1.9766
18340TIP3   OH276434   3.901   4.016   1.785  0.0970 -0.0766  0.7136
18340TIP3    H176435   3.929   3.993   1.696 -1.6067 -0.6590  0.2818
18340TIP3    H276436   3.856   3.938   1.816  0.7331  0.1036  2.1350
18341TIP3   OH276437   4.037   4.779  13.066 -0.3639 -0.3012 -0.5944
18341TIP3    H176438   4.037   4.740  12.979 -0.6967  1.0798 -1.2371
18341TIP3    H276439   3.952   4.756  13.103 -0.8999  0.4788 -1.2961
18342TIP3   OH276440   4.837   2.049  14.317 -0.5705  0.3688 -0.2408
18342TIP3    H176441   4.759   2.099  14.341  0.0579  1.4888 -0.4672
18342TIP3    H276442   4.902   2.115  14.295 -0.0240 -0.5743 -1.5537
18343TIP3   OH276443   5.258   0.358  16.588  0.4457  0.1492  0.2357
18343TIP3    H176444   5.167   0.349  16.557  1.1350  0.1184 -2.0048
18343TIP3    H276445   5.250   0.390  16.677 -1.7824 -1.8968  0.8710
18344TIP3   OH276446   3.851   2.203   2.559 -0.0327  0.0003  0.5252
18344TIP3    H176447   3.815   2.115   2.549  0.5886 -0.1099 -0.9584
18344TIP3    H276448   3.793   2.259   2.507 -0.0043  0.3599  0.8737
18345TIP3   OH276449   6.587   1.982   2.620  0.2817  0.5472  0.0991
18345TIP3    H176450   6.666   2.034   2.636  0.8338  0.4168 -1.9038
18345TIP3    H276451   6.602   1.943   2.534 -2.0007  0.5574 -0.3555
18346TIP3   OH276452   5.542   4.162  14.887 -0.0517 -0.0376  0.5740
18346TIP3    H176453   5.573   4.168  14.797  1.5712 -0.0401  1.0839
18346TIP3    H276454   5.579   4.080  14.920 -1.0864 -0.3170  1.0835
18347TIP3   OH276455   3.489   5.058  15.632 -0.3837 -0.0340 -0.2030
18347TIP3    H176456   3.496   4.977  15.683  0.7568 -0.6762 -1.2993
18347TIP3    H276457   3.543   5.121  15.680  1.1287 -0.7855 -0.8378
18348TIP3   OH276458   3.950   4.871   6.059  0.0409  0.3987 -0.3543
18348TIP3    H176459   3.984   4.822   6.134  0.6095 -1.4636 -1.7495
18348TIP3    H276460   4.026   4.883   6.002 -0.9128 -0.7580 -1.9338
18349TIP3   OH276461   2.812   0.988  12.922  1.2092 -0.2586 -0.2434
18349TIP3    H176462   2.880   0.965  12.985 -0.0853  1.8189  2.0741
18349TIP3    H276463   2.828   1.080  12.902 -1.3475  0.5648  1.0991
18350TIP3   OH276464   0.042   1.650   5.459 -0.0046  0.0027 -0.2717
18350TIP3    H176465   0.063   1.727   5.513 -2.2913  1.8793 -1.8354
18350TIP3    H276466  -0.038   1.675   5.413  0.8038 -2.1776 -3.1475
18351TIP3   OH276467   2.864   3.752   5.641  0.2724 -0.0181  0.3483
18351TIP3    H176468   2.872   3.817   5.571  1.6981  0.5797  1.0264
18351TIP3    H276469   2.770   3.750   5.661 -0.2745 -0.7604 -2.0634
18352TIP3   OH276470   5.574   4.429  15.881 -0.7069  0.5703  0.1509
18352TIP3    H176471   5.556   4.450  15.972 -1.5686  0.5565 -0.0031
18352TIP3    H276472   5.616   4.343  15.884 -1.9204 -0.0365  0.4690
18353TIP3   OH276473   4.905   0.514  15.638  0.8534  0.6455 -0.5659
18353TIP3    H176474   4.854   0.594  15.645  2.2149  1.6143 -1.1902
18353TIP3    H276475   4.977   0.526  15.699  1.7984  0.4966 -1.6061
18354TIP3   OH276476   5.744   4.198   4.287  0.3385  0.1732 -0.1452
18354TIP3    H176477   5.835   4.188   4.260  0.3597  0.6679 -0.2576
18354TIP3    H276478   5.746   4.183   4.382  0.5598  0.3386 -0.1230
18355TIP3   OH276479   1.918   2.782   2.200 -0.1292 -0.3303 -0.3739
18355TIP3    H176480   1.887   2.845   2.265 -2.2960 -1.1487 -0.5331
18355TIP3    H276481   1.906   2.827   2.116 -0.0756 -0.3521 -0.3937
18356TIP3   OH276482   5.603   1.312  16.768 -0.1366 -0.0489 -0.0543
18356TIP3    H176483   5.561   1.235  16.808  2.1653 -0.9796  0.6938
18356TIP3    H276484   5.532   1.376  16.761 -1.8323 -1.7520  0.5440
18357TIP3   OH276485   3.968   0.906   1.047 -0.4180 -0.3767  0.4195
18357TIP3    H176486   3.911   0.840   1.085 -0.7252  0.1023  0.8061
18357TIP3    H276487   4.017   0.860   0.979 -1.3321 -0.7719  0.0174
18358TIP3   OH276488   5.035   3.543  15.843 -0.5755  0.4166 -0.5848
18358TIP3    H176489   5.061   3.615  15.900  1.2880 -2.8191  3.0892
18358TIP3    H276490   4.946   3.521  15.871  0.0202 -0.6165  0.5969
18359TIP3   OH276491   1.071   6.385   5.145  0.8929 -0.1630  0.3213
18359TIP3    H176492   1.025   6.466   5.125  0.7128 -0.5767 -1.0232
18359TIP3    H276493   1.144   6.413   5.200  0.6285  0.8645  0.1803
18360TIP3   OH276494   5.793   2.495   2.892 -0.6565 -0.5479 -0.5761
18360TIP3    H176495   5.717   2.544   2.924 -0.4448 -1.2003  1.0727
18360TIP3    H276496   5.821   2.443   2.968  0.3476 -1.6737 -1.6652
18361TIP3   OH276497   5.281   1.323   3.958  0.0086 -0.4967  0.1389
18361TIP3    H176498   5.255   1.361   4.042  0.2853 -0.0707  0.0320
18361TIP3    H276499   5.221   1.363   3.894  1.5628  1.3177 -0.2718
18362TIP3   OH276500   3.267   1.527   4.444 -0.2500  0.1215  0.1545
18362TIP3    H176501   3.350   1.539   4.492 -0.2727 -0.2257  0.2790
18362TIP3    H276502   3.283   1.570   4.360  0.1513 -0.1670  0.0761
18363TIP3   OH276503   3.756   6.474   3.653  0.0938 -0.3352 -0.3789
18363TIP3    H176504   3.752   6.379   3.666  0.7089 -0.4062 -0.6713
18363TIP3    H276505   3.729   6.486   3.561  0.8462 -0.3085 -0.6012
18364TIP3   OH276506   4.001   2.653  17.205 -0.7900 -0.0705 -0.0629
18364TIP3    H176507   4.049   2.720  17.156 -1.6265  0.1824 -0.5613
18364TIP3    H276508   4.006   2.681  17.296 -0.3759  0.1818 -0.1607
18365TIP3   OH276509   0.183   1.457   0.519  0.1276  0.3506  0.3580
18365TIP3    H176510   0.119   1.390   0.544  0.2402  0.0623 -0.1227
18365TIP3    H276511   0.130   1.535   0.502 -0.1257  0.0429 -0.2848
18366TIP3   OH276512   0.068   4.944   2.912 -0.1212 -0.7746  0.1137
18366TIP3    H176513   0.098   4.884   2.844  0.4824  0.2643 -0.5689
18366TIP3    H276514   0.146   4.996   2.934 -0.7332  0.0724  0.3421
18367TIP3   OH276515   1.405   1.430   5.541 -0.2496 -0.1239 -0.2457
18367TIP3    H176516   1.362   1.419   5.626 -1.1830  0.9820 -0.5592
18367TIP3    H276517   1.434   1.521   5.540 -0.0312 -0.1919 -1.0234
18368TIP3   OH276518   0.569   6.245   0.258  0.8197  0.6822  0.3560
18368TIP3    H176519   0.565   6.165   0.310  0.5462 -1.0858 -2.2032
18368TIP3    H276520   0.662   6.269   0.257  1.2408 -0.8589 -0.5691
18369TIP3   OH276521   4.767   4.399  14.147  1.0882 -0.7864 -0.5446
18369TIP3    H176522   4.759   4.356  14.232  1.4842  0.6502  0.2621
18369TIP3    H276523   4.824   4.342  14.096 -0.3942 -2.4532 -0.4071
18370TIP3   OH276524   4.400   1.572  16.936  0.1122  0.0777  0.3662
18370TIP3    H176525   4.400   1.667  16.947 -0.7661 -0.1122  2.4532
18370TIP3    H276526   4.400   1.537  17.025 -0.9037 -1.8677 -0.3260
18371TIP3   OH276527   0.847   1.242   4.371  0.4436  0.1552  0.8046
18371TIP3    H176528   0.841   1.230   4.466  0.9303  0.4045  0.8709
18371TIP3    H276529   0.761   1.216   4.338  0.1768  0.3346  1.3426
18372TIP3   OH276530   1.576   4.757  13.559  0.1237 -0.3128  0.5698
18372TIP3    H176531   1.573   4.845  13.596  2.4583  0.8709 -1.7246
18372TIP3    H276532   1.489   4.744  13.521  0.0104  1.4337  0.1220
18373TIP3   OH276533   1.825   0.340  14.931  0.2421  0.0275 -0.4745
18373TIP3    H176534   1.874   0.422  14.926 -1.3257  1.0476 -0.1228
18373TIP3    H276535   1.798   0.323  14.841  0.7571 -0.2172 -0.5806
18374TIP3   OH276536   2.576   4.417  16.835  0.5421 -0.3124  0.2109
18374TIP3    H176537   2.518   4.362  16.888 -1.8095 -0.1926 -2.0278
18374TIP3    H276538   2.545   4.506  16.849  0.6351 -0.1675 -0.4546
18375TIP3   OH276539   5.681   2.879  11.110 -0.7265 -0.7635  0.0040
18375TIP3    H176540   5.689   2.802  11.053 -1.0097 -0.3903 -0.5415
18375TIP3    H276541   5.727   2.948  11.063 -0.7007 -0.5309  0.3733
18376TIP3   OH276542   1.281   1.896   4.673  0.0404  0.1602  0.1078
18376TIP3    H176543   1.315   1.940   4.595 -2.0573 -1.7485 -2.0488
18376TIP3    H276544   1.274   1.804   4.648 -1.1066 -0.4624  2.4206
18377TIP3   OH276545   5.766   0.643   3.906  0.0861  0.0080  0.0287
18377TIP3    H176546   5.740   0.705   3.838 -0.0796  0.5131  0.5473
18377TIP3    H276547   5.702   0.657   3.976 -1.0528 -1.9779 -0.5415
18378TIP3   OH276548   4.095   0.440   3.074 -0.0733 -0.0695 -0.2449
18378TIP3    H176549   4.060   0.364   3.027 -0.1810  0.1628 -0.5432
18378TIP3    H276550   4.064   0.428   3.164  0.2885 -0.6110 -0.1856
18379TIP3   OH276551   4.093   4.970  16.916  0.1330 -0.3866 -0.5592
18379TIP3    H176552   4.103   4.954  17.010  2.7323  1.5276 -0.3772
18379TIP3    H276553   4.161   4.916  16.876  1.6359  1.6295 -0.8939
18380TIP3   OH276554   1.866   1.679   4.579  0.1653 -1.0108  0.2266
18380TIP3    H176555   1.960   1.695   4.580  0.0230 -0.0983 -0.2150
18380TIP3    H276556   1.853   1.615   4.510  0.5513 -1.8102  0.8750
18381TIP3   OH276557   5.441   2.065  17.369 -0.5370  0.2063 -0.1806
18381TIP3    H176558   5.511   2.100  17.425 -0.7563 -0.1839  0.3424
18381TIP3    H276559   5.485   2.001  17.313  0.0703  2.0040 -1.8560
18382TIP3   OH276560   4.276   4.088  13.467 -0.2370 -0.5387  0.9091
18382TIP3    H176561   4.255   4.181  13.473 -0.4398 -0.4113 -1.1470
18382TIP3    H276562   4.263   4.055  13.556 -2.0834  1.0074  1.2798
18383TIP3   OH276563   6.623   6.413  12.996 -0.1831  0.0952  0.2359
18383TIP3    H176564   6.631   6.494  13.046 -1.3992 -0.8544  2.0850
18383TIP3    H276565   6.599   6.347  13.061  0.1812 -1.6329 -1.3136
18384TIP3   OH276566   5.636   2.383   1.073  0.5838  0.5872  0.3053
18384TIP3    H176567   5.581   2.377   1.151 -1.1562 -0.8755 -0.9464
18384TIP3    H276568   5.725   2.389   1.107 -0.0979 -0.2497  2.3945
18385TIP3   OH276569   3.985   5.395   3.648  0.8674  0.3442  0.4278
18385TIP3    H176570   4.007   5.381   3.556  3.4401  1.4980  0.7797
18385TIP3    H276571   3.952   5.311   3.678  1.0192 -0.3583 -1.2715
18386TIP3   OH276572   4.393   3.119   4.714 -0.4084  0.2040 -0.2997
18386TIP3    H176573   4.410   3.128   4.620 -0.5598 -0.8891 -0.4445
18386TIP3    H276574   4.303   3.147   4.724 -0.1691  1.0082 -0.3644
18387TIP3   OH276575   3.276   3.408  13.864  0.0206  0.5102 -0.0555
18387TIP3    H176576   3.233   3.493  13.858  1.0256  1.0776  0.5096
18387TIP3    H276577   3.302   3.388  13.774 -2.9269 -0.7038 -0.7564
18388TIP3   OH276578   1.774   1.106  10.785  0.3588 -0.3101 -0.1837
18388TIP3    H176579   1.744   1.161  10.858 -0.1486  1.5429 -1.6943
18388TIP3    H276580   1.696   1.058  10.757 -0.5553  1.9902 -1.9606
18389TIP3   OH276581   3.408   0.877  12.583  0.1327 -0.5049  0.1516
18389TIP3    H176582   3.332   0.843  12.535  0.8614 -0.2023 -1.2806
18389TIP3    H276583   3.459   0.924  12.517  2.5353 -2.2652  0.6163
18390TIP3   OH276584   5.203   3.202  15.230  0.3043  0.2750 -0.4994
18390TIP3    H176585   5.197   3.160  15.316  2.0698  1.7030  0.3925
18390TIP3    H276586   5.113   3.221  15.206 -0.2640 -0.6762  0.7632
18391TIP3   OH276587   1.307   3.309   0.298  0.1170  0.0002  0.5071
18391TIP3    H176588   1.402   3.316   0.289  0.1201 -1.9932 -3.3038
18391TIP3    H276589   1.293   3.222   0.337  0.0052 -1.4468 -2.4663
18392TIP3   OH276590   3.366   5.436   1.788  0.4012 -0.3227 -0.4029
18392TIP3    H176591   3.339   5.382   1.715  0.4998 -2.0723  0.7867
18392TIP3    H276592   3.461   5.448   1.775  0.0795  1.2130 -1.6590
18393TIP3   OH276593   2.132   3.730   3.446 -0.0133  0.1427 -0.0021
18393TIP3    H176594   2.166   3.642   3.464  0.0352  0.1102 -0.2547
18393TIP3    H276595   2.206   3.778   3.411 -0.0043  0.3276  0.2626
18394TIP3   OH276596   2.195   4.910  15.497 -0.3446 -0.0906  0.0618
18394TIP3    H176597   2.265   4.938  15.556 -0.5374  0.7923 -0.1250
18394TIP3    H276598   2.166   4.826  15.533 -1.0253  0.8179  1.7148
18395TIP3   OH276599   1.026   0.436  12.082  0.4086 -0.3078 -0.0450
18395TIP3    H176600   1.025   0.532  12.087  1.7489 -0.1934 -1.1285
18395TIP3    H276601   1.041   0.408  12.172 -0.5226  0.4633  0.3722
18396TIP3   OH276602   5.920   2.471   3.687  0.6792  0.0618  0.6662
18396TIP3    H176603   5.943   2.564   3.682  0.1019  0.1534 -1.0717
18396TIP3    H276604   5.991   2.426   3.641 -0.4888 -0.0284 -1.1505
18397TIP3   OH276605   4.486   4.780  11.696  0.6227 -0.3958  0.0322
18397TIP3    H176606   4.540   4.859  11.687  1.7359 -1.0869  0.3620
18397TIP3    H276607   4.454   4.763  11.608  1.7226 -0.4805 -0.3709
18398TIP3   OH276608   4.046   5.614  17.211  0.1845 -0.0179 -0.0484
18398TIP3    H176609   3.986   5.554  17.256  1.2706 -0.6079  0.6732
18398TIP3    H276610   4.057   5.577  17.124  0.2160 -0.4318  0.1282
18399TIP3   OH276611   2.708   6.224   4.499 -0.1232  0.0801  0.5117
18399TIP3    H176612   2.736   6.262   4.416 -0.2316  2.2944  1.4190
18399TIP3    H276613   2.614   6.242   4.503 -0.5236 -1.7212  0.3153
18400TIP3   OH276614   4.058   3.992  12.887 -0.1505  0.1498  0.8211
18400TIP3    H176615   3.965   3.992  12.906 -0.4384  1.3014 -0.4137
18400TIP3    H276616   4.100   3.964  12.969 -1.6514 -2.7075  0.7309
18401TIP3   OH276617   4.535   5.102  14.230 -0.3131 -0.0993  0.1219
18401TIP3    H176618   4.533   5.188  14.189 -0.6277 -0.2139 -0.1100
18401TIP3    H276619   4.451   5.096  14.277  0.7364  0.7218  2.2298
18402TIP3   OH276620   2.262   4.050  12.182 -0.3401 -0.0618 -0.6498
18402TIP3    H176621   2.269   3.956  12.165 -0.1740 -0.5808  1.9670
18402TIP3    H276622   2.343   4.087  12.147  0.6160 -1.2414  0.2469
18403TIP3   OH276623   5.305   1.978  10.361  0.4275  0.2164 -0.1591
18403TIP3    H176624   5.235   2.043  10.364  0.7999  0.6460 -0.6961
18403TIP3    H276625   5.289   1.923  10.438 -1.1988 -0.4443 -0.9310
18404TIP3   OH276626   1.394   3.213   1.928 -0.2631  0.1297 -0.0878
18404TIP3    H176627   1.404   3.306   1.909 -1.4126  0.6704  1.6424
18404TIP3    H276628   1.308   3.190   1.892  0.2527 -0.4217 -0.9978
18405TIP3   OH276629   2.586   4.418   1.331 -0.2924 -0.8162 -0.1556
18405TIP3    H176630   2.660   4.442   1.274  0.8508 -0.3885  1.4522
18405TIP3    H276631   2.546   4.501   1.354 -0.4326 -0.9493  0.0760
18406TIP3   OH276632   0.222   0.053  16.364  0.4290 -0.3976 -0.0017
18406TIP3    H176633   0.165   0.074  16.289  0.4793  1.1164  0.3569
18406TIP3    H276634   0.180  -0.023  16.405 -2.6997  1.9385  1.5628
18407TIP3   OH276635   5.520   3.317   2.081 -0.1496 -0.2066 -0.0773
18407TIP3    H176636   5.542   3.377   2.011  0.7202 -0.1796  0.2019
18407TIP3    H276637   5.485   3.240   2.037  0.9997 -0.4519 -0.5964
18408TIP3   OH276638   1.042   4.354   4.963 -0.6936 -0.0123  0.4205
18408TIP3    H176639   1.040   4.312   5.049  0.2571 -0.7905  0.0726
18408TIP3    H276640   1.081   4.439   4.978  1.7355 -1.0584  0.4113
18409TIP3   OH276641   6.363   3.263  11.162  0.5425  0.3775  0.8546
18409TIP3    H176642   6.269   3.280  11.158  0.7665  1.6410  0.6347
18409TIP3    H276643   6.374   3.179  11.117 -0.4400  0.3916  0.5699
18410TIP3   OH276644   3.161   6.589   5.105 -0.3196 -0.4715  0.2892
18410TIP3    H176645   3.200   6.517   5.054 -0.0379 -1.2237  1.5345
18410TIP3    H276646   3.236   6.637   5.140 -0.5119 -0.2525  0.4054
18411TIP3   OH276647   1.226   5.620   5.338  0.3778  0.2868 -0.4398
18411TIP3    H176648   1.197   5.688   5.398  0.2603  0.6259 -0.8733
18411TIP3    H276649   1.317   5.601   5.364 -0.0156 -0.3365  0.5173
18412TIP3   OH276650   0.003   0.375   2.020 -0.0847  0.1767 -0.1115
18412TIP3    H176651   0.010   0.328   2.103  1.1302  0.3475 -0.1102
18412TIP3    H276652  -0.091   0.379   2.004 -0.3967  0.9429  1.6954
18413TIP3   OH276653   6.280   3.473   3.439 -0.4013  0.0778 -0.0170
18413TIP3    H176654   6.231   3.541   3.393 -0.5214 -0.0585 -0.0907
18413TIP3    H276655   6.213   3.422   3.485 -0.3695 -0.3251 -0.4022
18414TIP3   OH276656   5.631   2.850   0.468  0.0216 -0.1756  0.0123
18414TIP3    H176657   5.639   2.898   0.551 -1.9892  0.3660 -0.0627
18414TIP3    H276658   5.719   2.854   0.430  0.9414 -0.2683  2.0033
18415TIP3   OH276659   1.067   5.386   6.123 -0.0771  0.7331 -0.1668
18415TIP3    H176660   1.095   5.296   6.107 -1.0820  0.2659  0.6143
18415TIP3    H276661   1.048   5.389   6.217 -0.6774  1.5785 -0.3082
18416TIP3   OH276662   2.559   4.044  13.810 -0.0792  0.1315  0.4539
18416TIP3    H176663   2.601   3.977  13.757 -1.1437 -0.5653  0.4669
18416TIP3    H276664   2.572   4.125  13.761  1.4246 -0.0145  0.5556
18417TIP3   OH276665   5.202   2.617  15.521 -0.2194  0.0623  0.2151
18417TIP3    H176666   5.247   2.543  15.480  0.5547  0.8703 -0.4525
18417TIP3    H276667   5.179   2.586  15.609  0.3936 -0.8477  0.0676
18418TIP3   OH276668   4.130   2.672   0.383  0.6167  0.1953 -0.0468
18418TIP3    H176669   4.222   2.643   0.381 -0.1206 -2.4572  0.3513
18418TIP3    H276670   4.132   2.755   0.431  2.8257  0.3349 -0.2650
18419TIP3   OH276671   3.332   4.660   2.919  0.7033  0.1871 -0.3090
18419TIP3    H176672   3.328   4.623   3.008 -1.8839 -0.6675 -0.7107
18419TIP3    H276673   3.374   4.592   2.867 -0.2166 -0.4499 -0.2354
18420TIP3   OH276674   1.997   4.788   4.521  0.2952  0.1401  0.2663
18420TIP3    H176675   1.951   4.776   4.605 -1.5637 -1.2167 -0.8684
18420TIP3    H276676   2.055   4.712   4.516 -0.8764 -0.7555 -0.4009
18421TIP3   OH276677   1.283   4.370   0.829 -0.3426  0.0590  0.3654
18421TIP3    H176678   1.329   4.390   0.910 -1.1100 -0.4856  0.9587
18421TIP3    H276679   1.211   4.312   0.856 -0.2879 -0.5734 -0.7791
18422TIP3   OH276680   3.693   3.792   6.557  0.0032  0.4514 -0.6990
18422TIP3    H176681   3.696   3.724   6.624 -3.4821 -1.6271 -2.3353
18422TIP3    H276682   3.782   3.796   6.523  0.9551 -1.3026  1.3196
18423TIP3   OH276683   0.755   5.236  16.353  0.5625  0.3853 -0.4871
18423TIP3    H176684   0.831   5.290  16.333  0.8228  1.0011  1.8137
18423TIP3    H276685   0.766   5.213  16.446 -1.9522  0.3717 -0.1143
18424TIP3   OH276686   4.728   0.568   0.514 -0.4966 -0.2207  0.3622
18424TIP3    H176687   4.660   0.635   0.514 -0.1506  0.1656  2.0981
18424TIP3    H276688   4.785   0.592   0.441 -1.8426 -0.2010 -0.7341
18425TIP3   OH276689   3.986   6.723   1.115 -0.0788 -0.3191 -0.8896
18425TIP3    H176690   3.990   6.647   1.057 -1.2828 -0.6598 -0.5675
18425TIP3    H276691   3.898   6.759   1.101 -0.2047 -0.1086  0.3421
18426TIP3   OH276692   1.164   2.342  11.291 -0.2741  0.2415 -0.3064
18426TIP3    H176693   1.207   2.350  11.206 -1.2971 -0.5580 -0.9243
18426TIP3    H276694   1.210   2.271  11.335  1.5155  1.8758  0.6453
18427TIP3   OH276695   1.805   2.644  17.350 -0.1766  0.1677 -0.5816
18427TIP3    H176696   1.740   2.577  17.372 -0.2213  0.2846 -0.3575
18427TIP3    H276697   1.886   2.594  17.334 -0.6785 -0.1476 -2.4723
18428TIP3   OH276698   2.863   0.849   0.180  0.1760 -0.5503  0.0939
18428TIP3    H176699   2.776   0.858   0.139  0.0133 -0.4140  0.4629
18428TIP3    H276700   2.892   0.761   0.157  0.1832 -0.3951 -0.5007
18429TIP3   OH276701   0.215   4.842  13.681  0.1899  0.4050 -0.2697
18429TIP3    H176702   0.128   4.877  13.697  0.1404 -0.0319  0.4456
18429TIP3    H276703   0.201   4.773  13.616 -0.1047 -0.1463  0.3704
18430TIP3   OH276704   0.946   1.122  16.177  0.5729 -0.1905 -0.0812
18430TIP3    H176705   1.023   1.083  16.219  0.3834  1.1269  1.5564
18430TIP3    H276706   0.977   1.207  16.145  0.6143 -1.0070 -2.3754
18431TIP3   OH276707   6.742   4.409   3.086  0.5143  0.0726  0.0206
18431TIP3    H176708   6.812   4.430   3.025 -1.6992 -2.2995 -3.7779
18431TIP3    H276709   6.685   4.485   3.085  0.0524 -0.2601 -1.7321
18432TIP3   OH276710   2.091   1.698  13.117 -0.2464 -0.2991  0.3479
18432TIP3    H176711   2.053   1.646  13.045 -1.2935 -0.2359  0.8369
18432TIP3    H276712   2.027   1.692  13.187 -0.4679  1.7691  0.3872
18433TIP3   OH276713   0.971   6.689  17.049  0.3414 -0.1480  0.2412
18433TIP3    H176714   0.958   6.736  17.131  0.8332 -0.9515  0.7878
18433TIP3    H276715   0.927   6.605  17.061  1.8720 -0.9731  0.3545
18434TIP3   OH276716   0.603   2.275   1.374 -0.1838  0.6142 -0.0344
18434TIP3    H176717   0.672   2.240   1.317 -1.1146  0.0340 -0.8465
18434TIP3    H276718   0.541   2.317   1.313 -2.2784 -1.8091  0.2448
18435TIP3   OH276719   1.492   1.582   5.949 -0.1834 -0.0236  0.0536
18435TIP3    H176720   1.542   1.505   5.976  0.8367  0.1602 -1.1946
18435TIP3    H276721   1.540   1.656   5.986 -0.9098  0.0518  0.8709
18436TIP3   OH276722   2.979   2.467   3.663 -0.0166  0.1204 -0.0724
18436TIP3    H176723   2.989   2.561   3.678  2.7721 -0.4525  2.6817
18436TIP3    H276724   3.043   2.446   3.596 -0.6041  0.1399 -0.6501
18437TIP3   OH276725   3.013   3.334   4.249  0.1884 -0.0698  0.5149
18437TIP3    H176726   2.970   3.249   4.239 -1.0204  0.5829 -0.0444
18437TIP3    H276727   3.073   3.321   4.323 -0.9717 -1.0316  1.3448
18438TIP3   OH276728   3.588   5.204   6.217 -0.2363 -0.4509  0.5061
18438TIP3    H176729   3.583   5.254   6.299  0.1863  0.4188  0.0170
18438TIP3    H276730   3.643   5.129   6.239  1.6056  0.8403  0.5276
18439TIP3   OH276731   3.065   2.929  17.111 -0.3852 -0.0375 -0.7252
18439TIP3    H176732   3.139   2.990  17.111 -0.2193 -0.2121  0.4766
18439TIP3    H276733   3.104   2.845  17.134 -0.9291 -0.1720 -0.2866
18440TIP3   OH276734   3.029   5.957  13.500 -0.1228 -0.1691  0.0096
18440TIP3    H176735   3.121   5.936  13.517 -0.3111 -1.2655 -0.2374
18440TIP3    H276736   3.024   5.969  13.405  0.0727  1.5749  0.1851
18441TIP3   OH276737   0.413   6.595  11.571 -0.4070  0.4551  0.1281
18441TIP3    H176738   0.403   6.555  11.657  0.1182  0.0258  0.0001
18441TIP3    H276739   0.324   6.610  11.540 -0.6238  2.2209  1.4629
18442TIP3   OH276740   5.553   0.907   1.104  0.1172  0.2406  0.1912
18442TIP3    H176741   5.576   0.815   1.120  1.4159  0.6940  1.0785
18442TIP3    H276742   5.636   0.949   1.082  0.3220  1.9571  3.5115
18443TIP3   OH276743   1.982   0.645   3.486  0.0401 -0.4857  0.6362
18443TIP3    H176744   2.016   0.730   3.460  1.3406 -1.1759  0.0036
18443TIP3    H276745   1.914   0.625   3.421 -2.1727  1.1745  2.2664
18444TIP3   OH276746   0.559   5.686   3.280  0.0370  0.2899  0.5590
18444TIP3    H176747   0.607   5.604   3.294 -1.6133 -0.7976  0.1610
18444TIP3    H276748   0.498   5.691   3.353 -0.8584  0.4228 -0.1792
18445TIP3   OH276749   0.177   5.346   4.175  0.6574  0.0048  0.1503
18445TIP3    H176750   0.098   5.391   4.205  2.5008  3.0814  0.8221
18445TIP3    H276751   0.175   5.262   4.220 -1.7318  0.3839  0.9033
18446TIP3   OH276752   6.136   0.987   1.496 -0.5594  0.1592 -0.0009
18446TIP3    H176753   6.200   1.051   1.466 -0.1597 -0.8122 -1.3008
18446TIP3    H276754   6.075   1.038   1.550  0.4438  1.3805  0.0304
18447TIP3   OH276755   5.687   1.641  11.683  0.2501  0.8205 -0.2827
18447TIP3    H176756   5.674   1.634  11.778 -0.2983 -0.0124 -0.4116
18447TIP3    H276757   5.768   1.593  11.667  0.6773  1.4931 -0.1597
18448TIP3   OH276758   0.377   4.671   1.787  0.0959  0.3508  0.3023
18448TIP3    H176759   0.471   4.682   1.772  0.2548  0.3089  1.2103
18448TIP3    H276760   0.357   4.586   1.749  0.1857  0.8253 -0.8845
18449TIP3   OH276761   2.686   5.510  15.323 -0.3114 -0.0969  0.2942
18449TIP3    H176762   2.622   5.576  15.298  0.3589  0.9345  1.1977
18449TIP3    H276763   2.653   5.428  15.285 -0.7353  0.8797 -1.5532
18450TIP3   OH276764   1.662   2.694   0.677  0.3418  0.0885 -0.2839
18450TIP3    H176765   1.615   2.686   0.595  2.1563  1.1649 -1.4897
18450TIP3    H276766   1.680   2.604   0.703 -2.0813 -0.3582  0.1217
18451TIP3   OH276767   2.744   0.220  17.355 -0.1815  0.1664  0.3898
18451TIP3    H176768   2.745   0.314  17.339 -2.0997  0.3677  1.1996
18451TIP3    H276769   2.813   0.206  17.421  0.0482  1.0058  0.3349
18452TIP3   OH276770   3.521   6.450  10.301 -0.3373  0.2204  0.1191
18452TIP3    H176771   3.549   6.541  10.311 -0.4513  0.5225 -1.8929
18452TIP3    H276772   3.601   6.403  10.280 -0.7639  0.5557 -2.5691
18453TIP3   OH276773   3.727   2.965   6.150  0.0399  0.5838  0.4962
18453TIP3    H176774   3.795   2.948   6.215  0.7298  0.2159 -0.2865
18453TIP3    H276775   3.771   2.947   6.066 -0.8594  0.9147 -0.0525
18454TIP3   OH276776   2.501   2.009  14.062 -0.6916 -0.0823  0.3083
18454TIP3    H176777   2.581   1.975  14.022 -0.8237  0.2148 -0.2314
18454TIP3    H276778   2.530   2.080  14.119 -0.5690  0.0263  0.1105
18455TIP3   OH276779   6.002   5.739  14.478 -0.4100  0.2103  0.3418
18455TIP3    H176780   6.063   5.730  14.405 -2.2970 -1.5476 -1.1745
18455TIP3    H276781   5.924   5.778  14.439 -0.2066  2.8627  2.3101
18456TIP3   OH276782   6.708   2.966  14.726  0.2581  0.4604 -0.1791
18456TIP3    H176783   6.758   2.913  14.664  0.3882  0.7020 -0.2850
18456TIP3    H276784   6.704   2.914  14.806 -1.1932 -0.5176 -0.8508
18457TIP3   OH276785   0.620   5.319  13.201 -0.3019  0.0692  0.1818
18457TIP3    H176786   0.553   5.251  13.196 -1.6078  1.0913  2.2171
18457TIP3    H276787   0.590   5.387  13.141 -0.6941  0.1786  0.4950
18458TIP3   OH276788   6.262   6.486   2.787  0.3194 -0.3691 -0.1465
18458TIP3    H176789   6.307   6.539   2.722  2.1182 -0.4195  0.9883
18458TIP3    H276790   6.169   6.490   2.761  0.6272  1.7702 -1.1627
18459TIP3   OH276791   5.175   0.326   5.163  0.2372  0.1535 -0.2485
18459TIP3    H176792   5.119   0.368   5.229  0.3080 -1.2397  0.7438
18459TIP3    H276793   5.135   0.351   5.079 -0.8040  0.6668  0.3702
18460TIP3   OH276794   4.486   0.414  10.993 -0.0756 -0.5497  0.0417
18460TIP3    H176795   4.402   0.424  10.949  0.6403 -0.5552 -1.3650
18460TIP3    H276796   4.536   0.491  10.969 -0.0224 -0.0153  1.7379
18461TIP3   OH276797   3.548   5.749   4.729 -0.5048  0.4675 -0.4190
18461TIP3    H176798   3.499   5.687   4.783 -0.3788 -0.9328 -1.8652
18461TIP3    H276799   3.483   5.812   4.699 -0.8352  0.3910  0.1189
18462TIP3   OH276800   4.373   0.575   2.698  0.1295 -0.1250 -0.0102
18462TIP3    H176801   4.342   0.637   2.765  0.5859 -0.8922  0.9487
18462TIP3    H276802   4.453   0.614   2.665 -0.7734  0.8976 -1.0744
18463TIP3   OH276803   6.550   4.086  12.321 -0.0614 -0.2857  0.3199
18463TIP3    H176804   6.533   4.180  12.321 -0.1929 -0.3108 -0.2788
18463TIP3    H276805   6.551   4.062  12.414  0.3011  0.3652  0.4841
18464TIP3   OH276806   4.714   3.978  15.410  0.0759  0.1599  0.1171
18464TIP3    H176807   4.776   3.916  15.373 -0.5396  1.1429 -2.7888
18464TIP3    H276808   4.766   4.057  15.425 -0.0666  0.3916 -0.5731
18465TIP3   OH276809   3.360   4.079   4.749  0.6929 -0.0796 -1.0628
18465TIP3    H176810   3.445   4.092   4.707  0.7081  2.5289 -0.3312
18465TIP3    H276811   3.380   4.028   4.828  1.6573  0.9016 -0.6544
18466TIP3   OH276812   0.774   4.353   1.175  0.1689 -0.1952  0.1783
18466TIP3    H176813   0.688   4.372   1.138  0.9321  0.3392 -1.4294
18466TIP3    H276814   0.813   4.289   1.115  1.5272  0.8458 -0.1135
18467TIP3   OH276815   1.080   5.727  14.682  0.0351  0.5187  0.2103
18467TIP3    H176816   1.150   5.728  14.748 -0.1267  0.8412  0.3780
18467TIP3    H276817   1.123   5.694  14.603  0.0315 -0.6822  0.6870
18468TIP3   OH276818   1.699   3.157   6.155  0.2886  0.0374  0.1725
18468TIP3    H176819   1.752   3.210   6.214  0.7328 -1.8035  1.4874
18468TIP3    H276820   1.636   3.113   6.212 -2.3626  1.7027 -1.2672
18469TIP3   OH276821   3.432   1.230  10.993 -0.3297  0.9862  0.4915
18469TIP3    H176822   3.517   1.257  10.959 -0.5144  0.2536 -0.6027
18469TIP3    H276823   3.450   1.197  11.081  0.2919  2.0817  0.7997
18470TIP3   OH276824   2.072   1.257  17.218  0.5556 -0.0594  0.0604
18470TIP3    H176825   2.103   1.316  17.149  0.9980 -1.1628 -0.7170
18470TIP3    H276826   2.015   1.195  17.172  1.6169 -1.4042  0.4996
18471TIP3   OH276827   5.741   3.855   4.232 -0.5473  0.0177  0.4698
18471TIP3    H176828   5.803   3.887   4.297 -1.1027 -0.5532  1.2963
18471TIP3    H276829   5.660   3.840   4.281 -1.2365  0.3879 -0.5151
18472TIP3   OH276830   4.693   5.290   2.247 -0.2969 -0.0447 -0.3370
18472TIP3    H176831   4.657   5.305   2.160  2.6123  3.0765 -1.2219
18472TIP3    H276832   4.765   5.228   2.233 -0.8558 -0.8445  0.2080
18473TIP3   OH276833   1.728   0.034  16.032  0.4008 -0.3053 -0.4887
18473TIP3    H176834   1.805   0.085  16.055  0.3258 -0.4572  0.1076
18473TIP3    H276835   1.654   0.084  16.067  0.3287 -0.8240  0.1120
18474TIP3   OH276836   4.134   0.984   3.449 -0.5327 -0.6075 -0.1513
18474TIP3    H176837   4.160   0.938   3.368  0.6935 -0.1997 -0.0165
18474TIP3    H276838   4.102   1.068   3.419 -0.0241 -0.4342 -0.2208
18475TIP3   OH276839   0.271   6.720   1.527  0.0062 -0.5487  0.1327
18475TIP3    H176840   0.211   6.795   1.528  0.1221 -0.4537  1.5961
18475TIP3    H276841   0.267   6.688   1.437 -1.2173  0.2683 -0.1313
18476TIP3   OH276842   1.177   0.967  15.998  0.3217 -0.0961  0.3965
18476TIP3    H176843   1.179   0.948  16.092  0.0048 -0.5461  0.3143
18476TIP3    H276844   1.194   0.883  15.956 -0.6547 -0.1193  0.0327
18477TIP3   OH276845   2.079   2.145   2.252 -0.3214 -0.4926 -0.0090
18477TIP3    H176846   2.152   2.141   2.190  0.1264 -0.2055  0.5005
18477TIP3    H276847   2.102   2.216   2.312 -1.0601 -0.3409  0.1021
18478TIP3   OH276848   6.022   5.078  12.217 -0.6555  0.0052 -0.3949
18478TIP3    H176849   6.027   5.097  12.310 -3.1594  0.4098 -0.2820
18478TIP3    H276850   5.991   4.988  12.212  0.1589 -0.2623 -0.8713
18479TIP3   OH276851   3.864   2.140  15.187  0.2005  0.1589  0.6472
18479TIP3    H176852   3.954   2.121  15.213  0.0873  0.9942  1.6950
18479TIP3    H276853   3.822   2.054  15.181  1.2883 -0.3087 -0.7817
18480TIP3   OH276854   0.381   3.443   4.370  0.5487 -0.2934 -0.0770
18480TIP3    H176855   0.408   3.372   4.427  0.5089  0.5156  0.9790
18480TIP3    H276856   0.433   3.431   4.290  1.2112 -0.9623  0.4445
18481TIP3   OH276857   5.080   4.547  15.964 -0.0689 -0.2048 -0.5577
18481TIP3    H176858   5.093   4.499  15.883 -0.1489 -0.9392 -0.1452
18481TIP3    H276859   5.009   4.502  16.008 -0.1800  0.3251 -0.1790
18482TIP3   OH276860   6.213   3.884   1.427 -0.0839 -0.1864  0.2224
18482TIP3    H176861   6.138   3.867   1.369  0.7776  1.0202 -1.3249
18482TIP3    H276862   6.216   3.808   1.485 -2.9582  0.0688  0.8608
18483TIP3   OH276863   0.871   3.501   1.314  0.0619  0.0842  0.0896
18483TIP3    H176864   0.882   3.588   1.276 -0.7401  0.4953  0.7513
18483TIP3    H276865   0.856   3.443   1.239 -2.1047  0.9680 -0.2346
18484TIP3   OH276866   0.201   1.611   6.494 -0.3176 -0.1691  0.4422
18484TIP3    H176867   0.193   1.706   6.500  0.7174 -0.0651  0.3840
18484TIP3    H276868   0.113   1.578   6.511 -0.3543  0.7241  2.2662
18485TIP3   OH276869   4.222   5.192   5.058  0.5502 -0.3140 -0.6170
18485TIP3    H176870   4.178   5.107   5.059  0.1291 -0.0967 -0.6170
18485TIP3    H276871   4.210   5.226   5.147 -3.4796  1.8838 -1.7703
18486TIP3   OH276872   0.897   0.632  13.097  0.2392 -0.1977 -0.3588
18486TIP3    H176873   0.829   0.567  13.116 -3.0008  2.9386 -0.0342
18486TIP3    H276874   0.899   0.637  13.002 -0.9535  0.4860 -0.3745
18487TIP3   OH276875   3.468   1.323  12.135 -0.7159  0.2955 -0.2317
18487TIP3    H176876   3.402   1.354  12.073 -1.4918 -2.8248 -1.1656
18487TIP3    H276877   3.524   1.266  12.083 -0.5673 -1.3470  1.6171
18488TIP3   OH276878   1.220   4.057   3.723  0.0829 -0.5271 -0.2689
18488TIP3    H176879   1.176   4.089   3.644 -1.2177 -1.9291 -0.1744
18488TIP3    H276880   1.308   4.034   3.694  0.9666  2.5894 -0.4127
18489TIP3   OH276881   4.050   0.109  13.081  0.1128 -0.2638  0.4166
18489TIP3    H176882   4.076   0.021  13.107 -0.0743 -0.1449  1.0297
18489TIP3    H276883   4.028   0.153  13.164 -0.2611  0.2039  0.0769
18490TIP3   OH276884   5.679   0.191   6.000 -0.1025 -0.4265 -0.2282
18490TIP3    H176885   5.613   0.205   6.068  1.4934  1.6754  1.0169
18490TIP3    H276886   5.644   0.236   5.923 -0.5201 -0.0671  0.1662
18491TIP3   OH276887   4.458   4.527   0.517  0.1997 -0.4551  0.2292
18491TIP3    H176888   4.368   4.560   0.521  0.4414  0.1584  0.9561
18491TIP3    H276889   4.454   4.453   0.457 -0.5648  0.2750 -0.6585
18492TIP3   OH276890   4.393   4.724  15.210 -0.0413 -0.1352  0.1832
18492TIP3    H176891   4.328   4.781  15.250 -0.4457  0.8466 -1.7594
18492TIP3    H276892   4.365   4.715  15.119  1.7288 -0.8971 -0.3396
18493TIP3   OH276893   5.840   6.170  16.969 -0.0306  0.2571  0.3649
18493TIP3    H176894   5.799   6.107  17.029  2.3623 -0.1003  1.7714
18493TIP3    H276895   5.842   6.125  16.885 -1.9292  0.0845  0.3691
18494TIP3   OH276896   0.381   5.797   6.229  0.4019  0.7289  1.1117
18494TIP3    H176897   0.337   5.731   6.283  1.0463 -0.6850 -0.0164
18494TIP3    H276898   0.474   5.787   6.250  0.6075  0.5181  0.1592
18495TIP3   OH276899   0.494   0.160  14.592 -0.3367  0.0871  0.7654
18495TIP3    H176900   0.584   0.129  14.605 -0.3611  0.2963  1.4599
18495TIP3    H276901   0.452   0.091  14.539 -0.3294 -0.9748  2.0915
18496TIP3   OH276902   6.024   0.735  15.707 -0.6891 -0.1796  0.2790
18496TIP3    H176903   5.982   0.697  15.785  1.1676 -0.2119  1.3268
18496TIP3    H276904   6.049   0.823  15.734 -2.3729  0.8101 -1.1953
18497TIP3   OH276905   4.014   4.005  16.171  0.4791 -0.1923  0.3795
18497TIP3    H176906   4.027   4.039  16.083 -0.6367  0.2037  0.3489
18497TIP3    H276907   4.076   3.933  16.179  2.0745  1.0817  0.0143
18498TIP3   OH276908   2.177   3.997   5.408 -0.1122 -0.2031  0.2082
18498TIP3    H176909   2.255   4.053   5.411 -1.3421  1.6840 -0.7454
18498TIP3    H276910   2.131   4.017   5.490  0.7651 -1.9978  1.2128
18499TIP3   OH276911   0.454   6.677  16.670 -0.3660  0.0297  0.8125
18499TIP3    H176912   0.482   6.752  16.618 -0.4477 -2.0324 -2.4887
18499TIP3    H276913   0.522   6.611  16.655 -2.1390 -1.8019  0.4775
18500TIP3   OH276914   3.199   1.842   6.007  0.4510 -0.6338 -0.0542
18500TIP3    H176915   3.145   1.782   6.057  0.6366  0.0169  0.9637
18500TIP3    H276916   3.230   1.905   6.071  1.1369 -0.0810 -0.9037
18501TIP3   OH276917   3.860   4.986   0.619 -0.4199  0.0993  0.2312
18501TIP3    H176918   3.880   4.919   0.553  1.8209  0.8947  0.0297
18501TIP3    H276919   3.893   4.949   0.701 -1.1197  0.0734  0.5025
18502TIP3   OH276920   4.898   5.524  12.906  0.3245 -0.5521 -0.5952
18502TIP3    H176921   4.815   5.500  12.948  0.7046 -2.1740 -0.6994
18502TIP3    H276922   4.926   5.603  12.952 -0.5645 -0.8177  0.4454
18503TIP3   OH276923   3.938   3.583  17.206 -0.8166  1.0346  0.5868
18503TIP3    H176924   3.958   3.496  17.241 -2.3359  0.5126  0.2112
18503TIP3    H276925   4.011   3.602  17.147 -0.1317  0.3240  1.1740
18504TIP3   OH276926   2.120   4.317   2.753  0.6052 -0.4140  0.0988
18504TIP3    H176927   2.168   4.392   2.788 -0.8748  0.2619  0.7617
18504TIP3    H276928   2.178   4.281   2.685  0.1231  3.1764 -2.4775
18505TIP3   OH276929   3.295   5.952  14.479  0.6585 -0.0461 -0.5280
18505TIP3    H176930   3.387   5.941  14.455  1.1856  0.5914  1.1033
18505TIP3    H276931   3.290   5.924  14.571 -1.6107 -4.1013 -1.6253
18506TIP3   OH276932   1.714   5.026   0.962  0.2207  0.0097  1.4208
18506TIP3    H176933   1.757   4.971   0.897 -0.1233 -1.1213  2.1202
18506TIP3    H276934   1.758   5.005   1.044  1.3279  2.1458  1.4394
18507TIP3   OH276935   6.329   1.058   3.835  0.1424 -0.5073  0.2454
18507TIP3    H176936   6.326   0.964   3.814  1.7345 -0.4811 -0.2635
18507TIP3    H276937   6.418   1.072   3.867  0.8766  1.3223 -2.3189
18508TIP3   OH276938   0.052   5.909   0.563  0.4792 -0.2345 -0.3250
18508TIP3    H176939   0.110   5.975   0.526  0.6551  0.7672  1.5795
18508TIP3    H276940  -0.027   5.913   0.509  1.5223 -0.4380 -1.9181
18509TIP3   OH276941   2.498   3.927  12.982 -0.1574  0.2352  0.0109
18509TIP3    H176942   2.587   3.941  12.951 -1.0802  1.5733 -2.3867
18509TIP3    H276943   2.472   4.011  13.021 -0.2665 -0.2464  0.9890
18510TIP3   OH276944   2.030   4.245  16.931 -0.5188 -0.1394 -0.2887
18510TIP3    H176945   2.005   4.189  16.857 -1.8558 -0.3178  0.2789
18510TIP3    H276946   2.001   4.332  16.905  0.5226  0.1104 -0.6720
18511TIP3   OH276947   5.277   6.520  11.673 -0.3788  0.2611  0.4868
18511TIP3    H176948   5.279   6.487  11.763  0.2756 -1.2805 -0.0698
18511TIP3    H276949   5.198   6.481  11.636 -0.5653  0.7764  0.3373
18512TIP3   OH276950   2.921   0.169  12.554  0.4017  0.4696 -0.9027
18512TIP3    H176951   2.875   0.203  12.631  0.7561 -0.8905 -0.0359
18512TIP3    H276952   2.951   0.247  12.507  0.7427  1.3483  0.6910
18513TIP3   OH276953   4.922   0.680   5.502  0.5177 -0.1058  0.7272
18513TIP3    H176954   4.980   0.705   5.574  1.7042  0.9773 -0.5345
18513TIP3    H276955   4.906   0.762   5.454 -2.0333 -0.3819  0.9739
18514TIP3   OH276956   5.719   2.673  11.928 -0.5339  0.1679  0.2684
18514TIP3    H176957   5.623   2.668  11.937 -0.5833  2.2822  1.6952
18514TIP3    H276958   5.751   2.666  12.018  0.6377 -0.0965 -0.1584
18515TIP3   OH276959   5.364   2.780  17.117  0.1623  0.1034  0.0985
18515TIP3    H176960   5.423   2.740  17.053  1.3140  0.6525  0.7856
18515TIP3    H276961   5.422   2.814  17.185 -0.9021  1.2631  0.4602
18516TIP3   OH276962   1.340   2.660   3.385 -0.1995 -0.7195 -0.0282
18516TIP3    H176963   1.371   2.629   3.300  1.6402 -0.9416  0.6828
18516TIP3    H276964   1.383   2.745   3.396 -0.7805 -0.4896  0.4877
18517TIP3   OH276965   6.502   5.548  14.139 -0.1387  0.1484  0.2864
18517TIP3    H176966   6.506   5.479  14.204  2.1450  0.4456  0.5310
18517TIP3    H276967   6.431   5.521  14.080 -1.4484 -0.7203  2.1526
18518TIP3   OH276968   5.718   5.335   0.761  0.1815 -0.8148  0.3054
18518TIP3    H176969   5.694   5.407   0.818 -0.1776 -1.1922  0.6353
18518TIP3    H276970   5.657   5.265   0.784  0.4760 -1.1956 -0.0642
18519TIP3   OH276971   4.811   3.242   1.434  0.9081 -0.5401  0.4324
18519TIP3    H176972   4.881   3.286   1.482 -0.0475  2.1207 -0.4484
18519TIP3    H276973   4.852   3.215   1.352  1.3370 -0.6421  0.6743
18520TIP3   OH276974   1.297   2.693  16.478  0.4188  0.2759  0.6066
18520TIP3    H176975   1.364   2.647  16.427  0.8227  0.8094  0.6406
18520TIP3    H276976   1.222   2.634  16.479  0.4398  0.2013 -0.5090
18521TIP3   OH276977   0.293   4.402   5.624  0.2600  0.2830  0.2389
18521TIP3    H176978   0.279   4.489   5.586  0.7304 -0.2096 -1.1271
18521TIP3    H276979   0.258   4.342   5.559 -0.0233 -0.5645  1.1563
18522TIP3   OH276980   3.672   2.129  16.980  0.0365  0.3755 -0.2827
18522TIP3    H176981   3.648   2.153  17.070  0.0231 -0.7936  0.0399
18522TIP3    H276982   3.695   2.037  16.985  0.5061  0.4170 -1.4017
18523TIP3   OH276983   3.045   4.504  15.274 -0.4902  0.2090  0.3274
18523TIP3    H176984   3.115   4.452  15.314 -2.1958 -1.0966  1.7996
18523TIP3    H276985   3.048   4.588  15.319  0.1873  0.1957  0.3143
18524TIP3   OH276986   2.154   5.730  11.681 -0.3763  0.4548 -0.3532
18524TIP3    H176987   2.250   5.721  11.675 -0.2749  2.2909 -2.3350
18524TIP3    H276988   2.135   5.815  11.644 -2.7849  0.3888  0.5558
18525TIP3   OH276989   4.800   4.872  12.197 -0.3887 -0.4927 -0.4471
18525TIP3    H176990   4.867   4.815  12.160 -0.4610 -1.6774  1.1315
18525TIP3    H276991   4.849   4.936  12.249 -0.4335 -2.2109  1.8701
18526TIP3   OH276992   0.136   3.545  14.797 -0.1282 -0.6314  0.8233
18526TIP3    H176993   0.052   3.580  14.826 -0.7211 -1.2469 -0.0774
18526TIP3    H276994   0.198   3.616  14.810 -1.5315  1.3848 -2.2846
18527TIP3   OH276995   3.273   5.593  16.683  0.0838  0.1162 -0.0397
18527TIP3    H176996   3.184   5.625  16.694  0.4230  0.8500  0.6941
18527TIP3    H276997   3.264   5.499  16.671 -0.8638  0.3338 -1.0951
18528TIP3   OH276998   1.638   4.271  16.937  0.7040  0.2129  0.6067
18528TIP3    H176999   1.669   4.357  16.967  0.3140  0.6805 -0.2944
18528TIP3    H277000   1.685   4.208  16.992  0.9693  0.9989  1.3085
18529TIP3   OH277001   0.342   2.548  11.289 -0.0044  0.5226  0.4813
18529TIP3    H177002   0.290   2.509  11.359 -0.1361 -0.6227 -0.2208
18529TIP3    H277003   0.433   2.541  11.319  0.0719 -1.2407  0.0024
18530TIP3   OH277004   2.093   1.708   5.180  0.3439 -0.2265  0.3896
18530TIP3    H177005   2.054   1.755   5.253 -1.2162  0.7861 -1.0077
18530TIP3    H277006   2.066   1.617   5.192 -1.2181  0.2002  0.2772
18531TIP3   OH277007   2.127   3.837  13.659  0.2272  0.0222 -0.0553
18531TIP3    H177008   2.178   3.770  13.612 -1.5611 -1.0804 -0.5223
18531TIP3    H277009   2.095   3.792  13.737 -0.6569  0.4548 -0.1603
18532TIP3   OH277010   5.474   1.174   1.716  0.2539  0.0230  0.1837
18532TIP3    H177011   5.425   1.192   1.796  0.6307  0.8338  0.2397
18532TIP3    H277012   5.475   1.079   1.709 -0.9939 -0.0213  0.3903
18533TIP3   OH277013   4.125   2.958  11.653  0.3261 -0.1492  0.2679
18533TIP3    H177014   4.065   3.005  11.710  1.1631  0.5891  0.5679
18533TIP3    H277015   4.076   2.882  11.623 -0.4446 -0.0366  1.2125
18534TIP3   OH277016   5.027   5.549   0.201  0.2515 -0.4099 -0.4570
18534TIP3    H177017   5.019   5.458   0.172  1.2292 -0.7898  0.4344
18534TIP3    H277018   4.993   5.549   0.291  0.0462  0.1571 -0.5280
18535TIP3   OH277019   5.268   5.469   3.639  0.1162 -0.7621  0.2626
18535TIP3    H177020   5.226   5.432   3.561 -1.4955  0.2401  0.5996
18535TIP3    H277021   5.272   5.396   3.701 -0.5141 -1.0599 -0.0358
18536TIP3   OH277022   6.628   4.667   3.023 -0.2459  0.5515  0.8872
18536TIP3    H177023   6.657   4.695   2.936 -0.9330 -0.8976  0.1472
18536TIP3    H277024   6.683   4.716   3.084 -0.8884  2.8826 -0.2814
18537TIP3   OH277025   4.591   5.538   5.751 -0.2406 -0.1620  0.0320
18537TIP3    H177026   4.651   5.605   5.784 -2.2309  1.7826 -0.0884
18537TIP3    H277027   4.583   5.556   5.657 -0.1181 -1.1791 -0.1941
18538TIP3   OH277028   4.420   2.197   5.960 -0.4309 -0.0184  0.2191
18538TIP3    H177029   4.350   2.253   5.926 -0.5625 -0.4657 -0.2626
18538TIP3    H277030   4.473   2.176   5.883 -0.9230 -1.3240  0.2146
18539TIP3   OH277031   3.114   5.118  12.172 -0.4234  0.4909 -0.3523
18539TIP3    H177032   3.077   5.206  12.184 -1.8110  0.1100 -1.5104
18539TIP3    H277033   3.059   5.078  12.105 -1.9273 -2.4738  2.3864
18540TIP3   OH277034   2.413   2.367   2.154 -0.0172 -0.6013  0.8116
18540TIP3    H177035   2.449   2.381   2.066 -0.8782 -3.1455 -0.0332
18540TIP3    H277036   2.447   2.281   2.181 -1.8164 -1.0426  1.8557
18541TIP3   OH277037   2.236   2.494  12.610  0.1279  0.0234 -0.7959
18541TIP3    H177038   2.155   2.445  12.618  1.5226 -2.2422  0.6881
18541TIP3    H277039   2.234   2.529  12.521 -2.4435  0.1021 -0.7866
18542TIP3   OH277040   4.461   3.649   3.216  0.4284 -0.5781 -0.2651
18542TIP3    H177041   4.478   3.690   3.131  0.5988 -0.3968 -0.1433
18542TIP3    H277042   4.515   3.570   3.216  2.0286  0.4778  0.4997
18543TIP3   OH277043   5.731   0.685   4.875 -0.3349 -0.8604  0.4309
18543TIP3    H177044   5.671   0.725   4.937 -2.7503 -1.6121 -1.2792
18543TIP3    H277045   5.690   0.601   4.852 -0.2997 -0.0729 -3.1116
18544TIP3   OH277046   5.358   5.791  11.876 -0.1108 -0.5766 -0.4759
18544TIP3    H177047   5.397   5.744  11.950 -0.6293  1.2376  1.0197
18544TIP3    H277048   5.433   5.832  11.832  0.1690 -1.4441 -0.8369
18545TIP3   OH277049   2.903   6.482  14.183  0.0173 -0.3345 -0.8681
18545TIP3    H177050   2.997   6.481  14.203 -0.2015 -1.1902  0.1661
18545TIP3    H277051   2.872   6.566  14.219  0.3506 -0.1053 -1.1048
18546TIP3   OH277052   2.864   4.301   2.156 -0.0179  0.0820 -1.1492
18546TIP3    H177053   2.947   4.254   2.162 -0.2098 -0.0995  0.4707
18546TIP3    H277054   2.878   4.380   2.209 -1.0097 -0.1726 -0.4934
18547TIP3   OH277055   2.205   0.987  17.154  0.0204 -0.6289  0.1239
18547TIP3    H177056   2.122   1.028  17.179  0.8269  0.2963  1.4145
18547TIP3    H277057   2.237   1.040  17.081 -0.0282 -0.3368  0.3116
18548TIP3   OH277058   5.454   4.999  15.165  0.1708  0.1505 -0.4304
18548TIP3    H177059   5.431   5.002  15.258 -0.3835  1.0592 -0.5747
18548TIP3    H277060   5.422   4.914  15.135  0.9890 -0.4479  0.3557
18549TIP3   OH277061   2.272   6.734  13.823  0.1991  0.3623  0.1830
18549TIP3    H177062   2.296   6.821  13.791 -0.4241  0.0644 -1.1854
18549TIP3    H277063   2.325   6.722  13.902  1.1439  1.5179 -0.2399
18550TIP3   OH277064   5.605   0.131  16.786  0.0672 -0.3617  0.1997
18550TIP3    H177065   5.640   0.045  16.810  0.3020 -0.8230 -1.6604
18550TIP3    H277066   5.568   0.119  16.699  0.5350  1.5463 -0.3186
18551TIP3   OH277067   1.345   3.432  13.773 -0.1228 -0.0724 -0.7523
18551TIP3    H177068   1.435   3.440  13.742  0.9490 -0.8900  1.9569
18551TIP3    H277069   1.313   3.351  13.733 -0.1239  0.7866 -2.6230
18552TIP3   OH277070   0.467   3.821  16.972 -0.3316 -0.6174 -0.0093
18552TIP3    H177071   0.435   3.869  16.896  0.7277  1.5207  0.7844
18552TIP3    H277072   0.515   3.747  16.936  0.7859  0.7535 -1.5114
18553TIP3   OH277073   4.344   3.773   3.575  0.1062  0.2498  0.1876
18553TIP3    H177074   4.397   3.814   3.507  0.5645  0.4271  0.6491
18553TIP3    H277075   4.385   3.799   3.657  1.2262 -2.1732  0.5012
18554TIP3   OH277076   0.449   0.310  13.016 -0.2309  0.1600  0.3534
18554TIP3    H177077   0.430   0.367  13.091  0.1160  0.0801  0.5057
18554TIP3    H277078   0.364   0.272  12.993 -0.2580 -0.2267  1.0503
18555TIP3   OH277079   5.642   2.038   4.077  0.3200 -0.3465 -0.3626
18555TIP3    H177080   5.702   2.025   4.150  1.5698  0.2731 -1.2368
18555TIP3    H277081   5.668   2.121   4.038 -1.1581 -0.0278 -0.7483
18556TIP3   OH277082   2.296   3.488   0.640 -0.2300 -0.1926 -0.2611
18556TIP3    H177083   2.252   3.540   0.573 -0.4782 -0.3641 -0.2323
18556TIP3    H277084   2.256   3.401   0.634 -0.0253 -0.2992 -0.1100
18557TIP3   OH277085   5.171   2.612  12.102  0.4082  0.0631  0.5110
18557TIP3    H177086   5.227   2.548  12.147  1.3575  0.4677 -0.0573
18557TIP3    H277087   5.196   2.696  12.142  1.4611  0.4652 -0.9107
18558TIP3   OH277088   0.552   3.796   4.796 -0.4562 -0.1796 -0.5456
18558TIP3    H177089   0.537   3.765   4.707  0.4156  1.2519 -1.2310
18558TIP3    H277090   0.647   3.792   4.807 -0.6194 -1.2400  0.6819
18559TIP3   OH277091   0.072   3.082  11.997 -0.6642 -0.1090  0.2536
18559TIP3    H177092   0.109   3.004  12.037  0.2583  0.4021  0.4181
18559TIP3    H277093   0.148   3.133  11.969 -1.2059 -0.7245 -2.7463
18560TIP3   OH277094   5.084   2.862  15.906  0.1281  0.1982 -0.0937
18560TIP3    H177095   5.136   2.858  15.826 -0.5797  1.1829 -0.6263
18560TIP3    H277096   4.996   2.885  15.876 -0.3052 -0.0976  0.9108
18561TIP3   OH277097   4.078   5.764   2.656 -0.3569 -0.1443 -0.0610
18561TIP3    H177098   4.123   5.721   2.583  0.4530 -1.0880  0.9562
18561TIP3    H277099   4.032   5.838   2.616  2.4156  1.1449 -1.1391
18562TIP3   OH277100   3.448   5.339  14.405  0.4192 -0.3557  0.0001
18562TIP3    H177101   3.396   5.329  14.484  0.6841  0.4030  0.2706
18562TIP3    H277102   3.515   5.271  14.412  0.5283 -0.2008  0.4968
18563TIP3   OH277103   4.811   4.922   1.641  0.0383  0.0381  0.3064
18563TIP3    H177104   4.836   4.957   1.727 -0.5143 -1.2470  1.0039
18563TIP3    H277105   4.872   4.965   1.580  3.2299 -2.0312  1.7734
18564TIP3   OH277106   4.729   2.935  13.364  0.3199 -0.4152  0.0274
18564TIP3    H177107   4.648   2.978  13.389  1.8419  2.4623  0.4037
18564TIP3    H277108   4.702   2.868  13.301 -2.4395 -0.5078  1.1865
18565TIP3   OH277109   3.134   6.535  11.423 -0.2738  0.4423 -0.0087
18565TIP3    H177110   3.097   6.589  11.354 -0.1925 -0.1286 -0.5126
18565TIP3    H277111   3.072   6.462  11.432  0.8728 -0.7529 -1.1609
18566TIP3   OH277112   2.176   4.941  14.893 -0.5808  0.2788 -0.3251
18566TIP3    H177113   2.200   4.958  14.802  0.7724 -1.5014 -0.3716
18566TIP3    H277114   2.247   4.886  14.926 -2.0684 -0.8307  1.1894
18567TIP3   OH277115   3.859   1.707   0.653  0.3889 -0.0833  0.5265
18567TIP3    H177116   3.785   1.660   0.691  1.0050 -0.8071  0.8637
18567TIP3    H277117   3.879   1.660   0.572 -0.0351  0.6095  0.0104
18568TIP3   OH277118   0.901   1.185   3.199 -0.3901 -0.3036 -0.3655
18568TIP3    H177119   0.806   1.180   3.193 -0.2571 -2.7804 -2.3768
18568TIP3    H277120   0.923   1.144   3.282 -1.0284 -1.3994 -0.7254
18569TIP3   OH277121   5.196   3.872  12.470 -1.2478  0.3764  0.8030
18569TIP3    H177122   5.265   3.846  12.409 -2.4932 -0.8494 -0.1523
18569TIP3    H277123   5.241   3.925  12.536  0.4643  0.2042 -0.1669
18570TIP3   OH277124   4.135   0.465  15.549 -0.1392  0.2076 -0.2934
18570TIP3    H177125   4.188   0.445  15.472  2.5943  1.0555  1.2370
18570TIP3    H277126   4.052   0.419  15.534  1.8761 -3.3947 -1.7001
18571TIP3   OH277127   2.716   0.229  13.360 -0.2154  0.4292  0.3801
18571TIP3    H177128   2.744   0.273  13.441 -2.0805  0.0982  1.2471
18571TIP3    H277129   2.731   0.294  13.291 -0.2830  1.3820  1.2379
18572TIP3   OH277130   4.354   4.647  13.960 -0.2284  0.5254  0.1327
18572TIP3    H177131   4.295   4.714  13.994 -0.7936 -0.4679  1.1843
18572TIP3    H277132   4.401   4.615  14.037 -0.9657 -1.2408 -0.0984
18573TIP3   OH277133   2.859   1.510  11.379 -0.2355 -0.0904 -0.5488
18573TIP3    H177134   2.909   1.437  11.416 -3.7748 -2.5479 -0.0129
18573TIP3    H277135   2.809   1.470  11.308 -0.3771  2.4996 -2.0071
18574TIP3   OH277136   5.279   0.764   1.118 -0.5516 -0.1333 -0.3618
18574TIP3    H177137   5.273   0.800   1.030 -2.6479  0.6446  0.0427
18574TIP3    H277138   5.295   0.839   1.175  1.3122 -0.6896 -0.0738
18575TIP3   OH277139   5.750   5.472   3.275 -0.0553 -0.5008  0.0882
18575TIP3    H177140   5.776   5.466   3.183 -0.4794 -1.5444  0.0264
18575TIP3    H277141   5.688   5.545   3.277 -0.4377 -0.8049 -0.5492
18576TIP3   OH277142   3.579   1.690  10.767  0.0845  0.3611  0.3212
18576TIP3    H177143   3.533   1.705  10.685  0.4447  0.2888  0.1049
18576TIP3    H277144   3.668   1.719  10.751  0.0349  0.8440  0.8514
18577TIP3   OH277145   6.359   0.503  16.796 -0.6930  0.6650 -0.1097
18577TIP3    H177146   6.328   0.463  16.877  1.6848 -1.2865 -0.0626
18577TIP3    H277147   6.434   0.556  16.822 -1.2876  1.8980 -0.7864
18578TIP3   OH277148   0.219   3.570  14.101 -0.1590 -0.0639 -0.3079
18578TIP3    H177149   0.147   3.581  14.040  0.7822 -0.2211 -1.4851
18578TIP3    H277150   0.238   3.477  14.099 -0.0468 -0.0531  0.1476
18579TIP3   OH277151   4.820   4.684  11.780 -0.2028  0.1684 -0.6931
18579TIP3    H177152   4.850   4.621  11.846 -0.9976 -0.5696 -1.0095
18579TIP3    H277153   4.724   4.679  11.785 -0.3037 -0.8431 -2.7368
18580TIP3   OH277154   2.373   3.586   3.146 -0.3723 -0.0236  0.0090
18580TIP3    H177155   2.400   3.668   3.105 -0.2905 -0.4247 -0.7594
18580TIP3    H277156   2.412   3.589   3.233 -1.4114  1.3108  0.4617
18581TIP3   OH277157   5.402   3.704   6.296  0.3114 -0.6382 -0.5958
18581TIP3    H177158   5.429   3.760   6.369  1.4051 -0.0247 -1.4509
18581TIP3    H277159   5.429   3.616   6.321  1.0011 -0.3775 -0.4230
18582TIP3   OH277160   4.418   3.063  13.026  0.0857 -0.0949 -0.2344
18582TIP3    H177161   4.436   2.971  13.045  0.1431  0.1514  0.9666
18582TIP3    H277162   4.483   3.112  13.076  1.3451  0.5854 -2.4075
18583TIP3   OH277163   2.025   5.501  11.748 -0.0529 -0.2149  0.2459
18583TIP3    H177164   2.005   5.502  11.841  2.3650 -1.2495  0.8340
18583TIP3    H277165   2.050   5.591  11.728 -1.0179  0.1149  0.4421
18584TIP3   OH277166   1.275   4.319  13.550 -0.3833  0.1159 -0.3300
18584TIP3    H177167   1.194   4.339  13.597 -1.1908 -1.3753 -0.9800
18584TIP3    H277168   1.246   4.266  13.476  1.2510 -1.0822 -0.1719
18585TIP3   OH277169   5.546   5.906  11.725 -0.3446 -0.6632 -0.2384
18585TIP3    H177170   5.622   5.960  11.705 -1.4130  0.9590 -0.1098
18585TIP3    H277171   5.520   5.868  11.641 -0.2548 -0.0467 -0.5505
18586TIP3   OH277172   0.459   2.091  13.953  0.7323  0.6488  0.4792
18586TIP3    H177173   0.551   2.082  13.978  1.5498  2.3199 -1.5964
18586TIP3    H277174   0.460   2.086  13.857 -1.3432  0.7663  0.4074
18587TIP3   OH277175   2.378   3.576   5.194 -0.4973 -0.0720  0.0762
18587TIP3    H177176   2.385   3.652   5.252  0.8618 -1.3180  1.6028
18587TIP3    H277177   2.319   3.516   5.239 -0.0293 -0.7320 -0.1726
18588TIP3   OH277178   6.676   0.665   1.496 -0.0792  0.2850  0.0237
18588TIP3    H177179   6.630   0.601   1.442  0.7083 -1.9021  1.7922
18588TIP3    H277180   6.663   0.748   1.451 -2.2891 -0.8733 -1.6745
18589TIP3   OH277181   0.225   1.822  10.687  0.2405  0.0289 -0.3476
18589TIP3    H177182   0.249   1.789  10.600  1.2679 -0.6330  0.1758
18589TIP3    H277183   0.191   1.745  10.733 -0.4198  0.4059 -0.1979
18590TIP3   OH277184   3.307   1.919   2.415  0.3431 -0.2566  0.3474
18590TIP3    H177185   3.214   1.932   2.395  0.2417  0.3100  1.1353
18590TIP3    H277186   3.343   1.877   2.337 -0.8354 -1.6175  0.5026
18591TIP3   OH277187   1.202   3.059  17.230  0.3768 -0.0479 -0.2053
18591TIP3    H177188   1.240   2.979  17.194 -0.4883 -0.2271 -0.7420
18591TIP3    H277189   1.278   3.114  17.251  0.9412 -0.5294 -0.9382
18592TIP3   OH277190   6.450   3.282   6.022  0.0278 -0.0309 -0.3774
18592TIP3    H177191   6.509   3.331   6.081 -0.2687  0.6418 -0.6354
18592TIP3    H277192   6.475   3.310   5.934 -0.3643 -0.1066 -0.5136
18593TIP3   OH277193   0.433   3.839   5.248 -0.0858 -0.2536  0.3318
18593TIP3    H177194   0.434   3.773   5.178  1.5510  1.1734 -1.1194
18593TIP3    H277195   0.491   3.804   5.315  1.3255 -0.0644 -0.7328
18594TIP3   OH277196   5.646   0.179  12.897  0.2808 -0.5611  0.4380
18594TIP3    H177197   5.711   0.119  12.862  0.1040 -1.7856  2.0727
18594TIP3    H277198   5.584   0.192  12.825  0.1860 -2.5766  0.1006
18595TIP3   OH277199   1.284   2.668  12.919  0.5974 -0.0304  0.1832
18595TIP3    H177200   1.314   2.580  12.941  0.2645  0.3331  2.3133
18595TIP3    H277201   1.338   2.693  12.844  0.8679 -1.9363 -0.3130
18596TIP3   OH277202   0.143   2.791  12.453  0.4938 -0.0098  0.2492
18596TIP3    H177203   0.209   2.836  12.505  0.9658  0.1442 -0.4678
18596TIP3    H277204   0.080   2.859  12.430  1.2151  0.3136 -0.8473
18597TIP3   OH277205   6.235   2.395  12.280 -0.3740 -0.5033 -0.6264
18597TIP3    H177206   6.312   2.429  12.234  0.1662 -1.3281 -0.3366
18597TIP3    H277207   6.204   2.323  12.225 -0.2043 -0.9716 -0.1125
18598TIP3   OH277208   1.096   1.728   4.174 -0.2923 -0.2626 -0.3796
18598TIP3    H177209   1.013   1.736   4.221  0.0665  0.0587  0.2054
18598TIP3    H277210   1.104   1.635   4.154  0.0604 -0.5888  1.1439
18599TIP3   OH277211   6.228   2.702   3.374  0.3111  0.4188 -0.2463
18599TIP3    H177212   6.285   2.684   3.449 -0.7429 -0.2851  0.4183
18599TIP3    H277213   6.288   2.711   3.300  1.2694 -0.6018  0.3711
18600TIP3   OH277214   0.434   6.654  12.418 -0.1775  0.6029 -0.0409
18600TIP3    H177215   0.458   6.617  12.333 -0.2009  0.7521 -0.1138
18600TIP3    H277216   0.416   6.578  12.473  1.2955  0.4540  0.2693
18601TIP3   OH277217   0.163   3.387  12.680  0.1533 -0.5146  0.3814
18601TIP3    H177218   0.141   3.296  12.659  1.6383 -0.9354  0.5006
18601TIP3    H277219   0.149   3.394  12.774  1.1266 -0.9824  0.5785
18602TIP3   OH277220   2.083   3.880  12.368  0.0460  0.4345 -0.4820
18602TIP3    H177221   2.139   3.914  12.298 -1.1084  1.3743 -0.9901
18602TIP3    H277222   2.038   3.805  12.330  0.6334 -0.0588 -0.2119
18603TIP3   OH277223   0.411   2.147  13.291 -0.1634 -0.3912 -0.4466
18603TIP3    H177224   0.474   2.135  13.221 -1.1161 -1.6316 -1.1256
18603TIP3    H277225   0.452   2.212  13.349  0.9372  0.1399 -1.7639
18604TIP3   OH277226   2.002   4.331   6.095 -0.5703 -0.5757 -1.0700
18604TIP3    H177227   2.094   4.311   6.078  0.3095  0.3525  1.8417
18604TIP3    H277228   1.960   4.246   6.110  0.3055 -0.9098 -0.4542
18605TIP3   OH277229   2.720   2.348  14.885  0.3535 -0.4417  0.1079
18605TIP3    H177230   2.702   2.310  14.971 -1.6880  2.0337  0.8775
18605TIP3    H277231   2.635   2.352  14.841 -0.4797  5.7668  1.3309
18606TIP3   OH277232   6.318   6.481   6.387  0.0234  0.1942 -0.1565
18606TIP3    H177233   6.346   6.512   6.473  2.0671  4.0529 -1.9358
18606TIP3    H277234   6.229   6.515   6.378  0.3903  1.2415 -0.0919
18607TIP3   OH277235   3.769   0.898  14.777 -0.1335  0.2459 -0.7728
18607TIP3    H177236   3.789   0.810  14.743 -1.2370 -0.6313  0.7209
18607TIP3    H277237   3.675   0.907  14.765 -0.3604  0.3726  0.9303
18608TIP3   OH277238   2.773   0.812   1.389  0.5047 -0.0761  0.7332
18608TIP3    H177239   2.707   0.881   1.390  0.8798  0.5954 -3.2671
18608TIP3    H277240   2.732   0.740   1.342  2.1733  0.0214 -1.0454
18609TIP3   OH277241   0.600   5.770  13.182  0.7327 -0.5492  0.4291
18609TIP3    H177242   0.548   5.840  13.220  0.8076 -0.8202  1.0496
18609TIP3    H277243   0.681   5.812  13.153 -0.7678  0.3806 -2.8880
18610TIP3   OH277244   1.722   2.945   0.785 -0.0477 -0.0875 -0.0049
18610TIP3    H177245   1.797   2.922   0.840  0.9547  1.5901 -0.6124
18610TIP3    H277246   1.715   2.872   0.724  1.5435  0.0430 -0.3850
18611TIP3   OH277247   2.624   6.270   0.617  0.1976 -0.4170  0.0649
18611TIP3    H177248   2.549   6.225   0.656  0.5993 -0.7035  0.5203
18611TIP3    H277249   2.639   6.224   0.534  2.2473 -2.9373  1.6933
18612TIP3   OH277250   5.020   3.946   4.495 -0.2611 -0.4902 -0.2464
18612TIP3    H177251   5.043   3.864   4.452  1.0955  0.4265 -1.3474
18612TIP3    H277252   5.102   3.995   4.500 -0.8656  0.4556  1.1980
18613TIP3   OH277253   4.199   1.100  15.083  0.1968  0.6441  0.1025
18613TIP3    H177254   4.160   1.186  15.067  0.2761  1.3198  3.0699
18613TIP3    H277255   4.125   1.039  15.084 -0.2687  1.2124  1.2521
18614TIP3   OH277256   2.900   4.582  13.031 -0.3900  0.2202 -0.0904
18614TIP3    H177257   2.908   4.489  13.053 -0.3689  0.0336 -0.8458
18614TIP3    H277258   2.812   4.606  13.059 -0.0422  0.2303  1.0207
18615TIP3   OH277259   4.934   1.333   4.068 -0.3537 -0.0477  0.1969
18615TIP3    H177260   4.902   1.348   4.157  1.2513  1.6285  0.5614
18615TIP3    H277261   5.030   1.339   4.076 -0.1873  0.3954 -1.6910
18616TIP3   OH277262   3.660   2.222  14.082 -0.2818  0.1999 -0.0194
18616TIP3    H177263   3.748   2.229  14.045 -0.2995  1.5071  0.1172
18616TIP3    H277264   3.674   2.222  14.176 -0.2890 -2.2697  0.0312
18617TIP3   OH277265   2.929   4.186  15.406 -0.0371 -0.7582 -0.2065
18617TIP3    H177266   2.863   4.117  15.411  0.4911 -1.2400  0.1440
18617TIP3    H277267   2.919   4.235  15.487 -1.4550  0.5546 -1.1170
18618TIP3   OH277268   6.042   6.067  13.441 -0.1394 -0.4325  0.1751
18618TIP3    H177269   5.992   5.986  13.453 -1.5115  0.0975 -1.5286
18618TIP3    H277270   6.014   6.100  13.355  0.1859  1.9802  0.9247
18619TIP3   OH277271   4.575   5.242  15.692  0.0665  0.2553 -0.2206
18619TIP3    H177272   4.491   5.250  15.647 -0.3339 -0.6289  0.3562
18619TIP3    H277273   4.554   5.249  15.785  0.9924  2.9309 -0.1225
18620TIP3   OH277274   4.238   2.685  14.174  0.0755  0.4109  0.2592
18620TIP3    H177275   4.144   2.690  14.162  0.0267 -0.0842  0.4280
18620TIP3    H277276   4.253   2.600  14.217  0.5841  0.5288  0.3240
18621TIP3   OH277277   3.876   4.446  17.331 -0.1387 -0.0269  0.1924
18621TIP3    H177278   3.868   4.431  17.236  2.1744  1.1511 -0.2881
18621TIP3    H277279   3.828   4.527  17.346  0.7708  0.6417 -0.3330
18622TIP3   OH277280   5.343   5.169  10.944 -0.3617 -0.2023 -0.2607
18622TIP3    H177281   5.409   5.143  10.879 -0.3462 -2.8007  0.6538
18622TIP3    H277282   5.331   5.091  10.998 -1.7261  1.2825  1.7348
18623TIP3   OH277283   2.040   4.071  12.959  0.0335  0.2445  0.5918
18623TIP3    H177284   1.968   4.094  13.017 -1.3256 -0.3002 -0.8069
18623TIP3    H277285   2.010   3.992  12.914  1.7348 -0.2982  0.3486
18624TIP3   OH277286   0.523   1.191   4.258 -0.3595 -0.7391 -0.3839
18624TIP3    H177287   0.465   1.119   4.285 -1.9386  0.1915 -1.1801
18624TIP3    H277288   0.531   1.181   4.164  1.8992 -1.6148 -0.1612
18625TIP3   OH277289   3.075   0.778  10.999 -0.1549 -0.0312  0.1034
18625TIP3    H177290   3.167   0.798  10.980 -0.1812  1.4438  1.2974
18625TIP3    H277291   3.079   0.707  11.063  0.1282 -0.5593 -0.4990
18626TIP3   OH277292   2.994   1.232  17.340  0.6747 -0.1270 -0.1305
18626TIP3    H177293   2.934   1.202  17.272  1.9241  0.8059 -1.7296
18626TIP3    H277294   2.957   1.314  17.371  0.1444 -0.5132  0.2754
18627TIP3   OH277295   3.653   1.268   0.586  0.1281 -0.8591  0.2512
18627TIP3    H177296   3.665   1.347   0.534 -1.4525 -1.6706 -1.4733
18627TIP3    H277297   3.701   1.200   0.539  1.5776 -0.9542  1.7831
18628TIP3   OH277298   3.021   5.150  11.101 -0.1351 -0.4209 -0.4298
18628TIP3    H177299   2.968   5.124  11.177 -0.0480  0.1301 -0.1725
18628TIP3    H277300   2.997   5.241  11.086  0.1187 -0.4210 -0.8430
18629TIP3   OH277301   3.094   2.130   1.547 -0.1188  0.1159 -0.3459
18629TIP3    H177302   3.064   2.076   1.474 -1.4919  0.6567 -0.2105
18629TIP3    H277303   3.056   2.216   1.531  2.2489  1.1753 -0.6906
18630TIP3   OH277304   3.531   1.992  14.273 -0.0082 -0.4336  0.3022
18630TIP3    H177305   3.480   1.923  14.230  1.6592 -0.9767 -0.9038
18630TIP3    H277306   3.505   2.072  14.229  0.5199 -0.7783 -0.6776
18631TIP3   OH277307   0.155   0.208   3.137  0.3579 -0.0680  0.3167
18631TIP3    H177308   0.127   0.246   3.054  2.5738  0.3039 -0.3353
18631TIP3    H277309   0.081   0.155   3.166 -1.6296  2.2112 -0.3390
18632TIP3   OH277310   1.980   4.977   3.356 -0.9176 -0.1204  0.5769
18632TIP3    H177311   1.980   5.071   3.375 -1.4759  0.4833 -2.0697
18632TIP3    H277312   1.936   4.938   3.432 -2.1034  1.9365  1.0387
18633TIP3   OH277313   4.315   5.446  13.606 -0.1504 -0.0731 -0.1911
18633TIP3    H177314   4.359   5.514  13.658  2.0497 -0.0236 -1.9666
18633TIP3    H277315   4.387   5.394  13.569 -1.5398 -0.0603 -3.2000
18634TIP3   OH277316   1.438   2.566  14.825  0.2337 -0.0010 -0.3990
18634TIP3    H177317   1.401   2.652  14.809 -0.9781 -0.3046  0.6607
18634TIP3    H277318   1.400   2.510  14.757  1.2996  0.3454 -1.3115
18635TIP3   OH277319   3.024   6.640   2.833  0.5090 -0.1106  0.0879
18635TIP3    H177320   3.029   6.726   2.876  0.9332 -0.4660  0.7612
18635TIP3    H277321   3.084   6.585   2.882 -0.6228 -1.1157  0.3922
18636TIP3   OH277322   4.586   4.405  17.170  0.0067 -0.1208  0.4946
18636TIP3    H177323   4.613   4.419  17.079 -2.9754  0.7949 -0.3707
18636TIP3    H277324   4.599   4.490  17.212 -0.3484 -0.0228  0.4086
18637TIP3   OH277325   5.883   3.395   3.921 -0.3404  0.4281  0.0710
18637TIP3    H177326   5.869   3.473   3.973 -2.4203  0.6253 -0.6822
18637TIP3    H277327   5.977   3.396   3.901  0.0928  1.5029  1.9091
18638TIP3   OH277328   3.111   4.467   0.228  0.5316  0.1102 -0.0287
18638TIP3    H177329   3.138   4.477   0.136  1.9780 -0.0424  0.3525
18638TIP3    H277330   3.106   4.557   0.261  0.0275  0.1643 -0.2469
18639TIP3   OH277331   5.537   2.159  12.557 -0.2600 -0.0736  0.0648
18639TIP3    H177332   5.616   2.105  12.565 -0.0261  0.2549 -0.0051
18639TIP3    H277333   5.540   2.218  12.632 -1.8326 -1.8160  1.6125
18640TIP3   OH277334   2.697   6.695   0.424 -0.3462 -0.8618  0.0767
18640TIP3    H177335   2.624   6.660   0.373 -0.0805 -0.8666 -0.3061
18640TIP3    H277336   2.772   6.642   0.399  0.0210 -0.1518 -0.3702
18641TIP3   OH277337   2.947   2.931  15.516  0.3651 -0.2347 -0.0665
18641TIP3    H177338   3.029   2.972  15.485  1.0417 -1.3714  0.1753
18641TIP3    H277339   2.878   2.991  15.487  1.1139 -0.3133 -2.1529
18642TIP3   OH277340   5.395   4.127   5.699  0.2547  0.2287  0.8208
18642TIP3    H177341   5.302   4.148   5.711  0.8272  3.2934  0.4932
18642TIP3    H277342   5.431   4.124   5.788 -0.3661 -2.6386  1.0847
18643TIP3   OH277343   6.680   0.471   4.901  0.2339  0.2585 -0.5312
18643TIP3    H177344   6.718   0.529   4.835 -0.1248 -0.3296 -1.2589
18643TIP3    H277345   6.749   0.462   4.967  0.9559  0.1036 -1.2897
18644TIP3   OH277346   6.171   3.789  14.981 -0.2007 -0.1109 -0.7123
18644TIP3    H177347   6.265   3.772  14.980  0.0099  0.5771  1.3252
18644TIP3    H277348   6.163   3.875  15.023 -1.7049  0.2500 -1.6539
18645TIP3   OH277349   2.926   4.934  15.038 -0.0114 -0.0884 -0.4618
18645TIP3    H177350   2.899   4.972  14.955 -0.0324  0.6218 -0.1315
18645TIP3    H277351   2.943   4.842  15.017 -2.3423 -0.5154 -0.7648
18646TIP3   OH277352   1.153   3.074  16.681  0.1758  0.7232  0.1329
18646TIP3    H177353   1.230   3.123  16.653 -0.4828  1.7349  0.0287
18646TIP3    H277354   1.103   3.137  16.733  0.2242 -0.4115  1.6182
18647TIP3   OH277355   0.479   3.208   4.517  0.4594  0.1571  0.4373
18647TIP3    H177356   0.563   3.173   4.488  0.6188 -1.1557  2.3005
18647TIP3    H277357   0.421   3.132   4.521 -0.5264  0.8713  0.2019
18648TIP3   OH277358   5.280   0.202   5.833 -0.7684 -0.1436  0.0895
18648TIP3    H177359   5.235   0.232   5.912  0.8514  1.1708  0.5663
18648TIP3    H277360   5.355   0.154   5.865 -1.4830 -1.8594 -0.6977
18649TIP3   OH277361   4.653   3.125   0.398 -0.4644 -0.2346  0.6099
18649TIP3    H177362   4.591   3.189   0.363  0.6242 -0.1040 -1.2262
18649TIP3    H277363   4.723   3.178   0.438  0.2244 -0.2448 -0.5333
18650TIP3   OH277364   2.505   0.037  14.813  0.5081 -0.0572 -0.0568
18650TIP3    H177365   2.596   0.035  14.841  0.1253 -0.6154  1.2099
18650TIP3    H277366   2.493  -0.043  14.762  1.1646  0.8855 -1.7721
18651TIP3   OH277367   6.382   3.883  14.062 -0.0072  1.1058  0.2865
18651TIP3    H177368   6.438   3.839  13.998 -1.7715  0.3012 -0.7581
18651TIP3    H277369   6.357   3.814  14.124 -0.4593  1.2809  0.3017
18652TIP3   OH277370   2.322   0.874   0.925 -0.2960 -0.3256  0.5327
18652TIP3    H177371   2.309   0.965   0.898 -0.7746 -0.2724  0.9208
18652TIP3    H277372   2.388   0.839   0.864 -1.2937 -0.1931 -0.6650
18653TIP3   OH277373   1.722   6.526   1.554 -0.4228 -0.1129  0.3441
18653TIP3    H177374   1.804   6.547   1.511 -0.0388  0.0023  1.1057
18653TIP3    H277375   1.692   6.445   1.513 -0.7885  0.7026 -1.0900
18654TIP3   OH277376   6.711   5.473  13.507 -0.0705  0.6248 -0.4251
18654TIP3    H177377   6.690   5.549  13.561  0.7937  1.2513 -0.9453
18654TIP3    H277378   6.627   5.430  13.492 -0.3381  0.3858  1.4582
18655TIP3   OH277379   5.677   2.699  12.902 -0.3414 -0.3894  0.4372
18655TIP3    H177380   5.691   2.744  12.819 -1.2559  0.9036  0.9545
18655TIP3    H277381   5.739   2.626  12.901  1.7226  1.2912 -0.1106
18656TIP3   OH277382   2.522   3.939   2.056  0.5087 -0.0213 -0.0163
18656TIP3    H177383   2.572   3.907   1.981  3.0577 -0.4692  1.7567
18656TIP3    H277384   2.570   4.016   2.085 -2.2639  2.1291 -0.6859
18657TIP3   OH277385   4.809   4.184  10.951 -0.2177  0.1775  0.0230
18657TIP3    H177386   4.895   4.224  10.935 -0.3332 -0.7902 -3.9993
18657TIP3    H277387   4.749   4.259  10.952  0.4371  0.7145  0.9551
18658TIP3   OH277388   5.062   1.059  16.997 -0.3854  0.0327  0.7538
18658TIP3    H177389   5.100   1.142  17.025  1.1117 -0.8158  1.3851
18658TIP3    H277390   5.128   0.994  17.020 -1.6755 -1.3829  0.6068
18659TIP3   OH277391   5.877   2.906   6.178 -0.0804 -0.0061 -0.3000
18659TIP3    H177392   5.934   2.862   6.241 -0.0784 -1.0720 -1.0220
18659TIP3    H277393   5.790   2.871   6.196 -0.1090 -0.1805 -0.7659
18660TIP3   OH277394   5.176   2.016   3.276  0.2301  0.5544  0.3623
18660TIP3    H177395   5.181   1.932   3.322  3.6827  0.0810 -0.5534
18660TIP3    H277396   5.122   1.999   3.200  1.6174 -1.2082 -0.2976
18661TIP3   OH277397   0.623   2.340  17.063 -0.2617 -0.6691 -0.3984
18661TIP3    H177398   0.612   2.435  17.070 -1.1551 -0.5555 -2.5949
18661TIP3    H277399   0.597   2.307  17.149  0.8203  1.0917  0.6921
18662TIP3   OH277400   6.115   5.931   6.187  0.0334  0.7029  0.0364
18662TIP3    H177401   6.109   5.873   6.263  0.3523  0.3282 -0.2173
18662TIP3    H277402   6.025   5.959   6.171 -0.1095  0.3664  0.2346
18663TIP3   OH277403   4.527   4.567   1.579  0.3535  0.2673  0.2004
18663TIP3    H177404   4.531   4.528   1.666  1.4280  0.0113  0.0594
18663TIP3    H277405   4.617   4.595   1.562  0.3848 -0.5899 -1.2168
18664TIP3   OH277406   6.064   0.390  13.523 -0.2081 -0.7151  0.1764
18664TIP3    H177407   5.996   0.453  13.499 -0.3419 -1.0958 -0.4686
18664TIP3    H277408   6.091   0.416  13.611 -0.9783 -0.3816  0.3201
18665TIP3   OH277409   0.004   2.737  12.947 -0.1007  0.6392 -0.0948
18665TIP3    H177410   0.012   2.708  12.856  1.0018 -0.4630  0.3150
18665TIP3    H277411  -0.090   2.754  12.959 -0.3977 -0.1144 -1.1736
18666TIP3   OH277412   5.005   1.154   3.122  0.4717  0.2105  0.3393
18666TIP3    H177413   5.054   1.219   3.172 -2.5974  1.4211  2.0339
18666TIP3    H277414   4.924   1.141   3.172 -1.1067 -1.3851 -2.3913
18667TIP3   OH277415   4.245   4.280   0.638  0.0135 -0.2611 -0.2382
18667TIP3    H177416   4.340   4.271   0.647  0.3139  2.6128  0.2666
18667TIP3    H277417   4.211   4.260   0.725  0.5041  1.7677  0.4705
18668TIP3   OH277418   0.990   0.920  16.516 -0.2635 -0.5372  0.4457
18668TIP3    H177419   0.993   0.840  16.463  1.6008  0.8033 -1.6800
18668TIP3    H277420   0.926   0.975  16.472 -2.2986 -1.1307  2.4869
18669TIP3   OH277421   0.743   1.554   2.009 -0.2763  0.4905 -0.0896
18669TIP3    H177422   0.729   1.637   1.963 -0.1898  0.0649 -0.9007
18669TIP3    H277423   0.689   1.561   2.088 -2.3350  0.2804 -1.4309
18670TIP3   OH277424   1.695   2.575   1.470 -0.0115  0.0066 -0.2572
18670TIP3    H177425   1.695   2.613   1.558 -0.3736 -1.4867  0.4232
18670TIP3    H277426   1.785   2.547   1.456 -0.0189 -0.0299 -0.2324
18671TIP3   OH277427   4.279   5.400   2.861 -0.0096  0.4082 -0.0194
18671TIP3    H177428   4.298   5.414   2.768  0.7153  0.1314  0.0783
18671TIP3    H277429   4.185   5.382   2.864  0.2418 -1.2805 -0.9074
18672TIP3   OH277430   4.977   2.332   5.948 -0.5364  0.5450 -0.0633
18672TIP3    H177431   5.062   2.333   5.992  0.0764 -0.7603 -1.1253
18672TIP3    H277432   4.976   2.412   5.895  0.4168  0.1595 -0.6933
18673TIP3   OH277433   6.522   4.534   2.666  0.6640  0.0184 -0.0054
18673TIP3    H177434   6.576   4.480   2.725  2.6688 -0.3782 -2.0304
18673TIP3    H277435   6.474   4.470   2.613  2.0106  0.1762 -1.4947
18674TIP3   OH277436   4.465   4.207   3.441  0.5940  0.4660  0.3135
18674TIP3    H177437   4.427   4.270   3.380 -1.6718 -0.9326  0.1493
18674TIP3    H277438   4.444   4.242   3.528  0.8554  0.7623  0.2620
18675TIP3   OH277439   2.249   2.053  12.051 -0.3716  0.3299 -0.7589
18675TIP3    H177440   2.233   2.133  12.000  1.8969  0.7715 -0.8951
18675TIP3    H277441   2.295   1.995  11.990  1.1871  0.3511  0.3363
18676TIP3   OH277442   6.081   3.420   5.196  0.1464  0.3341 -0.0924
18676TIP3    H177443   6.073   3.440   5.103  1.5950  3.0765  0.2649
18676TIP3    H277444   6.127   3.336   5.199 -0.0820  0.1025 -1.8062
18677TIP3   OH277445   0.528   6.070   0.731  0.5812  0.2551 -0.2302
18677TIP3    H177446   0.554   6.081   0.822 -4.4933  1.4794  1.4023
18677TIP3    H277447   0.528   6.158   0.695  1.0985 -0.0343 -0.9619
18678TIP3   OH277448   2.546   3.873  15.196  0.4483  0.1443  0.2659
18678TIP3    H177449   2.593   3.817  15.258  0.1441 -0.2386  0.1562
18678TIP3    H277450   2.583   3.960  15.209  0.5976  0.0066  0.7732
18679TIP3   OH277451   4.990   0.968  15.658  0.0987  0.1153  0.5175
18679TIP3    H177452   4.942   0.915  15.595  0.8123  1.8237 -1.6156
18679TIP3    H277453   5.062   0.912  15.687 -0.8962 -1.0962  0.6896
18680TIP3   OH277454   5.102   5.604   5.681  0.5029 -0.1935  0.5039
18680TIP3    H177455   5.051   5.532   5.643 -0.7754  0.9791 -0.0836
18680TIP3    H277456   5.184   5.563   5.709 -0.0482 -1.8051 -0.1234
18681TIP3   OH277457   6.086   0.160  11.567 -0.0942  0.0463  0.3952
18681TIP3    H177458   6.082   0.253  11.542 -0.5147  0.3967  1.6573
18681TIP3    H277459   6.007   0.122  11.528 -0.4885  0.4744  0.7479
18682TIP3   OH277460   1.391   4.957  12.958 -0.4671 -0.4843 -0.1365
18682TIP3    H177461   1.458   4.955  12.890 -1.1604 -1.0804 -0.8277
18682TIP3    H277462   1.430   5.009  13.028  1.0675 -1.5092 -0.1561
18683TIP3   OH277463   2.242   1.571   1.242 -0.0831  0.4959  0.1222
18683TIP3    H177464   2.172   1.540   1.184 -0.5164  0.9312  0.4115
18683TIP3    H277465   2.200   1.634   1.300 -0.3015 -1.9187  2.8003
18684TIP3   OH277466   1.582   1.551  12.308 -0.0301 -0.1217  0.4068
18684TIP3    H177467   1.497   1.585  12.335  0.4171  1.2409  0.2105
18684TIP3    H277468   1.565   1.462  12.279 -2.0499  1.1386 -2.8269
18685TIP3   OH277469   5.778   1.957  10.519 -0.6385  0.2998  0.6410
18685TIP3    H177470   5.701   1.994  10.475 -0.0984  1.0095  0.2665
18685TIP3    H277471   5.847   2.021  10.503  0.8735 -1.7055 -1.6183
18686TIP3   OH277472   1.706   0.618  12.633  0.7467  0.2455 -0.5807
18686TIP3    H177473   1.776   0.642  12.694  1.1961 -2.1639 -0.0301
18686TIP3    H277474   1.750   0.616  12.547  1.3960 -1.1254 -0.2560
18687TIP3   OH277475   5.509   1.839  17.238  0.0634  0.4644 -0.0906
18687TIP3    H177476   5.603   1.852  17.227 -0.0392  0.7812 -0.6099
18687TIP3    H277477   5.499   1.744  17.250  0.3826  0.3527 -0.6985
18688TIP3   OH277478   0.083   1.085   4.652  0.1674  0.3233  0.5680
18688TIP3    H177479   0.100   1.175   4.625  0.0724  0.7540  1.8701
18688TIP3    H277480   0.021   1.093   4.724 -0.6502 -0.8645  0.0188
18689TIP3   OH277481   2.024   3.731   5.045 -0.4671  0.3436 -0.0210
18689TIP3    H177482   1.971   3.661   5.084  0.4752 -1.2293 -1.3911
18689TIP3    H277483   1.973   3.761   4.970 -0.9379  1.2667  0.6533
18690TIP3   OH277484   4.188   4.859   5.477  0.1513 -0.7676  0.5085
18690TIP3    H177485   4.224   4.771   5.469 -0.0321 -0.8688  0.7639
18690TIP3    H277486   4.154   4.862   5.567 -0.5185 -0.6936  0.2545
18691TIP3   OH277487   3.744   1.898  15.910  0.0668  0.2818 -0.0431
18691TIP3    H177488   3.725   1.821  15.856  1.4630  0.0296 -0.2239
18691TIP3    H277489   3.818   1.940  15.865 -1.3363  2.3648 -0.5739
18692TIP3   OH277490   0.363   3.234   2.727  0.0616 -0.1951 -0.1456
18692TIP3    H177491   0.404   3.300   2.671  1.0674 -0.2107  0.5478
18692TIP3    H277492   0.331   3.168   2.666  0.5522  0.1098 -0.7483
18693TIP3   OH277493   5.796   2.455  15.868  0.0825  0.3797  0.1307
18693TIP3    H177494   5.825   2.523  15.808 -0.2502 -0.4975 -1.0597
18693TIP3    H277495   5.848   2.378  15.845  1.7209  0.6352  2.6243
18694TIP3   OH277496   6.060   5.427   3.795  0.4695 -0.1490 -0.3872
18694TIP3    H177497   6.000   5.377   3.739  1.0496 -0.6742 -0.5499
18694TIP3    H277498   6.135   5.445   3.738  1.2539 -1.0500  0.3347
18695TIP3   OH277499   1.655   0.412   2.878 -0.0090  0.5785 -0.2892
18695TIP3    H177500   1.738   0.372   2.904 -1.1375  0.4402  3.7132
18695TIP3    H277501   1.590   0.343   2.892 -1.2343  1.8524  0.5628
18696TIP3   OH277502   1.433   0.328   2.146  0.3063 -0.5172  0.0127
18696TIP3    H177503   1.522   0.364   2.141 -0.2260  0.9538  0.7066
18696TIP3    H277504   1.447   0.233   2.151  1.9326 -0.2543  1.8842
18697TIP3   OH277505   5.668   6.418  12.064 -0.2586 -0.6210  0.2592
18697TIP3    H177506   5.753   6.424  12.021 -0.7787 -0.6079 -0.7991
18697TIP3    H277507   5.608   6.388  11.995 -1.0781 -0.7932  1.0266
18698TIP3   OH277508   1.368   1.625   2.759  0.6451 -0.1105 -0.0846
18698TIP3    H177509   1.322   1.669   2.831 -0.1967 -1.0316 -0.0458
18698TIP3    H277510   1.459   1.620   2.789  0.1797 -1.1217  1.2436
18699TIP3   OH277511   1.059   1.011  11.646 -0.0509  0.3968  0.7042
18699TIP3    H177512   1.108   0.974  11.720  0.6804 -3.1078 -1.3038
18699TIP3    H277513   0.968   0.988  11.664 -0.2424  1.7318  1.6082
18700TIP3   OH277514   5.809   0.592   6.178  0.7549  0.1884  0.1351
18700TIP3    H177515   5.769   0.666   6.133  1.4077  0.4651 -0.0116
18700TIP3    H277516   5.851   0.541   6.107 -2.5965 -2.3021 -0.3074
18701TIP3   OH277517   4.605   6.763  16.814  0.2296 -0.4237 -0.1434
18701TIP3    H177518   4.600   6.808  16.899  0.8073 -1.2578  0.3479
18701TIP3    H277519   4.589   6.832  16.750 -0.7248  0.1361  0.6540
18702TIP3   OH277520   2.703   1.909  13.919 -0.6268 -0.3310  0.0864
18702TIP3    H177521   2.758   1.985  13.900  0.4276 -0.6042  1.8286
18702TIP3    H277522   2.691   1.866  13.835 -0.7813  1.4301 -0.8451
18703TIP3   OH277523   5.603   6.705  14.744  0.0503  0.1875  0.5419
18703TIP3    H177524   5.691   6.669  14.742  0.8124  1.8520 -2.1935
18703TIP3    H277525   5.599   6.756  14.825  0.8229 -1.5744  1.7313
18704TIP3   OH277526   5.794   0.940  13.971 -0.0091  0.2121  0.2976
18704TIP3    H177527   5.869   0.976  14.018 -1.0108  1.7682  0.7780
18704TIP3    H277528   5.784   0.997  13.894  0.3941 -1.1051 -0.7788
18705TIP3   OH277529   3.447   3.200   0.364 -0.2584 -0.1108 -0.1549
18705TIP3    H177530   3.540   3.182   0.347 -0.2252 -1.5703  1.2811
18705TIP3    H277531   3.422   3.263   0.297  1.2530 -1.1779 -1.8273
18706TIP3   OH277532   1.281   6.322   5.495 -0.6741  0.4798 -0.3394
18706TIP3    H177533   1.194   6.282   5.485  0.4926 -2.3522 -0.0600
18706TIP3    H277534   1.329   6.296   5.416  0.9640 -1.1249  1.0836
18707TIP3   OH277535   1.535   4.992   6.497  0.1593 -0.3077 -1.4218
18707TIP3    H177536   1.558   5.084   6.512  1.9934 -0.6687 -1.8633
18707TIP3    H277537   1.610   4.942   6.529 -2.2432 -1.9629  2.2698
18708TIP3   OH277538   0.391   2.503  15.279 -0.0004 -0.2665  0.1504
18708TIP3    H177539   0.350   2.471  15.199  0.5173  0.3860 -0.3930
18708TIP3    H277540   0.480   2.526  15.252 -0.3335  1.5922  0.5001
18709TIP3   OH277541   2.570   2.585  11.740  0.5356 -0.8057  0.0139
18709TIP3    H177542   2.630   2.639  11.791  0.6044  1.5184 -2.3369
18709TIP3    H277543   2.627   2.524  11.693  0.5800 -1.8917  1.3838
18710TIP3   OH277544   1.319   4.345   3.811 -0.3909  0.3451 -0.2870
18710TIP3    H177545   1.345   4.371   3.900 -0.1828 -0.8052  0.0089
18710TIP3    H277546   1.264   4.267   3.825 -1.5681  1.0030 -1.0830
18711TIP3   OH277547   1.414   4.494   3.342  0.3314  0.0907 -0.0048
18711TIP3    H177548   1.373   4.408   3.326  1.0039 -0.4594  1.1113
18711TIP3    H277549   1.348   4.541   3.393 -0.1843  0.3893 -0.9166
18712TIP3   OH277550   6.212   4.906  16.533 -0.2261 -0.3928 -0.0427
18712TIP3    H177551   6.125   4.912  16.493 -0.4626 -3.0750 -0.1583
18712TIP3    H277552   6.214   4.818  16.571  2.2610 -0.2186  0.3854
18713TIP3   OH277553   5.495   6.092   4.881  0.0407  0.1483 -0.1792
18713TIP3    H177554   5.484   6.025   4.814 -0.6887 -0.9853  1.0109
18713TIP3    H277555   5.408   6.133   4.888  0.5194  1.3664 -1.0085
18714TIP3   OH277556   0.069   0.252  16.036 -0.2498  0.6961  0.0467
18714TIP3    H177557  -0.020   0.222  16.052  0.8393 -2.2724  1.3145
18714TIP3    H277558   0.089   0.309  16.110 -0.7853  0.5464  0.3095
18715TIP3   OH277559   1.095   5.631  11.433  0.3918  0.1320 -0.6260
18715TIP3    H177560   1.055   5.612  11.349 -1.8635 -2.1049  0.8025
18715TIP3    H277561   1.068   5.721  11.453 -0.3196  0.1591 -1.6237
18716TIP3   OH277562   4.165   3.238  14.172 -0.0500 -0.8616 -0.4738
18716TIP3    H177563   4.151   3.165  14.113 -1.2417 -2.3150  1.4782
18716TIP3    H277564   4.257   3.229  14.200 -0.2403 -1.7657 -0.1038
18717TIP3   OH277565   1.286   1.786  16.756  0.1209  1.0318 -0.4292
18717TIP3    H177566   1.382   1.783  16.763  0.1887  2.5096 -0.4089
18717TIP3    H277567   1.267   1.759  16.666  0.6208  1.5047 -0.6835
18718TIP3   OH277568   0.683   3.194   1.529  0.4273 -0.5357 -0.1252
18718TIP3    H177569   0.661   3.287   1.523  2.1765 -0.1477 -1.2053
18718TIP3    H277570   0.653   3.168   1.616 -3.2716  0.1134 -1.0064
18719TIP3   OH277571   2.216   0.853   5.200 -0.2273 -0.1028  0.4968
18719TIP3    H177572   2.141   0.800   5.173  0.4851 -0.9839  0.2054
18719TIP3    H277573   2.275   0.792   5.243  0.8070  0.3527 -0.2236
18720TIP3   OH277574   5.325   2.864   2.534  0.0402 -0.1387 -0.1765
18720TIP3    H177575   5.317   2.951   2.495 -0.2746 -0.7276 -1.4875
18720TIP3    H277576   5.249   2.857   2.591  0.5020  0.7377  0.5822
18721TIP3   OH277577   2.279   4.139  15.837  0.2795  0.1015  0.5945
18721TIP3    H177578   2.249   4.106  15.922  0.8636 -0.4541  0.5945
18721TIP3    H277579   2.228   4.219  15.823 -1.5725 -1.0764  0.3432
18722TIP3   OH277580   2.560   4.674  16.929 -0.0901 -0.3814 -0.2558
18722TIP3    H177581   2.651   4.691  16.954 -0.5784  1.7698  0.2478
18722TIP3    H277582   2.512   4.669  17.011 -0.5326 -0.9901 -0.5374
18723TIP3   OH277583   1.752   3.109   0.386  0.0330 -0.5644  0.0400
18723TIP3    H177584   1.737   3.037   0.323 -0.1252  0.0297 -0.6113
18723TIP3    H277585   1.828   3.081   0.436  0.6605 -0.6997 -0.9565
18724TIP3   OH277586   2.296   3.393   1.825  0.2744 -0.0830  0.2093
18724TIP3    H177587   2.349   3.429   1.753 -1.3070  0.1086 -0.9253
18724TIP3    H277588   2.275   3.469   1.879  0.9543 -0.1241  0.5382
18725TIP3   OH277589   5.763   4.171  11.505 -0.0849 -0.1085  0.0917
18725TIP3    H177590   5.675   4.138  11.487 -0.5988  1.8291 -1.2480
18725TIP3    H277591   5.808   4.167  11.420 -0.4991  3.3452 -0.4343
18726TIP3   OH277592   0.073   2.129   1.156  0.4855 -0.0768  0.5527
18726TIP3    H177593   0.027   2.178   1.224 -0.6617  0.6222 -0.6648
18726TIP3    H277594   0.110   2.197   1.099  1.2705 -0.6411  0.3772
18727TIP3   OH277595   4.841   6.203  15.914 -0.1068 -0.3688  0.6347
18727TIP3    H177596   4.797   6.240  15.838 -1.1836  0.7190  1.7493
18727TIP3    H277597   4.922   6.167  15.879  1.7439  4.1755 -0.4300
18728TIP3   OH277598   0.052   6.360   3.116  0.3081 -0.1654 -0.0607
18728TIP3    H177599   0.056   6.275   3.073 -0.7299 -0.4127  0.3185
18728TIP3    H277600  -0.039   6.388   3.109 -0.3258 -0.9579  3.3202
18729TIP3   OH277601   1.483   0.719  15.332  0.3436 -0.1424  0.1970
18729TIP3    H177602   1.473   0.814  15.339 -0.7079 -0.3037  1.0241
18729TIP3    H277603   1.563   0.700  15.382  0.3462  0.2529  0.3482
18730TIP3   OH277604   0.257   2.639   2.754 -0.0382 -0.4172  0.3005
18730TIP3    H177605   0.172   2.680   2.769  1.8622  3.2727  2.3692
18730TIP3    H277606   0.283   2.668   2.667  0.7087  1.8953  1.2254
18731TIP3   OH277607   1.957   0.434   4.758  0.2083  0.0932 -0.1837
18731TIP3    H177608   1.869   0.409   4.731 -0.1183  1.6845 -0.7065
18731TIP3    H277609   2.014   0.369   4.716 -0.5766  0.1941 -1.4643
18732TIP3   OH277610   3.203   4.788   2.677  0.7556  0.3118 -0.0083
18732TIP3    H177611   3.146   4.848   2.726 -0.9936 -0.3062 -1.2086
18732TIP3    H277612   3.171   4.701   2.699  0.8200 -0.0293 -1.2097
18733TIP3   OH277613   0.888   0.784  15.998  0.5301 -0.7358  0.0751
18733TIP3    H177614   0.894   0.856  15.936  0.6118 -0.6645  0.1653
18733TIP3    H277615   0.949   0.807  16.068  1.8720 -1.7296 -0.7353
18734TIP3   OH277616   1.917   1.969  15.377  0.3412 -0.4942  0.7024
18734TIP3    H177617   1.829   1.996  15.350  0.5388 -1.2933 -0.8526
18734TIP3    H277618   1.907   1.947  15.470 -0.3457  2.4823  1.4505
18735TIP3   OH277619   4.206   4.182  16.754  1.0886 -0.2984 -0.1812
18735TIP3    H177620   4.149   4.138  16.817 -0.1608  1.0585 -0.3217
18735TIP3    H277621   4.223   4.268  16.793 -0.3656  0.8880 -2.0233
18736TIP3   OH277622   2.148   5.654  12.685  0.0005 -0.1185  0.1170
18736TIP3    H177623   2.192   5.684  12.606 -1.3699  1.0171 -0.2525
18736TIP3    H277624   2.056   5.680  12.673 -0.3489 -0.4353  1.8271
18737TIP3   OH277625   2.535   3.873   3.816 -0.7202  0.1490  0.2798
18737TIP3    H177626   2.562   3.957   3.854 -1.2461 -0.1166  1.2805
18737TIP3    H277627   2.442   3.865   3.839 -0.8864 -0.3329 -0.5180
18738TIP3   OH277628   2.627   1.186   0.591  0.6258 -0.4558 -0.2142
18738TIP3    H177629   2.543   1.232   0.585  0.7864 -0.2680 -1.1267
18738TIP3    H277630   2.603   1.093   0.596  0.3705 -0.5383 -2.1013
18739TIP3   OH277631   5.128   3.237  11.027  0.2086 -0.0904 -0.1315
18739TIP3    H177632   5.168   3.179  10.962  2.5379 -0.1065  1.2244
18739TIP3    H277633   5.199   3.294  11.056 -0.2115 -1.1525  3.5458
18740TIP3   OH277634   6.068   5.353  16.192  0.2767 -0.1755 -0.1317
18740TIP3    H177635   6.076   5.443  16.223  2.7144 -1.0822  2.2225
18740TIP3    H277636   6.130   5.346  16.120  1.1592 -0.3026  0.6267
18741TIP3   OH277637   0.827   3.038   2.956 -0.3672 -0.6701  0.4286
18741TIP3    H177638   0.856   2.997   2.875  0.6403 -0.9800  0.9307
18741TIP3    H277639   0.907   3.075   2.994 -0.1255 -3.3419  2.8986
18742TIP3   OH277640   0.725   2.791   1.616 -0.9223  0.2792 -0.0288
18742TIP3    H177641   0.644   2.803   1.667 -1.0531  0.3875 -0.2596
18742TIP3    H277642   0.790   2.762   1.680 -0.6252  2.1140  0.5476
18743TIP3   OH277643   5.572   6.393  14.558  0.0474  0.2075  0.5381
18743TIP3    H177644   5.634   6.425  14.492 -0.8132  0.7809 -0.0085
18743TIP3    H277645   5.575   6.298  14.549 -1.2276  0.2805 -1.4815
18744TIP3   OH277646   3.165   5.281  14.262  0.8381 -0.6375 -0.0918
18744TIP3    H177647   3.161   5.364  14.215  0.6558 -0.6733 -0.1416
18744TIP3    H277648   3.258   5.257  14.261  0.7094 -1.2136 -1.4697
18745TIP3   OH277649   4.752   0.753  13.062 -0.1278  0.2922  0.7823
18745TIP3    H177650   4.698   0.685  13.103 -0.9441  0.6247  0.2912
18745TIP3    H277651   4.801   0.792  13.135  0.0079 -0.5178  1.1295
18746TIP3   OH277652   3.853   1.688  14.339  0.2309  0.2070 -0.2390
18746TIP3    H177653   3.900   1.744  14.276 -1.5859 -1.6506 -3.5212
18746TIP3    H277654   3.880   1.599  14.317 -1.2231 -0.5916  0.9976
18747TIP3   OH277655   4.229   5.224   5.349 -0.1642  0.3697 -0.4506
18747TIP3    H177656   4.175   5.181   5.415  0.4925 -0.1003 -0.2066
18747TIP3    H277657   4.308   5.169   5.343  1.0725  1.9565  0.4556
18748TIP3   OH277658   4.735   1.753  16.718 -0.2943 -0.9480 -0.0959
18748TIP3    H177659   4.813   1.801  16.688  0.2361 -2.1576 -0.7121
18748TIP3    H277660   4.667   1.775  16.655 -1.0029  1.4720  1.3788
18749TIP3   OH277661   0.813   1.612  13.493  0.2552 -0.0685 -0.3975
18749TIP3    H177662   0.868   1.690  13.505 -1.5396  1.1417  0.3886
18749TIP3    H277663   0.789   1.586  13.582 -0.4973 -0.5364 -0.7315
18750TIP3   OH277664   2.051   6.594  14.181 -0.3265 -0.5733 -0.2107
18750TIP3    H177665   2.110   6.641  14.123 -0.2674 -1.6046 -1.0057
18750TIP3    H277666   2.036   6.510  14.138 -1.7083 -0.6597  0.3857
18751TIP3   OH277667   1.241   3.105  12.370  0.1049  0.4138 -0.2953
18751TIP3    H177668   1.332   3.133  12.363  0.3834 -0.0250  1.0945
18751TIP3    H277669   1.246   3.019  12.414 -0.9927  0.6754  0.3823
18752TIP3   OH277670   3.278   4.098   5.345  0.1597  0.1062  0.2047
18752TIP3    H177671   3.349   4.161   5.352  1.1420 -0.9800  0.2280
18752TIP3    H277672   3.238   4.116   5.259  1.9442 -0.7767 -0.8552
18753TIP3   OH277673   5.464   1.135   0.954  0.4092 -0.2111 -0.0410
18753TIP3    H177674   5.484   1.058   1.006  1.5239  0.1563  0.0987
18753TIP3    H277675   5.369   1.137   0.949  0.0968  0.7563  3.5924
18754TIP3   OH277676   0.711   2.410  11.734 -0.1046  0.4154  0.0460
18754TIP3    H177677   0.631   2.457  11.760 -1.3008 -1.6897  0.4633
18754TIP3    H277678   0.689   2.370  11.650  0.9439  0.7550 -0.3970
18755TIP3   OH277679   3.732   6.261  16.474  0.2013 -0.0387 -0.2296
18755TIP3    H177680   3.641   6.258  16.503  0.1474  1.0479 -0.2603
18755TIP3    H277681   3.726   6.259  16.378  0.2394 -0.5152 -0.2232
18756TIP3   OH277682   1.010   0.586   4.970 -0.8298  0.3640  0.4833
18756TIP3    H177683   1.021   0.513   5.031  1.3656  0.3036  0.1131
18756TIP3    H277684   0.963   0.548   4.895  1.5344 -1.1420 -0.3511
18757TIP3   OH277685   0.418   0.216  14.888 -0.3586  0.3502 -0.0163
18757TIP3    H177686   0.511   0.195  14.890 -0.3901  0.2059 -0.1261
18757TIP3    H277687   0.376   0.144  14.936 -0.4702  0.1383 -0.4336
18758TIP3   OH277688   3.550   1.894   4.692 -0.3675  0.3349 -0.6213
18758TIP3    H177689   3.555   1.823   4.627  1.5073  0.9826 -1.2391
18758TIP3    H277690   3.462   1.930   4.680 -1.1167 -1.4143 -0.7730
18759TIP3   OH277691   5.381   1.500  14.816 -0.5359 -0.0928 -0.1595
18759TIP3    H177692   5.359   1.507  14.909  0.3610  0.9293 -0.0124
18759TIP3    H277693   5.363   1.409  14.794 -2.4441  0.0561  0.5754
18760TIP3   OH277694   5.200   5.836  11.108  0.3092  0.7083 -0.0083
18760TIP3    H177695   5.175   5.928  11.115  1.6076  1.1637 -1.0066
18760TIP3    H277696   5.242   5.828  11.022 -2.1675 -1.4238 -1.1467
18761TIP3   OH277697   0.924   3.382   2.300  0.8126 -0.5929  0.2419
18761TIP3    H177698   0.922   3.289   2.323  0.4059  0.2459  4.4815
18761TIP3    H277699   0.833   3.409   2.303  0.9655  0.0503 -0.6161
18762TIP3   OH277700   5.453   2.529   4.577 -0.6511  0.0996 -0.2281
18762TIP3    H177701   5.460   2.551   4.670  0.8113  0.2466 -0.3528
18762TIP3    H277702   5.457   2.613   4.532 -1.6891  0.0572 -0.4336
18763TIP3   OH277703   3.604   2.720   5.973 -0.2893  0.1193  0.1917
18763TIP3    H177704   3.536   2.711   5.907  0.7475 -1.9950 -0.6880
18763TIP3    H277705   3.680   2.752   5.925 -0.0794  0.4610  0.7446
18764TIP3   OH277706   0.723   4.448  11.523 -0.1299  0.3449 -0.1922
18764TIP3    H177707   0.808   4.490  11.520 -0.3188  0.9182  1.5892
18764TIP3    H277708   0.678   4.478  11.444  1.7562 -1.0722 -1.9218
18765TIP3   OH277709   1.873   0.272   1.414 -0.7445  0.0419  0.0243
18765TIP3    H177710   1.882   0.222   1.495 -1.6079  0.5533  0.4515
18765TIP3    H277711   1.921   0.353   1.432  0.6965 -0.6234 -0.6839
18766TIP3   OH277712   5.818   2.271  16.177  0.1163 -0.0735 -0.2669
18766TIP3    H177713   5.756   2.291  16.107 -1.7752  0.3086  1.4254
18766TIP3    H277714   5.805   2.341  16.241 -0.2465 -1.8327  1.7063
18767TIP3   OH277715   3.386   4.639   3.965 -0.0644 -0.0091  0.1419
18767TIP3    H177716   3.339   4.722   3.961  1.2350  0.8472  1.5309
18767TIP3    H277717   3.336   4.580   3.909 -1.6914  1.3777  0.0600
18768TIP3   OH277718   6.699   2.226   3.107 -0.4741  0.1888  0.1329
18768TIP3    H177719   6.624   2.185   3.151 -0.7044 -0.3737 -0.7664
18768TIP3    H277720   6.735   2.157   3.052  2.0694 -0.2431  2.1513
18769TIP3   OH277721   1.987   2.852   1.399  0.0396 -0.7628 -0.2552
18769TIP3    H177722   1.909   2.907   1.405  1.0681  0.7614 -0.1960
18769TIP3    H277723   1.973   2.781   1.462 -1.2010 -0.4005 -0.1141
18770TIP3   OH277724   3.149   0.747  11.410  0.5056  0.0274 -0.0045
18770TIP3    H177725   3.118   0.678  11.468  1.3300  0.0262  0.4633
18770TIP3    H277726   3.194   0.701  11.339  0.0919  0.0514 -0.2843
18771TIP3   OH277727   4.980   5.948  15.416  0.4430 -0.2527 -0.0980
18771TIP3    H177728   4.921   5.942  15.340  0.5004 -2.3815 -0.0297
18771TIP3    H277729   5.046   5.880  15.401  0.9883 -0.1074  1.4339
18772TIP3   OH277730   4.951   3.437   3.268  0.1744  0.4849 -0.3478
18772TIP3    H177731   4.959   3.405   3.178 -0.5013  0.1112 -0.2790
18772TIP3    H277732   5.027   3.401   3.313  0.4355  0.5484 -0.7230
18773TIP3   OH277733   2.471   5.177  16.996  0.3093 -0.1493 -0.1076
18773TIP3    H177734   2.483   5.124  16.917 -1.3730  0.1408 -0.5890
18773TIP3    H277735   2.529   5.252  16.983  2.8188 -1.8395  0.6368
18774TIP3   OH277736   5.090   3.143   4.916 -0.7431 -0.4119 -0.5987
18774TIP3    H177737   4.995   3.134   4.924 -0.6337 -0.9683  0.2899
18774TIP3    H277738   5.104   3.234   4.887 -1.4539  0.8935  2.6477
18775TIP3   OH277739   3.739   2.120   2.960  0.2215  0.1805 -0.0997
18775TIP3    H177740   3.813   2.109   2.901  0.6434  0.6227  0.3452
18775TIP3    H277741   3.734   2.214   2.976 -2.1445  0.5519 -2.3309
18776TIP3   OH277742   6.635   1.482  15.107  0.2410 -0.0724 -0.3362
18776TIP3    H177743   6.598   1.394  15.118 -2.2267  1.1620  3.4214
18776TIP3    H277744   6.726   1.467  15.084 -0.5309 -3.5429 -1.7581
18777TIP3   OH277745   0.797   6.706   5.614  0.6047  0.2357  0.0663
18777TIP3    H177746   0.776   6.675   5.525  0.4883  0.8874 -0.1384
18777TIP3    H277747   0.732   6.663   5.670  0.5145  0.0219 -0.2002
18778TIP3   OH277748   1.856   5.334  14.077 -0.0166  0.1044  0.1948
18778TIP3    H177749   1.886   5.365  14.163  1.3585  0.2213 -0.2984
18778TIP3    H277750   1.918   5.373  14.015  0.0178 -1.3098 -0.7015
18779TIP3   OH277751   1.233   1.577  17.201  0.3837 -0.0936 -0.0257
18779TIP3    H177752   1.223   1.650  17.141 -0.2417  0.9532  1.2924
18779TIP3    H277753   1.150   1.529  17.196  1.5735 -2.1386 -2.5749
18780TIP3   OH277754   3.090   2.118  15.186  0.1242  0.4230  0.5110
18780TIP3    H177755   3.042   2.189  15.143  0.5192  0.0580 -0.5671
18780TIP3    H277756   3.124   2.065  15.114 -0.8717 -1.3641  1.2834
18781TIP3   OH277757   2.566   5.896   0.025 -0.3692 -0.6444 -0.0711
18781TIP3    H177758   2.564   5.824   0.089 -0.1068  0.5154  1.3006
18781TIP3    H277759   2.648   5.943   0.045  0.7811 -1.3874 -2.6153
18782TIP3   OH277760   1.053   4.925   0.185  0.4904 -0.6102 -0.3389
18782TIP3    H177761   0.968   4.892   0.155  0.3752  0.4253 -1.2417
18782TIP3    H277762   1.047   4.924   0.280 -0.2472 -1.2581 -0.3816
18783TIP3   OH277763   6.708   4.311  16.778 -0.1025 -0.2169 -0.0019
18783TIP3    H177764   6.624   4.283  16.742 -0.1032  1.7135 -1.7021
18783TIP3    H277765   6.685   4.365  16.853 -0.2253 -1.6215  1.0274
18784TIP3   OH277766   2.439   3.799   1.591 -0.1441 -0.4797  0.2093
18784TIP3    H177767   2.457   3.809   1.498  1.0182  0.2069  0.4818
18784TIP3    H277768   2.426   3.889   1.623  0.6755 -0.5921  0.9175
18785TIP3   OH277769   0.006   0.315   3.685  0.2710 -0.2375  0.5507
18785TIP3    H177770  -0.066   0.310   3.748 -1.1645 -0.1547 -1.0256
18785TIP3    H277771  -0.035   0.342   3.603  1.5427 -3.3180 -1.2498
18786TIP3   OH277772   1.778   3.282   6.401  0.1903 -0.5569 -0.0665
18786TIP3    H177773   1.839   3.355   6.418 -0.0474 -0.5119  0.6080
18786TIP3    H277774   1.699   3.306   6.448 -0.0669 -1.0178 -0.2654
18787TIP3   OH277775   0.839   6.751   1.666 -0.0762  0.2097  0.4336
18787TIP3    H177776   0.880   6.834   1.639  1.1798 -0.5509 -0.0846
18787TIP3    H277777   0.803   6.715   1.585  0.9509 -0.5927  0.3224
18788TIP3   OH277778   0.600   4.259  15.597 -0.8113  0.4197  0.1216
18788TIP3    H177779   0.533   4.194  15.577 -1.4227  1.5648 -1.7585
18788TIP3    H277780   0.570   4.299  15.679 -2.4355  0.9091 -0.6850
18789TIP3   OH277781   5.764   6.208   2.200  0.1213 -0.3374 -0.0900
18789TIP3    H177782   5.783   6.153   2.275 -0.7145 -0.2137  0.2236
18789TIP3    H277783   5.668   6.216   2.199  0.0355 -1.1210 -1.7191
18790TIP3   OH277784   4.392   5.053  16.113 -0.1063 -0.3525 -0.2193
18790TIP3    H177785   4.333   4.979  16.119 -0.2249 -0.2294  0.1974
18790TIP3    H277786   4.429   5.061  16.201 -2.0124  1.6477  0.4763
18791TIP3   OH277787   1.440   2.339   1.845 -0.2885 -0.0392 -0.4962
18791TIP3    H177788   1.362   2.289   1.820 -1.7016  2.0313 -0.5281
18791TIP3    H277789   1.436   2.343   1.941  0.2122 -0.5547 -0.4486
18792TIP3   OH277790   1.703   4.723  14.580 -0.2999 -0.1187  0.2741
18792TIP3    H177791   1.790   4.724  14.619 -0.0847  1.7807 -0.1765
18792TIP3    H277792   1.678   4.815  14.573 -1.1230 -0.4475 -2.2397
18793TIP3   OH277793   2.329   1.033  14.631 -0.0484  0.2282 -0.1412
18793TIP3    H177794   2.283   0.986  14.700  1.7986 -1.9625 -0.3111
18793TIP3    H277795   2.386   1.095  14.677 -1.3203  1.2356  0.1331
18794TIP3   OH277796   2.082   4.839  15.140  0.7590  0.4694  0.3815
18794TIP3    H177797   2.127   4.879  15.066 -0.2265  1.5083  0.3067
18794TIP3    H277798   1.989   4.856  15.123  0.2580 -2.0038  0.2749
18795TIP3   OH277799   1.261   1.748  12.081 -0.6675  0.6376 -0.5106
18795TIP3    H177800   1.212   1.670  12.109  0.5477  0.3294  0.8763
18795TIP3    H277801   1.337   1.714  12.035  1.7553  0.6925  3.0454
18796TIP3   OH277802   3.402   2.456  12.065  0.4719 -0.0881 -0.0098
18796TIP3    H177803   3.468   2.459  11.995 -0.2916  1.7183 -0.7167
18796TIP3    H277804   3.439   2.511  12.134  0.1079  0.2070 -0.0487
18797TIP3   OH277805   5.057   1.565  11.412 -0.4148  0.2596 -0.3364
18797TIP3    H177806   5.068   1.487  11.358  1.4791  0.8142 -0.8228
18797TIP3    H277807   5.025   1.632  11.351  0.5176  0.5481 -0.5284
18798TIP3   OH277808   2.831   6.135  15.706 -0.0795  0.4376 -0.2572
18798TIP3    H177809   2.833   6.080  15.628 -0.6246  0.1551 -0.0774
18798TIP3    H277810   2.803   6.075  15.776  0.9855  0.5310  0.2815
18799TIP3   OH277811   6.221   1.495  13.061 -0.1847 -0.0383  0.1943
18799TIP3    H177812   6.313   1.507  13.038 -0.0081 -0.8673  0.4553
18799TIP3    H277813   6.174   1.502  12.977  0.2032 -0.4718 -0.0636
18800TIP3   OH277814   4.889   2.264  12.986 -0.1071  0.5800  0.2789
18800TIP3    H177815   4.862   2.202  12.918  1.0255 -0.4153  0.6955
18800TIP3    H277816   4.982   2.245  13.001  0.2093  2.2084  0.6207
18801TIP3   OH277817   3.875   4.506  11.392 -0.1830 -0.1798 -0.0662
18801TIP3    H177818   3.930   4.565  11.341  0.1231 -0.1029  0.3438
18801TIP3    H277819   3.794   4.556  11.406 -0.2645 -0.1985 -0.4627
18802TIP3   OH277820   3.080   1.464   2.722 -0.5200  0.2207  0.3342
18802TIP3    H177821   3.163   1.421   2.703 -0.5977  1.0599 -2.2471
18802TIP3    H277822   3.086   1.549   2.680 -1.8821  1.1886  1.9625
18803TIP3   OH277823   3.455   2.850   4.197  0.3237 -0.1941 -0.3619
18803TIP3    H177824   3.509   2.864   4.275  1.9007 -0.7544 -1.3228
18803TIP3    H277825   3.414   2.764   4.211 -0.0162  0.0416  0.1657
18804TIP3   OH277826   5.183   3.662  11.483  0.3016  0.8642 -0.5018
18804TIP3    H177827   5.094   3.628  11.484  1.0280 -1.1806 -1.2863
18804TIP3    H277828   5.232   3.603  11.540  1.0254  2.5088  0.6807
18805TIP3   OH277829   3.295   5.410   4.473  0.5583 -0.0041 -0.0305
18805TIP3    H177830   3.256   5.406   4.386  1.1166  0.4680 -0.3115
18805TIP3    H277831   3.350   5.489   4.471  2.1794 -1.0918  0.0766
18806TIP3   OH277832   1.893   0.948  11.961 -0.4496  0.1689 -0.3533
18806TIP3    H177833   1.973   0.977  12.005  1.3875 -1.1371 -2.6243
18806TIP3    H277834   1.899   0.984  11.873 -0.4588 -2.9632 -1.7461
18807TIP3   OH277835   4.132   3.724  13.692  0.6260 -0.4966 -0.2940
18807TIP3    H177836   4.046   3.702  13.728 -0.2858  1.7707 -0.9204
18807TIP3    H277837   4.191   3.661  13.733 -0.8079 -0.1017  2.6904
18808TIP3   OH277838   4.465   5.517  12.348 -0.3729  0.3763  0.8170
18808TIP3    H177839   4.444   5.483  12.261 -1.9401 -1.7236  1.9368
18808TIP3    H277840   4.401   5.476  12.406  0.5046  1.8719  2.9592
18809TIP3   OH277841   4.402   0.235   1.968 -0.6466  0.1084 -0.3186
18809TIP3    H177842   4.432   0.316   2.008  0.4439 -0.2130 -0.4573
18809TIP3    H277843   4.477   0.176   1.974 -0.6210 -0.1404 -2.3220
18810TIP3   OH277844   2.215   4.975   2.648  0.3967 -0.0989  0.5480
18810TIP3    H177845   2.141   5.008   2.699  1.2384  3.1961 -0.1398
18810TIP3    H277846   2.175   4.939   2.569 -0.5450  0.1727  0.8799
18811TIP3   OH277847   0.003   1.135  15.206 -0.3570  0.3986  0.0324
18811TIP3    H177848   0.040   1.094  15.128 -1.4265 -1.5347  0.4812
18811TIP3    H277849   0.075   1.188  15.241  0.7877 -0.2997 -1.1435
18812TIP3   OH277850   1.987   5.099   0.538  0.3586  0.1921  0.0747
18812TIP3    H177851   1.953   5.180   0.574  1.1205  0.5262  0.0517
18812TIP3    H277852   2.069   5.084   0.583  1.3818  0.6693 -1.5465
18813TIP3   OH277853   6.096   2.546   2.263 -0.9759  0.4476  0.4295
18813TIP3    H177854   6.110   2.625   2.316 -0.2854 -0.6042  1.8743
18813TIP3    H277855   6.185   2.518   2.239 -0.9920 -1.3587  2.2110
18814TIP3   OH277856   1.694   0.131  17.136  0.6877 -0.9241 -0.2233
18814TIP3    H177857   1.611   0.124  17.089  0.9042 -1.1361 -0.5850
18814TIP3    H277858   1.734   0.211  17.102  0.1295 -0.2028  0.7811
18815TIP3   OH277859   5.690   1.429  15.236 -0.5443 -0.2861 -0.4010
18815TIP3    H177860   5.743   1.422  15.157 -0.3560 -0.8134 -0.2335
18815TIP3    H277861   5.656   1.341  15.250  1.7520 -0.9795  1.6739
18816TIP3   OH277862   2.344   4.340   0.297  0.5492 -0.1074  0.3580
18816TIP3    H177863   2.308   4.335   0.386  0.3351  1.9535  0.4347
18816TIP3    H277864   2.267   4.329   0.240  0.8073 -2.3579  0.3433
18817TIP3   OH277865   4.668   1.191   6.490 -0.5710 -0.1996  0.1822
18817TIP3    H177866   4.679   1.107   6.534 -1.6809 -1.3409 -1.5799
18817TIP3    H277867   4.750   1.238   6.506  0.3179 -1.8715  0.7092
18818TIP3   OH277868   6.068   5.517   5.444  0.1400 -0.4711  0.2696
18818TIP3    H177869   6.139   5.575   5.473 -0.8602  1.5818 -1.1309
18818TIP3    H277870   5.995   5.538   5.503 -0.4597  0.3182 -0.7143
18819TIP3   OH277871   5.896   4.833   3.325  0.4831  0.0136  0.0343
18819TIP3    H177872   5.942   4.764   3.277  0.5437  0.0301  0.0695
18819TIP3    H277873   5.902   4.807   3.417 -2.1126 -1.5553 -0.1532
18820TIP3   OH277874   4.738   6.088   2.652 -0.4220 -0.4067  0.1082
18820TIP3    H177875   4.773   6.014   2.601 -1.2152 -1.3810  0.9296
18820TIP3    H277876   4.733   6.160   2.589 -1.5028 -1.6034 -1.2495
18821TIP3   OH277877   1.685   2.507   2.303 -0.7591 -0.0897  0.2258
18821TIP3    H177878   1.755   2.572   2.305 -1.0742  0.2529  0.1987
18821TIP3    H277879   1.723   2.428   2.341  0.3576 -0.5982 -1.7686
18822TIP3   OH277880   1.048   4.707  14.286  0.1899 -0.4853 -0.3400
18822TIP3    H177881   1.078   4.625  14.248 -0.1604  0.6469 -3.3870
18822TIP3    H277882   0.971   4.730  14.234  0.1411  1.6406  0.5797
18823TIP3   OH277883   2.155   1.185  15.480  0.1836 -0.3803 -0.1416
18823TIP3    H177884   2.211   1.108  15.468 -1.4248 -1.5618 -0.4165
18823TIP3    H277885   2.067   1.148  15.496 -0.2309  1.3607  1.9846
18824TIP3   OH277886   3.938   5.658  16.142  0.1274  0.0834 -0.4278
18824TIP3    H177887   3.889   5.739  16.156  1.3421  0.7456  0.1080
18824TIP3    H277888   3.890   5.613  16.072 -1.0732  0.8289 -0.1108
18825TIP3   OH277889   0.291   1.958   0.382  0.1737 -0.1516 -0.1769
18825TIP3    H177890   0.228   1.973   0.312 -0.6455 -0.3630  0.4932
18825TIP3    H277891   0.329   2.044   0.400 -1.9906  0.5769  1.3130
18826TIP3   OH277892   2.241   6.695  16.197  0.6000  0.5521 -0.8283
18826TIP3    H177893   2.222   6.733  16.111  0.7228 -0.5403 -1.3601
18826TIP3    H277894   2.168   6.635  16.213  1.4470 -0.5633 -0.9870
18827TIP3   OH277895   2.428   0.761  14.463 -0.2416  0.5536  0.0763
18827TIP3    H177896   2.384   0.845  14.480 -1.7998 -0.1094 -0.4468
18827TIP3    H277897   2.497   0.757  14.529  0.3237  2.5481 -0.3335
18828TIP3   OH277898   5.867   1.772  14.685 -0.1326 -0.2611 -0.6599
18828TIP3    H177899   5.954   1.735  14.702  0.1107  1.3127  2.1661
18828TIP3    H277900   5.807   1.713  14.731 -0.4927 -0.7924 -1.7804
18829TIP3   OH277901   0.446   0.931  11.725 -0.4754  0.0418  0.1499
18829TIP3    H177902   0.488   0.992  11.786  1.2476  1.6920 -2.4751
18829TIP3    H277903   0.352   0.950  11.733 -0.3049  0.2379  2.1692
18830TIP3   OH277904   6.384   4.793  14.287  0.3946  0.4517 -0.2840
18830TIP3    H177905   6.443   4.761  14.219  1.7538  0.9675  0.6118
18830TIP3    H277906   6.418   4.756  14.369  0.3431  1.8661  0.4251
18831TIP3   OH277907   0.119   0.375   5.079  0.0698  0.0960 -0.3832
18831TIP3    H177908   0.162   0.389   4.995 -0.4982 -0.7774 -0.8405
18831TIP3    H277909   0.181   0.321   5.129 -0.7469 -1.8012 -1.3182
18832TIP3   OH277910   0.585   0.296  13.428 -0.0111  0.4570  0.3853
18832TIP3    H177911   0.491   0.278  13.437  0.5296 -4.4799 -0.7548
18832TIP3    H277912   0.623   0.264  13.510  0.8079  0.6967  0.1057
18833TIP3   OH277913   1.738   3.688  16.447 -0.2406 -0.3465 -0.3105
18833TIP3    H177914   1.823   3.729  16.462 -0.3898  0.4561 -1.5631
18833TIP3    H277915   1.676   3.761  16.451 -0.6434 -0.6215 -1.3656
18834TIP3   OH277916   2.302   6.015   3.252  0.2090 -0.9696  0.1719
18834TIP3    H177917   2.312   6.089   3.312  0.9584 -0.7397 -0.2246
18834TIP3    H277918   2.232   6.041   3.192  1.7172  0.2724 -1.1629
18835TIP3   OH277919   5.515   2.712   1.884 -0.2354 -0.0179  0.0387
18835TIP3    H177920   5.498   2.739   1.794 -1.8834  0.9181  0.5820
18835TIP3    H277921   5.565   2.784   1.922  1.8101 -1.0800 -0.4943
18836TIP3   OH277922   3.820   3.008  15.497  0.4073  0.4998 -0.0692
18836TIP3    H177923   3.851   3.087  15.541 -2.0196  1.2046  0.5432
18836TIP3    H277924   3.797   3.037  15.408 -0.3547  0.4542  0.1104
18837TIP3   OH277925   2.659   4.287   5.648  0.5871 -0.1089  0.8435
18837TIP3    H177926   2.589   4.352   5.651  0.3498 -0.3576  0.6911
18837TIP3    H277927   2.700   4.298   5.563  0.2919 -0.4260  0.6592
18838TIP3   OH277928   3.340   0.999   0.882  1.1582  0.1573 -0.0090
18838TIP3    H177929   3.307   1.076   0.928  4.1295  0.5990  1.6402
18838TIP3    H277930   3.352   1.028   0.792 -2.2681  0.0825 -0.5878
18839TIP3   OH277931   1.674   2.253  17.225  0.1932  0.4903 -0.7180
18839TIP3    H177932   1.641   2.269  17.137  2.2466  2.8085 -1.1690
18839TIP3    H277933   1.769   2.247  17.216  0.3038 -2.8525  0.9340
18840TIP3   OH277934   6.523   2.218   2.057 -0.0183 -0.1568  0.1160
18840TIP3    H177935   6.487   2.270   1.985  0.9293  0.8184  0.3127
18840TIP3    H277936   6.474   2.247   2.134 -0.3605 -0.4901  0.0275
18841TIP3   OH277937   3.176   1.108   6.158  0.0310  0.5755 -0.0997
18841TIP3    H177938   3.159   1.165   6.233 -1.2677 -0.3945  0.3678
18841TIP3    H277939   3.147   1.021   6.187  0.5430 -0.0248 -1.3397
18842TIP3   OH277940   1.771   4.547  12.114  0.2391  0.6958 -0.3972
18842TIP3    H177941   1.677   4.555  12.131  0.0818 -1.0917 -0.2194
18842TIP3    H277942   1.797   4.633  12.082 -1.5141  1.1461 -0.7139
18843TIP3   OH277943   4.829   5.014  16.427 -0.0943  0.0144  0.1319
18843TIP3    H177944   4.812   4.975  16.513 -1.5171 -0.0268 -0.1443
18843TIP3    H277945   4.800   5.104  16.435  0.9029  0.3512  0.0404
18844TIP3   OH277946   6.250   0.998  17.029  0.5919  0.2515  0.2547
18844TIP3    H177947   6.233   1.033  16.942  1.0185 -0.7297 -0.2407
18844TIP3    H277948   6.172   0.946  17.049  0.6205  0.2389  0.3315
18845TIP3   OH277949   3.753   4.780   5.878  0.0080  0.1517 -0.7015
18845TIP3    H177950   3.818   4.804   5.944 -0.9140 -1.8790  1.0466
18845TIP3    H277951   3.681   4.842   5.893 -0.2870 -0.4211  0.4124
18846TIP3   OH277952   4.644   3.183  13.123  0.0105  0.1777  0.0435
18846TIP3    H177953   4.725   3.228  13.148  1.3476 -1.5925 -0.7865
18846TIP3    H277954   4.673   3.095  13.098 -1.9258  0.0268 -2.0849
18847TIP3   OH277955   3.874   1.502  12.735 -0.2695 -0.0924 -0.2299
18847TIP3    H177956   3.894   1.474  12.646  0.9672  0.4299 -0.1354
18847TIP3    H277957   3.958   1.497  12.781 -0.6933  0.5840  0.6426
18848TIP3   OH277958   1.995   2.426   5.439 -0.0286 -0.3232  0.3396
18848TIP3    H177959   2.044   2.455   5.362 -3.0479  0.2604 -1.5182
18848TIP3    H277960   2.050   2.358   5.477  2.3782  0.5335 -1.3144
18849TIP3   OH277961   3.897   3.729  11.899 -0.1222  0.2123  0.5761
18849TIP3    H177962   3.819   3.782  11.881  0.9186  2.0722  1.1773
18849TIP3    H277963   3.940   3.720  11.814 -0.5651 -0.1205  0.3822
18850TIP3   OH277964   5.728   1.671   5.853 -0.4050  0.6456  0.0021
18850TIP3    H177965   5.700   1.678   5.761 -0.0125  2.6498 -0.0024
18850TIP3    H277966   5.823   1.665   5.849 -0.3664  1.0498  0.2932
18851TIP3   OH277967   6.159   1.254  12.252 -0.0418 -0.0424 -0.0539
18851TIP3    H177968   6.133   1.189  12.317  0.9481 -0.4172 -0.0116
18851TIP3    H277969   6.140   1.338  12.293  1.5076 -0.2475  1.1677
18852TIP3   OH277970   0.736   6.513   4.596  0.1815 -0.2234  0.2336
18852TIP3    H177971   0.774   6.478   4.515  0.2462  0.2328  0.0604
18852TIP3    H277972   0.674   6.447   4.624  0.2244 -0.4300 -0.1445
18853TIP3   OH277973   4.882   2.520  12.230 -0.0950 -0.4239 -0.2748
18853TIP3    H177974   4.951   2.454  12.235  1.3722  0.9690 -1.0337
18853TIP3    H277975   4.909   2.588  12.291 -2.5937 -1.3138  1.9907
18854TIP3   OH277976   5.141   2.703  16.974  0.1729  0.4124 -0.1024
18854TIP3    H177977   5.119   2.755  16.897  0.9930  1.7913  0.5726
18854TIP3    H277978   5.220   2.743  17.010  2.1717 -2.5807 -0.7473
18855TIP3   OH277979   0.415   3.099  16.255 -0.0637  0.6004 -0.6418
18855TIP3    H177980   0.429   3.140  16.169 -0.8674  0.7202 -0.7254
18855TIP3    H277981   0.397   3.172  16.314 -2.5732  0.3753 -1.0027
18856TIP3   OH277982   6.208   2.710   0.148  0.3878  0.0315 -0.1194
18856TIP3    H177983   6.281   2.666   0.103  1.7687  1.8545  0.2305
18856TIP3    H277984   6.162   2.639   0.193  2.3817 -1.1243  0.2389
18857TIP3   OH277985   3.799   3.819  13.605 -0.1897 -0.8396  0.0623
18857TIP3    H177986   3.808   3.725  13.588 -1.1452 -0.7142 -1.2784
18857TIP3    H277987   3.775   3.824  13.697  1.1830 -1.8212  0.5091
18858TIP3   OH277988   0.613   6.728  11.755 -0.3048 -0.2162 -1.0910
18858TIP3    H177989   0.563   6.764  11.828  0.3008 -2.0121  0.3015
18858TIP3    H277990   0.551   6.725  11.683 -1.3549  0.3029 -0.2443
18859TIP3   OH277991   3.553   1.499   5.319  0.0731  0.2467 -0.3122
18859TIP3    H177992   3.575   1.463   5.233  0.2554  0.2154 -0.2516
18859TIP3    H277993   3.534   1.591   5.303  0.7463  0.3919 -0.2804
18860TIP3   OH277994   4.684   3.262  11.361 -0.0405 -0.0987  0.7874
18860TIP3    H177995   4.633   3.272  11.281 -1.0988 -0.8143  1.3495
18860TIP3    H277996   4.756   3.203  11.336 -1.3751 -1.7853  0.7774
18861TIP3   OH277997   2.946   3.693   2.243 -0.1595  0.3258  0.1867
18861TIP3    H177998   3.020   3.656   2.195  0.8519 -0.8879  2.5132
18861TIP3    H277999   2.870   3.679   2.185  1.1178 -0.0006 -1.4921
18862TIP3   OH278000   2.027   4.087   3.339 -0.2952  0.4930  0.0023
18862TIP3    H178001   2.028   4.119   3.429  0.4782  0.3889  0.0363
18862TIP3    H278002   1.934   4.076   3.318 -0.4646  0.1884  0.8980
18863TIP3   OH278003   4.878   3.803   6.574  0.1802  0.2545  0.4023
18863TIP3    H178004   4.957   3.843   6.537  0.1690 -1.4305 -1.6869
18863TIP3    H278005   4.833   3.874   6.619  2.9992  1.2092  1.9588
18864TIP3   OH278006   1.162   4.695  16.181  0.2511 -0.1815 -0.3050
18864TIP3    H178007   1.206   4.717  16.263  0.2452  0.3550 -0.4383
18864TIP3    H278008   1.163   4.600  16.177  0.9285 -0.1866 -0.0466
18865TIP3   OH278009   0.059   3.820  17.139  0.7114 -0.0041 -0.6193
18865TIP3    H178010   0.057   3.829  17.044  0.1396 -1.9559 -0.8458
18865TIP3    H278011   0.152   3.813  17.161  0.8172 -0.2071 -1.1208
18866TIP3   OH278012   6.504   0.187  13.843 -0.5824  0.0025  0.4505
18866TIP3    H178013   6.529   0.160  13.754  0.7868 -2.8114  1.5311
18866TIP3    H278014   6.411   0.205  13.838 -0.8595 -1.6111 -1.2830
18867TIP3   OH278015   1.846   0.906  15.230 -0.1991  0.0031 -0.4587
18867TIP3    H178016   1.898   0.923  15.309  0.1084 -0.0829 -0.6403
18867TIP3    H278017   1.906   0.861  15.171  0.1439  1.6471 -1.4481
18868TIP3   OH278018   0.176   4.199   5.453  0.3944  1.0314 -0.1054
18868TIP3    H178019   0.089   4.236   5.444 -0.1321  0.5070  2.0764
18868TIP3    H278020   0.174   4.119   5.400  0.0249  1.7244 -1.1600
18869TIP3   OH278021   5.021   0.647  12.858  0.0431 -0.3662  0.4558
18869TIP3    H178022   5.101   0.601  12.832 -0.8383 -1.1932 -0.8931
18869TIP3    H278023   5.037   0.739  12.836  0.7593 -0.4630  0.5555
18870TIP3   OH278024   1.426   6.218  12.551 -0.6919  0.5989 -0.8972
18870TIP3    H178025   1.369   6.206  12.627 -0.3371  1.0308 -0.5632
18870TIP3    H278026   1.452   6.130  12.526 -0.7839  0.4591 -0.5028
18871TIP3   OH278027   1.614   3.235  14.836 -0.1052  0.0684  0.1985
18871TIP3    H178028   1.654   3.209  14.753  0.6684  0.1697  0.5320
18871TIP3    H278029   1.592   3.327  14.825  0.8576  0.3397  0.4179
18872TIP3   OH278030   1.672   3.607  13.388 -0.0865  0.2550  0.1333
18872TIP3    H178031   1.698   3.515  13.378 -1.2351  0.1744 -3.4202
18872TIP3    H278032   1.754   3.656  13.380  0.4856 -0.3889  1.6809
18873TIP3   OH278033   3.924   4.444  11.922 -0.4818 -0.0038 -0.1296
18873TIP3    H178034   3.906   4.391  11.844 -0.4507 -1.5824  0.8995
18873TIP3    H278035   3.924   4.382  11.994  1.5320  1.0816  0.9074
18874TIP3   OH278036   0.564   5.507  11.210  0.3855  0.3514  0.2971
18874TIP3    H178037   0.618   5.529  11.287  2.3747  0.2655 -0.9894
18874TIP3    H278038   0.615   5.442  11.162 -0.8794  0.2681 -1.0214
18875TIP3   OH278039   3.686   3.522   6.120 -0.1973 -0.1132 -0.3165
18875TIP3    H178040   3.728   3.558   6.042  0.6904 -0.4362 -0.0006
18875TIP3    H278041   3.744   3.547   6.192 -0.3962 -0.8300  0.1008
18876TIP3   OH278042   3.963   1.626   2.288  0.3161  0.4774 -0.3733
18876TIP3    H178043   4.030   1.569   2.250  0.5753  0.2629  0.3912
18876TIP3    H278044   3.996   1.647   2.375 -0.1103  1.2376 -0.3856
18877TIP3   OH278045   2.483   1.469  15.319 -0.2019  0.1911 -0.7824
18877TIP3    H178046   2.488   1.547  15.375  0.2830 -1.4758  1.6727
18877TIP3    H278047   2.572   1.459  15.284 -0.5232  1.2770 -2.0109
18878TIP3   OH278048   1.748   5.080   0.199 -0.3421 -0.2984  0.9745
18878TIP3    H178049   1.683   5.079   0.269 -1.3831 -0.2701  0.0401
18878TIP3    H278050   1.697   5.096   0.119  0.9563  1.0721  0.3622
18879TIP3   OH278051   2.460   2.266  10.679  0.4644  0.1719 -0.4008
18879TIP3    H178052   2.499   2.310  10.755 -0.4431 -0.0279  0.1951
18879TIP3    H278053   2.531   2.261  10.615  0.8824  1.5410 -0.0811
18880TIP3   OH278054   1.667   5.445   5.943  0.1621  0.1647  0.1377
18880TIP3    H178055   1.710   5.384   6.003  2.6263  1.6169  0.0016
18880TIP3    H278056   1.683   5.408   5.856 -0.6513 -0.3239  0.1906
18881TIP3   OH278057   3.490   3.435   6.282  0.2027  0.0560 -0.4517
18881TIP3    H178058   3.563   3.465   6.227  0.4169  0.2880 -0.0459
18881TIP3    H278059   3.457   3.515   6.324 -1.2533  0.1871 -1.7620
18882TIP3   OH278060   4.218   1.852  12.249  0.1115 -0.0736  0.8619
18882TIP3    H178061   4.194   1.886  12.336  0.1366 -0.2679  0.9470
18882TIP3    H278062   4.312   1.835  12.255  0.1196 -0.0508  0.7857
18883TIP3   OH278063   5.217   5.601  14.954 -0.0242  0.3124 -0.0533
18883TIP3    H178064   5.161   5.552  15.014  1.0926 -0.4086  0.4474
18883TIP3    H278065   5.299   5.551  14.953  0.8053  1.6443 -0.2925
18884TIP3   OH278066   1.607   1.160  13.309 -0.0119  0.0060  0.4877
18884TIP3    H178067   1.693   1.119  13.299 -0.2728 -0.3433 -0.4884
18884TIP3    H278068   1.552   1.093  13.349 -0.0510 -0.0681  0.3091
18885TIP3   OH278069   5.630   0.173   3.575  0.1400  0.2815 -0.2100
18885TIP3    H178070   5.590   0.260   3.572 -0.3122  0.2879  2.8650
18885TIP3    H278071   5.580   0.126   3.642  2.0357 -1.4601  0.0926
18886TIP3   OH278072   5.715   4.762   4.674  0.0420  0.3837  0.5545
18886TIP3    H178073   5.732   4.811   4.754  0.0290  2.9799 -0.9337
18886TIP3    H278074   5.627   4.727   4.686 -1.5414  3.8839  0.3169
18887TIP3   OH278075   2.831   4.423   2.670  0.2025  0.1995 -0.2181
18887TIP3    H178076   2.865   4.375   2.594 -0.1249 -0.1908 -0.1255
18887TIP3    H278077   2.887   4.500   2.677  2.4698 -1.4738  1.2345
18888TIP3   OH278078   0.943   4.876  15.344  0.0530  0.2587 -0.5592
18888TIP3    H178079   0.979   4.918  15.266  0.9899  0.6804  0.0730
18888TIP3    H278080   0.858   4.918  15.357  1.5555  3.1363  0.8919
18889TIP3   OH278081   3.337   5.772   5.237  0.1354 -0.2469 -0.0082
18889TIP3    H178082   3.389   5.723   5.173 -1.2996 -2.4372  0.3805
18889TIP3    H278083   3.250   5.777   5.197 -0.1851  0.4267  0.7600
18890TIP3   OH278084   5.839   6.053  14.378 -0.3444  0.7750 -0.0740
18890TIP3    H178085   5.840   6.083  14.287 -0.8464 -1.2859 -0.8218
18890TIP3    H278086   5.929   6.063  14.407  0.0538  0.5304 -1.1581
18891TIP3   OH278087   6.009   4.985   2.149 -0.9020 -0.0421  0.0844
18891TIP3    H178088   5.921   5.004   2.182 -0.1191 -0.1486  2.3898
18891TIP3    H278089   6.033   4.902   2.190 -0.2006 -0.6769 -1.5506
18892TIP3   OH278090   4.209   0.575   4.711 -0.4722 -0.1746  0.0281
18892TIP3    H178091   4.188   0.618   4.628  1.4092 -0.4958 -0.6629
18892TIP3    H278092   4.221   0.648   4.772  0.3525  0.1857 -0.5489
18893TIP3   OH278093   5.982   3.096  13.775  0.2868  0.0470 -0.0894
18893TIP3    H178094   6.038   3.146  13.835  0.9940  2.5706 -2.6199
18893TIP3    H278095   5.960   3.158  13.705 -4.7842 -1.1160  0.0611
18894TIP3   OH278096   1.219   6.488   0.467 -0.7058  0.2094 -0.1903
18894TIP3    H178097   1.256   6.566   0.507 -1.0811 -0.1201  0.8218
18894TIP3    H278098   1.174   6.520   0.388 -0.6689  0.9744  0.0922
18895TIP3   OH278099   3.100   5.710   2.141 -0.4801 -0.1580 -0.4527
18895TIP3    H178100   3.186   5.723   2.181 -0.1127  1.7782 -1.7139
18895TIP3    H278101   3.110   5.632   2.087 -0.2384 -1.3025  1.1839
18896TIP3   OH278102   1.643   4.906   2.539  0.0331  0.2461 -0.2645
18896TIP3    H178103   1.623   4.862   2.621 -0.5649  0.3546 -0.3422
18896TIP3    H278104   1.623   4.840   2.472  1.1222 -0.0574 -0.3061
18897TIP3   OH278105   3.123   0.123  15.399  0.0093  0.8600 -0.6210
18897TIP3    H178106   3.168   0.089  15.476  0.0450 -0.3628 -1.1543
18897TIP3    H278107   3.031   0.127  15.425 -0.1329 -0.5083 -0.7950
18898TIP3   OH278108   3.238   6.733  17.151  0.2769 -0.3802  0.4885
18898TIP3    H178109   3.318   6.783  17.167 -0.3614  0.4898  0.9738
18898TIP3    H278110   3.248   6.701  17.061 -1.1586  4.1999 -1.6035
18899TIP3   OH278111   0.143   3.725  12.676 -0.3555 -0.0901  0.5158
18899TIP3    H178112   0.211   3.763  12.732 -0.2914  0.7383 -0.1070
18899TIP3    H278113   0.181   3.642  12.646  0.1609  0.1097  0.6059
18900TIP3   OH278114   0.258   1.446   3.172  0.4372 -0.0360 -0.2914
18900TIP3    H178115   0.324   1.488   3.228  0.7036 -0.7400 -0.0626
18900TIP3    H278116   0.174   1.475   3.207  0.6174  0.5800 -0.3555
18901TIP3   OH278117   4.194   3.625   5.402  0.1806 -0.5891 -0.6626
18901TIP3    H178118   4.179   3.617   5.308  0.4947 -0.9786 -0.6839
18901TIP3    H278119   4.241   3.708   5.412  0.0928 -0.5178 -0.8414
18902TIP3   OH278120   4.331   5.249  14.907  0.1606  0.2489  0.2919
18902TIP3    H178121   4.406   5.285  14.955 -2.2988  2.4948  2.7860
18902TIP3    H278122   4.361   5.246  14.816  3.1535  1.3074  1.0986
18903TIP3   OH278123   6.277   5.819   5.998 -0.3794 -0.4903  0.3851
18903TIP3    H178124   6.235   5.774   5.924  0.9108 -0.4989 -0.3867
18903TIP3    H278125   6.212   5.816   6.068 -2.0608  0.4299 -1.0559
18904TIP3   OH278126   6.608   3.191   4.952  0.2892  0.4009 -0.1545
18904TIP3    H178127   6.552   3.164   4.879 -0.3265  0.2837  0.3487
18904TIP3    H278128   6.694   3.155   4.931  0.0907  0.2494 -0.7511
18905TIP3   OH278129   1.365   4.745   3.583 -0.1736  0.0271 -0.4702
18905TIP3    H178130   1.304   4.671   3.585 -0.9247  0.6631  0.9382
18905TIP3    H278131   1.322   4.813   3.634  1.1292  0.9703 -0.5972
18906TIP3   OH278132   3.444   6.539  17.373 -0.2860 -0.1502  0.3430
18906TIP3    H178133   3.490   6.561  17.454 -2.3345  2.8165  0.8628
18906TIP3    H278134   3.363   6.497  17.402 -1.0854  1.0395 -0.1083
18907TIP3   OH278135   3.051   1.886   2.852  0.3028  0.0427 -0.0588
18907TIP3    H178136   3.026   1.794   2.860 -2.3417  0.6830 -0.1141
18907TIP3    H278137   3.042   1.906   2.759  1.6571  0.1953 -0.1801
18908TIP3   OH278138   5.608   0.521   5.350  0.5617  0.3950  0.2521
18908TIP3    H178139   5.533   0.536   5.408  0.6946  0.1686  0.4853
18908TIP3    H278140   5.683   0.553   5.400  0.6093  0.7106 -0.0206
18909TIP3   OH278141   4.098   0.729  16.424 -0.1346  0.3067 -0.0004
18909TIP3    H178142   4.117   0.636  16.416 -2.8369 -0.3512  0.1716
18909TIP3    H278143   4.162   0.762  16.487  0.6793 -1.4943  0.1596
18910TIP3   OH278144   2.892   3.615  15.122  0.5429  0.2844  0.7367
18910TIP3    H178145   2.976   3.609  15.167  1.2124  0.8535 -0.3711
18910TIP3    H278146   2.881   3.709  15.105  0.4527  0.0679 -0.4946
18911TIP3   OH278147   4.352   5.731   3.844  0.2901 -0.4728 -0.6874
18911TIP3    H178148   4.322   5.718   3.934  2.3931  0.7213  0.2799
18911TIP3    H278149   4.359   5.826   3.835 -0.3165 -0.5600 -2.2918
18912TIP3   OH278150   4.816   5.026  14.250 -0.5169  0.7037  0.0715
18912TIP3    H178151   4.888   5.088  14.258 -0.4081  0.4588  1.1148
18912TIP3    H278152   4.738   5.075  14.277 -0.3815  0.3098  1.2238
18913TIP3   OH278153   4.031   5.626  13.818 -0.3167  0.4894  0.1413
18913TIP3    H178154   3.976   5.645  13.893 -0.1660  1.4199  0.0297
18913TIP3    H278155   4.016   5.533  13.799  0.7816 -0.1687  2.2360
18914TIP3   OH278156   4.676   1.199   0.828  0.9584 -0.0517  0.0949
18914TIP3    H178157   4.676   1.178   0.921  1.8467 -1.0293 -0.1096
18914TIP3    H278158   4.584   1.199   0.802  0.6456  0.9626  1.1145
18915TIP3   OH278159   2.471   6.509   1.491  0.1134 -0.4133 -0.1209
18915TIP3    H178160   2.454   6.547   1.577  0.1953 -0.0351 -0.2662
18915TIP3    H278161   2.389   6.522   1.443  0.2743 -0.0388 -0.3039
18916TIP3   OH278162   2.269   1.070   2.338  0.5765 -0.2045  0.2172
18916TIP3    H178163   2.348   1.084   2.389 -0.2552 -0.2860  1.5610
18916TIP3    H278164   2.220   1.004   2.386 -0.0001 -0.6734 -0.9656
18917TIP3   OH278165   1.098   0.507   4.407  0.0948 -0.0162  0.2688
18917TIP3    H178166   1.104   0.507   4.311  1.2864 -0.4618  0.3300
18917TIP3    H278167   1.079   0.598   4.430  1.8482  0.5203 -0.2874
18918TIP3   OH278168   2.409   1.603  15.600  0.6023 -0.0399 -0.2242
18918TIP3    H178169   2.362   1.519  15.599  1.1733 -0.3641 -0.3409
18918TIP3    H278170   2.348   1.664  15.642  0.2379 -0.5442 -0.0081
18919TIP3   OH278171   6.133   3.490   6.118  0.3480 -0.2138 -0.2618
18919TIP3    H178172   6.130   3.582   6.147  1.6077 -0.7871  1.9033
18919TIP3    H278173   6.041   3.466   6.107 -0.2685  0.3559  2.6814
18920TIP3   OH278174   2.508   0.305  14.542  0.2393 -0.1208 -0.5099
18920TIP3    H178175   2.506   0.314  14.638 -0.1867 -2.3941 -0.2491
18920TIP3    H278176   2.576   0.240  14.526 -0.0168 -0.0961 -1.7330
18921TIP3   OH278177   3.527   1.816  17.062 -0.0813  0.3837 -0.2346
18921TIP3    H178178   3.563   1.731  17.085  1.9854  1.4108  0.6546
18921TIP3    H278179   3.496   1.852  17.144 -0.1145  0.8347 -0.4389
18922TIP3   OH278180   0.170   6.324   2.449  0.9055  0.2834 -0.3432
18922TIP3    H178181   0.103   6.339   2.516 -1.1162 -0.4303 -2.1074
18922TIP3    H278182   0.190   6.411   2.415  1.6029  0.5999  0.8128
18923TIP3   OH278183   2.984   5.531  14.566 -0.2472  0.3741  0.0271
18923TIP3    H178184   3.054   5.539  14.631  0.4025 -0.5131 -0.5332
18923TIP3    H278185   2.940   5.616  14.568  0.5387  0.7841  0.7511
18924TIP3   OH278186   1.920   1.053  17.101 -0.0486  0.3359  0.1661
18924TIP3    H178187   1.967   1.033  17.019 -1.5059  2.2133 -1.2130
18924TIP3    H278188   1.829   1.065  17.073 -0.5734  1.0591  2.0943
18925TIP3   OH278189   5.252   1.146  12.408 -0.0228  0.2164  0.2297
18925TIP3    H178190   5.345   1.159  12.427 -0.3351  0.6876  1.5172
18925TIP3    H278191   5.213   1.120  12.491 -0.7546 -1.7980 -0.6902
18926TIP3   OH278192   0.079   5.788   6.497 -0.8625 -0.1255 -0.3529
18926TIP3    H178193  -0.010   5.821   6.481 -0.7731  0.2416 -0.1131
18926TIP3    H278194   0.136   5.861   6.473 -0.6916  0.1518  0.8269
18927TIP3   OH278195   4.331   1.073   4.507  0.1084  0.1192  0.2180
18927TIP3    H178196   4.254   1.127   4.528 -0.9449 -0.9707 -0.7082
18927TIP3    H278197   4.402   1.112   4.559 -0.3272  3.0812 -1.1935
18928TIP3   OH278198   5.877   1.385  16.765  0.8525 -0.0991  0.1035
18928TIP3    H178199   5.907   1.297  16.745  0.0318 -0.5370  0.7281
18928TIP3    H278200   5.782   1.377  16.775  0.9436  0.5101  1.8208
18929TIP3   OH278201   6.491   6.035   0.427  0.3010  0.2877  0.3807
18929TIP3    H178202   6.426   5.986   0.375  1.4896  0.0746 -0.9872
18929TIP3    H278203   6.482   6.000   0.515 -0.0694 -1.2115 -0.2053
18930TIP3   OH278204   5.860   2.799  16.122 -0.0112  0.8358 -0.0248
18930TIP3    H178205   5.923   2.834  16.059 -0.1632  2.4391  0.6713
18930TIP3    H278206   5.813   2.876  16.154  0.6915  0.2382  2.7209
18931TIP3   OH278207   5.163   2.924   2.194  0.0347  0.1090  0.0337
18931TIP3    H178208   5.172   2.866   2.118 -1.6664 -2.7558  1.8034
18931TIP3    H278209   5.092   2.984   2.171 -0.9080 -1.1452 -0.4691
18932TIP3   OH278210   1.194   4.991   5.859  0.2106 -0.5412  0.2498
18932TIP3    H178211   1.190   5.076   5.814  0.3925 -0.3113  0.6589
18932TIP3    H278212   1.196   5.014   5.952 -0.5024 -1.0194  0.3893
18933TIP3   OH278213   6.345   2.014   0.305 -0.2671  0.7904  0.5138
18933TIP3    H178214   6.357   2.049   0.394 -0.5853 -1.2144  1.3962
18933TIP3    H278215   6.321   1.923   0.319 -0.3422  0.4448 -1.6660
18934TIP3   OH278216   1.538   6.070  14.101  0.0394 -0.0569 -0.2154
18934TIP3    H178217   1.613   6.077  14.042  1.5196 -0.3757  1.5574
18934TIP3    H278218   1.495   5.988  14.075  1.4185 -0.8677 -0.0299
18935TIP3   OH278219   4.713   2.829  16.105  0.4923 -0.2122 -0.0922
18935TIP3    H178220   4.644   2.781  16.058  0.1464  0.2206 -0.0342
18935TIP3    H278221   4.705   2.919  16.074 -2.1182  0.9559  3.2936
18936TIP3   OH278222   3.676   5.718   4.158  0.5242  0.1318  0.0405
18936TIP3    H178223   3.624   5.637   4.157  2.7094 -1.3420 -1.1850
18936TIP3    H278224   3.639   5.771   4.088 -2.4608  1.3761  2.3114
18937TIP3   OH278225   2.653   1.047   4.624  0.6456 -0.0086  0.1703
18937TIP3    H178226   2.662   1.115   4.558  2.6985  1.1082  1.4753
18937TIP3    H278227   2.736   1.048   4.671 -0.4936 -1.1389  2.3974
18938TIP3   OH278228   6.117   6.052  15.720  0.2311 -0.0639  0.2196
18938TIP3    H178229   6.061   6.104  15.778 -0.2799  0.0547 -0.3730
18938TIP3    H278230   6.128   5.969  15.766  0.5152  0.3274  0.8690
18939TIP3   OH278231   0.520   0.680  15.735 -0.2593  0.2624 -0.4506
18939TIP3    H178232   0.522   0.694  15.640  3.3094  3.7236 -0.1262
18939TIP3    H278233   0.435   0.715  15.762 -0.0251  2.3314 -2.1236
18940TIP3   OH278234   3.972   5.645   3.757 -0.0729 -0.2822  0.1112
18940TIP3    H178235   4.050   5.691   3.726  1.0231 -1.7547  0.5929
18940TIP3    H278236   3.969   5.565   3.705 -1.7986  0.1456 -0.5267
18941TIP3   OH278237   3.349   4.866   5.126 -0.3058  0.1497 -0.2109
18941TIP3    H178238   3.273   4.827   5.082 -1.7844  1.3592  1.1647
18941TIP3    H278239   3.311   4.925   5.191  1.8387  0.8653  0.4531
18942TIP3   OH278240   5.850   4.066   1.665  0.2908 -0.0039  0.1229
18942TIP3    H178241   5.939   4.061   1.700  0.9330 -3.2849 -1.5391
18942TIP3    H278242   5.802   3.998   1.713 -0.7953  0.4260 -0.3317
18943TIP3   OH278243   6.139   4.012  15.123  0.0808 -0.5672 -0.0902
18943TIP3    H178244   6.146   4.094  15.074 -0.4486  0.0270  0.7952
18943TIP3    H278245   6.102   4.037  15.207 -0.0432 -1.7152  0.2229
18944TIP3   OH278246   4.887   4.721   4.296  0.0420 -0.2427  0.1673
18944TIP3    H178247   4.934   4.643   4.326  0.2413 -0.2274 -0.1011
18944TIP3    H278248   4.956   4.785   4.279 -0.0512 -0.2855 -0.4221
18945TIP3   OH278249   3.097   6.017   2.289 -0.0216  0.1930 -0.7710
18945TIP3    H178250   3.173   5.961   2.306  1.1800  2.1042  0.6833
18945TIP3    H278251   3.042   5.966   2.231  3.3901 -0.4865 -3.8011
18946TIP3   OH278252   1.424   5.105   5.598  0.5086 -0.0737 -0.1184
18946TIP3    H178253   1.392   5.025   5.640  1.1163  1.0461  2.7092
18946TIP3    H278254   1.512   5.082   5.567  1.0992 -0.3038  1.6004
18947TIP3   OH278255   2.054   4.301   1.007  0.2195 -0.1927  0.6537
18947TIP3    H178256   2.033   4.211   1.031  0.8610 -0.3286  0.7089
18947TIP3    H278257   2.123   4.327   1.068  0.7687 -0.0172 -0.0330
18948TIP3   OH278258   6.684   1.225  16.451  0.2025  0.0695 -0.2230
18948TIP3    H178259   6.632   1.160  16.403 -0.9809 -0.1598  1.2848
18948TIP3    H278260   6.771   1.220  16.411 -0.6040 -0.3510 -2.0764
18949TIP3   OH278261   3.964   2.877  15.904  0.3329 -0.2797  0.2512
18949TIP3    H178262   3.919   2.794  15.884  0.6812  0.1287 -2.5640
18949TIP3    H278263   3.924   2.941  15.845  3.3973  0.4497 -1.2631
18950TIP3   OH278264   0.620   1.878   4.080  0.1520 -0.7738  0.3416
18950TIP3    H178265   0.659   1.961   4.052 -0.2272 -0.9736 -0.8365
18950TIP3    H278266   0.646   1.869   4.171 -0.4398  1.0182  0.7287
18951TIP3   OH278267   2.630   0.831  12.323  0.1968  0.2749 -0.3858
18951TIP3    H178268   2.717   0.797  12.303  0.8321 -0.2190  2.7042
18951TIP3    H278269   2.647   0.920  12.355 -0.4755  0.2820 -0.0536
18952TIP3   OH278270   1.399   3.625   3.307  0.2340  0.0663  0.6554
18952TIP3    H178271   1.334   3.603   3.241  0.5895  0.1612  0.2643
18952TIP3    H278272   1.364   3.591   3.389 -0.1076 -0.2508  0.3779
18953TIP3   OH278273   1.412   5.933  15.031  0.0496 -0.5530  0.3002
18953TIP3    H178274   1.498   5.960  15.063 -0.1781 -0.3684  0.7583
18953TIP3    H278275   1.379   6.009  14.984  0.3055 -0.7634 -0.2386
18954TIP3   OH278276   3.504   2.127  16.205 -0.3357 -0.2255  0.9832
18954TIP3    H178277   3.446   2.201  16.188  0.0832  0.1038  0.9509
18954TIP3    H278278   3.456   2.050  16.174 -0.1486  0.2047 -0.4459
18955TIP3   OH278279   4.690   1.714  14.231 -0.3328  0.7706 -0.1528
18955TIP3    H178280   4.753   1.785  14.227  0.7783  0.0221  2.0578
18955TIP3    H278281   4.608   1.755  14.257  0.3749  1.2466  1.4185
18956TIP3   OH278282   4.113   2.106   4.199  0.2943 -0.2319  0.1699
18956TIP3    H178283   4.120   2.088   4.105 -2.0360 -0.3260 -0.0296
18956TIP3    H278284   4.137   2.024   4.241  0.2232 -0.5341 -0.3776
18957TIP3   OH278285   4.907   1.056  16.228  0.0457 -0.4988  0.4347
18957TIP3    H178286   4.824   1.019  16.258 -0.1264  0.6647  1.5156
18957TIP3    H278287   4.968   0.982  16.228 -0.2516 -0.8112  2.6084
18958TIP3   OH278288   3.400   0.381  17.097  0.5090 -0.2622 -0.2056
18958TIP3    H178289   3.412   0.459  17.152 -1.6381  0.5779 -0.8080
18958TIP3    H278290   3.315   0.394  17.056  0.0511 -2.9737 -0.3067
18959TIP3   OH278291   5.859   1.928   0.050 -0.3712 -0.0559 -0.5790
18959TIP3    H178292   5.948   1.959   0.064 -0.8226  0.6652  0.8260
18959TIP3    H278293   5.830   1.896   0.136 -1.7031  0.3687 -0.8423
18960TIP3   OH278294   4.212   0.669   5.823  0.0899 -0.0465 -0.5908
18960TIP3    H178295   4.281   0.683   5.758 -1.2345  0.0653 -2.0258
18960TIP3    H278296   4.161   0.750   5.822 -0.8711 -0.6371 -0.5743
18961TIP3   OH278297   0.325   3.213  11.946  0.5686 -0.0538 -0.0382
18961TIP3    H178298   0.383   3.285  11.971  1.5100 -0.8829  0.1983
18961TIP3    H278299   0.349   3.194  11.855 -0.5895  0.7849 -0.5430
18962TIP3   OH278300   5.686   5.344  11.719 -0.1793 -0.0694 -0.0437
18962TIP3    H178301   5.694   5.282  11.791  0.0041 -0.2077 -0.1809
18962TIP3    H278302   5.596   5.375  11.723  0.8712  3.2224  2.9689
18963TIP3   OH278303   3.280   3.446   5.896 -0.1980 -0.2104 -0.8191
18963TIP3    H178304   3.373   3.425   5.887 -0.1211  0.1004 -0.7618
18963TIP3    H278305   3.235   3.365   5.872  0.0793 -0.2430 -1.2474
18964TIP3   OH278306   2.529   2.690  14.055  0.0179 -0.3957 -0.1536
18964TIP3    H178307   2.582   2.735  13.989  2.7698 -1.4520  1.1774
18964TIP3    H278308   2.555   2.598  14.047 -1.2827 -0.8852  0.9056
18965TIP3   OH278309   6.057   3.419   4.454 -0.0725 -0.0997  0.4020
18965TIP3    H178310   5.962   3.418   4.462 -0.3262 -0.3902 -1.8879
18965TIP3    H278311   6.073   3.466   4.372  1.8459  1.0974  1.4015
18966TIP3   OH278312   5.728   5.677  16.981  0.1965 -0.2698  0.2804
18966TIP3    H178313   5.816   5.643  16.997  0.4336 -1.1650 -2.5355
18966TIP3    H278314   5.669   5.610  17.016  0.6685 -1.4952 -1.1959
18967TIP3   OH278315   3.313   4.725   4.351  0.5514  0.1393 -0.1558
18967TIP3    H178316   3.229   4.770   4.349  0.1822 -0.5203  0.2685
18967TIP3    H278317   3.302   4.648   4.295  0.6366 -0.3340  0.4600
18968TIP3   OH278318   5.333   3.583   2.410 -0.2067  0.5954 -0.3834
18968TIP3    H178319   5.292   3.617   2.330 -0.2739  1.4934  0.0184
18968TIP3    H278320   5.386   3.509   2.380  0.2550  1.2922 -1.3603
18969TIP3   OH278321   4.597   4.144  17.358 -0.1848 -0.4426 -0.0211
18969TIP3    H178322   4.567   4.212  17.297  3.0621 -0.2941 -1.7190
18969TIP3    H278323   4.604   4.188  17.442 -0.1262  0.7868 -0.6487
18970TIP3   OH278324   0.363   3.755  12.902 -0.7892 -0.3769 -0.5372
18970TIP3    H178325   0.452   3.730  12.875 -0.1066 -0.7359  1.7694
18970TIP3    H278326   0.357   3.725  12.993 -2.5434  1.5034  0.0302
18971TIP3   OH278327   3.199   0.778  12.422  0.4937  0.1299 -0.1467
18971TIP3    H178328   3.147   0.845  12.378  1.5899 -0.2432 -2.0999
18971TIP3    H278329   3.177   0.697  12.377  1.3571 -0.3430  0.2554
18972TIP3   OH278330   1.247   6.113   6.527  0.0404  0.6669 -0.0923
18972TIP3    H178331   1.331   6.067   6.520 -0.1385  0.5231 -1.4744
18972TIP3    H278332   1.263   6.198   6.486 -0.7234  0.2899 -1.2122
18973TIP3   OH278333   6.687   2.202   4.543 -0.2087  0.4226 -0.3363
18973TIP3    H178334   6.647   2.288   4.530  0.0739  0.5623 -0.2914
18973TIP3    H278335   6.632   2.159   4.609  0.9614  1.4563  1.3821
18974TIP3   OH278336   6.292   5.322  12.109  0.2493 -0.5400  0.2104
18974TIP3    H178337   6.384   5.326  12.135  0.0448 -0.9597  1.0338
18974TIP3    H278338   6.244   5.355  12.185 -0.2561  0.2565 -0.4371
18975TIP3   OH278339   5.728   1.693  15.898 -0.3555 -0.0240 -0.5176
18975TIP3    H178340   5.635   1.700  15.921 -0.2932  2.9160 -0.7251
18975TIP3    H278341   5.731   1.625  15.831 -2.1758 -0.9739  0.2910
18976TIP3   OH278342   5.624   3.931  15.080 -0.1116 -0.4909 -0.4098
18976TIP3    H178343   5.708   3.977  15.077  1.2617 -2.7811 -3.6861
18976TIP3    H278344   5.631   3.874  15.156  1.5676 -0.9079 -0.8167
18977TIP3   OH278345   6.308   5.868   2.469  0.3649  0.3949  0.3554
18977TIP3    H178346   6.290   5.840   2.559  0.2249  0.3833  0.3249
18977TIP3    H278347   6.403   5.871   2.463  0.3777  1.3024  0.7913
18978TIP3   OH278348   3.336   4.947   4.145 -0.2307 -0.0790  0.8031
18978TIP3    H178349   3.371   4.885   4.209  0.9321  1.1853  1.4499
18978TIP3    H278350   3.407   5.010   4.131 -0.6980  0.0693 -1.2449
18979TIP3   OH278351   4.059   0.873  17.037  0.1567 -0.5728 -0.0199
18979TIP3    H178352   4.142   0.849  16.995 -0.2209 -1.5548 -0.2476
18979TIP3    H278353   4.078   0.870  17.130  0.1593 -1.7225 -0.0417
18980TIP3   OH278354   3.612   1.282   5.491  0.0397 -0.1642 -0.1060
18980TIP3    H178355   3.703   1.261   5.469 -0.1871  0.0215 -1.3050
18980TIP3    H278356   3.596   1.367   5.451 -0.5048  0.0561  0.5586
18981TIP3   OH278357   6.076   3.310   0.255 -0.1235 -0.0083 -0.1344
18981TIP3    H178358   6.090   3.304   0.349 -0.3297  0.5489 -0.0694
18981TIP3    H278359   5.983   3.290   0.242  0.6274 -4.1736 -0.6119
18982TIP3   OH278360   6.288   4.118   2.900 -0.0059  0.0637 -0.0452
18982TIP3    H178361   6.287   4.029   2.937 -1.7661  0.2481  0.4297
18982TIP3    H278362   6.366   4.119   2.843 -1.3300 -2.6708 -2.1454
18983TIP3   OH278363   2.321   4.402  16.995 -0.2421  0.6269 -0.8351
18983TIP3    H178364   2.339   4.308  16.990  0.8881  0.5987  2.1025
18983TIP3    H278365   2.247   4.415  16.935 -1.1434 -2.3110 -0.5397
18984TIP3   OH278366   1.991   0.135   5.034  0.4373  0.0950 -0.6668
18984TIP3    H178367   2.084   0.136   5.015  1.0034  2.5417  1.5067
18984TIP3    H278368   1.948   0.162   4.953  1.6725 -0.2564 -1.4489
18985TIP3   OH278369   6.468   3.722  12.235  0.2382  0.0761 -0.0202
18985TIP3    H178370   6.402   3.665  12.274  1.0959 -1.1807 -0.3275
18985TIP3    H278371   6.551   3.690  12.270  0.7473  1.1342 -0.2265
18986TIP3   OH278372   2.147   4.543   3.075 -0.4370  0.0727 -0.0866
18986TIP3    H178373   2.158   4.463   3.127 -0.9808  0.6843  0.9785
18986TIP3    H278374   2.144   4.614   3.139  1.0364  1.0740 -1.0629
18987TIP3   OH278375   4.042   0.346  14.731  0.4772  0.1850 -0.0770
18987TIP3    H178376   3.994   0.401  14.670 -1.2518  1.3721  2.2192
18987TIP3    H278377   4.061   0.266  14.681 -1.9387  0.5782 -1.8035
18988TIP3   OH278378   3.295   1.819   5.551  0.3462  0.1097 -0.0617
18988TIP3    H178379   3.328   1.909   5.560 -0.7532  0.5528 -0.2646
18988TIP3    H278380   3.370   1.764   5.575  0.8909  1.0767  0.5661
18989TIP3   OH278381   2.292   6.463  16.596 -0.0315 -0.2175 -0.0047
18989TIP3    H178382   2.220   6.525  16.600  0.4704  0.3933 -0.2803
18989TIP3    H278383   2.338   6.473  16.679  1.7537  1.8981 -1.1589
18990TIP3   OH278384   6.398   4.291  10.905 -0.3793  0.2986 -0.4090
18990TIP3    H178385   6.475   4.325  10.950 -0.3973 -0.0502 -0.1088
18990TIP3    H278386   6.404   4.325  10.816  0.1591  0.2146 -0.4041
18991TIP3   OH278387   4.962   3.968  12.587 -0.5406  0.0603  0.1757
18991TIP3    H178388   5.033   3.924  12.540 -1.5957  0.5300 -2.0100
18991TIP3    H278389   4.882   3.923  12.557 -1.2581  0.1996  1.7912
18992TIP3   OH278390   0.894   3.679   3.359  0.5919 -0.4694 -0.0587
18992TIP3    H178391   0.824   3.662   3.422  1.4094  0.1120  1.0548
18992TIP3    H278392   0.849   3.689   3.275 -1.3169  4.3070  1.1957
18993TIP3   OH278393   5.375   6.021  15.391 -0.1925 -0.1357 -0.2072
18993TIP3    H178394   5.308   6.076  15.349  0.7154  0.5253 -0.8407
18993TIP3    H278395   5.385   5.947  15.331 -0.1108 -0.0515 -0.2996
18994TIP3   OH278396   6.489   5.672  15.240 -0.8745 -0.0423 -0.3734
18994TIP3    H178397   6.544   5.748  15.257 -1.4341  0.0458  1.2491
18994TIP3    H278398   6.547   5.597  15.250 -0.6334  0.1192 -0.5622
18995TIP3   OH278399   0.043   1.469   3.381  0.2649  0.5055 -0.4722
18995TIP3    H178400   0.085   1.383   3.377  2.2686  1.3827  0.1800
18995TIP3    H278401  -0.039   1.459   3.332  1.2965 -1.2941 -1.9348
18996TIP3   OH278402   4.105   4.951   2.301 -0.0796  0.5596  0.5601
18996TIP3    H178403   4.120   4.921   2.391 -0.3432  0.3641  0.5380
18996TIP3    H278404   4.156   5.032   2.295 -1.5362  1.6073  1.4737
18997TIP3   OH278405   1.595   5.821  15.338 -0.6213  0.4218  0.2831
18997TIP3    H178406   1.633   5.821  15.425  3.1204  2.6061 -1.0971
18997TIP3    H278407   1.589   5.728  15.314  4.3324 -0.2729  0.6893
18998TIP3   OH278408   1.896   1.879   0.347 -0.1192  0.3367 -0.6615
18998TIP3    H178409   1.850   1.798   0.367  0.8102 -0.3498 -1.2272
18998TIP3    H278410   1.871   1.900   0.258 -1.2089  1.2856 -0.1574
18999TIP3   OH278411   5.088   3.633  12.953  0.3312  0.2356  0.2067
18999TIP3    H178412   5.124   3.710  12.909  1.8808 -0.7925 -0.4269
18999TIP3    H278413   5.038   3.587  12.886  0.6542 -0.0777  0.1788
19000TIP3   OH278414   2.551   0.752   0.320  0.4823  0.4050  0.1375
19000TIP3    H178415   2.578   0.675   0.271 -0.7745 -0.1936  0.3411
19000TIP3    H278416   2.624   0.770   0.379  1.0400 -0.2592 -0.3393
19001TIP3   OH278417   3.355   2.364   4.150 -0.2711 -0.2497 -0.1081
19001TIP3    H178418   3.424   2.299   4.138  1.3939  1.3519  0.3103
19001TIP3    H278419   3.295   2.324   4.213  0.0862 -1.8025 -0.7075
19002TIP3   OH278420   0.894   3.305   5.523  0.2324 -0.6115 -0.7285
19002TIP3    H178421   0.978   3.343   5.497 -0.1808 -0.6408 -2.2534
19002TIP3    H278422   0.876   3.240   5.455 -1.6046  0.2733 -1.1397
19003TIP3   OH278423   2.896   5.963  16.320  0.1897  0.3730 -0.0812
19003TIP3    H178424   2.955   6.004  16.257  2.2663 -0.1708  1.4313
19003TIP3    H278425   2.885   6.029  16.388  0.3406 -0.1241  0.4278
19004TIP3   OH278426   3.833   0.732  16.428 -0.4603  0.7471  0.0192
19004TIP3    H178427   3.928   0.731  16.434 -0.3988 -0.8073 -0.6443
19004TIP3    H278428   3.814   0.781  16.348  0.1251 -3.1506 -2.8242
19005TIP3   OH278429   0.005   3.124   4.027 -0.3634 -0.5258 -0.1202
19005TIP3    H178430  -0.042   3.071   3.963 -3.0040  0.8672  0.5058
19005TIP3    H278431  -0.024   3.090   4.112 -0.1813  0.3088  0.2938
19006TIP3   OH278432   2.795   3.747  12.679 -0.7044 -0.1287 -0.5429
19006TIP3    H178433   2.876   3.765  12.631  0.4446 -3.9726 -0.4193
19006TIP3    H278434   2.816   3.767  12.770 -0.1497 -0.3667 -0.6140
19007TIP3   OH278435   4.487   0.592   7.069  0.4086 -0.3683 -0.0135
19007TIP3    H178436   4.553   0.652   7.104  0.1127  0.2031 -0.4149
19007TIP3    H278437   4.464   0.629   6.983 -0.7859 -0.2898  0.3201
19008TIP3   OH278438   6.307   0.983  12.214  0.2133 -0.1663 -0.0221
19008TIP3    H178439   6.378   0.930  12.251  0.1901 -0.1024  0.1150
19008TIP3    H278440   6.304   1.061  12.270  0.8079  0.3753 -0.7229
19009TIP3   OH278441   6.253   4.336   1.306  0.2629  0.2984  0.2110
19009TIP3    H178442   6.237   4.311   1.215 -1.8230  1.3682  0.2232
19009TIP3    H278443   6.227   4.260   1.357  2.5546 -0.7582 -0.0566
19010TIP3   OH278444   3.341   0.562   5.451  0.5451 -0.2993  0.1076
19010TIP3    H178445   3.253   0.590   5.428  1.7971  1.6618 -2.8176
19010TIP3    H278446   3.351   0.477   5.409  0.4310  0.0104 -0.5487
19011TIP3   OH278447   5.583   3.617  16.073  0.3169  0.5409  0.1602
19011TIP3    H178448   5.630   3.534  16.063  1.0974  1.0891 -0.9237
19011TIP3    H278449   5.502   3.605  16.024  0.5028  0.4687 -0.1319
19012TIP3   OH278450   5.735   4.776   4.251  0.4063  0.3361  0.0654
19012TIP3    H178451   5.653   4.767   4.299  0.0736 -1.0736 -0.7221
19012TIP3    H278452   5.800   4.736   4.308  0.7934  2.3304  1.1451
19013TIP3   OH278453   4.523   2.130   5.054 -0.2759  0.1108 -0.4170
19013TIP3    H178454   4.550   2.214   5.017 -1.9466  0.4196 -1.0233
19013TIP3    H278455   4.440   2.110   5.011  0.9293 -2.7734 -1.7016
19014TIP3   OH278456   0.133   2.174  14.934 -0.2991  0.7228 -0.3184
19014TIP3    H178457   0.143   2.093  14.983 -0.3265  0.9356  0.0372
19014TIP3    H278458   0.191   2.163  14.858 -0.3687  0.3384 -0.3182
19015TIP3   OH278459   6.473   5.580   3.543  0.3077  0.1055 -0.3380
19015TIP3    H178460   6.538   5.521   3.582 -0.9053  0.1540  1.9267
19015TIP3    H278461   6.495   5.666   3.579 -2.5220 -0.2910  2.7648
19016TIP3   OH278462   4.240   3.635  15.300 -0.3316 -0.5363 -0.1203
19016TIP3    H178463   4.175   3.653  15.232  1.1894 -0.8357 -1.7106
19016TIP3    H278464   4.244   3.716  15.351  0.6914  0.8883 -2.2985
19017TIP3   OH278465   5.897   0.305   3.327 -0.0288 -0.5582  0.0047
19017TIP3    H178466   5.949   0.363   3.271 -0.0987 -0.3252  0.1757
19017TIP3    H278467   5.908   0.341   3.415 -2.4794  1.0886 -0.2378
19018TIP3   OH278468   3.520   0.092   1.055  0.5184 -0.5220 -0.2063
19018TIP3    H178469   3.479   0.121   0.974 -0.0243 -0.6041  0.0345
19018TIP3    H278470   3.544   0.173   1.100  1.9227 -0.4672 -0.9797
19019TIP3   OH278471   5.260   3.570  13.902 -0.1619 -0.1999  0.5745
19019TIP3    H178472   5.201   3.538  13.971 -0.1444 -2.6413 -0.4490
19019TIP3    H278473   5.215   3.551  13.820  0.5412  1.1404 -0.1612
19020TIP3   OH278474   6.533   4.785  14.658 -0.3186  0.1147  0.2467
19020TIP3    H178475   6.487   4.865  14.685  0.1154  0.4441  0.0039
19020TIP3    H278476   6.582   4.810  14.580  0.0262 -0.3234  0.3209
19021TIP3   OH278477   1.806   2.749  13.467 -0.5221 -0.0026  0.0458
19021TIP3    H178478   1.789   2.691  13.392 -0.2075 -1.1529  0.8289
19021TIP3    H278479   1.896   2.729  13.492 -1.5503 -2.0083  2.6325
19022TIP3   OH278480   1.103   3.473   3.364 -0.0995 -0.2720 -0.1512
19022TIP3    H178481   1.034   3.531   3.331 -1.1399 -1.9023 -0.9305
19022TIP3    H278482   1.057   3.409   3.417  0.8294 -1.3135 -0.5719
19023TIP3   OH278483   4.512   3.251   5.917 -0.5726 -0.6266  0.7517
19023TIP3    H178484   4.516   3.212   6.004 -0.8652 -0.7917  0.6920
19023TIP3    H278485   4.432   3.303   5.917  0.4637  1.0684  1.2795
19024TIP3   OH278486   0.386   5.359   5.391  0.1964  0.9488  0.1695
19024TIP3    H178487   0.391   5.318   5.477  0.5325 -0.6853 -0.5870
19024TIP3    H278488   0.449   5.432   5.395 -0.6046  1.6079  1.6307
19025TIP3   OH278489   2.583   1.429  14.110 -0.2066 -1.0711  0.4167
19025TIP3    H178490   2.492   1.449  14.131  0.3390  0.0122  1.8766
19025TIP3    H278491   2.586   1.333  14.108 -1.7787 -1.1484 -1.6426
19026TIP3   OH278492   4.504   3.703   4.966  0.4414 -0.2239  0.6051
19026TIP3    H178493   4.547   3.682   5.049  0.8723 -0.1544  0.3993
19026TIP3    H278494   4.517   3.624   4.913  0.9371  0.0642  0.2909
19027TIP3   OH278495   2.780   1.334  10.711  0.0320 -0.1295 -0.1269
19027TIP3    H178496   2.746   1.244  10.711  2.0339 -0.9250  0.6741
19027TIP3    H278497   2.708   1.386  10.744 -0.3449 -1.7966  1.8802
19028TIP3   OH278498   5.471   6.592   0.392  0.3224 -0.0497  0.3122
19028TIP3    H178499   5.478   6.676   0.436 -0.3340  0.0792  0.1904
19028TIP3    H278500   5.413   6.540   0.448 -0.3929  0.0622 -0.2992
19029TIP3   OH278501   5.446   3.457  16.387  0.1123  0.5778  0.0824
19029TIP3    H178502   5.490   3.383  16.345  0.4886  1.3864 -1.0056
19029TIP3    H278503   5.515   3.524  16.394 -0.8965  1.8955 -1.7006
19030TIP3   OH278504   3.652   2.052  14.823  0.2731 -0.0851  0.0576
19030TIP3    H178505   3.659   2.055  14.919  1.6675 -0.7437  0.0011
19030TIP3    H278506   3.674   1.961  14.801  0.6848  0.2502 -0.9364
19031TIP3   OH278507   4.004   5.281  13.336  0.1321 -0.1683 -0.0780
19031TIP3    H178508   4.021   5.360  13.388  0.8889 -0.3014 -0.1143
19031TIP3    H278509   4.074   5.221  13.360  0.7432 -0.0816 -1.5495
19032TIP3   OH278510   2.671   1.182  10.998  0.2839 -0.7714 -1.0401
19032TIP3    H178511   2.671   1.259  10.940  0.7750  0.4727  0.5298
19032TIP3    H278512   2.753   1.137  10.978  0.3970 -0.4114 -1.4000
19033TIP3   OH278513   3.509   2.731  12.974 -0.5537 -0.2964 -0.4845
19033TIP3    H178514   3.439   2.708  13.034 -0.5775 -1.0989 -0.7996
19033TIP3    H278515   3.586   2.742  13.030 -0.3551 -1.9653 -0.3564
19034TIP3   OH278516   0.736   5.073  16.607  0.3828  0.6446 -0.1492
19034TIP3    H178517   0.722   4.989  16.652 -2.8672  1.0589 -0.1586
19034TIP3    H278518   0.791   5.123  16.666  1.3687 -1.0220  0.4254
19035TIP3   OH278519   5.402   3.472   3.313  0.2174  0.5433  0.3213
19035TIP3    H178520   5.398   3.452   3.219  3.1996 -0.3750  0.2720
19035TIP3    H278521   5.451   3.398   3.351 -0.5513  1.1057  2.5393
19036TIP3   OH278522   6.244   2.738   1.330 -0.1997 -0.0533  0.1408
19036TIP3    H178523   6.199   2.779   1.256 -0.4829  0.6506  0.6990
19036TIP3    H278524   6.212   2.784   1.407  1.1055  0.1491  0.5969
19037TIP3   OH278525   0.859   5.360   0.672  0.1288 -0.2865  0.0832
19037TIP3    H178526   0.792   5.342   0.738 -0.6465  1.3976 -0.1913
19037TIP3    H278527   0.831   5.309   0.595  0.0781 -0.8794  0.4886
19038TIP3   OH278528   3.459   4.359  16.667  0.6015  0.5211 -0.0352
19038TIP3    H178529   3.497   4.271  16.677  2.4956  1.2220 -0.6576
19038TIP3    H278530   3.368   4.343  16.642  0.9740 -1.2708 -0.3735
19039TIP3   OH278531   2.456   2.782   1.653  0.0769 -0.1238  0.1306
19039TIP3    H178532   2.366   2.790   1.684  0.5638 -1.7416  2.1539
19039TIP3    H278533   2.500   2.859   1.687 -0.1545 -0.2108  0.6366
19040TIP3   OH278534   6.773   3.004  15.058  0.2143 -0.1689  0.2989
19040TIP3    H178535   6.795   2.923  15.013  0.0732 -1.6972  2.7725
19040TIP3    H278536   6.686   2.989  15.095  0.5962  0.6949  1.6520
19041TIP3   OH278537   4.676   5.690  12.707  0.0149 -0.1846 -0.2213
19041TIP3    H178538   4.710   5.605  12.733  2.1450  0.3566 -1.0459
19041TIP3    H278539   4.660   5.736  12.790  0.1354 -0.8958  0.2037
19042TIP3   OH278540   2.406   6.430  14.904 -0.0212  0.1964  0.3746
19042TIP3    H178541   2.370   6.478  14.830  0.2133 -1.6239 -0.9902
19042TIP3    H278542   2.414   6.340  14.873 -0.7183 -0.8248  2.9162
19043TIP3   OH278543   1.073   2.096  15.324 -0.1891  0.4331  0.0803
19043TIP3    H178544   1.005   2.040  15.362 -0.1828  1.2256  1.2903
19043TIP3    H278545   1.144   2.036  15.303 -0.1707 -0.0319  1.3878
19044TIP3   OH278546   3.988   5.024  14.360 -0.0687 -0.0683 -0.3976
19044TIP3    H178547   3.947   5.047  14.276  2.8269  0.2862 -1.8419
19044TIP3    H278548   4.068   5.076  14.363 -0.1279  0.0256  2.7195
19045TIP3   OH278549   4.495   1.823  12.264 -0.2055  0.5656 -0.5149
19045TIP3    H178550   4.518   1.738  12.301  0.4767  0.2982 -1.5049
19045TIP3    H278551   4.574   1.851  12.217 -0.3170  1.8927  0.0506
19046TIP3   OH278552   2.088   0.051  16.716 -0.2523 -0.0315  0.6943
19046TIP3    H178553   2.022   0.054  16.785 -0.9412  1.1607  0.0185
19046TIP3    H278554   2.054  -0.012  16.653 -0.3507 -0.0122  0.7293
19047TIP3   OH278555   3.390   4.525  14.324  0.6411  0.0713  0.1743
19047TIP3    H178556   3.450   4.565  14.261 -0.1128  1.2347  0.1625
19047TIP3    H278557   3.358   4.598  14.376 -0.2919 -0.6061  0.5815
19048TIP3   OH278558   1.970   4.062  15.811  0.2730 -0.2661  0.9020
19048TIP3    H178559   1.936   4.113  15.885  0.2038 -0.9738  1.3673
19048TIP3    H278560   2.005   3.982  15.851  0.1365 -0.7065  0.1635
19049TIP3   OH278561   4.761   2.920  14.058  0.3288 -0.7531  0.5802
19049TIP3    H178562   4.792   2.851  14.000 -1.8379 -0.8945 -0.5071
19049TIP3    H278563   4.729   2.988  13.999 -2.4578 -1.1336  1.5195
19050TIP3   OH278564   3.395   3.547  16.190  0.1477  0.4471  0.1333
19050TIP3    H178565   3.396   3.636  16.225  0.1248  0.5497 -0.1224
19050TIP3    H278566   3.335   3.499  16.248  0.8360  0.3779  0.7922
19051TIP3   OH278567   3.677   3.965   3.624  0.1199  0.1878 -0.5463
19051TIP3    H178568   3.735   4.014   3.565  0.0436 -0.9936 -1.6285
19051TIP3    H278569   3.700   3.873   3.610 -0.7124 -0.1871  0.4231
19052TIP3   OH278570   1.442   2.556   4.943 -0.0922 -0.4167  0.1409
19052TIP3    H178571   1.351   2.586   4.942  0.3794  1.0794 -0.6488
19052TIP3    H278572   1.489   2.624   4.992  1.0219  0.2538 -1.7496
19053TIP3   OH278573   1.945   4.894  15.389 -0.2315 -0.1199 -0.0847
19053TIP3    H178574   2.026   4.909  15.439  0.0740 -0.0338 -0.6005
19053TIP3    H278575   1.975   4.875  15.300 -0.8517  1.6232 -0.7022
19054TIP3   OH278576   5.955   2.922   2.978  0.4028 -0.0636 -0.3127
19054TIP3    H178577   6.022   2.854   2.966  0.6484 -0.0676  0.9042
19054TIP3    H278578   5.949   2.965   2.893  0.7355 -1.1639 -0.9150
19055TIP3   OH278579   2.002   1.066  12.409 -0.0770 -0.3427  0.2087
19055TIP3    H178580   1.908   1.081  12.419  0.2532  2.5546 -0.0369
19055TIP3    H278581   2.023   1.105  12.324  1.5648  0.6049  1.0016
19056TIP3   OH278582   4.478   4.018   1.742 -0.1907 -0.3750 -0.5300
19056TIP3    H178583   4.440   3.982   1.821  2.7082 -0.1988  1.0985
19056TIP3    H278584   4.439   4.105   1.734 -0.4067 -0.3226  0.8285
19057TIP3   OH278585   4.124   1.495   3.687 -0.2703  0.2756 -0.5152
19057TIP3    H178586   4.031   1.496   3.710 -0.2065  0.4283 -0.2657
19057TIP3    H278587   4.165   1.552   3.751  0.0472 -0.0696 -0.4119
19058TIP3   OH278588   1.335   0.373  14.707  0.3197  0.0529  0.7833
19058TIP3    H178589   1.404   0.357  14.642  0.1635  1.7331  0.1539
19058TIP3    H278590   1.263   0.316  14.680  1.2301 -1.3440  1.1536
19059TIP3   OH278591   1.398   3.760   1.601  0.4309 -0.4771 -0.0577
19059TIP3    H178592   1.391   3.824   1.530  0.8769  1.3761  1.4756
19059TIP3    H278593   1.345   3.685   1.572 -0.3955  0.7202 -1.7869
19060TIP3   OH278594   4.296   2.650  12.993 -0.1724  0.0753  0.4444
19060TIP3    H178595   4.223   2.589  13.003  0.2403 -0.6549 -0.8398
19060TIP3    H278596   4.276   2.699  12.913  0.8944 -0.3688 -0.1077
19061TIP3   OH278597   4.246   1.067  13.781  0.3278  0.6849 -0.0083
19061TIP3    H178598   4.222   1.153  13.815 -2.5822 -0.3916  0.9920
19061TIP3    H278599   4.322   1.041  13.832  1.1517  2.5268 -0.2072
19062TIP3   OH278600   4.010   5.369  11.963 -0.1854  0.0323 -0.8431
19062TIP3    H178601   4.078   5.346  12.027  1.0589  0.5057 -1.9576
19062TIP3    H278602   4.055   5.425  11.900 -1.2856 -0.7213 -2.3377
19063TIP3   OH278603   0.569   0.788  15.995 -0.1892 -0.4466  0.2972
19063TIP3    H178604   0.639   0.854  15.999  1.6860 -2.3059  0.0677
19063TIP3    H278605   0.583   0.745  15.910 -0.8874 -1.6217  0.7639
19064TIP3   OH278606   3.790   2.972  16.621  0.0534  0.6092  0.1222
19064TIP3    H178607   3.706   2.926  16.617  0.7494 -0.7190  0.3169
19064TIP3    H278608   3.766   3.064  16.630 -1.3863  0.1991  0.8204
19065TIP3   OH278609   5.931   3.157  16.619  0.1336 -0.2095  0.6238
19065TIP3    H178610   5.918   3.251  16.620  0.5123 -0.0231 -2.2116
19065TIP3    H278611   6.025   3.145  16.636  0.5288  0.1553 -1.0579
19066TIP3   OH278612   4.144   1.997  16.385 -0.4108  0.2708  0.0825
19066TIP3    H178613   4.128   1.984  16.291  1.2845 -1.3315 -0.0404
19066TIP3    H278614   4.060   1.975  16.427 -1.1669  0.9267 -1.0230
19067TIP3   OH278615   0.617   4.514  12.603 -0.2524 -0.2472 -0.2558
19067TIP3    H178616   0.653   4.494  12.690  0.1133  1.0942 -0.0864
19067TIP3    H278617   0.539   4.567  12.620 -0.0101  0.2781 -0.7463
19068TIP3   OH278618   3.608   6.542  15.186  0.2591  0.6626  0.0083
19068TIP3    H178619   3.521   6.549  15.147  0.3236  1.2977 -0.0350
19068TIP3    H278620   3.660   6.496  15.121 -0.2313 -0.4242  0.3575
19069TIP3   OH278621   2.794   5.608  14.109  0.7576 -0.2113 -0.1445
19069TIP3    H178622   2.865   5.652  14.155 -0.8240 -0.4505  2.7477
19069TIP3    H278623   2.800   5.517  14.138 -1.7377  0.1042  1.7287
19070TIP3   OH278624   2.890   4.847  13.952 -0.4231  0.1006  0.3789
19070TIP3    H178625   2.933   4.930  13.933  0.5989 -0.4583  0.1302
19070TIP3    H278626   2.838   4.828  13.874 -0.0615  0.1476  0.1224
19071TIP3   OH278627   1.049   1.023  13.048  0.0457 -0.1920 -0.3575
19071TIP3    H178628   1.113   1.054  13.111 -0.5118  3.5042 -1.3804
19071TIP3    H278629   0.967   1.021  13.096  0.1272 -0.2765 -0.2221
19072TIP3   OH278630   4.104   5.023   5.906  0.0123  0.3251 -0.2144
19072TIP3    H178631   4.104   5.107   5.859 -2.0941 -0.6025 -2.0248
19072TIP3    H278632   4.159   4.966   5.852 -0.0987  0.0230 -0.0037
19073TIP3   OH278633   0.730   5.550  16.340 -0.1081  0.1528  0.1390
19073TIP3    H178634   0.781   5.631  16.347  0.0230  0.4172 -2.6438
19073TIP3    H278635   0.688   5.541  16.425  3.4299  0.6537  2.1567
19074TIP3   OH278636   3.040   5.385   5.746  0.5432  0.0130 -0.0128
19074TIP3    H178637   3.128   5.409   5.718  0.2840  0.7082 -0.2714
19074TIP3    H278638   2.982   5.434   5.686 -0.0390  1.3241  1.5294
19075TIP3   OH278639   4.979   2.565   5.777  0.2426  0.2112  0.2617
19075TIP3    H178640   4.969   2.555   5.682 -0.4528  0.1215  0.3411
19075TIP3    H278641   5.073   2.573   5.790  0.3673 -0.0770 -0.4111
19076TIP3   OH278642   3.358   4.412  10.883 -0.6441  0.5697 -0.0241
19076TIP3    H178643   3.281   4.447  10.929 -2.0606 -0.9278 -1.1212
19076TIP3    H278644   3.390   4.485  10.830 -1.1386  1.3007  0.6675
19077TIP3   OH278645   3.437   3.331   5.542  0.1735 -0.1256  0.0663
19077TIP3    H178646   3.450   3.283   5.624  0.5706 -2.6844 -1.3960
19077TIP3    H278647   3.381   3.274   5.489 -2.1471  2.5605 -0.6104
19078TIP3   OH278648   1.487   3.582   3.022 -0.0212 -0.6905 -0.3142
19078TIP3    H178649   1.393   3.561   3.019 -0.7157  2.0361 -0.2116
19078TIP3    H278650   1.517   3.548   3.106 -1.7618  1.2622  1.2087
19079TIP3   OH278651   4.943   4.055  12.839 -0.0199 -0.0209 -0.3636
19079TIP3    H178652   5.024   4.051  12.889 -0.8718 -0.3987  1.0469
19079TIP3    H278653   4.969   4.040  12.749  1.2653 -2.1716  0.2924
19080TIP3   OH278654   1.307   2.159  11.039  0.3649  0.0544 -0.1916
19080TIP3    H178655   1.214   2.178  11.026  0.0194  0.1341  2.0614
19080TIP3    H278656   1.346   2.245  11.059  0.5345 -0.2647  0.8770
19081TIP3   OH278657   2.315   5.241   5.912 -0.1927  0.3812 -0.4087
19081TIP3    H178658   2.347   5.324   5.948  1.2658 -0.3984  0.1964
19081TIP3    H278659   2.262   5.266   5.837 -1.6936  1.9602  1.0964
19082TIP3   OH278660   5.832   4.902   4.906  0.2627  0.1267  0.1943
19082TIP3    H178661   5.883   4.832   4.947 -0.2347  1.2276  2.8941
19082TIP3    H278662   5.893   4.975   4.899 -0.1222  0.5013  0.6552
19083TIP3   OH278663   2.133   2.638   6.519 -0.1789  0.3761  0.8660
19083TIP3    H178664   2.220   2.650   6.483 -0.3259  1.8617  0.9458
19083TIP3    H278665   2.083   2.713   6.488 -1.2616 -0.1264  1.3247
19084TIP3   OH278666   5.181   6.507  14.447 -0.0933  0.0231 -0.8802
19084TIP3    H178667   5.134   6.424  14.442  0.9473 -0.6324 -0.1286
19084TIP3    H278668   5.264   6.490  14.403  1.0347 -0.0143  1.1801
19085TIP3   OH278669   5.807   0.793   2.429 -0.4606  0.1538  0.2135
19085TIP3    H178670   5.784   0.788   2.336 -1.8596 -0.9798  0.5895
19085TIP3    H278671   5.730   0.832   2.471  0.0771  0.4714  0.9320
19086TIP3   OH278672   0.257   6.236  12.693 -0.1411 -0.2409  0.1167
19086TIP3    H178673   0.348   6.208  12.704 -0.4506 -1.1648  0.4165
19086TIP3    H278674   0.213   6.161  12.652 -0.1755  1.1893 -2.7200
19087TIP3   OH278675   0.949   5.298  13.784  0.3238 -0.2444  0.5139
19087TIP3    H178676   0.967   5.297  13.878  1.8915 -0.7940  0.2313
19087TIP3    H278677   0.957   5.207  13.757 -0.6108 -0.1618 -0.0827
19088TIP3   OH278678   0.457   4.634   3.754  0.1539  0.0374  0.1457
19088TIP3    H178679   0.502   4.644   3.670 -0.5246 -2.3210 -0.5639
19088TIP3    H278680   0.527   4.613   3.816  0.4385 -0.1709 -0.2377
19089TIP3   OH278681   6.576   0.350   3.868  0.1255  0.2499 -0.4141
19089TIP3    H178682   6.498   0.298   3.846  1.5216 -1.4807 -1.5684
19089TIP3    H278683   6.560   0.381   3.957 -2.0857  0.3614 -0.7893
19090TIP3   OH278684   5.857   3.877  15.897 -0.0752 -0.1059 -0.3448
19090TIP3    H178685   5.883   3.785  15.898 -1.0045 -0.3809 -0.3600
19090TIP3    H278686   5.893   3.912  15.978 -0.8112 -0.8187  0.3186
19091TIP3   OH278687   5.377   5.516   4.256  0.2577  0.2094 -0.0432
19091TIP3    H178688   5.440   5.473   4.199  0.3528  0.5570 -0.1980
19091TIP3    H278689   5.401   5.486   4.344  0.4814  0.1485 -0.1242
19092TIP3   OH278690   2.029   6.141   3.768  0.4185 -0.3431 -0.4572
19092TIP3    H178691   2.092   6.070   3.778  0.2570 -0.4508 -0.1848
19092TIP3    H278692   2.009   6.143   3.675 -0.9774 -1.8654 -0.2340
19093TIP3   OH278693   6.585   0.245  12.136  0.1490  0.9757 -0.2337
19093TIP3    H178694   6.515   0.193  12.176  0.0691  0.5904 -0.8466
19093TIP3    H278695   6.544   0.328  12.114 -0.4046  0.3964 -1.4969
19094TIP3   OH278696   1.483   0.602   0.267 -0.4331  0.3617 -0.4006
19094TIP3    H178697   1.394   0.636   0.258 -0.2293  0.8245 -0.7208
19094TIP3    H278698   1.484   0.562   0.354 -1.4686 -1.2454 -1.0793
19095TIP3   OH278699   4.592   5.147   1.527 -0.5195 -0.7134  0.2640
19095TIP3    H178700   4.656   5.084   1.560 -1.2642 -1.0931  1.0027
19095TIP3    H278701   4.630   5.233   1.549 -0.8102 -0.9499  1.8057
19096TIP3   OH278702   3.766   3.359   6.768 -0.6233  0.1263  0.2966
19096TIP3    H178703   3.793   3.329   6.681 -0.7817  0.3506  0.1688
19096TIP3    H278704   3.801   3.293   6.828  0.0773  0.3215  0.1215
19097TIP3   OH278705   5.838   3.854  15.251 -0.2064  0.0492 -0.0543
19097TIP3    H178706   5.887   3.842  15.169  0.1311  2.6314 -0.3262
19097TIP3    H278707   5.821   3.948  15.254 -0.1034  0.0407  2.9142
19098TIP3   OH278708   5.105   5.115  14.915 -0.1267 -0.0827 -0.9702
19098TIP3    H178709   5.081   5.172  14.842 -0.6838 -1.9384 -2.3306
19098TIP3    H278710   5.031   5.054  14.921  0.2295 -0.3729  0.7341
19099TIP3   OH278711   2.256   0.531   6.087  0.1708 -0.5454  0.0994
19099TIP3    H178712   2.257   0.442   6.121 -0.7272 -0.3524  0.6542
19099TIP3    H278713   2.295   0.584   6.157  0.1001 -0.4104  0.0367
19100TIP3   OH278714   5.961   3.926  14.839 -0.5497 -0.5393 -0.0358
19100TIP3    H178715   6.046   3.887  14.858  0.8994  1.7433 -1.3195
19100TIP3    H278716   5.922   3.869  14.773  0.9556 -0.5388 -0.9739
19101TIP3   OH278717   4.113   0.407   5.908 -0.7319  0.2291 -0.1121
19101TIP3    H178718   4.194   0.359   5.898 -1.8919 -1.7852 -0.2890
19101TIP3    H278719   4.138   0.499   5.896  1.6238 -0.2442  0.6689
19102TIP3   OH278720   6.298   0.069  16.077  0.5574 -0.0790 -0.1164
19102TIP3    H178721   6.203   0.068  16.080  0.5748 -0.6887  0.3463
19102TIP3    H278722   6.322  -0.017  16.043  0.9531 -0.0957  0.1965
19103TIP3   OH278723   1.410   0.769  12.094 -0.0926  0.3896  0.5700
19103TIP3    H178724   1.418   0.685  12.049 -1.9335  0.8241 -0.6614
19103TIP3    H278725   1.472   0.827  12.049 -1.9655  0.8396 -1.5589
19104TIP3   OH278726   4.151   5.789  12.727 -0.1299 -0.2766 -0.3106
19104TIP3    H178727   4.122   5.871  12.687 -2.9913 -0.7230  0.5933
19104TIP3    H278728   4.070   5.745  12.753  1.3635 -2.7399  0.5603
19105TIP3   OH278729   2.014   2.709   0.696  0.1222 -0.0264 -0.1247
19105TIP3    H178730   1.945   2.705   0.763  0.1885  0.7934  0.0024
19105TIP3    H278731   2.033   2.617   0.676 -3.4630 -0.4208 -2.7143
19106TIP3   OH278732   2.859   3.726  14.619 -0.3896  0.5379  0.1952
19106TIP3    H178733   2.814   3.682  14.547  0.0845  1.1693 -0.5007
19106TIP3    H278734   2.800   3.796  14.645  0.4589  1.8326 -1.2081
19107TIP3   OH278735   5.982   4.817  16.755 -0.0742  0.8273  0.0522
19107TIP3    H178736   6.005   4.787  16.667 -0.3377  1.3220 -0.1884
19107TIP3    H278737   5.969   4.911  16.745  1.2390  1.1208  0.8944
19108TIP3   OH278738   1.296   0.650   2.054  0.1069 -0.2613 -0.1728
19108TIP3    H178739   1.226   0.595   2.090 -1.2550  1.9511  0.7448
19108TIP3    H278740   1.250   0.723   2.012  1.8489  0.4800 -0.8767
19109TIP3   OH278741   0.783   1.463   0.086  0.5026  0.2955 -0.2698
19109TIP3    H178742   0.696   1.426   0.098  0.1310  0.8010 -1.2852
19109TIP3    H278743   0.767   1.555   0.063  1.3220  0.5082 -0.0461
19110TIP3   OH278744   0.118   3.431  11.727 -0.1005 -0.0780  0.0212
19110TIP3    H178745   0.188   3.369  11.706 -2.3663 -2.9450  0.2534
19110TIP3    H278746   0.064   3.385  11.792 -2.4826  1.7583 -0.5010
19111TIP3   OH278747   0.201   5.084   4.893  0.5201 -0.1195 -0.2826
19111TIP3    H178748   0.106   5.071   4.894  0.0658  2.5871 -0.7587
19111TIP3    H278749   0.230   5.040   4.813 -0.8325  1.4720 -1.7352
19112TIP3   OH278750   6.265   1.465  16.111 -0.4077 -1.0006  0.2837
19112TIP3    H178751   6.327   1.428  16.173  1.1706  0.5474 -0.2809
19112TIP3    H278752   6.202   1.512  16.166  1.1469  0.6213  0.7726
19113TIP3   OH278753   5.400   0.022  17.263  0.7674  0.3336 -0.4682
19113TIP3    H178754   5.446   0.028  17.346 -1.5885 -2.5664  1.2164
19113TIP3    H278755   5.416   0.107  17.221  0.5835  2.7022  3.7216
19114TIP3   OH278756   1.181   1.101   2.838  0.1270  0.4783  0.0998
19114TIP3    H178757   1.269   1.080   2.870  0.2251 -0.8026 -0.9332
19114TIP3    H278758   1.186   1.087   2.743 -1.5124 -0.8469  0.1718
19115TIP3   OH278759   2.270   3.834   1.237 -0.1091  0.4122  0.3410
19115TIP3    H178760   2.361   3.849   1.263  0.8935 -0.2765 -2.4197
19115TIP3    H278761   2.227   3.918   1.254  1.7085  1.6298 -0.6643
19116TIP3   OH278762   4.762   5.605   5.258  0.2364  0.0275  0.2288
19116TIP3    H178763   4.684   5.658   5.277  0.1619 -0.0060  0.0285
19116TIP3    H278764   4.743   5.520   5.297  0.9546  0.5493  1.7880
19117TIP3   OH278765   3.997   0.399  15.012 -0.5065 -0.0808  0.3939
19117TIP3    H178766   3.996   0.392  14.917 -1.7647  0.7945  0.3169
19117TIP3    H278767   4.036   0.317  15.042  1.0488  0.1382 -0.8962
19118TIP3   OH278768   4.669   1.276   0.176 -0.1255  0.0011  0.3669
19118TIP3    H178769   4.729   1.273   0.102 -1.1091 -0.8173 -0.4154
19118TIP3    H278770   4.676   1.366   0.208  2.3605 -0.3476  1.0367
19119TIP3   OH278771   5.907   5.897  10.817 -0.7601  0.0346 -0.2806
19119TIP3    H178772   5.867   5.942  10.891  2.2174  1.0139  0.8844
19119TIP3    H278773   5.864   5.934  10.740 -0.2955  2.9561  0.7587
19120TIP3   OH278774   3.609   5.729  14.128  0.4317  0.1264 -0.1602
19120TIP3    H178775   3.699   5.696  14.124  0.8745  1.0151  1.5646
19120TIP3    H278776   3.567   5.677  14.197 -0.0579  0.4256 -0.2294
19121TIP3   OH278777   2.012   1.703   0.189 -0.1437  0.4691 -0.0864
19121TIP3    H178778   1.998   1.761   0.263 -1.0718 -1.3657  1.2525
19121TIP3    H278779   1.925   1.690   0.151  0.0774  0.1261 -0.4909
19122TIP3   OH278780   3.962   4.731   4.577 -0.1716  0.1155 -0.1771
19122TIP3    H178781   3.936   4.823   4.574  1.4620  0.7282  1.9771
19122TIP3    H278782   4.031   4.723   4.512 -0.5211  0.3258 -0.5782
19123TIP3   OH278783   3.760   3.916  12.264 -0.0916 -0.2399  0.3221
19123TIP3    H178784   3.744   3.953  12.177  1.2998  1.3159  0.6618
19123TIP3    H278785   3.683   3.940  12.314  0.1678  1.0564  0.1447
19124TIP3   OH278786   5.065   4.328  14.403  0.1865 -0.0702  0.4901
19124TIP3    H178787   5.080   4.282  14.486 -0.5761  0.4363  0.9259
19124TIP3    H278788   5.064   4.259  14.337  1.8070 -0.3717  0.7557
19125TIP3   OH278789   0.845   2.733   0.068 -0.2187 -0.0185 -0.5177
19125TIP3    H178790   0.799   2.734   0.151 -0.0584 -0.9957 -0.4065
19125TIP3    H278791   0.868   2.641   0.054 -0.1255  0.1509 -1.5727
19126TIP3   OH278792   1.031   4.339   3.331 -0.0583 -0.4531 -0.9691
19126TIP3    H178793   0.975   4.338   3.253 -0.1725 -2.1233 -0.8980
19126TIP3    H278794   0.988   4.401   3.390 -1.8911 -1.7049 -0.9037
19127TIP3   OH278795   1.393   1.817  17.339 -0.3009  0.1052  0.3576
19127TIP3    H178796   1.473   1.869  17.332 -1.3848  1.6357 -2.2580
19127TIP3    H278797   1.412   1.737  17.289 -0.4754  0.5874 -0.4889
19128TIP3   OH278798   0.790   5.029   5.716  0.3295  0.2901 -0.5219
19128TIP3    H178799   0.780   4.952   5.773  2.2740  1.1459  1.0877
19128TIP3    H278800   0.709   5.078   5.728  0.8640  0.6738  1.9440
19129TIP3   OH278801   6.555   0.877  13.976  0.4206  0.4797  0.2988
19129TIP3    H178802   6.488   0.857  14.041  0.7499 -0.0315  0.4853
19129TIP3    H278803   6.520   0.953  13.929 -0.9278 -0.5769 -0.4927
19130TIP3   OH278804   4.945   0.175  14.378  0.7635  0.3239 -0.0557
19130TIP3    H178805   4.993   0.248  14.339  0.3824  0.1574 -0.8520
19130TIP3    H278806   5.008   0.103  14.380  0.2556 -0.2354 -2.1568
19131TIP3   OH278807   5.410   2.869  11.861 -0.4326  0.2090 -0.3319
19131TIP3    H178808   5.327   2.915  11.876 -0.3960  0.3587 -0.5728
19131TIP3    H278809   5.388   2.776  11.871 -0.8307  0.1893 -1.2392
19132TIP3   OH278810   4.759   1.405  14.143 -0.0728  0.1216  0.1059
19132TIP3    H178811   4.769   1.319  14.103  0.1913  0.2954 -0.2068
19132TIP3    H278812   4.674   1.436  14.113 -0.3474 -0.1964  0.5434
19133TIP3   OH278813   4.975   1.306   0.032  0.1927 -0.0736  0.1632
19133TIP3    H178814   4.980   1.384   0.087  2.5185  0.6433 -0.9155
19133TIP3    H278815   4.953   1.340  -0.055  2.4139 -0.3754 -0.5892
19134TIP3   OH278816   3.801   0.514   3.890 -0.5847  0.2835 -0.5634
19134TIP3    H178817   3.741   0.443   3.868  1.2198 -0.8110 -2.4736
19134TIP3    H278818   3.814   0.560   3.807  1.4992  0.1637 -0.3629
19135TIP3   OH278819   2.888   1.044   3.745 -0.0610  0.2189 -0.0863
19135TIP3    H178820   2.906   0.970   3.687  0.9359  0.1613  0.2788
19135TIP3    H278821   2.930   1.119   3.702 -0.4626  0.4362 -0.1022
19136TIP3   OH278822   5.111   3.613   4.679  0.0336  0.3373  0.8372
19136TIP3    H178823   5.017   3.629   4.684 -0.0487  0.2798 -0.2340
19136TIP3    H278824   5.136   3.586   4.768 -0.7867  1.2181  1.3572
19137TIP3   OH278825   6.466   0.585   2.592 -0.0977  0.4291  0.3559
19137TIP3    H178826   6.447   0.572   2.499  0.0525  3.1532 -0.1350
19137TIP3    H278827   6.561   0.595   2.596 -0.1587  0.8821  0.7293
19138TIP3   OH278828   1.335   5.665  15.816  0.3123  0.1821  0.1799
19138TIP3    H178829   1.424   5.658  15.851  0.7624  0.5604 -0.8456
19138TIP3    H278830   1.283   5.697  15.890  0.9300 -0.4702  0.9193
19139TIP3   OH278831   1.893   5.368   1.722 -0.2850  0.3706  0.5792
19139TIP3    H178832   1.924   5.360   1.632 -0.4302 -3.5658  0.6920
19139TIP3    H278833   1.803   5.337   1.719  0.2702 -1.6879  2.2395
19140TIP3   OH278834   1.173   2.563  13.728 -0.5629  0.1699 -0.1857
19140TIP3    H178835   1.078   2.554  13.724 -0.5068 -1.1502  0.7158
19140TIP3    H278836   1.194   2.631  13.664 -2.2721  1.8580  0.9317
19141TIP3   OH278837   1.451   6.737   5.480 -0.0793  0.4445 -0.8950
19141TIP3    H178838   1.456   6.643   5.498  1.2844  0.9058  1.6809
19141TIP3    H278839   1.358   6.758   5.489 -0.3409 -0.5765 -1.1059
19142TIP3   OH278840   2.851   6.278  12.131  0.6097 -0.0295  0.6057
19142TIP3    H178841   2.933   6.316  12.100  0.8432  0.5457  1.8468
19142TIP3    H278842   2.823   6.219  12.061  1.2686  0.9411 -0.5043
19143TIP3   OH278843   0.189   4.426   2.920  0.0075 -0.2810 -0.3596
19143TIP3    H178844   0.164   4.344   2.877  0.4027 -0.2791 -0.5996
19143TIP3    H278845   0.222   4.481   2.848 -1.1676  0.4555 -0.3609
19144TIP3   OH278846   5.593   4.790   6.633  0.6964 -0.1135  0.1366
19144TIP3    H178847   5.660   4.792   6.565  1.8441 -0.7294  1.2101
19144TIP3    H278848   5.586   4.880   6.663  1.8085 -0.2056  0.7190
19145TIP3   OH278849   1.756   2.307  15.720  0.1657  0.4917  0.0795
19145TIP3    H178850   1.731   2.395  15.749  1.6756  1.5602 -1.6848
19145TIP3    H278851   1.843   2.293  15.757  1.2083  1.0155 -2.0300
19146TIP3   OH278852   2.657   3.886  17.197  0.5286 -0.2338  0.0807
19146TIP3    H178853   2.595   3.947  17.155  0.0116  1.0560  2.5177
19146TIP3    H278854   2.739   3.936  17.202  0.9841 -0.9012 -0.6464
19147TIP3   OH278855   1.816   4.128   0.653 -0.2498 -0.2106 -0.3660
19147TIP3    H178856   1.767   4.145   0.733 -0.9835 -1.7799 -0.4489
19147TIP3    H278857   1.749   4.110   0.587  0.3250  1.4141 -1.4613
19148TIP3   OH278858   0.968   2.683  16.286 -0.3440  0.2768  0.1219
19148TIP3    H178859   0.981   2.611  16.224 -0.8956  1.5078 -1.4909
19148TIP3    H278860   1.023   2.660  16.361  0.7507 -1.0339 -1.0223
19149TIP3   OH278861   0.479   2.363   2.196 -0.0407 -0.1004 -0.0552
19149TIP3    H178862   0.418   2.408   2.138 -0.5897  0.6575  1.0581
19149TIP3    H278863   0.544   2.323   2.138 -0.5499  0.6440 -1.1625
19150TIP3   OH278864   0.127   0.192  15.132  0.0251 -0.1348 -0.5937
19150TIP3    H178865   0.168   0.110  15.160  0.5237 -0.3527 -1.9207
19150TIP3    H278866   0.033   0.171  15.126  0.0021 -0.2820  0.1514
19151TIP3   OH278867   6.338   1.838  14.000 -0.1326  0.4313  0.2279
19151TIP3    H178868   6.389   1.807  14.075  0.8703  2.7166  0.5822
19151TIP3    H278869   6.247   1.826  14.026  0.1206  2.8971  2.7449
19152TIP3   OH278870   1.547   0.252  16.523  0.2555  0.0651 -0.4172
19152TIP3    H178871   1.497   0.318  16.572 -0.1231 -1.0533  0.7655
19152TIP3    H278872   1.636   0.259  16.559 -0.2516 -1.4664  1.2621
19153TIP3   OH278873   6.477   2.908   0.636  0.2384 -0.4008  0.1002
19153TIP3    H178874   6.395   2.905   0.686  0.3932  0.7428  0.4680
19153TIP3    H278875   6.543   2.875   0.697  0.4537  1.1499  0.7655
19154TIP3   OH278876   2.235   5.327  15.557 -0.3612  0.0575  0.0316
19154TIP3    H178877   2.294   5.253  15.544  0.4229  0.8424 -1.1441
19154TIP3    H278878   2.192   5.338  15.472  1.7186  2.7148 -0.8289
19155TIP3   OH278879   0.095   2.273  12.431 -0.4334 -0.0104 -0.2228
19155TIP3    H178880   0.052   2.358  12.436  0.0713  0.3573 -1.7627
19155TIP3    H278881   0.151   2.271  12.509  0.0867  1.3732 -0.5320
19156TIP3   OH278882   3.294   4.189   1.655 -0.1517  0.0866  0.3764
19156TIP3    H178883   3.341   4.111   1.623  0.1360  0.5349 -0.3177
19156TIP3    H278884   3.220   4.153   1.705  1.0739 -0.6482  1.7725
19157TIP3   OH278885   1.907   5.565   0.026  0.8284  0.1250  0.2380
19157TIP3    H178886   1.921   5.520   0.110  0.4560 -1.6811 -0.6328
19157TIP3    H278887   1.992   5.605   0.007  1.5665 -1.2920  0.4329
19158TIP3   OH278888   4.756   1.229  11.870 -0.2972  0.1783 -0.4564
19158TIP3    H178889   4.788   1.208  11.957 -1.0730  1.0789  0.0787
19158TIP3    H278890   4.834   1.232  11.815  0.1295 -1.0616  0.0503
19159TIP3   OH278891   3.095   5.915  15.198 -0.6004 -0.0605  0.3382
19159TIP3    H178892   3.125   5.920  15.289 -1.4523 -0.2418  0.6441
19159TIP3    H278893   3.008   5.874  15.204 -1.4381  1.5486 -0.3825
19160TIP3   OH278894   4.665   5.423  12.774  0.1559 -0.5834 -0.2078
19160TIP3    H178895   4.651   5.389  12.863  0.0521 -0.3222 -0.1220
19160TIP3    H278896   4.589   5.391  12.724  0.3634 -0.9755 -0.2769
19161TIP3   OH278897   3.717   2.959   0.091 -0.2413 -0.5279 -0.8597
19161TIP3    H178898   3.653   2.891   0.111  0.2710 -0.9738 -0.6988
19161TIP3    H278899   3.730   3.005   0.174 -0.3453 -0.4360 -0.8928
19162TIP3   OH278900   2.711   4.415   3.093 -0.1981  0.3063 -0.0471
19162TIP3    H178901   2.774   4.397   3.024 -1.4767 -2.4393 -0.6341
19162TIP3    H278902   2.629   4.432   3.047 -0.8044 -0.3569  0.7563
19163TIP3   OH278903   0.955   5.181   1.613 -0.1208  0.2175 -0.5793
19163TIP3    H178904   0.997   5.267   1.616 -0.1950  0.2315  0.6757
19163TIP3    H278905   0.870   5.194   1.655  1.1918 -1.1153  2.8512
19164TIP3   OH278906   3.564   4.754   5.684 -0.1004  0.0453 -0.1194
19164TIP3    H178907   3.635   4.750   5.748 -0.9996  0.3224  0.9361
19164TIP3    H278908   3.567   4.843   5.650  1.9205 -0.7881 -2.3331
19165TIP3   OH278909   6.186   3.726  13.501 -0.4205  0.1885 -0.1141
19165TIP3    H178910   6.211   3.716  13.592 -1.1390  0.1171  0.0800
19165TIP3    H278911   6.240   3.799  13.469 -0.0568  0.1124  0.3202
19166TIP3   OH278912   2.714   5.802  11.852  0.1966  0.2530 -0.2634
19166TIP3    H178913   2.706   5.785  11.758  0.1502  1.2825 -0.4602
19166TIP3    H278914   2.789   5.750  11.880 -0.0967 -0.4620 -0.7597
19167TIP3   OH278915   6.391   5.754  11.732 -0.2449 -0.4427 -0.2527
19167TIP3    H178916   6.432   5.669  11.718 -1.3546 -0.9374 -0.6013
19167TIP3    H278917   6.429   5.786  11.814  2.6848  0.2715 -1.7620
19168TIP3   OH278918   2.050   4.219   3.629  0.0333  0.6322 -0.5259
19168TIP3    H178919   1.972   4.269   3.604  0.6185  1.8579 -0.0274
19168TIP3    H278920   2.049   4.220   3.725  1.8146  2.6594 -0.4504
19169TIP3   OH278921   5.899   5.479  15.226 -0.0675  0.2479 -0.2852
19169TIP3    H178922   5.909   5.394  15.268 -0.6501  0.7394  0.8803
19169TIP3    H278923   5.988   5.505  15.203 -0.0158 -1.4166 -2.2186
19170TIP3   OH278924   6.706   4.020   2.769 -0.1027  0.3898 -0.0343
19170TIP3    H178925   6.756   3.980   2.698 -0.4610  0.0323 -0.0868
19170TIP3    H278926   6.773   4.056   2.828  0.3664 -2.1916  1.1715
19171TIP3   OH278927   5.484   0.945   4.328  0.4538  0.4826 -0.6042
19171TIP3    H178928   5.569   0.987   4.343 -0.3532  1.6147  0.9274
19171TIP3    H278929   5.430   1.012   4.288 -0.0333  0.0672 -0.6576
19172TIP3   OH278930   1.383   6.249  16.486  0.5779  0.0404 -0.4357
19172TIP3    H178931   1.346   6.161  16.474  1.6362 -0.2668 -1.7016
19172TIP3    H278932   1.307   6.305  16.499 -0.1713 -0.9421 -0.4593
19173TIP3   OH278933   1.397   3.236  16.664 -0.4788  0.7121 -0.3686
19173TIP3    H178934   1.434   3.214  16.750  1.3627  1.0893 -1.0206
19173TIP3    H278935   1.360   3.324  16.676 -1.4382  0.2277  0.3666
19174TIP3   OH278936   5.538   2.942  13.111 -0.1556  0.3013  0.1040
19174TIP3    H178937   5.504   2.961  13.023 -0.9761  2.3500  0.7993
19174TIP3    H278938   5.467   2.898  13.156 -0.3714  0.7837  0.2464
19175TIP3   OH278939   4.098   1.118  12.972  0.3365 -0.8288 -0.3247
19175TIP3    H178940   4.128   1.042  13.021  0.2999 -0.9168 -0.4397
19175TIP3    H278941   4.176   1.172  12.960  0.2343 -0.5186  0.3462
19176TIP3   OH278942   1.431   2.416  13.661  0.0828  0.4605 -0.0454
19176TIP3    H178943   1.380   2.495  13.675  0.2185  0.4931  0.2918
19176TIP3    H278944   1.517   2.446  13.632 -0.1005  0.4039 -0.6474
19177TIP3   OH278945   4.991   0.324  15.975  0.0151  0.2953  0.4113
19177TIP3    H178946   5.054   0.304  16.045  0.5931  0.4875 -0.0451
19177TIP3    H278947   4.927   0.253  15.979  0.8643 -0.5066  0.1914
19178TIP3   OH278948   1.888   2.787  14.925  0.0502  0.0013 -0.7874
19178TIP3    H178949   1.871   2.880  14.914  1.7813  0.4101 -0.3925
19178TIP3    H278950   1.913   2.757  14.837  0.6424  0.1956 -0.6927
19179TIP3   OH278951   1.161   4.407  14.966 -0.7573 -0.3782 -0.0697
19179TIP3    H178952   1.255   4.396  14.982 -0.9679 -0.7339  0.9562
19179TIP3    H278953   1.155   4.487  14.913  0.2132 -1.0051 -1.1716
19180TIP3   OH278954   5.750   6.665  16.833 -0.2594 -0.1673  0.0772
19180TIP3    H178955   5.782   6.577  16.855 -0.1238 -0.5057 -1.3671
19180TIP3    H278956   5.828   6.720  16.832  0.3786 -0.9501 -3.2429
19181TIP3   OH278957   1.122   3.722   2.349 -0.3885 -0.0490  0.2085
19181TIP3    H178958   1.064   3.704   2.275  0.7622  0.1619 -0.7837
19181TIP3    H278959   1.162   3.807   2.329 -0.5277  0.3134  1.3924
19182TIP3   OH278960   5.644   2.327   4.624  0.1207 -0.8493 -0.1757
19182TIP3    H178961   5.578   2.390   4.596 -0.3275 -0.8111  0.9126
19182TIP3    H278962   5.728   2.369   4.605 -0.1705 -0.2618 -0.1779
19183TIP3   OH278963   5.854   1.078  14.401 -0.2528  0.1185  0.8247
19183TIP3    H178964   5.788   1.142  14.374  0.9878  0.8313 -0.7112
19183TIP3    H278965   5.806   1.015  14.455 -1.9509  1.1744  0.6270
19184TIP3   OH278966   4.945   4.271  13.988  0.3670 -0.5114 -0.0274
19184TIP3    H178967   4.906   4.230  13.911 -1.6440  1.9818 -0.4703
19184TIP3    H278968   5.007   4.335  13.953  0.5352 -0.3849  0.4890
19185TIP3   OH278969   4.991   5.880   4.096 -0.0140  0.2688 -0.1282
19185TIP3    H178970   4.997   5.785   4.096  0.3250  0.2886 -0.2896
19185TIP3    H278971   4.899   5.898   4.112 -0.0828 -0.0870 -0.1116
19186TIP3   OH278972   2.080   0.082  15.721 -0.2539  0.8022 -0.2241
19186TIP3    H178973   2.012   0.097  15.655 -0.2376 -1.5879 -0.8783
19186TIP3    H278974   2.158   0.061  15.671  0.2229  0.6798  0.5497
19187TIP3   OH278975   6.182   2.037  15.662  0.2061 -0.3050 -0.2397
19187TIP3    H178976   6.181   1.941  15.661  0.0205 -0.2995 -0.8870
19187TIP3    H278977   6.109   2.062  15.719  0.4814 -0.5447  0.2302
19188TIP3   OH278978   4.927   2.065   5.877  0.0485 -0.0010  0.4319
19188TIP3    H178979   4.941   2.160   5.881 -0.4049  0.1629 -1.3464
19188TIP3    H278980   4.859   2.049   5.943 -0.3344  0.9981  0.2955
19189TIP3   OH278981   3.743   2.067   2.221  0.0276  0.5092  0.0044
19189TIP3    H178982   3.764   1.975   2.237  2.9497  0.8503 -1.0742
19189TIP3    H278983   3.711   2.069   2.131 -3.0691  0.2661  0.9905
19190TIP3   OH278984   2.665   6.742   3.276  0.3261 -0.0831  0.2506
19190TIP3    H178985   2.665   6.715   3.184 -0.7899 -0.8791  0.4664
19190TIP3    H278986   2.581   6.711   3.310  0.4903  0.6861  1.4041
19191TIP3   OH278987   0.536   6.008   2.828  0.1962 -0.7723 -0.3846
19191TIP3    H178988   0.583   5.993   2.747  0.8589  0.5895 -0.2657
19191TIP3    H278989   0.569   6.091   2.861  1.1009 -2.0300  2.0948
19192TIP3   OH278990   3.214   2.667   5.284  0.0931 -0.0262  0.3121
19192TIP3    H178991   3.230   2.675   5.378  0.6841  2.6333  0.0533
19192TIP3    H278992   3.232   2.754   5.249 -2.3816 -0.3030 -1.9478
19193TIP3   OH278993   4.215   1.172  11.662  0.2499 -0.6964 -0.8506
19193TIP3    H178994   4.247   1.244  11.608 -0.1780 -0.3125 -0.5995
19193TIP3    H278995   4.286   1.108  11.661  1.0040  0.1046 -0.3641
19194TIP3   OH278996   2.498   0.369  11.931  0.2484  0.3943 -0.1141
19194TIP3    H178997   2.556   0.436  11.895  1.4855  0.0543  1.1361
19194TIP3    H278998   2.489   0.393  12.023  1.4532 -1.6033  0.5962
19195TIP3   OH278999   3.020   2.722  11.955  0.0663  0.1948  0.1570
19195TIP3    H179000   2.961   2.650  11.980  1.1319 -0.9383 -0.4749
19195TIP3    H279001   3.063   2.746  12.037 -1.8048  1.6001  0.7971
19196TIP3   OH279002   1.535   3.279  16.442 -0.0249  0.2293 -0.4269
19196TIP3    H179003   1.469   3.330  16.395 -2.0176 -2.5512 -0.8767
19196TIP3    H279004   1.494   3.258  16.526  1.0174 -0.0652  0.0274
19197TIP3   OH279005   6.730   0.855   2.522 -0.3438 -0.0830 -0.3898
19197TIP3    H179006   6.679   0.935   2.534  1.0201  0.6451  0.8735
19197TIP3    H279007   6.747   0.850   2.428  1.8107  2.6303 -0.2719
19198TIP3   OH279008   6.583   6.489   1.997 -0.5307  0.2575  0.0599
19198TIP3    H179009   6.578   6.540   1.916 -1.7883 -2.6217 -1.8542
19198TIP3    H279010   6.670   6.507   2.032 -0.2885  2.2734 -1.4302
19199TIP3   OH279011   1.425   4.814  15.373 -0.4321  0.4700 -0.4053
19199TIP3    H179012   1.509   4.807  15.418 -0.5693  1.1992 -0.0269
19199TIP3    H279013   1.389   4.899  15.400 -1.6064 -0.1233 -0.0371
19200TIP3   OH279014   4.130   6.179   1.123  0.2649 -0.1548  0.1709
19200TIP3    H179015   4.182   6.249   1.083  1.6417 -1.3755 -0.2244
19200TIP3    H279016   4.183   6.100   1.113 -0.8048 -1.0896  1.5301
19201TIP3   OH279017   3.840   6.756  11.995  0.1086 -0.4048  0.0857
19201TIP3    H179018   3.841   6.661  11.981  1.5510 -0.2241 -1.4437
19201TIP3    H279019   3.932   6.779  12.007 -0.1354  0.9060 -0.4315
19202TIP3   OH279020   1.762   3.910  12.838 -0.0330  0.6076  0.5146
19202TIP3    H179021   1.854   3.912  12.812 -0.4073  4.9967 -1.3732
19202TIP3    H279022   1.716   3.873  12.763  0.0149  0.0380  0.7602
19203TIP3   OH279023   4.062   0.841  12.704  0.3417  0.0178 -0.3179
19203TIP3    H179024   4.020   0.854  12.618  0.8223  0.2330 -0.5285
19203TIP3    H279025   4.125   0.913  12.709 -1.2725  1.4371  1.2250
19204TIP3   OH279026   4.913   5.651  13.258 -0.4352  0.3788 -0.0223
19204TIP3    H179027   4.887   5.650  13.351  0.3522  2.6822  0.2781
19204TIP3    H279028   4.888   5.738  13.227 -2.1860 -0.8793 -2.4861
19205TIP3   OH279029   4.679   5.669  14.867 -0.0802  0.3698 -0.4356
19205TIP3    H179030   4.741   5.701  14.933 -0.8167 -0.1408  0.5185
19205TIP3    H279031   4.620   5.611  14.915 -1.0015  0.4542 -1.4283
19206TIP3   OH279032   4.968   2.852  16.216  0.4136 -0.2666  0.2706
19206TIP3    H179033   5.004   2.829  16.130 -0.0575  0.4939 -0.1328
19206TIP3    H279034   4.877   2.823  16.212 -0.0228  1.1017 -0.0292
19207TIP3   OH279035   0.690   5.650  12.554 -0.7327  0.0733 -0.0317
19207TIP3    H179036   0.713   5.597  12.478  2.7060  0.4199  0.6117
19207TIP3    H279037   0.594   5.649  12.556 -0.9089 -3.9785 -1.5090
19208TIP3   OH279038   5.250   1.657   5.187  0.0992  0.0651 -0.3382
19208TIP3    H179039   5.296   1.736   5.216 -1.2680  0.2184  1.6028
19208TIP3    H279040   5.257   1.596   5.260 -2.0746 -0.1687 -0.2432
19209TIP3   OH279041   5.924   4.330  12.132  0.2128  0.0240 -0.1188
19209TIP3    H179042   5.995   4.266  12.145  0.1016 -0.3150 -1.1090
19209TIP3    H279043   5.849   4.291  12.176  0.8828  0.8852  1.8763
19210TIP3   OH279044   5.432   0.070  11.061 -0.2369  0.4261 -0.5538
19210TIP3    H179045   5.450  -0.010  11.110 -0.5948 -0.0574 -1.1831
19210TIP3    H279046   5.518   0.107  11.043 -0.0109 -0.2835 -1.0025
19211TIP3   OH279047   4.642   3.046   3.507 -0.2984  0.5056  0.1777
19211TIP3    H179048   4.575   3.103   3.547 -0.7958  0.4946 -0.6299
19211TIP3    H279049   4.695   3.105   3.454 -0.5758  0.2796 -0.3531
19212TIP3   OH279050   3.673   3.055  15.248 -0.4799  0.0677 -0.8125
19212TIP3    H179051   3.582   3.084  15.250 -0.7175 -0.5880 -1.6039
19212TIP3    H279052   3.667   2.959  15.246  0.2008  0.0322 -1.6837
19213TIP3   OH279053   0.559   0.900  16.943 -0.7729  0.2929 -0.6540
19213TIP3    H179054   0.481   0.881  16.997  0.2343 -1.9347  0.1308
19213TIP3    H279055   0.569   0.823  16.888  1.0059  0.4338 -0.5790
19214TIP3   OH279056   1.338   0.013   6.391 -0.2352  0.4355  0.4971
19214TIP3    H179057   1.337  -0.057   6.456 -0.3090  1.4083  1.5749
19214TIP3    H279058   1.430   0.034   6.379 -0.1509 -0.4464 -0.5137
19215TIP3   OH279059   3.755   1.556   3.493 -0.0695 -0.4259  0.6666
19215TIP3    H179060   3.727   1.466   3.473  1.4148 -1.0515  1.2812
19215TIP3    H279061   3.819   1.546   3.563  1.4319  0.9738 -0.4461
19216TIP3   OH279062   2.501   6.082   5.084  0.1165  0.0750 -0.4595
19216TIP3    H179063   2.453   6.073   5.166  1.7032 -2.0715  0.3484
19216TIP3    H279064   2.586   6.119   5.110  0.8790 -1.2486 -0.9793
19217TIP3   OH279065   3.965   2.221   6.098 -0.6732 -0.2546  0.4891
19217TIP3    H179066   3.997   2.289   6.157 -1.2158 -0.7484  1.3739
19217TIP3    H279067   3.981   2.139   6.143 -0.3112 -0.7120 -0.4362
19218TIP3   OH279068   4.392   0.486  14.587  0.2121  0.4898 -0.1557
19218TIP3    H179069   4.374   0.474  14.680 -2.3089 -0.8148 -0.6958
19218TIP3    H279070   4.338   0.562  14.562 -0.7461 -0.3870 -0.8763
19219TIP3   OH279071   0.633   1.397   4.028 -0.0092  0.1343  0.9908
19219TIP3    H179072   0.707   1.437   4.074 -0.2713 -0.5551  2.0563
19219TIP3    H279073   0.558   1.452   4.049  0.0519  0.3784  0.5721
19220TIP3   OH279074   5.648   3.583   1.372 -0.2188  0.4430 -0.0081
19220TIP3    H179075   5.576   3.521   1.384  1.0310 -2.0610 -3.5663
19220TIP3    H279076   5.618   3.642   1.303  0.3015  0.9074  0.1525
19221TIP3   OH279077   3.841   6.298  10.571  0.3518  0.3718 -0.2019
19221TIP3    H179078   3.885   6.362  10.627  0.0923  0.6929 -0.3616
19221TIP3    H279079   3.883   6.214  10.593 -1.0697  0.1368  1.9330
19222TIP3   OH279080   4.535   4.518  11.720  0.0328  0.5871 -0.8415
19222TIP3    H179081   4.534   4.614  11.718  2.3388  0.7062  0.0205
19222TIP3    H279082   4.451   4.493  11.758 -0.5663  2.2785 -0.9996
19223TIP3   OH279083   0.309   2.963   4.512 -0.2242  0.4171 -0.1231
19223TIP3    H179084   0.354   2.888   4.472  0.0357  1.3596 -1.7012
19223TIP3    H279085   0.273   2.929   4.594  0.3484 -1.2844 -0.5385
19224TIP3   OH279086   3.724   3.664  17.327 -0.1853  0.2227  0.6369
19224TIP3    H179087   3.809   3.672  17.283 -0.1249  1.3770  0.9377
19224TIP3    H279088   3.718   3.571  17.350  1.0013  0.1287  0.6397
19225TIP3   OH279089   3.128   0.873   1.487 -0.1109 -0.4662 -0.0349
19225TIP3    H179090   3.195   0.816   1.526  1.5113  1.1590 -0.3606
19225TIP3    H279091   3.102   0.827   1.407  1.9305 -0.3160 -0.8512
19226TIP3   OH279092   5.870   6.373   3.502 -0.0822  0.0863 -0.3879
19226TIP3    H179093   5.818   6.320   3.563  0.7090  0.2983  0.5032
19226TIP3    H279094   5.918   6.310   3.449  0.3760 -0.1010  0.2425
19227TIP3   OH279095   0.031   1.341   5.012  0.0635  0.0604  0.0303
19227TIP3    H179096   0.019   1.250   4.984  0.5412 -0.3403  1.0609
19227TIP3    H279097   0.126   1.349   5.024 -0.1572 -0.0499  2.2636
19228TIP3   OH279098   2.119   0.553   3.196  0.1475 -0.4100  0.5290
19228TIP3    H179099   2.039   0.597   3.225  0.1909 -0.1753  0.2985
19228TIP3    H279100   2.108   0.462   3.222  0.2162 -0.1885  1.3417
19229TIP3   OH279101   1.556   4.353  12.843 -0.2660  0.2787 -0.2134
19229TIP3    H179102   1.461   4.352  12.837 -0.3675  0.4300  1.1017
19229TIP3    H279103   1.576   4.430  12.897  0.6972  1.1160 -1.6767
19230TIP3   OH279104   4.920   1.130   2.680  0.5826  0.3202  1.2687
19230TIP3    H179105   4.851   1.090   2.627 -0.0206  1.0922  1.4545
19230TIP3    H279106   4.950   1.059   2.737 -0.3961  0.0904  1.5211
19231TIP3   OH279107   3.150   3.613   1.406  0.3003 -0.1005  0.3047
19231TIP3    H179108   3.075   3.601   1.349  0.5164  0.1994 -0.0496
19231TIP3    H279109   3.113   3.638   1.491 -0.0621 -1.3888  0.5453
19232TIP3   OH279110   5.094   3.993   6.682 -0.6071  0.3985  0.1311
19232TIP3    H179111   5.160   4.024   6.744  0.0848  0.8577 -0.8110
19232TIP3    H279112   5.011   3.999   6.730  0.0580 -0.4939  1.4451
19233TIP3   OH279113   5.116   2.098  15.860 -0.1083  0.3516  0.0036
19233TIP3    H179114   5.146   2.048  15.784  0.7550  0.1536  0.4648
19233TIP3    H279115   5.179   2.169  15.868  1.1382 -0.8772  1.8402
19234TIP3   OH279116   0.082   3.337  16.865  0.4448 -0.2173  0.0236
19234TIP3    H179117   0.020   3.280  16.819  1.2568 -3.0759  2.1742
19234TIP3    H279118   0.168   3.307  16.837  0.9240  0.8600  0.2727
19235TIP3   OH279119   4.374   6.713   2.838  0.4372 -0.0607  0.1465
19235TIP3    H179120   4.416   6.793   2.807 -1.0201  0.7205  0.1068
19235TIP3    H279121   4.442   6.667   2.888  1.8299  0.3074 -1.3303
19236TIP3   OH279122   1.242   6.337   6.379 -0.1512  0.5772 -0.0998
19236TIP3    H179123   1.314   6.306   6.323  0.9882  0.5635  1.3167
19236TIP3    H279124   1.276   6.417   6.419 -0.2999 -0.2651  1.7908
19237TIP3   OH279125   4.815   3.655   0.438 -0.1376  0.0117  0.0626
19237TIP3    H179126   4.892   3.697   0.475 -0.4144  1.2431 -0.6932
19237TIP3    H279127   4.844   3.619   0.355 -0.9805  3.1738 -1.7527
19238TIP3   OH279128   4.804   2.679   1.509 -0.7054 -0.0065 -0.0424
19238TIP3    H179129   4.754   2.647   1.585 -0.1440  1.4130  0.9655
19238TIP3    H279130   4.739   2.726   1.457 -1.1733 -1.2921 -0.6750
19239TIP3   OH279131   6.280   5.243  13.172  0.5486  0.4253  0.2495
19239TIP3    H179132   6.337   5.320  13.171 -1.2234  1.7953 -0.1769
19239TIP3    H279133   6.259   5.227  13.080 -1.6753  1.4860  0.5146
19240TIP3   OH279134   6.580   1.299  15.711  0.0763  0.7652  0.3773
19240TIP3    H179135   6.607   1.208  15.721  0.6804  0.9495  0.4348
19240TIP3    H279136   6.581   1.314  15.616 -0.2242  0.6582  0.3540
19241TIP3   OH279137   1.618   3.848   4.038  0.1503  0.2444 -0.2934
19241TIP3    H179138   1.526   3.867   4.020  0.4114 -0.1344 -2.2749
19241TIP3    H279139   1.632   3.760   4.006  1.0996  0.0877  0.4889
19242TIP3   OH279140   2.885   4.489  13.588 -0.0607  0.1483 -0.2146
19242TIP3    H179141   2.917   4.521  13.672  0.4781  0.5059 -0.5477
19242TIP3    H279142   2.885   4.393  13.597 -0.0869  0.1854  0.2147
19243TIP3   OH279143   3.014   0.707  16.520  0.5065 -0.3422 -0.0100
19243TIP3    H179144   2.957   0.666  16.455 -0.4339 -0.1959  0.7090
19243TIP3    H279145   2.956   0.758  16.576  1.1821 -1.0225  1.3948
19244TIP3   OH279146   1.288   3.161  15.028  0.3390 -0.8979  0.1508
19244TIP3    H179147   1.236   3.169  15.108  0.4022  1.4475  0.0370
19244TIP3    H279148   1.310   3.252  15.005  0.6243 -1.5225 -2.3251
19245TIP3   OH279149   0.841   1.527  11.463  0.0017 -0.0841  0.0662
19245TIP3    H179150   0.897   1.564  11.395  0.5096 -1.3612 -0.2323
19245TIP3    H279151   0.826   1.437  11.436 -1.0945 -0.1650  0.8465
19246TIP3   OH279152   0.457   4.725  13.432  0.3550 -0.1749  0.6037
19246TIP3    H179153   0.497   4.767  13.508 -1.8392 -1.0737  2.3655
19246TIP3    H279154   0.388   4.786  13.403 -0.8365 -1.1519  1.2906
19247TIP3   OH279155   0.484   3.481  11.571 -0.2884 -0.1564 -0.2235
19247TIP3    H179156   0.543   3.514  11.503 -0.0092 -0.7169 -0.2563
19247TIP3    H279157   0.430   3.557  11.594 -0.0212  0.1817 -0.6825
19248TIP3   OH279158   5.080   4.290   5.424 -0.2465  0.7177 -0.0836
19248TIP3    H179159   4.994   4.280   5.464  0.3663  0.0029  1.1181
19248TIP3    H279160   5.110   4.377   5.451  0.5664 -0.1202  1.9256
19249TIP3   OH279161   1.817   1.751   1.801 -0.8669  0.3557  0.8788
19249TIP3    H179162   1.840   1.821   1.862  1.1094  0.9325 -0.4216
19249TIP3    H279163   1.784   1.796   1.724 -1.8879 -0.3024  0.9044
19250TIP3   OH279164   2.694   2.338  11.664  0.3792  0.8497 -0.5336
19250TIP3    H179165   2.749   2.323  11.741  1.7867  1.3102 -1.4159
19250TIP3    H279166   2.630   2.266  11.667 -0.1497  1.3192  1.4880
19251TIP3   OH279167   1.538   5.969   4.915 -0.3154 -0.1830  0.1868
19251TIP3    H179168   1.489   6.049   4.894  0.9554  0.2611 -1.3364
19251TIP3    H279169   1.470   5.903   4.929 -1.4263  0.3061 -2.2466
19252TIP3   OH279170   1.229   3.039  12.048 -0.0928  0.1108 -0.1262
19252TIP3    H179171   1.259   2.997  11.967 -0.4539 -0.9858  0.2799
19252TIP3    H279172   1.285   3.001  12.116  2.2765  3.2216 -0.1418
19253TIP3   OH279173   5.610   6.030  13.978 -0.0142  0.0539 -0.1475
19253TIP3    H179174   5.540   6.084  14.016  0.5656 -0.1036  1.1840
19253TIP3    H279175   5.612   5.951  14.032  0.7899 -0.2085 -0.5427
19254TIP3   OH279176   0.137   5.371   6.383  0.3292  0.5170  0.5525
19254TIP3    H179177   0.052   5.411   6.401  0.6109  0.7607  1.3997
19254TIP3    H279178   0.197   5.445   6.376  0.7250  0.2931  1.4104
19255TIP3   OH279179   5.713   6.763   4.893  0.3919  0.3128 -0.3347
19255TIP3    H179180   5.806   6.764   4.916  0.2728  1.4773  0.1334
19255TIP3    H279181   5.684   6.675   4.917  1.3046  0.0355 -0.2043
19256TIP3   OH279182   6.190   4.605   4.986 -0.5135 -0.2785 -0.0506
19256TIP3    H179183   6.158   4.695   4.985  0.7065  0.1798  0.2136
19256TIP3    H279184   6.283   4.613   5.008 -0.1834 -1.5452 -0.8856
19257TIP3   OH279185   3.033   1.368   4.436  0.6355  0.0085  0.1991
19257TIP3    H179186   3.113   1.420   4.444  0.6094  0.1275 -0.2505
19257TIP3    H279187   3.035   1.335   4.346  0.0633  0.2160  0.1024
19258TIP3   OH279188   5.383   1.123   5.928  0.2603  0.0476 -0.6145
19258TIP3    H179189   5.303   1.167   5.901  0.5170  0.3740 -0.8457
19258TIP3    H279190   5.450   1.190   5.925  0.1304  0.4025  1.8380
19259TIP3   OH279191   4.393   1.364   1.762  0.1811 -0.3936  0.9147
19259TIP3    H179192   4.471   1.404   1.725 -0.7440  3.4176  2.4743
19259TIP3    H279193   4.418   1.340   1.851 -0.4412  1.3318  1.6023
19260TIP3   OH279194   6.575   2.036  17.363  0.0113 -0.5829 -0.4385
19260TIP3    H179195   6.655   2.001  17.325  0.7319  0.0619  0.4370
19260TIP3    H279196   6.572   2.127  17.332  0.8293  0.0796  1.3375
19261TIP3   OH279197   4.298   0.321   0.647  0.5351  0.0568 -0.4270
19261TIP3    H179198   4.331   0.382   0.581  2.5121  0.0850  0.4958
19261TIP3    H279199   4.346   0.240   0.630 -0.4368 -0.5626 -0.2720
19262TIP3   OH279200   0.028   6.354   0.955 -0.5452  0.1892  0.1667
19262TIP3    H179201   0.030   6.311   1.041 -0.8278 -0.8326 -0.3287
19262TIP3    H279202  -0.024   6.296   0.900  0.3026  0.4216 -0.9195
19263TIP3   OH279203   6.462   4.456   3.814 -0.6365  0.1259  0.5168
19263TIP3    H179204   6.546   4.410   3.813 -0.0940  0.9743 -2.0952
19263TIP3    H279205   6.401   4.394   3.852  0.9591 -0.9204  1.5000
19264TIP3   OH279206   1.963   0.124  12.727  0.7257 -0.1834 -0.2961
19264TIP3    H179207   2.058   0.139  12.726  0.9845 -1.3080  1.5942
19264TIP3    H279208   1.953   0.029  12.726 -0.3114 -0.1104  0.7395
19265TIP3   OH279209   6.168   3.644  13.985  0.1593 -0.5470 -0.1095
19265TIP3    H179210   6.187   3.658  14.078  1.2690 -0.5532 -0.3228
19265TIP3    H279211   6.194   3.553  13.969 -1.1545 -0.9328 -0.1668
19266TIP3   OH279212   0.003   2.477  17.331  0.3304 -0.6907  0.3391
19266TIP3    H179213   0.000   2.560  17.284  0.0874 -0.2125  1.1750
19266TIP3    H279214   0.092   2.445  17.319  0.3833 -0.3777 -0.1075
19267TIP3   OH279215   2.614   3.546  14.603  0.0152  0.2572  0.2279
19267TIP3    H179216   2.570   3.597  14.671 -0.0177 -0.7440  0.9856
19267TIP3    H279217   2.558   3.469  14.591  1.1251 -0.6371  0.6269
19268TIP3   OH279218   5.619   1.112  15.700 -0.8839 -0.2461  0.3008
19268TIP3    H179219   5.669   1.030  15.696 -1.0302 -0.3080 -0.4357
19268TIP3    H279220   5.685   1.180  15.717 -0.4711 -0.2847 -0.9672
19269TIP3   OH279221   0.473   1.971  11.214 -0.2341  0.1122  0.4971
19269TIP3    H179222   0.406   2.040  11.203 -1.6029 -0.6359  3.2815
19269TIP3    H279223   0.537   2.009  11.274  1.6494  0.5723 -1.6381
19270TIP3   OH279224   0.654   3.615  12.090  0.2678 -0.1966 -0.4115
19270TIP3    H179225   0.577   3.589  12.039 -1.1248 -0.3202  1.5837
19270TIP3    H279226   0.667   3.542  12.151  1.4842  0.1833 -0.2066
19271TIP3   OH279227   3.387   5.897   3.517  0.2330  0.7468  0.2644
19271TIP3    H179228   3.383   5.838   3.441 -0.9047  2.6080 -1.2071
19271TIP3    H279229   3.431   5.846   3.584 -0.6025 -1.7450 -0.9536
19272TIP3   OH279230   0.925   2.144   2.963  0.2377 -0.0052  0.2959
19272TIP3    H179231   0.850   2.134   3.020  0.9233  1.1933  1.4696
19272TIP3    H279232   0.891   2.191   2.886  0.3130  3.5680  2.2533
19273TIP3   OH279233   1.620   6.316   4.318 -0.1349 -0.1170  0.4862
19273TIP3    H179234   1.624   6.298   4.224 -0.5603 -0.4775  0.5332
19273TIP3    H279235   1.710   6.301   4.349  0.0757  0.2866  0.0962
19274TIP3   OH279236   6.304   6.678  13.651 -0.2078  0.6648  0.3887
19274TIP3    H179237   6.383   6.723  13.623 -0.2951 -0.1125 -1.2042
19274TIP3    H279238   6.330   6.634  13.733  1.5580 -0.9562 -0.9521
19275TIP3   OH279239   5.731   0.383  15.897  0.0183  0.2261 -0.2964
19275TIP3    H179240   5.675   0.309  15.872 -0.5199  0.6307 -0.2976
19275TIP3    H279241   5.783   0.350  15.970  1.2134 -0.8000 -1.5484
19276TIP3   OH279242   4.925   5.375   2.560  0.1715  0.4218  0.3070
19276TIP3    H179243   4.934   5.431   2.483  0.5710  2.1565  1.5564
19276TIP3    H279244   4.967   5.292   2.535  0.3904  0.9816 -1.2762
19277TIP3   OH279245   4.725   1.218   4.852 -0.3583  0.4571 -0.3238
19277TIP3    H179246   4.656   1.283   4.865 -0.0920  1.1029 -1.9023
19277TIP3    H279247   4.796   1.266   4.811  1.3656 -0.0517  1.8799
19278TIP3   OH279248   3.964   0.636  11.621 -0.0909  0.1021 -0.3783
19278TIP3    H179249   3.977   0.723  11.584 -1.0877 -0.1197 -1.2768
19278TIP3    H279250   3.879   0.640  11.665 -0.6687 -0.7224 -1.3823
19279TIP3   OH279251   2.808   5.343   3.807  0.1870 -0.1677  0.5226
19279TIP3    H179252   2.797   5.357   3.901  2.9342  0.4334  0.8436
19279TIP3    H279253   2.764   5.417   3.766 -2.4611 -1.2601  1.1502
19280TIP3   OH279254   3.942   4.633   5.751 -0.5003 -0.0390  0.0755
19280TIP3    H179255   3.853   4.655   5.781 -1.1738 -2.1981 -0.1328
19280TIP3    H279256   3.935   4.629   5.656 -0.4532 -1.1576  0.1047
19281TIP3   OH279257   4.955   3.564  12.396  0.4315  0.3567  0.6947
19281TIP3    H179258   5.015   3.509  12.346  1.8243  1.0757  1.5239
19281TIP3    H279259   4.927   3.631  12.334 -2.8908 -2.2298 -0.9818
19282TIP3   OH279260   1.341   2.895   0.775  0.5332 -0.0239 -0.2177
19282TIP3    H179261   1.340   2.934   0.688  1.1832 -0.6774 -0.5214
19282TIP3    H279262   1.274   2.826   0.772 -2.1025  2.2658  0.9254
19283TIP3   OH279263   2.661   4.764   1.338 -0.3819 -0.1967 -0.5426
19283TIP3    H179264   2.649   4.724   1.425 -0.7129  0.1942 -0.4033
19283TIP3    H279265   2.727   4.832   1.352  3.3980 -3.2767 -1.5924
19284TIP3   OH279266   2.123   6.412   5.152 -0.8698  0.2561  0.4123
19284TIP3    H179267   2.072   6.460   5.087 -1.3713 -1.3451 -0.4343
19284TIP3    H279268   2.089   6.443   5.236 -2.9307 -0.4021 -0.1214
19285TIP3   OH279269   1.296   4.053   1.681  0.5274  0.2707  0.6319
19285TIP3    H179270   1.360   4.007   1.735  1.5962  1.2292  0.2259
19285TIP3    H279271   1.329   4.043   1.591 -0.1095  0.4553  0.3707
19286TIP3   OH279272   2.959   1.345  13.151  0.6214  0.3029  0.2218
19286TIP3    H179273   2.909   1.425  13.170 -1.1229 -0.4096 -1.0937
19286TIP3    H279274   2.956   1.295  13.232  0.3929  0.8884  0.5818
19287TIP3   OH279275   5.881   2.382   1.175 -0.2741  0.2849 -0.7586
19287TIP3    H179276   5.961   2.414   1.216 -0.8626  0.2856  0.4148
19287TIP3    H279277   5.853   2.309   1.230 -1.4800  0.7575 -0.7228
19288TIP3   OH279278   6.582   0.751  11.767  0.5962  0.1444 -0.6188
19288TIP3    H179279   6.608   0.759  11.676 -0.4388 -1.3845 -1.0788
19288TIP3    H279280   6.569   0.841  11.797 -1.0018  0.6217 -2.5650
19289TIP3   OH279281   3.850   6.278  12.513  0.0894 -0.3916 -0.0686
19289TIP3    H179282   3.777   6.281  12.451 -0.1859 -1.2932  0.1979
19289TIP3    H279283   3.924   6.313  12.464 -0.3699 -0.1018 -0.5670
19290TIP3   OH279284   0.245   0.298  16.928  0.4236  0.4010 -0.1019
19290TIP3    H179285   0.191   0.375  16.913 -1.4705 -1.2743 -2.8312
19290TIP3    H279286   0.186   0.235  16.968  1.1705 -0.4772 -0.3514
19291TIP3   OH279287   6.181   2.264  17.199 -0.2934 -0.1864  0.2647
19291TIP3    H179288   6.112   2.282  17.263 -0.5929 -0.8264  0.1354
19291TIP3    H279289   6.188   2.168  17.198  1.2187 -0.1120  0.9281
19292TIP3   OH279290   6.595   5.395  11.385 -0.3015  0.3642 -0.8250
19292TIP3    H179291   6.534   5.379  11.313 -0.1680 -1.5988 -0.5664
19292TIP3    H279292   6.665   5.449  11.346 -2.2022  2.8095 -1.0792
19293TIP3   OH279293   4.343   1.996  16.740  0.2128 -0.3889  0.1708
19293TIP3    H179294   4.339   2.060  16.669 -0.8347  0.7968  1.2346
19293TIP3    H279295   4.269   1.938  16.725 -0.6002  0.4488  0.7720
19294TIP3   OH279296   5.543   1.429   2.400 -0.1219 -0.1232 -0.0823
19294TIP3    H179297   5.632   1.435   2.364  0.3095  1.3460  1.1126
19294TIP3    H279298   5.555   1.438   2.495 -1.3276 -2.6306  0.3877
19295TIP3   OH279299   6.387   5.005   0.141 -0.1114 -0.5280 -0.2245
19295TIP3    H179300   6.302   4.974   0.112 -1.2455 -1.0182  3.1478
19295TIP3    H279301   6.412   5.072   0.077 -2.4664 -1.1813 -1.9339
19296TIP3   OH279302   0.666   5.060  14.150  0.1767  0.0851 -0.0744
19296TIP3    H179303   0.591   5.076  14.207 -0.5591  0.2189 -1.0484
19296TIP3    H279304   0.655   5.122  14.078  0.0033 -1.3430 -1.3435
19297TIP3   OH279305   2.831   5.334  14.748  0.2512 -0.1004  0.6315
19297TIP3    H179306   2.745   5.366  14.775  0.7859  1.5237  0.5305
19297TIP3    H279307   2.841   5.364  14.658 -0.0524 -2.4113 -0.2469
19298TIP3   OH279308   4.009   6.383   3.211 -0.3633 -0.4454  0.6136
19298TIP3    H179309   4.022   6.477   3.223 -0.8392 -0.1626 -0.7960
19298TIP3    H279310   4.097   6.346   3.209 -0.0978  0.2003 -0.2531
19299TIP3   OH279311   4.838   5.820  13.819  0.2404 -0.5205 -0.3860
19299TIP3    H179312   4.847   5.913  13.799  0.6937 -1.0060 -2.6865
19299TIP3    H279313   4.927   5.790  13.834 -0.0702 -0.1666  2.8486
19300TIP3   OH279314   0.916   3.721  14.202 -0.3155  0.1468 -0.4085
19300TIP3    H179315   0.946   3.720  14.111 -1.3984 -1.3878 -0.7887
19300TIP3    H279316   0.961   3.646  14.242 -0.4526  0.3454  0.1230
19301TIP3   OH279317   0.198   5.473  14.636  0.3438 -0.5498 -0.1346
19301TIP3    H179318   0.256   5.538  14.596 -0.9558 -0.3146 -1.7792
19301TIP3    H279319   0.125   5.466  14.574 -1.1402 -1.1854  1.6171
19302TIP3   OH279320   4.565   1.678   4.925  0.5123 -0.4391 -0.1940
19302TIP3    H179321   4.549   1.706   4.835  0.1471  1.6767  0.4800
19302TIP3    H279322   4.609   1.752   4.966  0.2071 -1.1503  1.5200
19303TIP3   OH279323   4.735   6.367   5.178  0.1392 -0.2461 -0.3806
19303TIP3    H179324   4.681   6.371   5.099  0.5647 -0.9630 -0.7174
19303TIP3    H279325   4.807   6.429   5.162  0.0676 -0.1757 -0.4284
19304TIP3   OH279326   4.273   1.051  12.714 -0.2053  0.5323  0.1122
19304TIP3    H179327   4.359   1.012  12.694  0.3233  1.2631  0.9081
19304TIP3    H279328   4.289   1.105  12.791 -1.3552  0.8163  0.1593
19305TIP3   OH279329   4.474   1.431  13.697  0.2002 -0.4890 -0.1273
19305TIP3    H179330   4.475   1.492  13.771 -0.5416 -1.1111  0.4147
19305TIP3    H279331   4.495   1.346  13.735 -2.2996 -1.2234 -0.2068
19306TIP3   OH279332   3.976   1.057   5.892 -0.5581 -0.2031  0.8893
19306TIP3    H179333   3.971   0.980   5.834 -1.1314 -0.4534  1.2670
19306TIP3    H279334   4.070   1.071   5.904 -0.4104  0.0777 -0.3982
19307TIP3   OH279335   3.933   3.280  13.684  0.2743 -1.0270  0.0868
19307TIP3    H179336   3.842   3.263  13.705 -0.0136  1.8343  1.8418
19307TIP3    H279337   3.932   3.312  13.594 -0.6962  0.0527  0.4481
19308TIP3   OH279338   4.513   3.682  14.483  0.4344  0.0681 -0.1134
19308TIP3    H179339   4.543   3.749  14.544 -1.5501 -0.5891  1.7242
19308TIP3    H279340   4.538   3.599  14.524 -0.3380 -0.3719 -0.5003
19309TIP3   OH279341   4.289   2.804  15.199  0.0951  0.3428  0.5282
19309TIP3    H179342   4.385   2.800  15.204  0.3446  2.8160 -0.7234
19309TIP3    H279343   4.263   2.851  15.278  0.0025  0.5567  0.3704
19310TIP3   OH279344   0.175   4.104  13.266  0.3309  0.3142 -0.1232
19310TIP3    H179345   0.147   4.041  13.332  0.9357  0.4209  0.2444
19310TIP3    H279346   0.268   4.119  13.285 -0.0940  2.3129  0.6461
19311TIP3   OH279347   0.319   5.152   0.420  0.5771  0.2404 -0.2326
19311TIP3    H179348   0.325   5.060   0.396  0.5138 -0.1312  1.0867
19311TIP3    H279349   0.225   5.167   0.432  0.4411  0.8714 -1.7932
19312TIP3   OH279350   5.984   6.422  15.217 -0.6856  0.7163  0.2990
19312TIP3    H179351   5.950   6.511  15.220  0.6224  1.2314  0.5539
19312TIP3    H279352   6.079   6.432  15.230 -0.3986 -0.6381 -0.5643
19313TIP3   OH279353   6.775   0.917  12.173 -0.5102  0.3801  0.2035
19313TIP3    H179354   6.722   0.845  12.138  0.4511  0.2299 -1.0036
19313TIP3    H279355   6.805   0.965  12.096 -0.6245  1.7315  0.9660
19314TIP3   OH279356   3.706   4.613  11.642 -0.2486 -0.5098  0.5271
19314TIP3    H179357   3.783   4.668  11.658 -0.2337 -1.0744  2.6356
19314TIP3    H279358   3.632   4.669  11.666 -0.3991 -0.4887  0.0137
19315TIP3   OH279359   5.120   3.296   4.371  0.5708 -0.1876  0.1163
19315TIP3    H179360   5.038   3.256   4.342  0.6748 -0.7520  0.5704
19315TIP3    H279361   5.125   3.379   4.324 -1.3448  0.9037  1.6706
19316TIP3   OH279362   0.110   2.593   3.557  0.0768  0.3566 -0.1183
19316TIP3    H179363   0.172   2.616   3.488  0.2463  0.2920  0.0104
19316TIP3    H279364   0.032   2.646   3.538  1.6094  3.8410  2.0970
19317TIP3   OH279365   3.134   0.195   3.919  0.5117  0.4760 -0.1636
19317TIP3    H179366   3.051   0.165   3.881  0.6762  2.0995 -1.9431
19317TIP3    H279367   3.195   0.123   3.903 -0.1763 -0.1414 -0.1200
19318TIP3   OH279368   3.421   0.744  12.846 -0.2974  0.0894 -0.4721
19318TIP3    H179369   3.332   0.763  12.874  0.0274  1.5952 -0.3837
19318TIP3    H279370   3.424   0.769  12.754  0.4678  1.7004 -0.0398
19319TIP3   OH279371   0.437   5.247  15.685  0.0359  0.0355  0.5895
19319TIP3    H179372   0.511   5.295  15.723  0.0760 -1.3254  2.3435
19319TIP3    H279373   0.463   5.155  15.691 -0.1384 -0.3075 -2.4642
19320TIP3   OH279374   6.709   2.906  13.300 -0.2147 -0.0650 -0.6960
19320TIP3    H179375   6.773   2.841  13.270  2.3412  1.7371  0.5151
19320TIP3    H279376   6.688   2.957  13.222  0.8489  0.1322 -0.8592
19321TIP3   OH279377   3.233   3.904   3.449  0.1434  0.1558  0.2914
19321TIP3    H179378   3.166   3.848   3.411 -0.2194  2.2719 -2.5421
19321TIP3    H279379   3.209   3.912   3.542 -2.0695 -1.1058 -0.1156
19322TIP3   OH279380   3.239   1.405  14.540 -0.7447  0.3853  0.0483
19322TIP3    H179381   3.268   1.337  14.479  1.0168 -0.1640  1.4231
19322TIP3    H279382   3.159   1.369  14.579 -0.7205 -0.1752 -0.3973
19323TIP3   OH279383   5.199   0.998   1.838 -0.3368  0.0767 -0.3488
19323TIP3    H179384   5.250   0.948   1.774 -1.0965 -1.6327  0.3063
19323TIP3    H279385   5.218   0.955   1.921 -0.0750  1.6940  0.4713
19324TIP3   OH279386   1.524   2.004   2.866 -0.8810  0.8229  0.0798
19324TIP3    H179387   1.462   1.952   2.917 -0.9416  1.1029  0.2973
19324TIP3    H279388   1.610   1.966   2.886 -0.7336  1.8536  1.5711
19325TIP3   OH279389   5.023   3.736  16.729  0.3185  0.3123 -0.2580
19325TIP3    H179390   5.078   3.797  16.681  1.4005 -0.6774 -0.3210
19325TIP3    H279391   5.076   3.657  16.737 -1.1987 -0.7929 -0.5973
19326TIP3   OH279392   0.585   6.113   5.361 -0.6151 -0.1482 -0.0908
19326TIP3    H179393   0.574   6.123   5.456 -0.8639 -0.7685 -0.0493
19326TIP3    H279394   0.535   6.186   5.324 -1.2720 -0.4245  0.2358
19327TIP3   OH279395   3.841   4.907  15.494 -0.3965  0.5999  0.0827
19327TIP3    H179396   3.759   4.934  15.537 -0.7396  0.1092 -0.2460
19327TIP3    H279397   3.827   4.926  15.402 -0.1379  0.5116  0.0244
19328TIP3   OH279398   6.388   0.765  16.106 -0.1927 -0.7224  1.0717
19328TIP3    H179399   6.482   0.756  16.090 -0.2804  0.1429 -0.0808
19328TIP3    H279400   6.350   0.687  16.065 -0.1024 -0.2596  0.0757
19329TIP3   OH279401   4.159   5.583   2.448  0.2384 -0.2527 -0.8215
19329TIP3    H179402   4.179   5.656   2.389 -0.9760 -0.2242 -1.2229
19329TIP3    H279403   4.089   5.536   2.404 -0.4720 -0.4183  0.4663
19330TIP3   OH279404   5.938   2.439   2.045  1.2211 -0.5792 -0.3847
19330TIP3    H179405   5.929   2.497   2.120  0.8921  1.1030 -1.6687
19330TIP3    H279406   5.996   2.369   2.076  1.1047  0.0588  1.4133
19331TIP3   OH279407   5.772   1.065   4.294  0.3681 -0.2012 -0.0853
19331TIP3    H179408   5.745   1.063   4.386 -0.9591 -0.2486 -0.4627
19331TIP3    H279409   5.851   1.120   4.294 -0.8220  1.6224  0.8015
19332TIP3   OH279410   2.865   5.501   0.197 -0.1055 -0.0266  0.4838
19332TIP3    H179411   2.795   5.449   0.236  0.6617 -1.0061  0.6140
19332TIP3    H279412   2.886   5.455   0.116  2.1707 -1.3397  1.7119
19333TIP3   OH279413   3.196   1.729   0.840 -0.0714  0.6157  0.2239
19333TIP3    H179414   3.212   1.764   0.752 -2.0478  0.1096 -0.4019
19333TIP3    H279415   3.179   1.806   0.894 -2.5227  0.8537 -0.7246
19334TIP3   OH279416   4.044   2.495   2.224 -0.1277 -0.7647 -0.3505
19334TIP3    H179417   3.974   2.447   2.269 -0.6283 -0.5397 -0.8691
19334TIP3    H279418   4.008   2.513   2.136 -0.1532  0.9584 -0.0262
19335TIP3   OH279419   5.268   4.138   1.967 -0.1864  0.1165  0.1441
19335TIP3    H179420   5.267   4.197   2.043  1.0384  0.5980 -0.1737
19335TIP3    H279421   5.195   4.168   1.913  1.2883  2.4251 -0.7456
19336TIP3   OH279422   5.157   6.356   4.232 -0.6837 -0.1898 -0.2018
19336TIP3    H179423   5.144   6.430   4.291 -0.1726 -0.5733  0.4143
19336TIP3    H279424   5.149   6.279   4.288  0.2870 -0.5519 -0.5230
19337TIP3   OH279425   5.386   4.315   6.690 -0.3961 -0.1137  0.9436
19337TIP3    H179426   5.393   4.403   6.728 -0.1131  0.9428 -1.3625
19337TIP3    H279427   5.330   4.326   6.613 -0.1204 -1.8965  0.4332
19338TIP3   OH279428   3.025   5.732  13.911 -0.7811  0.2777 -0.5440
19338TIP3    H179429   3.001   5.755  14.001  1.0320 -1.2490  0.3913
19338TIP3    H279430   3.116   5.704  13.917 -1.0465 -1.2031 -2.6154
19339TIP3   OH279431   3.129   0.117   5.354  0.1051 -0.4707  0.1404
19339TIP3    H179432   3.054   0.060   5.370 -0.6321 -0.2591 -2.2110
19339TIP3    H279433   3.178   0.072   5.285  1.2548  0.2168  0.4882
19340TIP3   OH279434   1.142   5.287  12.933 -0.1093  0.0385  0.2615
19340TIP3    H179435   1.048   5.289  12.951  0.0893  0.7816  1.3580
19340TIP3    H279436   1.180   5.241  13.008  0.5112  0.8236  0.4493
19341TIP3   OH279437   4.369   3.072   5.252 -0.7499 -0.1080 -0.0514
19341TIP3    H179438   4.276   3.077   5.277 -0.5919 -1.3377  0.8557
19341TIP3    H279439   4.383   3.150   5.198 -1.3745  2.2970  2.9237
19342TIP3   OH279440   1.890   1.601  12.961 -0.0562  0.5242  0.7155
19342TIP3    H179441   1.861   1.648  12.883  1.0771  0.1533  0.0548
19342TIP3    H279442   1.810   1.563  12.997 -0.7191  1.4240  0.2319
19343TIP3   OH279443   5.755   6.079   3.260  0.5323  0.0632 -0.4631
19343TIP3    H179444   5.824   6.014   3.256  0.8610  0.4563 -2.4092
19343TIP3    H279445   5.727   6.089   3.169 -0.5561  1.5224 -0.0037
19344TIP3   OH279446   5.125   4.566  11.893  0.2012 -0.7197  0.0772
19344TIP3    H179447   5.213   4.604  11.887 -0.4954  1.2903  1.4477
19344TIP3    H279448   5.121   4.503  11.821  2.3813 -0.0503 -0.7064
19345TIP3   OH279449   3.180   4.670   0.460  0.4027 -0.0419 -0.2014
19345TIP3    H179450   3.163   4.608   0.530  0.5647 -1.2978 -1.2434
19345TIP3    H279451   3.225   4.743   0.503 -1.2114  0.1279  1.3271
19346TIP3   OH279452   1.355   2.790  16.731 -0.1499 -0.2634 -0.0588
19346TIP3    H179453   1.345   2.707  16.778  1.0958  0.3380  1.3341
19346TIP3    H279454   1.318   2.773  16.644 -1.9839 -1.5989  0.9101
19347TIP3   OH279455   1.019   2.332   1.427 -0.5871 -0.2208  0.0350
19347TIP3    H179456   0.999   2.423   1.402  1.3850 -0.4698 -2.8842
19347TIP3    H279457   0.974   2.279   1.361  0.8018 -1.1882 -0.1706
19348TIP3   OH279458   2.299   5.908   2.202  0.0042  0.6384  0.0624
19348TIP3    H179459   2.363   5.881   2.268  0.5753 -2.3083 -1.4924
19348TIP3    H279460   2.217   5.919   2.251  1.0650  1.7931  1.6804
19349TIP3   OH279461   4.093   3.483  14.085 -1.0867  0.0433 -0.0591
19349TIP3    H179462   4.127   3.405  14.129 -0.7444 -0.2893 -0.9067
19349TIP3    H279463   3.998   3.469  14.083 -0.9603 -0.7815 -0.9954
19350TIP3   OH279464   4.376   1.879   5.861  0.2462  0.3780  0.1606
19350TIP3    H179465   4.384   1.955   5.804  1.0096 -0.6636 -1.1688
19350TIP3    H279466   4.297   1.895   5.912 -1.5759  0.5093 -2.5147
19351TIP3   OH279467   3.084   6.667  13.500 -0.0000 -0.1013  0.7750
19351TIP3    H179468   3.004   6.677  13.551 -0.3212 -3.6933  1.2786
19351TIP3    H279469   3.058   6.615  13.424  1.8085 -1.6127  1.0877
19352TIP3   OH279470   3.638   4.896  11.541  0.5396  0.1445 -0.2020
19352TIP3    H179471   3.694   4.972  11.557 -1.4264  1.6048  0.1132
19352TIP3    H279472   3.604   4.874  11.628 -2.4032  1.8060 -0.8242
19353TIP3   OH279473   1.647   3.244   5.361 -0.3492  0.1264  0.5980
19353TIP3    H179474   1.625   3.315   5.302  2.3868  0.9796  0.4685
19353TIP3    H279475   1.656   3.286   5.447  2.4936  0.2878  0.3108
19354TIP3   OH279476   4.906   6.613   4.542  0.1572  0.3224 -0.1806
19354TIP3    H179477   4.866   6.600   4.456 -0.9083  0.7471  0.2362
19354TIP3    H279478   5.000   6.618   4.523  0.0236 -0.5315 -1.1992
19355TIP3   OH279479   3.722   5.258  11.404  0.4162  0.3789  0.1294
19355TIP3    H179480   3.657   5.327  11.393  2.1830  2.1346  0.2622
19355TIP3    H279481   3.687   5.204  11.475 -0.6612  1.5887  0.5539
19356TIP3   OH279482   5.565   6.538  10.952 -0.1207  0.1524  0.3138
19356TIP3    H179483   5.607   6.454  10.971  2.2290  1.7396  2.9693
19356TIP3    H279484   5.545   6.574  11.039 -0.7239  2.4926 -0.7295
19357TIP3   OH279485   4.804   3.388   5.185  0.0012  0.1377  0.1230
19357TIP3    H179486   4.770   3.332   5.255 -3.9557 -0.3519 -1.8729
19357TIP3    H279487   4.846   3.328   5.124 -0.5066 -0.0646 -0.0280
19358TIP3   OH279488   5.481   2.052  13.166  0.6261 -0.3635 -0.4971
19358TIP3    H179489   5.409   2.051  13.229  1.5723  0.6845  0.6584
19358TIP3    H279490   5.475   1.968  13.121 -2.3032  0.3117 -1.6130
19359TIP3   OH279491   4.222   6.318   2.570 -0.1578 -0.9153  0.5544
19359TIP3    H179492   4.235   6.276   2.655 -1.8404 -1.9875  0.3309
19359TIP3    H279493   4.202   6.246   2.510 -2.8095  0.0938  0.0793
19360TIP3   OH279494   3.781   6.593  12.616 -0.3469  0.2383 -0.6285
19360TIP3    H179495   3.826   6.520  12.573 -0.4885  0.6232 -1.4515
19360TIP3    H279496   3.850   6.640  12.663 -0.2301 -0.3260 -0.2232
19361TIP3   OH279497   3.513   4.099  16.748 -0.0530 -0.0892 -0.1855
19361TIP3    H179498   3.444   4.052  16.794 -0.1905  0.0224 -0.2790
19361TIP3    H279499   3.510   4.065  16.659 -0.9895  1.0051 -0.5851
19362TIP3   OH279500   6.281   5.317   3.203  0.1361 -0.0383  0.4808
19362TIP3    H179501   6.305   5.325   3.110 -1.0215 -2.9165 -0.1524
19362TIP3    H279502   6.293   5.406   3.238  1.5004  0.9361 -2.1707
19363TIP3   OH279503   6.180   3.287   2.971 -0.7194  0.4033 -0.1903
19363TIP3    H179504   6.183   3.207   3.023  0.0726  0.5566  0.0186
19363TIP3    H279505   6.112   3.271   2.905  0.6893 -1.2107 -1.3443
19364TIP3   OH279506   6.609   3.848  13.545  0.0470 -0.1512  0.0426
19364TIP3    H179507   6.689   3.877  13.502  0.7010 -1.6207  0.2181
19364TIP3    H279508   6.588   3.765  13.503 -1.0851 -0.0588  0.3875
19365TIP3   OH279509   5.606   6.150  15.288  0.1850 -0.4928  0.2628
19365TIP3    H179510   5.682   6.094  15.304  0.1746 -1.7672 -3.1808
19365TIP3    H279511   5.532   6.100  15.324  0.4181 -1.9068 -1.0922
19366TIP3   OH279512   6.484   0.395   1.995 -0.2130  0.4989  0.4953
19366TIP3    H179513   6.491   0.299   1.998  2.7720  0.6513  1.5210
19366TIP3    H279514   6.447   0.413   1.909  2.3813 -1.5430 -1.2053
19367TIP3   OH279515   1.563   0.104   1.475 -0.0678 -0.6931 -0.2153
19367TIP3    H179516   1.526   0.019   1.451 -0.9881 -0.1321 -0.8400
19367TIP3    H279517   1.571   0.101   1.570 -0.5467 -1.2935 -0.1908
19368TIP3   OH279518   4.474   0.355   2.521 -0.0113  0.1100 -0.0178
19368TIP3    H179519   4.510   0.443   2.510  1.7084 -0.5285  0.2085
19368TIP3    H279520   4.408   0.365   2.589  0.6714  1.1119  0.5265
19369TIP3   OH279521   1.231   3.635   1.925  0.1966 -0.0859 -0.1932
19369TIP3    H179522   1.298   3.625   1.992  0.4212 -0.2276 -0.4360
19369TIP3    H279523   1.258   3.711   1.874 -0.5523  0.6883  0.5391
19370TIP3   OH279524   0.943   2.372   5.748  0.1654 -0.0309 -0.5131
19370TIP3    H179525   0.887   2.447   5.728  0.1562  0.3355  0.7895
19370TIP3    H279526   1.030   2.410   5.760  0.3815 -0.3878 -0.9151
19371TIP3   OH279527   0.420   4.176  14.222  0.2781  1.2706 -0.5569
19371TIP3    H179528   0.345   4.229  14.197  0.7023  1.2562 -1.9263
19371TIP3    H279529   0.398   4.088  14.192  0.2555  0.9806  0.2869
19372TIP3   OH279530   3.820   1.828  13.573  0.2734 -0.0462 -0.1966
19372TIP3    H179531   3.788   1.773  13.644 -0.1281 -0.3438 -0.5992
19372TIP3    H279532   3.906   1.793  13.551  0.2218 -0.2126 -0.1312
19373TIP3   OH279533   1.287   2.419   3.185 -0.3222 -0.1161  0.5189
19373TIP3    H179534   1.335   2.339   3.163 -0.4454 -0.4379  1.3921
19373TIP3    H279535   1.195   2.398   3.165 -0.6258 -0.8814  2.5287
19374TIP3   OH279536   4.495   6.619  15.552  0.5470  0.1286 -0.3233
19374TIP3    H179537   4.476   6.696  15.606  0.1783 -0.9856  1.2017
19374TIP3    H279538   4.520   6.655  15.467 -0.9700  1.8969 -0.0850
19375TIP3   OH279539   2.531   4.762   5.929  0.0018 -0.0106 -0.3733
19375TIP3    H179540   2.558   4.813   6.006  0.1240 -0.7663  0.0985
19375TIP3    H279541   2.609   4.712   5.905 -0.1745 -0.1279 -0.7067
19376TIP3   OH279542   2.407   0.591   1.926 -0.5228 -0.1730 -0.7251
19376TIP3    H179543   2.492   0.630   1.945 -0.5128  0.4492 -1.9905
19376TIP3    H279544   2.425   0.498   1.916  0.0024 -0.0501 -0.9342
19377TIP3   OH279545   1.574   3.671   0.294  0.2931  0.1257  0.0236
19377TIP3    H179546   1.560   3.677   0.200  2.1866 -3.1118 -0.6151
19377TIP3    H279547   1.487   3.652   0.330 -1.2182  4.7989 -0.3886
19378TIP3   OH279548   1.564   5.692   3.233 -0.0859 -0.2379 -0.1955
19378TIP3    H179549   1.480   5.727   3.264 -0.0970 -3.0275  3.6346
19378TIP3    H279550   1.554   5.687   3.138 -2.8899  2.6726 -0.2187
19379TIP3   OH279551   5.724   4.291  11.934  0.3012 -0.5878  0.0683
19379TIP3    H179552   5.792   4.331  11.987  0.4714  0.1790 -0.7101
19379TIP3    H279553   5.772   4.235  11.872  0.1827 -0.5436 -0.0636
19380TIP3   OH279554   2.203   0.123   3.187  0.9505 -0.4402  0.1025
19380TIP3    H179555   2.263   0.056   3.221  1.6248  1.0108  1.9176
19380TIP3    H279556   2.257   0.175   3.128  0.3381 -1.6190 -1.5853
19381TIP3   OH279557   5.340   4.487   0.602  0.3447 -0.7578 -0.0270
19381TIP3    H179558   5.432   4.509   0.588  0.6841 -1.2986  1.1809
19381TIP3    H279559   5.318   4.532   0.684 -0.8410  0.3965 -0.9342
19382TIP3   OH279560   4.222   1.174   6.139  0.1568 -0.6996  0.0878
19382TIP3    H179561   4.129   1.151   6.144 -0.4216  1.5591  0.9877
19382TIP3    H279562   4.264   1.118   6.204 -0.9336 -0.3233  1.1548
19383TIP3   OH279563   0.224   3.302  14.541  0.4335 -0.2022  0.1588
19383TIP3    H179564   0.134   3.275  14.561 -1.1516  3.7386 -0.7414
19383TIP3    H279565   0.246   3.255  14.460 -2.3073  1.4035 -1.6526
19384TIP3   OH279566   0.989   3.522  16.530  0.3869 -0.1134 -0.1890
19384TIP3    H179567   1.078   3.543  16.561  0.1564  0.5462  0.0555
19384TIP3    H279568   0.985   3.561  16.443 -0.3532  1.7625  0.6290
19385TIP3   OH279569   5.738   1.446   4.578 -0.1082 -0.0143 -0.2129
19385TIP3    H179570   5.654   1.491   4.590 -0.1006 -0.0947  0.1774
19385TIP3    H279571   5.738   1.418   4.487 -0.7476 -0.4880 -0.0773
19386TIP3   OH279572   2.664   3.277  13.207 -0.3301 -0.5238 -0.3527
19386TIP3    H179573   2.628   3.303  13.123 -0.4192 -0.2593 -0.2329
19386TIP3    H279574   2.591   3.234  13.252 -0.4488 -0.1406 -0.1778
19387TIP3   OH279575   1.325   4.920  11.299 -0.2509 -0.4035  0.8324
19387TIP3    H179576   1.372   4.838  11.285  1.0378  0.6884 -1.7559
19387TIP3    H279577   1.233   4.893  11.307 -0.1997 -1.9946 -2.4915
19388TIP3   OH279578   5.381   0.143  15.219 -0.6011 -0.5625 -0.2867
19388TIP3    H179579   5.362   0.096  15.137 -0.1371 -4.3281  1.5359
19388TIP3    H279580   5.297   0.147  15.264 -0.5699  0.1344 -0.2800
19389TIP3   OH279581   5.546   2.960  13.550 -0.3147 -0.1272  0.1091
19389TIP3    H179582   5.531   2.869  13.525  1.5383 -0.3128 -0.4201
19389TIP3    H279583   5.605   2.995  13.483 -1.3359  1.6178  0.0436
19390TIP3   OH279584   5.145   1.099  14.046 -0.7617 -0.7026  0.0893
19390TIP3    H179585   5.051   1.113  14.040 -0.5293  0.5722 -0.9792
19390TIP3    H279586   5.154   1.016  14.094 -2.4308 -1.3164 -0.5938
19391TIP3   OH279587   1.847   5.480   5.617  0.2117 -0.3796  0.6962
19391TIP3    H179588   1.887   5.509   5.699  0.9018 -0.7119  0.4845
19391TIP3    H279589   1.842   5.385   5.626  1.3191 -0.5268 -0.0932
19392TIP3   OH279590   6.458   6.160  15.256  0.1580  0.0033 -0.1307
19392TIP3    H179591   6.393   6.117  15.200  0.7760 -2.1326  0.7040
19392TIP3    H279592   6.497   6.089  15.307  1.3252  1.5683  1.2721
19393TIP3   OH279593   1.180   1.396   2.871 -0.5914 -0.6793  0.3509
19393TIP3    H179594   1.265   1.440   2.863 -0.0104 -1.3404  2.4000
19393TIP3    H279595   1.201   1.304   2.881 -1.4425 -0.6979  2.3648
19394TIP3   OH279596   3.952   6.711   3.669 -0.0611  0.3066  0.1640
19394TIP3    H179597   3.870   6.661   3.669 -0.1911  0.5186  0.2903
19394TIP3    H279598   3.956   6.750   3.756 -0.2610  1.0063 -0.1365
19395TIP3   OH279599   1.269   6.546  13.408  0.1393 -0.1189  0.7270
19395TIP3    H179600   1.210   6.596  13.351  0.6463 -1.1500 -0.7760
19395TIP3    H279601   1.312   6.484  13.349  0.5750 -1.3649  2.2894
19396TIP3   OH279602   0.083   4.544  11.754  0.0555 -0.3943 -0.4860
19396TIP3    H179603   0.012   4.498  11.799  0.4543  0.1412  0.7078
19396TIP3    H279604   0.162   4.522  11.803  0.3490  1.0205 -0.2785
19397TIP3   OH279605   2.621   2.865  15.865 -0.2575  0.2135 -0.5470
19397TIP3    H179606   2.585   2.927  15.801  2.0521  0.2822 -1.9045
19397TIP3    H279607   2.548   2.807  15.886 -1.4816  1.0767 -2.1767
19398TIP3   OH279608   2.294   6.558   2.787  0.2793  0.3296  0.1443
19398TIP3    H179609   2.210   6.596   2.761  0.5106 -0.6923 -2.4073
19398TIP3    H279610   2.271   6.472   2.822  0.1228  0.9545  1.6476
19399TIP3   OH279611   4.156   5.189  12.684 -0.5925  0.1597  0.0117
19399TIP3    H179612   4.153   5.253  12.612 -1.7533  0.1449  0.0249
19399TIP3    H279613   4.115   5.234  12.757  0.3484  0.0752  0.6056
19400TIP3   OH279614   2.576   3.258   1.246  0.3486 -0.1035 -0.5360
19400TIP3    H179615   2.616   3.174   1.222 -2.2817 -1.0467 -2.0289
19400TIP3    H279616   2.640   3.299   1.304  1.6832 -3.1971  0.3985
19401TIP3   OH279617   3.298   1.903  11.851  0.6271  0.1286  0.1958
19401TIP3    H179618   3.235   1.940  11.789 -1.6569 -2.7866  0.5279
19401TIP3    H279619   3.253   1.909  11.936  1.0615 -1.3621  0.5604
19402TIP3   OH279620   5.110   4.612   4.608 -0.1478  0.3643 -0.3565
19402TIP3    H179621   5.050   4.567   4.548 -0.9894 -1.2940  1.6051
19402TIP3    H279622   5.052   4.665   4.663  0.2796 -0.4114  0.8642
19403TIP3   OH279623   2.884   5.359  17.328 -0.1727  0.4976  0.0870
19403TIP3    H179624   2.902   5.387  17.239  0.2691 -1.5323 -0.5160
19403TIP3    H279625   2.881   5.264  17.323  1.7973  0.1913  2.5504
19404TIP3   OH279626   0.560   2.992   0.105  0.5620  0.1582  0.7472
19404TIP3    H179627   0.561   3.012   0.198 -2.0140  1.3411  0.6197
19404TIP3    H279628   0.554   2.897   0.100  0.6573  0.0906  1.7643
19405TIP3   OH279629   0.714   2.170  14.848  0.1130 -0.7301 -0.1290
19405TIP3    H179630   0.689   2.233  14.780 -0.9631 -0.9125  0.0781
19405TIP3    H279631   0.674   2.205  14.928 -1.3705 -2.1569 -0.1832
19406TIP3   OH279632   2.610   0.811  13.950  0.1369  0.9306 -0.1931
19406TIP3    H179633   2.583   0.727  13.987  1.1994 -0.2457 -1.8912
19406TIP3    H279634   2.532   0.865  13.952 -0.4744  0.0686  1.3266
19407TIP3   OH279635   1.848   1.756  16.336  0.3053 -0.3419  0.0054
19407TIP3    H179636   1.928   1.764  16.388  0.4334  3.3805 -0.5046
19407TIP3    H279637   1.806   1.841  16.343 -1.6761 -0.9346 -2.8495
19408TIP3   OH279638   5.255   3.554   4.928  0.2186  0.2026 -0.5084
19408TIP3    H179639   5.350   3.555   4.920  0.4000  2.0207  1.1026
19408TIP3    H279640   5.239   3.515   5.014 -0.4073  1.1886 -0.1631
19409TIP3   OH279641   0.350   2.058   5.327 -0.1977  0.2765 -0.0335
19409TIP3    H179642   0.311   1.992   5.269 -0.3345  0.4432 -0.1295
19409TIP3    H279643   0.277   2.115   5.351 -0.5972 -0.9070  1.8643
19410TIP3   OH279644   3.591   1.126  14.103  0.5116 -0.3474 -0.0449
19410TIP3    H179645   3.585   1.051  14.044  0.6989  0.1159 -0.6676
19410TIP3    H279646   3.654   1.100  14.170  1.2170 -0.4379 -0.7276
19411TIP3   OH279647   1.548   3.963   1.908  0.0161 -0.4382 -0.1083
19411TIP3    H179648   1.577   3.878   1.875  0.3396 -0.8521  1.1841
19411TIP3    H279649   1.470   3.943   1.960 -1.0073  0.3136 -1.3043
19412TIP3   OH279650   2.851   6.238   2.435  0.4902 -0.2817  0.1287
19412TIP3    H179651   2.772   6.233   2.489  0.7959 -1.1883  0.4958
19412TIP3    H279652   2.918   6.192   2.485  1.6282  1.6128  0.4385
19413TIP3   OH279653   3.400   4.603   3.616 -0.1917  0.2007  0.0110
19413TIP3    H179654   3.314   4.571   3.588 -0.7662  1.8039 -0.1383
19413TIP3    H279655   3.398   4.697   3.599 -0.2715  1.2516  4.6062
19414TIP3   OH279656   4.004   2.758  11.319  0.3045 -0.7718  0.4109
19414TIP3    H179657   4.054   2.777  11.240  1.4475  2.6610  1.7417
19414TIP3    H279658   3.931   2.819  11.316 -1.5287 -2.8504  0.5287
19415TIP3   OH279659   0.441   5.485   2.070 -0.8069 -0.0904 -0.7556
19415TIP3    H179660   0.482   5.452   2.149  1.4305  1.0394 -1.3692
19415TIP3    H279661   0.484   5.439   1.998 -0.2776  1.4002 -1.4375
19416TIP3   OH279662   2.977   2.271   6.008 -0.4492  0.6677 -0.1156
19416TIP3    H179663   2.952   2.341   6.068 -1.2254 -0.8011  1.3434
19416TIP3    H279664   2.974   2.191   6.061 -0.3032 -0.5770 -1.8923
19417TIP3   OH279665   0.691   1.556   5.288  0.2042  0.6360  0.2168
19417TIP3    H179666   0.606   1.511   5.291 -0.7828  2.4419  1.0351
19417TIP3    H279667   0.699   1.586   5.198  0.3422 -0.1838 -0.0503
19418TIP3   OH279668   2.335   3.508  14.321 -0.1763  0.7774 -0.4287
19418TIP3    H179669   2.284   3.485  14.399  2.4869 -3.5045  0.3423
19418TIP3    H279670   2.298   3.453  14.252 -0.0386  1.7136 -1.2676
19419TIP3   OH279671   2.760   1.009  15.019 -0.1715 -0.3386  0.2438
19419TIP3    H179672   2.855   1.021  15.012 -0.3750  0.4881 -2.3417
19419TIP3    H279673   2.749   0.915  15.034  1.0425 -0.0981  3.4844
19420TIP3   OH279674   6.405   5.550   5.158 -0.0142 -0.5540  0.2743
19420TIP3    H179675   6.332   5.517   5.106 -0.8318 -0.2894  1.2109
19420TIP3    H279676   6.441   5.623   5.107 -0.7315 -0.3585  0.0395
19421TIP3   OH279677   6.750   4.715   0.496 -0.1535 -0.1250  0.0956
19421TIP3    H179678   6.674   4.768   0.473 -0.5890 -1.6890 -2.4328
19421TIP3    H279679   6.713   4.637   0.537  0.2064 -0.1922  0.2989
19422TIP3   OH279680   0.419   4.682   0.350 -0.6258 -0.1655  0.8135
19422TIP3    H179681   0.484   4.750   0.333 -0.1726 -0.4411  1.4169
19422TIP3    H279682   0.339   4.731   0.373 -0.0064  0.1760  2.3587
19423TIP3   OH279683   2.296   5.426   0.641 -0.0341  0.4622 -0.3427
19423TIP3    H179684   2.270   5.364   0.572  0.4442  0.8996 -0.9252
19423TIP3    H279685   2.216   5.475   0.661 -0.7169 -1.0218  0.8878
19424TIP3   OH279686   4.544   3.697  16.606  0.0361 -0.6284  0.3094
19424TIP3    H179687   4.632   3.729  16.586 -0.7437  2.3719  1.1364
19424TIP3    H279688   4.519   3.743  16.686 -2.3542 -1.2841  0.0318
19425TIP3   OH279689   2.625   1.731   2.372 -0.3732  0.4484  0.2044
19425TIP3    H179690   2.653   1.746   2.462 -0.2249  0.7113  0.1173
19425TIP3    H279691   2.529   1.724   2.378 -0.2549 -1.1287  0.5882
19426TIP3   OH279692   3.339   2.129   5.373 -0.3523  0.4066 -0.0410
19426TIP3    H179693   3.244   2.122   5.370 -0.4643  1.4124  0.9161
19426TIP3    H279694   3.357   2.188   5.446  1.0618 -0.8450  0.6684
19427TIP3   OH279695   4.171   1.377   0.813 -1.0975 -0.3902  0.1028
19427TIP3    H179696   4.081   1.346   0.802 -1.2153  0.2891 -0.9960
19427TIP3    H279697   4.163   1.452   0.872 -1.1615 -0.7307  0.5327
19428TIP3   OH279698   1.171   3.677   1.290 -0.0199  0.0491  0.2705
19428TIP3    H179699   1.251   3.656   1.242 -1.4193 -0.5184 -1.9185
19428TIP3    H279700   1.182   3.632   1.374  3.1265  2.2336  1.2235
19429TIP3   OH279701   5.110   4.132  16.710 -0.6153 -0.0029  0.3763
19429TIP3    H179702   5.019   4.158  16.721 -0.7686 -0.1993 -0.3686
19429TIP3    H279703   5.156   4.172  16.784 -1.5194 -1.0114  1.5226
19430TIP3   OH279704   4.549   3.501  11.012 -0.0535 -0.2640  0.0039
19430TIP3    H179705   4.575   3.458  10.931  1.9073 -0.8231  0.8667
19430TIP3    H279706   4.527   3.430  11.072  0.2378  0.0445  0.4899
19431TIP3   OH279707   1.342   5.360   5.966 -0.4428 -0.7132  0.0531
19431TIP3    H179708   1.357   5.452   5.989 -2.4105 -0.2316 -0.3710
19431TIP3    H279709   1.311   5.320   6.047  0.6444 -1.0827  0.2996
19432TIP3   OH279710   5.321   2.851   5.400 -0.3189  0.2554 -0.2517
19432TIP3    H179711   5.320   2.947   5.403 -0.2996  0.2291  0.8331
19432TIP3    H279712   5.370   2.825   5.478  0.0113 -0.6376 -0.7430
19433TIP3   OH279713   0.642   3.698  12.902 -0.5358  0.1959 -0.5158
19433TIP3    H179714   0.604   3.610  12.898 -1.1352  0.4476 -0.5057
19433TIP3    H279715   0.736   3.683  12.899 -0.4744 -0.6414  2.4024
19434TIP3   OH279716   5.261   2.094   2.292  0.1011 -0.4039 -0.2827
19434TIP3    H179717   5.247   2.070   2.201  1.4848 -0.7396 -0.4352
19434TIP3    H279718   5.356   2.099   2.301 -0.0323  1.2686  0.7282
19435TIP3   OH279719   5.877   3.185  16.194  0.5430 -0.3059 -0.1997
19435TIP3    H179720   5.960   3.163  16.152  0.7353 -1.4354  0.7199
19435TIP3    H279721   5.896   3.265  16.244  1.0126 -0.4460 -0.1517
19436TIP3   OH279722   6.334   3.534   1.963  0.0768  0.1033  0.0562
19436TIP3    H179723   6.373   3.540   2.051  1.0311 -0.6923 -0.2941
19436TIP3    H279724   6.322   3.625   1.936  0.1086  0.3593  0.8635
19437TIP3   OH279725   6.015   3.935  13.705 -0.2225  0.6143 -0.1460
19437TIP3    H179726   5.944   3.962  13.763  0.6579  1.2156  0.6957
19437TIP3    H279727   6.085   3.907  13.765  0.1062 -0.3484 -0.9609
19438TIP3   OH279728   1.478   6.632   4.096  0.4409 -0.0038  0.1501
19438TIP3    H179729   1.459   6.544   4.130  0.2963  0.8856  2.5352
19438TIP3    H279730   1.394   6.666   4.066  0.0037  0.2652  1.6299
19439TIP3   OH279731   1.129   0.230  14.007  0.0526 -0.0398 -0.9175
19439TIP3    H179732   1.192   0.284  14.055  1.2897 -1.1672 -1.2266
19439TIP3    H279733   1.179   0.153  13.980 -1.0076 -0.1430 -2.7005
19440TIP3   OH279734   0.064   5.952   5.989 -0.2794  0.0645  0.2136
19440TIP3    H179735   0.060   5.861   6.019 -0.9272  0.1284  0.3394
19440TIP3    H279736   0.157   5.969   5.976  0.0564  0.0325  2.2246
19441TIP3   OH279737   0.235   0.346   6.152 -0.0448  0.4530 -0.5939
19441TIP3    H179738   0.268   0.302   6.230  1.2456  0.5508 -1.0443
19441TIP3    H279739   0.157   0.393   6.181 -0.1719 -0.3407  0.3872
19442TIP3   OH279740   1.606   4.224  14.198 -0.3772  0.0274  0.4003
19442TIP3    H179741   1.541   4.206  14.131 -0.4300  0.4535  0.3334
19442TIP3    H279742   1.689   4.227  14.151 -0.5065  1.1316  0.2130
19443TIP3   OH279743   5.289   2.421  15.181 -0.6187 -0.1482 -0.6096
19443TIP3    H179744   5.341   2.501  15.172 -1.2795  0.4837  0.8680
19443TIP3    H279745   5.201   2.452  15.204 -0.6191 -1.2975  1.1137
19444TIP3   OH279746   6.386   3.963  16.804  0.1003  0.4168 -0.0614
19444TIP3    H179747   6.474   3.961  16.841 -0.2701  0.9751  0.8900
19444TIP3    H279748   6.390   3.903  16.730  0.9751 -0.4437  0.6505
19445TIP3   OH279749   4.594   2.181  15.845 -0.2338 -0.0735 -0.6231
19445TIP3    H179750   4.529   2.241  15.810 -1.4539 -0.4076  0.9719
19445TIP3    H279751   4.546   2.099  15.860 -0.2464  0.4613  3.1381
19446TIP3   OH279752   5.984   2.048   4.693  0.1655 -0.2806  0.2059
19446TIP3    H179753   5.952   1.957   4.697  0.5154 -0.3663  2.5805
19446TIP3    H279754   5.915   2.095   4.646 -1.0887 -1.3927  0.8376
19447TIP3   OH279755   5.993   5.901   1.932 -0.4047  0.1106  1.0026
19447TIP3    H179756   5.998   5.992   1.962  1.4682  0.8380 -1.2117
19447TIP3    H279757   5.923   5.862   1.985 -1.2736  2.8164  2.0268
19448TIP3   OH279758   0.190   4.460  14.814  0.0325 -0.3049 -0.3980
19448TIP3    H179759   0.240   4.479  14.735  1.3348  1.1907  0.7161
19448TIP3    H279760   0.241   4.500  14.885 -1.0115 -1.7045  1.2277
19449TIP3   OH279761   2.669   1.501  11.180  0.1460  0.1059  0.4641
19449TIP3    H179762   2.594   1.543  11.138 -0.0956 -0.0332  0.7575
19449TIP3    H279763   2.745   1.543  11.139 -0.0900  0.3428  0.2636
19450TIP3   OH279764   6.466   1.085  16.306  0.1312 -0.3245  0.6276
19450TIP3    H179765   6.522   1.067  16.230 -1.1076 -1.6242 -0.0282
19450TIP3    H279766   6.444   0.998  16.339 -1.3113  0.1674  1.0028
19451TIP3   OH279767   5.133   4.336   3.419 -0.5584 -0.3169  0.4476
19451TIP3    H179768   5.126   4.413   3.362 -0.7375 -0.4774  0.2524
19451TIP3    H279769   5.225   4.336   3.448 -0.4063 -0.3637 -0.0234
19452TIP3   OH279770   1.782   4.346  11.939  0.5866  0.0006  0.4486
19452TIP3    H179771   1.802   4.414  12.003 -0.7195  0.1319  0.7531
19452TIP3    H279772   1.842   4.274  11.961  0.9339  0.4738  1.0893
19453TIP3   OH279773   3.730   1.941   3.186 -0.3655  0.4458  0.3059
19453TIP3    H179774   3.659   1.974   3.242  0.8564  1.3396  1.3857
19453TIP3    H279775   3.706   1.968   3.098 -1.0362  1.3356  0.7466
19454TIP3   OH279776   3.359   5.998   0.417  0.1189  0.4050  0.2635
19454TIP3    H179777   3.444   5.955   0.408  0.3548  0.8953  0.1209
19454TIP3    H279778   3.350   6.015   0.511  0.0235  0.0503  0.3211
19455TIP3   OH279779   2.139   6.700  14.890 -0.1234  0.1741  0.1234
19455TIP3    H179780   2.044   6.708  14.898 -0.2420 -0.1368 -0.8924
19455TIP3    H279781   2.153   6.612  14.856  0.5028  0.4011 -0.2200
19456TIP3   OH279782   4.682   3.700   2.263  0.5231 -0.1925 -0.7225
19456TIP3    H179783   4.670   3.627   2.201 -0.1921  0.8875 -1.9138
19456TIP3    H279784   4.618   3.682   2.332  0.9228 -1.1179 -0.5743
19457TIP3   OH279785   0.167   5.819   1.184 -0.1329 -0.1491  0.2740
19457TIP3    H179786   0.216   5.878   1.126 -0.4422  1.9791  2.0597
19457TIP3    H279787   0.235   5.776   1.236  0.0333 -0.2687 -0.0412
19458TIP3   OH279788   0.530   6.350   0.696  0.0873 -0.0478  0.0758
19458TIP3    H179789   0.456   6.396   0.657 -0.5200 -0.5735  0.5954
19458TIP3    H279790   0.604   6.410   0.684 -0.7669  1.2890  1.1251
19459TIP3   OH279791   6.696   3.578  11.990 -0.6227  0.2907  0.1761
19459TIP3    H179792   6.704   3.489  11.956  2.0303  0.6187 -0.3071
19459TIP3    H279793   6.702   3.569  12.085 -1.5117 -0.1238  0.1965
19460TIP3   OH279794   3.720   5.768   3.306  0.3152 -0.4645 -0.2395
19460TIP3    H179795   3.801   5.772   3.357 -0.0853  1.0410  0.3173
19460TIP3    H279796   3.750   5.764   3.215  1.0061 -0.7647 -0.0131
19461TIP3   OH279797   5.760   0.508  12.444 -0.0819  0.1785 -0.2301
19461TIP3    H179798   5.686   0.529  12.500 -0.9086 -0.8738 -0.8892
19461TIP3    H279799   5.836   0.508  12.503 -0.9083 -0.8317  0.8803
19462TIP3   OH279800   0.268   6.265  14.116  0.2402 -0.0192 -0.5845
19462TIP3    H179801   0.240   6.352  14.145 -0.7528  0.2045 -2.1503
19462TIP3    H279802   0.188   6.221  14.087  0.5305 -1.9166  1.1828
19463TIP3   OH279803   1.838   4.417   0.408 -0.6345 -0.5149 -0.0029
19463TIP3    H179804   1.838   4.512   0.423 -2.1929 -0.5274  0.1475
19463TIP3    H279805   1.746   4.394   0.398 -0.2175 -1.8888 -0.9226
19464TIP3   OH279806   6.661   3.475  16.608  0.6253  0.0212 -0.1417
19464TIP3    H179807   6.651   3.501  16.700 -0.0414  1.0869 -0.4930
19464TIP3    H279808   6.755   3.469  16.596  0.7935  1.5539  0.1911
19465TIP3   OH279809   2.728   1.229  14.860 -0.5671  0.3469 -0.6774
19465TIP3    H179810   2.713   1.302  14.920  1.8693 -0.2865  0.8564
19465TIP3    H279811   2.716   1.150  14.914 -3.7332 -0.5191 -2.4344
19466TIP3   OH279812   1.808   3.554   5.127  0.0673  0.1611 -0.0097
19466TIP3    H179813   1.724   3.543   5.082 -0.6177  0.6760  1.1000
19466TIP3    H279814   1.784   3.565   5.219  1.2944  1.1971  0.2082
19467TIP3   OH279815   0.923   6.621   5.036 -0.1425  0.4070 -0.5426
19467TIP3    H179816   0.834   6.657   5.038 -0.9226 -1.3643 -0.3733
19467TIP3    H279817   0.946   6.622   4.943 -1.2529 -1.0446 -0.8848
19468TIP3   OH279818   3.808   1.824   3.980  0.2595  0.7920  0.2487
19468TIP3    H179819   3.749   1.900   3.982  0.9742  1.4664 -1.7838
19468TIP3    H279820   3.880   1.848   4.038  0.2656  1.4991 -0.0435
19469TIP3   OH279821   3.931   1.123  12.734  0.5490  0.3197  0.8534
19469TIP3    H179822   4.004   1.174  12.698  2.7982 -2.5636  0.9604
19469TIP3    H279823   3.969   1.077  12.808 -1.5122 -1.0687  1.1178
19470TIP3   OH279824   3.711   5.467   3.099 -0.0046 -0.2039 -0.0479
19470TIP3    H179825   3.709   5.418   3.181 -0.2284  0.3332  0.2710
19470TIP3    H279826   3.619   5.489   3.082  0.2252  1.2730  0.5299
19471TIP3   OH279827   5.369   3.509  11.624  0.2702  0.5069  0.0157
19471TIP3    H179828   5.382   3.415  11.616 -0.6389  0.2692  0.9421
19471TIP3    H279829   5.441   3.539  11.679 -0.6869 -0.0745  1.6628
19472TIP3   OH279830   3.243   5.351   3.683  0.6557  0.4591 -0.6264
19472TIP3    H179831   3.247   5.256   3.697 -1.5407  0.6072  2.0170
19472TIP3    H279832   3.180   5.362   3.612  0.1300 -0.0982 -0.2684
19473TIP3   OH279833   4.610   1.741  16.478 -0.0887  0.3644  0.2020
19473TIP3    H179834   4.686   1.794  16.456  1.0730 -1.6206 -0.9286
19473TIP3    H279835   4.547   1.758  16.408  0.2160  0.3797 -0.0698
19474TIP3   OH279836   5.525   2.722  16.893  0.0957  0.1497 -0.2492
19474TIP3    H179837   5.522   2.763  16.807 -0.2342  0.0758 -0.2747
19474TIP3    H279838   5.590   2.773  16.942  0.2928  0.1841 -0.5433
19475TIP3   OH279839   3.475   4.019  14.474  0.1797  0.4206  0.6038
19475TIP3    H179840   3.546   3.958  14.495  0.4446 -0.8684 -3.2428
19475TIP3    H279841   3.395   3.966  14.477  0.0201  0.6313  0.2307
19476TIP3   OH279842   2.358   4.934   1.545 -0.8440 -0.1144 -0.1390
19476TIP3    H179843   2.358   4.882   1.626  0.2527  0.5170  0.2793
19476TIP3    H279844   2.442   4.979   1.546 -0.3755 -0.8698 -2.1406
19477TIP3   OH279845   4.738   3.653   1.826  0.4800  0.3093  0.1076
19477TIP3    H179846   4.717   3.560   1.819  0.6313  0.2783  0.0637
19477TIP3    H279847   4.774   3.677   1.740  4.1358 -0.5221  1.2359
19478TIP3   OH279848   0.665   0.444   4.418  0.3207  0.4093 -0.2755
19478TIP3    H179849   0.710   0.503   4.479 -0.0821  1.8667 -1.3347
19478TIP3    H279850   0.577   0.482   4.410 -1.1070 -2.1676  1.4904
19479TIP3   OH279851   5.906   2.781   5.380 -0.3012  0.7309 -0.3875
19479TIP3    H179852   5.857   2.835   5.318 -2.1724 -0.1640  0.2276
19479TIP3    H279853   5.868   2.694   5.371  1.4524 -0.1090 -0.1014
19480TIP3   OH279854   4.073   6.555  14.993 -0.2176  0.2357  0.1195
19480TIP3    H179855   4.149   6.526  15.044 -1.0671 -0.9102  0.7863
19480TIP3    H279856   4.104   6.632  14.946  1.4738 -0.4037  0.0881
19481TIP3   OH279857   0.440   1.928   6.216 -0.0602 -0.3343  0.6123
19481TIP3    H179858   0.382   1.870   6.166  0.1157 -0.8660  1.0112
19481TIP3    H279859   0.526   1.917   6.176 -0.1110 -0.0241  0.4187
19482TIP3   OH279860   1.156   6.595   3.759 -0.0307 -0.2229 -0.5227
19482TIP3    H179861   1.216   6.593   3.684  2.1258 -0.7548  1.1083
19482TIP3    H279862   1.156   6.686   3.787  0.8697 -0.3932  0.0778
19483TIP3   OH279863   1.030   3.060  13.388 -0.0651  0.1063  0.0837
19483TIP3    H179864   0.990   2.975  13.371  2.9014 -1.4376  0.1096
19483TIP3    H279865   1.044   3.061  13.483 -0.5456  0.8683  0.1535
19484TIP3   OH279866   1.167   4.845   4.531 -0.1055  0.0830  0.3307
19484TIP3    H179867   1.155   4.918   4.592  2.1475 -1.3302  2.6497
19484TIP3    H279868   1.261   4.848   4.510  0.0805 -2.2069  0.6417
19485TIP3   OH279869   2.003   4.497   3.836 -0.0140  0.1097 -0.6555
19485TIP3    H179870   2.051   4.549   3.772  1.0624  3.4437  2.4649
19485TIP3    H279871   2.056   4.419   3.850 -0.0708 -0.4875 -3.3250
19486TIP3   OH279872   3.270   0.556   1.478 -0.3563 -0.4922 -0.1874
19486TIP3    H179873   3.241   0.580   1.566 -1.5902  1.5242 -1.0630
19486TIP3    H279874   3.192   0.519   1.436 -0.2622  0.1728 -0.9657
19487TIP3   OH279875   2.321   1.273   3.286 -0.0203  0.1452 -0.2648
19487TIP3    H179876   2.230   1.283   3.256 -0.0174  1.6226  0.1097
19487TIP3    H279877   2.327   1.330   3.362  0.9484 -0.7800  0.3691
19488TIP3   OH279878   3.597   1.764   1.258 -0.6414  0.1964  0.0437
19488TIP3    H179879   3.506   1.755   1.230 -0.5034  0.3914 -0.4860
19488TIP3    H279880   3.643   1.794   1.179 -0.5328  2.3925  0.8515
19489TIP3   OH279881   6.189   0.145   5.007  0.0033  0.1330 -0.2967
19489TIP3    H179882   6.172   0.177   5.096 -0.1986 -0.2833 -0.1848
19489TIP3    H279883   6.164   0.218   4.950  1.2479  0.8543  0.0362
19490TIP3   OH279884   4.258   1.531  11.268 -0.1718 -0.0135  0.4709
19490TIP3    H179885   4.213   1.614  11.281 -0.6687 -0.2940  0.5908
19490TIP3    H279886   4.335   1.553  11.216  0.9572  0.8888  2.4278
19491TIP3   OH279887   4.399   4.674   3.056 -0.4019  0.3424  0.2571
19491TIP3    H179888   4.397   4.688   3.151 -1.2845 -1.1544  0.4834
19491TIP3    H279889   4.487   4.640   3.039  0.2806  1.9771  0.2894
19492TIP3   OH279890   5.914   6.556   3.204  0.1694 -0.1900  0.1788
19492TIP3    H179891   5.953   6.520   3.124 -0.0652  0.0378 -0.0413
19492TIP3    H279892   5.885   6.480   3.253 -2.5950 -0.2820 -1.4184
19493TIP3   OH279893   0.995   1.763   0.806  0.6195  0.3092  0.2675
19493TIP3    H179894   0.933   1.735   0.739 -0.9051 -0.7808  2.0383
19493TIP3    H279895   0.985   1.700   0.877  3.5714  0.2773  0.7989
19494TIP3   OH279896   2.100   0.297   3.949 -0.7658 -0.1657 -0.6720
19494TIP3    H179897   2.017   0.339   3.970 -1.1033  0.4545 -2.9806
19494TIP3    H279898   2.076   0.221   3.897  0.1075  0.9294 -2.7899
19495TIP3   OH279899   6.178   2.881   6.088 -0.1463  0.4427  0.0982
19495TIP3    H179900   6.252   2.938   6.069  0.8296 -0.9361 -0.4421
19495TIP3    H279901   6.208   2.825   6.160 -0.4184 -0.5445 -0.5310
19496TIP3   OH279902   1.216   5.320  16.619 -0.1530 -0.3236 -0.9864
19496TIP3    H179903   1.265   5.395  16.653 -0.3303 -0.7496  0.2458
19496TIP3    H279904   1.140   5.313  16.676 -0.4725 -1.0534 -1.4866
19497TIP3   OH279905   5.982   1.193  13.941  0.3997  0.0770  0.3787
19497TIP3    H179906   5.918   1.179  13.871  0.8947 -2.0358  0.2887
19497TIP3    H279907   6.047   1.252  13.903 -0.7547  1.1356  0.0036
19498TIP3   OH279908   1.079   3.004  16.430 -1.1525  0.5592  0.9684
19498TIP3    H179909   1.084   3.093  16.396 -1.6232  0.0289 -0.5618
19498TIP3    H279910   1.110   3.011  16.520  0.5524  1.9460  0.3189
19499TIP3   OH279911   5.771   3.085  14.669 -0.7231  0.0739 -0.0160
19499TIP3    H179912   5.733   2.997  14.657  0.2093 -0.1916 -1.3799
19499TIP3    H279913   5.834   3.092  14.597 -1.8754  2.4745 -0.8792
19500TIP3   OH279914   3.052   0.556  13.028 -0.8929  0.0189  0.3019
19500TIP3    H179915   3.104   0.595  12.958 -0.6195  1.4978  1.2980
19500TIP3    H279916   2.971   0.528  12.985 -0.5997  0.5983 -0.6518
19501TIP3   OH279917   1.317   1.042   5.647  0.2460 -0.3527 -0.2116
19501TIP3    H179918   1.405   1.052   5.683 -0.1257 -1.2013  0.9845
19501TIP3    H279919   1.310   0.949   5.626  0.6991  0.2006 -3.2693
19502TIP3   OH279920   2.602   2.741   3.000 -0.0578  0.1585 -0.4166
19502TIP3    H179921   2.620   2.716   3.091 -2.3018 -0.2185 -0.0059
19502TIP3    H279922   2.675   2.706   2.950  1.1121  0.1743  1.2097
19503TIP3   OH279923   1.395   4.763   1.790  0.2019 -0.3629  0.2046
19503TIP3    H179924   1.450   4.689   1.816 -1.6617 -1.7657  0.3831
19503TIP3    H279925   1.337   4.777   1.866 -0.8813 -0.1194 -0.6478
19504TIP3   OH279926   3.207   2.513   2.095  0.2998 -0.2978  0.3235
19504TIP3    H179927   3.151   2.479   2.165 -0.5160 -1.9387 -1.0508
19504TIP3    H279928   3.197   2.450   2.024  2.9125  0.0756 -0.4702
19505TIP3   OH279929   6.754   4.401  15.016  0.5872  0.1224  0.7093
19505TIP3    H179930   6.794   4.454  14.947 -1.4620  0.6196 -0.1633
19505TIP3    H279931   6.782   4.442  15.097  0.2625  1.6536  0.0843
19506TIP3   OH279932   4.262   0.936   5.944 -0.3469  0.2506 -0.1975
19506TIP3    H179933   4.350   0.951   5.909 -0.1047  0.5580  0.5281
19506TIP3    H279934   4.276   0.909   6.034 -1.0449  1.4253  0.2781
19507TIP3   OH279935   4.058   6.348   5.180 -0.4070  0.1193  0.1882
19507TIP3    H179936   3.990   6.382   5.122  0.2238 -0.3964 -0.8713
19507TIP3    H279937   4.122   6.309   5.122  0.6710  0.3455  1.1894
19508TIP3   OH279938   3.759   1.076   3.246 -0.0687 -0.6079 -0.0557
19508TIP3    H179939   3.774   1.039   3.159  0.2265 -1.5299  0.3717
19508TIP3    H279940   3.664   1.088   3.250  0.0624  1.0305 -1.1128
19509TIP3   OH279941   2.742   0.484  16.984  0.4417  0.1279 -0.3313
19509TIP3    H179942   2.687   0.407  16.970 -0.1619  0.8718 -2.6086
19509TIP3    H279943   2.821   0.466  16.934  0.9252  0.3742  0.3369
19510TIP3   OH279944   5.182   4.071  12.979 -0.5570  0.0418 -0.0764
19510TIP3    H179945   5.250   4.015  13.017  0.7973  1.5856 -0.1045
19510TIP3    H279946   5.179   4.147  13.036 -1.1038  0.7326 -1.0018
19511TIP3   OH279947   4.814   6.316  15.260  0.4358 -0.6004  0.1436
19511TIP3    H179948   4.899   6.299  15.300  2.5417  0.3611 -3.4461
19511TIP3    H279949   4.757   6.247  15.294  2.7902 -1.6834  2.2123
19512TIP3   OH279950   5.317   0.922  12.168 -0.2975 -0.3620  0.1017
19512TIP3    H179951   5.276   0.993  12.119 -0.9795 -1.3210 -0.7747
19512TIP3    H279952   5.243   0.877  12.210 -0.1860 -2.0261 -1.3716
19513TIP3   OH279953   5.955   1.213   0.504  0.4846 -0.0814  0.0172
19513TIP3    H179954   5.876   1.255   0.468  1.8654  3.1976  0.4513
19513TIP3    H279955   5.989   1.160   0.432 -1.7595 -1.1480 -0.3420
19514TIP3   OH279956   0.167   3.920  14.610  0.0378  0.0885 -0.2478
19514TIP3    H179957   0.159   3.825  14.606 -0.0786  0.1394 -1.9981
19514TIP3    H279958   0.158   3.949  14.519  1.2594  1.6840  0.0913
19515TIP3   OH279959   4.936   2.422  16.115 -0.1300  0.4579 -0.5746
19515TIP3    H179960   5.031   2.417  16.103 -0.2112 -0.1154 -1.0100
19515TIP3    H279961   4.925   2.450  16.206  0.4677  1.8481 -0.8909
19516TIP3   OH279962   2.383   2.173   2.855 -0.4279 -0.3165 -0.1262
19516TIP3    H179963   2.355   2.163   2.946 -0.7285 -2.6959 -0.4169
19516TIP3    H279964   2.303   2.163   2.804  0.0279 -1.0417 -0.7150
19517TIP3   OH279965   2.912   3.142   4.969 -0.2955 -0.4061  0.4954
19517TIP3    H179966   2.883   3.113   5.055  2.8032 -0.5188  1.6284
19517TIP3    H279967   2.976   3.211   4.987 -0.0381  0.0160 -1.7450
19518TIP3   OH279968   3.866   4.238   6.350 -0.1335 -0.4040 -0.0112
19518TIP3    H179969   3.951   4.195   6.362  0.8735  0.7394 -2.2915
19518TIP3    H279970   3.816   4.177   6.296 -0.8135 -1.0887  1.3545
19519TIP3   OH279971   1.319   4.412  15.791  0.1071  0.0781  0.2999
19519TIP3    H179972   1.332   4.361  15.711 -1.9107  0.4303 -0.3073
19519TIP3    H279973   1.318   4.503  15.761 -0.7665  0.2041  0.6927
19520TIP3   OH279974   2.212   4.327  14.182 -0.3710  0.8143  0.1549
19520TIP3    H179975   2.152   4.402  14.183 -1.8702 -0.3420  1.0625
19520TIP3    H279976   2.244   4.324  14.091 -3.6416  0.0099 -1.1008
19521TIP3   OH279977   6.190   3.448   1.754  0.3141 -0.4656  0.0888
19521TIP3    H179978   6.232   3.454   1.840 -0.2307 -2.1874  0.5046
19521TIP3    H279979   6.229   3.372   1.712 -0.1990 -0.2828 -0.7573
19522TIP3   OH279980   0.636   0.542   2.094  0.4929  0.1483 -0.2591
19522TIP3    H179981   0.642   0.456   2.136  0.0206 -0.8671 -2.1736
19522TIP3    H279982   0.575   0.591   2.149 -0.7618 -1.4211 -0.1685
19523TIP3   OH279983   2.297   5.779  12.464 -0.1412  0.0228 -0.1167
19523TIP3    H179984   2.338   5.760  12.380  0.5247  0.5386  0.0803
19523TIP3    H279985   2.369   5.808  12.520 -0.1233 -2.4828  1.3427
19524TIP3   OH279986   1.280   4.175   4.886  0.3936 -0.0624 -0.5281
19524TIP3    H179987   1.198   4.223   4.877  0.5057  0.0309 -1.0658
19524TIP3    H279988   1.348   4.241   4.875  0.5720  0.2387  1.8397
19525TIP3   OH279989   4.822   0.690   5.989 -0.7447  0.7523  0.7339
19525TIP3    H179990   4.862   0.764   6.035  1.4976 -0.0547  0.2107
19525TIP3    H279991   4.805   0.723   5.901  0.9281  0.5084  0.2782
19526TIP3   OH279992   0.080   1.567  13.800 -0.4298 -0.1069 -0.6239
19526TIP3    H179993   0.017   1.537  13.866 -1.7279  2.7034 -0.4488
19526TIP3    H279994   0.071   1.504  13.728 -1.2082 -1.4708  0.6069
19527TIP3   OH279995   3.552   2.967  13.379 -0.1655  0.0449  0.3406
19527TIP3    H179996   3.469   2.999  13.345  0.3622  0.7066 -0.3545
19527TIP3    H279997   3.528   2.891  13.432 -1.1917  0.1198  0.0091
19528TIP3   OH279998   5.590   1.829  13.036 -0.2937  0.4977 -0.3272
19528TIP3    H179999   5.571   1.901  12.976 -1.4346 -0.9411 -1.7973
19528TIP3    H280000   5.541   1.755  13.000  2.5999 -1.6462 -0.2045
19529TIP3   OH280001   4.737   4.032   1.843  0.5855  0.6124  0.1660
19529TIP3    H180002   4.648   4.020   1.810  0.4430 -0.2988  0.8196
19529TIP3    H280003   4.730   4.012   1.937  1.5705 -0.0075  0.1215
19530TIP3   OH280004   5.043   1.536   0.980 -0.5154 -0.2688  0.4086
19530TIP3    H180005   4.967   1.544   0.923  0.0088 -2.0125 -0.6060
19530TIP3    H280006   5.023   1.462   1.037  1.0775 -1.9842 -1.0936
19531TIP3   OH280007   6.536   0.716  15.640 -0.0191  0.1618 -0.2141
19531TIP3    H180008   6.487   0.667  15.706 -0.4120  1.1639  0.2643
19531TIP3    H280009   6.549   0.654  15.568 -0.9751 -0.4677  0.1407
19532TIP3   OH280010   1.969   3.644   0.818  0.6896  0.3052 -0.3345
19532TIP3    H180011   2.038   3.691   0.866 -0.9372 -0.6096  3.1888
19532TIP3    H280012   1.998   3.553   0.818  0.8080  0.3208 -1.4963
19533TIP3   OH280013   1.849   6.049  15.527  0.0372 -0.0729  0.5363
19533TIP3    H180014   1.912   6.120  15.537  0.6790 -0.5490 -0.0736
19533TIP3    H280015   1.902   5.970  15.522 -0.6516 -0.5650  0.8399
19534TIP3   OH280016   0.993   3.424  13.551 -0.5952 -0.4755 -0.0349
19534TIP3    H180017   1.000   3.416  13.456 -0.7042 -2.5431  0.0800
19534TIP3    H280018   0.929   3.493  13.565 -3.1174 -2.3335 -1.5778
19535TIP3   OH280019   1.899   0.938   3.302 -0.2583  0.0069 -0.8962
19535TIP3    H180020   1.913   0.930   3.397 -2.0084 -1.4956 -0.7139
19535TIP3    H280021   1.983   0.966   3.268  0.0248  2.1324  1.2716
19536TIP3   OH280022   1.955   1.623  11.445  0.4063 -0.2245  0.2037
19536TIP3    H180023   1.936   1.641  11.354 -0.6934 -2.4705 -0.0900
19536TIP3    H280024   1.923   1.699  11.493 -2.6926 -0.6535 -0.9822
19537TIP3   OH280025   4.905   3.136  15.652 -0.1967 -0.6024 -0.0882
19537TIP3    H180026   4.850   3.198  15.604  1.4077  1.1983  0.2610
19537TIP3    H280027   4.843   3.075  15.692 -2.0834  1.8581  1.0493
19538TIP3   OH280028   4.982   3.893  13.517 -0.2296  0.1230  0.7963
19538TIP3    H180029   4.999   3.967  13.576 -0.7874 -0.8214  2.2069
19538TIP3    H280030   4.890   3.903  13.492 -0.1685  0.1730  0.5920
19539TIP3   OH280031   0.501   0.798   2.691  0.3645  0.1113 -0.2614
19539TIP3    H180032   0.552   0.877   2.709 -1.4181  0.6261  3.3134
19539TIP3    H280033   0.538   0.764   2.609  3.3930  2.7995 -0.2047
19540TIP3   OH280034   6.240   0.820  16.331  0.2278 -0.1287  0.2534
19540TIP3    H180035   6.287   0.793  16.252  2.2686  0.7484  1.0929
19540TIP3    H280036   6.285   0.775  16.402  0.3059  1.3233  1.1661
19541TIP3   OH280037   6.538   4.701  14.973  0.4694 -0.3789  0.5803
19541TIP3    H180038   6.445   4.702  14.997  0.1870 -0.6924 -0.4384
19541TIP3    H280039   6.542   4.641  14.898  1.7386 -1.5213  1.5193
19542TIP3   OH280040   5.019   0.170  11.274 -0.8177  0.5963  0.0238
19542TIP3    H180041   5.051   0.175  11.184  2.8410  0.3039  1.1663
19542TIP3    H280042   4.989   0.080  11.283  0.6448  0.0365 -0.3988
19543TIP3   OH280043   6.576   4.883  15.863  0.5113 -0.3274 -0.3217
19543TIP3    H180044   6.524   4.804  15.855 -1.0105  0.1066  3.2921
19543TIP3    H280045   6.513   4.954  15.860  0.9271  0.3023  2.5257
19544TIP3   OH280046   1.997   4.007   2.493 -0.9846 -0.4722 -0.4680
19544TIP3    H180047   1.968   3.966   2.574 -1.4948  0.0183 -0.3930
19544TIP3    H280048   2.051   4.081   2.522 -0.2191 -0.9739 -0.5980
19545TIP3   OH280049   2.478   6.456  12.389 -0.0322 -0.4076 -0.1518
19545TIP3    H180050   2.490   6.513  12.465  0.1363 -0.4321 -0.1587
19545TIP3    H280051   2.564   6.455  12.347  0.2997 -1.6254  0.5214
19546TIP3   OH280052   5.144   3.200   6.248  0.4341 -0.8938  0.0527
19546TIP3    H180053   5.050   3.188   6.254  0.0891  1.2776 -0.1329
19546TIP3    H280054   5.172   3.139   6.180 -1.0254 -0.7065 -0.7541
19547TIP3   OH280055   4.724   5.960   4.056 -0.4265 -0.5450 -0.0798
19547TIP3    H180056   4.636   5.941   4.090 -0.3137 -1.0719 -0.0708
19547TIP3    H280057   4.716   5.949   3.961 -0.1155 -1.6876  0.0117
19548TIP3   OH280058   1.189   5.198   6.467  0.2579  0.0303 -0.2308
19548TIP3    H180059   1.121   5.251   6.427 -0.0859 -0.3878 -0.2121
19548TIP3    H280060   1.198   5.123   6.408  0.5064 -0.0546 -0.0854
19549TIP3   OH280061   4.820   6.155   3.095 -0.1130  1.0268 -0.0419
19549TIP3    H180062   4.821   6.237   3.144 -1.9734  0.2591  1.3847
19549TIP3    H280063   4.739   6.158   3.044  1.5656  1.6173 -2.9026
19550TIP3   OH280064   0.816   0.973   3.568 -0.1645  0.2607  0.2556
19550TIP3    H180065   0.880   1.025   3.520  0.2457 -1.3507 -1.0334
19550TIP3    H280066   0.843   0.980   3.660  1.1407  0.5697 -0.1341
19551TIP3   OH280067   1.148   6.066  11.759  0.5051  0.0135  0.4487
19551TIP3    H180068   1.226   6.096  11.807  0.9893  1.7128 -1.2946
19551TIP3    H280069   1.125   6.139  11.702 -0.7455 -1.4778 -1.0684
19552TIP3   OH280070   4.215   0.867   3.220  0.1013 -0.4516  0.8244
19552TIP3    H180071   4.236   0.778   3.193 -0.5073 -0.5088  0.5137
19552TIP3    H280072   4.162   0.902   3.148  1.1004  0.4809  0.5082
19553TIP3   OH280073   0.466   6.568  12.142 -0.2156 -0.0651 -0.5712
19553TIP3    H180074   0.524   6.541  12.071  0.2437 -0.5763 -0.0122
19553TIP3    H280075   0.403   6.496  12.149  0.9601 -1.0153  0.8659
19554TIP3   OH280076   6.202   2.120   5.668 -0.3992  0.2601  0.5905
19554TIP3    H180077   6.266   2.051   5.686 -0.4804 -0.3031 -1.0928
19554TIP3    H280078   6.155   2.131   5.750  1.2849  0.1001  1.6329
19555TIP3   OH280079   0.450   4.690  12.697 -0.0941 -0.7142 -0.3966
19555TIP3    H180080   0.356   4.687  12.680 -0.1122 -0.3557 -0.3626
19555TIP3    H280081   0.458   4.738  12.780  0.0793 -1.2914 -0.0773
19556TIP3   OH280082   5.755   0.883  15.614  0.1803  0.3292 -0.5731
19556TIP3    H180083   5.836   0.935  15.614 -0.3988  1.2928 -1.7079
19556TIP3    H280084   5.784   0.793  15.603  1.2150  0.3935  1.3602
19557TIP3   OH280085   4.666   0.153   3.399 -0.1574  1.0333  0.3558
19557TIP3    H180086   4.748   0.138   3.446 -0.0296 -1.6257 -0.5758
19557TIP3    H280087   4.600   0.104   3.448  0.1002 -2.4089 -2.3833
19558TIP3   OH280088   2.582   4.624  12.816  0.5643 -0.2840  0.2828
19558TIP3    H180089   2.609   4.609  12.907 -0.4970  1.2973  0.9118
19558TIP3    H280090   2.633   4.562  12.765  2.7159  0.1590  1.7558
19559TIP3   OH280091   1.979   5.486   3.645  0.0954  0.1284  0.2096
19559TIP3    H180092   1.908   5.514   3.703  0.8033  0.9587  0.7082
19559TIP3    H280093   2.041   5.440   3.702 -0.6589 -1.8293 -0.4628
19560TIP3   OH280094   5.571   5.655  11.065 -0.3983 -0.1463  0.5664
19560TIP3    H180095   5.499   5.717  11.072 -0.8154 -0.6079  0.3855
19560TIP3    H280096   5.588   5.648  10.971  1.4951  1.7926  0.6770
19561TIP3   OH280097   3.071   3.251   5.877  0.0107 -0.0892 -0.3052
19561TIP3    H180098   2.975   3.251   5.868 -0.0159 -0.3975 -0.0603
19561TIP3    H280099   3.086   3.271   5.969  0.1506 -0.8429 -0.1511
19562TIP3   OH280100   3.185   5.702   0.539  0.3155  0.2378  0.3996
19562TIP3    H180101   3.094   5.692   0.569 -0.6742  1.8034 -1.8035
19562TIP3    H280102   3.202   5.796   0.548  1.2694  0.1527 -0.4165
19563TIP3   OH280103   0.046   2.385  13.489 -0.3081 -0.1829 -0.1689
19563TIP3    H180104  -0.009   2.351  13.418 -0.9366 -1.6375  0.9541
19563TIP3    H280105   0.134   2.389  13.452 -0.7399 -0.2389 -1.2371
19564TIP3   OH280106   2.559   2.982   2.883  0.2417  0.9826 -0.2473
19564TIP3    H180107   2.585   2.897   2.918 -0.1036  1.0931  0.2771
19564TIP3    H280108   2.615   3.045   2.929 -2.0414  1.4040  2.1839
19565TIP3   OH280109   5.859   1.816   0.317  0.0007 -0.0987 -0.3813
19565TIP3    H180110   5.921   1.766   0.263  0.2058 -0.4222  0.1398
19565TIP3    H280111   5.909   1.837   0.396 -0.3694  0.1673 -0.2167
19566TIP3   OH280112   5.570   4.134   6.273 -0.1911  0.0848  0.5543
19566TIP3    H180113   5.544   4.226   6.272 -0.6087 -0.0382 -0.4380
19566TIP3    H280114   5.534   4.100   6.355  0.1125  0.8325  1.0144
19567TIP3   OH280115   0.687   6.487  11.555  1.0615  0.3619  0.3139
19567TIP3    H180116   0.595   6.496  11.578  0.9584 -0.5555  0.2713
19567TIP3    H280117   0.689   6.420  11.486  1.6406  1.1952 -0.5136
19568TIP3   OH280118   3.202   2.187  14.844  0.0244  0.0763  0.5337
19568TIP3    H180119   3.282   2.237  14.859  0.3091 -0.7092  1.7745
19568TIP3    H280120   3.134   2.253  14.833  0.7432  0.7466 -0.0545
19569TIP3   OH280121   0.647   0.627  16.696  0.4199  0.7261  0.1810
19569TIP3    H180122   0.697   0.622  16.778  0.5742 -3.5305  0.0479
19569TIP3    H280123   0.556   0.627  16.724  0.4730 -0.5098  0.4203
19570TIP3   OH280124   1.221   2.319   1.593 -0.5064 -0.7129 -0.2849
19570TIP3    H180125   1.304   2.361   1.572  0.1336 -2.3789 -1.3143
19570TIP3    H280126   1.169   2.326   1.513 -0.3110 -1.9956 -0.5455
19571TIP3   OH280127   1.300   3.029  14.074  0.0279  0.4240  0.4465
19571TIP3    H180128   1.260   3.026  13.987 -1.5067  1.3579  1.0893
19571TIP3    H280129   1.380   2.976  14.065 -1.2335 -1.3780 -0.9305
19572TIP3   OH280130   4.768   3.708  13.823  0.6128  0.4530 -0.0933
19572TIP3    H180131   4.746   3.800  13.807  0.9961  0.8822  1.6598
19572TIP3    H280132   4.853   3.696  13.782  0.9727  1.1486  0.4181
19573TIP3   OH280133   5.807   3.923  11.935 -0.0856  0.2270 -0.6319
19573TIP3    H180134   5.825   4.000  11.881  0.8370  0.1907 -0.3976
19573TIP3    H280135   5.856   3.853  11.893 -0.6936 -0.1726 -0.6814
19574TIP3   OH280136   4.293   4.548   4.192  0.3369  0.2543 -0.0012
19574TIP3    H180137   4.351   4.537   4.116  1.0962 -0.6332  0.6870
19574TIP3    H280138   4.326   4.627   4.236 -0.7451  1.3792 -1.1222
19575TIP3   OH280139   2.747   3.688  13.762  0.2437 -0.4664  0.3665
19575TIP3    H180140   2.795   3.609  13.788  0.1945 -0.6122  0.0170
19575TIP3    H280141   2.686   3.704  13.834 -1.2067 -1.9487 -0.4810
19576TIP3   OH280142   5.901   0.425  16.438 -0.7056 -0.2846 -0.4621
19576TIP3    H180143   5.886   0.388  16.351  0.1433  0.6042 -1.0125
19576TIP3    H280144   5.930   0.515  16.421 -1.6933  0.2976  0.7930
19577TIP3   OH280145   2.939   6.020   4.909 -0.5183  0.6981 -0.0666
19577TIP3    H180146   3.002   5.967   4.860 -0.2193  2.2613 -1.4601
19577TIP3    H280147   2.914   5.965   4.983  1.7728 -0.3411  0.0176
19578TIP3   OH280148   4.415   1.028   1.434 -0.2231  0.3536  0.1329
19578TIP3    H180149   4.467   1.034   1.514 -1.9845 -0.8873  1.4506
19578TIP3    H280150   4.448   0.950   1.390  0.8662  1.1344 -0.4793
19579TIP3   OH280151   5.507   1.001   2.996  0.0367  0.0908 -0.6365
19579TIP3    H180152   5.509   0.908   2.975 -0.9228 -0.1149  0.1058
19579TIP3    H280153   5.599   1.026   3.001  0.4407 -1.5471  2.1866
19580TIP3   OH280154   3.355   1.309  12.385 -1.1024  0.2159 -0.7252
19580TIP3    H180155   3.335   1.397  12.417  0.5546 -0.1422  1.5432
19580TIP3    H280156   3.416   1.323  12.312  0.2211  0.9548  0.4830
19581TIP3   OH280157   0.519   5.855   3.635  0.1111  0.2014 -0.4168
19581TIP3    H180158   0.586   5.794   3.602  1.0047  1.3031 -0.7114
19581TIP3    H280159   0.554   5.885   3.719 -0.2890  0.3642 -0.3104
19582TIP3   OH280160   0.257   2.339  15.471  0.0385  0.3715  0.1202
19582TIP3    H180161   0.215   2.269  15.420 -0.4368  0.0841  0.8849
19582TIP3    H280162   0.303   2.391  15.406 -2.0158  1.0835 -0.8617
19583TIP3   OH280163   5.581   6.142   0.742 -0.8351 -0.1680  0.2910
19583TIP3    H180164   5.536   6.094   0.812 -0.3264 -0.3699  0.4819
19583TIP3    H280165   5.591   6.231   0.777 -0.1671 -0.3835  0.6721
19584TIP3   OH280166   0.825   3.562   0.393 -0.2519 -0.6781 -0.3850
19584TIP3    H180167   0.905   3.612   0.372  0.0692 -1.3653 -0.8210
19584TIP3    H280168   0.801   3.520   0.310 -0.6496 -1.0688 -0.0708
19585TIP3   OH280169   3.762   0.269   4.315 -0.0773  0.2055 -0.3031
19585TIP3    H180170   3.668   0.256   4.303 -0.2706  1.6149 -0.4393
19585TIP3    H280171   3.785   0.341   4.257  1.1789 -0.3695 -0.5627
19586TIP3   OH280172   0.959   4.443   2.092 -0.2324 -0.2267 -0.2573
19586TIP3    H180173   1.013   4.520   2.074 -1.1368  0.8136  1.2938
19586TIP3    H280174   0.909   4.466   2.170 -2.4464 -1.3824 -1.2347
19587TIP3   OH280175   0.275   4.100   5.177  0.7189  0.8695 -0.8326
19587TIP3    H180176   0.334   4.070   5.247 -0.8697 -0.5169 -0.0011
19587TIP3    H280177   0.313   4.065   5.097 -0.2404 -2.3483 -0.0462
19588TIP3   OH280178   2.880   1.010  10.912  0.2956  0.1799 -0.0653
19588TIP3    H180179   2.937   0.943  10.952 -0.8320 -0.7537  0.0217
19588TIP3    H280180   2.796   0.966  10.902 -0.4314  1.5644 -0.1364
19589TIP3   OH280181   5.369   5.378  14.672  0.0747 -0.1080 -0.0091
19589TIP3    H180182   5.355   5.470  14.649  0.9463  0.1241  0.3513
19589TIP3    H280183   5.367   5.377  14.768  0.0267 -0.4757 -0.0129
19590TIP3   OH280184   2.599   2.867  16.590  0.2498 -0.1116 -0.4618
19590TIP3    H180185   2.576   2.788  16.542  1.4782 -0.4173 -0.5538
19590TIP3    H280186   2.588   2.938  16.527 -0.6036 -0.2177 -0.4479
19591TIP3   OH280187   5.871   4.173  11.270  0.3738  0.1716  0.7815
19591TIP3    H180188   5.864   4.225  11.190  0.7474 -0.7751  0.0958
19591TIP3    H280189   5.949   4.119  11.255  0.4597  0.0007  1.8049
19592TIP3   OH280190   1.853   5.504   4.979  0.2981  0.0327  0.4002
19592TIP3    H180191   1.771   5.549   5.001 -0.9257 -2.2398  0.7609
19592TIP3    H280192   1.908   5.516   5.056 -1.1377 -1.4875  1.7598
19593TIP3   OH280193   2.041   6.046  15.846  0.2238  0.1686 -1.0485
19593TIP3    H180194   2.020   6.023  15.936  1.9767 -0.2186 -0.7123
19593TIP3    H280195   1.998   5.979  15.793 -0.0035 -0.1697 -0.4391
19594TIP3   OH280196   6.582   4.156   4.368 -0.4459 -0.3981  0.6772
19594TIP3    H180197   6.537   4.213   4.306  1.6910  0.2447 -0.4107
19594TIP3    H280198   6.575   4.069   4.330  0.0794 -0.1449 -0.0182
19595TIP3   OH280199   3.772   6.210   3.767 -0.3339 -0.3675 -0.2815
19595TIP3    H180200   3.712   6.216   3.842 -0.6310  0.8994 -0.5949
19595TIP3    H280201   3.775   6.117   3.746 -0.5575 -0.7028  1.0518
19596TIP3   OH280202   3.397   0.248   2.963  0.1336 -0.2415  0.2807
19596TIP3    H180203   3.419   0.249   2.870  0.6281  1.9359  0.3659
19596TIP3    H280204   3.481   0.237   3.007 -0.1320 -1.5517  0.4928
19597TIP3   OH280205   6.669   1.385   3.954  0.1427  0.2037  0.0502
19597TIP3    H180206   6.663   1.294   3.926 -0.0208  0.0529  0.5681
19597TIP3    H280207   6.762   1.399   3.969  0.0930 -0.0858  0.6448
19598TIP3   OH280208   6.002   1.957  11.610 -0.0160  0.3346 -0.4722
19598TIP3    H180209   5.987   2.028  11.547 -1.4979  1.6340  1.2501
19598TIP3    H280210   5.951   1.884  11.576 -0.2561  0.7952 -1.1295
19599TIP3   OH280211   3.073   4.046  14.451 -0.3878  0.3367  0.1587
19599TIP3    H180212   3.093   3.956  14.477  2.3532  0.6630 -0.5100
19599TIP3    H280213   3.048   4.040  14.359  0.1267  0.2781  0.0194
19600TIP3   OH280214   5.998   1.823  13.666 -0.3917 -0.4837 -0.2636
19600TIP3    H180215   6.028   1.767  13.738  1.2835  0.1913 -0.3770
19600TIP3    H280216   6.073   1.880  13.648 -1.2935  0.3376 -1.5842
19601TIP3   OH280217   0.171   5.773  14.490  0.2066 -0.2872  0.2384
19601TIP3    H180218   0.248   5.717  14.486  0.7624  0.4818 -0.0254
19601TIP3    H280219   0.170   5.807  14.579 -1.0589 -1.9685  0.9207
19602TIP3   OH280220   0.444   1.958   5.889  0.2456 -0.6349  0.3231
19602TIP3    H180221   0.379   2.004   5.941 -1.0551 -0.8260 -1.0563
19602TIP3    H280222   0.466   1.880   5.940  0.7570  0.3321  1.6223
19603TIP3   OH280223   3.391   4.375   3.050  0.2907  0.3163  0.7851
19603TIP3    H180224   3.472   4.423   3.035 -0.6845  2.3877  1.8016
19603TIP3    H280225   3.420   4.289   3.082  2.0665  0.4102 -0.4213
19604TIP3   OH280226   0.221   0.801  15.562 -0.2165  0.2947 -0.8215
19604TIP3    H180227   0.213   0.752  15.644 -0.8671  1.7354  0.0074
19604TIP3    H280228   0.137   0.788  15.518 -0.0701 -0.0233 -1.0140
19605TIP3   OH280229   1.789   5.644   1.705 -0.4371 -0.4328 -0.2218
19605TIP3    H180230   1.781   5.621   1.798  0.7509  0.0848  0.0297
19605TIP3    H280231   1.840   5.572   1.668 -0.9324 -0.6507 -0.4819
19606TIP3   OH280232   4.882   6.126  14.146 -0.5921 -0.6123 -0.7807
19606TIP3    H180233   4.852   6.118  14.236 -0.3531  3.1665 -0.1744
19606TIP3    H280234   4.802   6.136  14.095 -0.6727  0.0321 -0.5414
19607TIP3   OH280235   3.029   5.370   3.464 -0.2026  0.1390  0.2168
19607TIP3    H180236   3.029   5.323   3.381  1.0252  1.2972 -0.4775
19607TIP3    H280237   2.963   5.438   3.453 -2.0353 -1.3632  1.2490
19608TIP3   OH280238   0.245   2.976   3.563 -0.0159  0.0229 -0.1188
19608TIP3    H180239   0.253   2.990   3.658 -0.7904 -0.2452 -0.0056
19608TIP3    H280240   0.308   3.036   3.524  2.5742 -2.0113  0.6765
19609TIP3   OH280241   2.189   1.683   4.664 -0.4505 -0.4591 -0.1284
19609TIP3    H180242   2.147   1.598   4.657 -3.2621  0.7833  0.4487
19609TIP3    H280243   2.172   1.712   4.754  0.9919  0.4853 -0.1101
19610TIP3   OH280244   2.108   5.774   2.976 -0.1605  0.2931  0.0281
19610TIP3    H180245   2.170   5.713   2.935 -0.3202 -0.0938  0.3430
19610TIP3    H280246   2.022   5.737   2.957 -0.2820  0.6779 -0.1747
19611TIP3   OH280247   3.933   2.692   6.060 -0.1055 -0.4404 -0.0339
19611TIP3    H180248   4.022   2.720   6.080 -0.3887  0.3487  0.1667
19611TIP3    H280249   3.906   2.642   6.137 -0.3126  0.4876  0.5143
19612TIP3   OH280250   4.679   5.921  14.394  0.0191 -0.0451 -0.1027
19612TIP3    H180251   4.775   5.915  14.394  0.2122  1.5786  1.9251
19612TIP3    H280252   4.650   5.832  14.411  1.2817 -0.2660  1.1250
19613TIP3   OH280253   5.292   2.419   5.510 -0.3194  0.3816  0.5356
19613TIP3    H180254   5.352   2.448   5.441  1.0229  0.3714  1.6527
19613TIP3    H280255   5.304   2.484   5.580 -0.9665 -0.1261  1.1227
19614TIP3   OH280256   4.223   6.511   5.976 -0.0413 -0.3383 -0.1766
19614TIP3    H180257   4.312   6.479   5.963 -0.6106 -1.7647 -0.7879
19614TIP3    H280258   4.194   6.470   6.057 -0.2455 -0.0999 -0.1252
19615TIP3   OH280259   6.227   5.630  16.557  0.0753 -0.8189 -0.1190
19615TIP3    H180260   6.259   5.560  16.614  1.8287 -1.6143 -1.9667
19615TIP3    H280261   6.267   5.612  16.472  0.0254  2.0383 -0.8538
19616TIP3   OH280262   4.199   2.395  14.494 -0.1335  0.2080 -0.1061
19616TIP3    H180263   4.282   2.406  14.447  0.4856  1.5227  1.1773
19616TIP3    H280264   4.164   2.484  14.501 -0.7691 -0.1067  0.8933
19617TIP3   OH280265   2.726   2.332   4.066  0.0337  0.0331 -0.2852
19617TIP3    H180266   2.775   2.409   4.037 -1.7481  0.9865 -0.8816
19617TIP3    H280267   2.642   2.367   4.095 -1.5993 -1.8310 -2.4181
19618TIP3   OH280268   0.409   2.046   3.265 -0.2781 -0.3020  0.0362
19618TIP3    H180269   0.341   1.991   3.305  0.1411 -0.6088  0.3361
19618TIP3    H280270   0.372   2.134   3.265 -0.6507 -0.4571  0.2567
19619TIP3   OH280271   4.525   1.814   1.152 -0.0161  0.7389 -0.1949
19619TIP3    H180272   4.572   1.737   1.183 -3.0797 -1.8234 -1.2662
19619TIP3    H280273   4.532   1.878   1.223 -0.5335 -2.0376  2.5484
19620TIP3   OH280274   6.244   5.615  12.493  0.1347 -0.1561 -0.0504
19620TIP3    H180275   6.208   5.620  12.404  0.5449 -0.1663 -0.2195
19620TIP3    H280276   6.252   5.707  12.520  1.0978 -0.1046 -0.4724
19621TIP3   OH280277   1.790   5.951   1.231 -0.1746 -0.2022 -0.4822
19621TIP3    H180278   1.886   5.958   1.224 -0.2590  2.1147 -0.1697
19621TIP3    H280279   1.766   5.888   1.163  1.5048 -0.1961 -1.1453
19622TIP3   OH280280   4.409   4.579   3.572 -0.2648  0.0067 -0.1007
19622TIP3    H180281   4.396   4.491   3.607 -1.2378 -1.3272 -3.4093
19622TIP3    H280282   4.325   4.623   3.586  0.2604  0.5473  1.6655
19623TIP3   OH280283   0.412   1.273   2.087 -0.1413 -0.1383 -0.1054
19623TIP3    H180284   0.485   1.294   2.030  0.0427  0.4665  0.3353
19623TIP3    H280285   0.403   1.350   2.143 -1.6058  0.1262 -0.6611
19624TIP3   OH280286   3.157   5.815   4.789 -0.6664 -0.4045  0.2092
19624TIP3    H180287   3.155   5.735   4.737 -0.2331 -0.9788  1.0582
19624TIP3    H280288   3.216   5.873   4.740 -2.0584 -0.0620 -1.1299
19625TIP3   OH280289   4.243   1.842  13.089  0.0966 -0.4386 -0.4675
19625TIP3    H180290   4.293   1.903  13.143 -0.5942  1.0838 -1.4770
19625TIP3    H280291   4.196   1.787  13.152  0.6991  0.0895  0.4708
19626TIP3   OH280292   0.781   4.527  11.857  0.2980 -0.2006  0.2297
19626TIP3    H180293   0.852   4.470  11.828  0.0239 -0.3808 -0.0921
19626TIP3    H280294   0.738   4.478  11.927  1.5998  0.6688  1.7002
19627TIP3   OH280295   3.631   4.942   5.147 -0.4301  0.1496  0.1492
19627TIP3    H180296   3.618   5.028   5.187  0.6572 -0.5325  2.0745
19627TIP3    H280297   3.556   4.890   5.177  0.6972 -0.5383  1.9091
19628TIP3   OH280298   2.760   5.878  17.126 -0.5769 -0.1309 -0.2578
19628TIP3    H180299   2.825   5.947  17.139 -2.4128  1.7294 -0.4969
19628TIP3    H280300   2.741   5.845  17.214 -0.0690  0.0089 -0.0919
19629TIP3   OH280301   6.187   2.044   3.367  0.2494  0.1068 -0.7653
19629TIP3    H180302   6.234   1.968   3.402  0.0559 -0.0542 -0.8580
19629TIP3    H280303   6.175   2.024   3.275 -0.3052 -0.0014 -0.6678
19630TIP3   OH280304   3.859   6.574  14.146  0.3609  0.2931 -0.4034
19630TIP3    H180305   3.789   6.621  14.190 -0.6738 -0.9510 -0.6754
19630TIP3    H280306   3.925   6.560  14.213 -0.2483  0.2981  0.2013
19631TIP3   OH280307   5.972   6.289  13.588  0.7642 -0.4172 -0.0948
19631TIP3    H180308   5.983   6.198  13.559 -2.3041 -0.4373 -1.5944
19631TIP3    H280309   5.980   6.341  13.508 -0.0414  0.3523  0.3105
19632TIP3   OH280310   3.274   1.161  13.201  0.2558  0.4579 -0.8058
19632TIP3    H180311   3.315   1.138  13.117 -0.3553  0.9540 -1.2540
19632TIP3    H280312   3.241   1.250  13.188 -3.0746 -0.7010 -1.3621
19633TIP3   OH280313   5.187   2.363  16.125  0.2361 -0.2501  0.2225
19633TIP3    H180314   5.221   2.301  16.190  1.1755 -0.8640 -0.7994
19633TIP3    H280315   5.259   2.424  16.112 -0.2449  0.3438  0.3369
19634TIP3   OH280316   3.838   1.371  15.300 -0.4949 -0.3042  0.2642
19634TIP3    H180317   3.905   1.432  15.331 -0.2246 -0.2990 -0.3065
19634TIP3    H280318   3.758   1.397  15.346 -0.3046  0.2612  0.2891
19635TIP3   OH280319   4.403   2.138   2.732  0.0880 -0.1148  0.0183
19635TIP3    H180320   4.422   2.070   2.796 -0.9426  0.0319  0.5072
19635TIP3    H280321   4.486   2.183   2.718  0.4768 -0.6061  0.7091
19636TIP3   OH280322   3.737   2.123   4.981 -0.2508 -0.8218 -0.3184
19636TIP3    H180323   3.748   2.031   5.005  1.4902 -0.6079 -0.1771
19636TIP3    H280324   3.779   2.172   5.052 -0.6986  0.0778 -0.6508
19637TIP3   OH280325   2.776   4.585   5.846 -0.0192  0.1070 -0.2401
19637TIP3    H180326   2.842   4.521   5.821 -1.1323 -0.8711 -0.7949
19637TIP3    H280327   2.782   4.653   5.779 -0.1995 -0.4591 -0.8527
19638TIP3   OH280328   5.981   1.642  15.711  0.2880  0.2460  0.1648
19638TIP3    H180329   5.898   1.638  15.664  0.5503  3.1765 -0.7778
19638TIP3    H280330   5.973   1.719  15.767  2.4832  0.8497 -0.2590
19639TIP3   OH280331   1.984   4.012   2.049 -0.3042  0.3783 -0.5794
19639TIP3    H180332   1.968   3.920   2.066  0.0552  0.6462  1.4026
19639TIP3    H280333   1.901   4.045   2.015 -0.8333 -0.3909 -0.0536
19640TIP3   OH280334   4.610   3.139  14.372 -0.0466  0.3867  0.6302
19640TIP3    H180335   4.593   3.122  14.465 -0.2324 -3.3674  0.0633
19640TIP3    H280336   4.699   3.174  14.370  1.5867 -3.2360  2.0689
19641TIP3   OH280337   2.028   3.766  15.271 -0.2677  0.3529  0.0565
19641TIP3    H180338   2.119   3.765  15.241 -0.2059 -1.2729  0.2121
19641TIP3    H280339   1.985   3.699  15.219 -1.3435  0.9629  0.1316
19642TIP3   OH280340   6.038   5.262   2.083  0.2322  0.1070  0.2302
19642TIP3    H180341   6.016   5.176   2.118  2.1658 -0.4881  0.0962
19642TIP3    H280342   5.972   5.278   2.016  0.4108 -1.7500 -0.4425
19643TIP3   OH280343   3.781   5.927   2.173 -0.6876  0.0336  0.0806
19643TIP3    H180344   3.843   5.980   2.223 -1.4453  0.8804  0.1494
19643TIP3    H280345   3.778   5.969   2.087  2.9172 -3.1129 -1.8999
19644TIP3   OH280346   5.190   6.453  14.911  0.0265  0.3234 -0.2171
19644TIP3    H180347   5.277   6.464  14.873 -0.4736  1.7428 -1.0592
19644TIP3    H280348   5.203   6.463  15.005  0.8790 -0.2945 -0.2571
19645TIP3   OH280349   4.844   4.284  16.710  0.4025  0.1126 -0.2664
19645TIP3    H180350   4.914   4.349  16.719  1.0650 -0.6144 -0.0041
19645TIP3    H280351   4.855   4.249  16.621  0.6497 -0.2959 -0.0798
19646TIP3   OH280352   2.414   6.370   6.233 -0.2621  0.2308  0.1965
19646TIP3    H180353   2.505   6.380   6.205 -0.8604 -2.4039 -3.3964
19646TIP3    H280354   2.413   6.291   6.286 -0.3208  0.9349  1.2688
19647TIP3   OH280355   6.629   4.110   6.281  0.1138 -0.1583 -0.2425
19647TIP3    H180356   6.669   4.041   6.334  0.8074  2.0107  2.2736
19647TIP3    H280357   6.699   4.173   6.266 -1.0916  1.2547 -0.1884
19648TIP3   OH280358   5.485   1.170  11.197  0.1669  0.2934  0.3186
19648TIP3    H180359   5.443   1.241  11.149  0.8589  0.7657  0.3924
19648TIP3    H280360   5.561   1.211  11.238  3.5301 -1.4063 -3.5734
19649TIP3   OH280361   0.772   2.339   2.771  0.3492  0.6169  0.1439
19649TIP3    H180362   0.781   2.405   2.839 -2.3152  1.1310  0.0938
19649TIP3    H280363   0.718   2.381   2.704  0.2654 -0.9593 -0.8231
19650TIP3   OH280364   2.969   3.223  11.571  0.2531 -0.0692 -0.1743
19650TIP3    H180365   2.913   3.228  11.493  1.0277  0.0858 -0.7358
19650TIP3    H280366   3.054   3.253  11.540  0.5795 -0.0527  0.7336
19651TIP3   OH280367   2.822   2.127   4.569  0.6904  0.1125 -0.3768
19651TIP3    H180368   2.875   2.082   4.504  0.3500  1.3136 -1.5206
19651TIP3    H280369   2.775   2.195   4.520 -0.3385  0.4136  0.9439
19652TIP3   OH280370   3.654   0.306   4.801 -0.0786 -0.1660  0.4451
19652TIP3    H180371   3.690   0.280   4.716  1.1272  1.1042  0.5395
19652TIP3    H280372   3.594   0.378   4.781 -0.0429 -0.0847  0.6241
19653TIP3   OH280373   4.071   2.430   4.722 -0.3569  0.3070 -0.0757
19653TIP3    H180374   4.020   2.376   4.782 -0.7410 -1.4254 -1.8453
19653TIP3    H280375   4.162   2.402   4.734 -0.2274  0.9932  0.6698
19654TIP3   OH280376   1.308   0.202   2.616  0.7350 -0.6535  0.0894
19654TIP3    H180377   1.311   0.282   2.564  1.4623 -1.3023 -0.9248
19654TIP3    H280378   1.337   0.134   2.555 -1.1000 -1.8943  0.5387
19655TIP3   OH280379   1.995   5.946   5.810 -0.2295  0.3866  0.2627
19655TIP3    H180380   1.973   5.967   5.901  1.1687  0.1146  0.6859
19655TIP3    H280381   1.926   5.886   5.781 -0.7858  0.6246  1.0821
19656TIP3   OH280382   4.261   3.677   6.228  0.5456 -0.6852  0.1486
19656TIP3    H180383   4.249   3.735   6.303 -0.3045 -0.7465  0.0768
19656TIP3    H280384   4.304   3.599   6.264 -0.3281 -0.9412  0.6978
19657TIP3   OH280385   0.870   6.509  12.595  0.4084  0.3451 -0.2066
19657TIP3    H180386   0.837   6.564  12.666 -0.2171 -2.0642  1.4542
19657TIP3    H280387   0.833   6.549  12.516 -0.2250  2.1403  0.9252
19658TIP3   OH280388   0.181   0.366   4.488  0.4568  0.1723 -0.1915
19658TIP3    H180389   0.247   0.312   4.532  1.0062  0.7716 -0.2579
19658TIP3    H280390   0.164   0.438   4.549 -1.1415 -0.6676  0.4142
19659TIP3   OH280391   5.277   0.358   1.868 -0.0975 -0.2097 -0.0525
19659TIP3    H180392   5.352   0.417   1.879 -0.8272  0.4748  1.5566
19659TIP3    H280393   5.203   0.416   1.853 -0.4128 -0.8625 -1.1464
19660TIP3   OH280394   3.044   4.959   4.797 -0.2232  0.3416  0.3125
19660TIP3    H180395   3.050   5.026   4.728 -0.1299 -1.6644 -1.7343
19660TIP3    H280396   2.956   4.923   4.788 -0.0108 -0.3301  0.8673
19661TIP3   OH280397   5.406   3.995   3.427 -0.5029 -0.1471 -0.4476
19661TIP3    H180398   5.422   4.089   3.437  0.4115 -0.4163  0.7551
19661TIP3    H280399   5.314   3.990   3.400 -0.4141  1.1081 -1.0972
19662TIP3   OH280400   2.292   6.072  12.670 -0.2194  0.1678  0.1829
19662TIP3    H180401   2.247   6.012  12.729  0.6961 -0.0401  0.6868
19662TIP3    H280402   2.248   6.156  12.682 -1.6314 -0.4081 -0.6574
19663TIP3   OH280403   2.286   1.639   1.546  0.0997  0.3727 -0.2516
19663TIP3    H180404   2.257   1.681   1.627  1.7860 -0.7267  0.9918
19663TIP3    H280405   2.252   1.549   1.553 -1.4662  0.7876 -1.7690
19664TIP3   OH280406   4.695   6.251  14.735 -0.5121 -0.7285  0.4285
19664TIP3    H180407   4.749   6.200  14.795  0.1183 -2.0210 -1.1499
19664TIP3    H280408   4.608   6.251  14.775  0.2986  0.1984  2.3169
19665TIP3   OH280409   0.526   4.842   5.305 -0.4183  0.5779  0.1963
19665TIP3    H180410   0.501   4.750   5.306  0.2520  0.3889 -0.0719
19665TIP3    H280411   0.491   4.876   5.223  1.7798 -0.1563 -1.1439
19666TIP3   OH280412   6.404   6.246   2.763 -0.3067 -0.3379  0.7847
19666TIP3    H180413   6.336   6.182   2.744  0.9825 -1.6636  0.4724
19666TIP3    H280414   6.361   6.331   2.751 -1.5750 -1.1266 -0.6246
19667TIP3   OH280415   2.487   5.224  15.473 -0.0055  0.1847  0.1310
19667TIP3    H180416   2.535   5.220  15.390 -0.0188  0.1654  0.1244
19667TIP3    H280417   2.495   5.136  15.510 -1.6186 -0.3671 -0.7618
19668TIP3   OH280418   3.390   4.709   1.600 -0.1508 -0.2930  0.0382
19668TIP3    H180419   3.394   4.618   1.569  1.9999 -0.0918 -0.4286
19668TIP3    H280420   3.378   4.760   1.520 -1.7049 -0.1474  0.3361
19669TIP3   OH280421   0.017   5.885  16.184 -0.5597  0.4089  0.6382
19669TIP3    H180422  -0.054   5.948  16.173 -0.9062  0.0559  0.8469
19669TIP3    H280423   0.008   5.854  16.274 -1.1605 -0.8604  0.1694
19670TIP3   OH280424   4.116   1.787   4.597 -0.5672 -0.0072 -0.8867
19670TIP3    H180425   4.065   1.712   4.568 -1.4628 -0.0747  0.7425
19670TIP3    H280426   4.091   1.800   4.688 -1.0366  2.7559 -1.3033
19671TIP3   OH280427   6.039   1.409   3.778 -0.4105 -0.1919 -0.2775
19671TIP3    H180428   6.087   1.399   3.860 -0.3331 -1.5673 -0.4621
19671TIP3    H280429   5.981   1.484   3.793 -0.9235 -0.8518  1.3189
19672TIP3   OH280430   4.176   3.780  16.055 -0.5813  0.0765 -0.8820
19672TIP3    H180431   4.140   3.716  16.117  1.8081 -2.5497 -2.0038
19672TIP3    H280432   4.241   3.829  16.106  0.2558 -0.9974 -0.8913
19673TIP3   OH280433   2.166   4.005  14.753 -0.4992  0.2767  0.0886
19673TIP3    H180434   2.209   4.034  14.833 -1.7713  1.7511  0.2698
19673TIP3    H280435   2.093   3.951  14.783  0.0819 -0.6752 -0.1597
19674TIP3   OH280436   1.339   5.142  12.689  0.3018 -0.8820 -0.1143
19674TIP3    H180437   1.350   5.077  12.759 -0.1740  0.5883  1.4147
19674TIP3    H280438   1.361   5.096  12.609 -0.7800 -3.1553  0.8070
19675TIP3   OH280439   2.118   4.555  14.927  0.3416  0.3929  0.0719
19675TIP3    H180440   2.038   4.601  14.903 -0.9490 -0.2170  2.8670
19675TIP3    H280441   2.187   4.621  14.916 -1.2986  2.8956  3.0239
19676TIP3   OH280442   0.925   3.659   2.613  0.4969 -0.4385 -0.2639
19676TIP3    H180443   0.958   3.661   2.524  0.8300  1.9859 -0.1501
19676TIP3    H280444   0.868   3.736   2.619 -1.4831 -1.9074  0.9220
19677TIP3   OH280445   0.663   3.059   1.120 -0.1716 -0.3714 -0.0840
19677TIP3    H180446   0.637   2.993   1.185  0.6748  0.9060  1.6059
19677TIP3    H280447   0.659   3.012   1.036 -1.2989 -2.0675  0.8612
19678TIP3   OH280448   1.404   6.199   2.906  0.0288  0.2133  0.2353
19678TIP3    H180449   1.446   6.279   2.939 -1.1740  0.6941  0.6971
19678TIP3    H280450   1.428   6.195   2.814  0.8286  0.6259  0.4218
19679TIP3   OH280451   1.987   6.299  12.044 -0.1433 -0.1544  0.1874
19679TIP3    H180452   2.040   6.376  12.024  2.0230 -0.9905  2.2762
19679TIP3    H280453   1.906   6.334  12.082  0.0208  1.1002 -0.5789
19680TIP3   OH280454   6.401   2.075   0.561  0.4268  0.1948 -0.3462
19680TIP3    H180455   6.434   2.120   0.639  1.6232 -1.6086  0.2537
19680TIP3    H280456   6.377   1.988   0.592 -1.8875  0.3780 -1.4564
19681TIP3   OH280457   0.512   3.967  16.090  0.0615 -1.0955 -0.4357
19681TIP3    H180458   0.427   3.942  16.054  0.1630 -1.5517 -0.3610
19681TIP3    H280459   0.555   4.013  16.018  0.4255 -2.3579 -1.0594
19682TIP3   OH280460   0.589   6.067   0.999 -0.1463 -0.4327 -0.4157
19682TIP3    H180461   0.582   6.149   1.047 -1.5391 -0.5987 -0.3067
19682TIP3    H280462   0.683   6.046   1.003  0.1778  0.9321 -0.1145
19683TIP3   OH280463   1.930   4.705   0.912  0.2234 -0.1312  0.6421
19683TIP3    H180464   1.854   4.721   0.969 -1.5162 -0.1477 -1.5442
19683TIP3    H280465   1.923   4.612   0.889  1.8099 -0.5150  1.5712
19684TIP3   OH280466   5.330   0.012  10.714 -0.3180 -0.0754 -0.7150
19684TIP3    H180467   5.407  -0.044  10.725 -0.6406 -0.4802 -0.4516
19684TIP3    H280468   5.275  -0.037  10.652 -2.1501 -1.7780  2.0439
19685TIP3   OH280469   2.523   4.507  10.561  0.2126  0.7220 -0.1196
19685TIP3    H180470   2.473   4.468  10.632  0.3521  2.1146  0.7810
19685TIP3    H280471   2.578   4.436  10.529 -0.3750 -0.1171  0.6891
19686TIP3   OH280472   1.281   2.695   6.009 -0.6082  0.4087 -0.7102
19686TIP3    H180473   1.216   2.762   5.990  0.9535  1.8094 -1.3446
19686TIP3    H280474   1.300   2.655   5.924 -0.0526  0.5783 -0.6701
19687TIP3   OH280475   0.658   0.636  13.753 -0.2622 -0.2264 -0.4383
19687TIP3    H180476   0.585   0.696  13.760  0.0784  0.1242  0.1359
19687TIP3    H280477   0.634   0.562  13.808 -0.8284 -0.7848 -1.4028
19688TIP3   OH280478   5.442   4.361   6.348  0.5491  0.2232 -0.5599
19688TIP3    H180479   5.361   4.383   6.395  0.9877  1.0134 -0.1589
19688TIP3    H280480   5.460   4.439   6.295  1.0692  0.0642 -0.6175
19689TIP3   OH280481   0.502   4.016   3.699  0.4947 -0.4174 -0.0024
19689TIP3    H180482   0.427   3.998   3.643  0.0902 -0.0485  0.4140
19689TIP3    H280483   0.508   4.111   3.702 -0.1906 -0.3939  1.4765
19690TIP3   OH280484   2.622   1.160   2.260 -0.5026 -0.3629 -0.5389
19690TIP3    H180485   2.663   1.177   2.345  0.7473  0.6607 -1.2951
19690TIP3    H280486   2.542   1.214   2.261 -0.0292  0.3532 -0.3384
19691TIP3   OH280487   3.090   5.202   3.913  0.0058 -0.6200  0.7139
19691TIP3    H180488   3.013   5.246   3.875 -1.9331 -2.1221  2.6520
19691TIP3    H280489   3.119   5.261   3.983 -0.6972 -0.9739  1.3202
19692TIP3   OH280490   1.733   0.241  14.018  0.4449  0.4345 -0.0232
19692TIP3    H180491   1.772   0.318  14.060 -2.4911  2.6536 -1.0634
19692TIP3    H280492   1.757   0.249  13.925  0.3247 -0.0661 -0.1034
19693TIP3   OH280493   3.154   4.110   1.913 -0.2968 -0.7340 -0.1713
19693TIP3    H180494   3.201   4.073   1.988 -0.2157  0.4648  0.3967
19693TIP3    H280495   3.074   4.057   1.907 -0.3563 -0.7880  0.8349
19694TIP3   OH280496   6.707   3.753   4.908  0.3584  0.0089 -0.8005
19694TIP3    H180497   6.777   3.806   4.947  0.9433 -0.3174 -1.3758
19694TIP3    H280498   6.748   3.712   4.832 -0.5283 -0.0192 -1.2768
19695TIP3   OH280499   5.902   4.355   4.006 -0.1861  0.6775  1.2543
19695TIP3    H180500   5.918   4.271   4.049 -0.0926  0.1974  0.3030
19695TIP3    H280501   5.849   4.334   3.929 -0.3382  1.5179  1.1139
19696TIP3   OH280502   1.354   1.219  12.054 -0.1992  0.8519 -0.0278
19696TIP3    H180503   1.280   1.232  11.995 -1.2161 -1.5350  0.6061
19696TIP3    H280504   1.379   1.128  12.042 -0.4119  0.2583  3.1386
19697TIP3   OH280505   4.360   1.933   3.255  0.0261 -0.0676 -0.1422
19697TIP3    H180506   4.393   1.973   3.175 -0.9348  1.2093  0.0789
19697TIP3    H280507   4.411   1.852   3.263  2.8784  1.5754 -0.0150
19698TIP3   OH280508   6.023   5.426   4.218  0.9173  0.3685  0.3724
19698TIP3    H180509   5.950   5.486   4.230 -2.2864 -3.1446  0.0757
19698TIP3    H280510   6.043   5.395   4.307  0.4089 -0.4205  0.2177
19699TIP3   OH280511   3.771   0.556  10.478 -0.3613 -0.0870 -0.1321
19699TIP3    H180512   3.828   0.630  10.455 -2.2800  1.4663 -0.1510
19699TIP3    H280513   3.804   0.483  10.426  0.8036  1.0860 -1.1040
19700TIP3   OH280514   2.723   0.895   5.504  0.2200  0.1225 -0.5413
19700TIP3    H180515   2.749   0.809   5.539 -2.5096 -0.8217 -0.5981
19700TIP3    H280516   2.674   0.936   5.575 -1.3918  0.1532 -1.6202
19701TIP3   OH280517   1.541   2.446  12.228 -0.4579  0.0204  0.7155
19701TIP3    H180518   1.556   2.362  12.186  0.3434  0.0182  0.9948
19701TIP3    H280519   1.455   2.473  12.197  0.1958  0.1299 -1.1018
19702TIP3   OH280520   2.896   1.757   3.284 -0.2138  0.1784 -0.1583
19702TIP3    H180521   2.971   1.709   3.319 -0.3119  1.0723  1.3868
19702TIP3    H280522   2.842   1.691   3.241 -1.3682 -1.5512  3.5907
19703TIP3   OH280523   3.257   0.042   0.336  0.3710  0.0646  0.4778
19703TIP3    H180524   3.226  -0.034   0.385  1.0896 -1.0517 -0.7318
19703TIP3    H280525   3.301   0.005   0.260 -1.8470  1.7252 -1.7848
19704TIP3   OH280526   5.990   4.672  17.308 -0.0745 -0.1920 -0.2746
19704TIP3    H180527   5.918   4.716  17.354 -0.5664 -0.5469 -0.7045
19704TIP3    H280528   5.985   4.704  17.218 -0.6026 -1.3163 -0.6594
19705TIP3   OH280529   2.827   2.199   2.257  0.4450 -0.5627  0.2767
19705TIP3    H180530   2.773   2.134   2.304  1.4642 -1.2004  0.6030
19705TIP3    H280531   2.858   2.257   2.326 -2.4390  1.8708 -0.2544
19706TIP3   OH280532   5.110   2.641   0.014  0.5160 -0.4832  0.3990
19706TIP3    H180533   5.155   2.724   0.028  1.5803 -0.8477 -0.6329
19706TIP3    H280534   5.145   2.583   0.083  0.6486 -0.4037  0.3983
19707TIP3   OH280535   0.145   6.481  14.914  0.2838 -0.1115 -0.1185
19707TIP3    H180536   0.209   6.535  14.868 -0.5888  1.5093  0.4946
19707TIP3    H280537   0.198   6.417  14.962  1.2437 -1.2269 -2.5197
19708TIP3   OH280538   5.978   4.109  16.471 -0.1878  0.2680  0.1747
19708TIP3    H180539   6.055   4.164  16.484  1.3253 -1.6431 -0.0499
19708TIP3    H280540   5.970   4.101  16.376  0.1502 -0.5439  0.2023
19709TIP3   OH280541   3.369   5.837  17.093 -0.3013 -0.1002  0.0996
19709TIP3    H180542   3.315   5.884  17.157 -1.6022 -1.1858 -0.1384
19709TIP3    H280543   3.426   5.781  17.145 -1.9277 -1.5984  0.3816
19710TIP3   OH280544   0.605   6.027  13.813  0.6020  0.4649 -0.0839
19710TIP3    H180545   0.530   5.985  13.770  1.1834  0.5687 -1.2597
19710TIP3    H280546   0.585   6.024  13.906 -0.2054 -0.7939 -0.2781
19711TIP3   OH280547   1.982   3.948   0.981 -0.3751 -0.0495 -0.3760
19711TIP3    H180548   2.033   3.869   0.996  0.5835  0.4878 -0.7186
19711TIP3    H280549   2.010   4.008   1.049  1.1245  1.0218 -1.8449
19712TIP3   OH280550   2.210   3.974   3.179  0.0142 -0.3562 -0.2694
19712TIP3    H180551   2.147   4.011   3.240 -0.7024 -0.3278 -1.0046
19712TIP3    H280552   2.266   3.919   3.233  2.1942  2.9709  1.1929
19713TIP3   OH280553   1.829   0.716   6.106  0.1705 -0.0012 -0.6368
19713TIP3    H180554   1.924   0.719   6.095  0.2312  1.1387  0.0151
19713TIP3    H280555   1.812   0.631   6.148  0.7896 -0.6120 -1.5891
19714TIP3   OH280556   6.771   1.018   6.379 -0.4022 -0.0737  0.0300
19714TIP3    H180557   6.825   1.027   6.457  0.9784 -3.0740 -0.4201
19714TIP3    H280558   6.747   0.925   6.377 -1.8070  0.2604 -2.2009
19715TIP3   OH280559   4.303   3.277   3.152  0.5371 -0.8454 -0.0934
19715TIP3    H180560   4.209   3.270   3.168  0.2733  2.7839  0.7631
19715TIP3    H280561   4.310   3.317   3.066  1.2884 -0.4172  0.1638
19716TIP3   OH280562   3.036   5.159   3.267  0.5646  0.0190 -0.0311
19716TIP3    H180563   2.964   5.103   3.238  1.4963 -1.3488  0.1781
19716TIP3    H280564   3.068   5.200   3.186  0.1359 -0.0753 -0.2528
19717TIP3   OH280565   1.492   4.436  17.324 -0.0361  0.2046 -0.3525
19717TIP3    H180566   1.466   4.497  17.392  0.2877 -0.5908  0.5120
19717TIP3    H280567   1.470   4.350  17.359 -0.0369 -0.2125 -1.3345
19718TIP3   OH280568   2.545   3.046  14.219 -0.7373  0.1998  0.0735
19718TIP3    H180569   2.450   3.060  14.223 -0.7219  0.6443 -0.8611
19718TIP3    H280570   2.583   3.126  14.254 -0.7047  0.6428 -0.9302
19719TIP3   OH280571   1.985   5.625   1.399 -0.3091 -0.5336 -0.3685
19719TIP3    H180572   2.038   5.603   1.476 -1.4067  1.0186  0.9081
19719TIP3    H280573   1.894   5.619   1.430 -0.7586  2.9507 -0.6058
19720TIP3   OH280574   3.957   5.631  11.552 -0.2971  0.3993  0.4390
19720TIP3    H180575   3.873   5.673  11.534 -0.5958 -0.1366  0.5671
19720TIP3    H280576   3.936   5.539  11.567  0.4748 -0.0210 -0.8895
19721TIP3   OH280577   6.338   5.679   0.762 -0.1594 -0.1399  0.2622
19721TIP3    H180578   6.302   5.730   0.835  0.0756  0.4199 -0.0033
19721TIP3    H280579   6.363   5.595   0.801 -0.4261 -0.0011  0.7364
19722TIP3   OH280580   1.129   0.565  15.646 -0.0164 -0.1166 -0.0972
19722TIP3    H180581   1.179   0.532  15.721 -0.2539 -0.4828 -0.0999
19722TIP3    H280582   1.051   0.604  15.685  0.9747  1.8713  0.0474
19723TIP3   OH280583   1.618   5.687  12.869 -0.2979  0.5927 -0.0997
19723TIP3    H180584   1.592   5.656  12.783  1.9943 -1.2880 -0.2081
19723TIP3    H280585   1.669   5.767  12.851 -0.0762  0.3694 -0.4722
19724TIP3   OH280586   6.275   2.869   4.552  0.1591  0.0651 -0.0785
19724TIP3    H180587   6.350   2.885   4.494  0.8533  0.8469  0.9890
19724TIP3    H280588   6.296   2.787   4.596  0.7254  0.6045  0.6895
19725TIP3   OH280589   6.097   2.807  15.930  0.4069  0.0286 -0.6026
19725TIP3    H180590   6.096   2.892  15.885  0.1203  1.1857  1.4515
19725TIP3    H280591   6.085   2.743  15.860  0.1896  1.6969 -2.1808
19726TIP3   OH280592   5.802   1.488  17.033  0.2533  0.3184 -0.2761
19726TIP3    H180593   5.824   1.443  16.952  1.1796  1.4018 -0.6474
19726TIP3    H280594   5.709   1.509  17.025 -0.5661 -2.5706  0.4488
19727TIP3   OH280595   1.119   4.162  13.836  0.1449 -0.5758 -0.0329
19727TIP3    H180596   1.093   4.100  13.904 -1.0797 -0.6529 -0.5394
19727TIP3    H280597   1.071   4.242  13.855 -0.1708 -0.5792 -0.7644
19728TIP3   OH280598   3.739   1.742   5.424  0.4085  0.5623 -0.2817
19728TIP3    H180599   3.788   1.820   5.449  2.8757 -0.3969 -1.7515
19728TIP3    H280600   3.712   1.703   5.507  1.3113  1.6821  0.5739
19729TIP3   OH280601   1.674   1.437   5.028  0.2493  0.0895 -0.0077
19729TIP3    H180602   1.645   1.513   5.078  0.0908 -1.0765  1.7526
19729TIP3    H280603   1.600   1.377   5.030  0.3061 -0.0759 -1.5235
19730TIP3   OH280604   0.835   5.161  17.196  0.2239  0.4745  0.1563
19730TIP3    H180605   0.900   5.109  17.149  1.6818  0.8192  1.6881
19730TIP3    H280606   0.852   5.251  17.171 -0.5646  0.4694 -0.4499
19731TIP3   OH280607   5.720   4.141  12.745  0.0813 -0.5259  0.3120
19731TIP3    H180608   5.756   4.052  12.750 -0.5566 -0.9264 -1.5943
19731TIP3    H280609   5.643   4.139  12.802 -0.3703 -1.4209 -0.3171
19732TIP3   OH280610   4.000   3.352   4.502 -0.0193 -0.0328  0.2469
19732TIP3    H180611   3.988   3.355   4.407 -0.4892  0.2810  0.3115
19732TIP3    H280612   3.964   3.266   4.528  1.1734 -0.6173  0.0073
19733TIP3   OH280613   3.141   5.853   2.545  0.8320  0.0257  0.2796
19733TIP3    H180614   3.212   5.863   2.608  1.0230  0.1236  0.0455
19733TIP3    H280615   3.179   5.805   2.472  0.5243 -0.3778  0.3768
19734TIP3   OH280616   4.611   0.302  15.076 -0.2590  0.4893 -0.2675
19734TIP3    H180617   4.698   0.325  15.042  0.2685 -0.7553  0.2010
19734TIP3    H280618   4.629   0.255  15.157 -1.3518 -0.2692 -0.4485
19735TIP3   OH280619   0.348   2.073   4.028 -0.5418 -0.1215  0.7153
19735TIP3    H180620   0.392   2.069   4.113 -1.2248  0.5653  1.1099
19735TIP3    H280621   0.417   2.096   3.966 -0.1308 -0.1651  1.1517
19736TIP3   OH280622   5.417   2.556   2.771 -0.4638  0.4807  0.4555
19736TIP3    H180623   5.328   2.572   2.803 -1.1434 -0.0796 -1.0676
19736TIP3    H280624   5.438   2.468   2.802 -0.8985  0.1677 -0.1070
19737TIP3   OH280625   6.643   5.872   0.965  0.2607 -0.3133  0.0197
19737TIP3    H180626   6.554   5.890   0.936  0.5068 -1.0920 -1.2757
19737TIP3    H280627   6.633   5.828   1.049 -0.5669 -0.3952 -0.1172
19738TIP3   OH280628   0.252   0.670   1.041 -0.7329  0.2955  0.1986
19738TIP3    H180629   0.223   0.761   1.036 -0.4889  0.2967 -2.6168
19738TIP3    H280630   0.337   0.674   1.085 -1.1540  1.2867  0.9525
19739TIP3   OH280631   0.046   6.413  12.748  0.0887  0.4651  0.1439
19739TIP3    H180632  -0.049   6.419  12.757 -0.1504  0.1173 -1.7779
19739TIP3    H280633   0.062   6.324  12.716  1.3875 -0.6470  3.4279
19740TIP3   OH280634   1.920   5.748  17.137 -0.6501  0.0962  0.1247
19740TIP3    H180635   1.833   5.788  17.130 -0.3135  0.8321  0.0062
19740TIP3    H280636   1.917   5.698  17.218 -1.1763  0.1448  0.1387
19741TIP3   OH280637   5.595   3.337  14.034 -0.3578 -0.6758 -0.2124
19741TIP3    H180638   5.566   3.419  13.993 -1.3147 -1.2496 -0.7116
19741TIP3    H280639   5.644   3.292  13.965  3.0037  0.8313  0.9582
19742TIP3   OH280640   1.937   6.062  15.198 -0.2956  0.1813  0.0856
19742TIP3    H180641   1.974   6.108  15.122 -0.7666  1.7544  0.7681
19742TIP3    H280642   1.928   6.130  15.265 -1.6581 -0.7742  0.9190
19743TIP3   OH280643   5.888   1.400   4.352  0.1501  0.0107 -0.0284
19743TIP3    H180644   5.836   1.393   4.272  1.4392  1.1924 -1.0077
19743TIP3    H280645   5.956   1.333   4.343  0.1537 -0.0168  0.1961
19744TIP3   OH280646   0.323   0.979  13.848 -0.0090  0.0831  0.1465
19744TIP3    H180647   0.336   1.067  13.813  0.1288 -0.6910 -1.8816
19744TIP3    H280648   0.236   0.953  13.816  0.5501 -1.0405 -0.5262
19745TIP3   OH280649   5.776   2.282  16.789 -0.2395 -0.0458 -0.1441
19745TIP3    H180650   5.735   2.209  16.835  2.5048 -0.2874  2.2305
19745TIP3    H280651   5.749   2.360  16.838  1.5154 -0.1584  1.1152
19746TIP3   OH280652   2.716   6.105  14.493  0.3090 -0.7719 -0.2426
19746TIP3    H180653   2.697   6.014  14.515 -0.0775 -0.6147  0.0809
19746TIP3    H280654   2.714   6.151  14.577 -0.9322 -0.2052 -0.5672
19747TIP3   OH280655   0.825   3.459  14.985  0.5012 -0.1855 -0.5923
19747TIP3    H180656   0.809   3.517  15.059 -0.0397  0.7135 -1.3880
19747TIP3    H280657   0.791   3.374  15.014  0.6693  0.0485  0.3290
19748TIP3   OH280658   1.970   6.363  15.576 -0.9825  0.1076 -0.9166
19748TIP3    H180659   2.040   6.322  15.626 -0.1631  0.8561 -1.4321
19748TIP3    H280660   1.958   6.449  15.616 -4.0164 -1.2215  1.4108
19749TIP3   OH280661   3.626   0.818  14.069  0.3471 -0.1952  0.5421
19749TIP3    H180662   3.654   0.727  14.069 -0.6982 -0.5621  2.6402
19749TIP3    H280663   3.697   0.865  14.023  1.3076 -1.9160  0.1924
19750TIP3   OH280664   1.784   3.505  12.394 -0.1427  0.5721 -0.3320
19750TIP3    H180665   1.691   3.529  12.401 -0.2138  0.3264 -0.4194
19750TIP3    H280666   1.783   3.410  12.386  0.0403  0.6640 -1.7126
19751TIP3   OH280667   1.346   4.444  14.134  0.0874 -0.0815  0.8151
19751TIP3    H180668   1.254   4.434  14.158 -0.0385  1.0445  0.8389
19751TIP3    H280669   1.345   4.485  14.048  0.5673 -0.3227  0.6872
19752TIP3   OH280670   4.343   1.248  16.527 -0.0371  0.1189 -0.4858
19752TIP3    H180671   4.403   1.289  16.590 -0.1052  1.1866 -1.1060
19752TIP3    H280672   4.399   1.186  16.479  0.1992 -0.0952  0.0572
19753TIP3   OH280673   3.286   4.092  11.451 -0.4473  0.2064  0.4148
19753TIP3    H180674   3.291   3.997  11.461 -0.8238  0.2308  0.8978
19753TIP3    H280675   3.239   4.105  11.369 -3.7913 -0.0747  2.1182
19754TIP3   OH280676   0.476   2.366  16.763  0.1601 -0.0125 -0.1608
19754TIP3    H180677   0.498   2.385  16.854  3.6886 -1.2782 -0.5928
19754TIP3    H280678   0.412   2.434  16.739  0.6175  1.5650  2.6550
19755TIP3   OH280679   4.052   2.910   5.917 -0.7192  0.5223 -0.1343
19755TIP3    H180680   3.962   2.880   5.916 -0.3896 -0.4953 -0.3429
19755TIP3    H280681   4.048   2.996   5.958 -1.7606  0.4295 -0.0143
19756TIP3   OH280682   0.861   1.508  15.491  0.6655 -0.2746 -0.9104
19756TIP3    H180683   0.768   1.526  15.477  0.4931 -1.4690 -1.4387
19756TIP3    H280684   0.862   1.444  15.562  1.1144  0.0572 -0.6147
19757TIP3   OH280685   0.468   3.747  15.875 -0.0948  0.0629  0.4351
19757TIP3    H180686   0.433   3.703  15.798  1.2533 -2.3953  1.1110
19757TIP3    H280687   0.391   3.771  15.927 -0.9610  0.7654 -1.1035
19758TIP3   OH280688   2.474   0.647  12.470 -0.1916 -0.4776 -0.1299
19758TIP3    H180689   2.529   0.711  12.424  2.2346 -1.2572  1.5217
19758TIP3    H280690   2.497   0.563  12.432 -0.7184 -0.7649  0.1686
19759TIP3   OH280691   0.770   3.034  14.877  0.2039 -0.6709 -0.1174
19759TIP3    H180692   0.821   2.959  14.907 -0.0264 -0.4779  0.7695
19759TIP3    H280693   0.832   3.086  14.827  0.9505 -0.3243  1.1367
19760TIP3   OH280694   3.882   2.903   5.619  0.2136 -0.2691 -0.5905
19760TIP3    H180695   3.964   2.868   5.583 -0.1230 -0.7316 -0.9215
19760TIP3    H280696   3.820   2.830   5.611 -0.4751  0.3724 -1.2126
19761TIP3   OH280697   0.480   4.524   1.354  0.3492  0.3922 -0.3775
19761TIP3    H180698   0.529   4.554   1.278  1.1027  2.1338  0.7187
19761TIP3    H280699   0.529   4.449   1.387  0.2778 -0.0774 -1.2930
19762TIP3   OH280700   6.151   0.336   5.793 -0.1666  0.6658 -0.3434
19762TIP3    H180701   6.174   0.403   5.857  0.3990 -0.1549  0.3470
19762TIP3    H280702   6.096   0.274   5.841 -1.2627  0.9806 -1.1572
19763TIP3   OH280703   6.212   6.067  13.828  0.2302 -0.5862  0.2519
19763TIP3    H180704   6.118   6.051  13.827 -0.4786  2.7207 -1.5345
19763TIP3    H280705   6.248   6.000  13.771 -1.2674 -0.9698 -0.3023
19764TIP3   OH280706   4.219   1.049  15.514 -0.6134 -0.2381 -0.3929
19764TIP3    H180707   4.304   1.046  15.469  0.4064 -2.0700  1.4855
19764TIP3    H280708   4.239   1.085  15.600 -1.6835 -0.9332  0.1686
19765TIP3   OH280709   5.140   0.049  14.809 -0.0392 -0.0902 -0.5741
19765TIP3    H180710   5.208  -0.008  14.773  0.0028 -1.1538  1.1147
19765TIP3    H280711   5.061  -0.005  14.810 -0.0815 -0.0314  0.7260
19766TIP3   OH280712   5.490   0.065   0.520  0.3656 -0.5353 -0.0074
19766TIP3    H180713   5.430   0.125   0.563 -0.3362 -1.1823 -0.0596
19766TIP3    H280714   5.551   0.038   0.590  3.0938  3.0440 -0.7408
19767TIP3   OH280715   2.462   0.918  15.310  0.6755  0.1362  0.9167
19767TIP3    H180716   2.495   0.829  15.298  1.2086  0.5469 -0.8837
19767TIP3    H280717   2.493   0.943  15.397  0.6166 -1.3706  1.4066
19768TIP3   OH280718   3.085   2.266  16.149 -0.5070 -0.0985 -0.2053
19768TIP3    H180719   2.989   2.269  16.141 -0.5979 -0.2950  0.6854
19768TIP3    H280720   3.101   2.208  16.223  0.2959  0.1455 -0.1792
19769TIP3   OH280721   3.323   1.994   0.079 -0.0991  0.3011 -0.6011
19769TIP3    H180722   3.251   1.939   0.111 -0.2731  0.5915 -0.4919
19769TIP3    H280723   3.380   1.933   0.032  0.4317 -0.2410  0.6937
19770TIP3   OH280724   6.514   6.016  10.550 -0.3004  0.9216  0.0061
19770TIP3    H180725   6.457   6.041  10.622  0.1752 -0.7112  0.9970
19770TIP3    H280726   6.583   5.963  10.590  0.1547  0.2202 -1.5972
19771TIP3   OH280727   0.691   5.252   4.198  0.1618 -0.0766 -0.1652
19771TIP3    H180728   0.638   5.307   4.140  0.1401  0.2863  0.1956
19771TIP3    H280729   0.725   5.182   4.141  1.1173  0.9335 -0.8668
19772TIP3   OH280730   6.245   1.007   3.379 -0.0449  0.4463 -0.3546
19772TIP3    H180731   6.201   1.092   3.387 -0.3558  0.1397  1.5224
19772TIP3    H280732   6.328   1.027   3.336 -0.4820  1.5617 -0.7220
19773TIP3   OH280733   5.484   1.272   6.880  0.2624 -0.2819  0.1812
19773TIP3    H180734   5.481   1.177   6.892 -0.0791 -0.6530 -2.3775
19773TIP3    H280735   5.578   1.292   6.874  0.4206 -0.1681  2.2814
19774TIP3   OH280736   4.157   2.719   3.730  0.0942 -0.2647  0.1161
19774TIP3    H180737   4.237   2.676   3.699 -0.4168 -0.1868 -1.3949
19774TIP3    H280738   4.122   2.660   3.797  0.4576 -1.2280 -0.5232
19775TIP3   OH280739   0.485   6.623  13.702 -0.2021 -0.0601 -0.3725
19775TIP3    H180740   0.579   6.610  13.715  0.2102  2.6864 -0.0502
19775TIP3    H280741   0.476   6.643  13.609 -0.3468  0.4700 -0.2475
19776TIP3   OH280742   4.277   5.033  14.595  0.3049  0.3503  0.2252
19776TIP3    H180743   4.305   4.946  14.625  0.2705  0.0932 -0.4473
19776TIP3    H280744   4.354   5.088  14.607  1.4447 -0.5109 -2.2789
19777TIP3   OH280745   5.701   5.594  16.409  0.5522  0.1612 -0.3029
19777TIP3    H180746   5.682   5.659  16.342 -0.9566 -0.4314 -0.4807
19777TIP3    H280747   5.786   5.621  16.444  0.6512  1.3662 -1.3738
19778TIP3   OH280748   6.755   3.188   2.077 -0.3143 -0.0534  0.5962
19778TIP3    H180749   6.677   3.242   2.079 -1.3953 -1.2693 -2.3521
19778TIP3    H280750   6.826   3.247   2.102 -1.8903  1.6292  1.3279
19779TIP3   OH280751   3.606   0.030   3.264 -0.1973  0.3907  0.2958
19779TIP3    H180752   3.634   0.040   3.173 -0.3414 -0.9894  0.0797
19779TIP3    H280753   3.675  -0.023   3.304 -1.4775 -1.3479  0.2690
19780TIP3   OH280754   2.943   1.331  16.171  0.5248  0.0421  0.1885
19780TIP3    H180755   3.021   1.312  16.118 -0.9071  1.1994 -2.5058
19780TIP3    H280756   2.887   1.255  16.158  0.2084  0.2845  0.1418
19781TIP3   OH280757   2.169   2.293   3.268  0.4023 -0.3348  0.3670
19781TIP3    H180758   2.218   2.212   3.284  1.5756 -0.0685 -1.5683
19781TIP3    H280759   2.214   2.334   3.194  0.9071  2.9841  2.3039
19782TIP3   OH280760   5.002   0.900  14.212 -0.7281  0.4021  0.2534
19782TIP3    H180761   4.984   0.826  14.154  1.4768  1.2252 -1.6412
19782TIP3    H280762   4.917   0.940  14.228 -1.6553 -1.1252 -0.6611
19783TIP3   OH280763   2.250   5.246   2.586  0.0649 -0.6661  0.0223
19783TIP3    H180764   2.224   5.239   2.678 -0.6054  0.7796 -0.0372
19783TIP3    H280765   2.254   5.155   2.556  2.4793 -1.3695  2.0420
19784TIP3   OH280766   1.534   1.897  12.914  0.4119  0.1334  0.1361
19784TIP3    H180767   1.566   1.881  12.825 -0.6890 -0.3893 -0.1840
19784TIP3    H280768   1.608   1.873  12.970  1.1543  0.5690 -0.6323
19785TIP3   OH280769   3.370   5.243  13.557 -0.0979 -0.0829 -0.0523
19785TIP3    H180770   3.284   5.241  13.515 -0.4308 -1.5674  0.6220
19785TIP3    H280771   3.428   5.280  13.490 -1.1058  0.1609 -0.8161
19786TIP3   OH280772   5.688   4.850  10.764 -0.3755  0.2375 -0.1061
19786TIP3    H180773   5.763   4.868  10.707 -0.6315  0.6119 -0.3269
19786TIP3    H280774   5.618   4.906  10.731 -0.5921  0.3001  0.4403
19787TIP3   OH280775   1.316   5.131  17.130 -0.7469  0.6752 -0.1390
19787TIP3    H180776   1.274   5.194  17.189 -2.1214 -0.1979 -0.1607
19787TIP3    H280777   1.408   5.160  17.126 -0.9192  1.5163  1.3835
19788TIP3   OH280778   6.456   0.362  10.849 -0.0299 -0.5030  0.0118
19788TIP3    H180779   6.498   0.278  10.866  1.6828  0.1380 -0.8029
19788TIP3    H280780   6.480   0.382  10.758  0.6983  1.4471  0.5850
19789TIP3   OH280781   4.642   1.985  12.713 -0.1032  0.1387  0.5888
19789TIP3    H180782   4.728   2.027  12.711 -0.0286  0.0348  1.3995
19789TIP3    H280783   4.597   2.021  12.636 -0.3992  2.5191  1.7705
19790TIP3   OH280784   3.871   1.063   1.663 -0.6620  0.4957 -0.0451
19790TIP3    H180785   3.797   1.014   1.698 -0.8252 -0.3418 -1.5088
19790TIP3    H280786   3.854   1.070   1.569  1.0967  0.2719 -0.4310
19791TIP3   OH280787   3.770   5.858  12.481 -0.2229 -0.2565 -0.0727
19791TIP3    H180788   3.831   5.913  12.531  1.3328 -0.4386 -1.6705
19791TIP3    H280789   3.761   5.778  12.533 -2.4497  1.3472  2.2406
19792TIP3   OH280790   2.071   2.562   2.877 -0.7682  0.4203  0.2502
19792TIP3    H180791   2.022   2.480   2.870  1.6518 -1.1112  0.4125
19792TIP3    H280792   2.142   2.543   2.938 -1.2088  3.2427  1.8103
19793TIP3   OH280793   2.517   5.917  11.359 -0.0986  0.1185 -0.6460
19793TIP3    H180794   2.504   5.837  11.308 -3.5608  2.4515 -3.9692
19793TIP3    H280795   2.585   5.965  11.311  0.8787 -0.1132  0.4599
19794TIP3   OH280796   4.492   6.622  17.330  0.2322 -0.0826 -0.5012
19794TIP3    H180797   4.519   6.709  17.302 -0.1510 -0.3710 -1.8527
19794TIP3    H280798   4.573   6.578  17.355  0.3604  0.8445  0.8272
19795TIP3   OH280799   1.036   0.273  14.652  0.6446  0.1606 -0.2909
19795TIP3    H180800   0.979   0.328  14.599 -0.3100 -1.2021 -0.7373
19795TIP3    H280801   1.045   0.192  14.602  1.7627 -0.2178  0.4780
19796TIP3   OH280802   0.902   6.426  16.162  0.3646 -0.0760  0.0917
19796TIP3    H180803   0.976   6.434  16.221  1.5741  1.8365 -1.5441
19796TIP3    H280804   0.931   6.363  16.095 -0.0411 -0.3743  0.1915
19797TIP3   OH280805   0.675   6.381  16.300 -0.2098 -0.1397  0.6062
19797TIP3    H180806   0.694   6.293  16.333  0.7325 -0.3343 -0.3841
19797TIP3    H280807   0.752   6.404  16.249 -1.0272  0.7012 -0.2887
19798TIP3   OH280808   4.430   0.094  15.009 -0.5771 -0.6649 -0.7009
19798TIP3    H180809   4.482   0.038  15.067 -1.0767 -1.0602 -0.6248
19798TIP3    H280810   4.478   0.177  15.006  0.2864 -1.1599 -0.9798
19799TIP3   OH280811   5.117   3.781   6.363  0.2702 -0.0628  0.5527
19799TIP3    H180812   5.179   3.711   6.344  0.5970  0.4302 -0.2831
19799TIP3    H280813   5.169   3.848   6.409  0.1709  0.0049  0.5674
19800TIP3   OH280814   1.987   3.673  13.451  0.6992  0.1515 -0.0763
19800TIP3    H180815   1.970   3.735  13.380 -0.2378 -0.2648 -0.2299
19800TIP3    H280816   2.059   3.619  13.419 -0.4219 -0.7498 -1.2173
19801TIP3   OH280817   4.107   5.471   4.423 -0.1324 -0.1593  0.1593
19801TIP3    H180818   4.040   5.414   4.461  0.3490  0.7556  2.5774
19801TIP3    H280819   4.060   5.530   4.365 -1.1465 -0.6868  0.4289
19802TIP3   OH280820   2.395   2.901   1.248  0.4665 -0.2614 -0.3714
19802TIP3    H180821   2.489   2.903   1.266  0.3192 -0.3334  0.4237
19802TIP3    H280822   2.356   2.945   1.323 -0.2327 -1.3703 -0.0781
19803TIP3   OH280823   2.504   2.054   6.350  0.0911 -0.0979  0.0351
19803TIP3    H180824   2.449   2.132   6.360 -0.9391 -0.9040  0.8681
19803TIP3    H280825   2.492   2.028   6.258  0.1116  0.4801 -0.1343
19804TIP3   OH280826   5.298   1.480   5.372 -0.5002  0.0507  0.1384
19804TIP3    H180827   5.243   1.403   5.357 -2.3808  1.5728 -1.3194
19804TIP3    H280828   5.247   1.535   5.432  0.6685  0.3485  0.9029
19805TIP3   OH280829   4.356   0.884   6.201  0.6703 -0.3301 -0.3627
19805TIP3    H180830   4.339   0.933   6.281 -0.8740  0.8265 -1.3286
19805TIP3    H280831   4.425   0.822   6.224  1.0777  0.7599  1.5275
19806TIP3   OH280832   2.668   3.221  16.872 -0.4539 -0.1785  0.4158
19806TIP3    H180833   2.741   3.159  16.877 -0.0716 -0.0588 -2.2365
19806TIP3    H280834   2.710   3.306  16.857 -1.0263 -0.2529 -2.2307
19807TIP3   OH280835   3.359   4.246   5.954 -0.5309  0.3726 -0.1611
19807TIP3    H180836   3.428   4.180   5.952  0.5673  1.4860 -0.8156
19807TIP3    H280837   3.294   4.212   6.014  1.0155 -0.3101  1.2007
19808TIP3   OH280838   1.759   1.908  13.068  0.2091 -0.1248  0.3298
19808TIP3    H180839   1.820   1.952  13.009 -0.2603 -1.4467 -1.2358
19808TIP3    H280840   1.810   1.886  13.145  1.2662  0.2912 -0.2421
19809TIP3   OH280841   4.981   0.404  17.188 -0.0425 -0.2914 -0.0295
19809TIP3    H180842   4.942   0.490  17.204  0.3447 -0.0897 -0.1627
19809TIP3    H280843   5.068   0.409  17.226 -1.0009 -1.5806  2.5485
19810TIP3   OH280844   5.590   3.877   0.104  0.3831  0.5748 -0.1839
19810TIP3    H180845   5.512   3.851   0.054  0.4382 -2.5120  1.0709
19810TIP3    H280846   5.663   3.855   0.047  0.3861 -0.9806  0.3606
19811TIP3   OH280847   0.943   2.950   2.715  0.1981 -0.4529 -0.3413
19811TIP3    H180848   0.913   2.943   2.625 -1.3492 -1.7999  0.2349
19811TIP3    H280849   0.999   2.872   2.728  1.3034  0.3043 -0.4351
19812TIP3   OH280850   0.006   2.969  11.498  0.4916 -0.0445 -0.8371
19812TIP3    H180851  -0.018   2.929  11.582  0.0275  1.8574 -0.0236
19812TIP3    H280852   0.094   2.936  11.480 -0.6321 -3.1182 -1.3270
19813TIP3   OH280853   5.275   6.318   0.377  0.1547 -0.2154  0.3121
19813TIP3    H180854   5.369   6.332   0.392  0.2018 -0.0301 -0.1444
19813TIP3    H280855   5.271   6.274   0.292 -0.1098 -1.1770  0.8055
19814TIP3   OH280856   0.080   1.847   6.504  0.2006  0.3267 -0.3397
19814TIP3    H180857   0.044   1.918   6.451 -1.3034 -2.0995 -2.8231
19814TIP3    H280858   0.017   1.837   6.576 -0.5581  0.3740 -0.9807
19815TIP3   OH280859   3.233   5.104   6.038  0.0435  0.3158  0.5308
19815TIP3    H180860   3.210   5.045   5.966 -2.2184  0.3933  1.1191
19815TIP3    H280861   3.300   5.162   6.001 -3.0331  2.2623 -2.5458
19816TIP3   OH280862   1.235   5.376  16.347 -0.2351  0.4842 -0.1450
19816TIP3    H180863   1.144   5.365  16.321 -0.8719  0.7150  1.7891
19816TIP3    H280864   1.234   5.364  16.442  2.0372 -1.3095 -0.2596
19817TIP3   OH280865   0.241   0.222   5.907  0.8184  0.1360  0.4641
19817TIP3    H180866   0.185   0.184   5.976  1.1865  2.5108  2.1736
19817TIP3    H280867   0.210   0.312   5.898  3.0263  0.9103  0.0153
19818TIP3   OH280868   3.430   2.531   2.254  0.0938 -0.0377 -0.2308
19818TIP3    H180869   3.358   2.529   2.190 -1.4314  2.2748  1.2465
19818TIP3    H280870   3.507   2.506   2.204 -1.1625  0.8061 -2.7936
19819TIP3   OH280871   2.214   6.059  13.858  0.6000  0.0802 -0.8544
19819TIP3    H180872   2.167   6.023  13.783  0.0131  1.3631 -1.1347
19819TIP3    H280873   2.251   6.141  13.827 -1.4002  1.7147  0.7437
19820TIP3   OH280874   2.112   2.068   1.388  0.5151  0.1091  0.2429
19820TIP3    H180875   2.198   2.032   1.365  0.6921  0.5925  0.1267
19820TIP3    H280876   2.132   2.156   1.422 -0.0553  0.9357 -1.4545
19821TIP3   OH280877   2.211   1.198   2.090  0.2687 -0.4266 -0.1082
19821TIP3    H180878   2.232   1.134   2.158  0.8282 -1.5254 -1.2798
19821TIP3    H280879   2.231   1.154   2.008 -0.6681  0.7649 -1.0219
19822TIP3   OH280880   6.430   0.991  12.661  0.3074 -0.3476 -0.2699
19822TIP3    H180881   6.412   1.033  12.577 -2.1472  0.8496  0.7424
19822TIP3    H280882   6.503   1.040  12.698 -2.3250  3.2094  0.7836
19823TIP3   OH280883   6.589   3.746  12.608 -0.9705 -0.1232  0.1988
19823TIP3    H180884   6.570   3.827  12.560 -1.7452 -0.6698 -0.4405
19823TIP3    H280885   6.678   3.723  12.582 -0.7979  0.4475  0.2757
19824TIP3   OH280886   1.976   3.456   3.950  0.1545  0.3044 -0.3872
19824TIP3    H180887   2.042   3.501   4.003  0.2886 -0.4328  0.0873
19824TIP3    H280888   1.921   3.526   3.915 -0.4649  0.7785  1.4197
19825TIP3   OH280889   6.117   0.133   2.664  0.6042  0.1746  0.1074
19825TIP3    H180890   6.048   0.127   2.730  2.4667 -1.8828  2.0553
19825TIP3    H280891   6.178   0.198   2.699  0.0346  1.5398 -1.3044
19826TIP3   OH280892   0.280   3.516   1.356 -0.2099  0.0717  0.1568
19826TIP3    H180893   0.187   3.491   1.355 -0.4844  0.7569  2.7138
19826TIP3    H280894   0.326   3.435   1.331 -1.4110 -0.7983  0.6448
19827TIP3   OH280895   1.766   6.750  14.569 -0.6741 -0.6567 -0.3561
19827TIP3    H180896   1.849   6.782  14.532 -1.3068  3.2754  1.1491
19827TIP3    H280897   1.787   6.661  14.599  2.5835 -0.3538 -1.2655
19828TIP3   OH280898   5.339   0.699   4.260 -0.1154  0.1437 -0.0026
19828TIP3    H180899   5.399   0.770   4.284 -1.9279  1.9784 -0.5982
19828TIP3    H280900   5.300   0.671   4.343 -1.5480  1.9411 -0.0179
19829TIP3   OH280901   2.433   6.110  17.264  0.3814 -0.5580  0.1165
19829TIP3    H180902   2.476   6.171  17.324  0.0913  0.0008 -0.2278
19829TIP3    H280903   2.470   6.025  17.285  2.2881  0.0101 -0.7274
19830TIP3   OH280904   5.678   3.455   0.486  0.0866  0.5102  0.8707
19830TIP3    H180905   5.683   3.538   0.439 -0.2652  0.6557  1.0796
19830TIP3    H280906   5.738   3.465   0.560  2.3531 -0.5317 -0.7201
19831TIP3   OH280907   1.581   2.927  14.080 -0.2943  0.8335 -0.2871
19831TIP3    H180908   1.616   2.868  14.014 -0.2126  1.3105 -0.6734
19831TIP3    H280909   1.648   2.994  14.091 -0.3613  0.8289  0.1930
19832TIP3   OH280910   5.521   2.437  16.910 -0.1077 -0.0376 -0.2394
19832TIP3    H180911   5.597   2.478  16.951  0.9627 -1.3871 -0.8282
19832TIP3    H280912   5.480   2.508  16.860  1.7665  0.3532 -1.3248
19833TIP3   OH280913   4.222   3.223  12.960 -0.3323  0.0988 -0.3650
19833TIP3    H180914   4.186   3.244  13.046 -1.2442 -0.6680 -0.5454
19833TIP3    H280915   4.290   3.158  12.978  0.3204  0.8455 -0.1116
19834TIP3   OH280916   6.503   4.616  17.112  0.4706  0.1322 -0.1890
19834TIP3    H180917   6.542   4.546  17.164 -0.5601  0.0622  0.5250
19834TIP3    H280918   6.507   4.693  17.169 -0.4310  0.1186 -0.1041
19835TIP3   OH280919   3.861   0.937  15.789 -0.5896  0.0061 -0.0579
19835TIP3    H180920   3.923   1.003  15.759  0.8284 -0.9805  0.5658
19835TIP3    H280921   3.801   0.984  15.847  0.8021  0.6489  0.9113
19836TIP3   OH280922   1.194   3.050   4.101 -0.6245 -0.5878  0.3812
19836TIP3    H180923   1.237   3.135   4.087  1.7791 -1.8067 -0.2985
19836TIP3    H280924   1.178   3.017   4.013 -0.5727 -1.2601  0.6175
19837TIP3   OH280925   2.234   3.046  10.776  0.0482 -0.0652  0.5130
19837TIP3    H180926   2.142   3.039  10.752  0.5740 -2.4663 -1.2377
19837TIP3    H280927   2.253   2.965  10.822  1.5557 -0.2216 -0.3020
19838TIP3   OH280928   2.421   3.167   4.647 -0.1545  0.5414 -0.2042
19838TIP3    H180929   2.440   3.216   4.567  1.0700  1.7376  0.7712
19838TIP3    H280930   2.505   3.158   4.691 -0.3931 -2.1569 -0.1259
19839TIP3   OH280931   3.732   4.906  12.931 -0.4748 -0.0437 -0.2487
19839TIP3    H180932   3.765   4.859  13.007  1.1888 -0.2039 -1.0448
19839TIP3    H280933   3.703   4.991  12.966  1.4609  0.3847  0.3899
19840TIP3   OH280934   5.334   5.299   6.340  0.2093 -0.0134 -0.2866
19840TIP3    H180935   5.429   5.297   6.352  0.6174  0.2484 -2.8669
19840TIP3    H280936   5.302   5.221   6.384  1.2042  1.2579  3.0066
19841TIP3   OH280937   5.366   3.898   4.078  0.4426  0.1021  0.6102
19841TIP3    H180938   5.334   3.940   4.158 -0.3318 -0.2322  0.4856
19841TIP3    H280939   5.304   3.826   4.063  0.5238  0.2260 -0.3358
19842TIP3   OH280940   1.553   5.258   5.022  0.4057 -0.5013  0.5667
19842TIP3    H180941   1.478   5.204   5.047  0.3385 -1.6724 -1.8699
19842TIP3    H280942   1.529   5.294   4.937  1.6018  1.1764  0.8981
19843TIP3   OH280943   3.529   6.212   6.089  0.0012  0.2206  0.4411
19843TIP3    H180944   3.586   6.270   6.140 -0.7633  1.9084 -0.5280
19843TIP3    H280945   3.446   6.213   6.135  0.6889 -2.3198  1.9091
19844TIP3   OH280946   2.497   2.964   0.129  0.7686 -0.3327  0.2289
19844TIP3    H180947   2.530   2.924   0.209  0.1659 -0.1544  0.5740
19844TIP3    H280948   2.410   2.926   0.117  0.6137  0.0858 -0.0072
19845TIP3   OH280949   6.587   3.070  15.665  0.2297  0.2757 -0.4907
19845TIP3    H180950   6.625   3.062  15.578 -2.8553 -0.2839 -1.9125
19845TIP3    H280951   6.612   3.158  15.693  1.9172  0.1937 -1.5615
19846TIP3   OH280952   1.365   6.307   0.821  0.2886 -0.6570 -0.1394
19846TIP3    H180953   1.380   6.221   0.859 -0.0228  0.3021  2.3542
19846TIP3    H280954   1.270   6.318   0.823  0.3697  0.0387  0.3562
19847TIP3   OH280955   6.574   0.515  14.669  0.0445  0.6246 -0.6758
19847TIP3    H180956   6.511   0.577  14.632  1.0728  1.3708 -1.2421
19847TIP3    H280957   6.545   0.503  14.759 -0.8076  1.0830 -0.8732
19848TIP3   OH280958   5.959   6.576   5.536  0.0938  0.3414  0.2328
19848TIP3    H180959   5.944   6.528   5.455  0.2331  0.4632  0.1362
19848TIP3    H280960   6.044   6.545   5.567  0.6177  1.2053 -0.3077
19849TIP3   OH280961   4.875   2.632  15.872 -0.6403  0.0948 -0.3139
19849TIP3    H180962   4.856   2.657  15.962 -1.8194 -0.0949 -0.4852
19849TIP3    H280963   4.827   2.550  15.859  0.4031 -0.4639 -0.7887
19850TIP3   OH280964   6.420   0.386  14.452 -0.8086  0.6857  0.2333
19850TIP3    H180965   6.464   0.396  14.536 -1.1715  0.8512  0.4036
19850TIP3    H280966   6.486   0.411  14.387 -0.5971  0.7622  0.4774
19851TIP3   OH280967   5.863   4.480  13.016  0.1232  0.6084  0.3973
19851TIP3    H180968   5.948   4.465  12.974  0.3331  0.9105  0.7143
19851TIP3    H280969   5.864   4.423  13.092  0.2111  0.9124  0.6274
19852TIP3   OH280970   4.759   4.808   2.620 -0.0345  1.1112 -0.3730
19852TIP3    H180971   4.810   4.870   2.568  1.2875  1.8684  1.6915
19852TIP3    H280972   4.716   4.862   2.686  0.5740 -0.0341  1.0345
19853TIP3   OH280973   0.506   0.873   3.372  0.0117 -0.1863 -0.9134
19853TIP3    H180974   0.424   0.895   3.326 -0.3800  1.2655  0.3751
19853TIP3    H280975   0.497   0.916   3.457  1.8163 -0.6286 -0.4679
19854TIP3   OH280976   3.345   6.311   1.046  0.0520 -0.4146 -0.4428
19854TIP3    H180977   3.316   6.336   0.959 -0.4121 -0.1758 -0.2280
19854TIP3    H280978   3.426   6.361   1.060 -0.8575  1.0132 -0.0230
19855TIP3   OH280979   5.225   2.292  14.629 -0.0681 -0.2015  0.4386
19855TIP3    H180980   5.264   2.250  14.553 -1.7726  1.1538 -1.2685
19855TIP3    H280981   5.196   2.219  14.684 -0.8865 -1.2821 -1.3354
19856TIP3   OH280982   1.609   0.083  16.308 -0.3643 -0.3505 -0.5733
19856TIP3    H180983   1.527   0.035  16.319  1.6477 -3.9728 -0.0606
19856TIP3    H280984   1.602   0.156  16.370 -2.6380 -1.3545  0.4859
19857TIP3   OH280985   1.974   2.853   3.613 -0.3949 -0.0884 -0.7132
19857TIP3    H180986   1.891   2.832   3.656  0.5306 -0.9912  0.6846
19857TIP3    H280987   1.967   2.811   3.527 -0.9707 -1.0696 -0.2064
19858TIP3   OH280988   3.724   6.577   1.446 -0.9615 -0.0562 -0.4713
19858TIP3    H180989   3.660   6.600   1.512 -0.5867 -1.3270  0.3769
19858TIP3    H280990   3.692   6.617   1.365 -1.2125  1.8736  0.5364
19859TIP3   OH280991   6.284   4.626  15.059  0.3609 -0.1672  0.1540
19859TIP3    H180992   6.213   4.641  15.122  0.3703 -1.7991  0.6102
19859TIP3    H280993   6.242   4.628  14.974  0.0406  0.3614  0.3204
19860TIP3   OH280994   2.534   3.674  13.118 -0.0754  0.2383  1.1569
19860TIP3    H180995   2.548   3.608  13.051  0.7793 -0.1987  1.7547
19860TIP3    H280996   2.536   3.757  13.071  0.8939 -0.0418  0.7008
19861TIP3   OH280997   0.053   6.104   2.692 -0.1802  0.3121 -0.0903
19861TIP3    H180998   0.127   6.064   2.738  0.9558  1.8267 -0.5397
19861TIP3    H280999   0.088   6.183   2.653 -2.0135  1.0052 -0.4554
19862TIP3   OH281000   2.206   5.704   4.434 -0.0035  0.0701 -0.1958
19862TIP3    H181001   2.128   5.706   4.377 -0.5176 -0.8025  0.4395
19862TIP3    H281002   2.231   5.612   4.435 -0.1913  0.0127  1.2203
19863TIP3   OH281003   5.427   5.819   1.340 -0.1812  0.4874 -0.2279
19863TIP3    H181004   5.356   5.862   1.387  0.9558  0.5547  1.5175
19863TIP3    H281005   5.506   5.865   1.368  0.5858  0.4850 -2.1938
19864TIP3   OH281006   1.637   1.521  12.985 -0.1591  0.1415 -0.7466
19864TIP3    H181007   1.667   1.430  12.991  0.2941  0.3848  1.0324
19864TIP3    H281008   1.557   1.515  12.932  0.1565 -1.2135 -1.1295
19865TIP3   OH281009   2.416   1.707   4.908 -0.7644 -0.3657  0.1620
19865TIP3    H181010   2.475   1.748   4.845 -2.5127 -1.7196 -2.5750
19865TIP3    H281011   2.333   1.754   4.896 -1.8317 -2.3077 -0.4964
19866TIP3   OH281012   5.360   4.080  12.680 -0.6517 -0.0508 -0.4262
19866TIP3    H181013   5.377   4.046  12.768  0.7378  0.4716 -0.4727
19866TIP3    H281014   5.286   4.139  12.691 -0.0175  0.5862  0.5396
19867TIP3   OH281015   6.391   2.947   5.683 -0.3823  0.4605  0.3354
19867TIP3    H181016   6.456   2.893   5.638  0.6509  0.2156  2.0335
19867TIP3    H281017   6.379   3.022   5.625 -0.5939 -0.7436 -1.2732
19868TIP3   OH281018   2.689   6.618   0.803 -0.1058 -0.4138 -0.4618
19868TIP3    H181019   2.674   6.697   0.855  1.2456 -1.3157  1.4346
19868TIP3    H281020   2.602   6.578   0.794 -0.3926 -0.2049  1.1117
19869TIP3   OH281021   3.657   2.215   5.808  0.0902  0.3106  0.2090
19869TIP3    H181022   3.737   2.165   5.795  1.0686  2.0646 -0.7857
19869TIP3    H281023   3.591   2.149   5.830  1.3760 -1.3612 -0.7541
19870TIP3   OH281024   4.431   1.388   5.806  0.6570 -0.2898 -0.1041
19870TIP3    H181025   4.417   1.343   5.890  0.9949 -0.9855 -0.4084
19870TIP3    H281026   4.486   1.327   5.756 -0.1478 -0.2102 -1.1014
19871TIP3   OH281027   5.687   0.385   1.618  0.5583  0.2473  0.4410
19871TIP3    H181028   5.685   0.380   1.714 -1.1971 -1.6156  0.3781
19871TIP3    H281029   5.720   0.300   1.590  1.1642  0.8120 -0.6381
19872TIP3   OH281030   2.522   0.393   0.336 -0.1163  0.1368  0.1326
19872TIP3    H181031   2.557   0.441   0.261  0.7282  0.9655  1.0357
19872TIP3    H281032   2.514   0.303   0.304 -2.5302  0.9339 -1.8705
19873TIP3   OH281033   2.582   2.262  12.009  0.1291 -0.8547  0.2914
19873TIP3    H181034   2.663   2.214  11.991 -0.0375 -0.9736 -0.1452
19873TIP3    H281035   2.522   2.237  11.938  0.4958  1.0655 -0.7668
19874TIP3   OH281036   0.961   2.746   3.537 -0.4017  0.1491  0.5192
19874TIP3    H181037   0.943   2.718   3.627  1.2885  2.1791  1.5827
19874TIP3    H281038   1.013   2.675   3.500 -0.5755 -0.4287  1.3528
19875TIP3   OH281039   0.124   4.989   3.246 -0.0200 -0.0418 -0.0747
19875TIP3    H181040   0.158   5.025   3.164  0.3311  0.4504  0.2851
19875TIP3    H281041   0.089   5.064   3.293  1.1732 -0.0676  0.9040
19876TIP3   OH281042   6.258   4.894   5.468 -0.2483 -0.6517  0.6440
19876TIP3    H181043   6.239   4.914   5.376 -0.8140 -0.5283  0.7869
19876TIP3    H281044   6.262   4.798   5.471 -1.0116 -0.6856  0.6442
19877TIP3   OH281045   0.125   3.505   0.389 -0.1226  0.3565 -0.1981
19877TIP3    H181046   0.169   3.518   0.305  0.4318  1.3250  0.2296
19877TIP3    H281047   0.194   3.519   0.454  0.0533 -2.6616  0.4214
19878TIP3   OH281048   2.248   5.543  11.314  0.1429  0.3152  0.3898
19878TIP3    H181049   2.199   5.550  11.232 -0.6438 -0.3255  0.7860
19878TIP3    H281050   2.260   5.449  11.327  2.0099  0.4597  0.0254
19879TIP3   OH281051   2.962   1.395  15.100 -0.7449 -0.3635 -0.2546
19879TIP3    H181052   2.989   1.447  15.176 -0.1760 -1.2888  0.2033
19879TIP3    H281053   3.011   1.313  15.109 -0.6048 -0.4641 -1.6760
19880TIP3   OH281054   1.548   5.904   2.316 -0.6509 -0.4975 -0.2018
19880TIP3    H181055   1.572   5.920   2.225  0.8641  0.8660  0.3901
19880TIP3    H281056   1.488   5.829   2.312  0.6010 -1.4765 -2.1648
19881TIP3   OH281057   4.692   5.863   3.809  0.1292 -0.2930 -0.1074
19881TIP3    H181058   4.631   5.891   3.741  1.3688  2.1991 -0.2944
19881TIP3    H281059   4.764   5.824   3.762  0.9389  1.3386 -0.2873
19882TIP3   OH281060   3.314   5.818   2.324 -0.3141  0.5217 -0.7984
19882TIP3    H181061   3.340   5.832   2.232 -1.5684  0.3523 -1.1992
19882TIP3    H281062   3.397   5.820   2.372  0.5706 -0.9908 -2.1341
19883TIP3   OH281063   5.333   0.484   3.741  0.5488  0.1832 -0.1938
19883TIP3    H181064   5.256   0.439   3.707  1.0102 -0.3727 -0.5356
19883TIP3    H281065   5.306   0.575   3.750 -0.9249 -0.4049  2.0565
19884TIP3   OH281066   1.601   2.841  16.844  0.4101 -1.0076 -0.2656
19884TIP3    H181067   1.625   2.751  16.863  0.2855 -0.7540  1.2036
19884TIP3    H281068   1.513   2.835  16.806  0.6732 -1.5415 -0.8025
19885TIP3   OH281069   6.443   6.710   0.493  0.0197 -0.3125 -0.2114
19885TIP3    H181070   6.487   6.742   0.571 -0.5054 -0.7248  0.2638
19885TIP3    H281071   6.504   6.729   0.421 -0.5266  2.2796 -0.0623
19886TIP3   OH281072   6.436   0.945   5.706 -0.2327  0.3375  0.1144
19886TIP3    H181073   6.455   0.988   5.790  0.7813  0.5330 -0.1910
19886TIP3    H281074   6.420   1.017   5.645 -0.5470  0.2128  0.0501
19887TIP3   OH281075   2.632   0.733  16.892 -0.3783 -0.1298  0.0794
19887TIP3    H181076   2.654   0.648  16.928  2.7959  0.0829 -1.0847
19887TIP3    H281077   2.563   0.715  16.828 -1.2139 -1.4420  1.2840
19888TIP3   OH281078   2.488   3.025   3.966 -0.2944  0.1825  0.2620
19888TIP3    H181079   2.524   3.065   3.887 -0.1227  0.6383  0.5677
19888TIP3    H281080   2.393   3.022   3.950 -0.2317 -0.0147 -0.0868
19889TIP3   OH281081   2.135   3.126   2.443 -0.6262  0.2340  0.3511
19889TIP3    H181082   2.087   3.111   2.525 -0.7369  1.9700  0.6483
19889TIP3    H281083   2.072   3.104   2.374 -1.1345  0.4213  0.7430
19890TIP3   OH281084   0.088   4.282   6.216  0.0233  0.1121  0.1161
19890TIP3    H181085   0.044   4.353   6.261  0.9343  0.2133  0.8861
19890TIP3    H281086   0.180   4.309   6.211  0.0065 -0.0077 -1.6090
19891TIP3   OH281087   3.962   3.997  13.459  0.0068 -1.0119  0.2647
19891TIP3    H181088   3.881   3.974  13.504 -1.5927  0.8872 -1.4149
19891TIP3    H281089   3.982   4.086  13.489  1.6298 -1.5308  0.8175
19892TIP3   OH281090   5.770   5.032   2.290  0.1271 -0.1383  0.3720
19892TIP3    H181091   5.753   5.006   2.381 -0.3110 -0.5153  0.1849
19892TIP3    H281092   5.686   5.020   2.245  0.6356 -1.1491 -0.3601
19893TIP3   OH281093   5.603   3.520   4.352  0.1005  0.1271  0.2454
19893TIP3    H181094   5.602   3.615   4.364 -0.2821  0.4667 -1.9744
19893TIP3    H281095   5.521   3.490   4.392 -0.7696  1.0312 -0.7783
19894TIP3   OH281096   4.111   0.066  15.286 -0.6256 -0.1610  0.7919
19894TIP3    H181097   4.050   0.128  15.326 -0.3912  0.8345 -0.3274
19894TIP3    H281098   4.155   0.116  15.217  2.3405 -0.4755  2.2771
19895TIP3   OH281099   2.237   0.176  14.779  0.2666 -0.3816  0.4519
19895TIP3    H181100   2.197   0.094  14.808  0.1703 -0.3630  0.3732
19895TIP3    H281101   2.327   0.153  14.758 -0.1840 -0.8217 -1.1356
19896TIP3   OH281102   1.386   3.348   1.395  0.3146  0.1340  0.3131
19896TIP3    H181103   1.323   3.276   1.404  0.1412 -0.0351 -1.8519
19896TIP3    H281104   1.427   3.334   1.310  1.6647  1.5330  0.6924
19897TIP3   OH281105   5.045   1.599  10.972  0.2149  0.2778 -0.5386
19897TIP3    H181106   5.045   1.608  10.877  1.2450 -0.2423 -0.5973
19897TIP3    H281107   5.044   1.504  10.987  2.6315  0.2726 -0.0704
19898TIP3   OH281108   3.537   0.299  13.393  0.0215  0.0009 -0.4392
19898TIP3    H181109   3.503   0.307  13.482 -0.1647  1.5901 -0.6162
19898TIP3    H281110   3.587   0.217  13.393 -0.3982 -0.2765  0.9772
19899TIP3   OH281111   0.184   4.554  15.698  0.4379 -0.0356  0.3486
19899TIP3    H181112   0.152   4.565  15.787  0.8731  0.5140  0.4453
19899TIP3    H281113   0.146   4.471  15.668  0.0406 -0.0658  0.9312
19900TIP3   OH281114   0.025   6.749  14.866  0.1975  0.5301  0.4705
19900TIP3    H181115   0.093   6.699  14.912  1.0994  0.4991 -0.8162
19900TIP3    H281116   0.074   6.801  14.802 -0.9553  1.0457 -0.0087
19901TIP3   OH281117   0.862   3.119   2.319  0.7122 -0.0847  0.4900
19901TIP3    H181118   0.814   3.052   2.271 -0.8131  1.4496 -0.2161
19901TIP3    H281119   0.819   3.123   2.404  0.4615  0.3463  0.3454
19902TIP3   OH281120   5.314   3.053  14.251  0.6231  0.3937 -0.2291
19902TIP3    H181121   5.383   3.077  14.313  0.8929 -0.2014 -0.2894
19902TIP3    H281122   5.348   3.078  14.165  1.4395 -1.2544 -0.4392
19903TIP3   OH281123   3.376   3.508   0.227  0.4234 -0.1492  0.0671
19903TIP3    H181124   3.466   3.487   0.203 -0.3641 -0.2659 -3.2345
19903TIP3    H281125   3.377   3.603   0.242  0.9823 -0.0299 -0.6496
19904TIP3   OH281126   5.054   6.276   3.703  0.1713  0.1493  0.5046
19904TIP3    H181127   5.054   6.328   3.783  0.5250  1.5125 -0.3442
19904TIP3    H281128   4.967   6.289   3.666  0.1806 -0.0594  0.4084
19905TIP3   OH281129   2.374   3.265   2.147 -0.6941  0.5455 -0.1312
19905TIP3    H181130   2.450   3.278   2.091  0.8126 -0.6351  1.5382
19905TIP3    H281131   2.376   3.172   2.170 -1.9073  0.7609  0.9631
19906TIP3   OH281132   1.538   3.411   3.714  0.5814  0.0286  0.1786
19906TIP3    H181133   1.500   3.495   3.738  2.4111  1.3117 -1.1369
19906TIP3    H281134   1.465   3.361   3.677 -0.5148  1.0285  0.9138
19907TIP3   OH281135   4.847   2.092  10.499 -0.8600  0.3874 -0.5713
19907TIP3    H181136   4.806   2.147  10.566  2.3854  0.6072  1.4673
19907TIP3    H281137   4.804   2.007  10.509  0.0819  0.1475  2.5605
19908TIP3   OH281138   0.900   2.906   5.667 -0.3088 -0.2846  0.7471
19908TIP3    H181139   0.826   2.965   5.682  0.4959  0.5372  1.5894
19908TIP3    H281140   0.973   2.947   5.714  0.1105 -2.3118  1.9625
19909TIP3   OH281141   3.296   0.470  14.365 -0.4596 -0.4234 -0.1173
19909TIP3    H181142   3.241   0.409  14.316 -0.5458  0.2979 -0.9543
19909TIP3    H281143   3.377   0.421  14.382  0.7935  0.1238 -3.5713
19910TIP3   OH281144   3.281   3.540   4.501  0.2230 -0.3960 -0.7600
19910TIP3    H181145   3.223   3.491   4.559  0.9843 -0.3565  0.0480
19910TIP3    H281146   3.310   3.615   4.553  2.2487 -1.2457 -0.5661
19911TIP3   OH281147   5.770   3.727  17.342  0.3891 -0.0915  0.5674
19911TIP3    H181148   5.821   3.677  17.405  1.7525 -0.9302 -1.1022
19911TIP3    H281149   5.734   3.660  17.283  1.6998  0.7880 -1.3275
19912TIP3   OH281150   2.992   4.581  11.503  0.1192  0.1468 -0.1961
19912TIP3    H181151   3.026   4.644  11.566 -0.0313  0.0346  0.0023
19912TIP3    H281152   2.919   4.539  11.549 -0.1946  0.2885 -0.5624
19913TIP3   OH281153   3.909   5.097   2.497  0.0847 -0.6783 -0.0813
19913TIP3    H181154   3.979   5.132   2.552  1.8419 -2.3155 -1.1842
19913TIP3    H281155   3.890   5.011   2.534 -0.8075 -0.5645 -0.2613
19914TIP3   OH281156   0.633   3.723   5.487 -0.0811  0.7950 -0.0492
19914TIP3    H181157   0.708   3.683   5.534 -0.8904 -0.7254  0.0268
19914TIP3    H281158   0.561   3.719   5.550 -0.3334  1.8866 -0.2601
19915TIP3   OH281159   5.641   6.251   4.726 -0.0855  0.0773  0.1066
19915TIP3    H181160   5.597   6.211   4.800 -0.4005 -1.6785 -0.9861
19915TIP3    H281161   5.728   6.212   4.725 -0.4486 -0.7420 -1.0694
19916TIP3   OH281162   6.558   4.279   5.083  0.8466 -0.4431  0.0552
19916TIP3    H181163   6.620   4.220   5.125  1.4483 -0.4074 -0.7830
19916TIP3    H281164   6.475   4.232   5.086  0.9169 -0.5402  1.0652
19917TIP3   OH281165   2.325   4.482   3.861  0.1074  0.1074 -0.2100
19917TIP3    H181166   2.416   4.489   3.891 -0.1561 -0.4449  0.7494
19917TIP3    H281167   2.294   4.572   3.860  0.4561  0.2356  0.1237
19918TIP3   OH281168   6.649   2.251  14.978  0.6685  0.0687  0.6336
19918TIP3    H181169   6.612   2.166  15.004 -0.3433  0.7310  1.4578
19918TIP3    H281170   6.743   2.237  14.974  0.4428 -1.3988 -0.4301
19919TIP3   OH281171   2.931   0.231   1.182 -0.3190  0.0156  0.0328
19919TIP3    H181172   2.892   0.194   1.103  0.6392  0.7108 -0.7937
19919TIP3    H281173   2.991   0.163   1.213  0.2116  0.2062 -0.5462
19920TIP3   OH281174   3.815   1.496   0.138 -0.5115  0.3540  0.3771
19920TIP3    H181175   3.862   1.417   0.166 -1.1659 -1.2466 -2.5839
19920TIP3    H281176   3.882   1.564   0.139  0.9597 -1.0002 -0.0550
19921TIP3   OH281177   2.014   0.186   0.664  0.5432  0.7023  0.0947
19921TIP3    H181178   2.025   0.224   0.751 -1.6741  0.7614  0.4092
19921TIP3    H281179   2.018   0.261   0.605  0.3990  0.8841  0.3119
19922TIP3   OH281180   1.962   4.319   4.844 -0.9036  0.2809 -0.0820
19922TIP3    H181181   1.946   4.245   4.903 -0.6684  1.0091  0.9237
19922TIP3    H281182   1.995   4.278   4.763 -0.3320 -0.6836  0.6077
19923TIP3   OH281183   4.967   2.158  17.300 -0.0347  0.3116  0.0777
19923TIP3    H181184   4.942   2.074  17.261 -0.9722  0.4642  0.3324
19923TIP3    H281185   5.063   2.156  17.300 -0.0389 -0.6119 -0.2279
19924TIP3   OH281186   1.627   1.854   0.737  0.0445 -0.8378  0.3880
19924TIP3    H181187   1.635   1.948   0.723 -1.3693 -0.4199  2.0758
19924TIP3    H281188   1.547   1.830   0.690 -0.0776 -1.0221  0.6861
19925TIP3   OH281189   3.572   2.345   2.380 -0.3294  0.1847 -0.1047
19925TIP3    H181190   3.597   2.350   2.288  0.0028 -0.7929 -0.0695
19925TIP3    H281191   3.495   2.402   2.387  0.6167  1.5855 -0.6339
19926TIP3   OH281192   0.216   6.275   3.739 -0.2162  0.3787  0.2730
19926TIP3    H181193   0.264   6.352   3.707 -1.1008  1.0174  0.4618
19926TIP3    H281194   0.230   6.209   3.671 -2.1571  1.7280 -1.5718
19927TIP3   OH281195   4.010   1.187  15.748 -0.0569 -0.8524 -0.0909
19927TIP3    H181196   4.094   1.146  15.768  0.1380 -0.1144  0.6814
19927TIP3    H281197   4.024   1.280  15.763 -0.8170 -0.6353 -0.6547
19928TIP3   OH281198   3.335   0.511   2.216 -0.2814 -1.0735  0.4768
19928TIP3    H181199   3.362   0.601   2.236 -2.1338  0.2603 -2.3846
19928TIP3    H281200   3.399   0.481   2.151 -0.8345 -1.0443 -0.0853
19929TIP3   OH281201   3.672   6.087   2.776 -0.5473 -0.0908 -0.6756
19929TIP3    H181202   3.767   6.082   2.764 -0.8073 -1.9478 -2.4941
19929TIP3    H281203   3.658   6.067   2.869  0.7649 -1.0883 -0.6726
19930TIP3   OH281204   5.249   0.291  12.802  0.0661 -0.5085  0.2479
19930TIP3    H181205   5.273   0.375  12.842  0.7497 -0.3222 -0.5295
19930TIP3    H281206   5.211   0.240  12.874 -1.8350  1.0193  0.3986
19931TIP3   OH281207   5.238   3.330  12.253  0.3114 -0.3897  0.4669
19931TIP3    H181208   5.299   3.389  12.210  0.1298 -0.0278  0.6996
19931TIP3    H281209   5.292   3.257  12.284  0.8586  0.6003  1.9088
19932TIP3   OH281210   1.703   5.316  16.620  0.0344  0.0259  0.1193
19932TIP3    H181211   1.714   5.391  16.679  4.0962 -0.5989  0.4858
19932TIP3    H281212   1.657   5.250  16.673 -0.0847  0.9107  1.1433
19933TIP3   OH281213   3.028   6.561   0.344 -0.2813 -0.1727  0.2629
19933TIP3    H181214   3.049   6.541   0.435  1.2498 -0.3603 -0.0918
19933TIP3    H281215   2.968   6.492   0.316 -1.1366  0.1553  1.2541
19934TIP3   OH281216   0.408   1.807   5.427  0.1926  0.4419 -0.2004
19934TIP3    H181217   0.406   1.900   5.405  1.7029  0.2806 -1.1361
19934TIP3    H281218   0.320   1.775   5.407 -1.2619  2.1710  2.7165
19935TIP3   OH281219   0.124   1.102  14.428 -0.0039  0.6902 -0.4559
19935TIP3    H181220   0.149   1.182  14.382  0.9111  1.2355  0.9249
19935TIP3    H281221   0.100   1.131  14.516 -0.6336 -0.4462 -0.2358
19936TIP3   OH281222   4.777   0.924   3.493  0.0495  0.4499 -0.0743
19936TIP3    H181223   4.722   0.927   3.571 -1.9214  2.6222 -1.4163
19936TIP3    H281224   4.762   0.837   3.456  0.9337 -0.5692  1.8159
19937TIP3   OH281225   4.153   3.272   4.720  0.5178  0.4111  0.2457
19937TIP3    H181226   4.191   3.349   4.762  1.2705  1.2966 -1.9119
19937TIP3    H281227   4.119   3.304   4.636  0.5070 -1.5334 -0.5614
19938TIP3   OH281228   2.308   6.355   4.895 -0.4041  0.0804  0.5414
19938TIP3    H181229   2.293   6.310   4.978 -1.5611  2.7990  1.9698
19938TIP3    H281230   2.244   6.316   4.835  1.2508 -2.7609  0.4597
19939TIP3   OH281231   2.366   1.074  10.740  0.2977  0.4137 -0.0484
19939TIP3    H181232   2.367   0.989  10.784 -0.7800  0.9481  1.0744
19939TIP3    H281233   2.300   1.065  10.672  0.2643  0.3160 -0.0033
19940TIP3   OH281234   3.458   6.221  11.729 -0.0374  0.1788  0.5294
19940TIP3    H181235   3.472   6.167  11.650 -1.7206  0.6718 -0.1576
19940TIP3    H281236   3.495   6.306  11.706  1.7052 -0.3390  1.2384
19941TIP3   OH281237   2.770   5.321  13.364  0.7276 -0.2501  0.6034
19941TIP3    H181238   2.807   5.382  13.301  1.9231  0.6904  2.1466
19941TIP3    H281239   2.831   5.248  13.366 -0.5687 -1.4705 -1.0495
19942TIP3   OH281240   2.184   1.260  14.297 -0.3608  0.3123 -0.1860
19942TIP3    H181241   2.099   1.250  14.255  0.0283 -1.3977 -0.6424
19942TIP3    H281242   2.165   1.304  14.380 -1.4194  1.7005 -1.1224
19943TIP3   OH281243   6.275   3.172   0.589  0.2505 -0.2350  0.4420
19943TIP3    H181244   6.317   3.258   0.584  1.1138 -0.7125 -2.5367
19943TIP3    H281245   6.341   3.112   0.555 -0.6155 -1.9976  1.7528
19944TIP3   OH281246   3.177   5.305   6.726  0.1838 -0.3924  0.1677
19944TIP3    H181247   3.103   5.354   6.692 -0.0144 -0.5076  0.4317
19944TIP3    H281248   3.168   5.310   6.822  0.1915 -0.8950  0.1958
19945TIP3   OH281249   2.705   6.580  10.986  0.3001  0.2111 -0.8529
19945TIP3    H181250   2.775   6.541  10.934  0.7269  2.0523 -1.7619
19945TIP3    H281251   2.749   6.614  11.064  0.2549  0.4253 -0.9183
19946TIP3   OH281252   5.253   0.937  12.992 -0.2628  0.2898 -0.2718
19946TIP3    H181253   5.257   0.901  13.080  0.5551  0.5294 -0.2049
19946TIP3    H281254   5.174   0.898  12.954  0.1166 -0.8915  0.0977
19947TIP3   OH281255   2.082   5.118  13.827 -0.4203 -0.1378 -0.0950
19947TIP3    H181256   2.145   5.119  13.755  0.8152 -0.1537  0.9450
19947TIP3    H281257   2.047   5.207  13.830  0.7822  0.3384  0.3414
19948TIP3   OH281258   4.651   0.370  10.685 -0.1555  0.1177  0.0056
19948TIP3    H181259   4.609   0.433  10.627  0.0267 -0.7586 -1.1019
19948TIP3    H281260   4.637   0.285  10.643  0.8499 -0.4295  0.7322
19949TIP3   OH281261   3.722   1.241  16.800 -0.2795  0.4728 -0.1818
19949TIP3    H181262   3.776   1.320  16.801  1.4166 -0.6313  1.1517
19949TIP3    H281263   3.733   1.203  16.888 -0.1013 -1.8658 -1.1399
19950TIP3   OH281264   4.960   1.760  17.360 -0.5931  0.5139  0.5525
19950TIP3    H181265   4.990   1.676  17.324  2.2378 -0.0057  3.6384
19950TIP3    H281266   4.940   1.813  17.282  0.8251 -1.8909 -1.6354
19951TIP3   OH281267   2.759   0.149   3.456 -0.6863  0.2620  0.3523
19951TIP3    H181268   2.778   0.083   3.523  0.4407  0.2098 -0.0078
19951TIP3    H281269   2.742   0.098   3.376  1.1217  0.3928 -0.1620
19952TIP3   OH281270   5.783   4.589  10.806  0.3349  0.1293 -0.1108
19952TIP3    H181271   5.844   4.556  10.740 -1.4134  0.2848 -1.8849
19952TIP3    H281272   5.760   4.677  10.775 -1.2568 -0.1660  0.1334
19953TIP3   OH281273   6.371   4.550  11.045 -0.3541  0.4180 -0.1714
19953TIP3    H181274   6.409   4.588  10.966  1.3279  1.2384  0.9731
19953TIP3    H281275   6.372   4.621  11.109  0.8092 -0.9011  1.3559
19954TIP3   OH281276   4.922   1.657  11.868  0.0052  0.1567  0.7465
19954TIP3    H181277   4.907   1.654  11.773 -0.5543  1.4888  0.7793
19954TIP3    H281278   4.848   1.609  11.905  0.3972 -0.6508  0.5047
19955TIP3   OH281279   5.891   0.642   1.222  0.1541 -0.9570  0.0643
19955TIP3    H181280   5.843   0.668   1.143  0.7789 -0.5264 -0.1726
19955TIP3    H281281   5.823   0.634   1.289 -0.0337  1.9795  0.3544
19956TIP3   OH281282   5.710   1.354   4.878 -0.1103 -0.1789  0.0488
19956TIP3    H181283   5.718   1.380   4.787  0.4011  1.1807  0.4546
19956TIP3    H281284   5.695   1.260   4.875 -1.3344  0.0234 -1.4804
19957TIP3   OH281285   4.926   1.708   2.022  0.3184  0.0267 -0.2254
19957TIP3    H181286   4.989   1.739   1.956  1.3996 -0.7605  0.4026
19957TIP3    H281287   4.955   1.620   2.042  0.3690  0.4510  1.7229
19958LIG      S81288   3.316   2.866  14.945  0.3667 -0.3741  0.2115
19958LIG     N181289   3.041   2.564  15.273  0.5413  0.1741  0.4120
19958LIG     N281290   3.055   2.789  15.076 -0.2434 -0.0594 -0.3326
19958LIG     N381291   2.827   2.250  15.575 -0.0375 -0.3885 -0.0996
19958LIG     C181292   2.961   2.675  15.307 -0.0355  0.3446 -0.6153
19958LIG     C281293   2.864   2.711  15.192 -0.3968 -0.6015 -0.6512
19958LIG     C381294   2.924   2.744  15.057 -1.0415 -0.0729 -0.0352
19958LIG     C481295   3.171   2.698  15.098 -0.6449 -0.2528  0.2017
19958LIG     C581296   3.151   2.588  15.181  0.2298  0.1203 -0.6503
19958LIG     C681297   2.984   2.423  15.282  0.5778 -0.5758 -0.4865
19958LIG     C781298   2.949   2.396  15.426 -0.1631  0.1648  0.4759
19958LIG     C881299   3.088   2.928  15.091  0.4036 -0.1699  0.0440
19958LIG     C981300   3.297   2.726  15.049  0.9389  0.1023  0.2486
19958LIG    C1081301   3.260   2.507  15.214 -0.1767 -0.0014  0.3469
19958LIG    C1181302   2.856   2.273  15.435 -0.4272 -0.0417  0.2421
19958LIG    C1281303   3.211   2.978  15.031  0.2789 -1.2591 -0.2092
19958LIG    C1381304   3.404   2.641  15.083  0.0147  0.4592 -0.3181
19958LIG    C1481305   3.387   2.533  15.162 -0.3921 -0.5030  0.3621
19958LIG    C1581306   3.000   3.019  15.144 -0.4040 -0.1327 -0.6496
19958LIG    C1681307   3.242   3.116  15.042  0.6980  0.8329  0.8770
19958LIG    C1781308   3.045   3.152  15.169  0.3037  0.3149  0.6741
19958LIG    C1881309   3.164   3.199  15.120 -0.0757  0.2185 -0.1708
19958LIG    C1981310   2.936   2.200  15.659  0.0762 -0.1977 -0.1192
19958LIG    C2081311   2.724   2.340  15.631  0.3280 -0.9796  0.1082
19958LIG     H181312   3.029   2.762  15.318  0.9104 -0.2681 -1.3909
19958LIG     H281313   2.899   2.667  15.398  1.4837 -1.4659  0.3306
19958LIG     H381314   2.807   2.799  15.228 -0.9487 -1.6320  1.1476
19958LIG     H481315   2.782   2.635  15.191  1.1855 -2.4122 -0.0109
19958LIG     H581316   2.934   2.639  15.024 -0.5828 -0.8076  2.2474
19958LIG     H681317   2.860   2.815  14.999 -0.4819 -0.8688 -1.6903
19958LIG     H781318   3.059   2.353  15.238 -1.3825 -1.8803 -1.8931
19958LIG     H881319   2.893   2.408  15.221  0.0883  0.3636 -0.0074
19958LIG     H981320   2.884   2.471  15.474 -2.0882 -1.4913  0.5973
19958LIG    H1081321   3.041   2.387  15.488 -1.0308 -0.6459  1.6805
19958LIG    H1181322   3.245   2.425  15.284 -1.5815  0.1798  0.2928
19958LIG    H1281323   2.762   2.281  15.377 -0.5967 -1.8771  0.2095
19958LIG    H1381324   2.911   2.186  15.393 -2.1041 -0.9069 -0.2522
19958LIG    H1481325   3.501   2.658  15.040 -0.1362 -2.9022 -2.3298
19958LIG    H1581326   3.457   2.458  15.194 -0.3415 -0.4785  0.3090
19958LIG    H1681327   2.905   2.982  15.180 -0.2138  0.1302  0.1425
19958LIG    H1781328   3.331   3.161  15.000 -1.1591  2.7669 -1.2334
19958LIG    H1881329   2.977   3.226  15.209  1.6042  1.9474  0.0161
19958LIG    H1981330   3.198   3.301  15.133  0.5327  0.3118 -2.1282
19958LIG    H2081331   2.954   2.273  15.741 -0.4251 -1.8964  1.5465
19958LIG    H2181332   3.033   2.182  15.607  0.0564 -2.2911  0.5012
19958LIG    H2281333   2.900   2.107  15.708 -1.0420 -0.6327 -1.7010
19958LIG    H2381334   2.773   2.428  15.677 -2.6172 -0.3141  2.1910
19958LIG    H2481335   2.664   2.291  15.710  1.0838 -1.8115  0.1817
19958LIG    H2581336   2.659   2.377  15.549  1.1191 -0.0191 -0.1057
   6.77508   6.77508  17.38185
