Title
81378
    1CHL1    C3    1   1.499   4.224  10.246
    1CHL1    H3    2   1.583   4.290  10.218
    1CHL1    O3    3   1.472   4.242  10.383
    1CHL1   H3'    4   1.421   4.171  10.422
    1CHL1    C4    5   1.364   4.246  10.171
    1CHL1   H4A    6   1.284   4.186  10.221
    1CHL1   H4B    7   1.335   4.351  10.192
    1CHL1    C5    8   1.384   4.228  10.023
    1CHL1    C6    9   1.373   4.332   9.933
    1CHL1    H6   10   1.342   4.434   9.960
    1CHL1    C7   11   1.383   4.323   9.780
    1CHL1   H7A   12   1.298   4.374   9.729
    1CHL1   H7B   13   1.482   4.359   9.745
    1CHL1    C8   14   1.377   4.172   9.735
    1CHL1    H8   15   1.273   4.133   9.731
    1CHL1   C14   16   1.431   4.179   9.588
    1CHL1   H14   17   1.532   4.223   9.605
    1CHL1   C15   18   1.360   4.268   9.487
    1CHL1  H15A   19   1.250   4.251   9.493
    1CHL1  H15B   20   1.387   4.375   9.493
    1CHL1   C16   21   1.408   4.216   9.356
    1CHL1  H16A   22   1.321   4.218   9.288
    1CHL1  H16B   23   1.480   4.290   9.316
    1CHL1   C17   24   1.475   4.078   9.375
    1CHL1   H17   25   1.583   4.104   9.365
    1CHL1   C13   26   1.435   4.045   9.522
    1CHL1   C18   27   1.295   3.986   9.520
    1CHL1  H18A   28   1.307   3.900   9.450
    1CHL1  H18B   29   1.266   3.953   9.622
    1CHL1  H18C   30   1.219   4.049   9.470
    1CHL1   C12   31   1.539   3.966   9.605
    1CHL1  H12A   32   1.563   3.870   9.554
    1CHL1  H12B   33   1.639   4.014   9.610
    1CHL1   C11   34   1.493   3.954   9.751
    1CHL1  H11A   35   1.402   3.890   9.752
    1CHL1  H11B   36   1.582   3.909   9.799
    1CHL1    C9   37   1.469   4.091   9.822
    1CHL1    H9   38   1.572   4.131   9.812
    1CHL1   C10   39   1.432   4.086   9.978
    1CHL1   C19   40   1.330   3.979  10.000
    1CHL1  H19A   41   1.379   3.880   9.986
    1CHL1  H19B   42   1.291   3.990  10.104
    1CHL1  H19C   43   1.256   3.987   9.917
    1CHL1    C1   44   1.561   4.059  10.066
    1CHL1   H1A   45   1.598   3.955  10.064
    1CHL1   H1B   46   1.637   4.131  10.029
    1CHL1    C2   47   1.539   4.086  10.213
    1CHL1   H2A   48   1.625   4.056  10.277
    1CHL1   H2B   49   1.450   4.033  10.253
    1CHL1   C20   50   1.455   3.984   9.256
    1CHL1   H20   51   1.346   3.967   9.244
    1CHL1   C21   52   1.529   3.848   9.277
    1CHL1  H21A   53   1.495   3.802   9.372
    1CHL1  H21B   54   1.638   3.865   9.289
    1CHL1  H21C   55   1.511   3.772   9.198
    1CHL1   C22   56   1.485   4.043   9.118
    1CHL1  H22A   57   1.430   4.140   9.119
    1CHL1  H22B   58   1.594   4.060   9.105
    1CHL1   C23   59   1.438   3.968   8.989
    1CHL1  H23A   60   1.468   3.861   8.990
    1CHL1  H23B   61   1.327   3.963   9.002
    1CHL1   C24   62   1.474   4.041   8.850
    1CHL1  H24A   63   1.419   4.137   8.850
    1CHL1  H24B   64   1.583   4.059   8.848
    1CHL1   C25   65   1.440   3.958   8.727
    1CHL1   H25   66   1.481   3.855   8.734
    1CHL1   C26   67   1.287   3.958   8.704
    1CHL1  H26A   68   1.257   4.065   8.702
    1CHL1  H26B   69   1.257   3.903   8.612
    1CHL1  H26C   70   1.232   3.904   8.784
    1CHL1   C27   71   1.507   4.022   8.602
    1CHL1  H27A   72   1.615   4.035   8.623
    1CHL1  H27B   73   1.500   3.962   8.509
    1CHL1  H27C   74   1.459   4.122   8.589
    2CHL1    C3   75   2.622   2.123   9.946
    2CHL1    H3   76   2.724   2.168   9.939
    2CHL1    O3   77   2.578   2.130  10.080
    2CHL1   H3'   78   2.538   2.044  10.089
    2CHL1    C4   79   2.521   2.200   9.863
    2CHL1   H4A   80   2.426   2.145   9.883
    2CHL1   H4B   81   2.526   2.309   9.886
    2CHL1    C5   82   2.552   2.173   9.717
    2CHL1    C6   83   2.549   2.277   9.631
    2CHL1    H6   84   2.517   2.377   9.661
    2CHL1    C7   85   2.569   2.260   9.487
    2CHL1   H7A   86   2.502   2.320   9.421
    2CHL1   H7B   87   2.671   2.299   9.468
    2CHL1    C8   88   2.564   2.115   9.436
    2CHL1    H8   89   2.461   2.073   9.426
    2CHL1   C14   90   2.630   2.105   9.293
    2CHL1   H14   91   2.739   2.123   9.308
    2CHL1   C15   92   2.587   2.201   9.192
    2CHL1  H15A   93   2.479   2.217   9.177
    2CHL1  H15B   94   2.633   2.302   9.200
    2CHL1   C16   95   2.642   2.137   9.061
    2CHL1  H16A   96   2.547   2.130   9.004
    2CHL1  H16B   97   2.717   2.209   9.022
    2CHL1   C17   98   2.699   1.998   9.100
    2CHL1   H17   99   2.805   2.025   9.122
    2CHL1   C13  100   2.628   1.970   9.226
    2CHL1   C18  101   2.478   1.928   9.198
    2CHL1  H18A  102   2.474   1.825   9.158
    2CHL1  H18B  103   2.425   1.935   9.295
    2CHL1  H18C  104   2.424   2.003   9.136
    2CHL1   C12  105   2.699   1.871   9.320
    2CHL1  H12A  106   2.668   1.767   9.295
    2CHL1  H12B  107   2.808   1.888   9.326
    2CHL1   C11  108   2.660   1.879   9.470
    2CHL1  H11A  109   2.572   1.811   9.476
    2CHL1  H11B  110   2.735   1.813   9.519
    2CHL1    C9  111   2.635   2.018   9.531
    2CHL1    H9  112   2.739   2.058   9.528
    2CHL1   C10  113   2.578   2.025   9.676
    2CHL1   C19  114   2.449   1.949   9.682
    2CHL1  H19A  115   2.414   1.931   9.786
    2CHL1  H19B  116   2.362   2.002   9.637
    2CHL1  H19C  117   2.455   1.852   9.629
    2CHL1    C1  118   2.682   1.959   9.773
    2CHL1   H1A  119   2.707   1.853   9.752
    2CHL1   H1B  120   2.777   2.016   9.764
    2CHL1    C2  121   2.644   1.981   9.919
    2CHL1   H2A  122   2.717   1.934   9.988
    2CHL1   H2B  123   2.550   1.924   9.934
    2CHL1   C20  124   2.703   1.896   8.984
    2CHL1   H20  125   2.598   1.870   8.958
    2CHL1   C21  126   2.787   1.773   9.021
    2CHL1  H21A  127   2.754   1.731   9.118
    2CHL1  H21B  128   2.893   1.798   9.043
    2CHL1  H21C  129   2.777   1.692   8.945
    2CHL1   C22  130   2.770   1.970   8.851
    2CHL1  H22A  131   2.715   2.064   8.827
    2CHL1  H22B  132   2.873   1.999   8.881
    2CHL1   C23  133   2.773   1.876   8.726
    2CHL1  H23A  134   2.822   1.780   8.753
    2CHL1  H23B  135   2.668   1.844   8.715
    2CHL1   C24  136   2.818   1.934   8.595
    2CHL1  H24A  137   2.924   1.966   8.605
    2CHL1  H24B  138   2.802   1.843   8.534
    2CHL1   C25  139   2.736   2.050   8.532
    2CHL1   H25  140   2.702   2.130   8.601
    2CHL1   C26  141   2.818   2.130   8.425
    2CHL1  H26A  142   2.865   2.069   8.344
    2CHL1  H26B  143   2.746   2.192   8.367
    2CHL1  H26C  144   2.900   2.192   8.468
    2CHL1   C27  145   2.606   2.000   8.474
    2CHL1  H27A  146   2.548   1.928   8.536
    2CHL1  H27B  147   2.533   2.079   8.444
    2CHL1  H27C  148   2.628   1.961   8.373
    3CHL1    C3  149   3.216   1.938  10.290
    3CHL1    H3  150   3.306   1.875  10.305
    3CHL1    O3  151   3.193   1.993  10.423
    3CHL1   H3'  152   3.132   2.068  10.419
    3CHL1    C4  153   3.228   2.053  10.196
    3CHL1   H4A  154   3.134   2.112  10.201
    3CHL1   H4B  155   3.308   2.122  10.231
    3CHL1    C5  156   3.247   2.013  10.053
    3CHL1    C6  157   3.342   2.050   9.971
    3CHL1    H6  158   3.423   2.114  10.009
    3CHL1    C7  159   3.356   2.026   9.818
    3CHL1   H7A  160   3.349   2.126   9.770
    3CHL1   H7B  161   3.450   1.978   9.784
    3CHL1    C8  162   3.231   1.948   9.762
    3CHL1    H8  163   3.155   2.027   9.749
    3CHL1   C14  164   3.262   1.878   9.634
    3CHL1   H14  165   3.336   1.798   9.654
    3CHL1   C15  166   3.325   1.960   9.518
    3CHL1  H15A  167   3.279   2.061   9.514
    3CHL1  H15B  168   3.429   1.980   9.550
    3CHL1   C16  169   3.308   1.874   9.396
    3CHL1  H16A  170   3.262   1.930   9.311
    3CHL1  H16B  171   3.411   1.856   9.359
    3CHL1   C17  172   3.222   1.751   9.438
    3CHL1   H17  173   3.284   1.662   9.465
    3CHL1   C13  174   3.149   1.801   9.568
    3CHL1   C18  175   3.038   1.895   9.521
    3CHL1  H18A  176   2.950   1.844   9.476
    3CHL1  H18B  177   3.004   1.961   9.603
    3CHL1  H18C  178   3.082   1.966   9.446
    3CHL1   C12  179   3.100   1.692   9.669
    3CHL1  H12A  180   3.014   1.638   9.624
    3CHL1  H12B  181   3.184   1.622   9.687
    3CHL1   C11  182   3.065   1.749   9.807
    3CHL1  H11A  183   2.973   1.810   9.796
    3CHL1  H11B  184   3.042   1.660   9.870
    3CHL1    C9  185   3.178   1.850   9.863
    3CHL1    H9  186   3.267   1.789   9.889
    3CHL1   C10  187   3.134   1.916  10.002
    3CHL1   C19  188   3.006   1.998   9.981
    3CHL1  H19A  189   2.967   2.057  10.067
    3CHL1  H19B  190   3.008   2.074   9.900
    3CHL1  H19C  191   2.927   1.922   9.961
    3CHL1    C1  192   3.112   1.801  10.108
    3CHL1   H1A  193   3.029   1.740  10.067
    3CHL1   H1B  194   3.201   1.735  10.113
    3CHL1    C2  195   3.090   1.851  10.256
    3CHL1   H2A  196   3.098   1.765  10.326
    3CHL1   H2B  197   2.996   1.909  10.269
    3CHL1   C20  198   3.140   1.699   9.320
    3CHL1   H20  199   3.088   1.786   9.275
    3CHL1   C21  200   3.042   1.594   9.363
    3CHL1  H21A  201   2.969   1.643   9.432
    3CHL1  H21B  202   3.087   1.505   9.411
    3CHL1  H21C  203   2.984   1.553   9.278
    3CHL1   C22  204   3.232   1.637   9.213
    3CHL1  H22A  205   3.325   1.698   9.210
    3CHL1  H22B  206   3.279   1.543   9.248
    3CHL1   C23  207   3.178   1.613   9.071
    3CHL1  H23A  208   3.095   1.540   9.079
    3CHL1  H23B  209   3.129   1.702   9.027
    3CHL1   C24  210   3.297   1.576   8.975
    3CHL1  H24A  211   3.370   1.659   8.981
    3CHL1  H24B  212   3.350   1.490   9.022
    3CHL1   C25  213   3.253   1.546   8.830
    3CHL1   H25  214   3.206   1.636   8.787
    3CHL1   C26  215   3.381   1.532   8.745
    3CHL1  H26A  216   3.438   1.445   8.785
    3CHL1  H26B  217   3.362   1.518   8.637
    3CHL1  H26C  218   3.447   1.619   8.767
    3CHL1   C27  219   3.155   1.424   8.815
    3CHL1  H27A  220   3.191   1.330   8.862
    3CHL1  H27B  221   3.060   1.458   8.860
    3CHL1  H27C  222   3.145   1.406   8.706
    4CHL1    C3  223   2.494   3.679  10.542
    4CHL1    H3  224   2.566   3.595  10.539
    4CHL1    O3  225   2.471   3.709  10.678
    4CHL1   H3'  226   2.554   3.749  10.707
    4CHL1    C4  227   2.540   3.809  10.475
    4CHL1   H4A  228   2.467   3.891  10.491
    4CHL1   H4B  229   2.633   3.850  10.520
    4CHL1    C5  230   2.556   3.789  10.319
    4CHL1    C6  231   2.675   3.807  10.255
    4CHL1    H6  232   2.756   3.859  10.307
    4CHL1    C7  233   2.706   3.780  10.112
    4CHL1   H7A  234   2.759   3.872  10.079
    4CHL1   H7B  235   2.775   3.693  10.106
    4CHL1    C8  236   2.573   3.757  10.027
    4CHL1    H8  237   2.521   3.852  10.002
    4CHL1   C14  238   2.605   3.683   9.906
    4CHL1   H14  239   2.659   3.590   9.934
    4CHL1   C15  240   2.707   3.740   9.806
    4CHL1  H15A  241   2.687   3.844   9.773
    4CHL1  H15B  242   2.814   3.734   9.839
    4CHL1   C16  243   2.690   3.642   9.686
    4CHL1  H16A  244   2.690   3.714   9.601
    4CHL1  H16B  245   2.764   3.559   9.682
    4CHL1   C17  246   2.549   3.574   9.697
    4CHL1   H17  247   2.570   3.472   9.736
    4CHL1   C13  248   2.482   3.654   9.814
    4CHL1   C18  249   2.421   3.788   9.759
    4CHL1  H18A  250   2.320   3.761   9.720
    4CHL1  H18B  251   2.400   3.855   9.844
    4CHL1  H18C  252   2.485   3.835   9.681
    4CHL1   C12  253   2.387   3.570   9.900
    4CHL1  H12A  254   2.291   3.543   9.850
    4CHL1  H12B  255   2.439   3.478   9.935
    4CHL1   C11  256   2.343   3.643  10.031
    4CHL1  H11A  257   2.302   3.741   9.998
    4CHL1  H11B  258   2.267   3.577  10.079
    4CHL1    C9  259   2.466   3.677  10.112
    4CHL1    H9  260   2.524   3.583  10.122
    4CHL1   C10  261   2.426   3.731  10.249
    4CHL1   C19  262   2.321   3.851  10.233
    4CHL1  H19A  263   2.352   3.918  10.150
    4CHL1  H19B  264   2.227   3.810  10.191
    4CHL1  H19C  265   2.303   3.905  10.329
    4CHL1    C1  266   2.358   3.617  10.332
    4CHL1   H1A  267   2.263   3.578  10.291
    4CHL1   H1B  268   2.423   3.528  10.315
    4CHL1    C2  269   2.359   3.632  10.483
    4CHL1   H2A  270   2.335   3.541  10.543
    4CHL1   H2B  271   2.285   3.704  10.522
    4CHL1   C20  272   2.479   3.559   9.565
    4CHL1   H20  273   2.449   3.659   9.526
    4CHL1   C21  274   2.364   3.457   9.588
    4CHL1  H21A  275   2.316   3.424   9.493
    4CHL1  H21B  276   2.284   3.509   9.646
    4CHL1  H21C  277   2.385   3.369   9.652
    4CHL1   C22  278   2.569   3.494   9.458
    4CHL1  H22A  279   2.662   3.553   9.447
    4CHL1  H22B  280   2.607   3.399   9.502
    4CHL1   C23  281   2.506   3.483   9.315
    4CHL1  H23A  282   2.429   3.406   9.295
    4CHL1  H23B  283   2.459   3.581   9.290
    4CHL1   C24  284   2.612   3.454   9.212
    4CHL1  H24A  285   2.695   3.527   9.216
    4CHL1  H24B  286   2.655   3.352   9.230
    4CHL1   C25  287   2.569   3.449   9.063
    4CHL1   H25  288   2.492   3.369   9.063
    4CHL1   C26  289   2.522   3.582   9.001
    4CHL1  H26A  290   2.601   3.660   9.010
    4CHL1  H26B  291   2.513   3.556   8.893
    4CHL1  H26C  292   2.426   3.617   9.043
    4CHL1   C27  293   2.683   3.389   8.975
    4CHL1  H27A  294   2.713   3.290   9.016
    4CHL1  H27B  295   2.636   3.383   8.875
    4CHL1  H27C  296   2.775   3.451   8.990
    5CHL1    C3  297   3.499   1.706  10.123
    5CHL1    H3  298   3.396   1.742  10.101
    5CHL1    O3  299   3.508   1.700  10.263
    5CHL1   H3'  300   3.429   1.651  10.286
    5CHL1    C4  301   3.511   1.562  10.070
    5CHL1   H4A  302   3.588   1.502  10.123
    5CHL1   H4B  303   3.425   1.497  10.093
    5CHL1    C5  304   3.526   1.561   9.919
    5CHL1    C6  305   3.436   1.494   9.848
    5CHL1    H6  306   3.364   1.431   9.901
    5CHL1    C7  307   3.465   1.474   9.692
    5CHL1   H7A  308   3.470   1.367   9.661
    5CHL1   H7B  309   3.385   1.524   9.634
    5CHL1    C8  310   3.598   1.535   9.639
    5CHL1    H8  311   3.678   1.461   9.659
    5CHL1   C14  312   3.586   1.547   9.487
    5CHL1   H14  313   3.500   1.616   9.477
    5CHL1   C15  314   3.553   1.416   9.413
    5CHL1  H15A  315   3.603   1.326   9.455
    5CHL1  H15B  316   3.445   1.390   9.413
    5CHL1   C16  317   3.612   1.440   9.277
    5CHL1  H16A  318   3.678   1.355   9.249
    5CHL1  H16B  319   3.538   1.446   9.195
    5CHL1   C17  320   3.679   1.581   9.275
    5CHL1   H17  321   3.601   1.658   9.256
    5CHL1   C13  322   3.712   1.602   9.426
    5CHL1   C18  323   3.838   1.509   9.446
    5CHL1  H18A  324   3.859   1.513   9.555
    5CHL1  H18B  325   3.826   1.404   9.411
    5CHL1  H18C  326   3.920   1.556   9.387
    5CHL1   C12  327   3.741   1.744   9.475
    5CHL1  H12A  328   3.834   1.789   9.435
    5CHL1  H12B  329   3.666   1.809   9.425
    5CHL1   C11  330   3.743   1.750   9.633
    5CHL1  H11A  331   3.838   1.705   9.670
    5CHL1  H11B  332   3.742   1.857   9.665
    5CHL1    C9  333   3.627   1.670   9.704
    5CHL1    H9  334   3.536   1.727   9.677
    5CHL1   C10  335   3.641   1.644   9.861
    5CHL1   C19  336   3.780   1.587   9.891
    5CHL1  H19A  337   3.869   1.642   9.856
    5CHL1  H19B  338   3.794   1.583  10.001
    5CHL1  H19C  339   3.786   1.484   9.849
    5CHL1    C1  340   3.637   1.782   9.921
    5CHL1   H1A  341   3.733   1.833   9.895
    5CHL1   H1B  342   3.549   1.828   9.871
    5CHL1    C2  343   3.612   1.797  10.074
    5CHL1   H2A  344   3.585   1.903  10.096
    5CHL1   H2B  345   3.699   1.760  10.131
    5CHL1   C20  346   3.786   1.609   9.166
    5CHL1   H20  347   3.879   1.558   9.197
    5CHL1   C21  348   3.827   1.756   9.145
    5CHL1  H21A  349   3.895   1.758   9.057
    5CHL1  H21B  350   3.891   1.785   9.231
    5CHL1  H21C  351   3.750   1.833   9.123
    5CHL1   C22  352   3.750   1.559   9.022
    5CHL1  H22A  353   3.704   1.458   9.035
    5CHL1  H22B  354   3.681   1.623   8.963
    5CHL1   C23  355   3.872   1.522   8.930
    5CHL1  H23A  356   3.935   1.607   8.895
    5CHL1  H23B  357   3.933   1.443   8.980
    5CHL1   C24  358   3.826   1.451   8.804
    5CHL1  H24A  359   3.753   1.371   8.831
    5CHL1  H24B  360   3.772   1.524   8.740
    5CHL1   C25  361   3.944   1.397   8.716
    5CHL1   H25  362   3.997   1.322   8.779
    5CHL1   C26  363   3.883   1.323   8.600
    5CHL1  H26A  364   3.815   1.243   8.635
    5CHL1  H26B  365   3.818   1.392   8.541
    5CHL1  H26C  366   3.967   1.289   8.535
    5CHL1   C27  367   4.043   1.506   8.667
    5CHL1  H27A  368   4.104   1.546   8.751
    5CHL1  H27B  369   4.113   1.462   8.593
    5CHL1  H27C  370   3.982   1.582   8.613
    6CHL1    C3  371   1.227   6.034  10.401
    6CHL1    H3  372   1.128   5.992  10.378
    6CHL1    O3  373   1.233   6.077  10.538
    6CHL1   H3'  374   1.313   6.038  10.574
    6CHL1    C4  375   1.323   5.919  10.381
    6CHL1   H4A  376   1.417   5.951  10.432
    6CHL1   H4B  377   1.276   5.834  10.433
    6CHL1    C5  378   1.346   5.883  10.234
    6CHL1    C6  379   1.343   5.755  10.193
    6CHL1    H6  380   1.323   5.674  10.265
    6CHL1    C7  381   1.382   5.708  10.054
    6CHL1   H7A  382   1.465   5.635  10.065
    6CHL1   H7B  383   1.305   5.649  10.000
    6CHL1    C8  384   1.433   5.822   9.965
    6CHL1    H8  385   1.541   5.830   9.990
    6CHL1   C14  386   1.427   5.792   9.815
    6CHL1   H14  387   1.318   5.795   9.795
    6CHL1   C15  388   1.492   5.658   9.779
    6CHL1  H15A  389   1.588   5.649   9.833
    6CHL1  H15B  390   1.426   5.569   9.787
    6CHL1   C16  391   1.516   5.664   9.634
    6CHL1  H16A  392   1.621   5.643   9.605
    6CHL1  H16B  393   1.456   5.594   9.572
    6CHL1   C17  394   1.478   5.814   9.587
    6CHL1   H17  395   1.368   5.808   9.573
    6CHL1   C13  396   1.496   5.891   9.725
    6CHL1   C18  397   1.645   5.908   9.757
    6CHL1  H18A  398   1.690   5.970   9.677
    6CHL1  H18B  399   1.658   5.966   9.852
    6CHL1  H18C  400   1.707   5.817   9.767
    6CHL1   C12  401   1.431   6.031   9.747
    6CHL1  H12A  402   1.488   6.107   9.688
    6CHL1  H12B  403   1.325   6.031   9.712
    6CHL1   C11  404   1.426   6.068   9.902
    6CHL1  H11A  405   1.530   6.098   9.922
    6CHL1  H11B  406   1.372   6.164   9.912
    6CHL1    C9  407   1.366   5.956   9.996
    6CHL1    H9  408   1.256   5.948   9.981
    6CHL1   C10  409   1.376   6.003  10.141
    6CHL1   C19  410   1.516   6.062  10.184
    6CHL1  H19A  411   1.523   6.079  10.294
    6CHL1  H19B  412   1.599   5.997  10.148
    6CHL1  H19C  413   1.543   6.157  10.133
    6CHL1    C1  414   1.261   6.106  10.166
    6CHL1   H1A  415   1.276   6.192  10.098
    6CHL1   H1B  416   1.164   6.059  10.139
    6CHL1    C2  417   1.253   6.152  10.315
    6CHL1   H2A  418   1.171   6.227  10.322
    6CHL1   H2B  419   1.353   6.195  10.341
    6CHL1   C20  420   1.551   5.870   9.461
    6CHL1   H20  421   1.651   5.898   9.502
    6CHL1   C21  422   1.477   5.997   9.411
    6CHL1  H21A  423   1.373   5.979   9.377
    6CHL1  H21B  424   1.531   6.051   9.330
    6CHL1  H21C  425   1.468   6.077   9.488
    6CHL1   C22  426   1.592   5.783   9.342
    6CHL1  H22A  427   1.659   5.850   9.284
    6CHL1  H22B  428   1.648   5.695   9.379
    6CHL1   C23  429   1.478   5.734   9.251
    6CHL1  H23A  430   1.430   5.647   9.301
    6CHL1  H23B  431   1.403   5.816   9.244
    6CHL1   C24  432   1.528   5.691   9.115
    6CHL1  H24A  433   1.566   5.787   9.073
    6CHL1  H24B  434   1.607   5.613   9.115
    6CHL1   C25  435   1.413   5.648   9.015
    6CHL1   H25  436   1.317   5.702   9.028
    6CHL1   C26  437   1.461   5.672   8.871
    6CHL1  H26A  438   1.386   5.640   8.796
    6CHL1  H26B  439   1.478   5.781   8.857
    6CHL1  H26C  440   1.557   5.618   8.860
    6CHL1   C27  441   1.372   5.500   9.036
    6CHL1  H27A  442   1.323   5.458   8.945
    6CHL1  H27B  443   1.468   5.451   9.061
    6CHL1  H27C  444   1.297   5.509   9.117
    7CHL1    C3  445   4.292   2.369  10.423
    7CHL1    H3  446   4.309   2.260  10.417
    7CHL1    O3  447   4.272   2.393  10.562
    7CHL1   H3'  448   4.267   2.488  10.575
    7CHL1    C4  449   4.419   2.440  10.370
    7CHL1   H4A  450   4.418   2.548  10.394
    7CHL1   H4B  451   4.504   2.393  10.426
    7CHL1    C5  452   4.447   2.423  10.225
    7CHL1    C6  453   4.573   2.380  10.180
    7CHL1    H6  454   4.653   2.362  10.253
    7CHL1    C7  455   4.613   2.377  10.039
    7CHL1   H7A  456   4.709   2.426  10.012
    7CHL1   H7B  457   4.644   2.271  10.029
    7CHL1    C8  458   4.503   2.427   9.948
    7CHL1    H8  459   4.501   2.538   9.943
    7CHL1   C14  460   4.531   2.378   9.807
    7CHL1   H14  461   4.528   2.267   9.805
    7CHL1   C15  462   4.662   2.412   9.732
    7CHL1  H15A  463   4.693   2.517   9.752
    7CHL1  H15B  464   4.740   2.349   9.780
    7CHL1   C16  465   4.639   2.398   9.580
    7CHL1  H16A  466   4.668   2.495   9.534
    7CHL1  H16B  467   4.707   2.320   9.540
    7CHL1   C17  468   4.492   2.360   9.571
    7CHL1   H17  469   4.503   2.251   9.588
    7CHL1   C13  470   4.428   2.421   9.696
    7CHL1   C18  471   4.421   2.571   9.682
    7CHL1  H18A  472   4.353   2.598   9.598
    7CHL1  H18B  473   4.370   2.612   9.772
    7CHL1  H18C  474   4.517   2.625   9.667
    7CHL1   C12  475   4.289   2.377   9.735
    7CHL1  H12A  476   4.214   2.419   9.665
    7CHL1  H12B  477   4.296   2.267   9.721
    7CHL1   C11  478   4.253   2.399   9.883
    7CHL1  H11A  479   4.214   2.503   9.889
    7CHL1  H11B  480   4.168   2.334   9.913
    7CHL1    C9  481   4.365   2.378   9.992
    7CHL1    H9  482   4.387   2.269   9.999
    7CHL1   C10  483   4.326   2.441  10.134
    7CHL1   C19  484   4.290   2.589  10.126
    7CHL1  H19A  485   4.369   2.648  10.075
    7CHL1  H19B  486   4.190   2.601  10.080
    7CHL1  H19C  487   4.274   2.631  10.228
    7CHL1    C1  488   4.198   2.367  10.186
    7CHL1   H1A  489   4.113   2.399  10.123
    7CHL1   H1B  490   4.215   2.258  10.177
    7CHL1    C2  491   4.168   2.398  10.336
    7CHL1   H2A  492   4.086   2.331  10.370
    7CHL1   H2B  493   4.144   2.506  10.330
    7CHL1   C20  494   4.433   2.381   9.430
    7CHL1   H20  495   4.398   2.486   9.419
    7CHL1   C21  496   4.325   2.280   9.394
    7CHL1  H21A  497   4.289   2.289   9.289
    7CHL1  H21B  498   4.234   2.285   9.458
    7CHL1  H21C  499   4.372   2.180   9.388
    7CHL1   C22  500   4.546   2.360   9.321
    7CHL1  H22A  501   4.622   2.438   9.339
    7CHL1  H22B  502   4.598   2.266   9.352
    7CHL1   C23  503   4.506   2.341   9.172
    7CHL1  H23A  504   4.458   2.241   9.168
    7CHL1  H23B  505   4.432   2.419   9.144
    7CHL1   C24  506   4.627   2.361   9.078
    7CHL1  H24A  507   4.681   2.457   9.093
    7CHL1  H24B  508   4.696   2.275   9.091
    7CHL1   C25  509   4.586   2.357   8.923
    7CHL1   H25  510   4.507   2.434   8.912
    7CHL1   C26  511   4.707   2.385   8.832
    7CHL1  H26A  512   4.777   2.298   8.827
    7CHL1  H26B  513   4.668   2.410   8.732
    7CHL1  H26C  514   4.768   2.473   8.862
    7CHL1   C27  515   4.531   2.223   8.880
    7CHL1  H27A  516   4.576   2.128   8.915
    7CHL1  H27B  517   4.428   2.221   8.921
    7CHL1  H27C  518   4.521   2.223   8.769
    8CHL1    C3  519   4.939   3.756  10.427
    8CHL1    H3  520   4.985   3.852  10.397
    8CHL1    O3  521   4.986   3.722  10.559
    8CHL1   H3'  522   4.932   3.646  10.583
    8CHL1    C4  523   4.783   3.791  10.413
    8CHL1   H4A  524   4.713   3.714  10.452
    8CHL1   H4B  525   4.768   3.879  10.478
    8CHL1    C5  526   4.751   3.832  10.273
    8CHL1    C6  527   4.711   3.954  10.241
    8CHL1    H6  528   4.691   4.023  10.324
    8CHL1    C7  529   4.676   3.997  10.099
    8CHL1   H7A  530   4.595   4.073  10.090
    8CHL1   H7B  531   4.766   4.051  10.061
    8CHL1    C8  532   4.660   3.873  10.002
    8CHL1    H8  533   4.565   3.825  10.034
    8CHL1   C14  534   4.648   3.921   9.858
    8CHL1   H14  535   4.748   3.967   9.841
    8CHL1   C15  536   4.554   4.037   9.826
    8CHL1  H15A  537   4.454   4.033   9.874
    8CHL1  H15B  538   4.601   4.130   9.863
    8CHL1   C16  539   4.542   4.040   9.676
    8CHL1  H16A  540   4.436   4.029   9.647
    8CHL1  H16B  541   4.594   4.131   9.639
    8CHL1   C17  542   4.625   3.919   9.626
    8CHL1   H17  543   4.728   3.955   9.608
    8CHL1   C13  544   4.629   3.818   9.747
    8CHL1   C18  545   4.498   3.730   9.752
    8CHL1  H18A  546   4.405   3.784   9.724
    8CHL1  H18B  547   4.511   3.647   9.680
    8CHL1  H18C  548   4.498   3.685   9.854
    8CHL1   C12  549   4.756   3.728   9.767
    8CHL1  H12A  550   4.731   3.642   9.701
    8CHL1  H12B  551   4.850   3.771   9.726
    8CHL1   C11  552   4.763   3.665   9.910
    8CHL1  H11A  553   4.676   3.599   9.930
    8CHL1  H11B  554   4.852   3.600   9.922
    8CHL1    C9  555   4.778   3.778  10.020
    8CHL1    H9  556   4.865   3.840   9.991
    8CHL1   C10  557   4.797   3.726  10.169
    8CHL1   C19  558   4.700   3.612  10.188
    8CHL1  H19A  559   4.601   3.648  10.153
    8CHL1  H19B  560   4.724   3.528  10.119
    8CHL1  H19C  561   4.694   3.568  10.290
    8CHL1    C1  562   4.943   3.668  10.187
    8CHL1   H1A  563   4.946   3.577  10.123
    8CHL1   H1B  564   5.014   3.739  10.139
    8CHL1    C2  565   4.986   3.642  10.335
    8CHL1   H2A  566   5.096   3.630  10.325
    8CHL1   H2B  567   4.938   3.545  10.360
    8CHL1   C20  568   4.571   3.865   9.489
    8CHL1   H20  569   4.480   3.802   9.502
    8CHL1   C21  570   4.686   3.777   9.435
    8CHL1  H21A  571   4.704   3.691   9.503
    8CHL1  H21B  572   4.773   3.844   9.417
    8CHL1  H21C  573   4.647   3.729   9.343
    8CHL1   C22  574   4.534   3.971   9.387
    8CHL1  H22A  575   4.465   4.045   9.434
    8CHL1  H22B  576   4.625   4.026   9.356
    8CHL1   C23  577   4.467   3.923   9.260
    8CHL1  H23A  578   4.529   3.857   9.196
    8CHL1  H23B  579   4.372   3.868   9.279
    8CHL1   C24  580   4.416   4.040   9.164
    8CHL1  H24A  581   4.347   3.990   9.093
    8CHL1  H24B  582   4.350   4.108   9.221
    8CHL1   C25  583   4.524   4.116   9.087
    8CHL1   H25  584   4.615   4.121   9.151
    8CHL1   C26  585   4.564   4.056   8.957
    8CHL1  H26A  586   4.470   4.050   8.899
    8CHL1  H26B  587   4.631   4.124   8.900
    8CHL1  H26C  588   4.611   3.956   8.967
    8CHL1   C27  589   4.476   4.259   9.054
    8CHL1  H27A  590   4.548   4.301   8.981
    8CHL1  H27B  591   4.386   4.248   8.989
    8CHL1  H27C  592   4.451   4.319   9.144
    9CHL1    C3  593   0.972   0.166  10.187
    9CHL1    H3  594   1.030   0.260  10.184
    9CHL1    O3  595   0.959   0.120  10.325
    9CHL1   H3'  596   0.916   0.035  10.329
    9CHL1    C4  597   0.823   0.187  10.141
    9CHL1   H4A  598   0.772   0.092  10.166
    9CHL1   H4B  599   0.768   0.252  10.212
    9CHL1    C5  600   0.806   0.210   9.994
    9CHL1    C6  601   0.758   0.329   9.956
    9CHL1    H6  602   0.702   0.401  10.017
    9CHL1    C7  603   0.743   0.361   9.809
    9CHL1   H7A  604   0.651   0.422   9.801
    9CHL1   H7B  605   0.838   0.410   9.778
    9CHL1    C8  606   0.740   0.233   9.723
    9CHL1    H8  607   0.648   0.178   9.752
    9CHL1   C14  608   0.743   0.278   9.577
    9CHL1   H14  609   0.840   0.333   9.575
    9CHL1   C15  610   0.639   0.374   9.524
    9CHL1  H15A  611   0.537   0.340   9.550
    9CHL1  H15B  612   0.666   0.476   9.559
    9CHL1   C16  613   0.656   0.361   9.365
    9CHL1  H16A  614   0.554   0.345   9.323
    9CHL1  H16B  615   0.703   0.451   9.322
    9CHL1   C17  616   0.743   0.233   9.341
    9CHL1   H17  617   0.846   0.272   9.328
    9CHL1   C13  618   0.760   0.164   9.482
    9CHL1   C18  619   0.638   0.069   9.498
    9CHL1  H18A  620   0.646  -0.023   9.437
    9CHL1  H18B  621   0.615   0.029   9.599
    9CHL1  H18C  622   0.550   0.128   9.466
    9CHL1   C12  623   0.898   0.095   9.511
    9CHL1  H12A  624   0.914   0.023   9.429
    9CHL1  H12B  625   0.984   0.165   9.503
    9CHL1   C11  626   0.893   0.033   9.649
    9CHL1  H11A  627   0.813  -0.044   9.649
    9CHL1  H11B  628   0.990  -0.013   9.678
    9CHL1    C9  629   0.860   0.144   9.756
    9CHL1    H9  630   0.939   0.221   9.741
    9CHL1   C10  631   0.861   0.102   9.905
    9CHL1   C19  632   0.779  -0.022   9.921
    9CHL1  H19A  633   0.669  -0.007   9.928
    9CHL1  H19B  634   0.795  -0.100   9.844
    9CHL1  H19C  635   0.805  -0.057  10.023
    9CHL1    C1  636   1.010   0.077   9.950
    9CHL1   H1A  637   1.040  -0.016   9.897
    9CHL1   H1B  638   1.069   0.167   9.922
    9CHL1    C2  639   1.043   0.061  10.109
    9CHL1   H2A  640   1.153   0.061  10.127
    9CHL1   H2B  641   1.009  -0.044  10.126
    9CHL1   C20  642   0.701   0.151   9.218
    9CHL1   H20  643   0.602   0.104   9.235
    9CHL1   C21  644   0.813   0.049   9.187
    9CHL1  H21A  645   0.799  -0.029   9.265
    9CHL1  H21B  646   0.911   0.100   9.199
    9CHL1  H21C  647   0.796   0.014   9.083
    9CHL1   C22  648   0.668   0.225   9.086
    9CHL1  H22A  649   0.654   0.148   9.007
    9CHL1  H22B  650   0.574   0.284   9.092
    9CHL1   C23  651   0.773   0.326   9.024
    9CHL1  H23A  652   0.812   0.404   9.092
    9CHL1  H23B  653   0.859   0.257   9.005
    9CHL1   C24  654   0.701   0.387   8.894
    9CHL1  H24A  655   0.638   0.315   8.837
    9CHL1  H24B  656   0.634   0.467   8.934
    9CHL1   C25  657   0.800   0.450   8.798
    9CHL1   H25  658   0.875   0.505   8.859
    9CHL1   C26  659   0.865   0.336   8.701
    9CHL1  H26A  660   0.928   0.384   8.623
    9CHL1  H26B  661   0.914   0.259   8.764
    9CHL1  H26C  662   0.779   0.289   8.648
    9CHL1   C27  663   0.728   0.557   8.712
    9CHL1  H27A  664   0.787   0.603   8.629
    9CHL1  H27B  665   0.642   0.505   8.666
    9CHL1  H27C  666   0.701   0.637   8.784
   10CHL1    C3  667   6.772   4.140  10.106
   10CHL1    H3  668   6.713   4.048  10.125
   10CHL1    O3  669   6.813   4.191  10.231
   10CHL1   H3'  670   6.823   4.286  10.229
   10CHL1    C4  671   6.886   4.095  10.015
   10CHL1   H4A  672   6.960   4.177  10.003
   10CHL1   H4B  673   6.939   4.014  10.069
   10CHL1    C5  674   6.841   4.048   9.881
   10CHL1    C6  675   6.883   3.930   9.835
   10CHL1    H6  676   6.956   3.861   9.879
   10CHL1    C7  677   6.839   3.878   9.699
   10CHL1   H7A  678   6.925   3.854   9.632
   10CHL1   H7B  679   6.779   3.785   9.715
   10CHL1    C8  680   6.763   3.984   9.607
   10CHL1    H8  681   6.828   4.061   9.560
   10CHL1   C14  682   6.688   3.926   9.491
   10CHL1   H14  683   6.620   3.856   9.543
   10CHL1   C15  684   6.770   3.836   9.397
   10CHL1  H15A  685   6.848   3.903   9.354
   10CHL1  H15B  686   6.812   3.742   9.440
   10CHL1   C16  687   6.669   3.805   9.287
   10CHL1  H16A  688   6.721   3.812   9.189
   10CHL1  H16B  689   6.619   3.707   9.306
   10CHL1   C17  690   6.559   3.911   9.301
   10CHL1   H17  691   6.479   3.850   9.347
   10CHL1   C13  692   6.607   4.019   9.403
   10CHL1   C18  693   6.693   4.121   9.339
   10CHL1  H18A  694   6.746   4.070   9.256
   10CHL1  H18B  695   6.631   4.192   9.280
   10CHL1  H18C  696   6.763   4.181   9.401
   10CHL1   C12  697   6.506   4.084   9.497
   10CHL1  H12A  698   6.436   4.153   9.445
   10CHL1  H12B  699   6.430   4.010   9.527
   10CHL1   C11  700   6.574   4.148   9.615
   10CHL1  H11A  701   6.633   4.237   9.583
   10CHL1  H11B  702   6.500   4.195   9.683
   10CHL1    C9  703   6.658   4.060   9.700
   10CHL1    H9  704   6.588   3.988   9.747
   10CHL1   C10  705   6.734   4.128   9.816
   10CHL1   C19  706   6.821   4.248   9.755
   10CHL1  H19A  707   6.890   4.286   9.834
   10CHL1  H19B  708   6.886   4.235   9.666
   10CHL1  H19C  709   6.749   4.331   9.739
   10CHL1    C1  710   6.627   4.182   9.910
   10CHL1   H1A  711   6.574   4.265   9.859
   10CHL1   H1B  712   6.553   4.106   9.944
   10CHL1    C2  713   6.687   4.244  10.036
   10CHL1   H2A  714   6.610   4.274  10.110
   10CHL1   H2B  715   6.749   4.332  10.012
   10CHL1   C20  716   6.500   3.956   9.160
   10CHL1   H20  717   6.579   4.008   9.101
   10CHL1   C21  718   6.375   4.053   9.186
   10CHL1  H21A  719   6.404   4.156   9.215
   10CHL1  H21B  720   6.317   3.996   9.261
   10CHL1  H21C  721   6.299   4.059   9.105
   10CHL1   C22  722   6.465   3.839   9.066
   10CHL1  H22A  723   6.560   3.782   9.055
   10CHL1  H22B  724   6.396   3.767   9.114
   10CHL1   C23  725   6.406   3.880   8.932
   10CHL1  H23A  726   6.313   3.940   8.924
   10CHL1  H23B  727   6.486   3.937   8.879
   10CHL1   C24  728   6.380   3.744   8.846
   10CHL1  H24A  729   6.478   3.693   8.854
   10CHL1  H24B  730   6.303   3.683   8.898
   10CHL1   C25  731   6.311   3.768   8.706
   10CHL1   H25  732   6.216   3.821   8.728
   10CHL1   C26  733   6.387   3.858   8.606
   10CHL1  H26A  734   6.479   3.803   8.576
   10CHL1  H26B  735   6.312   3.876   8.526
   10CHL1  H26C  736   6.408   3.957   8.650
   10CHL1   C27  737   6.286   3.629   8.645
   10CHL1  H27A  738   6.226   3.642   8.553
   10CHL1  H27B  739   6.382   3.574   8.640
   10CHL1  H27C  740   6.222   3.563   8.708
   11CHL1    C3  741   2.486   0.436  10.105
   11CHL1    H3  742   2.580   0.494  10.120
   11CHL1    O3  743   2.416   0.451  10.228
   11CHL1   H3'  744   2.478   0.434  10.299
   11CHL1    C4  745   2.417   0.499   9.983
   11CHL1   H4A  746   2.320   0.444   9.986
   11CHL1   H4B  747   2.401   0.607  10.002
   11CHL1    C5  748   2.487   0.465   9.854
   11CHL1    C6  749   2.513   0.572   9.775
   11CHL1    H6  750   2.474   0.670   9.806
   11CHL1    C7  751   2.582   0.562   9.641
   11CHL1   H7A  752   2.535   0.636   9.573
   11CHL1   H7B  753   2.693   0.572   9.645
   11CHL1    C8  754   2.577   0.416   9.588
   11CHL1    H8  755   2.473   0.397   9.556
   11CHL1   C14  756   2.659   0.404   9.463
   11CHL1   H14  757   2.762   0.430   9.496
   11CHL1   C15  758   2.627   0.498   9.346
   11CHL1  H15A  759   2.517   0.511   9.343
   11CHL1  H15B  760   2.670   0.600   9.359
   11CHL1   C16  761   2.681   0.425   9.223
   11CHL1  H16A  762   2.592   0.408   9.159
   11CHL1  H16B  763   2.759   0.484   9.170
   11CHL1   C17  764   2.732   0.289   9.273
   11CHL1   H17  765   2.839   0.295   9.304
   11CHL1   C13  766   2.658   0.267   9.403
   11CHL1   C18  767   2.517   0.217   9.374
   11CHL1  H18A  768   2.458   0.277   9.301
   11CHL1  H18B  769   2.514   0.112   9.337
   11CHL1  H18C  770   2.449   0.223   9.461
   11CHL1   C12  771   2.727   0.172   9.507
   11CHL1  H12A  772   2.725   0.064   9.479
   11CHL1  H12B  773   2.834   0.199   9.522
   11CHL1   C11  774   2.655   0.176   9.647
   11CHL1  H11A  775   2.574   0.100   9.645
   11CHL1  H11B  776   2.731   0.118   9.705
   11CHL1    C9  777   2.619   0.318   9.696
   11CHL1    H9  778   2.720   0.355   9.725
   11CHL1   C10  779   2.534   0.329   9.827
   11CHL1   C19  780   2.402   0.241   9.807
   11CHL1  H19A  781   2.359   0.253   9.705
   11CHL1  H19B  782   2.420   0.133   9.826
   11CHL1  H19C  783   2.317   0.267   9.873
   11CHL1    C1  784   2.607   0.270   9.953
   11CHL1   H1A  785   2.621   0.161   9.936
   11CHL1   H1B  786   2.705   0.322   9.958
   11CHL1    C2  787   2.529   0.289  10.085
   11CHL1   H2A  788   2.584   0.247  10.172
   11CHL1   H2B  789   2.436   0.232  10.068
   11CHL1   C20  790   2.733   0.187   9.157
   11CHL1   H20  791   2.631   0.193   9.114
   11CHL1   C21  792   2.772   0.050   9.212
   11CHL1  H21A  793   2.831   0.056   9.306
   11CHL1  H21B  794   2.827  -0.009   9.136
   11CHL1  H21C  795   2.686  -0.011   9.247
   11CHL1   C22  796   2.842   0.219   9.042
   11CHL1  H22A  797   2.836   0.329   9.030
   11CHL1  H22B  798   2.944   0.192   9.077
   11CHL1   C23  799   2.787   0.159   8.912
   11CHL1  H23A  800   2.861   0.190   8.836
   11CHL1  H23B  801   2.781   0.048   8.916
   11CHL1   C24  802   2.655   0.224   8.858
   11CHL1  H24A  803   2.582   0.204   8.939
   11CHL1  H24B  804   2.678   0.332   8.850
   11CHL1   C25  805   2.604   0.170   8.723
   11CHL1   H25  806   2.511   0.229   8.710
   11CHL1   C26  807   2.692   0.194   8.606
   11CHL1  H26A  808   2.781   0.127   8.603
   11CHL1  H26B  809   2.643   0.173   8.509
   11CHL1  H26C  810   2.723   0.300   8.607
   11CHL1   C27  811   2.555   0.028   8.736
   11CHL1  H27A  812   2.498  -0.001   8.645
   11CHL1  H27B  813   2.638  -0.046   8.738
   11CHL1  H27C  814   2.486   0.013   8.821
   12CHL1    C3  815   5.736   3.309  10.317
   12CHL1    H3  816   5.784   3.405  10.288
   12CHL1    O3  817   5.793   3.274  10.445
   12CHL1   H3'  818   5.740   3.203  10.483
   12CHL1    C4  819   5.584   3.330  10.330
   12CHL1   H4A  820   5.542   3.230  10.353
   12CHL1   H4B  821   5.567   3.389  10.423
   12CHL1    C5  822   5.516   3.392  10.216
   12CHL1    C6  823   5.439   3.501  10.228
   12CHL1    H6  824   5.422   3.543  10.328
   12CHL1    C7  825   5.369   3.556  10.108
   12CHL1   H7A  826   5.267   3.592  10.133
   12CHL1   H7B  827   5.424   3.645  10.070
   12CHL1    C8  828   5.365   3.459   9.982
   12CHL1    H8  829   5.289   3.380   9.999
   12CHL1   C14  830   5.334   3.529   9.854
   12CHL1   H14  831   5.415   3.603   9.838
   12CHL1   C15  832   5.205   3.613   9.855
   12CHL1  H15A  833   5.127   3.548   9.901
   12CHL1  H15B  834   5.217   3.698   9.925
   12CHL1   C16  835   5.175   3.634   9.706
   12CHL1  H16A  836   5.073   3.601   9.678
   12CHL1  H16B  837   5.183   3.743   9.687
   12CHL1   C17  838   5.288   3.553   9.629
   12CHL1   H17  839   5.371   3.627   9.628
   12CHL1   C13  840   5.328   3.440   9.724
   12CHL1   C18  841   5.237   3.318   9.723
   12CHL1  H18A  842   5.254   3.265   9.626
   12CHL1  H18B  843   5.267   3.247   9.803
   12CHL1  H18C  844   5.133   3.354   9.738
   12CHL1   C12  845   5.480   3.386   9.702
   12CHL1  H12A  846   5.482   3.314   9.617
   12CHL1  H12B  847   5.542   3.477   9.689
   12CHL1   C11  848   5.525   3.318   9.833
   12CHL1  H11A  849   5.468   3.224   9.849
   12CHL1  H11B  850   5.631   3.284   9.824
   12CHL1    C9  851   5.501   3.391   9.974
   12CHL1    H9  852   5.579   3.470   9.971
   12CHL1   C10  853   5.539   3.305  10.089
   12CHL1   C19  854   5.437   3.182  10.106
   12CHL1  H19A  855   5.465   3.124  10.197
   12CHL1  H19B  856   5.329   3.206  10.117
   12CHL1  H19C  857   5.444   3.109  10.023
   12CHL1    C1  858   5.690   3.254  10.082
   12CHL1   H1A  859   5.700   3.170  10.009
   12CHL1   H1B  860   5.751   3.345  10.066
   12CHL1    C2  861   5.753   3.204  10.213
   12CHL1   H2A  862   5.863   3.207  10.200
   12CHL1   H2B  863   5.725   3.105  10.257
   12CHL1   C20  864   5.248   3.517   9.487
   12CHL1   H20  865   5.165   3.443   9.493
   12CHL1   C21  866   5.360   3.455   9.402
   12CHL1  H21A  867   5.318   3.426   9.303
   12CHL1  H21B  868   5.384   3.356   9.448
   12CHL1  H21C  869   5.449   3.521   9.392
   12CHL1   C22  870   5.199   3.649   9.415
   12CHL1  H22A  871   5.112   3.696   9.467
   12CHL1  H22B  872   5.275   3.729   9.405
   12CHL1   C23  873   5.132   3.608   9.282
   12CHL1  H23A  874   5.197   3.558   9.207
   12CHL1  H23B  875   5.063   3.524   9.306
   12CHL1   C24  876   5.026   3.709   9.229
   12CHL1  H24A  877   4.944   3.737   9.299
   12CHL1  H24B  878   5.081   3.800   9.197
   12CHL1   C25  879   4.961   3.656   9.100
   12CHL1   H25  880   4.919   3.558   9.132
   12CHL1   C26  881   4.847   3.748   9.059
   12CHL1  H26A  882   4.776   3.775   9.140
   12CHL1  H26B  883   4.890   3.846   9.027
   12CHL1  H26C  884   4.785   3.724   8.970
   12CHL1   C27  885   5.043   3.636   8.968
   12CHL1  H27A  886   4.995   3.593   8.877
   12CHL1  H27B  887   5.082   3.738   8.946
   12CHL1  H27C  888   5.134   3.577   8.989
   13CHL1    C3  889   4.352   5.464   9.817
   13CHL1    H3  890   4.305   5.364   9.804
   13CHL1    O3  891   4.408   5.473   9.947
   13CHL1   H3'  892   4.444   5.562   9.948
   13CHL1    C4  893   4.466   5.460   9.711
   13CHL1   H4A  894   4.532   5.546   9.737
   13CHL1   H4B  895   4.530   5.370   9.725
   13CHL1    C5  896   4.411   5.465   9.570
   13CHL1    C6  897   4.458   5.380   9.478
   13CHL1    H6  898   4.548   5.320   9.499
   13CHL1    C7  899   4.407   5.386   9.339
   13CHL1   H7A  900   4.501   5.382   9.279
   13CHL1   H7B  901   4.345   5.299   9.308
   13CHL1    C8  902   4.329   5.517   9.307
   13CHL1    H8  903   4.404   5.598   9.292
   13CHL1   C14  904   4.259   5.510   9.174
   13CHL1   H14  905   4.192   5.424   9.196
   13CHL1   C15  906   4.333   5.463   9.052
   13CHL1  H15A  907   4.437   5.501   9.060
   13CHL1  H15B  908   4.342   5.352   9.058
   13CHL1   C16  909   4.252   5.511   8.929
   13CHL1  H16A  910   4.307   5.578   8.860
   13CHL1  H16B  911   4.209   5.420   8.882
   13CHL1   C17  912   4.138   5.592   8.995
   13CHL1   H17  913   4.051   5.523   9.010
   13CHL1   C13  914   4.183   5.633   9.136
   13CHL1   C18  915   4.283   5.747   9.116
   13CHL1  H18A  916   4.344   5.777   9.204
   13CHL1  H18B  917   4.361   5.714   9.044
   13CHL1  H18C  918   4.242   5.844   9.081
   13CHL1   C12  919   4.070   5.662   9.239
   13CHL1  H12A  920   4.013   5.754   9.213
   13CHL1  H12B  921   4.006   5.571   9.239
   13CHL1   C11  922   4.138   5.684   9.372
   13CHL1  H11A  923   4.207   5.770   9.358
   13CHL1  H11B  924   4.063   5.708   9.450
   13CHL1    C9  925   4.225   5.554   9.416
   13CHL1    H9  926   4.165   5.460   9.423
   13CHL1   C10  927   4.303   5.579   9.550
   13CHL1   C19  928   4.376   5.724   9.547
   13CHL1  H19A  929   4.436   5.728   9.453
   13CHL1  H19B  930   4.300   5.805   9.543
   13CHL1  H19C  931   4.447   5.744   9.630
   13CHL1    C1  932   4.201   5.586   9.661
   13CHL1   H1A  933   4.124   5.665   9.660
   13CHL1   H1B  934   4.149   5.489   9.645
   13CHL1    C2  935   4.253   5.580   9.802
   13CHL1   H2A  936   4.171   5.569   9.876
   13CHL1   H2B  937   4.298   5.677   9.831
   13CHL1   C20  938   4.094   5.706   8.898
   13CHL1   H20  939   4.171   5.784   8.881
   13CHL1   C21  940   3.962   5.768   8.954
   13CHL1  H21A  941   3.993   5.832   9.039
   13CHL1  H21B  942   3.897   5.685   8.988
   13CHL1  H21C  943   3.902   5.835   8.889
   13CHL1   C22  944   4.059   5.654   8.755
   13CHL1  H22A  945   4.146   5.601   8.711
   13CHL1  H22B  946   3.981   5.574   8.758
   13CHL1   C23  947   4.036   5.770   8.660
   13CHL1  H23A  948   3.945   5.827   8.691
   13CHL1  H23B  949   4.117   5.846   8.663
   13CHL1   C24  950   4.006   5.738   8.510
   13CHL1  H24A  951   4.092   5.679   8.473
   13CHL1  H24B  952   3.911   5.680   8.507
   13CHL1   C25  953   3.978   5.856   8.421
   13CHL1   H25  954   3.888   5.913   8.449
   13CHL1   C26  955   4.090   5.963   8.434
   13CHL1  H26A  956   4.191   5.918   8.432
   13CHL1  H26B  957   4.071   6.046   8.363
   13CHL1  H26C  958   4.094   6.005   8.537
   13CHL1   C27  959   3.964   5.812   8.272
   13CHL1  H27A  960   4.010   5.886   8.203
   13CHL1  H27B  961   4.020   5.717   8.264
   13CHL1  H27C  962   3.856   5.791   8.258
   14CHL1    C3  963   4.258   1.893  10.316
   14CHL1    H3  964   4.313   1.990  10.315
   14CHL1    O3  965   4.236   1.861  10.451
   14CHL1   H3'  966   4.212   1.768  10.451
   14CHL1    C4  967   4.122   1.896  10.246
   14CHL1   H4A  968   4.057   1.809  10.270
   14CHL1   H4B  969   4.058   1.979  10.284
   14CHL1    C5  970   4.138   1.913  10.097
   14CHL1    C6  971   4.062   2.003  10.032
   14CHL1    H6  972   3.990   2.064  10.089
   14CHL1    C7  973   4.080   2.024   9.885
   14CHL1   H7A  974   3.985   2.047   9.832
   14CHL1   H7B  975   4.150   2.110   9.872
   14CHL1    C8  976   4.152   1.905   9.807
   14CHL1    H8  977   4.086   1.816   9.808
   14CHL1   C14  978   4.187   1.939   9.662
   14CHL1   H14  979   4.260   2.022   9.665
   14CHL1   C15  980   4.070   1.990   9.578
   14CHL1  H15A  981   3.986   1.918   9.584
   14CHL1  H15B  982   4.052   2.098   9.597
   14CHL1   C16  983   4.133   1.986   9.436
   14CHL1  H16A  984   4.055   1.936   9.375
   14CHL1  H16B  985   4.129   2.086   9.388
   14CHL1   C17  986   4.270   1.915   9.442
   14CHL1   H17  987   4.353   1.988   9.436
   14CHL1   C13  988   4.266   1.838   9.577
   14CHL1   C18  989   4.179   1.711   9.568
   14CHL1  H18A  990   4.127   1.679   9.661
   14CHL1  H18B  991   4.098   1.722   9.493
   14CHL1  H18C  992   4.237   1.622   9.536
   14CHL1   C12  993   4.397   1.816   9.656
   14CHL1  H12A  994   4.447   1.734   9.600
   14CHL1  H12B  995   4.462   1.906   9.656
   14CHL1   C11  996   4.364   1.766   9.801
   14CHL1  H11A  997   4.314   1.668   9.785
   14CHL1  H11B  998   4.465   1.761   9.848
   14CHL1    C9  999   4.278   1.866   9.879
   14CHL1    H9 1000   4.345   1.954   9.880
   14CHL1   C10 1001   4.244   1.822  10.030
   14CHL1   C19 1002   4.195   1.673  10.021
   14CHL1  H19A 1003   4.105   1.680   9.957
   14CHL1  H19B 1004   4.270   1.605   9.976
   14CHL1  H19C 1005   4.176   1.627  10.121
   14CHL1    C1 1006   4.385   1.825  10.112
   14CHL1   H1A 1007   4.453   1.751  10.065
   14CHL1   H1B 1008   4.424   1.926  10.089
   14CHL1    C2 1009   4.356   1.790  10.256
   14CHL1   H2A 1010   4.449   1.809  10.315
   14CHL1   H2B 1011   4.325   1.685  10.272
   14CHL1   C20 1012   4.292   1.836   9.309
   14CHL1   H20 1013   4.207   1.765   9.300
   14CHL1   C21 1014   4.423   1.754   9.315
   14CHL1  H21A 1015   4.420   1.673   9.391
   14CHL1  H21B 1016   4.514   1.818   9.322
   14CHL1  H21C 1017   4.440   1.704   9.217
   14CHL1   C22 1018   4.308   1.927   9.186
   14CHL1  H22A 1019   4.298   2.035   9.211
   14CHL1  H22B 1020   4.412   1.908   9.152
   14CHL1   C23 1021   4.209   1.907   9.068
   14CHL1  H23A 1022   4.262   1.839   8.997
   14CHL1  H23B 1023   4.121   1.858   9.117
   14CHL1   C24 1024   4.169   2.034   8.992
   14CHL1  H24A 1025   4.151   2.114   9.066
   14CHL1  H24B 1026   4.245   2.066   8.918
   14CHL1   C25 1027   4.045   2.011   8.905
   14CHL1   H25 1028   3.961   1.998   8.976
   14CHL1   C26 1029   4.010   2.144   8.818
   14CHL1  H26A 1030   3.919   2.139   8.756
   14CHL1  H26B 1031   3.978   2.227   8.885
   14CHL1  H26C 1032   4.095   2.175   8.753
   14CHL1   C27 1033   4.063   1.893   8.803
   14CHL1  H27A 1034   4.079   1.787   8.835
   14CHL1  H27B 1035   3.972   1.892   8.738
   14CHL1  H27C 1036   4.146   1.923   8.736
   15CHL1    C3 1037   4.165   0.635  10.127
   15CHL1    H3 1038   4.255   0.571  10.115
   15CHL1    O3 1039   4.113   0.626  10.261
   15CHL1   H3' 1040   4.064   0.709  10.264
   15CHL1    C4 1041   4.198   0.780  10.094
   15CHL1   H4A 1042   4.119   0.855  10.113
   15CHL1   H4B 1043   4.283   0.800  10.163
   15CHL1    C5 1044   4.258   0.786   9.956
   15CHL1    C6 1045   4.377   0.839   9.935
   15CHL1    H6 1046   4.428   0.869  10.028
   15CHL1    C7 1047   4.449   0.867   9.805
   15CHL1   H7A 1048   4.495   0.967   9.792
   15CHL1   H7B 1049   4.533   0.795   9.789
   15CHL1    C8 1050   4.353   0.850   9.688
   15CHL1    H8 1051   4.284   0.937   9.688
   15CHL1   C14 1052   4.423   0.822   9.560
   15CHL1   H14 1053   4.469   0.722   9.574
   15CHL1   C15 1054   4.554   0.906   9.527
   15CHL1  H15A 1055   4.542   1.015   9.549
   15CHL1  H15B 1056   4.638   0.865   9.587
   15CHL1   C16 1057   4.578   0.887   9.373
   15CHL1  H16A 1058   4.584   0.983   9.317
   15CHL1  H16B 1059   4.668   0.826   9.350
   15CHL1   C17 1060   4.457   0.796   9.325
   15CHL1   H17 1061   4.486   0.689   9.330
   15CHL1   C13 1062   4.343   0.823   9.421
   15CHL1   C18 1063   4.269   0.959   9.407
   15CHL1  H18A 1064   4.343   1.041   9.415
   15CHL1  H18B 1065   4.207   0.960   9.314
   15CHL1  H18C 1066   4.194   0.970   9.488
   15CHL1   C12 1067   4.243   0.711   9.436
   15CHL1  H12A 1068   4.176   0.710   9.347
   15CHL1  H12B 1069   4.295   0.613   9.431
   15CHL1   C11 1070   4.172   0.720   9.575
   15CHL1  H11A 1071   4.102   0.806   9.574
   15CHL1  H11B 1072   4.105   0.632   9.581
   15CHL1    C9 1073   4.254   0.730   9.702
   15CHL1    H9 1074   4.315   0.637   9.706
   15CHL1   C10 1075   4.168   0.738   9.839
   15CHL1   C19 1076   4.051   0.839   9.822
   15CHL1  H19A 1077   4.077   0.945   9.799
   15CHL1  H19B 1078   3.982   0.802   9.743
   15CHL1  H19C 1079   3.980   0.849   9.907
   15CHL1    C1 1080   4.115   0.596   9.871
   15CHL1   H1A 1081   4.026   0.587   9.805
   15CHL1   H1B 1082   4.194   0.525   9.840
   15CHL1    C2 1083   4.071   0.576  10.020
   15CHL1   H2A 1084   4.069   0.466  10.041
   15CHL1   H2B 1085   3.979   0.634  10.042
   15CHL1   C20 1086   4.432   0.831   9.176
   15CHL1   H20 1087   4.398   0.936   9.164
   15CHL1   C21 1088   4.312   0.751   9.133
   15CHL1  H21A 1089   4.311   0.748   9.022
   15CHL1  H21B 1090   4.221   0.807   9.164
   15CHL1  H21C 1091   4.302   0.649   9.175
   15CHL1   C22 1092   4.563   0.805   9.089
   15CHL1  H22A 1093   4.640   0.884   9.107
   15CHL1  H22B 1094   4.597   0.702   9.112
   15CHL1   C23 1095   4.534   0.804   8.939
   15CHL1  H23A 1096   4.483   0.708   8.918
   15CHL1  H23B 1097   4.461   0.882   8.907
   15CHL1   C24 1098   4.670   0.819   8.854
   15CHL1  H24A 1099   4.715   0.916   8.883
   15CHL1  H24B 1100   4.740   0.738   8.882
   15CHL1   C25 1101   4.638   0.804   8.703
   15CHL1   H25 1102   4.570   0.717   8.690
   15CHL1   C26 1103   4.567   0.924   8.641
   15CHL1  H26A 1104   4.550   0.913   8.532
   15CHL1  H26B 1105   4.471   0.947   8.692
   15CHL1  H26C 1106   4.632   1.012   8.658
   15CHL1   C27 1107   4.772   0.776   8.623
   15CHL1  H27A 1108   4.834   0.867   8.621
   15CHL1  H27B 1109   4.832   0.705   8.683
   15CHL1  H27C 1110   4.751   0.753   8.517
   16CHL1    C3 1111   5.012   1.319  10.310
   16CHL1    H3 1112   4.939   1.402  10.295
   16CHL1    O3 1113   5.032   1.297  10.445
   16CHL1   H3' 1114   5.121   1.324  10.469
   16CHL1    C4 1115   4.954   1.191  10.257
   16CHL1   H4A 1116   5.017   1.103  10.281
   16CHL1   H4B 1117   4.856   1.181  10.309
   16CHL1    C5 1118   4.935   1.192  10.104
   16CHL1    C6 1119   4.817   1.175  10.046
   16CHL1    H6 1120   4.729   1.158  10.109
   16CHL1    C7 1121   4.800   1.176   9.895
   16CHL1   H7A 1122   4.742   1.087   9.864
   16CHL1   H7B 1123   4.739   1.267   9.876
   16CHL1    C8 1124   4.932   1.185   9.810
   16CHL1    H8 1125   4.969   1.080   9.805
   16CHL1   C14 1126   4.904   1.241   9.673
   16CHL1   H14 1127   4.868   1.345   9.689
   16CHL1   C15 1128   4.802   1.170   9.588
   16CHL1  H15A 1129   4.820   1.061   9.596
   16CHL1  H15B 1130   4.694   1.181   9.610
   16CHL1   C16 1131   4.835   1.220   9.450
   16CHL1  H16A 1132   4.849   1.134   9.381
   16CHL1  H16B 1133   4.750   1.281   9.413
   16CHL1   C17 1134   4.971   1.300   9.451
   16CHL1   H17 1135   4.943   1.407   9.461
   16CHL1   C13 1136   5.031   1.247   9.584
   16CHL1   C18 1137   5.098   1.106   9.558
   16CHL1  H18A 1138   5.158   1.099   9.465
   16CHL1  H18B 1139   5.173   1.077   9.635
   16CHL1  H18C 1140   5.024   1.024   9.566
   16CHL1   C12 1141   5.142   1.339   9.646
   16CHL1  H12A 1142   5.235   1.321   9.588
   16CHL1  H12B 1143   5.104   1.444   9.641
   16CHL1   C11 1144   5.166   1.295   9.788
   16CHL1  H11A 1145   5.221   1.198   9.793
   16CHL1  H11B 1146   5.218   1.380   9.837
   16CHL1    C9 1147   5.039   1.269   9.882
   16CHL1    H9 1148   4.986   1.366   9.878
   16CHL1   C10 1149   5.059   1.238  10.027
   16CHL1   C19 1150   5.156   1.111  10.035
   16CHL1  H19A 1151   5.253   1.144   9.992
   16CHL1  H19B 1152   5.178   1.088  10.142
   16CHL1  H19C 1153   5.102   1.027   9.987
   16CHL1    C1 1154   5.129   1.361  10.093
   16CHL1   H1A 1155   5.229   1.375  10.047
   16CHL1   H1B 1156   5.073   1.451  10.060
   16CHL1    C2 1157   5.145   1.358  10.244
   16CHL1   H2A 1158   5.178   1.459  10.278
   16CHL1   H2B 1159   5.223   1.282  10.268
   16CHL1   C20 1160   5.049   1.287   9.317
   16CHL1   H20 1161   5.083   1.182   9.304
   16CHL1   C21 1162   5.169   1.382   9.316
   16CHL1  H21A 1163   5.216   1.385   9.216
   16CHL1  H21B 1164   5.245   1.337   9.384
   16CHL1  H21C 1165   5.153   1.491   9.330
   16CHL1   C22 1166   4.952   1.323   9.199
   16CHL1  H22A 1167   4.869   1.249   9.198
   16CHL1  H22B 1168   4.917   1.428   9.210
   16CHL1   C23 1169   5.014   1.320   9.059
   16CHL1  H23A 1170   5.060   1.418   9.035
   16CHL1  H23B 1171   5.094   1.243   9.054
   16CHL1   C24 1172   4.907   1.298   8.960
   16CHL1  H24A 1173   4.864   1.196   8.967
   16CHL1  H24B 1174   4.822   1.367   8.979
   16CHL1   C25 1175   4.956   1.309   8.815
   16CHL1   H25 1176   5.002   1.410   8.809
   16CHL1   C26 1177   5.062   1.212   8.778
   16CHL1  H26A 1178   5.153   1.248   8.830
   16CHL1  H26B 1179   5.032   1.111   8.813
   16CHL1  H26C 1180   5.082   1.219   8.669
   16CHL1   C27 1181   4.839   1.293   8.709
   16CHL1  H27A 1182   4.798   1.190   8.714
   16CHL1  H27B 1183   4.755   1.358   8.741
   16CHL1  H27C 1184   4.879   1.321   8.609
   17CHL1    C3 1185   0.576   5.200  10.433
   17CHL1    H3 1186   0.475   5.159  10.412
   17CHL1    O3 1187   0.598   5.218  10.573
   17CHL1   H3' 1188   0.523   5.272  10.600
   17CHL1    C4 1189   0.682   5.098  10.391
   17CHL1   H4A 1190   0.780   5.137  10.425
   17CHL1   H4B 1191   0.654   5.005  10.446
   17CHL1    C5 1192   0.682   5.072  10.238
   17CHL1    C6 1193   0.683   4.943  10.192
   17CHL1    H6 1194   0.677   4.856  10.258
   17CHL1    C7 1195   0.684   4.907  10.045
   17CHL1   H7A 1196   0.771   4.841  10.022
   17CHL1   H7B 1197   0.591   4.859  10.008
   17CHL1    C8 1198   0.693   5.039   9.959
   17CHL1    H8 1199   0.803   5.054   9.954
   17CHL1   C14 1200   0.640   5.016   9.816
   17CHL1   H14 1201   0.529   5.015   9.822
   17CHL1   C15 1202   0.669   4.885   9.744
   17CHL1  H15A 1203   0.778   4.870   9.760
   17CHL1  H15B 1204   0.616   4.800   9.790
   17CHL1   C16 1205   0.620   4.903   9.599
   17CHL1  H16A 1206   0.683   4.858   9.519
   17CHL1  H16B 1207   0.519   4.864   9.575
   17CHL1   C17 1208   0.619   5.060   9.581
   17CHL1   H17 1209   0.509   5.077   9.572
   17CHL1   C13 1210   0.673   5.121   9.718
   17CHL1   C18 1211   0.826   5.141   9.706
   17CHL1  H18A 1212   0.870   5.181   9.800
   17CHL1  H18B 1213   0.884   5.051   9.679
   17CHL1  H18C 1214   0.842   5.222   9.632
   17CHL1   C12 1215   0.608   5.256   9.760
   17CHL1  H12A 1216   0.651   5.340   9.701
   17CHL1  H12B 1217   0.499   5.251   9.743
   17CHL1   C11 1218   0.645   5.287   9.909
   17CHL1  H11A 1219   0.748   5.327   9.916
   17CHL1  H11B 1220   0.575   5.366   9.942
   17CHL1    C9 1221   0.623   5.162  10.010
   17CHL1    H9 1222   0.516   5.135  10.017
   17CHL1   C10 1223   0.669   5.200  10.157
   17CHL1   C19 1224   0.807   5.260  10.152
   17CHL1  H19A 1225   0.857   5.264  10.251
   17CHL1  H19B 1226   0.877   5.208  10.083
   17CHL1  H19C 1227   0.819   5.366  10.121
   17CHL1    C1 1228   0.566   5.308  10.215
   17CHL1   H1A 1229   0.569   5.401  10.154
   17CHL1   H1B 1230   0.461   5.273  10.201
   17CHL1    C2 1231   0.600   5.337  10.363
   17CHL1   H2A 1232   0.548   5.418  10.418
   17CHL1   H2B 1233   0.710   5.347  10.380
   17CHL1   C20 1234   0.668   5.108   9.441
   17CHL1   H20 1235   0.773   5.076   9.423
   17CHL1   C21 1236   0.654   5.266   9.427
   17CHL1  H21A 1237   0.555   5.298   9.467
   17CHL1  H21B 1238   0.658   5.296   9.321
   17CHL1  H21C 1239   0.730   5.321   9.487
   17CHL1   C22 1240   0.588   5.038   9.326
   17CHL1  H22A 1241   0.565   4.933   9.356
   17CHL1  H22B 1242   0.492   5.092   9.312
   17CHL1   C23 1243   0.666   5.047   9.188
   17CHL1  H23A 1244   0.672   5.156   9.164
   17CHL1  H23B 1245   0.768   5.009   9.205
   17CHL1   C24 1246   0.595   4.983   9.069
   17CHL1  H24A 1247   0.612   4.873   9.073
   17CHL1  H24B 1248   0.485   4.998   9.072
   17CHL1   C25 1249   0.656   5.020   8.926
   17CHL1   H25 1250   0.762   4.994   8.907
   17CHL1   C26 1251   0.571   4.951   8.821
   17CHL1  H26A 1252   0.619   4.963   8.721
   17CHL1  H26B 1253   0.568   4.842   8.844
   17CHL1  H26C 1254   0.471   5.000   8.812
   17CHL1   C27 1255   0.660   5.178   8.905
   17CHL1  H27A 1256   0.764   5.210   8.929
   17CHL1  H27B 1257   0.620   5.222   8.811
   17CHL1  H27C 1258   0.591   5.217   8.982
   18CHL1    C3 1259   6.524   3.620  10.170
   18CHL1    H3 1260   6.420   3.661  10.166
   18CHL1    O3 1261   6.570   3.641  10.297
   18CHL1   H3' 1262   6.666   3.639  10.294
   18CHL1    C4 1263   6.519   3.467  10.133
   18CHL1   H4A 1264   6.623   3.428  10.134
   18CHL1   H4B 1265   6.461   3.416  10.213
   18CHL1    C5 1266   6.462   3.440   9.998
   18CHL1    C6 1267   6.360   3.355   9.983
   18CHL1    H6 1268   6.315   3.302  10.068
   18CHL1    C7 1269   6.294   3.322   9.849
   18CHL1   H7A 1270   6.279   3.212   9.853
   18CHL1   H7B 1271   6.196   3.375   9.839
   18CHL1    C8 1272   6.386   3.362   9.736
   18CHL1    H8 1273   6.469   3.288   9.746
   18CHL1   C14 1274   6.311   3.351   9.609
   18CHL1   H14 1275   6.225   3.421   9.612
   18CHL1   C15 1276   6.235   3.216   9.580
   18CHL1  H15A 1277   6.303   3.138   9.621
   18CHL1  H15B 1278   6.136   3.218   9.632
   18CHL1   C16 1279   6.217   3.222   9.434
   18CHL1  H16A 1280   6.275   3.138   9.391
   18CHL1  H16B 1281   6.109   3.222   9.406
   18CHL1   C17 1282   6.280   3.357   9.384
   18CHL1   H17 1283   6.206   3.439   9.398
   18CHL1   C13 1284   6.391   3.387   9.489
   18CHL1   C18 1285   6.505   3.279   9.469
   18CHL1  H18A 1286   6.464   3.176   9.464
   18CHL1  H18B 1287   6.563   3.307   9.379
   18CHL1  H18C 1288   6.575   3.271   9.555
   18CHL1   C12 1289   6.430   3.536   9.500
   18CHL1  H12A 1290   6.492   3.567   9.414
   18CHL1  H12B 1291   6.343   3.606   9.503
   18CHL1   C11 1292   6.511   3.563   9.624
   18CHL1  H11A 1293   6.608   3.512   9.605
   18CHL1  H11B 1294   6.521   3.673   9.633
   18CHL1    C9 1295   6.446   3.504   9.750
   18CHL1    H9 1296   6.357   3.570   9.762
   18CHL1   C10 1297   6.529   3.517   9.881
   18CHL1   C19 1298   6.660   3.440   9.869
   18CHL1  H19A 1299   6.739   3.483   9.803
   18CHL1  H19B 1300   6.717   3.433   9.964
   18CHL1  H19C 1301   6.642   3.332   9.853
   18CHL1    C1 1302   6.547   3.663   9.927
   18CHL1   H1A 1303   6.583   3.740   9.855
   18CHL1   H1B 1304   6.448   3.710   9.949
   18CHL1    C2 1305   6.618   3.687  10.070
   18CHL1   H2A 1306   6.613   3.795  10.096
   18CHL1   H2B 1307   6.721   3.645  10.077
   18CHL1   C20 1308   6.318   3.338   9.226
   18CHL1   H20 1309   6.399   3.261   9.224
   18CHL1   C21 1310   6.375   3.470   9.173
   18CHL1  H21A 1311   6.405   3.472   9.066
   18CHL1  H21B 1312   6.473   3.488   9.224
   18CHL1  H21C 1313   6.304   3.553   9.194
   18CHL1   C22 1314   6.201   3.290   9.141
   18CHL1  H22A 1315   6.146   3.198   9.171
   18CHL1  H22B 1316   6.130   3.376   9.133
   18CHL1   C23 1317   6.234   3.264   8.995
   18CHL1  H23A 1318   6.139   3.256   8.937
   18CHL1  H23B 1319   6.297   3.347   8.957
   18CHL1   C24 1320   6.317   3.136   8.982
   18CHL1  H24A 1321   6.418   3.163   9.020
   18CHL1  H24B 1322   6.272   3.060   9.049
   18CHL1   C25 1323   6.333   3.085   8.842
   18CHL1   H25 1324   6.399   2.996   8.853
   18CHL1   C26 1325   6.202   3.033   8.782
   18CHL1  H26A 1326   6.125   3.114   8.787
   18CHL1  H26B 1327   6.219   3.022   8.673
   18CHL1  H26C 1328   6.165   2.940   8.831
   18CHL1   C27 1329   6.396   3.194   8.749
   18CHL1  H27A 1330   6.324   3.277   8.737
   18CHL1  H27B 1331   6.491   3.234   8.791
   18CHL1  H27C 1332   6.413   3.144   8.652
   19CHL1    C3 1333   3.759   0.183  10.103
   19CHL1    H3 1334   3.850   0.120  10.119
   19CHL1    O3 1335   3.730   0.258  10.222
   19CHL1   H3' 1336   3.716   0.340  10.173
   19CHL1    C4 1337   3.791   0.292   9.992
   19CHL1   H4A 1338   3.709   0.367   9.990
   19CHL1   H4B 1339   3.872   0.358  10.028
   19CHL1    C5 1340   3.822   0.230   9.857
   19CHL1    C6 1341   3.937   0.245   9.801
   19CHL1    H6 1342   4.015   0.315   9.835
   19CHL1    C7 1343   3.972   0.195   9.664
   19CHL1   H7A 1344   4.021   0.268   9.595
   19CHL1   H7B 1345   4.044   0.111   9.674
   19CHL1    C8 1346   3.848   0.144   9.581
   19CHL1    H8 1347   3.790   0.234   9.553
   19CHL1   C14 1348   3.885   0.071   9.454
   19CHL1   H14 1349   3.957  -0.012   9.473
   19CHL1   C15 1350   3.976   0.146   9.354
   19CHL1  H15A 1351   3.949   0.254   9.358
   19CHL1  H15B 1352   4.080   0.140   9.391
   19CHL1   C16 1353   3.949   0.094   9.219
   19CHL1  H16A 1354   3.907   0.169   9.147
   19CHL1  H16B 1355   4.037   0.042   9.176
   19CHL1   C17 1356   3.847  -0.027   9.247
   19CHL1   H17 1357   3.905  -0.118   9.270
   19CHL1   C13 1358   3.765   0.018   9.366
   19CHL1   C18 1359   3.674   0.131   9.318
   19CHL1  H18A 1360   3.646   0.212   9.389
   19CHL1  H18B 1361   3.725   0.193   9.242
   19CHL1  H18C 1362   3.581   0.079   9.287
   19CHL1   C12 1363   3.689  -0.072   9.462
   19CHL1  H12A 1364   3.594  -0.113   9.423
   19CHL1  H12B 1365   3.754  -0.159   9.487
   19CHL1   C11 1366   3.648  -0.013   9.601
   19CHL1  H11A 1367   3.568   0.062   9.577
   19CHL1  H11B 1368   3.603  -0.096   9.660
   19CHL1    C9 1369   3.762   0.058   9.682
   19CHL1    H9 1370   3.831  -0.018   9.723
   19CHL1   C10 1371   3.709   0.142   9.804
   19CHL1   C19 1372   3.589   0.232   9.764
   19CHL1  H19A 1373   3.595   0.300   9.677
   19CHL1  H19B 1374   3.508   0.163   9.732
   19CHL1  H19C 1375   3.558   0.293   9.852
   19CHL1    C1 1376   3.667   0.045   9.917
   19CHL1   H1A 1377   3.582  -0.014   9.876
   19CHL1   H1B 1378   3.742  -0.035   9.936
   19CHL1    C2 1379   3.640   0.102  10.057
   19CHL1   H2A 1380   3.618   0.017  10.124
   19CHL1   H2B 1381   3.551   0.166  10.037
   19CHL1   C20 1382   3.774  -0.067   9.122
   19CHL1   H20 1383   3.715   0.018   9.081
   19CHL1   C21 1384   3.690  -0.187   9.156
   19CHL1  H21A 1385   3.632  -0.215   9.066
   19CHL1  H21B 1386   3.612  -0.161   9.232
   19CHL1  H21C 1387   3.748  -0.274   9.192
   19CHL1   C22 1388   3.868  -0.108   9.001
   19CHL1  H22A 1389   3.936  -0.020   9.004
   19CHL1  H22B 1390   3.924  -0.195   9.039
   19CHL1   C23 1391   3.793  -0.141   8.869
   19CHL1  H23A 1392   3.737  -0.237   8.879
   19CHL1  H23B 1393   3.722  -0.058   8.847
   19CHL1   C24 1394   3.880  -0.157   8.744
   19CHL1  H24A 1395   3.928  -0.059   8.720
   19CHL1  H24B 1396   3.967  -0.218   8.777
   19CHL1   C25 1397   3.806  -0.206   8.612
   19CHL1   H25 1398   3.750  -0.299   8.635
   19CHL1   C26 1399   3.706  -0.095   8.562
   19CHL1  H26A 1400   3.756  -0.005   8.522
   19CHL1  H26B 1401   3.645  -0.144   8.484
   19CHL1  H26C 1402   3.641  -0.052   8.642
   19CHL1   C27 1403   3.913  -0.247   8.505
   19CHL1  H27A 1404   3.997  -0.305   8.549
   19CHL1  H27B 1405   3.861  -0.301   8.422
   19CHL1  H27C 1406   3.965  -0.152   8.481
   20CHL1    C3 1407   6.113   0.709  10.389
   20CHL1    H3 1408   6.122   0.819  10.399
   20CHL1    O3 1409   6.121   0.656  10.527
   20CHL1   H3' 1410   6.186   0.585  10.528
   20CHL1    C4 1411   5.990   0.659  10.316
   20CHL1   H4A 1412   5.987   0.548  10.314
   20CHL1   H4B 1413   5.906   0.696  10.379
   20CHL1    C5 1414   5.985   0.722  10.175
   20CHL1    C6 1415   5.880   0.804  10.148
   20CHL1    H6 1416   5.800   0.814  10.223
   20CHL1    C7 1417   5.873   0.880  10.021
   20CHL1   H7A 1418   5.771   0.885   9.977
   20CHL1   H7B 1419   5.917   0.982  10.024
   20CHL1    C8 1420   5.956   0.807   9.915
   20CHL1    H8 1421   5.906   0.709   9.898
   20CHL1   C14 1422   5.959   0.894   9.790
   20CHL1   H14 1423   6.003   0.992   9.815
   20CHL1   C15 1424   5.820   0.921   9.715
   20CHL1  H15A 1425   5.761   0.828   9.728
   20CHL1  H15B 1426   5.779   1.009   9.769
   20CHL1   C16 1427   5.870   0.963   9.579
   20CHL1  H16A 1428   5.822   0.899   9.502
   20CHL1  H16B 1429   5.849   1.070   9.555
   20CHL1   C17 1430   6.015   0.929   9.563
   20CHL1   H17 1431   6.076   1.018   9.592
   20CHL1   C13 1432   6.050   0.832   9.681
   20CHL1   C18 1433   6.005   0.691   9.639
   20CHL1  H18A 1434   6.066   0.648   9.556
   20CHL1  H18B 1435   6.002   0.627   9.729
   20CHL1  H18C 1436   5.898   0.699   9.607
   20CHL1   C12 1437   6.196   0.836   9.733
   20CHL1  H12A 1438   6.262   0.800   9.651
   20CHL1  H12B 1439   6.217   0.945   9.734
   20CHL1   C11 1440   6.219   0.758   9.864
   20CHL1  H11A 1441   6.218   0.650   9.837
   20CHL1  H11B 1442   6.323   0.779   9.898
   20CHL1    C9 1443   6.105   0.788   9.968
   20CHL1    H9 1444   6.125   0.893   9.997
   20CHL1   C10 1445   6.109   0.702  10.090
   20CHL1   C19 1446   6.103   0.549  10.044
   20CHL1  H19A 1447   6.087   0.475  10.125
   20CHL1  H19B 1448   6.021   0.547   9.968
   20CHL1  H19C 1449   6.199   0.515   9.999
   20CHL1    C1 1450   6.238   0.724  10.172
   20CHL1   H1A 1451   6.323   0.684  10.112
   20CHL1   H1B 1452   6.256   0.834  10.176
   20CHL1    C2 1453   6.245   0.667  10.317
   20CHL1   H2A 1454   6.334   0.691  10.378
   20CHL1   H2B 1455   6.243   0.557  10.301
   20CHL1   C20 1456   6.055   0.887   9.416
   20CHL1   H20 1457   6.018   0.787   9.385
   20CHL1   C21 1458   6.211   0.876   9.399
   20CHL1  H21A 1459   6.255   0.791   9.455
   20CHL1  H21B 1460   6.255   0.971   9.435
   20CHL1  H21C 1461   6.231   0.868   9.290
   20CHL1   C22 1462   6.012   0.996   9.315
   20CHL1  H22A 1463   5.911   1.036   9.339
   20CHL1  H22B 1464   6.087   1.076   9.335
   20CHL1   C23 1465   6.012   0.958   9.168
   20CHL1  H23A 1466   6.101   0.907   9.126
   20CHL1  H23B 1467   5.930   0.884   9.154
   20CHL1   C24 1468   5.997   1.077   9.072
   20CHL1  H24A 1469   5.911   1.140   9.102
   20CHL1  H24B 1470   6.086   1.141   9.089
   20CHL1   C25 1471   5.983   1.044   8.919
   20CHL1   H25 1472   5.900   0.971   8.902
   20CHL1   C26 1473   5.960   1.177   8.847
   20CHL1  H26A 1474   5.873   1.232   8.888
   20CHL1  H26B 1475   6.050   1.241   8.860
   20CHL1  H26C 1476   5.952   1.165   8.737
   20CHL1   C27 1477   6.108   0.979   8.845
   20CHL1  H27A 1478   6.118   0.874   8.880
   20CHL1  H27B 1479   6.100   0.985   8.734
   20CHL1  H27C 1480   6.203   1.030   8.873
   21CHL1    C3 1481   5.851   3.944  10.210
   21CHL1    H3 1482   5.947   3.909  10.165
   21CHL1    O3 1483   5.868   3.947  10.354
   21CHL1   H3' 1484   5.784   3.979  10.389
   21CHL1    C4 1485   5.823   4.091  10.157
   21CHL1   H4A 1486   5.733   4.122  10.216
   21CHL1   H4B 1487   5.914   4.151  10.179
   21CHL1    C5 1488   5.789   4.080  10.004
   21CHL1    C6 1489   5.852   4.157   9.918
   21CHL1    H6 1490   5.942   4.212   9.950
   21CHL1    C7 1491   5.823   4.159   9.769
   21CHL1   H7A 1492   5.796   4.264   9.743
   21CHL1   H7B 1493   5.914   4.120   9.718
   21CHL1    C8 1494   5.697   4.078   9.717
   21CHL1    H8 1495   5.602   4.133   9.735
   21CHL1   C14 1496   5.719   4.021   9.579
   21CHL1   H14 1497   5.804   3.950   9.575
   21CHL1   C15 1498   5.754   4.126   9.474
   21CHL1  H15A 1499   5.709   4.220   9.512
   21CHL1  H15B 1500   5.863   4.143   9.473
   21CHL1   C16 1501   5.707   4.064   9.342
   21CHL1  H16A 1502   5.637   4.134   9.292
   21CHL1  H16B 1503   5.793   4.057   9.272
   21CHL1   C17 1504   5.645   3.930   9.369
   21CHL1   H17 1505   5.732   3.861   9.362
   21CHL1   C13 1506   5.601   3.943   9.515
   21CHL1   C18 1507   5.476   4.031   9.521
   21CHL1  H18A 1508   5.451   4.056   9.627
   21CHL1  H18B 1509   5.491   4.126   9.466
   21CHL1  H18C 1510   5.382   3.984   9.484
   21CHL1   C12 1511   5.592   3.816   9.601
   21CHL1  H12A 1512   5.510   3.751   9.566
   21CHL1  H12B 1513   5.692   3.770   9.582
   21CHL1   C11 1514   5.571   3.851   9.748
   21CHL1  H11A 1515   5.471   3.896   9.767
   21CHL1  H11B 1516   5.578   3.752   9.798
   21CHL1    C9 1517   5.681   3.949   9.801
   21CHL1    H9 1518   5.778   3.897   9.788
   21CHL1   C10 1519   5.682   3.976   9.955
   21CHL1   C19 1520   5.546   4.031   9.999
   21CHL1  H19A 1521   5.548   4.035  10.110
   21CHL1  H19B 1522   5.522   4.133   9.964
   21CHL1  H19C 1523   5.462   3.964   9.969
   21CHL1    C1 1524   5.718   3.843  10.027
   21CHL1   H1A 1525   5.644   3.763  10.004
   21CHL1   H1B 1526   5.817   3.809   9.989
   21CHL1    C2 1527   5.740   3.845  10.182
   21CHL1   H2A 1528   5.772   3.746  10.224
   21CHL1   H2B 1529   5.647   3.868  10.238
   21CHL1   C20 1530   5.550   3.875   9.267
   21CHL1   H20 1531   5.442   3.884   9.292
   21CHL1   C21 1532   5.579   3.720   9.264
   21CHL1  H21A 1533   5.497   3.668   9.209
   21CHL1  H21B 1534   5.581   3.694   9.372
   21CHL1  H21C 1535   5.669   3.694   9.206
   21CHL1   C22 1536   5.564   3.933   9.124
   21CHL1  H22A 1537   5.566   4.044   9.127
   21CHL1  H22B 1538   5.657   3.899   9.074
   21CHL1   C23 1539   5.445   3.889   9.035
   21CHL1  H23A 1540   5.435   3.779   9.025
   21CHL1  H23B 1541   5.350   3.920   9.084
   21CHL1   C24 1542   5.462   3.960   8.895
   21CHL1  H24A 1543   5.434   4.066   8.911
   21CHL1  H24B 1544   5.570   3.949   8.869
   21CHL1   C25 1545   5.373   3.896   8.785
   21CHL1   H25 1546   5.382   3.786   8.781
   21CHL1   C26 1547   5.225   3.931   8.821
   21CHL1  H26A 1548   5.215   4.041   8.823
   21CHL1  H26B 1549   5.157   3.884   8.747
   21CHL1  H26C 1550   5.198   3.902   8.925
   21CHL1   C27 1551   5.411   3.940   8.641
   21CHL1  H27A 1552   5.342   3.886   8.573
   21CHL1  H27B 1553   5.397   4.050   8.631
   21CHL1  H27C 1554   5.513   3.909   8.612
   22CHL1    C3 1555   5.430   4.927  10.080
   22CHL1    H3 1556   5.495   4.839  10.096
   22CHL1    O3 1557   5.389   4.981  10.206
   22CHL1   H3' 1558   5.374   4.904  10.262
   22CHL1    C4 1559   5.504   5.032  10.007
   22CHL1   H4A 1560   5.447   5.128  10.015
   22CHL1   H4B 1561   5.595   5.051  10.067
   22CHL1    C5 1562   5.532   4.999   9.864
   22CHL1    C6 1563   5.658   5.001   9.824
   22CHL1    H6 1564   5.740   5.038   9.887
   22CHL1    C7 1565   5.687   4.967   9.684
   22CHL1   H7A 1566   5.778   5.017   9.644
   22CHL1   H7B 1567   5.730   4.865   9.685
   22CHL1    C8 1568   5.564   4.972   9.586
   22CHL1    H8 1569   5.530   5.077   9.573
   22CHL1   C14 1570   5.592   4.898   9.451
   22CHL1   H14 1571   5.608   4.793   9.485
   22CHL1   C15 1572   5.727   4.941   9.378
   22CHL1  H15A 1573   5.739   5.051   9.388
   22CHL1  H15B 1574   5.817   4.887   9.415
   22CHL1   C16 1575   5.708   4.895   9.233
   22CHL1  H16A 1576   5.721   4.990   9.177
   22CHL1  H16B 1577   5.785   4.828   9.190
   22CHL1   C17 1578   5.566   4.836   9.220
   22CHL1   H17 1579   5.580   4.728   9.244
   22CHL1   C13 1580   5.489   4.898   9.345
   22CHL1   C18 1581   5.456   5.043   9.295
   22CHL1  H18A 1582   5.357   5.053   9.245
   22CHL1  H18B 1583   5.453   5.116   9.378
   22CHL1  H18C 1584   5.531   5.077   9.222
   22CHL1   C12 1585   5.367   4.826   9.407
   22CHL1  H12A 1586   5.284   4.827   9.333
   22CHL1  H12B 1587   5.404   4.722   9.416
   22CHL1   C11 1588   5.327   4.883   9.544
   22CHL1  H11A 1589   5.277   4.978   9.518
   22CHL1  H11B 1590   5.258   4.810   9.593
   22CHL1    C9 1591   5.442   4.894   9.643
   22CHL1    H9 1592   5.472   4.791   9.670
   22CHL1   C10 1593   5.408   4.947   9.789
   22CHL1   C19 1594   5.310   5.056   9.752
   22CHL1  H19A 1595   5.206   5.018   9.742
   22CHL1  H19B 1596   5.294   5.133   9.831
   22CHL1  H19C 1597   5.350   5.107   9.662
   22CHL1    C1 1598   5.343   4.836   9.878
   22CHL1   H1A 1599   5.257   4.787   9.827
   22CHL1   H1B 1600   5.412   4.750   9.891
   22CHL1    C2 1601   5.304   4.882  10.011
   22CHL1   H2A 1602   5.255   4.811  10.082
   22CHL1   H2B 1603   5.240   4.973  10.018
   22CHL1   C20 1604   5.501   4.847   9.078
   22CHL1   H20 1605   5.486   4.956   9.063
   22CHL1   C21 1606   5.353   4.785   9.077
   22CHL1  H21A 1607   5.324   4.767   8.972
   22CHL1  H21B 1608   5.274   4.842   9.131
   22CHL1  H21C 1609   5.362   4.683   9.121
   22CHL1   C22 1610   5.592   4.793   8.964
   22CHL1  H22A 1611   5.542   4.805   8.866
   22CHL1  H22B 1612   5.688   4.850   8.963
   22CHL1   C23 1613   5.611   4.638   8.964
   22CHL1  H23A 1614   5.663   4.611   9.058
   22CHL1  H23B 1615   5.510   4.591   8.963
   22CHL1   C24 1616   5.686   4.590   8.832
   22CHL1  H24A 1617   5.642   4.647   8.747
   22CHL1  H24B 1618   5.796   4.608   8.832
   22CHL1   C25 1619   5.652   4.440   8.800
   22CHL1   H25 1620   5.720   4.407   8.719
   22CHL1   C26 1621   5.666   4.355   8.926
   22CHL1  H26A 1622   5.667   4.245   8.911
   22CHL1  H26B 1623   5.767   4.370   8.969
   22CHL1  H26C 1624   5.599   4.376   9.012
   22CHL1   C27 1625   5.505   4.429   8.748
   22CHL1  H27A 1626   5.507   4.365   8.657
   22CHL1  H27B 1627   5.435   4.380   8.819
   22CHL1  H27C 1628   5.472   4.528   8.710
   23CHL1    C3 1629   1.839   6.503  10.109
   23CHL1    H3 1630   1.803   6.590  10.051
   23CHL1    O3 1631   1.836   6.532  10.250
   23CHL1   H3' 1632   1.744   6.511  10.268
   23CHL1    C4 1633   1.746   6.389  10.069
   23CHL1   H4A 1634   1.805   6.301  10.103
   23CHL1   H4B 1635   1.651   6.407  10.125
   23CHL1    C5 1636   1.739   6.381   9.922
   23CHL1    C6 1637   1.624   6.412   9.863
   23CHL1    H6 1638   1.539   6.434   9.928
   23CHL1    C7 1639   1.598   6.408   9.717
   23CHL1   H7A 1640   1.509   6.348   9.687
   23CHL1   H7B 1641   1.579   6.511   9.681
   23CHL1    C8 1642   1.710   6.352   9.633
   23CHL1    H8 1643   1.701   6.241   9.634
   23CHL1   C14 1644   1.718   6.417   9.490
   23CHL1   H14 1645   1.733   6.526   9.507
   23CHL1   C15 1646   1.590   6.409   9.404
   23CHL1  H15A 1647   1.545   6.310   9.430
   23CHL1  H15B 1648   1.530   6.501   9.418
   23CHL1   C16 1649   1.638   6.420   9.256
   23CHL1  H16A 1650   1.618   6.329   9.195
   23CHL1  H16B 1651   1.606   6.510   9.201
   23CHL1   C17 1652   1.794   6.440   9.275
   23CHL1   H17 1653   1.815   6.546   9.301
   23CHL1   C13 1654   1.826   6.366   9.404
   23CHL1   C18 1655   1.822   6.214   9.372
   23CHL1  H18A 1656   1.719   6.188   9.342
   23CHL1  H18B 1657   1.886   6.179   9.288
   23CHL1  H18C 1658   1.844   6.164   9.469
   23CHL1   C12 1659   1.963   6.416   9.458
   23CHL1  H12A 1660   2.056   6.379   9.411
   23CHL1  H12B 1661   1.975   6.526   9.448
   23CHL1   C11 1662   1.971   6.364   9.609
   23CHL1  H11A 1663   1.993   6.255   9.618
   23CHL1  H11B 1664   2.054   6.407   9.668
   23CHL1    C9 1665   1.847   6.393   9.701
   23CHL1    H9 1666   1.842   6.504   9.698
   23CHL1   C10 1667   1.876   6.357   9.853
   23CHL1   C19 1668   1.904   6.207   9.861
   23CHL1  H19A 1669   2.007   6.183   9.826
   23CHL1  H19B 1670   1.904   6.167   9.965
   23CHL1  H19C 1671   1.835   6.149   9.796
   23CHL1    C1 1672   1.989   6.443   9.916
   23CHL1   H1A 1673   2.083   6.394   9.883
   23CHL1   H1B 1674   1.994   6.535   9.854
   23CHL1    C2 1675   1.983   6.466  10.067
   23CHL1   H2A 1676   2.049   6.553  10.084
   23CHL1   H2B 1677   2.017   6.380  10.129
   23CHL1   C20 1678   1.883   6.409   9.154
   23CHL1   H20 1679   1.982   6.370   9.186
   23CHL1   C21 1680   1.941   6.542   9.103
   23CHL1  H21A 1681   1.862   6.604   9.057
   23CHL1  H21B 1682   2.015   6.522   9.022
   23CHL1  H21C 1683   1.993   6.601   9.182
   23CHL1   C22 1684   1.835   6.321   9.046
   23CHL1  H22A 1685   1.795   6.226   9.086
   23CHL1  H22B 1686   1.743   6.362   8.998
   23CHL1   C23 1687   1.920   6.274   8.929
   23CHL1  H23A 1688   1.954   6.359   8.866
   23CHL1  H23B 1689   2.012   6.245   8.985
   23CHL1   C24 1690   1.862   6.172   8.826
   23CHL1  H24A 1691   1.823   6.086   8.884
   23CHL1  H24B 1692   1.776   6.227   8.782
   23CHL1   C25 1693   1.970   6.123   8.724
   23CHL1   H25 1694   1.922   6.035   8.676
   23CHL1   C26 1695   2.008   6.224   8.619
   23CHL1  H26A 1696   2.058   6.169   8.537
   23CHL1  H26B 1697   1.922   6.278   8.574
   23CHL1  H26C 1698   2.076   6.303   8.660
   23CHL1   C27 1699   2.097   6.066   8.793
   23CHL1  H27A 1700   2.170   6.149   8.808
   23CHL1  H27B 1701   2.079   6.030   8.896
   23CHL1  H27C 1702   2.156   5.996   8.729
   24CHL1    C3 1703   3.187   0.482  10.114
   24CHL1    H3 1704   3.294   0.501  10.092
   24CHL1    O3 1705   3.147   0.483  10.250
   24CHL1   H3' 1706   3.150   0.578  10.267
   24CHL1    C4 1707   3.097   0.586  10.039
   24CHL1   H4A 1708   2.993   0.552  10.057
   24CHL1   H4B 1709   3.109   0.687  10.086
   24CHL1    C5 1710   3.127   0.593   9.889
   24CHL1    C6 1711   3.177   0.708   9.838
   24CHL1    H6 1712   3.178   0.799   9.899
   24CHL1    C7 1713   3.202   0.722   9.692
   24CHL1   H7A 1714   3.151   0.812   9.651
   24CHL1   H7B 1715   3.311   0.740   9.681
   24CHL1    C8 1716   3.161   0.599   9.608
   24CHL1    H8 1717   3.055   0.603   9.574
   24CHL1   C14 1718   3.252   0.603   9.477
   24CHL1   H14 1719   3.358   0.595   9.509
   24CHL1   C15 1720   3.257   0.728   9.389
   24CHL1  H15A 1721   3.154   0.767   9.371
   24CHL1  H15B 1722   3.301   0.821   9.431
   24CHL1   C16 1723   3.319   0.681   9.255
   24CHL1  H16A 1724   3.264   0.697   9.159
   24CHL1  H16B 1725   3.420   0.727   9.247
   24CHL1   C17 1726   3.316   0.522   9.269
   24CHL1   H17 1727   3.412   0.492   9.316
   24CHL1   C13 1728   3.220   0.488   9.383
   24CHL1   C18 1729   3.073   0.500   9.330
   24CHL1  H18A 1730   3.052   0.603   9.293
   24CHL1  H18B 1731   3.052   0.425   9.251
   24CHL1  H18C 1732   3.002   0.480   9.413
   24CHL1   C12 1733   3.245   0.356   9.452
   24CHL1  H12A 1734   3.219   0.272   9.384
   24CHL1  H12B 1735   3.352   0.356   9.478
   24CHL1   C11 1736   3.153   0.341   9.581
   24CHL1  H11A 1737   3.048   0.365   9.552
   24CHL1  H11B 1738   3.166   0.246   9.639
   24CHL1    C9 1739   3.180   0.464   9.678
   24CHL1    H9 1740   3.289   0.465   9.700
   24CHL1   C10 1741   3.113   0.461   9.820
   24CHL1   C19 1742   2.968   0.433   9.810
   24CHL1  H19A 1743   2.947   0.339   9.754
   24CHL1  H19B 1744   2.928   0.414   9.912
   24CHL1  H19C 1745   2.918   0.520   9.762
   24CHL1    C1 1746   3.182   0.345   9.900
   24CHL1   H1A 1747   3.163   0.245   9.856
   24CHL1   H1B 1748   3.291   0.358   9.880
   24CHL1    C2 1749   3.160   0.339  10.056
   24CHL1   H2A 1750   3.235   0.275  10.109
   24CHL1   H2B 1751   3.062   0.297  10.086
   24CHL1   C20 1752   3.306   0.451   9.130
   24CHL1   H20 1753   3.257   0.357   9.163
   24CHL1   C21 1754   3.458   0.414   9.089
   24CHL1  H21A 1755   3.510   0.511   9.073
   24CHL1  H21B 1756   3.469   0.347   9.001
   24CHL1  H21C 1757   3.502   0.366   9.179
   24CHL1   C22 1758   3.220   0.494   9.019
   24CHL1  H22A 1759   3.124   0.529   9.063
   24CHL1  H22B 1760   3.273   0.584   8.979
   24CHL1   C23 1761   3.185   0.389   8.909
   24CHL1  H23A 1762   3.284   0.358   8.871
   24CHL1  H23B 1763   3.145   0.292   8.947
   24CHL1   C24 1764   3.120   0.454   8.778
   24CHL1  H24A 1765   3.013   0.471   8.801
   24CHL1  H24B 1766   3.166   0.551   8.752
   24CHL1   C25 1767   3.145   0.381   8.642
   24CHL1   H25 1768   3.254   0.385   8.622
   24CHL1   C26 1769   3.105   0.231   8.647
   24CHL1  H26A 1770   3.163   0.157   8.706
   24CHL1  H26B 1771   2.995   0.227   8.667
   24CHL1  H26C 1772   3.114   0.193   8.543
   24CHL1   C27 1773   3.075   0.450   8.525
   24CHL1  H27A 1774   3.114   0.553   8.516
   24CHL1  H27B 1775   3.104   0.384   8.440
   24CHL1  H27C 1776   2.965   0.462   8.534
   25CHL1    C3 1777   4.887   1.806  10.367
   25CHL1    H3 1778   4.960   1.890  10.374
   25CHL1    O3 1779   4.847   1.768  10.496
   25CHL1   H3' 1780   4.806   1.681  10.485
   25CHL1    C4 1781   4.757   1.850  10.293
   25CHL1   H4A 1782   4.689   1.762  10.302
   25CHL1   H4B 1783   4.718   1.934  10.354
   25CHL1    C5 1784   4.783   1.881  10.145
   25CHL1    C6 1785   4.743   1.999  10.092
   25CHL1    H6 1786   4.687   2.067  10.158
   25CHL1    C7 1787   4.738   2.021   9.940
   25CHL1   H7A 1788   4.633   2.048   9.914
   25CHL1   H7B 1789   4.805   2.105   9.915
   25CHL1    C8 1790   4.778   1.899   9.852
   25CHL1    H8 1791   4.685   1.840   9.836
   25CHL1   C14 1792   4.835   1.940   9.719
   25CHL1   H14 1793   4.928   1.995   9.747
   25CHL1   C15 1794   4.760   2.044   9.637
   25CHL1  H15A 1795   4.651   2.035   9.659
   25CHL1  H15B 1796   4.786   2.150   9.657
   25CHL1   C16 1797   4.795   2.013   9.490
   25CHL1  H16A 1798   4.699   1.982   9.443
   25CHL1  H16B 1799   4.831   2.103   9.436
   25CHL1   C17 1800   4.901   1.900   9.495
   25CHL1   H17 1801   4.999   1.950   9.511
   25CHL1   C13 1802   4.869   1.823   9.625
   25CHL1   C18 1803   4.750   1.733   9.596
   25CHL1  H18A 1804   4.699   1.700   9.689
   25CHL1  H18B 1805   4.674   1.781   9.530
   25CHL1  H18C 1806   4.778   1.643   9.537
   25CHL1   C12 1807   4.981   1.747   9.688
   25CHL1  H12A 1808   4.997   1.652   9.633
   25CHL1  H12B 1809   5.076   1.803   9.701
   25CHL1   C11 1810   4.936   1.693   9.828
   25CHL1  H11A 1811   4.863   1.612   9.807
   25CHL1  H11B 1812   5.022   1.655   9.886
   25CHL1    C9 1813   4.879   1.814   9.919
   25CHL1    H9 1814   4.964   1.883   9.939
   25CHL1   C10 1815   4.846   1.768  10.065
   25CHL1   C19 1816   4.748   1.645  10.061
   25CHL1  H19A 1817   4.808   1.551  10.053
   25CHL1  H19B 1818   4.685   1.628  10.150
   25CHL1  H19C 1819   4.689   1.640   9.967
   25CHL1    C1 1820   4.978   1.730  10.148
   25CHL1   H1A 1821   5.019   1.638  10.100
   25CHL1   H1B 1822   5.049   1.813  10.129
   25CHL1    C2 1823   4.950   1.690  10.288
   25CHL1   H2A 1824   5.043   1.653  10.336
   25CHL1   H2B 1825   4.875   1.608  10.284
   25CHL1   C20 1826   4.927   1.816   9.367
   25CHL1   H20 1827   4.949   1.713   9.401
   25CHL1   C21 1828   5.042   1.886   9.293
   25CHL1  H21A 1829   5.066   1.844   9.192
   25CHL1  H21B 1830   5.130   1.871   9.358
   25CHL1  H21C 1831   5.016   1.993   9.285
   25CHL1   C22 1832   4.810   1.811   9.269
   25CHL1  H22A 1833   4.735   1.749   9.322
   25CHL1  H22B 1834   4.769   1.912   9.249
   25CHL1   C23 1835   4.829   1.733   9.148
   25CHL1  H23A 1836   4.923   1.768   9.100
   25CHL1  H23B 1837   4.827   1.625   9.174
   25CHL1   C24 1838   4.714   1.747   9.037
   25CHL1  H24A 1839   4.616   1.727   9.085
   25CHL1  H24B 1840   4.712   1.854   9.008
   25CHL1   C25 1841   4.744   1.661   8.915
   25CHL1   H25 1842   4.767   1.559   8.951
   25CHL1   C26 1843   4.620   1.653   8.821
   25CHL1  H26A 1844   4.646   1.597   8.729
   25CHL1  H26B 1845   4.537   1.590   8.862
   25CHL1  H26C 1846   4.583   1.753   8.792
   25CHL1   C27 1847   4.872   1.697   8.841
   25CHL1  H27A 1848   4.876   1.640   8.746
   25CHL1  H27B 1849   4.880   1.804   8.814
   25CHL1  H27C 1850   4.964   1.677   8.900
   26CHL1    C3 1851   5.968   4.608  10.218
   26CHL1    H3 1852   5.968   4.505  10.259
   26CHL1    O3 1853   5.964   4.693  10.332
   26CHL1   H3' 1854   6.055   4.690  10.363
   26CHL1    C4 1855   6.103   4.628  10.153
   26CHL1   H4A 1856   6.140   4.732  10.144
   26CHL1   H4B 1857   6.176   4.575  10.217
   26CHL1    C5 1858   6.095   4.574  10.012
   26CHL1    C6 1859   6.185   4.481   9.980
   26CHL1    H6 1860   6.266   4.460  10.052
   26CHL1    C7 1861   6.206   4.423   9.846
   26CHL1   H7A 1862   6.315   4.410   9.827
   26CHL1   H7B 1863   6.151   4.327   9.854
   26CHL1    C8 1864   6.134   4.500   9.737
   26CHL1    H8 1865   6.195   4.589   9.710
   26CHL1   C14 1866   6.123   4.413   9.613
   26CHL1   H14 1867   6.058   4.327   9.641
   26CHL1   C15 1868   6.250   4.350   9.552
   26CHL1  H15A 1869   6.329   4.428   9.568
   26CHL1  H15B 1870   6.281   4.256   9.603
   26CHL1   C16 1871   6.215   4.324   9.405
   26CHL1  H16A 1872   6.288   4.385   9.348
   26CHL1  H16B 1873   6.235   4.225   9.358
   26CHL1   C17 1874   6.073   4.378   9.381
   26CHL1   H17 1875   6.004   4.295   9.404
   26CHL1   C13 1876   6.049   4.485   9.495
   26CHL1   C18 1877   6.120   4.618   9.463
   26CHL1  H18A 1878   6.102   4.687   9.547
   26CHL1  H18B 1879   6.230   4.607   9.453
   26CHL1  H18C 1880   6.088   4.668   9.369
   26CHL1   C12 1881   5.903   4.510   9.537
   26CHL1  H12A 1882   5.853   4.579   9.465
   26CHL1  H12B 1883   5.845   4.417   9.553
   26CHL1   C11 1884   5.896   4.595   9.670
   26CHL1  H11A 1885   5.915   4.704   9.667
   26CHL1  H11B 1886   5.794   4.596   9.715
   26CHL1    C9 1887   5.991   4.531   9.782
   26CHL1    H9 1888   5.950   4.431   9.805
   26CHL1   C10 1889   5.981   4.609   9.919
   26CHL1   C19 1890   6.016   4.758   9.890
   26CHL1  H19A 1891   5.926   4.806   9.846
   26CHL1  H19B 1892   6.039   4.820   9.979
   26CHL1  H19C 1893   6.100   4.766   9.818
   26CHL1    C1 1894   5.852   4.581   9.998
   26CHL1   H1A 1895   5.755   4.604   9.948
   26CHL1   H1B 1896   5.854   4.473  10.023
   26CHL1    C2 1897   5.847   4.648  10.140
   26CHL1   H2A 1898   5.761   4.625  10.207
   26CHL1   H2B 1899   5.843   4.759  10.131
   26CHL1   C20 1900   6.054   4.420   9.233
   26CHL1   H20 1901   6.113   4.513   9.218
   26CHL1   C21 1902   5.912   4.457   9.218
   26CHL1  H21A 1903   5.874   4.543   9.277
   26CHL1  H21B 1904   5.849   4.369   9.245
   26CHL1  H21C 1905   5.875   4.477   9.115
   26CHL1   C22 1906   6.101   4.308   9.136
   26CHL1  H22A 1907   6.210   4.289   9.144
   26CHL1  H22B 1908   6.046   4.218   9.170
   26CHL1   C23 1909   6.072   4.345   8.986
   26CHL1  H23A 1910   5.961   4.341   8.983
   26CHL1  H23B 1911   6.119   4.436   8.942
   26CHL1   C24 1912   6.115   4.230   8.893
   26CHL1  H24A 1913   6.217   4.250   8.852
   26CHL1  H24B 1914   6.134   4.139   8.953
   26CHL1   C25 1915   6.016   4.200   8.785
   26CHL1   H25 1916   5.916   4.164   8.817
   26CHL1   C26 1917   5.989   4.310   8.688
   26CHL1  H26A 1918   5.945   4.272   8.594
   26CHL1  H26B 1919   5.921   4.394   8.713
   26CHL1  H26C 1920   6.076   4.361   8.642
   26CHL1   C27 1921   6.075   4.079   8.710
   26CHL1  H27A 1922   6.011   4.058   8.621
   26CHL1  H27B 1923   6.180   4.098   8.682
   26CHL1  H27C 1924   6.077   3.992   8.780
   27CHL1    C3 1925   5.455   1.733  10.332
   27CHL1    H3 1926   5.534   1.809  10.348
   27CHL1    O3 1927   5.412   1.675  10.457
   27CHL1   H3' 1928   5.381   1.746  10.513
   27CHL1    C4 1929   5.336   1.803  10.267
   27CHL1   H4A 1930   5.254   1.728  10.259
   27CHL1   H4B 1931   5.293   1.869  10.346
   27CHL1    C5 1932   5.361   1.866  10.131
   27CHL1    C6 1933   5.337   1.997  10.100
   27CHL1    H6 1934   5.310   2.062  10.185
   27CHL1    C7 1935   5.350   2.050   9.963
   27CHL1   H7A 1936   5.261   2.105   9.925
   27CHL1   H7B 1937   5.440   2.114   9.952
   27CHL1    C8 1938   5.365   1.934   9.860
   27CHL1    H8 1939   5.265   1.888   9.844
   27CHL1   C14 1940   5.416   1.992   9.726
   27CHL1   H14 1941   5.503   2.055   9.754
   27CHL1   C15 1942   5.319   2.093   9.665
   27CHL1  H15A 1943   5.213   2.074   9.691
   27CHL1  H15B 1944   5.350   2.193   9.702
   27CHL1   C16 1945   5.350   2.082   9.513
   27CHL1  H16A 1946   5.268   2.022   9.469
   27CHL1  H16B 1947   5.357   2.180   9.460
   27CHL1   C17 1948   5.474   1.992   9.493
   27CHL1   H17 1949   5.565   2.055   9.501
   27CHL1   C13 1950   5.457   1.895   9.612
   27CHL1   C18 1951   5.336   1.796   9.588
   27CHL1  H18A 1952   5.372   1.723   9.513
   27CHL1  H18B 1953   5.303   1.727   9.669
   27CHL1  H18C 1954   5.241   1.845   9.558
   27CHL1   C12 1955   5.579   1.821   9.665
   27CHL1  H12A 1956   5.628   1.762   9.584
   27CHL1  H12B 1957   5.655   1.888   9.710
   27CHL1   C11 1958   5.539   1.740   9.796
   27CHL1  H11A 1959   5.474   1.655   9.766
   27CHL1  H11B 1960   5.628   1.704   9.853
   27CHL1    C9 1961   5.475   1.830   9.908
   27CHL1    H9 1962   5.559   1.897   9.933
   27CHL1   C10 1963   5.419   1.760  10.034
   27CHL1   C19 1964   5.313   1.660   9.991
   27CHL1  H19A 1965   5.228   1.709   9.938
   27CHL1  H19B 1966   5.345   1.584   9.917
   27CHL1  H19C 1967   5.277   1.605  10.080
   27CHL1    C1 1968   5.537   1.687  10.098
   27CHL1   H1A 1969   5.557   1.611  10.019
   27CHL1   H1B 1970   5.617   1.764  10.103
   27CHL1    C2 1971   5.505   1.623  10.235
   27CHL1   H2A 1972   5.601   1.583  10.273
   27CHL1   H2B 1973   5.430   1.542  10.219
   27CHL1   C20 1974   5.485   1.941   9.348
   27CHL1   H20 1975   5.390   1.890   9.322
   27CHL1   C21 1976   5.583   1.823   9.337
   27CHL1  H21A 1977   5.675   1.839   9.397
   27CHL1  H21B 1978   5.608   1.806   9.230
   27CHL1  H21C 1979   5.533   1.734   9.381
   27CHL1   C22 1980   5.512   2.058   9.249
   27CHL1  H22A 1981   5.429   2.133   9.252
   27CHL1  H22B 1982   5.605   2.100   9.293
   27CHL1   C23 1983   5.517   2.016   9.106
   27CHL1  H23A 1984   5.555   2.108   9.057
   27CHL1  H23B 1985   5.599   1.942   9.090
   27CHL1   C24 1986   5.390   1.971   9.037
   27CHL1  H24A 1987   5.371   1.874   9.087
   27CHL1  H24B 1988   5.298   2.031   9.056
   27CHL1   C25 1989   5.399   1.962   8.878
   27CHL1   H25 1990   5.372   2.064   8.842
   27CHL1   C26 1991   5.539   1.943   8.818
   27CHL1  H26A 1992   5.611   2.013   8.866
   27CHL1  H26B 1993   5.573   1.839   8.837
   27CHL1  H26C 1994   5.562   1.982   8.717
   27CHL1   C27 1995   5.303   1.865   8.814
   27CHL1  H27A 1996   5.341   1.761   8.825
   27CHL1  H27B 1997   5.202   1.878   8.858
   27CHL1  H27C 1998   5.309   1.884   8.705
   28CHL1    C3 1999   4.497   0.396  10.032
   28CHL1    H3 2000   4.442   0.491  10.013
   28CHL1    O3 2001   4.491   0.372  10.172
   28CHL1   H3' 2002   4.505   0.458  10.213
   28CHL1    C4 2003   4.423   0.284   9.956
   28CHL1   H4A 2004   4.467   0.190   9.994
   28CHL1   H4B 2005   4.317   0.285   9.992
   28CHL1    C5 2006   4.429   0.289   9.807
   28CHL1    C6 2007   4.323   0.276   9.730
   28CHL1    H6 2008   4.226   0.257   9.780
   28CHL1    C7 2009   4.314   0.273   9.586
   28CHL1   H7A 2010   4.251   0.195   9.539
   28CHL1   H7B 2011   4.274   0.373   9.560
   28CHL1    C8 2012   4.459   0.279   9.523
   28CHL1    H8 2013   4.490   0.174   9.508
   28CHL1   C14 2014   4.452   0.337   9.378
   28CHL1   H14 2015   4.421   0.443   9.387
   28CHL1   C15 2016   4.351   0.273   9.281
   28CHL1  H15A 2017   4.368   0.163   9.284
   28CHL1  H15B 2018   4.244   0.290   9.308
   28CHL1   C16 2019   4.388   0.328   9.141
   28CHL1  H16A 2020   4.380   0.245   9.067
   28CHL1  H16B 2021   4.323   0.415   9.115
   28CHL1   C17 2022   4.538   0.378   9.157
   28CHL1   H17 2023   4.527   0.489   9.162
   28CHL1   C13 2024   4.586   0.332   9.300
   28CHL1   C18 2025   4.652   0.196   9.298
   28CHL1  H18A 2026   4.657   0.144   9.395
   28CHL1  H18B 2027   4.602   0.122   9.231
   28CHL1  H18C 2028   4.755   0.197   9.257
   28CHL1   C12 2029   4.672   0.434   9.380
   28CHL1  H12A 2030   4.764   0.465   9.327
   28CHL1  H12B 2031   4.629   0.535   9.399
   28CHL1   C11 2032   4.692   0.385   9.525
   28CHL1  H11A 2033   4.748   0.289   9.522
   28CHL1  H11B 2034   4.749   0.464   9.579
   28CHL1    C9 2035   4.563   0.366   9.608
   28CHL1    H9 2036   4.512   0.464   9.609
   28CHL1   C10 2037   4.572   0.321   9.754
   28CHL1   C19 2038   4.658   0.190   9.757
   28CHL1  H19A 2039   4.602   0.115   9.698
   28CHL1  H19B 2040   4.754   0.217   9.710
   28CHL1  H19C 2041   4.671   0.153   9.861
   28CHL1    C1 2042   4.648   0.428   9.837
   28CHL1   H1A 2043   4.755   0.436   9.808
   28CHL1   H1B 2044   4.602   0.526   9.810
   28CHL1    C2 2045   4.638   0.408   9.989
   28CHL1   H2A 2046   4.700   0.485  10.039
   28CHL1   H2B 2047   4.686   0.315  10.027
   28CHL1   C20 2048   4.622   0.353   9.027
   28CHL1   H20 2049   4.645   0.244   9.021
   28CHL1   C21 2050   4.744   0.435   9.042
   28CHL1  H21A 2051   4.798   0.391   9.129
   28CHL1  H21B 2052   4.732   0.545   9.055
   28CHL1  H21C 2053   4.809   0.418   8.954
   28CHL1   C22 2054   4.550   0.397   8.895
   28CHL1  H22A 2055   4.446   0.360   8.888
   28CHL1  H22B 2056   4.543   0.508   8.888
   28CHL1   C23 2057   4.628   0.355   8.771
   28CHL1  H23A 2058   4.724   0.411   8.767
   28CHL1  H23B 2059   4.644   0.247   8.790
   28CHL1   C24 2060   4.540   0.368   8.647
   28CHL1  H24A 2061   4.446   0.309   8.656
   28CHL1  H24B 2062   4.514   0.474   8.630
   28CHL1   C25 2063   4.622   0.307   8.531
   28CHL1   H25 2064   4.723   0.351   8.538
   28CHL1   C26 2065   4.632   0.152   8.537
   28CHL1  H26A 2066   4.671   0.117   8.439
   28CHL1  H26B 2067   4.686   0.117   8.628
   28CHL1  H26C 2068   4.529   0.111   8.532
   28CHL1   C27 2069   4.569   0.355   8.399
   28CHL1  H27A 2070   4.461   0.332   8.384
   28CHL1  H27B 2071   4.583   0.465   8.397
   28CHL1  H27C 2072   4.633   0.328   8.313
   29CHL1    C3 2073   5.995   5.017   6.563
   29CHL1    H3 2074   5.945   4.934   6.616
   29CHL1    O3 2075   5.962   5.009   6.423
   29CHL1   H3' 2076   5.972   5.099   6.390
   29CHL1    C4 2077   5.945   5.157   6.619
   29CHL1   H4A 2078   5.977   5.225   6.537
   29CHL1   H4B 2079   5.835   5.176   6.614
   29CHL1    C5 2080   5.989   5.197   6.758
   29CHL1    C6 2081   5.911   5.262   6.842
   29CHL1    H6 2082   5.806   5.284   6.816
   29CHL1    C7 2083   5.948   5.314   6.978
   29CHL1   H7A 2084   5.915   5.418   7.000
   29CHL1   H7B 2085   5.890   5.256   7.053
   29CHL1    C8 2086   6.101   5.302   7.007
   29CHL1    H8 2087   6.152   5.392   6.965
   29CHL1   C14 2088   6.124   5.310   7.156
   29CHL1   H14 2089   6.073   5.223   7.203
   29CHL1   C15 2090   6.070   5.433   7.227
   29CHL1  H15A 2091   6.102   5.526   7.174
   29CHL1  H15B 2092   5.960   5.422   7.231
   29CHL1   C16 2093   6.136   5.427   7.370
   29CHL1  H16A 2094   6.158   5.525   7.418
   29CHL1  H16B 2095   6.071   5.374   7.443
   29CHL1   C17 2096   6.268   5.327   7.348
   29CHL1   H17 2097   6.233   5.227   7.383
   29CHL1   C13 2098   6.271   5.303   7.195
   29CHL1   C18 2099   6.351   5.421   7.123
   29CHL1  H18A 2100   6.309   5.520   7.153
   29CHL1  H18B 2101   6.452   5.424   7.168
   29CHL1  H18C 2102   6.361   5.414   7.012
   29CHL1   C12 2103   6.320   5.171   7.142
   29CHL1  H12A 2104   6.429   5.160   7.162
   29CHL1  H12B 2105   6.268   5.092   7.199
   29CHL1   C11 2106   6.302   5.157   6.981
   29CHL1  H11A 2107   6.369   5.233   6.935
   29CHL1  H11B 2108   6.341   5.057   6.953
   29CHL1    C9 2109   6.161   5.177   6.937
   29CHL1    H9 2110   6.101   5.093   6.979
   29CHL1   C10 2111   6.139   5.174   6.784
   29CHL1   C19 2112   6.219   5.296   6.722
   29CHL1  H19A 2113   6.222   5.304   6.611
   29CHL1  H19B 2114   6.184   5.392   6.766
   29CHL1  H19C 2115   6.325   5.300   6.756
   29CHL1    C1 2116   6.186   5.032   6.733
   29CHL1   H1A 2117   6.293   5.015   6.758
   29CHL1   H1B 2118   6.140   4.956   6.800
   29CHL1    C2 2119   6.149   4.999   6.587
   29CHL1   H2A 2120   6.181   4.894   6.571
   29CHL1   H2B 2121   6.208   5.054   6.511
   29CHL1   C20 2122   6.386   5.376   7.427
   29CHL1   H20 2123   6.416   5.472   7.378
   29CHL1   C21 2124   6.493   5.269   7.411
   29CHL1  H21A 2125   6.460   5.166   7.434
   29CHL1  H21B 2126   6.588   5.290   7.465
   29CHL1  H21C 2127   6.510   5.282   7.302
   29CHL1   C22 2128   6.356   5.395   7.583
   29CHL1  H22A 2129   6.435   5.461   7.625
   29CHL1  H22B 2130   6.269   5.462   7.600
   29CHL1   C23 2131   6.312   5.271   7.662
   29CHL1  H23A 2132   6.213   5.237   7.624
   29CHL1  H23B 2133   6.383   5.187   7.648
   29CHL1   C24 2134   6.331   5.283   7.816
   29CHL1  H24A 2135   6.320   5.182   7.860
   29CHL1  H24B 2136   6.430   5.327   7.843
   29CHL1   C25 2137   6.220   5.375   7.876
   29CHL1   H25 2138   6.213   5.463   7.810
   29CHL1   C26 2139   6.086   5.309   7.885
   29CHL1  H26A 2140   6.024   5.375   7.950
   29CHL1  H26B 2141   6.042   5.310   7.783
   29CHL1  H26C 2142   6.099   5.214   7.940
   29CHL1   C27 2143   6.252   5.435   8.018
   29CHL1  H27A 2144   6.340   5.500   8.003
   29CHL1  H27B 2145   6.164   5.492   8.055
   29CHL1  H27C 2146   6.264   5.348   8.087
   30CHL1    C3 2147   4.318   3.924   7.339
   30CHL1    H3 2148   4.423   3.903   7.371
   30CHL1    O3 2149   4.311   3.860   7.207
   30CHL1   H3' 2150   4.339   3.928   7.146
   30CHL1    C4 2151   4.215   3.854   7.428
   30CHL1   H4A 2152   4.116   3.870   7.380
   30CHL1   H4B 2153   4.228   3.745   7.411
   30CHL1    C5 2154   4.219   3.896   7.572
   30CHL1    C6 2155   4.251   3.812   7.676
   30CHL1    H6 2156   4.263   3.705   7.652
   30CHL1    C7 2157   4.252   3.858   7.823
   30CHL1   H7A 2158   4.201   3.804   7.906
   30CHL1   H7B 2159   4.358   3.851   7.854
   30CHL1    C8 2160   4.205   4.003   7.841
   30CHL1    H8 2161   4.094   4.001   7.843
   30CHL1   C14 2162   4.255   4.056   7.975
   30CHL1   H14 2163   4.366   4.052   7.969
   30CHL1   C15 2164   4.241   3.969   8.098
   30CHL1  H15A 2165   4.138   3.928   8.096
   30CHL1  H15B 2166   4.320   3.892   8.091
   30CHL1   C16 2167   4.270   4.060   8.219
   30CHL1  H16A 2168   4.186   4.063   8.292
   30CHL1  H16B 2169   4.355   4.033   8.286
   30CHL1   C17 2170   4.288   4.208   8.152
   30CHL1   H17 2171   4.396   4.212   8.126
   30CHL1   C13 2172   4.221   4.202   8.013
   30CHL1   C18 2173   4.069   4.211   8.034
   30CHL1  H18A 2174   4.028   4.146   8.114
   30CHL1  H18B 2175   4.030   4.314   8.044
   30CHL1  H18C 2176   4.021   4.176   7.940
   30CHL1   C12 2177   4.267   4.293   7.904
   30CHL1  H12A 2178   4.236   4.397   7.928
   30CHL1  H12B 2179   4.378   4.298   7.896
   30CHL1   C11 2180   4.216   4.246   7.763
   30CHL1  H11A 2181   4.106   4.256   7.774
   30CHL1  H11B 2182   4.237   4.323   7.685
   30CHL1    C9 2183   4.252   4.095   7.729
   30CHL1    H9 2184   4.363   4.091   7.727
   30CHL1   C10 2185   4.200   4.051   7.589
   30CHL1   C19 2186   4.051   4.088   7.579
   30CHL1  H19A 2187   4.008   4.057   7.482
   30CHL1  H19B 2188   4.002   4.045   7.670
   30CHL1  H19C 2189   4.016   4.192   7.592
   30CHL1    C1 2190   4.285   4.132   7.481
   30CHL1   H1A 2191   4.224   4.225   7.481
   30CHL1   H1B 2192   4.389   4.149   7.517
   30CHL1    C2 2193   4.294   4.071   7.338
   30CHL1   H2A 2194   4.372   4.129   7.284
   30CHL1   H2B 2195   4.197   4.087   7.285
   30CHL1   C20 2196   4.272   4.329   8.236
   30CHL1   H20 2197   4.260   4.423   8.178
   30CHL1   C21 2198   4.399   4.350   8.318
   30CHL1  H21A 2199   4.385   4.436   8.386
   30CHL1  H21B 2200   4.494   4.369   8.264
   30CHL1  H21C 2201   4.409   4.262   8.386
   30CHL1   C22 2202   4.150   4.322   8.333
   30CHL1  H22A 2203   4.057   4.275   8.294
   30CHL1  H22B 2204   4.186   4.265   8.421
   30CHL1   C23 2205   4.106   4.459   8.386
   30CHL1  H23A 2206   4.190   4.527   8.413
   30CHL1  H23B 2207   4.052   4.508   8.303
   30CHL1   C24 2208   4.025   4.441   8.515
   30CHL1  H24A 2209   3.922   4.403   8.498
   30CHL1  H24B 2210   4.068   4.369   8.588
   30CHL1   C25 2211   3.993   4.575   8.597
   30CHL1   H25 2212   3.950   4.541   8.694
   30CHL1   C26 2213   4.118   4.647   8.630
   30CHL1  H26A 2214   4.097   4.720   8.712
   30CHL1  H26B 2215   4.199   4.575   8.656
   30CHL1  H26C 2216   4.156   4.697   8.539
   30CHL1   C27 2217   3.883   4.659   8.527
   30CHL1  H27A 2218   3.913   4.766   8.535
   30CHL1  H27B 2219   3.859   4.641   8.420
   30CHL1  H27C 2220   3.789   4.650   8.586
   31CHL1    C3 2221   3.627   5.845   6.657
   31CHL1    H3 2222   3.735   5.825   6.641
   31CHL1    O3 2223   3.573   5.879   6.530
   31CHL1   H3' 2224   3.604   5.803   6.479
   31CHL1    C4 2225   3.562   5.712   6.699
   31CHL1   H4A 2226   3.455   5.738   6.709
   31CHL1   H4B 2227   3.568   5.631   6.624
   31CHL1    C5 2228   3.612   5.668   6.832
   31CHL1    C6 2229   3.674   5.550   6.851
   31CHL1    H6 2230   3.671   5.475   6.770
   31CHL1    C7 2231   3.721   5.508   6.984
   31CHL1   H7A 2232   3.711   5.400   7.005
   31CHL1   H7B 2233   3.832   5.516   6.975
   31CHL1    C8 2234   3.671   5.591   7.109
   31CHL1    H8 2235   3.566   5.560   7.129
   31CHL1   C14 2236   3.765   5.577   7.225
   31CHL1   H14 2237   3.860   5.627   7.197
   31CHL1   C15 2238   3.812   5.428   7.251
   31CHL1  H15A 2239   3.726   5.359   7.255
   31CHL1  H15B 2240   3.891   5.397   7.180
   31CHL1   C16 2241   3.869   5.430   7.397
   31CHL1  H16A 2242   3.800   5.367   7.458
   31CHL1  H16B 2243   3.972   5.392   7.410
   31CHL1   C17 2244   3.845   5.579   7.448
   31CHL1   H17 2245   3.938   5.634   7.420
   31CHL1   C13 2246   3.725   5.627   7.362
   31CHL1   C18 2247   3.588   5.567   7.410
   31CHL1  H18A 2248   3.509   5.603   7.340
   31CHL1  H18B 2249   3.589   5.456   7.411
   31CHL1  H18C 2250   3.562   5.603   7.511
   31CHL1   C12 2251   3.705   5.779   7.330
   31CHL1  H12A 2252   3.659   5.832   7.417
   31CHL1  H12B 2253   3.808   5.821   7.334
   31CHL1   C11 2254   3.624   5.808   7.197
   31CHL1  H11A 2255   3.523   5.767   7.216
   31CHL1  H11B 2256   3.617   5.916   7.173
   31CHL1    C9 2257   3.672   5.740   7.071
   31CHL1    H9 2258   3.780   5.763   7.055
   31CHL1   C10 2259   3.600   5.782   6.947
   31CHL1   C19 2260   3.450   5.808   6.967
   31CHL1  H19A 2261   3.438   5.901   7.026
   31CHL1  H19B 2262   3.377   5.816   6.883
   31CHL1  H19C 2263   3.405   5.732   7.035
   31CHL1    C1 2264   3.669   5.912   6.890
   31CHL1   H1A 2265   3.658   5.994   6.964
   31CHL1   H1B 2266   3.778   5.895   6.876
   31CHL1    C2 2267   3.615   5.956   6.756
   31CHL1   H2A 2268   3.676   6.041   6.719
   31CHL1   H2B 2269   3.510   5.986   6.771
   31CHL1   C20 2270   3.836   5.590   7.603
   31CHL1   H20 2271   3.746   5.531   7.627
   31CHL1   C21 2272   3.818   5.737   7.630
   31CHL1  H21A 2273   3.726   5.775   7.580
   31CHL1  H21B 2274   3.908   5.799   7.604
   31CHL1  H21C 2275   3.806   5.760   7.738
   31CHL1   C22 2276   3.957   5.527   7.677
   31CHL1  H22A 2277   3.960   5.417   7.657
   31CHL1  H22B 2278   4.045   5.576   7.630
   31CHL1   C23 2279   3.958   5.536   7.830
   31CHL1  H23A 2280   3.955   5.641   7.867
   31CHL1  H23B 2281   3.872   5.475   7.865
   31CHL1   C24 2282   4.088   5.478   7.881
   31CHL1  H24A 2283   4.094   5.370   7.856
   31CHL1  H24B 2284   4.170   5.533   7.829
   31CHL1   C25 2285   4.112   5.504   8.031
   31CHL1   H25 2286   4.126   5.614   8.043
   31CHL1   C26 2287   3.986   5.462   8.114
   31CHL1  H26A 2288   3.943   5.372   8.065
   31CHL1  H26B 2289   4.016   5.436   8.218
   31CHL1  H26C 2290   3.910   5.542   8.122
   31CHL1   C27 2291   4.231   5.421   8.086
   31CHL1  H27A 2292   4.305   5.435   8.004
   31CHL1  H27B 2293   4.213   5.312   8.087
   31CHL1  H27C 2294   4.265   5.477   8.176
   32CHL1    C3 2295   4.755   3.954   6.923
   32CHL1    H3 2296   4.651   3.988   6.947
   32CHL1    O3 2297   4.782   3.939   6.782
   32CHL1   H3' 2298   4.707   3.907   6.732
   32CHL1    C4 2299   4.859   4.049   6.983
   32CHL1   H4A 2300   4.958   4.007   6.958
   32CHL1   H4B 2301   4.857   4.141   6.921
   32CHL1    C5 2302   4.829   4.063   7.127
   32CHL1    C6 2303   4.789   4.178   7.181
   32CHL1    H6 2304   4.761   4.263   7.117
   32CHL1    C7 2305   4.759   4.210   7.324
   32CHL1   H7A 2306   4.809   4.305   7.350
   32CHL1   H7B 2307   4.650   4.210   7.346
   32CHL1    C8 2308   4.810   4.093   7.416
   32CHL1    H8 2309   4.915   4.114   7.445
   32CHL1   C14 2310   4.735   4.102   7.556
   32CHL1   H14 2311   4.628   4.077   7.539
   32CHL1   C15 2312   4.747   4.245   7.619
   32CHL1  H15A 2313   4.849   4.286   7.606
   32CHL1  H15B 2314   4.673   4.311   7.570
   32CHL1   C16 2315   4.731   4.205   7.773
   32CHL1  H16A 2316   4.814   4.260   7.822
   32CHL1  H16B 2317   4.642   4.249   7.822
   32CHL1   C17 2318   4.709   4.057   7.786
   32CHL1   H17 2319   4.601   4.031   7.780
   32CHL1   C13 2320   4.782   3.998   7.661
   32CHL1   C18 2321   4.936   4.001   7.693
   32CHL1  H18A 2322   4.992   3.966   7.604
   32CHL1  H18B 2323   4.977   4.101   7.716
   32CHL1  H18C 2324   4.950   3.928   7.776
   32CHL1   C12 2325   4.734   3.864   7.601
   32CHL1  H12A 2326   4.766   3.783   7.670
   32CHL1  H12B 2327   4.623   3.857   7.602
   32CHL1   C11 2328   4.795   3.833   7.460
   32CHL1  H11A 2329   4.903   3.815   7.475
   32CHL1  H11B 2330   4.746   3.742   7.419
   32CHL1    C9 2331   4.781   3.956   7.358
   32CHL1    H9 2332   4.671   3.960   7.339
   32CHL1   C10 2333   4.836   3.941   7.220
   32CHL1   C19 2334   4.979   3.898   7.231
   32CHL1  H19A 2335   4.984   3.809   7.297
   32CHL1  H19B 2336   5.014   3.860   7.133
   32CHL1  H19C 2337   5.052   3.975   7.264
   32CHL1    C1 2338   4.755   3.828   7.148
   32CHL1   H1A 2339   4.776   3.738   7.209
   32CHL1   H1B 2340   4.645   3.841   7.158
   32CHL1    C2 2341   4.769   3.822   6.991
   32CHL1   H2A 2342   4.694   3.746   6.961
   32CHL1   H2B 2343   4.872   3.779   6.983
   32CHL1   C20 2344   4.755   4.004   7.927
   32CHL1   H20 2345   4.865   4.020   7.928
   32CHL1   C21 2346   4.717   3.856   7.954
   32CHL1  H21A 2347   4.758   3.785   7.879
   32CHL1  H21B 2348   4.607   3.848   7.968
   32CHL1  H21C 2349   4.749   3.809   8.049
   32CHL1   C22 2350   4.681   4.081   8.039
   32CHL1  H22A 2351   4.694   4.190   8.023
   32CHL1  H22B 2352   4.575   4.053   8.027
   32CHL1   C23 2353   4.744   4.051   8.179
   32CHL1  H23A 2354   4.756   3.948   8.219
   32CHL1  H23B 2355   4.852   4.076   8.163
   32CHL1   C24 2356   4.688   4.138   8.287
   32CHL1  H24A 2357   4.699   4.241   8.247
   32CHL1  H24B 2358   4.581   4.107   8.285
   32CHL1   C25 2359   4.753   4.119   8.427
   32CHL1   H25 2360   4.863   4.116   8.411
   32CHL1   C26 2361   4.720   4.232   8.530
   32CHL1  H26A 2362   4.776   4.224   8.626
   32CHL1  H26B 2363   4.743   4.335   8.496
   32CHL1  H26C 2364   4.612   4.223   8.557
   32CHL1   C27 2365   4.726   3.985   8.497
   32CHL1  H27A 2366   4.618   3.962   8.489
   32CHL1  H27B 2367   4.781   3.904   8.444
   32CHL1  H27C 2368   4.757   3.984   8.604
   33CHL1    C3 2369   5.578   4.296   6.712
   33CHL1    H3 2370   5.521   4.204   6.687
   33CHL1    O3 2371   5.614   4.366   6.595
   33CHL1   H3' 2372   5.658   4.441   6.637
   33CHL1    C4 2373   5.479   4.386   6.788
   33CHL1   H4A 2374   5.529   4.484   6.804
   33CHL1   H4B 2375   5.389   4.409   6.727
   33CHL1    C5 2376   5.437   4.345   6.923
   33CHL1    C6 2377   5.306   4.336   6.961
   33CHL1    H6 2378   5.233   4.358   6.881
   33CHL1    C7 2379   5.259   4.300   7.097
   33CHL1   H7A 2380   5.181   4.366   7.140
   33CHL1   H7B 2381   5.217   4.199   7.077
   33CHL1    C8 2382   5.378   4.288   7.202
   33CHL1    H8 2383   5.389   4.394   7.234
   33CHL1   C14 2384   5.332   4.208   7.318
   33CHL1   H14 2385   5.308   4.109   7.274
   33CHL1   C15 2386   5.198   4.246   7.383
   33CHL1  H15A 2387   5.202   4.350   7.422
   33CHL1  H15B 2388   5.112   4.232   7.314
   33CHL1   C16 2389   5.195   4.134   7.494
   33CHL1  H16A 2390   5.131   4.178   7.573
   33CHL1  H16B 2391   5.148   4.044   7.450
   33CHL1   C17 2392   5.338   4.098   7.536
   33CHL1   H17 2393   5.347   3.992   7.503
   33CHL1   C13 2394   5.425   4.172   7.430
   33CHL1   C18 2395   5.461   4.302   7.495
   33CHL1  H18A 2396   5.531   4.290   7.581
   33CHL1  H18B 2397   5.520   4.373   7.432
   33CHL1  H18C 2398   5.370   4.350   7.537
   33CHL1   C12 2399   5.543   4.106   7.363
   33CHL1  H12A 2400   5.623   4.081   7.436
   33CHL1  H12B 2401   5.506   4.008   7.328
   33CHL1   C11 2402   5.603   4.190   7.257
   33CHL1  H11A 2403   5.646   4.286   7.294
   33CHL1  H11B 2404   5.682   4.128   7.212
   33CHL1    C9 2405   5.501   4.225   7.144
   33CHL1    H9 2406   5.456   4.128   7.112
   33CHL1   C10 2407   5.556   4.297   7.018
   33CHL1   C19 2408   5.635   4.428   7.063
   33CHL1  H19A 2409   5.724   4.394   7.120
   33CHL1  H19B 2410   5.667   4.497   6.983
   33CHL1  H19C 2411   5.573   4.481   7.138
   33CHL1    C1 2412   5.643   4.204   6.938
   33CHL1   H1A 2413   5.730   4.166   6.996
   33CHL1   H1B 2414   5.582   4.112   6.921
   33CHL1    C2 2415   5.691   4.251   6.798
   33CHL1   H2A 2416   5.762   4.178   6.753
   33CHL1   H2B 2417   5.744   4.345   6.822
   33CHL1   C20 2418   5.375   4.100   7.684
   33CHL1   H20 2419   5.360   4.206   7.714
   33CHL1   C21 2420   5.519   4.043   7.691
   33CHL1  H21A 2421   5.525   3.941   7.648
   33CHL1  H21B 2422   5.548   4.023   7.797
   33CHL1  H21C 2423   5.603   4.101   7.647
   33CHL1   C22 2424   5.284   4.010   7.766
   33CHL1  H22A 2425   5.178   4.041   7.753
   33CHL1  H22B 2426   5.307   3.904   7.742
   33CHL1   C23 2427   5.300   4.011   7.919
   33CHL1  H23A 2428   5.407   3.985   7.934
   33CHL1  H23B 2429   5.264   4.110   7.954
   33CHL1   C24 2430   5.204   3.904   7.989
   33CHL1  H24A 2431   5.110   3.891   7.932
   33CHL1  H24B 2432   5.254   3.805   7.981
   33CHL1   C25 2433   5.174   3.933   8.139
   33CHL1   H25 2434   5.118   4.029   8.133
   33CHL1   C26 2435   5.081   3.822   8.201
   33CHL1  H26A 2436   5.001   3.798   8.127
   33CHL1  H26B 2437   5.138   3.728   8.214
   33CHL1  H26C 2438   5.032   3.856   8.295
   33CHL1   C27 2439   5.303   3.954   8.225
   33CHL1  H27A 2440   5.358   3.858   8.239
   33CHL1  H27B 2441   5.373   4.032   8.189
   33CHL1  H27C 2442   5.268   3.988   8.325
   34CHL1    C3 2443   0.196   2.866   7.115
   34CHL1    H3 2444   0.296   2.917   7.116
   34CHL1    O3 2445   0.166   2.838   6.980
   34CHL1   H3' 2446   0.216   2.758   6.961
   34CHL1    C4 2447   0.216   2.735   7.191
   34CHL1   H4A 2448   0.134   2.660   7.186
   34CHL1   H4B 2449   0.303   2.683   7.143
   34CHL1    C5 2450   0.239   2.763   7.337
   34CHL1    C6 2451   0.350   2.717   7.401
   34CHL1    H6 2452   0.417   2.650   7.344
   34CHL1    C7 2453   0.378   2.726   7.546
   34CHL1   H7A 2454   0.433   2.636   7.582
   34CHL1   H7B 2455   0.456   2.805   7.558
   34CHL1    C8 2456   0.247   2.759   7.627
   34CHL1    H8 2457   0.184   2.669   7.639
   34CHL1   C14 2458   0.288   2.820   7.761
   34CHL1   H14 2459   0.328   2.919   7.733
   34CHL1   C15 2460   0.393   2.751   7.856
   34CHL1  H15A 2461   0.395   2.641   7.837
   34CHL1  H15B 2462   0.489   2.802   7.839
   34CHL1   C16 2463   0.357   2.781   8.002
   34CHL1  H16A 2464   0.323   2.684   8.044
   34CHL1  H16B 2465   0.437   2.817   8.070
   34CHL1   C17 2466   0.245   2.886   7.995
   34CHL1   H17 2467   0.294   2.983   7.972
   34CHL1   C13 2468   0.169   2.852   7.859
   34CHL1   C18 2469   0.078   2.732   7.876
   34CHL1  H18A 2470  -0.012   2.773   7.927
   34CHL1  H18B 2471   0.058   2.678   7.781
   34CHL1  H18C 2472   0.116   2.652   7.943
   34CHL1   C12 2473   0.082   2.967   7.789
   34CHL1  H12A 2474  -0.012   2.984   7.845
   34CHL1  H12B 2475   0.143   3.060   7.788
   34CHL1   C11 2476   0.040   2.928   7.641
   34CHL1  H11A 2477  -0.033   2.847   7.661
   34CHL1  H11B 2478  -0.020   3.017   7.611
   34CHL1    C9 2479   0.162   2.875   7.563
   34CHL1    H9 2480   0.226   2.966   7.563
   34CHL1   C10 2481   0.124   2.843   7.410
   34CHL1   C19 2482  -0.005   2.759   7.409
   34CHL1  H19A 2483   0.003   2.681   7.488
   34CHL1  H19B 2484  -0.091   2.825   7.426
   34CHL1  H19C 2485  -0.021   2.706   7.312
   34CHL1    C1 2486   0.108   2.973   7.325
   34CHL1   H1A 2487   0.026   3.038   7.364
   34CHL1   H1B 2488   0.204   3.027   7.341
   34CHL1    C2 2489   0.079   2.941   7.177
   34CHL1   H2A 2490   0.072   3.043   7.135
   34CHL1   H2B 2491  -0.011   2.878   7.159
   34CHL1   C20 2492   0.161   2.904   8.125
   34CHL1   H20 2493   0.065   2.853   8.100
   34CHL1   C21 2494   0.140   3.053   8.151
   34CHL1  H21A 2495   0.120   3.106   8.055
   34CHL1  H21B 2496   0.229   3.104   8.193
   34CHL1  H21C 2497   0.048   3.076   8.208
   34CHL1   C22 2498   0.209   2.834   8.263
   34CHL1  H22A 2499   0.216   2.724   8.250
   34CHL1  H22B 2500   0.314   2.868   8.275
   34CHL1   C23 2501   0.116   2.851   8.385
   34CHL1  H23A 2502   0.009   2.862   8.355
   34CHL1  H23B 2503   0.131   2.754   8.438
   34CHL1   C24 2504   0.166   2.963   8.474
   34CHL1  H24A 2505   0.272   2.942   8.501
   34CHL1  H24B 2506   0.171   3.062   8.422
   34CHL1   C25 2507   0.094   2.982   8.604
   34CHL1   H25 2508   0.110   2.886   8.658
   34CHL1   C26 2509   0.150   3.089   8.701
   34CHL1  H26A 2510   0.252   3.064   8.738
   34CHL1  H26B 2511   0.151   3.187   8.647
   34CHL1  H26C 2512   0.084   3.097   8.789
   34CHL1   C27 2513  -0.062   2.986   8.587
   34CHL1  H27A 2514  -0.097   3.052   8.505
   34CHL1  H27B 2515  -0.100   2.884   8.565
   34CHL1  H27C 2516  -0.104   3.018   8.685
   35CHL1    C3 2517   3.136   3.877   7.281
   35CHL1    H3 2518   3.088   3.777   7.289
   35CHL1    O3 2519   3.141   3.921   7.145
   35CHL1   H3' 2520   3.222   3.973   7.138
   35CHL1    C4 2521   3.056   3.977   7.365
   35CHL1   H4A 2522   3.090   4.083   7.354
   35CHL1   H4B 2523   2.953   3.967   7.325
   35CHL1    C5 2524   3.056   3.938   7.509
   35CHL1    C6 2525   2.946   3.918   7.584
   35CHL1    H6 2526   2.846   3.932   7.540
   35CHL1    C7 2527   2.949   3.897   7.735
   35CHL1   H7A 2528   2.876   3.966   7.783
   35CHL1   H7B 2529   2.938   3.788   7.748
   35CHL1    C8 2530   3.085   3.948   7.801
   35CHL1    H8 2531   3.090   4.058   7.808
   35CHL1   C14 2532   3.092   3.898   7.940
   35CHL1   H14 2533   3.073   3.788   7.939
   35CHL1   C15 2534   2.983   3.953   8.034
   35CHL1  H15A 2535   2.969   4.062   8.017
   35CHL1  H15B 2536   2.885   3.901   8.027
   35CHL1   C16 2537   3.035   3.917   8.170
   35CHL1  H16A 2538   3.037   4.009   8.232
   35CHL1  H16B 2539   2.972   3.848   8.230
   35CHL1   C17 2540   3.179   3.859   8.146
   35CHL1   H17 2541   3.170   3.748   8.145
   35CHL1   C13 2542   3.220   3.917   8.006
   35CHL1   C18 2543   3.254   4.073   8.011
   35CHL1  H18A 2544   3.312   4.098   7.919
   35CHL1  H18B 2545   3.168   4.143   8.020
   35CHL1  H18C 2546   3.314   4.094   8.102
   35CHL1   C12 2547   3.331   3.837   7.935
   35CHL1  H12A 2548   3.430   3.853   7.984
   35CHL1  H12B 2549   3.304   3.729   7.933
   35CHL1   C11 2550   3.337   3.873   7.784
   35CHL1  H11A 2551   3.393   3.969   7.777
   35CHL1  H11B 2552   3.406   3.806   7.728
   35CHL1    C9 2553   3.195   3.878   7.724
   35CHL1    H9 2554   3.164   3.772   7.717
   35CHL1   C10 2555   3.200   3.921   7.571
   35CHL1   C19 2556   3.262   4.062   7.557
   35CHL1  H19A 2557   3.368   4.046   7.585
   35CHL1  H19B 2558   3.268   4.093   7.450
   35CHL1  H19C 2559   3.209   4.135   7.622
   35CHL1    C1 2560   3.283   3.830   7.479
   35CHL1   H1A 2561   3.387   3.843   7.514
   35CHL1   H1B 2562   3.266   3.721   7.494
   35CHL1    C2 2563   3.279   3.866   7.330
   35CHL1   H2A 2564   3.332   3.790   7.269
   35CHL1   H2B 2565   3.335   3.959   7.308
   35CHL1   C20 2566   3.265   3.875   8.277
   35CHL1   H20 2567   3.292   3.983   8.276
   35CHL1   C21 2568   3.390   3.789   8.261
   35CHL1  H21A 2569   3.456   3.808   8.348
   35CHL1  H21B 2570   3.453   3.815   8.174
   35CHL1  H21C 2571   3.359   3.682   8.261
   35CHL1   C22 2572   3.193   3.847   8.403
   35CHL1  H22A 2573   3.097   3.898   8.423
   35CHL1  H22B 2574   3.175   3.738   8.392
   35CHL1   C23 2575   3.263   3.852   8.544
   35CHL1  H23A 2576   3.177   3.833   8.612
   35CHL1  H23B 2577   3.339   3.778   8.575
   35CHL1   C24 2578   3.308   3.995   8.590
   35CHL1  H24A 2579   3.401   4.023   8.536
   35CHL1  H24B 2580   3.232   4.072   8.567
   35CHL1   C25 2581   3.333   4.005   8.743
   35CHL1   H25 2582   3.266   3.935   8.798
   35CHL1   C26 2583   3.472   3.968   8.789
   35CHL1  H26A 2584   3.499   3.975   8.897
   35CHL1  H26B 2585   3.504   3.868   8.753
   35CHL1  H26C 2586   3.542   4.040   8.743
   35CHL1   C27 2587   3.294   4.155   8.777
   35CHL1  H27A 2588   3.277   4.160   8.887
   35CHL1  H27B 2589   3.193   4.166   8.731
   35CHL1  H27C 2590   3.375   4.226   8.749
   36CHL1    C3 2591   3.673   3.203   7.111
   36CHL1    H3 2592   3.778   3.240   7.107
   36CHL1    O3 2593   3.659   3.175   6.969
   36CHL1   H3' 2594   3.570   3.203   6.947
   36CHL1    C4 2595   3.646   3.075   7.186
   36CHL1   H4A 2596   3.548   3.030   7.160
   36CHL1   H4B 2597   3.719   2.996   7.156
   36CHL1    C5 2598   3.648   3.105   7.339
   36CHL1    C6 2599   3.738   3.035   7.412
   36CHL1    H6 2600   3.799   2.955   7.367
   36CHL1    C7 2601   3.741   3.056   7.559
   36CHL1   H7A 2602   3.729   2.955   7.604
   36CHL1   H7B 2603   3.840   3.095   7.592
   36CHL1    C8 2604   3.625   3.144   7.619
   36CHL1    H8 2605   3.536   3.077   7.621
   36CHL1   C14 2606   3.658   3.193   7.765
   36CHL1   H14 2607   3.738   3.268   7.750
   36CHL1   C15 2608   3.712   3.099   7.870
   36CHL1  H15A 2609   3.659   3.002   7.874
   36CHL1  H15B 2610   3.819   3.072   7.852
   36CHL1   C16 2611   3.689   3.173   7.998
   36CHL1  H16A 2612   3.631   3.104   8.064
   36CHL1  H16B 2613   3.784   3.200   8.047
   36CHL1   C17 2614   3.604   3.304   7.973
   36CHL1   H17 2615   3.668   3.394   7.960
   36CHL1   C13 2616   3.549   3.276   7.834
   36CHL1   C18 2617   3.426   3.184   7.840
   36CHL1  H18A 2618   3.403   3.125   7.749
   36CHL1  H18B 2619   3.430   3.111   7.924
   36CHL1  H18C 2620   3.341   3.251   7.864
   36CHL1   C12 2621   3.527   3.398   7.746
   36CHL1  H12A 2622   3.447   3.460   7.792
   36CHL1  H12B 2623   3.613   3.468   7.749
   36CHL1   C11 2624   3.486   3.364   7.600
   36CHL1  H11A 2625   3.390   3.308   7.606
   36CHL1  H11B 2626   3.481   3.457   7.540
   36CHL1    C9 2627   3.586   3.266   7.533
   36CHL1    H9 2628   3.687   3.312   7.532
   36CHL1   C10 2629   3.565   3.228   7.388
   36CHL1   C19 2630   3.419   3.165   7.378
   36CHL1  H19A 2631   3.419   3.080   7.450
   36CHL1  H19B 2632   3.339   3.237   7.407
   36CHL1  H19C 2633   3.394   3.128   7.276
   36CHL1    C1 2634   3.583   3.348   7.287
   36CHL1   H1A 2635   3.502   3.423   7.295
   36CHL1   H1B 2636   3.671   3.412   7.307
   36CHL1    C2 2637   3.571   3.312   7.142
   36CHL1   H2A 2638   3.591   3.401   7.080
   36CHL1   H2B 2639   3.471   3.275   7.112
   36CHL1   C20 2640   3.508   3.327   8.089
   36CHL1   H20 2641   3.424   3.255   8.079
   36CHL1   C21 2642   3.454   3.470   8.074
   36CHL1  H21A 2643   3.393   3.472   7.981
   36CHL1  H21B 2644   3.534   3.547   8.076
   36CHL1  H21C 2645   3.386   3.481   8.162
   36CHL1   C22 2646   3.572   3.297   8.231
   36CHL1  H22A 2647   3.567   3.188   8.254
   36CHL1  H22B 2648   3.680   3.320   8.214
   36CHL1   C23 2649   3.533   3.385   8.348
   36CHL1  H23A 2650   3.552   3.493   8.331
   36CHL1  H23B 2651   3.424   3.378   8.366
   36CHL1   C24 2652   3.596   3.347   8.485
   36CHL1  H24A 2653   3.539   3.256   8.516
   36CHL1  H24B 2654   3.697   3.311   8.460
   36CHL1   C25 2655   3.603   3.445   8.602
   36CHL1   H25 2656   3.664   3.531   8.567
   36CHL1   C26 2657   3.466   3.481   8.657
   36CHL1  H26A 2658   3.408   3.394   8.694
   36CHL1  H26B 2659   3.485   3.549   8.742
   36CHL1  H26C 2660   3.404   3.540   8.586
   36CHL1   C27 2661   3.687   3.383   8.712
   36CHL1  H27A 2662   3.792   3.369   8.679
   36CHL1  H27B 2663   3.694   3.453   8.798
   36CHL1  H27C 2664   3.641   3.285   8.736
   37CHL1    C3 2665   0.649   5.340   6.954
   37CHL1    H3 2666   0.757   5.349   6.976
   37CHL1    O3 2667   0.621   5.347   6.823
   37CHL1   H3' 2668   0.528   5.335   6.805
   37CHL1    C4 2669   0.596   5.200   7.014
   37CHL1   H4A 2670   0.495   5.176   6.976
   37CHL1   H4B 2671   0.665   5.119   6.983
   37CHL1    C5 2672   0.603   5.203   7.168
   37CHL1    C6 2673   0.665   5.110   7.235
   37CHL1    H6 2674   0.728   5.032   7.190
   37CHL1    C7 2675   0.657   5.106   7.386
   37CHL1   H7A 2676   0.634   5.003   7.423
   37CHL1   H7B 2677   0.756   5.137   7.425
   37CHL1    C8 2678   0.552   5.194   7.455
   37CHL1    H8 2679   0.451   5.149   7.447
   37CHL1   C14 2680   0.578   5.208   7.602
   37CHL1   H14 2681   0.670   5.270   7.611
   37CHL1   C15 2682   0.610   5.084   7.686
   37CHL1  H15A 2683   0.549   5.004   7.640
   37CHL1  H15B 2684   0.719   5.063   7.679
   37CHL1   C16 2685   0.558   5.118   7.825
   37CHL1  H16A 2686   0.462   5.064   7.842
   37CHL1  H16B 2687   0.623   5.091   7.910
   37CHL1   C17 2688   0.524   5.272   7.831
   37CHL1   H17 2689   0.621   5.325   7.840
   37CHL1   C13 2690   0.483   5.298   7.681
   37CHL1   C18 2691   0.335   5.252   7.665
   37CHL1  H18A 2692   0.309   5.232   7.559
   37CHL1  H18B 2693   0.312   5.161   7.725
   37CHL1  H18C 2694   0.270   5.328   7.714
   37CHL1   C12 2695   0.507   5.435   7.613
   37CHL1  H12A 2696   0.446   5.513   7.663
   37CHL1  H12B 2697   0.616   5.456   7.614
   37CHL1   C11 2698   0.474   5.436   7.461
   37CHL1  H11A 2699   0.365   5.439   7.439
   37CHL1  H11B 2700   0.512   5.536   7.432
   37CHL1    C9 2701   0.556   5.329   7.388
   37CHL1    H9 2702   0.662   5.364   7.390
   37CHL1   C10 2703   0.531   5.312   7.237
   37CHL1   C19 2704   0.384   5.307   7.212
   37CHL1  H19A 2705   0.356   5.307   7.104
   37CHL1  H19B 2706   0.345   5.212   7.252
   37CHL1  H19C 2707   0.327   5.395   7.251
   37CHL1    C1 2708   0.579   5.440   7.169
   37CHL1   H1A 2709   0.502   5.513   7.201
   37CHL1   H1B 2710   0.681   5.475   7.199
   37CHL1    C2 2711   0.571   5.451   7.023
   37CHL1   H2A 2712   0.616   5.549   6.995
   37CHL1   H2B 2713   0.471   5.448   6.975
   37CHL1   C20 2714   0.429   5.314   7.944
   37CHL1   H20 2715   0.327   5.273   7.930
   37CHL1   C21 2716   0.421   5.470   7.969
   37CHL1  H21A 2717   0.366   5.527   7.890
   37CHL1  H21B 2718   0.528   5.500   7.958
   37CHL1  H21C 2719   0.377   5.496   8.067
   37CHL1   C22 2720   0.477   5.244   8.076
   37CHL1  H22A 2721   0.405   5.280   8.152
   37CHL1  H22B 2722   0.459   5.135   8.062
   37CHL1   C23 2723   0.623   5.273   8.122
   37CHL1  H23A 2724   0.685   5.200   8.067
   37CHL1  H23B 2725   0.647   5.375   8.086
   37CHL1   C24 2726   0.649   5.263   8.271
   37CHL1  H24A 2727   0.758   5.280   8.287
   37CHL1  H24B 2728   0.586   5.342   8.316
   37CHL1   C25 2729   0.620   5.125   8.332
   37CHL1   H25 2730   0.510   5.118   8.345
   37CHL1   C26 2731   0.687   5.009   8.252
   37CHL1  H26A 2732   0.651   4.911   8.291
   37CHL1  H26B 2733   0.648   5.008   8.148
   37CHL1  H26C 2734   0.797   5.001   8.263
   37CHL1   C27 2735   0.662   5.119   8.481
   37CHL1  H27A 2736   0.611   5.203   8.534
   37CHL1  H27B 2737   0.638   5.021   8.526
   37CHL1  H27C 2738   0.771   5.138   8.478
   38CHL1    C3 2739   3.633   6.482   6.663
   38CHL1    H3 2740   3.720   6.550   6.681
   38CHL1    O3 2741   3.589   6.493   6.522
   38CHL1   H3' 2742   3.512   6.436   6.520
   38CHL1    C4 2743   3.691   6.343   6.702
   38CHL1   H4A 2744   3.625   6.259   6.671
   38CHL1   H4B 2745   3.776   6.322   6.633
   38CHL1    C5 2746   3.722   6.325   6.851
   38CHL1    C6 2747   3.844   6.284   6.897
   38CHL1    H6 2748   3.923   6.256   6.826
   38CHL1    C7 2749   3.884   6.258   7.044
   38CHL1   H7A 2750   3.941   6.163   7.052
   38CHL1   H7B 2751   3.952   6.338   7.080
   38CHL1    C8 2752   3.758   6.250   7.125
   38CHL1    H8 2753   3.706   6.155   7.103
   38CHL1   C14 2754   3.794   6.258   7.271
   38CHL1   H14 2755   3.842   6.358   7.282
   38CHL1   C15 2756   3.897   6.160   7.328
   38CHL1  H15A 2757   3.865   6.062   7.288
   38CHL1  H15B 2758   3.999   6.199   7.304
   38CHL1   C16 2759   3.877   6.159   7.483
   38CHL1  H16A 2760   3.843   6.057   7.512
   38CHL1  H16B 2761   3.967   6.188   7.542
   38CHL1   C17 2762   3.759   6.255   7.504
   38CHL1   H17 2763   3.814   6.351   7.514
   38CHL1   C13 2764   3.685   6.262   7.369
   38CHL1   C18 2765   3.596   6.135   7.359
   38CHL1  H18A 2766   3.626   6.036   7.400
   38CHL1  H18B 2767   3.498   6.160   7.404
   38CHL1  H18C 2768   3.562   6.116   7.255
   38CHL1   C12 2769   3.602   6.394   7.345
   38CHL1  H12A 2770   3.515   6.394   7.414
   38CHL1  H12B 2771   3.671   6.481   7.350
   38CHL1   C11 2772   3.544   6.397   7.204
   38CHL1  H11A 2773   3.465   6.319   7.201
   38CHL1  H11B 2774   3.503   6.500   7.191
   38CHL1    C9 2775   3.658   6.362   7.099
   38CHL1    H9 2776   3.716   6.456   7.111
   38CHL1   C10 2777   3.605   6.366   6.946
   38CHL1   C19 2778   3.488   6.262   6.917
   38CHL1  H19A 2779   3.428   6.290   6.828
   38CHL1  H19B 2780   3.523   6.158   6.899
   38CHL1  H19C 2781   3.420   6.254   7.004
   38CHL1    C1 2782   3.553   6.506   6.914
   38CHL1   H1A 2783   3.460   6.528   6.971
   38CHL1   H1B 2784   3.638   6.575   6.931
   38CHL1    C2 2785   3.512   6.523   6.757
   38CHL1   H2A 2786   3.484   6.631   6.750
   38CHL1   H2B 2787   3.423   6.465   6.724
   38CHL1   C20 2788   3.674   6.246   7.636
   38CHL1   H20 2789   3.578   6.195   7.612
   38CHL1   C21 2790   3.638   6.384   7.696
   38CHL1  H21A 2791   3.595   6.459   7.626
   38CHL1  H21B 2792   3.727   6.426   7.748
   38CHL1  H21C 2793   3.556   6.369   7.770
   38CHL1   C22 2794   3.734   6.143   7.736
   38CHL1  H22A 2795   3.736   6.037   7.701
   38CHL1  H22B 2796   3.841   6.166   7.757
   38CHL1   C23 2797   3.669   6.136   7.881
   38CHL1  H23A 2798   3.712   6.226   7.929
   38CHL1  H23B 2799   3.558   6.145   7.882
   38CHL1   C24 2800   3.695   6.006   7.955
   38CHL1  H24A 2801   3.630   5.923   7.922
   38CHL1  H24B 2802   3.797   5.974   7.926
   38CHL1   C25 2803   3.711   6.020   8.110
   38CHL1   H25 2804   3.743   5.923   8.155
   38CHL1   C26 2805   3.819   6.126   8.150
   38CHL1  H26A 2806   3.871   6.112   8.247
   38CHL1  H26B 2807   3.902   6.129   8.077
   38CHL1  H26C 2808   3.772   6.226   8.161
   38CHL1   C27 2809   3.574   6.050   8.169
   38CHL1  H27A 2810   3.569   6.057   8.280
   38CHL1  H27B 2811   3.546   6.152   8.134
   38CHL1  H27C 2812   3.492   5.982   8.136
   39CHL1    C3 2813   3.055   5.446   6.879
   39CHL1    H3 2814   2.946   5.425   6.888
   39CHL1    O3 2815   3.082   5.493   6.748
   39CHL1   H3' 2816   3.042   5.580   6.758
   39CHL1    C4 2817   3.082   5.554   6.989
   39CHL1   H4A 2818   3.186   5.587   6.968
   39CHL1   H4B 2819   3.026   5.647   6.963
   39CHL1    C5 2820   3.077   5.518   7.133
   39CHL1    C6 2821   3.005   5.579   7.227
   39CHL1    H6 2822   2.955   5.676   7.212
   39CHL1    C7 2823   2.994   5.536   7.375
   39CHL1   H7A 2824   3.012   5.617   7.449
   39CHL1   H7B 2825   2.901   5.488   7.410
   39CHL1    C8 2826   3.102   5.431   7.410
   39CHL1    H8 2827   3.200   5.482   7.418
   39CHL1   C14 2828   3.080   5.362   7.548
   39CHL1   H14 2829   2.988   5.300   7.542
   39CHL1   C15 2830   3.044   5.452   7.670
   39CHL1  H15A 2831   3.105   5.544   7.662
   39CHL1  H15B 2832   2.936   5.478   7.667
   39CHL1   C16 2833   3.079   5.359   7.791
   39CHL1  H16A 2834   3.158   5.410   7.850
   39CHL1  H16B 2835   2.990   5.335   7.852
   39CHL1   C17 2836   3.138   5.227   7.732
   39CHL1   H17 2837   3.049   5.166   7.706
   39CHL1   C13 2838   3.198   5.263   7.587
   39CHL1   C18 2839   3.342   5.329   7.604
   39CHL1  H18A 2840   3.417   5.251   7.624
   39CHL1  H18B 2841   3.372   5.384   7.512
   39CHL1  H18C 2842   3.330   5.399   7.690
   39CHL1   C12 2843   3.204   5.153   7.480
   39CHL1  H12A 2844   3.260   5.060   7.502
   39CHL1  H12B 2845   3.101   5.115   7.500
   39CHL1   C11 2846   3.227   5.213   7.336
   39CHL1  H11A 2847   3.333   5.245   7.324
   39CHL1  H11B 2848   3.211   5.126   7.268
   39CHL1    C9 2849   3.126   5.327   7.296
   39CHL1    H9 2850   3.027   5.278   7.287
   39CHL1   C10 2851   3.149   5.378   7.157
   39CHL1   C19 2852   3.300   5.407   7.131
   39CHL1  H19A 2853   3.352   5.455   7.217
   39CHL1  H19B 2854   3.344   5.307   7.111
   39CHL1  H19C 2855   3.324   5.454   7.034
   39CHL1    C1 2856   3.111   5.270   7.051
   39CHL1   H1A 2857   3.176   5.182   7.066
   39CHL1   H1B 2858   3.009   5.235   7.077
   39CHL1    C2 2859   3.113   5.309   6.901
   39CHL1   H2A 2860   3.067   5.231   6.837
   39CHL1   H2B 2861   3.221   5.318   6.877
   39CHL1   C20 2862   3.220   5.143   7.831
   39CHL1   H20 2863   3.309   5.202   7.863
   39CHL1   C21 2864   3.290   5.018   7.774
   39CHL1  H21A 2865   3.215   4.969   7.708
   39CHL1  H21B 2866   3.317   4.942   7.851
   39CHL1  H21C 2867   3.375   5.046   7.710
   39CHL1   C22 2868   3.146   5.099   7.956
   39CHL1  H22A 2869   3.084   5.185   7.991
   39CHL1  H22B 2870   3.093   5.003   7.941
   39CHL1   C23 2871   3.238   5.081   8.083
   39CHL1  H23A 2872   3.301   4.990   8.081
   39CHL1  H23B 2873   3.295   5.174   8.101
   39CHL1   C24 2874   3.157   5.070   8.215
   39CHL1  H24A 2875   3.121   5.175   8.225
   39CHL1  H24B 2876   3.077   4.996   8.193
   39CHL1   C25 2877   3.237   5.013   8.337
   39CHL1   H25 2878   3.274   4.917   8.295
   39CHL1   C26 2879   3.351   5.110   8.374
   39CHL1  H26A 2880   3.408   5.077   8.463
   39CHL1  H26B 2881   3.425   5.110   8.291
   39CHL1  H26C 2882   3.318   5.213   8.398
   39CHL1   C27 2883   3.141   4.995   8.457
   39CHL1  H27A 2884   3.057   4.942   8.408
   39CHL1  H27B 2885   3.185   4.949   8.548
   39CHL1  H27C 2886   3.095   5.090   8.492
   40CHL1    C3 2887   6.031   4.424   6.964
   40CHL1    H3 2888   5.933   4.473   6.984
   40CHL1    O3 2889   6.062   4.458   6.829
   40CHL1   H3' 2890   6.157   4.474   6.830
   40CHL1    C4 2891   6.138   4.481   7.053
   40CHL1   H4A 2892   6.228   4.423   7.023
   40CHL1   H4B 2893   6.168   4.587   7.034
   40CHL1    C5 2894   6.101   4.451   7.198
   40CHL1    C6 2895   6.068   4.543   7.289
   40CHL1    H6 2896   6.078   4.650   7.268
   40CHL1    C7 2897   6.017   4.511   7.425
   40CHL1   H7A 2898   6.063   4.589   7.489
   40CHL1   H7B 2899   5.907   4.521   7.412
   40CHL1    C8 2900   6.055   4.368   7.479
   40CHL1    H8 2901   6.166   4.368   7.486
   40CHL1   C14 2902   5.997   4.337   7.611
   40CHL1   H14 2903   5.894   4.377   7.607
   40CHL1   C15 2904   6.056   4.429   7.720
   40CHL1  H15A 2905   6.167   4.419   7.725
   40CHL1  H15B 2906   6.023   4.534   7.712
   40CHL1   C16 2907   5.997   4.360   7.848
   40CHL1  H16A 2908   6.075   4.333   7.922
   40CHL1  H16B 2909   5.924   4.435   7.886
   40CHL1   C17 2910   5.933   4.224   7.803
   40CHL1   H17 2911   5.829   4.261   7.789
   40CHL1   C13 2912   5.993   4.200   7.662
   40CHL1   C18 2913   6.138   4.143   7.687
   40CHL1  H18A 2914   6.133   4.036   7.718
   40CHL1  H18B 2915   6.199   4.133   7.595
   40CHL1  H18C 2916   6.192   4.205   7.761
   40CHL1   C12 2917   5.926   4.109   7.554
   40CHL1  H12A 2918   5.949   4.004   7.582
   40CHL1  H12B 2919   5.816   4.121   7.544
   40CHL1   C11 2920   6.001   4.127   7.417
   40CHL1  H11A 2921   6.105   4.091   7.432
   40CHL1  H11B 2922   5.956   4.056   7.345
   40CHL1    C9 2923   6.004   4.273   7.370
   40CHL1    H9 2924   5.893   4.285   7.362
   40CHL1   C10 2925   6.080   4.299   7.231
   40CHL1   C19 2926   6.224   4.236   7.243
   40CHL1  H19A 2927   6.282   4.261   7.151
   40CHL1  H19B 2928   6.290   4.284   7.318
   40CHL1  H19C 2929   6.230   4.125   7.250
   40CHL1    C1 2930   6.001   4.227   7.118
   40CHL1   H1A 2931   6.017   4.117   7.112
   40CHL1   H1B 2932   5.894   4.244   7.144
   40CHL1    C2 2933   6.028   4.276   6.976
   40CHL1   H2A 2934   5.968   4.230   6.895
   40CHL1   H2B 2935   6.130   4.236   6.957
   40CHL1   C20 2936   5.937   4.118   7.915
   40CHL1   H20 2937   6.041   4.100   7.950
   40CHL1   C21 2938   5.873   3.994   7.860
   40CHL1  H21A 2939   5.938   3.956   7.778
   40CHL1  H21B 2940   5.768   4.000   7.827
   40CHL1  H21C 2941   5.892   3.917   7.939
   40CHL1   C22 2942   5.868   4.164   8.042
   40CHL1  H22A 2943   5.928   4.252   8.075
   40CHL1  H22B 2944   5.768   4.197   8.007
   40CHL1   C23 2945   5.873   4.075   8.162
   40CHL1  H23A 2946   5.834   3.972   8.142
   40CHL1  H23B 2947   5.980   4.059   8.188
   40CHL1   C24 2948   5.777   4.119   8.275
   40CHL1  H24A 2949   5.792   4.228   8.291
   40CHL1  H24B 2950   5.677   4.084   8.241
   40CHL1   C25 2951   5.810   4.065   8.415
   40CHL1   H25 2952   5.907   4.097   8.458
   40CHL1   C26 2953   5.701   4.101   8.515
   40CHL1  H26A 2954   5.683   4.211   8.517
   40CHL1  H26B 2955   5.609   4.055   8.474
   40CHL1  H26C 2956   5.715   4.062   8.618
   40CHL1   C27 2957   5.837   3.912   8.415
   40CHL1  H27A 2958   5.928   3.883   8.359
   40CHL1  H27B 2959   5.861   3.878   8.517
   40CHL1  H27C 2960   5.752   3.858   8.367
   41CHL1    C3 2961   0.144   4.408   6.995
   41CHL1    H3 2962   0.232   4.374   7.055
   41CHL1    O3 2963   0.154   4.398   6.859
   41CHL1   H3' 2964   0.197   4.313   6.853
   41CHL1    C4 2965   0.050   4.285   7.029
   41CHL1   H4A 2966  -0.045   4.300   6.974
   41CHL1   H4B 2967   0.098   4.196   6.984
   41CHL1    C5 2968   0.027   4.279   7.179
   41CHL1    C6 2969   0.063   4.173   7.250
   41CHL1    H6 2970   0.100   4.085   7.197
   41CHL1    C7 2971   0.034   4.156   7.393
   41CHL1   H7A 2972  -0.003   4.051   7.402
   41CHL1   H7B 2973   0.123   4.174   7.456
   41CHL1    C8 2974  -0.078   4.251   7.442
   41CHL1    H8 2975  -0.174   4.215   7.400
   41CHL1   C14 2976  -0.079   4.250   7.598
   41CHL1   H14 2977   0.025   4.284   7.621
   41CHL1   C15 2978  -0.094   4.117   7.677
   41CHL1  H15A 2979  -0.178   4.057   7.637
   41CHL1  H15B 2980  -0.001   4.056   7.682
   41CHL1   C16 2981  -0.139   4.172   7.816
   41CHL1  H16A 2982  -0.240   4.136   7.846
   41CHL1  H16B 2983  -0.059   4.157   7.892
   41CHL1   C17 2984  -0.153   4.324   7.803
   41CHL1   H17 2985  -0.057   4.376   7.825
   41CHL1   C13 2986  -0.178   4.351   7.660
   41CHL1   C18 2987  -0.316   4.303   7.614
   41CHL1  H18A 2988  -0.314   4.253   7.515
   41CHL1  H18B 2989  -0.359   4.227   7.684
   41CHL1  H18C 2990  -0.386   4.388   7.606
   41CHL1   C12 2991  -0.153   4.495   7.605
   41CHL1  H12A 2992  -0.234   4.563   7.636
   41CHL1  H12B 2993  -0.055   4.539   7.633
   41CHL1   C11 2994  -0.156   4.500   7.450
   41CHL1  H11A 2995  -0.259   4.477   7.417
   41CHL1  H11B 2996  -0.125   4.603   7.421
   41CHL1    C9 2997  -0.053   4.396   7.391
   41CHL1    H9 2998   0.044   4.427   7.434
   41CHL1   C10 2999  -0.039   4.404   7.234
   41CHL1   C19 3000  -0.186   4.417   7.177
   41CHL1  H19A 3001  -0.190   4.433   7.067
   41CHL1  H19B 3002  -0.246   4.325   7.196
   41CHL1  H19C 3003  -0.230   4.509   7.221
   41CHL1    C1 3004   0.053   4.527   7.196
   41CHL1   H1A 3005  -0.007   4.618   7.219
   41CHL1   H1B 3006   0.154   4.521   7.242
   41CHL1    C2 3007   0.082   4.530   7.041
   41CHL1   H2A 3008   0.146   4.616   7.012
   41CHL1   H2B 3009  -0.016   4.544   6.991
   41CHL1   C20 3010  -0.254   4.379   7.909
   41CHL1   H20 3011  -0.357   4.343   7.888
   41CHL1   C21 3012  -0.261   4.531   7.921
   41CHL1  H21A 3013  -0.169   4.580   7.961
   41CHL1  H21B 3014  -0.335   4.548   8.003
   41CHL1  H21C 3015  -0.302   4.578   7.829
   41CHL1   C22 3016  -0.213   4.330   8.055
   41CHL1  H22A 3017  -0.124   4.265   8.062
   41CHL1  H22B 3018  -0.193   4.419   8.118
   41CHL1   C23 3019  -0.325   4.250   8.128
   41CHL1  H23A 3020  -0.371   4.188   8.048
   41CHL1  H23B 3021  -0.287   4.177   8.202
   41CHL1   C24 3022  -0.435   4.334   8.195
   41CHL1  H24A 3023  -0.398   4.385   8.287
   41CHL1  H24B 3024  -0.458   4.414   8.122
   41CHL1   C25 3025  -0.551   4.250   8.249
   41CHL1   H25 3026  -0.584   4.184   8.167
   41CHL1   C26 3027  -0.509   4.154   8.366
   41CHL1  H26A 3028  -0.453   4.068   8.323
   41CHL1  H26B 3029  -0.442   4.207   8.437
   41CHL1  H26C 3030  -0.601   4.112   8.413
   41CHL1   C27 3031  -0.669   4.343   8.292
   41CHL1  H27A 3032  -0.649   4.385   8.393
   41CHL1  H27B 3033  -0.669   4.434   8.228
   41CHL1  H27C 3034  -0.771   4.298   8.296
   42CHL1    C3 3035   1.306   1.814   6.984
   42CHL1    H3 3036   1.411   1.798   7.016
   42CHL1    O3 3037   1.320   1.886   6.864
   42CHL1   H3' 3038   1.319   1.979   6.886
   42CHL1    C4 3039   1.227   1.683   6.957
   42CHL1   H4A 3040   1.125   1.710   6.924
   42CHL1   H4B 3041   1.267   1.630   6.868
   42CHL1    C5 3042   1.223   1.604   7.080
   42CHL1    C6 3043   1.269   1.471   7.091
   42CHL1    H6 3044   1.302   1.426   6.996
   42CHL1    C7 3045   1.245   1.385   7.204
   42CHL1   H7A 3046   1.204   1.285   7.176
   42CHL1   H7B 3047   1.343   1.364   7.252
   42CHL1    C8 3048   1.146   1.435   7.309
   42CHL1    H8 3049   1.046   1.411   7.268
   42CHL1   C14 3050   1.158   1.356   7.446
   42CHL1   H14 3051   1.258   1.370   7.491
   42CHL1   C15 3052   1.126   1.202   7.444
   42CHL1  H15A 3053   1.028   1.182   7.395
   42CHL1  H15B 3054   1.216   1.146   7.411
   42CHL1   C16 3055   1.098   1.172   7.591
   42CHL1  H16A 3056   0.999   1.122   7.601
   42CHL1  H16B 3057   1.182   1.117   7.640
   42CHL1   C17 3058   1.089   1.306   7.670
   42CHL1   H17 3059   1.196   1.329   7.691
   42CHL1   C13 3060   1.064   1.410   7.556
   42CHL1   C18 3061   0.913   1.399   7.520
   42CHL1  H18A 3062   0.885   1.472   7.441
   42CHL1  H18B 3063   0.889   1.298   7.481
   42CHL1  H18C 3064   0.844   1.421   7.604
   42CHL1   C12 3065   1.108   1.554   7.587
   42CHL1  H12A 3066   1.055   1.602   7.672
   42CHL1  H12B 3067   1.216   1.562   7.611
   42CHL1   C11 3068   1.094   1.635   7.455
   42CHL1  H11A 3069   0.984   1.641   7.441
   42CHL1  H11B 3070   1.128   1.738   7.479
   42CHL1    C9 3071   1.167   1.582   7.333
   42CHL1    H9 3072   1.274   1.593   7.361
   42CHL1   C10 3073   1.158   1.672   7.202
   42CHL1   C19 3074   1.003   1.691   7.179
   42CHL1  H19A 3075   0.984   1.752   7.089
   42CHL1  H19B 3076   0.947   1.595   7.172
   42CHL1  H19C 3077   0.954   1.749   7.260
   42CHL1    C1 3078   1.229   1.812   7.223
   42CHL1   H1A 3079   1.183   1.872   7.304
   42CHL1   H1B 3080   1.330   1.780   7.257
   42CHL1    C2 3081   1.237   1.901   7.095
   42CHL1   H2A 3082   1.296   1.994   7.109
   42CHL1   H2B 3083   1.136   1.933   7.061
   42CHL1   C20 3084   1.008   1.291   7.790
   42CHL1   H20 3085   0.906   1.260   7.758
   42CHL1   C21 3086   0.992   1.421   7.871
   42CHL1  H21A 3087   0.947   1.407   7.971
   42CHL1  H21B 3088   0.929   1.493   7.814
   42CHL1  H21C 3089   1.091   1.466   7.895
   42CHL1   C22 3090   1.062   1.169   7.885
   42CHL1  H22A 3091   1.051   1.074   7.829
   42CHL1  H22B 3092   1.171   1.177   7.908
   42CHL1   C23 3093   0.982   1.146   8.012
   42CHL1  H23A 3094   1.025   1.217   8.086
   42CHL1  H23B 3095   0.877   1.177   7.995
   42CHL1   C24 3096   0.989   0.999   8.068
   42CHL1  H24A 3097   0.941   0.933   7.993
   42CHL1  H24B 3098   1.098   0.980   8.068
   42CHL1   C25 3099   0.933   0.966   8.208
   42CHL1   H25 3100   0.823   0.985   8.211
   42CHL1   C26 3101   0.945   0.819   8.246
   42CHL1  H26A 3102   0.906   0.755   8.164
   42CHL1  H26B 3103   1.054   0.802   8.259
   42CHL1  H26C 3104   0.884   0.793   8.335
   42CHL1   C27 3105   1.007   1.057   8.309
   42CHL1  H27A 3106   0.990   1.029   8.415
   42CHL1  H27B 3107   0.991   1.167   8.304
   42CHL1  H27C 3108   1.117   1.042   8.304
   43CHL1    C3 3109   1.071   5.652   6.906
   43CHL1    H3 3110   0.988   5.723   6.925
   43CHL1    O3 3111   1.125   5.664   6.770
   43CHL1   H3' 3112   1.197   5.601   6.773
   43CHL1    C4 3113   1.198   5.674   6.997
   43CHL1   H4A 3114   1.279   5.608   6.961
   43CHL1   H4B 3115   1.235   5.777   6.979
   43CHL1    C5 3116   1.174   5.639   7.142
   43CHL1    C6 3117   1.202   5.730   7.239
   43CHL1    H6 3118   1.268   5.809   7.202
   43CHL1    C7 3119   1.175   5.703   7.388
   43CHL1   H7A 3120   1.255   5.730   7.460
   43CHL1   H7B 3121   1.094   5.769   7.425
   43CHL1    C8 3122   1.151   5.551   7.412
   43CHL1    H8 3123   1.251   5.503   7.418
   43CHL1   C14 3124   1.087   5.543   7.556
   43CHL1   H14 3125   0.993   5.602   7.548
   43CHL1   C15 3126   1.163   5.615   7.669
   43CHL1  H15A 3127   1.270   5.588   7.669
   43CHL1  H15B 3128   1.162   5.726   7.660
   43CHL1   C16 3129   1.089   5.572   7.798
   43CHL1  H16A 3130   1.169   5.551   7.872
   43CHL1  H16B 3131   1.026   5.653   7.840
   43CHL1   C17 3132   1.010   5.441   7.758
   43CHL1   H17 3133   0.903   5.467   7.756
   43CHL1   C13 3134   1.057   5.407   7.612
   43CHL1   C18 3135   1.185   5.323   7.614
   43CHL1  H18A 3136   1.268   5.388   7.648
   43CHL1  H18B 3137   1.165   5.235   7.679
   43CHL1  H18C 3138   1.207   5.277   7.515
   43CHL1   C12 3139   0.950   5.349   7.512
   43CHL1  H12A 3140   0.913   5.253   7.553
   43CHL1  H12B 3141   0.861   5.416   7.508
   43CHL1   C11 3142   1.002   5.349   7.364
   43CHL1  H11A 3143   1.083   5.275   7.352
   43CHL1  H11B 3144   0.927   5.307   7.294
   43CHL1    C9 3145   1.060   5.488   7.314
   43CHL1    H9 3146   0.967   5.549   7.310
   43CHL1   C10 3147   1.110   5.504   7.165
   43CHL1   C19 3148   1.224   5.395   7.137
   43CHL1  H19A 3149   1.158   5.307   7.148
   43CHL1  H19B 3150   1.276   5.400   7.038
   43CHL1  H19C 3151   1.298   5.392   7.220
   43CHL1    C1 3152   0.996   5.482   7.072
   43CHL1   H1A 3153   0.969   5.375   7.082
   43CHL1   H1B 3154   0.913   5.551   7.097
   43CHL1    C2 3155   1.016   5.509   6.922
   43CHL1   H2A 3156   0.923   5.498   6.863
   43CHL1   H2B 3157   1.090   5.436   6.880
   43CHL1   C20 3158   1.036   5.342   7.875
   43CHL1   H20 3159   1.145   5.326   7.879
   43CHL1   C21 3160   0.957   5.202   7.865
   43CHL1  H21A 3161   1.016   5.125   7.921
   43CHL1  H21B 3162   0.938   5.167   7.762
   43CHL1  H21C 3163   0.858   5.215   7.913
   43CHL1   C22 3164   0.970   5.409   8.003
   43CHL1  H22A 3165   1.026   5.501   8.032
   43CHL1  H22B 3166   0.870   5.451   7.976
   43CHL1   C23 3167   0.979   5.323   8.129
   43CHL1  H23A 3168   0.934   5.389   8.206
   43CHL1  H23B 3169   0.917   5.231   8.121
   43CHL1   C24 3170   1.116   5.267   8.166
   43CHL1  H24A 3171   1.148   5.194   8.088
   43CHL1  H24B 3172   1.190   5.350   8.167
   43CHL1   C25 3173   1.123   5.192   8.306
   43CHL1   H25 3174   1.050   5.109   8.294
   43CHL1   C26 3175   1.268   5.137   8.325
   43CHL1  H26A 3176   1.302   5.075   8.239
   43CHL1  H26B 3177   1.334   5.226   8.335
   43CHL1  H26C 3178   1.279   5.085   8.423
   43CHL1   C27 3179   1.097   5.286   8.422
   43CHL1  H27A 3180   1.000   5.340   8.425
   43CHL1  H27B 3181   1.116   5.222   8.511
   43CHL1  H27C 3182   1.183   5.351   8.447
   44CHL1    C3 3183   1.171   4.325   6.609
   44CHL1    H3 3184   1.093   4.403   6.596
   44CHL1    O3 3185   1.218   4.297   6.479
   44CHL1   H3' 3186   1.215   4.379   6.430
   44CHL1    C4 3187   1.293   4.379   6.687
   44CHL1   H4A 3188   1.378   4.312   6.663
   44CHL1   H4B 3189   1.329   4.477   6.648
   44CHL1    C5 3190   1.260   4.399   6.837
   44CHL1    C6 3191   1.292   4.508   6.905
   44CHL1    H6 3192   1.323   4.593   6.843
   44CHL1    C7 3193   1.272   4.532   7.054
   44CHL1   H7A 3194   1.353   4.581   7.110
   44CHL1   H7B 3195   1.182   4.597   7.059
   44CHL1    C8 3196   1.235   4.403   7.128
   44CHL1    H8 3197   1.337   4.359   7.132
   44CHL1   C14 3198   1.192   4.434   7.279
   44CHL1   H14 3199   1.093   4.483   7.271
   44CHL1   C15 3200   1.254   4.536   7.364
   44CHL1  H15A 3201   1.364   4.532   7.347
   44CHL1  H15B 3202   1.227   4.641   7.339
   44CHL1   C16 3203   1.230   4.486   7.507
   44CHL1  H16A 3204   1.330   4.449   7.538
   44CHL1  H16B 3205   1.192   4.550   7.589
   44CHL1   C17 3206   1.133   4.365   7.494
   44CHL1   H17 3207   1.034   4.413   7.478
   44CHL1   C13 3208   1.164   4.305   7.357
   44CHL1   C18 3209   1.305   4.235   7.364
   44CHL1  H18A 3210   1.334   4.187   7.268
   44CHL1  H18B 3211   1.381   4.313   7.384
   44CHL1  H18C 3212   1.318   4.152   7.437
   44CHL1   C12 3213   1.050   4.224   7.282
   44CHL1  H12A 3214   1.033   4.130   7.339
   44CHL1  H12B 3215   0.952   4.275   7.270
   44CHL1   C11 3216   1.095   4.190   7.136
   44CHL1  H11A 3217   1.181   4.120   7.136
   44CHL1  H11B 3218   1.020   4.128   7.083
   44CHL1    C9 3219   1.141   4.311   7.050
   44CHL1    H9 3220   1.043   4.362   7.039
   44CHL1   C10 3221   1.193   4.278   6.908
   44CHL1   C19 3222   1.306   4.174   6.908
   44CHL1  H19A 3223   1.257   4.088   6.957
   44CHL1  H19B 3224   1.344   4.148   6.807
   44CHL1  H19C 3225   1.392   4.206   6.971
   44CHL1    C1 3226   1.079   4.232   6.821
   44CHL1   H1A 3227   1.046   4.137   6.866
   44CHL1   H1B 3228   0.994   4.303   6.833
   44CHL1    C2 3229   1.107   4.206   6.671
   44CHL1   H2A 3230   1.014   4.173   6.620
   44CHL1   H2B 3231   1.165   4.112   6.671
   44CHL1   C20 3232   1.110   4.262   7.611
   44CHL1   H20 3233   1.177   4.174   7.601
   44CHL1   C21 3234   0.963   4.215   7.613
   44CHL1  H21A 3235   0.896   4.296   7.650
   44CHL1  H21B 3236   0.947   4.137   7.690
   44CHL1  H21C 3237   0.931   4.177   7.513
   44CHL1   C22 3238   1.154   4.321   7.748
   44CHL1  H22A 3239   1.265   4.328   7.750
   44CHL1  H22B 3240   1.102   4.417   7.769
   44CHL1   C23 3241   1.134   4.227   7.866
   44CHL1  H23A 3242   1.025   4.222   7.887
   44CHL1  H23B 3243   1.164   4.125   7.833
   44CHL1   C24 3244   1.202   4.264   7.994
   44CHL1  H24A 3245   1.312   4.266   7.977
   44CHL1  H24B 3246   1.183   4.370   8.021
   44CHL1   C25 3247   1.189   4.164   8.112
   44CHL1   H25 3248   1.182   4.063   8.067
   44CHL1   C26 3249   1.308   4.174   8.217
   44CHL1  H26A 3250   1.336   4.277   8.245
   44CHL1  H26B 3251   1.283   4.102   8.298
   44CHL1  H26C 3252   1.392   4.115   8.173
   44CHL1   C27 3253   1.055   4.171   8.180
   44CHL1  H27A 3254   1.017   4.273   8.203
   44CHL1  H27B 3255   0.977   4.129   8.112
   44CHL1  H27C 3256   1.049   4.114   8.275
   45CHL1    C3 3257   2.105   2.615   6.686
   45CHL1    H3 3258   2.028   2.690   6.715
   45CHL1    O3 3259   2.123   2.634   6.545
   45CHL1   H3' 3260   2.207   2.677   6.529
   45CHL1    C4 3261   2.230   2.646   6.777
   45CHL1   H4A 3262   2.321   2.593   6.741
   45CHL1   H4B 3263   2.253   2.752   6.756
   45CHL1    C5 3264   2.191   2.622   6.921
   45CHL1    C6 3265   2.208   2.717   7.010
   45CHL1    H6 3266   2.244   2.815   6.978
   45CHL1    C7 3267   2.189   2.704   7.155
   45CHL1   H7A 3268   2.263   2.765   7.211
   45CHL1   H7B 3269   2.087   2.740   7.181
   45CHL1    C8 3270   2.179   2.554   7.200
   45CHL1    H8 3271   2.280   2.510   7.198
   45CHL1   C14 3272   2.122   2.541   7.343
   45CHL1   H14 3273   2.017   2.576   7.343
   45CHL1   C15 3274   2.182   2.642   7.446
   45CHL1  H15A 3275   2.292   2.643   7.432
   45CHL1  H15B 3276   2.139   2.741   7.423
   45CHL1   C16 3277   2.139   2.577   7.571
   45CHL1  H16A 3278   2.224   2.572   7.642
   45CHL1  H16B 3279   2.064   2.638   7.625
   45CHL1   C17 3280   2.080   2.434   7.537
   45CHL1   H17 3281   1.974   2.467   7.529
   45CHL1   C13 3282   2.124   2.403   7.402
   45CHL1   C18 3283   2.267   2.340   7.393
   45CHL1  H18A 3284   2.289   2.256   7.463
   45CHL1  H18B 3285   2.303   2.300   7.295
   45CHL1  H18C 3286   2.341   2.422   7.403
   45CHL1   C12 3287   2.031   2.316   7.312
   45CHL1  H12A 3288   2.019   2.213   7.351
   45CHL1  H12B 3289   1.927   2.356   7.318
   45CHL1   C11 3290   2.072   2.312   7.157
   45CHL1  H11A 3291   2.163   2.251   7.138
   45CHL1  H11B 3292   1.997   2.263   7.092
   45CHL1    C9 3293   2.088   2.465   7.112
   45CHL1    H9 3294   1.989   2.515   7.118
   45CHL1   C10 3295   2.140   2.482   6.969
   45CHL1   C19 3296   2.247   2.375   6.934
   45CHL1  H19A 3297   2.210   2.271   6.921
   45CHL1  H19B 3298   2.277   2.393   6.829
   45CHL1  H19C 3299   2.322   2.375   7.016
   45CHL1    C1 3300   2.024   2.449   6.870
   45CHL1   H1A 3301   1.989   2.344   6.883
   45CHL1   H1B 3302   1.945   2.520   6.904
   45CHL1    C2 3303   2.050   2.475   6.717
   45CHL1   H2A 3304   1.962   2.461   6.652
   45CHL1   H2B 3305   2.117   2.399   6.670
   45CHL1   C20 3306   2.091   2.332   7.650
   45CHL1   H20 3307   2.197   2.299   7.657
   45CHL1   C21 3308   1.994   2.216   7.626
   45CHL1  H21A 3309   2.015   2.160   7.532
   45CHL1  H21B 3310   1.885   2.238   7.632
   45CHL1  H21C 3311   2.010   2.146   7.711
   45CHL1   C22 3312   2.076   2.380   7.798
   45CHL1  H22A 3313   2.120   2.299   7.860
   45CHL1  H22B 3314   2.130   2.475   7.814
   45CHL1   C23 3315   1.941   2.423   7.835
   45CHL1  H23A 3316   1.910   2.499   7.759
   45CHL1  H23B 3317   1.872   2.336   7.830
   45CHL1   C24 3318   1.927   2.497   7.970
   45CHL1  H24A 3319   1.988   2.455   8.053
   45CHL1  H24B 3320   1.979   2.593   7.951
   45CHL1   C25 3321   1.782   2.504   8.029
   45CHL1   H25 3322   1.723   2.563   7.955
   45CHL1   C26 3323   1.699   2.373   8.041
   45CHL1  H26A 3324   1.701   2.327   7.940
   45CHL1  H26B 3325   1.751   2.305   8.112
   45CHL1  H26C 3326   1.592   2.372   8.072
   45CHL1   C27 3327   1.795   2.571   8.167
   45CHL1  H27A 3328   1.876   2.519   8.222
   45CHL1  H27B 3329   1.833   2.675   8.173
   45CHL1  H27C 3330   1.700   2.559   8.223
   46CHL1    C3 3331   2.153   3.573   6.998
   46CHL1    H3 3332   2.106   3.477   6.969
   46CHL1    O3 3333   2.190   3.632   6.874
   46CHL1   H3' 3334   2.232   3.559   6.827
   46CHL1    C4 3335   2.058   3.667   7.067
   46CHL1   H4A 3336   2.111   3.765   7.067
   46CHL1   H4B 3337   1.964   3.677   7.010
   46CHL1    C5 3338   2.025   3.633   7.212
   46CHL1    C6 3339   1.900   3.618   7.247
   46CHL1    H6 3340   1.817   3.640   7.178
   46CHL1    C7 3341   1.857   3.588   7.389
   46CHL1   H7A 3342   1.771   3.650   7.423
   46CHL1   H7B 3343   1.828   3.481   7.389
   46CHL1    C8 3344   1.970   3.605   7.494
   46CHL1    H8 3345   1.978   3.713   7.519
   46CHL1   C14 3346   1.922   3.531   7.614
   46CHL1   H14 3347   1.930   3.423   7.587
   46CHL1   C15 3348   1.782   3.554   7.662
   46CHL1  H15A 3349   1.755   3.661   7.656
   46CHL1  H15B 3350   1.706   3.505   7.597
   46CHL1   C16 3351   1.772   3.497   7.800
   46CHL1  H16A 3352   1.728   3.570   7.871
   46CHL1  H16B 3353   1.712   3.404   7.810
   46CHL1   C17 3354   1.925   3.474   7.841
   46CHL1   H17 3355   1.928   3.365   7.816
   46CHL1   C13 3356   2.015   3.543   7.738
   46CHL1   C18 3357   2.044   3.690   7.791
   46CHL1  H18A 3358   1.948   3.729   7.830
   46CHL1  H18B 3359   2.121   3.676   7.870
   46CHL1  H18C 3360   2.086   3.749   7.706
   46CHL1   C12 3361   2.148   3.480   7.700
   46CHL1  H12A 3362   2.223   3.495   7.780
   46CHL1  H12B 3363   2.135   3.370   7.693
   46CHL1   C11 3364   2.198   3.541   7.566
   46CHL1  H11A 3365   2.236   3.638   7.604
   46CHL1  H11B 3366   2.270   3.462   7.535
   46CHL1    C9 3367   2.103   3.552   7.449
   46CHL1    H9 3368   2.074   3.446   7.428
   46CHL1   C10 3369   2.148   3.612   7.312
   46CHL1   C19 3370   2.234   3.738   7.341
   46CHL1  H19A 3371   2.334   3.713   7.384
   46CHL1  H19B 3372   2.259   3.796   7.249
   46CHL1  H19C 3373   2.180   3.808   7.408
   46CHL1    C1 3374   2.241   3.510   7.231
   46CHL1   H1A 3375   2.319   3.478   7.304
   46CHL1   H1B 3376   2.178   3.421   7.208
   46CHL1    C2 3377   2.279   3.556   7.091
   46CHL1   H2A 3378   2.348   3.478   7.053
   46CHL1   H2B 3379   2.329   3.654   7.106
   46CHL1   C20 3380   1.954   3.482   7.988
   46CHL1   H20 3381   1.930   3.586   8.018
   46CHL1   C21 3382   2.093   3.442   8.038
   46CHL1  H21A 3383   2.096   3.438   8.149
   46CHL1  H21B 3384   2.180   3.505   8.009
   46CHL1  H21C 3385   2.109   3.341   7.994
   46CHL1   C22 3386   1.855   3.400   8.075
   46CHL1  H22A 3387   1.748   3.413   8.048
   46CHL1  H22B 3388   1.877   3.292   8.060
   46CHL1   C23 3389   1.848   3.429   8.221
   46CHL1  H23A 3390   1.934   3.375   8.265
   46CHL1  H23B 3391   1.852   3.537   8.247
   46CHL1   C24 3392   1.726   3.370   8.288
   46CHL1  H24A 3393   1.637   3.418   8.244
   46CHL1  H24B 3394   1.733   3.264   8.257
   46CHL1   C25 3395   1.715   3.383   8.442
   46CHL1   H25 3396   1.811   3.340   8.477
   46CHL1   C26 3397   1.682   3.526   8.483
   46CHL1  H26A 3398   1.582   3.558   8.447
   46CHL1  H26B 3399   1.690   3.523   8.594
   46CHL1  H26C 3400   1.751   3.608   8.454
   46CHL1   C27 3401   1.611   3.283   8.503
   46CHL1  H27A 3402   1.521   3.311   8.444
   46CHL1  H27B 3403   1.658   3.184   8.482
   46CHL1  H27C 3404   1.597   3.297   8.612
   47CHL1    C3 3405   1.364   3.861   6.606
   47CHL1    H3 3406   1.355   3.968   6.633
   47CHL1    O3 3407   1.375   3.847   6.464
   47CHL1   H3' 3408   1.367   3.753   6.446
   47CHL1    C4 3409   1.484   3.804   6.667
   47CHL1   H4A 3410   1.510   3.697   6.652
   47CHL1   H4B 3411   1.570   3.863   6.629
   47CHL1    C5 3412   1.469   3.822   6.821
   47CHL1    C6 3413   1.567   3.891   6.886
   47CHL1    H6 3414   1.653   3.935   6.836
   47CHL1    C7 3415   1.571   3.900   7.039
   47CHL1   H7A 3416   1.666   3.862   7.081
   47CHL1   H7B 3417   1.548   4.006   7.059
   47CHL1    C8 3418   1.461   3.802   7.109
   47CHL1    H8 3419   1.499   3.698   7.107
   47CHL1   C14 3420   1.434   3.849   7.252
   47CHL1   H14 3421   1.378   3.944   7.239
   47CHL1   C15 3422   1.549   3.889   7.347
   47CHL1  H15A 3423   1.631   3.813   7.353
   47CHL1  H15B 3424   1.599   3.987   7.332
   47CHL1   C16 3425   1.482   3.887   7.493
   47CHL1  H16A 3426   1.517   3.797   7.548
   47CHL1  H16B 3427   1.516   3.973   7.554
   47CHL1   C17 3428   1.332   3.853   7.467
   47CHL1   H17 3429   1.267   3.942   7.454
   47CHL1   C13 3430   1.331   3.765   7.334
   47CHL1   C18 3431   1.404   3.626   7.367
   47CHL1  H18A 3432   1.497   3.629   7.429
   47CHL1  H18B 3433   1.329   3.555   7.409
   47CHL1  H18C 3434   1.432   3.583   7.269
   47CHL1   C12 3435   1.198   3.745   7.251
   47CHL1  H12A 3436   1.117   3.681   7.293
   47CHL1  H12B 3437   1.152   3.845   7.238
   47CHL1   C11 3438   1.229   3.695   7.110
   47CHL1  H11A 3439   1.277   3.596   7.126
   47CHL1  H11B 3440   1.132   3.679   7.057
   47CHL1    C9 3441   1.324   3.788   7.037
   47CHL1    H9 3442   1.265   3.882   7.035
   47CHL1   C10 3443   1.352   3.750   6.888
   47CHL1   C19 3444   1.370   3.595   6.873
   47CHL1  H19A 3445   1.276   3.543   6.903
   47CHL1  H19B 3446   1.381   3.558   6.769
   47CHL1  H19C 3447   1.451   3.558   6.940
   47CHL1    C1 3448   1.227   3.786   6.805
   47CHL1   H1A 3449   1.143   3.714   6.816
   47CHL1   H1B 3450   1.194   3.890   6.827
   47CHL1    C2 3451   1.248   3.778   6.656
   47CHL1   H2A 3452   1.156   3.819   6.610
   47CHL1   H2B 3453   1.273   3.672   6.632
   47CHL1   C20 3454   1.255   3.783   7.590
   47CHL1   H20 3455   1.277   3.674   7.582
   47CHL1   C21 3456   1.106   3.805   7.576
   47CHL1  H21A 3457   1.075   3.764   7.477
   47CHL1  H21B 3458   1.083   3.914   7.577
   47CHL1  H21C 3459   1.043   3.765   7.658
   47CHL1   C22 3460   1.305   3.824   7.733
   47CHL1  H22A 3461   1.416   3.813   7.735
   47CHL1  H22B 3462   1.261   3.924   7.749
   47CHL1   C23 3463   1.246   3.735   7.849
   47CHL1  H23A 3464   1.136   3.748   7.851
   47CHL1  H23B 3465   1.277   3.629   7.844
   47CHL1   C24 3466   1.303   3.793   7.983
   47CHL1  H24A 3467   1.412   3.774   7.982
   47CHL1  H24B 3468   1.286   3.902   7.987
   47CHL1   C25 3469   1.242   3.740   8.111
   47CHL1   H25 3470   1.142   3.787   8.124
   47CHL1   C26 3471   1.249   3.584   8.114
   47CHL1  H26A 3472   1.234   3.541   8.216
   47CHL1  H26B 3473   1.166   3.553   8.047
   47CHL1  H26C 3474   1.348   3.550   8.077
   47CHL1   C27 3475   1.333   3.791   8.224
   47CHL1  H27A 3476   1.291   3.771   8.325
   47CHL1  H27B 3477   1.434   3.745   8.220
   47CHL1  H27C 3478   1.355   3.899   8.208
   48CHL1    C3 3479   4.641   6.095   6.270
   48CHL1    H3 3480   4.726   6.166   6.280
   48CHL1    O3 3481   4.615   6.082   6.133
   48CHL1   H3' 3482   4.524   6.053   6.122
   48CHL1    C4 3483   4.696   5.958   6.313
   48CHL1   H4A 3484   4.617   5.883   6.291
   48CHL1   H4B 3485   4.782   5.941   6.244
   48CHL1    C5 3486   4.726   5.949   6.459
   48CHL1    C6 3487   4.845   5.908   6.502
   48CHL1    H6 3488   4.916   5.859   6.434
   48CHL1    C7 3489   4.878   5.893   6.646
   48CHL1   H7A 3490   4.934   5.799   6.667
   48CHL1   H7B 3491   4.958   5.966   6.667
   48CHL1    C8 3492   4.763   5.894   6.735
   48CHL1    H8 3493   4.710   5.798   6.716
   48CHL1   C14 3494   4.803   5.907   6.882
   48CHL1   H14 3495   4.875   5.991   6.878
   48CHL1   C15 3496   4.860   5.786   6.948
   48CHL1  H15A 3497   4.801   5.697   6.918
   48CHL1  H15B 3498   4.964   5.761   6.918
   48CHL1   C16 3499   4.861   5.825   7.095
   48CHL1  H16A 3500   4.827   5.735   7.150
   48CHL1  H16B 3501   4.960   5.863   7.127
   48CHL1   C17 3502   4.763   5.942   7.105
   48CHL1   H17 3503   4.825   6.034   7.096
   48CHL1   C13 3504   4.688   5.943   6.979
   48CHL1   C18 3505   4.580   5.832   6.982
   48CHL1  H18A 3506   4.549   5.822   6.876
   48CHL1  H18B 3507   4.616   5.730   7.007
   48CHL1  H18C 3508   4.492   5.856   7.046
   48CHL1   C12 3509   4.631   6.080   6.942
   48CHL1  H12A 3510   4.541   6.094   7.007
   48CHL1  H12B 3511   4.698   6.169   6.944
   48CHL1   C11 3512   4.575   6.067   6.798
   48CHL1  H11A 3513   4.485   6.002   6.800
   48CHL1  H11B 3514   4.537   6.168   6.770
   48CHL1    C9 3515   4.681   6.019   6.692
   48CHL1    H9 3516   4.761   6.096   6.692
   48CHL1   C10 3517   4.622   6.008   6.554
   48CHL1   C19 3518   4.509   5.905   6.563
   48CHL1  H19A 3519   4.466   5.881   6.463
   48CHL1  H19B 3520   4.545   5.807   6.600
   48CHL1  H19C 3521   4.426   5.937   6.629
   48CHL1    C1 3522   4.563   6.143   6.507
   48CHL1   H1A 3523   4.478   6.176   6.569
   48CHL1   H1B 3524   4.635   6.226   6.521
   48CHL1    C2 3525   4.524   6.147   6.355
   48CHL1   H2A 3526   4.494   6.252   6.332
   48CHL1   H2B 3527   4.436   6.081   6.343
   48CHL1   C20 3528   4.688   5.942   7.237
   48CHL1   H20 3529   4.599   5.878   7.225
   48CHL1   C21 3530   4.642   6.083   7.270
   48CHL1  H21A 3531   4.568   6.087   7.353
   48CHL1  H21B 3532   4.578   6.136   7.198
   48CHL1  H21C 3533   4.737   6.141   7.278
   48CHL1   C22 3534   4.758   5.877   7.361
   48CHL1  H22A 3535   4.789   5.772   7.343
   48CHL1  H22B 3536   4.849   5.940   7.373
   48CHL1   C23 3537   4.682   5.873   7.490
   48CHL1  H23A 3538   4.636   5.969   7.522
   48CHL1  H23B 3539   4.598   5.801   7.476
   48CHL1   C24 3540   4.759   5.811   7.603
   48CHL1  H24A 3541   4.693   5.766   7.681
   48CHL1  H24B 3542   4.808   5.721   7.562
   48CHL1   C25 3543   4.861   5.904   7.667
   48CHL1   H25 3544   4.907   5.963   7.584
   48CHL1   C26 3545   4.782   6.003   7.757
   48CHL1  H26A 3546   4.864   6.067   7.797
   48CHL1  H26B 3547   4.701   6.054   7.700
   48CHL1  H26C 3548   4.730   5.953   7.841
   48CHL1   C27 3549   4.955   5.827   7.746
   48CHL1  H27A 3550   4.900   5.757   7.813
   48CHL1  H27B 3551   5.014   5.767   7.673
   48CHL1  H27C 3552   5.029   5.884   7.806
   49CHL1    C3 3553   3.260   0.571   6.656
   49CHL1    H3 3554   3.177   0.518   6.707
   49CHL1    O3 3555   3.204   0.606   6.528
   49CHL1   H3' 3556   3.170   0.525   6.490
   49CHL1    C4 3557   3.300   0.700   6.737
   49CHL1   H4A 3558   3.384   0.752   6.684
   49CHL1   H4B 3559   3.220   0.776   6.741
   49CHL1    C5 3560   3.342   0.661   6.876
   49CHL1    C6 3561   3.292   0.721   6.986
   49CHL1    H6 3562   3.225   0.808   6.984
   49CHL1    C7 3563   3.338   0.691   7.127
   49CHL1   H7A 3564   3.346   0.781   7.191
   49CHL1   H7B 3565   3.255   0.631   7.170
   49CHL1    C8 3566   3.469   0.606   7.136
   49CHL1    H8 3567   3.550   0.682   7.122
   49CHL1   C14 3568   3.490   0.554   7.276
   49CHL1   H14 3569   3.397   0.494   7.292
   49CHL1   C15 3570   3.509   0.662   7.387
   49CHL1  H15A 3571   3.569   0.751   7.359
   49CHL1  H15B 3572   3.403   0.692   7.404
   49CHL1   C16 3573   3.552   0.579   7.505
   49CHL1  H16A 3574   3.633   0.640   7.550
   49CHL1  H16B 3575   3.467   0.562   7.575
   49CHL1   C17 3576   3.608   0.444   7.448
   49CHL1   H17 3577   3.532   0.369   7.478
   49CHL1   C13 3578   3.610   0.462   7.297
   49CHL1   C18 3579   3.739   0.541   7.258
   49CHL1  H18A 3580   3.735   0.572   7.151
   49CHL1  H18B 3581   3.761   0.634   7.315
   49CHL1  H18C 3582   3.827   0.474   7.258
   49CHL1   C12 3583   3.593   0.336   7.205
   49CHL1  H12A 3584   3.680   0.267   7.210
   49CHL1  H12B 3585   3.510   0.272   7.241
   49CHL1   C11 3586   3.587   0.387   7.061
   49CHL1  H11A 3587   3.688   0.425   7.033
   49CHL1  H11B 3588   3.582   0.294   7.000
   49CHL1    C9 3589   3.475   0.488   7.037
   49CHL1    H9 3590   3.382   0.427   7.049
   49CHL1   C10 3591   3.449   0.541   6.887
   49CHL1   C19 3592   3.581   0.622   6.854
   49CHL1  H19A 3593   3.670   0.556   6.868
   49CHL1  H19B 3594   3.580   0.653   6.748
   49CHL1  H19C 3595   3.589   0.703   6.929
   49CHL1    C1 3596   3.416   0.416   6.797
   49CHL1   H1A 3597   3.505   0.350   6.781
   49CHL1   H1B 3598   3.331   0.361   6.843
   49CHL1    C2 3599   3.380   0.466   6.650
   49CHL1   H2A 3600   3.366   0.384   6.575
   49CHL1   H2B 3601   3.468   0.516   6.604
   49CHL1   C20 3602   3.735   0.402   7.527
   49CHL1   H20 3603   3.815   0.478   7.540
   49CHL1   C21 3604   3.802   0.275   7.462
   49CHL1  H21A 3605   3.886   0.236   7.524
   49CHL1  H21B 3606   3.841   0.279   7.358
   49CHL1  H21C 3607   3.730   0.190   7.458
   49CHL1   C22 3608   3.696   0.367   7.671
   49CHL1  H22A 3609   3.618   0.439   7.703
   49CHL1  H22B 3610   3.650   0.266   7.665
   49CHL1   C23 3611   3.820   0.362   7.773
   49CHL1  H23A 3612   3.900   0.307   7.720
   49CHL1  H23B 3613   3.861   0.462   7.800
   49CHL1   C24 3614   3.781   0.289   7.906
   49CHL1  H24A 3615   3.695   0.343   7.951
   49CHL1  H24B 3616   3.770   0.180   7.889
   49CHL1   C25 3617   3.886   0.303   8.020
   49CHL1   H25 3618   3.890   0.413   8.035
   49CHL1   C26 3619   3.850   0.228   8.156
   49CHL1  H26A 3620   3.761   0.281   8.196
   49CHL1  H26B 3621   3.829   0.121   8.132
   49CHL1  H26C 3622   3.936   0.223   8.226
   49CHL1   C27 3623   4.026   0.255   7.968
   49CHL1  H27A 3624   4.058   0.331   7.895
   49CHL1  H27B 3625   4.095   0.249   8.055
   49CHL1  H27C 3626   4.016   0.156   7.919
   50CHL1    C3 3627   4.406   1.772   6.826
   50CHL1    H3 3628   4.353   1.861   6.865
   50CHL1    O3 3629   4.423   1.779   6.687
   50CHL1   H3' 3630   4.457   1.864   6.658
   50CHL1    C4 3631   4.543   1.766   6.893
   50CHL1   H4A 3632   4.612   1.683   6.870
   50CHL1   H4B 3633   4.585   1.860   6.851
   50CHL1    C5 3634   4.523   1.788   7.046
   50CHL1    C6 3635   4.584   1.894   7.106
   50CHL1    H6 3636   4.638   1.967   7.045
   50CHL1    C7 3637   4.576   1.927   7.250
   50CHL1   H7A 3638   4.675   1.959   7.288
   50CHL1   H7B 3639   4.510   2.016   7.260
   50CHL1    C8 3640   4.513   1.808   7.328
   50CHL1    H8 3641   4.603   1.743   7.329
   50CHL1   C14 3642   4.467   1.856   7.464
   50CHL1   H14 3643   4.380   1.921   7.437
   50CHL1   C15 3644   4.556   1.937   7.555
   50CHL1  H15A 3645   4.657   1.890   7.549
   50CHL1  H15B 3646   4.562   2.042   7.520
   50CHL1   C16 3647   4.495   1.932   7.699
   50CHL1  H16A 3648   4.562   1.892   7.779
   50CHL1  H16B 3649   4.469   2.031   7.741
   50CHL1   C17 3650   4.367   1.836   7.678
   50CHL1   H17 3651   4.284   1.904   7.648
   50CHL1   C13 3652   4.402   1.745   7.557
   50CHL1   C18 3653   4.514   1.643   7.609
   50CHL1  H18A 3654   4.582   1.602   7.532
   50CHL1  H18B 3655   4.579   1.687   7.687
   50CHL1  H18C 3656   4.453   1.563   7.657
   50CHL1   C12 3657   4.288   1.676   7.490
   50CHL1  H12A 3658   4.254   1.590   7.550
   50CHL1  H12B 3659   4.205   1.750   7.484
   50CHL1   C11 3660   4.326   1.635   7.345
   50CHL1  H11A 3661   4.388   1.544   7.360
   50CHL1  H11B 3662   4.230   1.612   7.295
   50CHL1    C9 3663   4.395   1.749   7.257
   50CHL1    H9 3664   4.314   1.824   7.243
   50CHL1   C10 3665   4.431   1.691   7.110
   50CHL1   C19 3666   4.518   1.568   7.126
   50CHL1  H19A 3667   4.557   1.536   7.027
   50CHL1  H19B 3668   4.612   1.595   7.178
   50CHL1  H19C 3669   4.463   1.485   7.176
   50CHL1    C1 3670   4.304   1.670   7.028
   50CHL1   H1A 3671   4.252   1.576   7.056
   50CHL1   H1B 3672   4.235   1.757   7.033
   50CHL1    C2 3673   4.324   1.652   6.877
   50CHL1   H2A 3674   4.233   1.636   6.816
   50CHL1   H2B 3675   4.394   1.567   6.861
   50CHL1   C20 3676   4.314   1.773   7.810
   50CHL1   H20 3677   4.367   1.680   7.835
   50CHL1   C21 3678   4.165   1.749   7.797
   50CHL1  H21A 3679   4.118   1.844   7.763
   50CHL1  H21B 3680   4.128   1.710   7.894
   50CHL1  H21C 3681   4.151   1.661   7.730
   50CHL1   C22 3682   4.330   1.864   7.931
   50CHL1  H22A 3683   4.433   1.905   7.934
   50CHL1  H22B 3684   4.263   1.952   7.925
   50CHL1   C23 3685   4.293   1.803   8.072
   50CHL1  H23A 3686   4.183   1.796   8.081
   50CHL1  H23B 3687   4.339   1.702   8.062
   50CHL1   C24 3688   4.349   1.886   8.185
   50CHL1  H24A 3689   4.459   1.875   8.191
   50CHL1  H24B 3690   4.324   1.992   8.164
   50CHL1   C25 3691   4.299   1.846   8.327
   50CHL1   H25 3692   4.271   1.738   8.320
   50CHL1   C26 3693   4.420   1.838   8.428
   50CHL1  H26A 3694   4.445   1.938   8.467
   50CHL1  H26B 3695   4.392   1.771   8.512
   50CHL1  H26C 3696   4.510   1.797   8.377
   50CHL1   C27 3697   4.193   1.936   8.366
   50CHL1  H27A 3698   4.148   1.903   8.463
   50CHL1  H27B 3699   4.234   2.037   8.385
   50CHL1  H27C 3700   4.117   1.935   8.284
   51CHL1    C3 3701   4.000   0.652   6.917
   51CHL1    H3 3702   3.900   0.612   6.946
   51CHL1    O3 3703   4.020   0.635   6.775
   51CHL1   H3' 3704   4.111   0.662   6.763
   51CHL1    C4 3705   4.003   0.798   6.969
   51CHL1   H4A 3706   4.101   0.834   6.929
   51CHL1   H4B 3707   3.918   0.849   6.918
   51CHL1    C5 3708   4.006   0.811   7.119
   51CHL1    C6 3709   3.916   0.883   7.181
   51CHL1    H6 3710   3.841   0.938   7.123
   51CHL1    C7 3711   3.910   0.905   7.333
   51CHL1   H7A 3712   3.913   1.015   7.348
   51CHL1   H7B 3713   3.816   0.883   7.388
   51CHL1    C8 3714   4.025   0.850   7.405
   51CHL1    H8 3715   4.110   0.920   7.391
   51CHL1   C14 3716   3.994   0.830   7.553
   51CHL1   H14 3717   3.917   0.750   7.558
   51CHL1   C15 3718   3.939   0.959   7.624
   51CHL1  H15A 3719   3.979   1.054   7.582
   51CHL1  H15B 3720   3.830   0.964   7.607
   51CHL1   C16 3721   3.969   0.927   7.769
   51CHL1  H16A 3722   4.025   1.007   7.822
   51CHL1  H16B 3723   3.869   0.934   7.818
   51CHL1   C17 3724   4.053   0.790   7.774
   51CHL1   H17 3725   3.978   0.708   7.783
   51CHL1   C13 3726   4.118   0.781   7.630
   51CHL1   C18 3727   4.233   0.881   7.614
   51CHL1  H18A 3728   4.195   0.979   7.649
   51CHL1  H18B 3729   4.319   0.846   7.674
   51CHL1  H18C 3730   4.266   0.892   7.508
   51CHL1   C12 3731   4.155   0.641   7.578
   51CHL1  H12A 3732   4.246   0.597   7.623
   51CHL1  H12B 3733   4.064   0.583   7.606
   51CHL1   C11 3734   4.170   0.631   7.429
   51CHL1  H11A 3735   4.268   0.681   7.412
   51CHL1  H11B 3736   4.169   0.532   7.380
   51CHL1    C9 3737   4.067   0.714   7.344
   51CHL1    H9 3738   3.973   0.654   7.337
   51CHL1   C10 3739   4.110   0.721   7.193
   51CHL1   C19 3740   4.249   0.787   7.175
   51CHL1  H19A 3741   4.320   0.718   7.225
   51CHL1  H19B 3742   4.297   0.805   7.076
   51CHL1  H19C 3743   4.245   0.880   7.234
   51CHL1    C1 3744   4.116   0.575   7.134
   51CHL1   H1A 3745   4.212   0.528   7.165
   51CHL1   H1B 3746   4.030   0.520   7.178
   51CHL1    C2 3747   4.111   0.564   6.982
   51CHL1   H2A 3748   4.105   0.460   6.943
   51CHL1   H2B 3749   4.209   0.603   6.947
   51CHL1   C20 3750   4.157   0.770   7.891
   51CHL1   H20 3751   4.259   0.808   7.869
   51CHL1   C21 3752   4.172   0.629   7.924
   51CHL1  H21A 3753   4.088   0.598   7.991
   51CHL1  H21B 3754   4.268   0.607   7.977
   51CHL1  H21C 3755   4.169   0.566   7.832
   51CHL1   C22 3756   4.117   0.848   8.021
   51CHL1  H22A 3757   4.140   0.955   8.004
   51CHL1  H22B 3758   4.009   0.839   8.045
   51CHL1   C23 3759   4.197   0.815   8.144
   51CHL1  H23A 3760   4.146   0.886   8.213
   51CHL1  H23B 3761   4.184   0.717   8.195
   51CHL1   C24 3762   4.342   0.850   8.120
   51CHL1  H24A 3763   4.393   0.781   8.049
   51CHL1  H24B 3764   4.343   0.957   8.093
   51CHL1   C25 3765   4.428   0.842   8.250
   51CHL1   H25 3766   4.367   0.906   8.318
   51CHL1   C26 3767   4.422   0.700   8.316
   51CHL1  H26A 3768   4.462   0.635   8.236
   51CHL1  H26B 3769   4.494   0.707   8.401
   51CHL1  H26C 3770   4.319   0.684   8.354
   51CHL1   C27 3771   4.567   0.905   8.241
   51CHL1  H27A 3772   4.631   0.834   8.184
   51CHL1  H27B 3773   4.561   0.999   8.183
   51CHL1  H27C 3774   4.613   0.939   8.336
   52CHL1    C3 3775   6.365   1.818   6.961
   52CHL1    H3 3776   6.292   1.737   6.978
   52CHL1    O3 3777   6.377   1.825   6.819
   52CHL1   H3' 3778   6.444   1.892   6.806
   52CHL1    C4 3779   6.329   1.957   7.011
   52CHL1   H4A 3780   6.413   2.027   6.994
   52CHL1   H4B 3781   6.235   1.993   6.963
   52CHL1    C5 3782   6.310   1.948   7.163
   52CHL1    C6 3783   6.196   1.978   7.229
   52CHL1    H6 3784   6.118   2.020   7.165
   52CHL1    C7 3785   6.169   1.967   7.380
   52CHL1   H7A 3786   6.133   2.058   7.433
   52CHL1   H7B 3787   6.094   1.885   7.391
   52CHL1    C8 3788   6.293   1.917   7.456
   52CHL1    H8 3789   6.355   2.005   7.484
   52CHL1   C14 3790   6.260   1.840   7.588
   52CHL1   H14 3791   6.220   1.739   7.563
   52CHL1   C15 3792   6.151   1.887   7.679
   52CHL1  H15A 3793   6.150   1.997   7.691
   52CHL1  H15B 3794   6.053   1.855   7.637
   52CHL1   C16 3795   6.180   1.811   7.808
   52CHL1  H16A 3796   6.189   1.885   7.891
   52CHL1  H16B 3797   6.089   1.754   7.834
   52CHL1   C17 3798   6.314   1.736   7.788
   52CHL1   H17 3799   6.288   1.632   7.760
   52CHL1   C13 3800   6.385   1.803   7.668
   52CHL1   C18 3801   6.463   1.931   7.725
   52CHL1  H18A 3802   6.550   1.885   7.775
   52CHL1  H18B 3803   6.502   2.004   7.651
   52CHL1  H18C 3804   6.404   1.991   7.798
   52CHL1   C12 3805   6.479   1.710   7.585
   52CHL1  H12A 3806   6.567   1.681   7.646
   52CHL1  H12B 3807   6.423   1.617   7.562
   52CHL1   C11 3808   6.517   1.783   7.454
   52CHL1  H11A 3809   6.592   1.862   7.477
   52CHL1  H11B 3810   6.582   1.713   7.397
   52CHL1    C9 3811   6.391   1.826   7.373
   52CHL1    H9 3812   6.321   1.742   7.353
   52CHL1   C10 3813   6.433   1.876   7.233
   52CHL1   C19 3814   6.544   1.977   7.245
   52CHL1  H19A 3815   6.589   2.006   7.148
   52CHL1  H19B 3816   6.524   2.069   7.304
   52CHL1  H19C 3817   6.638   1.934   7.284
   52CHL1    C1 3818   6.482   1.742   7.156
   52CHL1   H1A 3819   6.579   1.713   7.202
   52CHL1   H1B 3820   6.406   1.662   7.168
   52CHL1    C2 3821   6.499   1.770   7.006
   52CHL1   H2A 3822   6.527   1.669   6.967
   52CHL1   H2B 3823   6.581   1.839   6.978
   52CHL1   C20 3824   6.387   1.716   7.922
   52CHL1   H20 3825   6.435   1.807   7.965
   52CHL1   C21 3826   6.502   1.615   7.899
   52CHL1  H21A 3827   6.551   1.587   7.995
   52CHL1  H21B 3828   6.580   1.650   7.829
   52CHL1  H21C 3829   6.456   1.520   7.862
   52CHL1   C22 3830   6.298   1.658   8.039
   52CHL1  H22A 3831   6.212   1.722   8.067
   52CHL1  H22B 3832   6.273   1.555   8.008
   52CHL1   C23 3833   6.387   1.643   8.170
   52CHL1  H23A 3834   6.454   1.555   8.163
   52CHL1  H23B 3835   6.450   1.733   8.184
   52CHL1   C24 3836   6.302   1.628   8.295
   52CHL1  H24A 3837   6.265   1.732   8.306
   52CHL1  H24B 3838   6.228   1.552   8.261
   52CHL1   C25 3839   6.379   1.605   8.427
   52CHL1   H25 3840   6.468   1.671   8.428
   52CHL1   C26 3841   6.301   1.634   8.551
   52CHL1  H26A 3842   6.264   1.736   8.575
   52CHL1  H26B 3843   6.217   1.562   8.558
   52CHL1  H26C 3844   6.367   1.602   8.635
   52CHL1   C27 3845   6.425   1.459   8.439
   52CHL1  H27A 3846   6.473   1.445   8.539
   52CHL1  H27B 3847   6.337   1.392   8.434
   52CHL1  H27C 3848   6.496   1.433   8.357
   53CHL1    C3 3849   2.255   5.282   7.071
   53CHL1    H3 3850   2.252   5.387   7.036
   53CHL1    O3 3851   2.253   5.196   6.958
   53CHL1   H3' 3852   2.248   5.252   6.881
   53CHL1    C4 3853   2.368   5.249   7.169
   53CHL1   H4A 3854   2.387   5.140   7.173
   53CHL1   H4B 3855   2.461   5.283   7.119
   53CHL1    C5 3856   2.359   5.290   7.314
   53CHL1    C6 3857   2.456   5.358   7.371
   53CHL1    H6 3858   2.548   5.375   7.314
   53CHL1    C7 3859   2.450   5.399   7.519
   53CHL1   H7A 3860   2.549   5.380   7.565
   53CHL1   H7B 3861   2.424   5.507   7.527
   53CHL1    C8 3862   2.347   5.317   7.597
   53CHL1    H8 3863   2.391   5.217   7.619
   53CHL1   C14 3864   2.320   5.374   7.736
   53CHL1   H14 3865   2.272   5.474   7.727
   53CHL1   C15 3866   2.443   5.417   7.819
   53CHL1  H15A 3867   2.510   5.330   7.800
   53CHL1  H15B 3868   2.485   5.514   7.786
   53CHL1   C16 3869   2.398   5.412   7.964
   53CHL1  H16A 3870   2.451   5.333   8.021
   53CHL1  H16B 3871   2.420   5.508   8.016
   53CHL1   C17 3872   2.241   5.389   7.962
   53CHL1   H17 3873   2.195   5.484   7.929
   53CHL1   C13 3874   2.218   5.304   7.830
   53CHL1   C18 3875   2.269   5.164   7.850
   53CHL1  H18A 3876   2.261   5.098   7.762
   53CHL1  H18B 3877   2.376   5.168   7.882
   53CHL1  H18C 3878   2.222   5.110   7.935
   53CHL1   C12 3879   2.081   5.312   7.746
   53CHL1  H12A 3880   2.005   5.253   7.801
   53CHL1  H12B 3881   2.044   5.417   7.741
   53CHL1   C11 3882   2.093   5.242   7.602
   53CHL1  H11A 3883   2.108   5.137   7.633
   53CHL1  H11B 3884   1.994   5.243   7.550
   53CHL1    C9 3885   2.215   5.307   7.520
   53CHL1    H9 3886   2.182   5.411   7.502
   53CHL1   C10 3887   2.225   5.249   7.378
   53CHL1   C19 3888   2.223   5.093   7.386
   53CHL1  H19A 3889   2.116   5.063   7.387
   53CHL1  H19B 3890   2.264   5.044   7.296
   53CHL1  H19C 3891   2.269   5.045   7.475
   53CHL1    C1 3892   2.116   5.313   7.286
   53CHL1   H1A 3893   2.019   5.283   7.332
   53CHL1   H1B 3894   2.118   5.423   7.297
   53CHL1    C2 3895   2.116   5.257   7.144
   53CHL1   H2A 3896   2.054   5.321   7.078
   53CHL1   H2B 3897   2.085   5.151   7.142
   53CHL1   C20 3898   2.183   5.338   8.093
   53CHL1   H20 3899   2.201   5.228   8.096
   53CHL1   C21 3900   2.030   5.330   8.076
   53CHL1  H21A 3901   1.981   5.426   8.047
   53CHL1  H21B 3902   1.980   5.295   8.168
   53CHL1  H21C 3903   1.996   5.246   8.012
   53CHL1   C22 3904   2.247   5.399   8.222
   53CHL1  H22A 3905   2.358   5.399   8.227
   53CHL1  H22B 3906   2.229   5.508   8.217
   53CHL1   C23 3907   2.190   5.338   8.351
   53CHL1  H23A 3908   2.250   5.362   8.441
   53CHL1  H23B 3909   2.084   5.364   8.371
   53CHL1   C24 3910   2.207   5.182   8.358
   53CHL1  H24A 3911   2.109   5.150   8.316
   53CHL1  H24B 3912   2.293   5.146   8.298
   53CHL1   C25 3913   2.212   5.134   8.501
   53CHL1   H25 3914   2.297   5.190   8.547
   53CHL1   C26 3915   2.077   5.159   8.567
   53CHL1  H26A 3916   2.063   5.269   8.559
   53CHL1  H26B 3917   1.996   5.101   8.517
   53CHL1  H26C 3918   2.091   5.131   8.673
   53CHL1   C27 3919   2.254   4.982   8.506
   53CHL1  H27A 3920   2.173   4.931   8.450
   53CHL1  H27B 3921   2.353   4.975   8.456
   53CHL1  H27C 3922   2.267   4.939   8.607
   54CHL1    C3 3923   2.452   0.108   6.966
   54CHL1    H3 3924   2.357   0.067   7.007
   54CHL1    O3 3925   2.435   0.154   6.833
   54CHL1   H3' 3926   2.527   0.174   6.814
   54CHL1    C4 3927   2.509   0.232   7.045
   54CHL1   H4A 3928   2.595   0.286   7.000
   54CHL1   H4B 3929   2.427   0.306   7.037
   54CHL1    C5 3930   2.539   0.198   7.188
   54CHL1    C6 3931   2.492   0.263   7.294
   54CHL1    H6 3932   2.431   0.354   7.282
   54CHL1    C7 3933   2.528   0.224   7.436
   54CHL1   H7A 3934   2.544   0.311   7.503
   54CHL1   H7B 3935   2.433   0.183   7.475
   54CHL1    C8 3936   2.648   0.123   7.441
   54CHL1    H8 3937   2.736   0.190   7.431
   54CHL1   C14 3938   2.661   0.068   7.583
   54CHL1   H14 3939   2.562   0.020   7.594
   54CHL1   C15 3940   2.658   0.171   7.695
   54CHL1  H15A 3941   2.737   0.246   7.674
   54CHL1  H15B 3942   2.556   0.216   7.701
   54CHL1   C16 3943   2.687   0.085   7.820
   54CHL1  H16A 3944   2.773   0.133   7.870
   54CHL1  H16B 3945   2.598   0.071   7.885
   54CHL1   C17 3946   2.736  -0.047   7.762
   54CHL1   H17 3947   2.646  -0.112   7.755
   54CHL1   C13 3948   2.766  -0.024   7.617
   54CHL1   C18 3949   2.901   0.040   7.594
   54CHL1  H18A 3950   2.906   0.084   7.492
   54CHL1  H18B 3951   2.925   0.113   7.674
   54CHL1  H18C 3952   2.981  -0.037   7.590
   54CHL1   C12 3953   2.752  -0.139   7.512
   54CHL1  H12A 3954   2.816  -0.228   7.528
   54CHL1  H12B 3955   2.656  -0.196   7.521
   54CHL1   C11 3956   2.751  -0.091   7.364
   54CHL1  H11A 3957   2.853  -0.052   7.343
   54CHL1  H11B 3958   2.727  -0.174   7.294
   54CHL1    C9 3959   2.640   0.013   7.345
   54CHL1    H9 3960   2.545  -0.044   7.352
   54CHL1   C10 3961   2.630   0.075   7.204
   54CHL1   C19 3962   2.769   0.123   7.162
   54CHL1  H19A 3963   2.817   0.190   7.236
   54CHL1  H19B 3964   2.833   0.033   7.151
   54CHL1  H19C 3965   2.779   0.183   7.069
   54CHL1    C1 3966   2.576  -0.047   7.116
   54CHL1   H1A 3967   2.644  -0.134   7.130
   54CHL1   H1B 3968   2.474  -0.072   7.152
   54CHL1    C2 3969   2.553  -0.009   6.971
   54CHL1   H2A 3970   2.522  -0.097   6.910
   54CHL1   H2B 3971   2.652   0.025   6.934
   54CHL1   C20 3972   2.835  -0.118   7.848
   54CHL1   H20 3973   2.930  -0.060   7.847
   54CHL1   C21 3974   2.882  -0.258   7.793
   54CHL1  H21A 3975   2.791  -0.317   7.768
   54CHL1  H21B 3976   2.940  -0.306   7.875
   54CHL1  H21C 3977   2.951  -0.254   7.705
   54CHL1   C22 3978   2.788  -0.126   7.994
   54CHL1  H22A 3979   2.725  -0.043   8.032
   54CHL1  H22B 3980   2.719  -0.213   7.990
   54CHL1   C23 3981   2.915  -0.148   8.085
   54CHL1  H23A 3982   2.948  -0.254   8.078
   54CHL1  H23B 3983   2.992  -0.071   8.062
   54CHL1   C24 3984   2.876  -0.117   8.235
   54CHL1  H24A 3985   2.842  -0.011   8.237
   54CHL1  H24B 3986   2.798  -0.192   8.258
   54CHL1   C25 3987   2.984  -0.149   8.343
   54CHL1   H25 3988   2.990  -0.260   8.338
   54CHL1   C26 3989   3.121  -0.100   8.314
   54CHL1  H26A 3990   3.122   0.011   8.320
   54CHL1  H26B 3991   3.190  -0.138   8.392
   54CHL1  H26C 3992   3.163  -0.127   8.214
   54CHL1   C27 3993   2.939  -0.096   8.483
   54CHL1  H27A 3994   2.854  -0.158   8.519
   54CHL1  H27B 3995   3.010  -0.097   8.569
   54CHL1  H27C 3996   2.895   0.006   8.475
   55CHL1    C3 3997   2.231   1.848   7.024
   55CHL1    H3 3998   2.324   1.909   7.023
   55CHL1    O3 3999   2.188   1.842   6.885
   55CHL1   H3' 4000   2.105   1.794   6.885
   55CHL1    C4 4001   2.254   1.712   7.071
   55CHL1   H4A 4002   2.162   1.650   7.058
   55CHL1   H4B 4003   2.333   1.655   7.016
   55CHL1    C5 4004   2.281   1.704   7.218
   55CHL1    C6 4005   2.391   1.638   7.255
   55CHL1    H6 4006   2.453   1.580   7.184
   55CHL1    C7 4007   2.432   1.611   7.401
   55CHL1   H7A 4008   2.454   1.505   7.429
   55CHL1   H7B 4009   2.518   1.671   7.436
   55CHL1    C8 4010   2.313   1.662   7.500
   55CHL1    H8 4011   2.239   1.580   7.493
   55CHL1   C14 4012   2.363   1.672   7.644
   55CHL1   H14 4013   2.447   1.744   7.632
   55CHL1   C15 4014   2.438   1.550   7.707
   55CHL1  H15A 4015   2.374   1.462   7.685
   55CHL1  H15B 4016   2.540   1.535   7.666
   55CHL1   C16 4017   2.436   1.582   7.861
   55CHL1  H16A 4018   2.393   1.496   7.916
   55CHL1  H16B 4019   2.544   1.586   7.886
   55CHL1   C17 4020   2.355   1.716   7.879
   55CHL1   H17 4021   2.430   1.798   7.880
   55CHL1   C13 4022   2.266   1.727   7.746
   55CHL1   C18 4023   2.148   1.634   7.758
   55CHL1  H18A 4024   2.098   1.598   7.665
   55CHL1  H18B 4025   2.189   1.543   7.807
   55CHL1  H18C 4026   2.076   1.691   7.820
   55CHL1   C12 4027   2.215   1.869   7.701
   55CHL1  H12A 4028   2.134   1.900   7.770
   55CHL1  H12B 4029   2.304   1.935   7.708
   55CHL1   C11 4030   2.159   1.869   7.562
   55CHL1  H11A 4031   2.059   1.821   7.568
   55CHL1  H11B 4032   2.149   1.972   7.521
   55CHL1    C9 4033   2.252   1.796   7.453
   55CHL1    H9 4034   2.335   1.867   7.433
   55CHL1   C10 4035   2.187   1.776   7.313
   55CHL1   C19 4036   2.049   1.711   7.325
   55CHL1  H19A 4037   1.975   1.790   7.350
   55CHL1  H19B 4038   2.011   1.679   7.226
   55CHL1  H19C 4039   2.044   1.617   7.385
   55CHL1    C1 4040   2.166   1.922   7.246
   55CHL1   H1A 4041   2.078   1.970   7.295
   55CHL1   H1B 4042   2.259   1.981   7.255
   55CHL1    C2 4043   2.129   1.923   7.105
   55CHL1   H2A 4044   2.152   2.027   7.074
   55CHL1   H2B 4045   2.026   1.888   7.086
   55CHL1   C20 4046   2.286   1.719   8.021
   55CHL1   H20 4047   2.225   1.626   8.020
   55CHL1   C21 4048   2.195   1.842   8.029
   55CHL1  H21A 4049   2.160   1.861   8.133
   55CHL1  H21B 4050   2.110   1.825   7.960
   55CHL1  H21C 4051   2.251   1.933   7.998
   55CHL1   C22 4052   2.388   1.703   8.141
   55CHL1  H22A 4053   2.458   1.618   8.125
   55CHL1  H22B 4054   2.450   1.793   8.160
   55CHL1   C23 4055   2.310   1.694   8.278
   55CHL1  H23A 4056   2.252   1.787   8.296
   55CHL1  H23B 4057   2.241   1.612   8.252
   55CHL1   C24 4058   2.400   1.653   8.397
   55CHL1  H24A 4059   2.444   1.553   8.377
   55CHL1  H24B 4060   2.487   1.720   8.419
   55CHL1   C25 4061   2.324   1.636   8.536
   55CHL1   H25 4062   2.250   1.554   8.531
   55CHL1   C26 4063   2.427   1.592   8.641
   55CHL1  H26A 4064   2.503   1.520   8.603
   55CHL1  H26B 4065   2.489   1.677   8.679
   55CHL1  H26C 4066   2.376   1.536   8.722
   55CHL1   C27 4067   2.258   1.764   8.584
   55CHL1  H27A 4068   2.218   1.751   8.686
   55CHL1  H27B 4069   2.321   1.855   8.579
   55CHL1  H27C 4070   2.182   1.801   8.511
   56CHL1    C3 4071   1.453   6.422   6.941
   56CHL1    H3 4072   1.361   6.483   6.949
   56CHL1    O3 4073   1.450   6.353   6.815
   56CHL1   H3' 4074   1.537   6.311   6.808
   56CHL1    C4 4075   1.582   6.507   6.940
   56CHL1   H4A 4076   1.669   6.440   6.921
   56CHL1   H4B 4077   1.595   6.581   6.858
   56CHL1    C5 4078   1.591   6.574   7.079
   56CHL1    C6 4079   1.593   6.705   7.093
   56CHL1    H6 4080   1.591   6.751   6.994
   56CHL1    C7 4081   1.613   6.785   7.209
   56CHL1   H7A 4082   1.674   6.876   7.190
   56CHL1   H7B 4083   1.512   6.825   7.232
   56CHL1    C8 4084   1.655   6.694   7.326
   56CHL1    H8 4085   1.764   6.678   7.315
   56CHL1   C14 4086   1.630   6.762   7.462
   56CHL1   H14 4087   1.524   6.763   7.494
   56CHL1   C15 4088   1.668   6.910   7.463
   56CHL1  H15A 4089   1.758   6.925   7.399
   56CHL1  H15B 4090   1.579   6.964   7.423
   56CHL1   C16 4091   1.695   6.941   7.610
   56CHL1  H16A 4092   1.794   6.989   7.619
   56CHL1  H16B 4093   1.634   7.020   7.659
   56CHL1   C17 4094   1.677   6.807   7.690
   56CHL1   H17 4095   1.567   6.804   7.710
   56CHL1   C13 4096   1.702   6.701   7.579
   56CHL1   C18 4097   1.855   6.699   7.556
   56CHL1  H18A 4098   1.880   6.646   7.462
   56CHL1  H18B 4099   1.907   6.797   7.558
   56CHL1  H18C 4100   1.905   6.636   7.633
   56CHL1   C12 4101   1.650   6.558   7.594
   56CHL1  H12A 4102   1.698   6.492   7.669
   56CHL1  H12B 4103   1.547   6.583   7.626
   56CHL1   C11 4104   1.645   6.478   7.460
   56CHL1  H11A 4105   1.754   6.461   7.447
   56CHL1  H11B 4106   1.596   6.381   7.482
   56CHL1    C9 4107   1.590   6.552   7.334
   56CHL1    H9 4108   1.483   6.572   7.353
   56CHL1   C10 4109   1.612   6.472   7.201
   56CHL1   C19 4110   1.746   6.398   7.191
   56CHL1  H19A 4111   1.767   6.369   7.086
   56CHL1  H19B 4112   1.830   6.466   7.219
   56CHL1  H19C 4113   1.753   6.309   7.257
   56CHL1    C1 4114   1.485   6.381   7.192
   56CHL1   H1A 4115   1.471   6.298   7.264
   56CHL1   H1B 4116   1.401   6.453   7.190
   56CHL1    C2 4117   1.467   6.318   7.049
   56CHL1   H2A 4118   1.376   6.255   7.045
   56CHL1   H2B 4119   1.551   6.246   7.037
   56CHL1   C20 4120   1.754   6.808   7.828
   56CHL1   H20 4121   1.859   6.842   7.811
   56CHL1   C21 4122   1.751   6.666   7.893
   56CHL1  H21A 4123   1.788   6.585   7.827
   56CHL1  H21B 4124   1.645   6.652   7.924
   56CHL1  H21C 4125   1.818   6.663   7.981
   56CHL1   C22 4126   1.695   6.910   7.931
   56CHL1  H22A 4127   1.702   7.011   7.885
   56CHL1  H22B 4128   1.585   6.906   7.946
   56CHL1   C23 4129   1.755   6.927   8.072
   56CHL1  H23A 4130   1.755   6.836   8.135
   56CHL1  H23B 4131   1.865   6.938   8.062
   56CHL1   C24 4132   1.701   7.051   8.149
   56CHL1  H24A 4133   1.717   7.142   8.088
   56CHL1  H24B 4134   1.593   7.031   8.165
   56CHL1   C25 4135   1.750   7.081   8.299
   56CHL1   H25 4136   1.725   6.990   8.356
   56CHL1   C26 4137   1.901   7.104   8.315
   56CHL1  H26A 4138   1.923   7.196   8.256
   56CHL1  H26B 4139   1.953   7.021   8.264
   56CHL1  H26C 4140   1.943   7.133   8.414
   56CHL1   C27 4141   1.673   7.201   8.351
   56CHL1  H27A 4142   1.696   7.296   8.299
   56CHL1  H27B 4143   1.565   7.185   8.333
   56CHL1  H27C 4144   1.685   7.206   8.461
   57SAPC     N 4145   0.892   3.118  11.013
   57SAPC   C12 4146   0.987   3.033  10.926
   57SAPC  H12A 4147   1.014   2.944  10.981
   57SAPC  H12B 4148   1.082   3.084  10.922
   57SAPC   C13 4149   0.902   3.265  10.986
   57SAPC  H13A 4150   0.854   3.321  11.065
   57SAPC  H13B 4151   1.003   3.295  10.966
   57SAPC  H13C 4152   0.861   3.290  10.889
   57SAPC   C14 4153   0.752   3.077  11.001
   57SAPC  H14A 4154   0.682   3.138  11.055
   57SAPC  H14B 4155   0.724   3.082  10.896
   57SAPC  H14C 4156   0.738   2.981  11.047
   57SAPC   C15 4157   0.931   3.085  11.150
   57SAPC  H15A 4158   0.874   3.129  11.231
   57SAPC  H15B 4159   0.915   2.980  11.165
   57SAPC  H15C 4160   1.030   3.120  11.175
   57SAPC   C11 4161   0.949   2.992  10.779
   57SAPC  H11A 4162   0.869   2.915  10.769
   57SAPC  H11B 4163   1.038   2.941  10.734
   57SAPC     P 4164   1.026   3.216  10.661
   57SAPC   O13 4165   0.969   3.351  10.681
   57SAPC   O14 4166   1.154   3.186  10.724
   57SAPC   O12 4167   0.917   3.118  10.710
   57SAPC   O11 4168   1.046   3.190  10.503
   57SAPC    C1 4169   0.992   3.067  10.457
   57SAPC    HA 4170   1.024   2.986  10.526
   57SAPC    HB 4171   0.882   3.070  10.468
   57SAPC    C2 4172   1.042   3.035  10.313
   57SAPC    HS 4173   0.997   2.937  10.289
   57SAPC   O21 4174   1.189   3.054  10.303
   57SAPC   C21 4175   1.259   2.982  10.385
   57SAPC   O22 4176   1.216   2.883  10.443
   57SAPC   C22 4177   1.400   3.036  10.396
   57SAPC   H2R 4178   1.402   3.142  10.364
   57SAPC   H2S 4179   1.431   3.027  10.502
   57SAPC    C3 4180   0.976   3.131  10.211
   57SAPC    HX 4181   0.984   3.235  10.250
   57SAPC    HY 4182   0.866   3.116  10.215
   57SAPC   O31 4183   1.015   3.110  10.070
   57SAPC   C31 4184   1.130   3.178  10.033
   57SAPC   O32 4185   1.181   3.270  10.092
   57SAPC   C32 4186   1.186   3.130   9.896
   57SAPC   H2X 4187   1.124   3.045   9.861
   57SAPC   H2Y 4188   1.291   3.096   9.911
   57SAPC   C23 4189   1.497   2.952  10.310
   57SAPC   H3R 4190   1.517   2.853  10.357
   57SAPC   H3S 4191   1.598   2.998  10.308
   57SAPC   C24 4192   1.452   2.935  10.159
   57SAPC   H4R 4193   1.431   3.035  10.115
   57SAPC   H4S 4194   1.355   2.881  10.155
   57SAPC   C25 4195   1.550   2.872  10.065
   57SAPC   H5R 4196   1.650   2.917  10.071
   57SAPC   C26 4197   1.536   2.768   9.979
   57SAPC   H6R 4198   1.620   2.741   9.914
   57SAPC   C27 4199   1.417   2.677   9.972
   57SAPC   H7R 4200   1.390   2.641  10.074
   57SAPC   H7S 4201   1.443   2.583   9.918
   57SAPC   C28 4202   1.292   2.744   9.917
   57SAPC   H8R 4203   1.254   2.810   9.996
   57SAPC   C29 4204   1.264   2.751   9.783
   57SAPC   H9R 4205   1.171   2.801   9.752
   57SAPC  C210 4206   1.313   2.663   9.668
   57SAPC  H10R 4207   1.258   2.566   9.663
   57SAPC  H10S 4208   1.421   2.638   9.679
   57SAPC  C211 4209   1.302   2.735   9.540
   57SAPC  H11R 4210   1.266   2.838   9.550
   57SAPC  C212 4211   1.317   2.684   9.414
   57SAPC  H12R 4212   1.303   2.745   9.323
   57SAPC  C213 4213   1.331   2.538   9.380
   57SAPC  H13R 4214   1.229   2.500   9.360
   57SAPC  H13S 4215   1.373   2.492   9.472
   57SAPC  C214 4216   1.432   2.524   9.268
   57SAPC  H14R 4217   1.524   2.582   9.286
   57SAPC  C215 4218   1.422   2.459   9.158
   57SAPC  H15R 4219   1.505   2.442   9.087
   57SAPC  C216 4220   1.307   2.367   9.117
   57SAPC  H16R 4221   1.216   2.395   9.173
   57SAPC  H16S 4222   1.335   2.262   9.139
   57SAPC  C217 4223   1.277   2.390   8.966
   57SAPC  H17R 4224   1.286   2.497   8.935
   57SAPC  H17S 4225   1.172   2.380   8.930
   57SAPC  C218 4226   1.354   2.289   8.872
   57SAPC  H18R 4227   1.460   2.287   8.906
   57SAPC  H18S 4228   1.364   2.328   8.768
   57SAPC  C219 4229   1.294   2.153   8.882
   57SAPC  H19R 4230   1.184   2.157   8.873
   57SAPC  H19S 4231   1.321   2.107   8.980
   57SAPC  C220 4232   1.346   2.057   8.771
   57SAPC  H20R 4233   1.341   1.948   8.791
   57SAPC  H20S 4234   1.455   2.077   8.765
   57SAPC  H20T 4235   1.286   2.082   8.681
   57SAPC   C33 4236   1.179   3.258   9.800
   57SAPC   H3X 4237   1.226   3.348   9.845
   57SAPC   H3Y 4238   1.074   3.291   9.785
   57SAPC   C34 4239   1.247   3.246   9.661
   57SAPC   H4X 4240   1.340   3.190   9.681
   57SAPC   H4Y 4241   1.277   3.348   9.629
   57SAPC   C35 4242   1.142   3.192   9.562
   57SAPC   H5X 4243   1.062   3.269   9.566
   57SAPC   H5Y 4244   1.111   3.095   9.605
   57SAPC   C36 4245   1.185   3.187   9.411
   57SAPC   H6X 4246   1.231   3.088   9.391
   57SAPC   H6Y 4247   1.272   3.257   9.409
   57SAPC   C37 4248   1.073   3.232   9.325
   57SAPC   H7X 4249   1.016   3.323   9.355
   57SAPC   H7Y 4250   0.996   3.152   9.333
   57SAPC   C38 4251   1.113   3.242   9.179
   57SAPC   H8X 4252   1.163   3.146   9.153
   57SAPC   H8Y 4253   1.176   3.332   9.160
   57SAPC   C39 4254   0.983   3.258   9.107
   57SAPC   H9X 4255   0.942   3.358   9.135
   57SAPC   H9Y 4256   0.909   3.184   9.145
   57SAPC  C310 4257   0.995   3.238   8.955
   57SAPC  H10X 4258   1.075   3.301   8.910
   57SAPC  H10Y 4259   0.907   3.269   8.895
   57SAPC  C311 4260   1.018   3.085   8.915
   57SAPC  H11X 4261   0.946   3.020   8.969
   57SAPC  H11Y 4262   1.113   3.049   8.958
   57SAPC  C312 4263   1.007   3.057   8.761
   57SAPC  H12X 4264   1.096   3.116   8.729
   57SAPC  H12Y 4265   0.911   3.089   8.716
   57SAPC  C313 4266   1.040   2.911   8.721
   57SAPC  H13X 4267   0.964   2.843   8.765
   57SAPC  H13Y 4268   1.135   2.875   8.766
   57SAPC  C314 4269   1.043   2.893   8.569
   57SAPC  H14X 4270   1.137   2.925   8.520
   57SAPC  H14Y 4271   0.960   2.951   8.524
   57SAPC  C315 4272   1.028   2.745   8.523
   57SAPC  H15X 4273   1.024   2.749   8.412
   57SAPC  H15Y 4274   0.933   2.694   8.547
   57SAPC  C316 4275   1.148   2.651   8.552
   57SAPC  H16X 4276   1.159   2.651   8.663
   57SAPC  H16Y 4277   1.245   2.695   8.521
   57SAPC  C317 4278   1.120   2.507   8.508
   57SAPC  H17X 4279   1.110   2.506   8.397
   57SAPC  H17Y 4280   1.032   2.472   8.566
   57SAPC  C318 4281   1.236   2.408   8.537
   57SAPC  H18X 4282   1.210   2.364   8.636
   57SAPC  H18Y 4283   1.342   2.441   8.534
   57SAPC  H18Z 4284   1.231   2.323   8.467
   58SAPC     N 4285   3.369   1.011  10.878
   58SAPC   C12 4286   3.353   1.134  10.797
   58SAPC  H12A 4287   3.423   1.213  10.821
   58SAPC  H12B 4288   3.251   1.171  10.799
   58SAPC   C13 4289   3.316   1.044  11.014
   58SAPC  H13A 4290   3.346   0.973  11.090
   58SAPC  H13B 4291   3.353   1.142  11.039
   58SAPC  H13C 4292   3.210   1.061  11.016
   58SAPC   C14 4293   3.297   0.893  10.820
   58SAPC  H14A 4294   3.306   0.804  10.881
   58SAPC  H14B 4295   3.193   0.919  10.816
   58SAPC  H14C 4296   3.337   0.871  10.722
   58SAPC   C15 4297   3.515   0.983  10.892
   58SAPC  H15A 4298   3.556   0.972  10.792
   58SAPC  H15B 4299   3.571   1.064  10.937
   58SAPC  H15C 4300   3.546   0.899  10.952
   58SAPC   C11 4301   3.391   1.126  10.647
   58SAPC  H11A 4302   3.349   1.216  10.598
   58SAPC  H11B 4303   3.321   1.050  10.605
   58SAPC     P 4304   3.648   1.203  10.662
   58SAPC   O13 4305   3.606   1.276  10.779
   58SAPC   O14 4306   3.769   1.124  10.683
   58SAPC   O12 4307   3.527   1.103  10.619
   58SAPC   O11 4308   3.656   1.303  10.536
   58SAPC    C1 4309   3.568   1.312  10.418
   58SAPC    HA 4310   3.469   1.288  10.462
   58SAPC    HB 4311   3.570   1.414  10.375
   58SAPC    C2 4312   3.589   1.201  10.310
   58SAPC    HS 4313   3.620   1.103  10.351
   58SAPC   O21 4314   3.688   1.252  10.231
   58SAPC   C21 4315   3.773   1.166  10.166
   58SAPC   O22 4316   3.781   1.045  10.185
   58SAPC   C22 4317   3.854   1.244  10.068
   58SAPC   H2R 4318   3.786   1.320  10.024
   58SAPC   H2S 4319   3.933   1.303  10.118
   58SAPC    C3 4320   3.456   1.177  10.233
   58SAPC    HX 4321   3.436   1.262  10.165
   58SAPC    HY 4322   3.363   1.169  10.293
   58SAPC   O31 4323   3.461   1.060  10.147
   58SAPC   C31 4324   3.453   0.938  10.208
   58SAPC   O32 4325   3.410   0.921  10.317
   58SAPC   C32 4326   3.515   0.825  10.127
   58SAPC   H2X 4327   3.450   0.735  10.123
   58SAPC   H2Y 4328   3.606   0.808  10.188
   58SAPC   C23 4329   3.921   1.151   9.958
   58SAPC   H3R 4330   3.885   1.049   9.980
   58SAPC   H3S 4331   4.031   1.160   9.952
   58SAPC   C24 4332   3.870   1.200   9.823
   58SAPC   H4R 4333   3.932   1.163   9.740
   58SAPC   H4S 4334   3.892   1.308   9.811
   58SAPC   C25 4335   3.721   1.166   9.803
   58SAPC   H5R 4336   3.655   1.188   9.888
   58SAPC   C26 4337   3.668   1.112   9.688
   58SAPC   H6R 4338   3.559   1.101   9.684
   58SAPC   C27 4339   3.753   1.076   9.562
   58SAPC   H7R 4340   3.840   1.017   9.599
   58SAPC   H7S 4341   3.797   1.162   9.507
   58SAPC   C28 4342   3.679   0.989   9.463
   58SAPC   H8R 4343   3.585   0.936   9.485
   58SAPC   C29 4344   3.729   0.949   9.344
   58SAPC   H9R 4345   3.664   0.882   9.287
   58SAPC  C210 4346   3.859   1.006   9.294
   58SAPC  H10R 4347   3.901   0.930   9.225
   58SAPC  H10S 4348   3.938   1.026   9.369
   58SAPC  C211 4349   3.843   1.138   9.226
   58SAPC  H11R 4350   3.809   1.213   9.298
   58SAPC  C212 4351   3.879   1.163   9.102
   58SAPC  H12R 4352   3.839   1.257   9.060
   58SAPC  C213 4353   3.942   1.075   9.000
   58SAPC  H13R 4354   3.914   1.114   8.899
   58SAPC  H13S 4355   3.884   0.981   9.012
   58SAPC  C214 4356   4.096   1.058   9.008
   58SAPC  H14R 4357   4.140   1.123   9.085
   58SAPC  C215 4358   4.182   0.986   8.931
   58SAPC  H15R 4359   4.290   0.993   8.948
   58SAPC  C216 4360   4.129   0.901   8.818
   58SAPC  H16R 4361   4.029   0.860   8.846
   58SAPC  H16S 4362   4.195   0.812   8.802
   58SAPC  C217 4363   4.091   0.974   8.682
   58SAPC  H17R 4364   4.173   1.037   8.642
   58SAPC  H17S 4365   4.003   1.041   8.700
   58SAPC  C218 4366   4.037   0.865   8.587
   58SAPC  H18R 4367   3.954   0.809   8.636
   58SAPC  H18S 4368   4.122   0.794   8.577
   58SAPC  C219 4369   3.978   0.911   8.453
   58SAPC  H19R 4370   4.051   0.962   8.385
   58SAPC  H19S 4371   3.899   0.989   8.461
   58SAPC  C220 4372   3.915   0.796   8.372
   58SAPC  H20R 4373   3.880   0.833   8.273
   58SAPC  H20S 4374   3.844   0.741   8.437
   58SAPC  H20T 4375   4.003   0.730   8.353
   58SAPC   C33 4376   3.565   0.855   9.987
   58SAPC   H3X 4377   3.647   0.930   9.996
   58SAPC   H3Y 4378   3.483   0.900   9.928
   58SAPC   C34 4379   3.611   0.725   9.916
   58SAPC   H4X 4380   3.535   0.644   9.917
   58SAPC   H4Y 4381   3.702   0.695   9.972
   58SAPC   C35 4382   3.647   0.746   9.768
   58SAPC   H5X 4383   3.725   0.823   9.747
   58SAPC   H5Y 4384   3.549   0.761   9.719
   58SAPC   C36 4385   3.695   0.613   9.699
   58SAPC   H6X 4386   3.632   0.531   9.740
   58SAPC   H6Y 4387   3.798   0.600   9.739
   58SAPC   C37 4388   3.696   0.620   9.547
   58SAPC   H7X 4389   3.745   0.716   9.520
   58SAPC   H7Y 4390   3.590   0.608   9.517
   58SAPC   C38 4391   3.764   0.492   9.493
   58SAPC   H8X 4392   3.701   0.406   9.527
   58SAPC   H8Y 4393   3.865   0.483   9.537
   58SAPC   C39 4394   3.781   0.494   9.342
   58SAPC   H9X 4395   3.686   0.534   9.300
   58SAPC   H9Y 4396   3.806   0.394   9.301
   58SAPC  C310 4397   3.893   0.589   9.300
   58SAPC  H10X 4398   3.987   0.576   9.357
   58SAPC  H10Y 4399   3.864   0.690   9.338
   58SAPC  C311 4400   3.915   0.578   9.148
   58SAPC  H11X 4401   3.957   0.672   9.106
   58SAPC  H11Y 4402   3.818   0.550   9.102
   58SAPC  C312 4403   4.018   0.465   9.108
   58SAPC  H12X 4404   3.983   0.378   9.169
   58SAPC  H12Y 4405   4.121   0.501   9.131
   58SAPC  C313 4406   4.012   0.434   8.959
   58SAPC  H13X 4407   4.065   0.512   8.900
   58SAPC  H13Y 4408   3.908   0.429   8.922
   58SAPC  C314 4409   4.082   0.300   8.920
   58SAPC  H14X 4410   4.034   0.226   8.988
   58SAPC  H14Y 4411   4.190   0.307   8.946
   58SAPC  C315 4412   4.072   0.258   8.777
   58SAPC  H15X 4413   3.964   0.275   8.753
   58SAPC  H15Y 4414   4.104   0.152   8.778
   58SAPC  C316 4415   4.152   0.342   8.683
   58SAPC  H16X 4416   4.252   0.370   8.724
   58SAPC  H16Y 4417   4.102   0.440   8.663
   58SAPC  C317 4418   4.158   0.276   8.546
   58SAPC  H17X 4419   4.059   0.234   8.516
   58SAPC  H17Y 4420   4.230   0.193   8.562
   58SAPC  C318 4421   4.213   0.374   8.441
   58SAPC  H18X 4422   4.253   0.322   8.352
   58SAPC  H18Y 4423   4.297   0.433   8.482
   58SAPC  H18Z 4424   4.136   0.445   8.402
   59SAPC     N 4425   4.289   2.643  11.029
   59SAPC   C12 4426   4.417   2.715  10.995
   59SAPC  H12A 4427   4.448   2.773  11.081
   59SAPC  H12B 4428   4.393   2.790  10.922
   59SAPC   C13 4429   4.187   2.747  11.072
   59SAPC  H13A 4430   4.095   2.702  11.107
   59SAPC  H13B 4431   4.233   2.817  11.140
   59SAPC  H13C 4432   4.151   2.817  10.998
   59SAPC   C14 4433   4.251   2.560  10.911
   59SAPC  H14A 4434   4.246   2.617  10.819
   59SAPC  H14B 4435   4.326   2.482  10.904
   59SAPC  H14C 4436   4.157   2.511  10.931
   59SAPC   C15 4437   4.302   2.560  11.154
   59SAPC  H15A 4438   4.360   2.471  11.134
   59SAPC  H15B 4439   4.347   2.622  11.230
   59SAPC  H15C 4440   4.203   2.525  11.180
   59SAPC   C11 4441   4.540   2.636  10.943
   59SAPC  H11A 4442   4.622   2.711  10.937
   59SAPC  H11B 4443   4.525   2.590  10.843
   59SAPC     P 4444   4.675   2.541  11.157
   59SAPC   O13 4445   4.700   2.685  11.173
   59SAPC   O14 4446   4.600   2.482  11.275
   59SAPC   O12 4447   4.571   2.531  11.033
   59SAPC   O11 4448   4.805   2.457  11.127
   59SAPC    C1 4449   4.801   2.330  11.061
   59SAPC    HA 4450   4.886   2.278  11.110
   59SAPC    HB 4451   4.707   2.278  11.087
   59SAPC    C2 4452   4.859   2.333  10.916
   59SAPC    HS 4453   4.891   2.230  10.889
   59SAPC   O21 4454   4.961   2.434  10.905
   59SAPC   C21 4455   5.079   2.390  10.929
   59SAPC   O22 4456   5.108   2.285  10.983
   59SAPC   C22 4457   5.185   2.486  10.866
   59SAPC   H2R 4458   5.174   2.572  10.936
   59SAPC   H2S 4459   5.286   2.439  10.877
   59SAPC    C3 4460   4.741   2.359  10.817
   59SAPC    HX 4461   4.729   2.469  10.824
   59SAPC    HY 4462   4.652   2.301  10.851
   59SAPC   O31 4463   4.782   2.318  10.686
   59SAPC   C31 4464   4.766   2.188  10.657
   59SAPC   O32 4465   4.725   2.105  10.738
   59SAPC   C32 4466   4.811   2.163  10.517
   59SAPC   H2X 4467   4.733   2.137  10.444
   59SAPC   H2Y 4468   4.879   2.075  10.524
   59SAPC   C23 4469   5.170   2.518  10.702
   59SAPC   H3R 4470   5.215   2.617  10.680
   59SAPC   H3S 4471   5.066   2.511  10.665
   59SAPC   C24 4472   5.257   2.420  10.618
   59SAPC   H4R 4473   5.361   2.432  10.656
   59SAPC   H4S 4474   5.244   2.458  10.514
   59SAPC   C25 4475   5.214   2.276  10.628
   59SAPC   H5R 4476   5.132   2.247  10.694
   59SAPC   C26 4477   5.276   2.184  10.547
   59SAPC   H6R 4478   5.242   2.080  10.546
   59SAPC   C27 4479   5.390   2.215  10.450
   59SAPC   H7R 4480   5.385   2.315  10.404
   59SAPC   H7S 4481   5.374   2.153  10.359
   59SAPC   C28 4482   5.532   2.195  10.513
   59SAPC   H8R 4483   5.541   2.227  10.618
   59SAPC   C29 4484   5.637   2.155  10.441
   59SAPC   H9R 4485   5.734   2.148  10.491
   59SAPC  C210 4486   5.633   2.105  10.304
   59SAPC  H10R 4487   5.655   2.184  10.229
   59SAPC  H10S 4488   5.537   2.058  10.274
   59SAPC  C211 4489   5.749   2.003  10.292
   59SAPC  H11R 4490   5.783   1.951  10.383
   59SAPC  C212 4491   5.809   1.975  10.174
   59SAPC  H12R 4492   5.897   1.909  10.171
   59SAPC  C213 4493   5.785   2.033  10.036
   59SAPC  H13R 4494   5.676   2.050  10.034
   59SAPC  H13S 4495   5.813   1.963   9.954
   59SAPC  C214 4496   5.851   2.167  10.015
   59SAPC  H14R 4497   5.909   2.211  10.098
   59SAPC  C215 4498   5.844   2.244   9.905
   59SAPC  H15R 4499   5.899   2.338   9.891
   59SAPC  C216 4500   5.778   2.202   9.777
   59SAPC  H16R 4501   5.725   2.286   9.729
   59SAPC  H16S 4502   5.695   2.135   9.808
   59SAPC  C217 4503   5.867   2.120   9.686
   59SAPC  H17R 4504   5.813   2.065   9.605
   59SAPC  H17S 4505   5.932   2.056   9.748
   59SAPC  C218 4506   5.957   2.219   9.608
   59SAPC  H18R 4507   6.052   2.171   9.575
   59SAPC  H18S 4508   5.983   2.313   9.661
   59SAPC  C219 4509   5.877   2.258   9.484
   59SAPC  H19R 4510   5.795   2.317   9.531
   59SAPC  H19S 4511   5.840   2.167   9.431
   59SAPC  C220 4512   5.947   2.347   9.379
   59SAPC  H20R 4513   5.876   2.376   9.299
   59SAPC  H20S 4514   6.035   2.300   9.330
   59SAPC  H20T 4515   5.982   2.439   9.429
   59SAPC   C33 4516   4.895   2.276  10.453
   59SAPC   H3X 4517   4.970   2.318  10.524
   59SAPC   H3Y 4518   4.824   2.358  10.435
   59SAPC   C34 4519   4.952   2.240  10.317
   59SAPC   H4X 4520   4.877   2.174  10.267
   59SAPC   H4Y 4521   5.046   2.181  10.329
   59SAPC   C35 4522   4.993   2.352  10.223
   59SAPC   H5X 4523   5.077   2.405  10.273
   59SAPC   H5Y 4524   4.913   2.428  10.213
   59SAPC   C36 4525   5.032   2.289  10.092
   59SAPC   H6X 4526   4.969   2.202  10.064
   59SAPC   H6Y 4527   5.131   2.246  10.117
   59SAPC   C37 4528   5.045   2.395   9.973
   59SAPC   H7X 4529   5.141   2.449   9.990
   59SAPC   H7Y 4530   4.965   2.472   9.972
   59SAPC   C38 4531   5.043   2.320   9.834
   59SAPC   H8X 4532   4.964   2.243   9.841
   59SAPC   H8Y 4533   5.139   2.265   9.827
   59SAPC   C39 4534   5.031   2.421   9.717
   59SAPC   H9X 4535   5.122   2.485   9.720
   59SAPC   H9Y 4536   4.937   2.477   9.738
   59SAPC  C310 4537   5.025   2.361   9.580
   59SAPC  H10X 4538   4.928   2.308   9.575
   59SAPC  H10Y 4539   5.105   2.284   9.566
   59SAPC  C311 4540   5.017   2.462   9.467
   59SAPC  H11X 4541   5.108   2.525   9.464
   59SAPC  H11Y 4542   4.930   2.524   9.496
   59SAPC  C312 4543   5.003   2.398   9.323
   59SAPC  H12X 4544   4.958   2.463   9.245
   59SAPC  H12Y 4545   4.939   2.308   9.329
   59SAPC  C313 4546   5.150   2.366   9.271
   59SAPC  H13X 4547   5.190   2.288   9.339
   59SAPC  H13Y 4548   5.214   2.457   9.275
   59SAPC  C314 4549   5.168   2.312   9.131
   59SAPC  H14X 4550   5.107   2.220   9.115
   59SAPC  H14Y 4551   5.272   2.283   9.106
   59SAPC  C315 4552   5.140   2.411   9.021
   59SAPC  H15X 4553   5.208   2.495   9.047
   59SAPC  H15Y 4554   5.035   2.450   9.019
   59SAPC  C316 4555   5.185   2.340   8.885
   59SAPC  H16X 4556   5.118   2.252   8.872
   59SAPC  H16Y 4557   5.292   2.311   8.901
   59SAPC  C317 4558   5.169   2.427   8.763
   59SAPC  H17X 4559   5.219   2.525   8.776
   59SAPC  H17Y 4560   5.059   2.438   8.754
   59SAPC  C318 4561   5.222   2.356   8.639
   59SAPC  H18X 4562   5.333   2.348   8.631
   59SAPC  H18Y 4563   5.189   2.413   8.550
   59SAPC  H18Z 4564   5.189   2.250   8.636
   60SAPC     N 4565   0.191   0.510  10.950
   60SAPC   C12 4566   0.259   0.512  10.811
   60SAPC  H12A 4567   0.252   0.421  10.754
   60SAPC  H12B 4568   0.361   0.542  10.828
   60SAPC   C13 4569   0.251   0.417  11.045
   60SAPC  H13A 4570   0.350   0.451  11.071
   60SAPC  H13B 4571   0.200   0.411  11.140
   60SAPC  H13C 4572   0.265   0.316  11.009
   60SAPC   C14 4573   0.192   0.644  11.012
   60SAPC  H14A 4574   0.144   0.717  10.948
   60SAPC  H14B 4575   0.158   0.643  11.114
   60SAPC  H14C 4576   0.298   0.667  11.022
   60SAPC   C15 4577   0.049   0.466  10.932
   60SAPC  H15A 4578   0.031   0.365  10.897
   60SAPC  H15B 4579   0.006   0.462  11.031
   60SAPC  H15C 4580  -0.012   0.537  10.878
   60SAPC   C11 4581   0.212   0.617  10.708
   60SAPC  H11A 4582   0.101   0.619  10.711
   60SAPC  H11B 4583   0.234   0.571  10.609
   60SAPC     P 4584   0.405   0.792  10.660
   60SAPC   O13 4585   0.470   0.899  10.736
   60SAPC   O14 4586   0.483   0.675  10.628
   60SAPC   O12 4587   0.268   0.752  10.732
   60SAPC   O11 4588   0.356   0.854  10.525
   60SAPC    C1 4589   0.224   0.920  10.511
   60SAPC    HA 4590   0.148   0.889  10.586
   60SAPC    HB 4591   0.235   1.026  10.545
   60SAPC    C2 4592   0.158   0.909  10.368
   60SAPC    HS 4593   0.057   0.956  10.370
   60SAPC   O21 4594   0.142   0.770  10.327
   60SAPC   C21 4595   0.054   0.707  10.404
   60SAPC   O22 4596  -0.014   0.757  10.492
   60SAPC   C22 4597   0.058   0.554  10.372
   60SAPC   H2R 4598   0.160   0.526  10.338
   60SAPC   H2S 4599   0.034   0.506  10.470
   60SAPC    C3 4600   0.237   0.985  10.260
   60SAPC    HX 4601   0.343   0.952  10.258
   60SAPC    HY 4602   0.243   1.090  10.298
   60SAPC   O31 4603   0.169   0.984  10.131
   60SAPC   C31 4604   0.212   0.888  10.044
   60SAPC   O32 4605   0.295   0.806  10.071
   60SAPC   C32 4606   0.151   0.902   9.904
   60SAPC   H2X 4607   0.147   1.009   9.872
   60SAPC   H2Y 4608   0.042   0.884   9.906
   60SAPC   C23 4609  -0.040   0.501  10.262
   60SAPC   H3R 4610  -0.146   0.498  10.294
   60SAPC   H3S 4611  -0.009   0.395  10.253
   60SAPC   C24 4612  -0.024   0.560  10.116
   60SAPC   H4R 4613  -0.061   0.477  10.052
   60SAPC   H4S 4614   0.086   0.572  10.104
   60SAPC   C25 4615  -0.082   0.692  10.092
   60SAPC   H5R 4616  -0.104   0.754  10.180
   60SAPC   C26 4617  -0.151   0.722   9.978
   60SAPC   H6R 4618  -0.193   0.823   9.978
   60SAPC   C27 4619  -0.150   0.648   9.840
   60SAPC   H7R 4620  -0.198   0.553   9.871
   60SAPC   H7S 4621  -0.048   0.626   9.802
   60SAPC   C28 4622  -0.238   0.719   9.741
   60SAPC   H8R 4623  -0.261   0.824   9.761
   60SAPC   C29 4624  -0.285   0.658   9.631
   60SAPC   H9R 4625  -0.335   0.725   9.559
   60SAPC  C210 4626  -0.263   0.511   9.589
   60SAPC  H10R 4627  -0.357   0.452   9.590
   60SAPC  H10S 4628  -0.223   0.450   9.673
   60SAPC  C211 4629  -0.179   0.492   9.466
   60SAPC  H11R 4630  -0.094   0.561   9.476
   60SAPC  C212 4631  -0.184   0.425   9.351
   60SAPC  H12R 4632  -0.110   0.448   9.273
   60SAPC  C213 4633  -0.289   0.329   9.301
   60SAPC  H13R 4634  -0.374   0.379   9.248
   60SAPC  H13S 4635  -0.338   0.279   9.387
   60SAPC  C214 4636  -0.231   0.227   9.209
   60SAPC  H14R 4637  -0.123   0.239   9.194
   60SAPC  C215 4638  -0.296   0.167   9.106
   60SAPC  H15R 4639  -0.226   0.112   9.042
   60SAPC  C216 4640  -0.440   0.151   9.080
   60SAPC  H16R 4641  -0.504   0.181   9.165
   60SAPC  H16S 4642  -0.472   0.046   9.062
   60SAPC  C217 4643  -0.471   0.227   8.952
   60SAPC  H17R 4644  -0.401   0.198   8.870
   60SAPC  H17S 4645  -0.455   0.336   8.968
   60SAPC  C218 4646  -0.604   0.192   8.882
   60SAPC  H18R 4647  -0.686   0.233   8.944
   60SAPC  H18S 4648  -0.612   0.081   8.881
   60SAPC  C219 4649  -0.621   0.246   8.749
   60SAPC  H19R 4650  -0.549   0.197   8.679
   60SAPC  H19S 4651  -0.609   0.356   8.734
   60SAPC  C220 4652  -0.762   0.213   8.694
   60SAPC  H20R 4653  -0.758   0.241   8.587
   60SAPC  H20S 4654  -0.840   0.285   8.729
   60SAPC  H20T 4655  -0.790   0.106   8.706
   60SAPC   C33 4656   0.216   0.805   9.805
   60SAPC   H3X 4657   0.216   0.704   9.851
   60SAPC   H3Y 4658   0.324   0.833   9.806
   60SAPC   C34 4659   0.157   0.806   9.663
   60SAPC   H4X 4660   0.176   0.908   9.623
   60SAPC   H4Y 4661   0.050   0.777   9.659
   60SAPC   C35 4662   0.234   0.706   9.572
   60SAPC   H5X 4663   0.206   0.601   9.594
   60SAPC   H5Y 4664   0.343   0.711   9.590
   60SAPC   C36 4665   0.207   0.757   9.422
   60SAPC   H6X 4666   0.203   0.868   9.418
   60SAPC   H6Y 4667   0.109   0.715   9.389
   60SAPC   C37 4668   0.320   0.706   9.333
   60SAPC   H7X 4669   0.317   0.595   9.331
   60SAPC   H7Y 4670   0.408   0.755   9.380
   60SAPC   C38 4671   0.312   0.757   9.185
   60SAPC   H8X 4672   0.299   0.868   9.184
   60SAPC   H8Y 4673   0.222   0.710   9.140
   60SAPC   C39 4674   0.432   0.723   9.101
   60SAPC   H9X 4675   0.492   0.633   9.124
   60SAPC   H9Y 4676   0.500   0.810   9.115
   60SAPC  C310 4677   0.407   0.723   8.951
   60SAPC  H10X 4678   0.510   0.734   8.911
   60SAPC  H10Y 4679   0.345   0.812   8.929
   60SAPC  C311 4680   0.350   0.591   8.892
   60SAPC  H11X 4681   0.424   0.512   8.919
   60SAPC  H11Y 4682   0.331   0.599   8.783
   60SAPC  C312 4683   0.225   0.535   8.948
   60SAPC  H12X 4684   0.150   0.615   8.964
   60SAPC  H12Y 4685   0.230   0.479   9.044
   60SAPC  C313 4686   0.161   0.418   8.860
   60SAPC  H13X 4687   0.221   0.325   8.868
   60SAPC  H13Y 4688   0.162   0.438   8.751
   60SAPC  C314 4689   0.009   0.396   8.894
   60SAPC  H14X 4690  -0.036   0.490   8.932
   60SAPC  H14Y 4691  -0.001   0.309   8.962
   60SAPC  C315 4692  -0.076   0.367   8.763
   60SAPC  H15X 4693  -0.064   0.453   8.694
   60SAPC  H15Y 4694  -0.182   0.377   8.794
   60SAPC  C316 4695  -0.042   0.233   8.685
   60SAPC  H16X 4696  -0.038   0.141   8.747
   60SAPC  H16Y 4697   0.053   0.244   8.629
   60SAPC  C317 4698  -0.151   0.198   8.578
   60SAPC  H17X 4699  -0.163   0.284   8.510
   60SAPC  H17Y 4700  -0.237   0.179   8.647
   60SAPC  C318 4701  -0.126   0.082   8.489
   60SAPC  H18X 4702  -0.056   0.113   8.408
   60SAPC  H18Y 4703  -0.222   0.055   8.440
   60SAPC  H18Z 4704  -0.081  -0.007   8.539
   61SAPC     N 4705   0.886   6.032  10.840
   61SAPC   C12 4706   0.774   6.127  10.806
   61SAPC  H12A 4707   0.703   6.082  10.739
   61SAPC  H12B 4708   0.825   6.206  10.752
   61SAPC   C13 4709   0.832   5.918  10.916
   61SAPC  H13A 4710   0.750   5.864  10.871
   61SAPC  H13B 4711   0.903   5.843  10.947
   61SAPC  H13C 4712   0.793   5.946  11.013
   61SAPC   C14 4713   0.953   5.975  10.720
   61SAPC  H14A 4714   0.995   6.063  10.673
   61SAPC  H14B 4715   1.031   5.902  10.739
   61SAPC  H14C 4716   0.880   5.931  10.654
   61SAPC   C15 4717   0.987   6.109  10.919
   61SAPC  H15A 4718   1.050   6.045  10.980
   61SAPC  H15B 4719   1.061   6.149  10.851
   61SAPC  H15C 4720   0.950   6.197  10.969
   61SAPC   C11 4721   0.681   6.197  10.906
   61SAPC  H11A 4722   0.640   6.122  10.977
   61SAPC  H11B 4723   0.589   6.234  10.856
   61SAPC     P 4724   0.757   6.451  10.934
   61SAPC   O13 4725   0.622   6.508  10.960
   61SAPC   O14 4726   0.866   6.506  11.015
   61SAPC   O12 4727   0.749   6.301  10.975
   61SAPC   O11 4728   0.793   6.443  10.781
   61SAPC    C1 4729   0.938   6.426  10.742
   61SAPC    HA 4730   1.001   6.505  10.788
   61SAPC    HB 4731   0.978   6.329  10.777
   61SAPC    C2 4732   0.965   6.427  10.591
   61SAPC    HS 4733   0.912   6.515  10.549
   61SAPC   O21 4734   0.916   6.308  10.528
   61SAPC   C21 4735   0.877   6.322  10.401
   61SAPC   O22 4736   0.870   6.424  10.335
   61SAPC   C22 4737   0.831   6.185  10.349
   61SAPC   H2R 4738   0.904   6.101  10.355
   61SAPC   H2S 4739   0.742   6.161  10.410
   61SAPC    C3 4740   1.117   6.432  10.571
   61SAPC    HX 4741   1.146   6.325  10.575
   61SAPC    HY 4742   1.154   6.492  10.656
   61SAPC   O31 4743   1.162   6.486  10.449
   61SAPC   C31 4744   1.294   6.500  10.428
   61SAPC   O32 4745   1.381   6.471  10.507
   61SAPC   C32 4746   1.322   6.557  10.294
   61SAPC   H2X 4747   1.430   6.582  10.287
   61SAPC   H2Y 4748   1.264   6.652  10.288
   61SAPC   C23 4749   0.779   6.198  10.202
   61SAPC   H3R 4750   0.701   6.277  10.198
   61SAPC   H3S 4751   0.727   6.105  10.168
   61SAPC   C24 4752   0.891   6.220  10.102
   61SAPC   H4R 4753   0.951   6.127  10.093
   61SAPC   H4S 4754   0.970   6.288  10.143
   61SAPC   C25 4755   0.851   6.273   9.964
   61SAPC   H5R 4756   0.818   6.378   9.960
   61SAPC   C26 4757   0.834   6.207   9.851
   61SAPC   H6R 4758   0.796   6.258   9.761
   61SAPC   C27 4759   0.863   6.059   9.834
   61SAPC   H7R 4760   0.765   6.012   9.809
   61SAPC   H7S 4761   0.886   6.003   9.927
   61SAPC   C28 4762   0.975   6.028   9.734
   61SAPC   H8R 4763   1.068   5.995   9.783
   61SAPC   C29 4764   0.968   6.032   9.601
   61SAPC   H9R 4765   1.060   6.013   9.544
   61SAPC  C210 4766   0.858   6.083   9.515
   61SAPC  H10R 4767   0.891   6.166   9.448
   61SAPC  H10S 4768   0.782   6.134   9.579
   61SAPC  C211 4769   0.784   5.979   9.434
   61SAPC  H11R 4770   0.721   5.913   9.495
   61SAPC  C212 4771   0.794   5.966   9.300
   61SAPC  H12R 4772   0.735   5.887   9.251
   61SAPC  C213 4773   0.893   6.045   9.217
   61SAPC  H13R 4774   0.986   6.041   9.278
   61SAPC  H13S 4775   0.861   6.151   9.219
   61SAPC  C214 4776   0.912   6.001   9.077
   61SAPC  H14R 4777   0.819   6.026   9.023
   61SAPC  C215 4778   1.006   5.939   9.011
   61SAPC  H15R 4779   0.970   5.910   8.911
   61SAPC  C216 4780   1.142   5.901   9.067
   61SAPC  H16R 4781   1.173   5.807   9.017
   61SAPC  H16S 4782   1.139   5.856   9.168
   61SAPC  C217 4783   1.246   6.017   9.074
   61SAPC  H17R 4784   1.345   5.972   9.097
   61SAPC  H17S 4785   1.227   6.068   9.170
   61SAPC  C218 4786   1.250   6.108   8.947
   61SAPC  H18R 4787   1.146   6.132   8.919
   61SAPC  H18S 4788   1.292   6.063   8.855
   61SAPC  C219 4789   1.331   6.236   8.970
   61SAPC  H19R 4790   1.305   6.290   9.064
   61SAPC  H19S 4791   1.309   6.310   8.890
   61SAPC  C220 4792   1.479   6.207   8.968
   61SAPC  H20R 4793   1.535   6.300   8.990
   61SAPC  H20S 4794   1.518   6.158   8.877
   61SAPC  H20T 4795   1.501   6.135   9.050
   61SAPC   C33 4796   1.283   6.469  10.175
   61SAPC   H3X 4797   1.182   6.427  10.191
   61SAPC   H3Y 4798   1.359   6.389  10.159
   61SAPC   C34 4799   1.272   6.547  10.037
   61SAPC   H4X 4800   1.357   6.615  10.014
   61SAPC   H4Y 4801   1.182   6.611  10.042
   61SAPC   C35 4802   1.247   6.441   9.926
   61SAPC   H5X 4803   1.149   6.392   9.942
   61SAPC   H5Y 4804   1.322   6.360   9.913
   61SAPC   C36 4805   1.239   6.512   9.791
   61SAPC   H6X 4806   1.338   6.563   9.783
   61SAPC   H6Y 4807   1.157   6.586   9.802
   61SAPC   C37 4808   1.196   6.419   9.674
   61SAPC   H7X 4809   1.092   6.388   9.698
   61SAPC   H7Y 4810   1.259   6.327   9.666
   61SAPC   C38 4811   1.173   6.493   9.541
   61SAPC   H8X 4812   1.267   6.550   9.522
   61SAPC   H8Y 4813   1.083   6.557   9.550
   61SAPC   C39 4814   1.158   6.393   9.430
   61SAPC   H9X 4815   1.095   6.311   9.471
   61SAPC   H9Y 4816   1.248   6.333   9.405
   61SAPC  C310 4817   1.091   6.448   9.306
   61SAPC  H10X 4818   1.001   6.505   9.336
   61SAPC  H10Y 4819   1.054   6.360   9.249
   61SAPC  C311 4820   1.192   6.529   9.223
   61SAPC  H11X 4821   1.288   6.473   9.225
   61SAPC  H11Y 4822   1.215   6.622   9.279
   61SAPC  C312 4823   1.141   6.569   9.085
   61SAPC  H12X 4824   1.030   6.579   9.092
   61SAPC  H12Y 4825   1.153   6.483   9.016
   61SAPC  C313 4826   1.198   6.700   9.031
   61SAPC  H13X 4827   1.304   6.681   9.005
   61SAPC  H13Y 4828   1.205   6.767   9.120
   61SAPC  C314 4829   1.115   6.766   8.915
   61SAPC  H14X 4830   1.160   6.866   8.898
   61SAPC  H14Y 4831   1.009   6.769   8.950
   61SAPC  C315 4832   1.127   6.700   8.772
   61SAPC  H15X 4833   1.098   6.594   8.784
   61SAPC  H15Y 4834   1.233   6.699   8.738
   61SAPC  C316 4835   1.038   6.766   8.668
   61SAPC  H16X 4836   1.077   6.869   8.661
   61SAPC  H16Y 4837   0.929   6.773   8.693
   61SAPC  C317 4838   1.042   6.700   8.533
   61SAPC  H17X 4839   1.145   6.666   8.506
   61SAPC  H17Y 4840   1.001   6.770   8.457
   61SAPC  C318 4841   0.955   6.578   8.525
   61SAPC  H18X 4842   0.995   6.487   8.574
   61SAPC  H18Y 4843   0.949   6.552   8.418
   61SAPC  H18Z 4844   0.849   6.583   8.560
   62SAPC     N 4845   0.010   5.476  10.804
   62SAPC   C12 4846   0.154   5.517  10.849
   62SAPC  H12A 4847   0.223   5.437  10.825
   62SAPC  H12B 4848   0.160   5.520  10.956
   62SAPC   C13 4849  -0.094   5.576  10.841
   62SAPC  H13A 4850  -0.105   5.580  10.948
   62SAPC  H13B 4851  -0.073   5.675  10.805
   62SAPC  H13C 4852  -0.189   5.549  10.797
   62SAPC   C14 4853   0.009   5.462  10.656
   62SAPC  H14A 4854   0.039   5.361  10.635
   62SAPC  H14B 4855  -0.089   5.487  10.616
   62SAPC  H14C 4856   0.079   5.530  10.611
   62SAPC   C15 4857  -0.029   5.345  10.863
   62SAPC  H15A 4858   0.034   5.264  10.831
   62SAPC  H15B 4859  -0.025   5.346  10.971
   62SAPC  H15C 4860  -0.126   5.303  10.843
   62SAPC   C11 4861   0.205   5.652  10.797
   62SAPC  H11A 4862   0.292   5.696  10.850
   62SAPC  H11B 4863   0.135   5.739  10.796
   62SAPC     P 4864   0.370   5.583  10.616
   62SAPC   O13 4865   0.478   5.648  10.688
   62SAPC   O14 4866   0.364   5.437  10.638
   62SAPC   O12 4867   0.231   5.640  10.655
   62SAPC   O11 4868   0.372   5.622  10.463
   62SAPC    C1 4869   0.245   5.606  10.392
   62SAPC    HA 4870   0.191   5.510  10.405
   62SAPC    HB 4871   0.186   5.697  10.411
   62SAPC    C2 4872   0.281   5.603  10.235
   62SAPC    HS 4873   0.349   5.517  10.216
   62SAPC   O21 4874   0.353   5.723  10.207
   62SAPC   C21 4875   0.432   5.725  10.108
   62SAPC   O22 4876   0.463   5.624  10.041
   62SAPC   C22 4877   0.491   5.861  10.087
   62SAPC   H2R 4878   0.412   5.936  10.110
   62SAPC   H2S 4879   0.566   5.871  10.168
   62SAPC    C3 4880   0.159   5.592  10.147
   62SAPC    HX 4881   0.099   5.685  10.157
   62SAPC    HY 4882   0.102   5.505  10.186
   62SAPC   O31 4883   0.200   5.578  10.008
   62SAPC   C31 4884   0.215   5.454   9.965
   62SAPC   O32 4885   0.200   5.354  10.032
   62SAPC   C32 4886   0.249   5.467   9.824
   62SAPC   H2X 4887   0.356   5.497   9.818
   62SAPC   H2Y 4888   0.192   5.553   9.781
   62SAPC   C23 4889   0.550   5.882   9.951
   62SAPC   H3R 4890   0.614   5.804   9.905
   62SAPC   H3S 4891   0.620   5.967   9.943
   62SAPC   C24 4892   0.435   5.914   9.854
   62SAPC   H4R 4893   0.370   5.992   9.900
   62SAPC   H4S 4894   0.385   5.816   9.842
   62SAPC   C25 4895   0.490   5.954   9.715
   62SAPC   H5R 4896   0.557   6.042   9.711
   62SAPC   C26 4897   0.460   5.881   9.597
   62SAPC   H6R 4898   0.484   5.929   9.501
   62SAPC   C27 4899   0.380   5.752   9.577
   62SAPC   H7R 4900   0.296   5.770   9.506
   62SAPC   H7S 4901   0.323   5.720   9.667
   62SAPC   C28 4902   0.473   5.650   9.522
   62SAPC   H8R 4903   0.523   5.603   9.607
   62SAPC   C29 4904   0.495   5.618   9.391
   62SAPC   H9R 4905   0.573   5.545   9.366
   62SAPC  C210 4906   0.429   5.699   9.288
   62SAPC  H10R 4907   0.469   5.802   9.300
   62SAPC  H10S 4908   0.319   5.711   9.299
   62SAPC  C211 4909   0.461   5.645   9.145
   62SAPC  H11R 4910   0.444   5.536   9.146
   62SAPC  C212 4911   0.495   5.707   9.029
   62SAPC  H12R 4912   0.500   5.646   8.937
   62SAPC  C213 4913   0.525   5.856   9.018
   62SAPC  H13R 4914   0.634   5.878   9.019
   62SAPC  H13S 4915   0.480   5.927   9.090
   62SAPC  C214 4916   0.478   5.933   8.886
   62SAPC  H14R 4917   0.402   6.012   8.893
   62SAPC  C215 4918   0.537   5.925   8.765
   62SAPC  H15R 4919   0.497   5.970   8.673
   62SAPC  C216 4920   0.657   5.840   8.736
   62SAPC  H16R 4921   0.731   5.838   8.819
   62SAPC  H16S 4922   0.718   5.893   8.659
   62SAPC  C217 4923   0.630   5.694   8.688
   62SAPC  H17R 4924   0.615   5.631   8.779
   62SAPC  H17S 4925   0.724   5.660   8.640
   62SAPC  C218 4926   0.523   5.685   8.581
   62SAPC  H18R 4927   0.522   5.759   8.498
   62SAPC  H18S 4928   0.426   5.705   8.631
   62SAPC  C219 4929   0.523   5.543   8.529
   62SAPC  H19R 4930   0.553   5.470   8.607
   62SAPC  H19S 4931   0.589   5.521   8.443
   62SAPC  C220 4932   0.387   5.493   8.468
   62SAPC  H20R 4933   0.366   5.532   8.366
   62SAPC  H20S 4934   0.297   5.518   8.527
   62SAPC  H20T 4935   0.386   5.384   8.445
   62SAPC   C33 4936   0.227   5.338   9.742
   62SAPC   H3X 4937   0.119   5.311   9.740
   62SAPC   H3Y 4938   0.282   5.251   9.783
   62SAPC   C34 4939   0.282   5.373   9.603
   62SAPC   H4X 4940   0.388   5.404   9.602
   62SAPC   H4Y 4941   0.233   5.469   9.577
   62SAPC   C35 4942   0.248   5.269   9.505
   62SAPC   H5X 4943   0.141   5.239   9.513
   62SAPC   H5Y 4944   0.305   5.175   9.522
   62SAPC   C36 4945   0.275   5.309   9.358
   62SAPC   H6X 4946   0.385   5.318   9.344
   62SAPC   H6Y 4947   0.220   5.405   9.355
   62SAPC   C37 4948   0.229   5.216   9.242
   62SAPC   H7X 4949   0.118   5.213   9.240
   62SAPC   H7Y 4950   0.270   5.114   9.256
   62SAPC   C38 4951   0.273   5.261   9.102
   62SAPC   H8X 4952   0.384   5.262   9.096
   62SAPC   H8Y 4953   0.233   5.363   9.087
   62SAPC   C39 4954   0.202   5.170   8.999
   62SAPC   H9X 4955   0.092   5.184   8.995
   62SAPC   H9Y 4956   0.222   5.066   9.034
   62SAPC  C310 4957   0.262   5.174   8.860
   62SAPC  H10X 4958   0.372   5.175   8.872
   62SAPC  H10Y 4959   0.241   5.275   8.820
   62SAPC  C311 4960   0.221   5.064   8.761
   62SAPC  H11X 4961   0.110   5.062   8.763
   62SAPC  H11Y 4962   0.250   4.972   8.817
   62SAPC  C312 4963   0.261   5.086   8.613
   62SAPC  H12X 4964   0.367   5.117   8.605
   62SAPC  H12Y 4965   0.199   5.160   8.558
   62SAPC  C313 4966   0.236   4.958   8.518
   62SAPC  H13X 4967   0.264   4.981   8.413
   62SAPC  H13Y 4968   0.126   4.942   8.526
   62SAPC  C314 4969   0.334   4.840   8.561
   62SAPC  H14X 4970   0.298   4.795   8.656
   62SAPC  H14Y 4971   0.432   4.887   8.584
   62SAPC  C315 4972   0.345   4.725   8.454
   62SAPC  H15X 4973   0.374   4.766   8.355
   62SAPC  H15Y 4974   0.242   4.683   8.446
   62SAPC  C316 4975   0.447   4.608   8.484
   62SAPC  H16X 4976   0.402   4.508   8.467
   62SAPC  H16Y 4977   0.455   4.584   8.592
   62SAPC  C317 4978   0.578   4.612   8.410
   62SAPC  H17X 4979   0.632   4.708   8.425
   62SAPC  H17Y 4980   0.552   4.607   8.302
   62SAPC  C318 4981   0.661   4.491   8.450
   62SAPC  H18X 4982   0.610   4.397   8.420
   62SAPC  H18Y 4983   0.660   4.488   8.561
   62SAPC  H18Z 4984   0.762   4.490   8.404
   63SAPC     N 4985   4.405   5.121   6.079
   63SAPC   C12 4986   4.364   5.145   6.220
   63SAPC  H12A 4987   4.282   5.081   6.251
   63SAPC  H12B 4988   4.332   5.247   6.231
   63SAPC   C13 4989   4.530   5.197   6.047
   63SAPC  H13A 4990   4.611   5.166   6.110
   63SAPC  H13B 4991   4.569   5.194   5.946
   63SAPC  H13C 4992   4.510   5.302   6.065
   63SAPC   C14 4993   4.434   4.977   6.045
   63SAPC  H14A 4994   4.342   4.922   6.060
   63SAPC  H14B 4995   4.476   4.961   5.947
   63SAPC  H14C 4996   4.509   4.939   6.113
   63SAPC   C15 4997   4.285   5.157   5.983
   63SAPC  H15A 4998   4.317   5.128   5.884
   63SAPC  H15B 4999   4.196   5.104   6.011
   63SAPC  H15C 5000   4.277   5.265   5.981
   63SAPC   C11 5001   4.479   5.112   6.318
   63SAPC  H11A 5002   4.463   5.175   6.408
   63SAPC  H11B 5003   4.584   5.140   6.292
   63SAPC     P 5004   4.377   4.905   6.435
   63SAPC   O13 5005   4.236   4.928   6.398
   63SAPC   O14 5006   4.414   4.767   6.456
   63SAPC   O12 5007   4.481   4.971   6.339
   63SAPC   O11 5008   4.406   4.979   6.571
   63SAPC    C1 5009   4.538   4.972   6.627
   63SAPC    HA 5010   4.598   4.882   6.599
   63SAPC    HB 5011   4.604   5.052   6.587
   63SAPC    C2 5012   4.550   4.968   6.782
   63SAPC    HS 5013   4.651   4.933   6.811
   63SAPC   O21 5014   4.451   4.889   6.845
   63SAPC   C21 5015   4.458   4.762   6.848
   63SAPC   O22 5016   4.546   4.694   6.793
   63SAPC   C22 5017   4.347   4.702   6.928
   63SAPC   H2R 5018   4.261   4.758   6.885
   63SAPC   H2S 5019   4.344   4.593   6.903
   63SAPC    C3 5020   4.533   5.106   6.847
   63SAPC    HX 5021   4.431   5.145   6.829
   63SAPC    HY 5022   4.601   5.175   6.792
   63SAPC   O31 5023   4.563   5.116   6.984
   63SAPC   C31 5024   4.680   5.124   7.010
   63SAPC   O32 5025   4.774   5.140   6.929
   63SAPC   C32 5026   4.710   5.122   7.160
   63SAPC   H2X 5027   4.632   5.067   7.216
   63SAPC   H2Y 5028   4.715   5.228   7.195
   63SAPC   C23 5029   4.354   4.732   7.087
   63SAPC   H3R 5030   4.260   4.699   7.135
   63SAPC   H3S 5031   4.370   4.839   7.111
   63SAPC   C24 5032   4.472   4.655   7.161
   63SAPC   H4R 5033   4.482   4.707   7.259
   63SAPC   H4S 5034   4.571   4.665   7.111
   63SAPC   C25 5035   4.420   4.512   7.200
   63SAPC   H5R 5036   4.403   4.448   7.112
   63SAPC   C26 5037   4.392   4.479   7.328
   63SAPC   H6R 5038   4.365   4.374   7.345
   63SAPC   C27 5039   4.409   4.549   7.457
   63SAPC   H7R 5040   4.337   4.507   7.531
   63SAPC   H7S 5041   4.373   4.654   7.450
   63SAPC   C28 5042   4.552   4.548   7.503
   63SAPC   H8R 5043   4.624   4.496   7.438
   63SAPC   C29 5044   4.595   4.618   7.608
   63SAPC   H9R 5045   4.702   4.619   7.633
   63SAPC  C210 5046   4.510   4.716   7.694
   63SAPC  H10R 5047   4.438   4.770   7.629
   63SAPC  H10S 5048   4.581   4.795   7.727
   63SAPC  C211 5049   4.429   4.646   7.801
   63SAPC  H11R 5050   4.337   4.591   7.774
   63SAPC  C212 5051   4.460   4.642   7.933
   63SAPC  H12R 5052   4.390   4.587   7.997
   63SAPC  C213 5053   4.579   4.710   7.997
   63SAPC  H13R 5054   4.555   4.805   8.049
   63SAPC  H13S 5055   4.654   4.739   7.920
   63SAPC  C214 5056   4.656   4.621   8.086
   63SAPC  H14R 5057   4.727   4.552   8.037
   63SAPC  C215 5058   4.639   4.613   8.216
   63SAPC  H15R 5059   4.705   4.550   8.277
   63SAPC  C216 5060   4.537   4.686   8.302
   63SAPC  H16R 5061   4.479   4.618   8.367
   63SAPC  H16S 5062   4.462   4.736   8.236
   63SAPC  C217 5063   4.600   4.795   8.386
   63SAPC  H17R 5064   4.673   4.734   8.443
   63SAPC  H17S 5065   4.527   4.836   8.459
   63SAPC  C218 5066   4.663   4.910   8.306
   63SAPC  H18R 5067   4.586   4.979   8.265
   63SAPC  H18S 5068   4.730   4.869   8.226
   63SAPC  C219 5069   4.755   4.995   8.390
   63SAPC  H19R 5070   4.725   4.998   8.496
   63SAPC  H19S 5071   4.746   5.096   8.343
   63SAPC  C220 5072   4.899   4.948   8.392
   63SAPC  H20R 5073   4.933   4.924   8.289
   63SAPC  H20S 5074   4.918   4.851   8.442
   63SAPC  H20T 5075   4.973   5.023   8.428
   63SAPC   C33 5076   4.852   5.059   7.179
   63SAPC   H3X 5077   4.926   5.108   7.113
   63SAPC   H3Y 5078   4.854   4.953   7.145
   63SAPC   C34 5079   4.907   5.071   7.322
   63SAPC   H4X 5080   4.858   4.992   7.382
   63SAPC   H4Y 5081   4.878   5.164   7.375
   63SAPC   C35 5082   5.053   5.056   7.319
   63SAPC   H5X 5083   5.085   5.148   7.267
   63SAPC   H5Y 5084   5.100   4.968   7.269
   63SAPC   C36 5085   5.113   5.066   7.459
   63SAPC   H6X 5086   5.099   4.970   7.512
   63SAPC   H6Y 5087   5.075   5.157   7.511
   63SAPC   C37 5088   5.261   5.084   7.456
   63SAPC   H7X 5089   5.297   5.177   7.406
   63SAPC   H7Y 5090   5.308   4.995   7.409
   63SAPC   C38 5091   5.320   5.081   7.600
   63SAPC   H8X 5092   5.323   4.977   7.638
   63SAPC   H8Y 5093   5.247   5.140   7.658
   63SAPC   C39 5094   5.454   5.153   7.622
   63SAPC   H9X 5095   5.456   5.176   7.730
   63SAPC   H9Y 5096   5.464   5.249   7.567
   63SAPC  C310 5097   5.575   5.060   7.604
   63SAPC  H10X 5098   5.589   5.018   7.502
   63SAPC  H10Y 5099   5.562   4.968   7.666
   63SAPC  C311 5100   5.702   5.132   7.646
   63SAPC  H11X 5101   5.721   5.130   7.755
   63SAPC  H11Y 5102   5.707   5.236   7.608
   63SAPC  C312 5103   5.834   5.066   7.599
   63SAPC  H12X 5104   5.824   4.962   7.637
   63SAPC  H12Y 5105   5.923   5.098   7.656
   63SAPC  C313 5106   5.853   5.064   7.446
   63SAPC  H13X 5107   5.907   5.155   7.410
   63SAPC  H13Y 5108   5.755   5.060   7.396
   63SAPC  C314 5109   5.945   4.948   7.411
   63SAPC  H14X 5110   5.888   4.859   7.446
   63SAPC  H14Y 5111   6.033   4.962   7.477
   63SAPC  C315 5112   5.972   4.940   7.264
   63SAPC  H15X 5113   6.056   4.871   7.239
   63SAPC  H15Y 5114   6.009   5.038   7.224
   63SAPC  C316 5115   5.849   4.904   7.177
   63SAPC  H16X 5116   5.768   4.978   7.195
   63SAPC  H16Y 5117   5.818   4.800   7.201
   63SAPC  C317 5118   5.890   4.891   7.021
   63SAPC  H17X 5119   5.981   4.827   7.016
   63SAPC  H17Y 5120   5.915   4.992   6.982
   63SAPC  C318 5121   5.781   4.836   6.942
   63SAPC  H18X 5122   5.732   4.750   6.994
   63SAPC  H18Y 5123   5.823   4.788   6.851
   63SAPC  H18Z 5124   5.703   4.912   6.921
   64SAPC     N 5125   6.712   5.241   6.057
   64SAPC   C12 5126   6.728   5.165   5.927
   64SAPC  H12A 5127   6.673   5.212   5.847
   64SAPC  H12B 5128   6.674   5.072   5.941
   64SAPC   C13 5129   6.787   5.367   6.068
   64SAPC  H13A 5130   6.769   5.417   6.162
   64SAPC  H13B 5131   6.891   5.341   6.059
   64SAPC  H13C 5132   6.762   5.434   5.987
   64SAPC   C14 5133   6.571   5.275   6.076
   64SAPC  H14A 5134   6.557   5.314   6.176
   64SAPC  H14B 5135   6.529   5.347   6.007
   64SAPC  H14C 5136   6.516   5.184   6.088
   64SAPC   C15 5137   6.753   5.157   6.177
   64SAPC  H15A 5138   6.855   5.121   6.168
   64SAPC  H15B 5139   6.737   5.220   6.263
   64SAPC  H15C 5140   6.696   5.066   6.184
   64SAPC   C11 5141   6.872   5.133   5.875
   64SAPC  H11A 5142   6.928   5.227   5.860
   64SAPC  H11B 5143   6.868   5.088   5.774
   64SAPC     P 5144   7.089   5.080   6.022
   64SAPC   O13 5145   7.182   4.973   5.979
   64SAPC   O14 5146   7.132   5.220   5.989
   64SAPC   O12 5147   6.943   5.049   5.965
   64SAPC   O11 5148   7.072   5.066   6.174
   64SAPC    C1 5149   7.045   4.937   6.229
   64SAPC    HA 5150   6.951   4.896   6.186
   64SAPC    HB 5151   7.127   4.866   6.204
   64SAPC    C2 5152   7.027   4.946   6.380
   64SAPC    HS 5153   6.945   5.019   6.398
   64SAPC   O21 5154   7.153   4.983   6.433
   64SAPC   C21 5155   7.160   5.083   6.524
   64SAPC   O22 5156   7.064   5.145   6.564
   64SAPC   C22 5157   7.307   5.114   6.563
   64SAPC   H2R 5158   7.344   5.139   6.461
   64SAPC   H2S 5159   7.304   5.209   6.621
   64SAPC    C3 5160   6.965   4.819   6.447
   64SAPC    HX 5161   7.036   4.735   6.430
   64SAPC    HY 5162   6.868   4.801   6.396
   64SAPC   O31 5163   6.960   4.822   6.588
   64SAPC   C31 5164   6.843   4.886   6.638
   64SAPC   O32 5165   6.761   4.933   6.569
   64SAPC   C32 5166   6.827   4.848   6.785
   64SAPC   H2X 5167   6.928   4.837   6.830
   64SAPC   H2Y 5168   6.767   4.756   6.796
   64SAPC   C23 5169   7.390   5.004   6.641
   64SAPC   H3R 5170   7.496   5.036   6.644
   64SAPC   H3S 5171   7.391   4.909   6.584
   64SAPC   C24 5172   7.326   4.968   6.778
   64SAPC   H4R 5173   7.265   5.054   6.813
   64SAPC   H4S 5174   7.404   4.959   6.857
   64SAPC   C25 5175   7.257   4.836   6.781
   64SAPC   H5R 5176   7.229   4.796   6.682
   64SAPC   C26 5177   7.215   4.776   6.893
   64SAPC   H6R 5178   7.161   4.681   6.885
   64SAPC   C27 5179   7.242   4.830   7.036
   64SAPC   H7R 5180   7.221   4.939   7.039
   64SAPC   H7S 5181   7.351   4.825   7.059
   64SAPC   C28 5182   7.172   4.747   7.131
   64SAPC   H8R 5183   7.184   4.642   7.101
   64SAPC   C29 5184   7.080   4.786   7.223
   64SAPC   H9R 5185   7.054   4.705   7.293
   64SAPC  C210 5186   7.050   4.923   7.278
   64SAPC  H10R 5187   7.130   4.991   7.239
   64SAPC  H10S 5188   7.071   4.914   7.387
   64SAPC  C211 5189   6.913   4.978   7.256
   64SAPC  H11R 5190   6.872   4.972   7.154
   64SAPC  C212 5191   6.831   5.036   7.351
   64SAPC  H12R 5192   6.733   5.078   7.322
   64SAPC  C213 5193   6.856   5.038   7.504
   64SAPC  H13R 5194   6.872   5.146   7.524
   64SAPC  H13S 5195   6.953   4.994   7.537
   64SAPC  C214 5196   6.752   4.977   7.588
   64SAPC  H14R 5197   6.715   4.877   7.560
   64SAPC  C215 5198   6.694   5.042   7.691
   64SAPC  H15R 5199   6.605   4.993   7.732
   64SAPC  C216 5200   6.727   5.182   7.751
   64SAPC  H16R 5201   6.646   5.250   7.717
   64SAPC  H16S 5202   6.825   5.225   7.722
   64SAPC  C217 5203   6.716   5.173   7.904
   64SAPC  H17R 5204   6.622   5.121   7.932
   64SAPC  H17S 5205   6.700   5.269   7.957
   64SAPC  C218 5206   6.830   5.085   7.969
   64SAPC  H18R 5207   6.934   5.123   7.963
   64SAPC  H18S 5208   6.832   4.987   7.917
   64SAPC  C219 5209   6.801   5.057   8.119
   64SAPC  H19R 5210   6.697   5.019   8.127
   64SAPC  H19S 5211   6.806   5.151   8.177
   64SAPC  C220 5212   6.913   4.961   8.174
   64SAPC  H20R 5213   7.010   5.011   8.195
   64SAPC  H20S 5214   6.926   4.870   8.110
   64SAPC  H20T 5215   6.876   4.912   8.266
   64SAPC   C33 5216   6.759   4.962   6.863
   64SAPC   H3X 5217   6.757   4.927   6.968
   64SAPC   H3Y 5218   6.659   4.985   6.820
   64SAPC   C34 5219   6.835   5.096   6.863
   64SAPC   H4X 5220   6.841   5.131   6.758
   64SAPC   H4Y 5221   6.936   5.073   6.902
   64SAPC   C35 5222   6.772   5.211   6.948
   64SAPC   H5X 5223   6.751   5.177   7.051
   64SAPC   H5Y 5224   6.674   5.231   6.901
   64SAPC   C36 5225   6.846   5.344   6.943
   64SAPC   H6X 5226   6.852   5.385   6.840
   64SAPC   H6Y 5227   6.951   5.323   6.973
   64SAPC   C37 5228   6.777   5.444   7.032
   64SAPC   H7X 5229   6.668   5.423   7.037
   64SAPC   H7Y 5230   6.780   5.544   6.983
   64SAPC   C38 5231   6.832   5.449   7.171
   64SAPC   H8X 5232   6.935   5.489   7.177
   64SAPC   H8Y 5233   6.843   5.356   7.231
   64SAPC   C39 5234   6.743   5.528   7.270
   64SAPC   H9X 5235   6.637   5.494   7.267
   64SAPC   H9Y 5236   6.741   5.634   7.235
   64SAPC  C310 5237   6.797   5.505   7.415
   64SAPC  H10X 5238   6.903   5.538   7.411
   64SAPC  H10Y 5239   6.791   5.396   7.436
   64SAPC  C311 5240   6.713   5.584   7.519
   64SAPC  H11X 5241   6.606   5.554   7.517
   64SAPC  H11Y 5242   6.712   5.692   7.493
   64SAPC  C312 5243   6.765   5.561   7.662
   64SAPC  H12X 5244   6.873   5.584   7.671
   64SAPC  H12Y 5245   6.742   5.455   7.686
   64SAPC  C313 5246   6.698   5.642   7.774
   64SAPC  H13X 5247   6.594   5.608   7.758
   64SAPC  H13Y 5248   6.709   5.747   7.742
   64SAPC  C314 5249   6.756   5.626   7.919
   64SAPC  H14X 5250   6.860   5.660   7.898
   64SAPC  H14Y 5251   6.749   5.519   7.946
   64SAPC  C315 5252   6.693   5.714   8.034
   64SAPC  H15X 5253   6.685   5.820   8.003
   64SAPC  H15Y 5254   6.756   5.707   8.126
   64SAPC  C316 5255   6.547   5.675   8.053
   64SAPC  H16X 5256   6.554   5.574   8.099
   64SAPC  H16Y 5257   6.487   5.688   7.961
   64SAPC  C317 5258   6.480   5.752   8.165
   64SAPC  H17X 5259   6.372   5.726   8.169
   64SAPC  H17Y 5260   6.486   5.862   8.145
   64SAPC  C318 5261   6.545   5.733   8.310
   64SAPC  H18X 5262   6.473   5.756   8.392
   64SAPC  H18Y 5263   6.633   5.801   8.306
   64SAPC  H18Z 5264   6.583   5.631   8.330
   65SAPC     N 5265   6.505   0.013   5.627
   65SAPC   C12 5266   6.414   0.049   5.747
   65SAPC  H12A 5267   6.311   0.048   5.714
   65SAPC  H12B 5268   6.425   0.151   5.779
   65SAPC   C13 5269   6.490  -0.136   5.609
   65SAPC  H13A 5270   6.507  -0.183   5.705
   65SAPC  H13B 5271   6.388  -0.153   5.576
   65SAPC  H13C 5272   6.561  -0.172   5.536
   65SAPC   C14 5273   6.458   0.089   5.503
   65SAPC  H14A 5274   6.361   0.058   5.468
   65SAPC  H14B 5275   6.445   0.194   5.527
   65SAPC  H14C 5276   6.527   0.083   5.420
   65SAPC   C15 5277   6.642   0.057   5.656
   65SAPC  H15A 5278   6.675   0.032   5.756
   65SAPC  H15B 5279   6.710   0.007   5.590
   65SAPC  H15C 5280   6.658   0.160   5.627
   65SAPC   C11 5281   6.426  -0.030   5.882
   65SAPC  H11A 5282   6.401  -0.137   5.873
   65SAPC  H11B 5283   6.344   0.004   5.949
   65SAPC     P 5284   6.574   0.105   6.037
   65SAPC   O13 5285   6.692   0.173   5.986
   65SAPC   O14 5286   6.450   0.184   6.042
   65SAPC   O12 5287   6.556  -0.022   5.944
   65SAPC   O11 5288   6.616   0.045   6.178
   65SAPC    C1 5289   6.594   0.129   6.287
   65SAPC    HA 5290   6.660   0.218   6.293
   65SAPC    HB 5291   6.497   0.183   6.288
   65SAPC    C2 5292   6.617   0.056   6.424
   65SAPC    HS 5293   6.637   0.128   6.506
   65SAPC   O21 5294   6.721  -0.046   6.418
   65SAPC   C21 5295   6.846   0.003   6.435
   65SAPC   O22 5296   6.874   0.124   6.445
   65SAPC   C22 5297   6.937  -0.114   6.416
   65SAPC   H2R 5298   6.900  -0.194   6.483
   65SAPC   H2S 5299   6.915  -0.160   6.318
   65SAPC    C3 5300   6.490  -0.014   6.470
   65SAPC    HX 5301   6.458  -0.102   6.410
   65SAPC    HY 5302   6.411   0.063   6.459
   65SAPC   O31 5303   6.508  -0.042   6.607
   65SAPC   C31 5304   6.494  -0.159   6.654
   65SAPC   O32 5305   6.471  -0.261   6.590
   65SAPC   C32 5306   6.533  -0.161   6.801
   65SAPC   H2X 5307   6.642  -0.140   6.806
   65SAPC   H2Y 5308   6.513  -0.267   6.831
   65SAPC   C23 5309   7.089  -0.086   6.421
   65SAPC   H3R 5310   7.114  -0.007   6.347
   65SAPC   H3S 5311   7.145  -0.181   6.410
   65SAPC   C24 5312   7.138  -0.045   6.564
   65SAPC   H4R 5313   7.114   0.063   6.565
   65SAPC   H4S 5314   7.249  -0.053   6.564
   65SAPC   C25 5315   7.090  -0.137   6.680
   65SAPC   H5R 5316   7.106  -0.245   6.664
   65SAPC   C26 5317   7.035  -0.099   6.802
   65SAPC   H6R 5318   7.001  -0.174   6.875
   65SAPC   C27 5319   7.034   0.046   6.846
   65SAPC   H7R 5320   7.105   0.102   6.782
   65SAPC   H7S 5321   7.086   0.061   6.943
   65SAPC   C28 5322   6.895   0.089   6.852
   65SAPC   H8R 5323   6.858   0.139   6.761
   65SAPC   C29 5324   6.806   0.065   6.957
   65SAPC   H9R 5325   6.711   0.120   6.963
   65SAPC  C210 5326   6.846  -0.006   7.086
   65SAPC  H10R 5327   6.931  -0.075   7.065
   65SAPC  H10S 5328   6.770  -0.074   7.130
   65SAPC  C211 5329   6.892   0.079   7.194
   65SAPC  H11R 5330   6.952   0.159   7.146
   65SAPC  C212 5331   6.860   0.073   7.324
   65SAPC  H12R 5332   6.924   0.134   7.389
   65SAPC  C213 5333   6.762  -0.030   7.380
   65SAPC  H13R 5334   6.666  -0.014   7.328
   65SAPC  H13S 5335   6.744  -0.016   7.489
   65SAPC  C214 5336   6.802  -0.180   7.360
   65SAPC  H14R 5337   6.869  -0.198   7.274
   65SAPC  C215 5338   6.757  -0.276   7.445
   65SAPC  H15R 5339   6.778  -0.378   7.410
   65SAPC  C216 5340   6.647  -0.271   7.549
   65SAPC  H16R 5341   6.643  -0.165   7.582
   65SAPC  H16S 5342   6.680  -0.321   7.642
   65SAPC  C217 5343   6.513  -0.330   7.497
   65SAPC  H17R 5344   6.522  -0.437   7.468
   65SAPC  H17S 5345   6.466  -0.271   7.416
   65SAPC  C218 5346   6.404  -0.340   7.609
   65SAPC  H18R 5347   6.449  -0.409   7.684
   65SAPC  H18S 5348   6.317  -0.394   7.567
   65SAPC  C219 5349   6.368  -0.207   7.680
   65SAPC  H19R 5350   6.456  -0.158   7.726
   65SAPC  H19S 5351   6.295  -0.236   7.760
   65SAPC  C220 5352   6.325  -0.110   7.581
   65SAPC  H20R 5353   6.296  -0.011   7.624
   65SAPC  H20S 5354   6.242  -0.152   7.520
   65SAPC  H20T 5355   6.404  -0.082   7.509
   65SAPC   C33 5356   6.439  -0.076   6.888
   65SAPC   H3X 5357   6.340  -0.110   6.850
   65SAPC   H3Y 5358   6.446   0.031   6.860
   65SAPC   C34 5359   6.470  -0.090   7.034
   65SAPC   H4X 5360   6.569  -0.048   7.059
   65SAPC   H4Y 5361   6.485  -0.198   7.057
   65SAPC   C35 5362   6.360  -0.053   7.136
   65SAPC   H5X 5363   6.396  -0.078   7.238
   65SAPC   H5Y 5364   6.285  -0.135   7.128
   65SAPC   C36 5365   6.295   0.084   7.113
   65SAPC   H6X 5366   6.214   0.071   7.038
   65SAPC   H6Y 5367   6.368   0.140   7.050
   65SAPC   C37 5368   6.260   0.158   7.245
   65SAPC   H7X 5369   6.199   0.085   7.303
   65SAPC   H7Y 5370   6.208   0.252   7.217
   65SAPC   C38 5371   6.387   0.199   7.319
   65SAPC   H8X 5372   6.439   0.266   7.246
   65SAPC   H8Y 5373   6.445   0.106   7.336
   65SAPC   C39 5374   6.358   0.261   7.457
   65SAPC   H9X 5375   6.306   0.187   7.520
   65SAPC   H9Y 5376   6.292   0.350   7.459
   65SAPC  C310 5377   6.491   0.283   7.535
   65SAPC  H10X 5378   6.535   0.364   7.473
   65SAPC  H10Y 5379   6.548   0.189   7.523
   65SAPC  C311 5380   6.478   0.316   7.685
   65SAPC  H11X 5381   6.385   0.374   7.702
   65SAPC  H11Y 5382   6.568   0.379   7.704
   65SAPC  C312 5383   6.473   0.200   7.781
   65SAPC  H12X 5384   6.540   0.118   7.750
   65SAPC  H12Y 5385   6.372   0.159   7.759
   65SAPC  C313 5386   6.512   0.250   7.926
   65SAPC  H13X 5387   6.436   0.321   7.964
   65SAPC  H13Y 5388   6.605   0.310   7.914
   65SAPC  C314 5389   6.537   0.145   8.031
   65SAPC  H14X 5390   6.533   0.193   8.131
   65SAPC  H14Y 5391   6.630   0.088   8.008
   65SAPC  C315 5392   6.435   0.032   8.054
   65SAPC  H15X 5393   6.396  -0.003   7.956
   65SAPC  H15Y 5394   6.347   0.071   8.109
   65SAPC  C316 5395   6.489  -0.076   8.140
   65SAPC  H16X 5396   6.541  -0.018   8.220
   65SAPC  H16Y 5397   6.552  -0.141   8.076
   65SAPC  C317 5398   6.374  -0.157   8.203
   65SAPC  H17X 5399   6.327  -0.086   8.274
   65SAPC  H17Y 5400   6.423  -0.239   8.260
   65SAPC  C318 5401   6.271  -0.225   8.115
   65SAPC  H18X 5402   6.210  -0.292   8.179
   65SAPC  H18Y 5403   6.319  -0.301   8.049
   65SAPC  H18Z 5404   6.209  -0.157   8.053
   66SAPC     N 5405   4.396   5.921   5.695
   66SAPC   C12 5406   4.276   5.954   5.786
   66SAPC  H12A 5407   4.300   5.922   5.886
   66SAPC  H12B 5408   4.194   5.888   5.762
   66SAPC   C13 5409   4.505   6.025   5.723
   66SAPC  H13A 5410   4.587   5.984   5.666
   66SAPC  H13B 5411   4.491   6.130   5.700
   66SAPC  H13C 5412   4.548   6.011   5.821
   66SAPC   C14 5413   4.449   5.784   5.728
   66SAPC  H14A 5414   4.374   5.717   5.689
   66SAPC  H14B 5415   4.542   5.777   5.674
   66SAPC  H14C 5416   4.454   5.769   5.835
   66SAPC   C15 5417   4.352   5.930   5.555
   66SAPC  H15A 5418   4.433   5.934   5.483
   66SAPC  H15B 5419   4.270   5.865   5.526
   66SAPC  H15C 5420   4.299   6.021   5.533
   66SAPC   C11 5421   4.222   6.098   5.796
   66SAPC  H11A 5422   4.115   6.089   5.823
   66SAPC  H11B 5423   4.234   6.151   5.699
   66SAPC     P 5424   4.279   6.135   6.054
   66SAPC   O13 5425   4.368   6.019   6.090
   66SAPC   O14 5426   4.315   6.264   6.120
   66SAPC   O12 5427   4.290   6.159   5.900
   66SAPC   O11 5428   4.126   6.093   6.068
   66SAPC    C1 5429   4.026   6.184   6.122
   66SAPC    HA 5430   4.047   6.291   6.098
   66SAPC    HB 5431   3.929   6.153   6.076
   66SAPC    C2 5432   4.005   6.174   6.279
   66SAPC    HS 5433   3.915   6.233   6.309
   66SAPC   O21 5434   4.107   6.222   6.365
   66SAPC   C21 5435   4.134   6.357   6.357
   66SAPC   O22 5436   4.065   6.436   6.300
   66SAPC   C22 5437   4.250   6.393   6.448
   66SAPC   H2R 5438   4.293   6.307   6.503
   66SAPC   H2S 5439   4.340   6.410   6.386
   66SAPC    C3 5440   3.977   6.023   6.318
   66SAPC    HX 5441   4.041   5.940   6.280
   66SAPC    HY 5442   3.877   5.999   6.277
   66SAPC   O31 5443   3.971   6.000   6.464
   66SAPC   C31 5444   4.088   5.966   6.519
   66SAPC   O32 5445   4.188   5.930   6.456
   66SAPC   C32 5446   4.068   5.954   6.668
   66SAPC   H2X 5447   4.009   5.861   6.683
   66SAPC   H2Y 5448   4.010   6.041   6.705
   66SAPC   C23 5449   4.210   6.502   6.556
   66SAPC   H3R 5450   4.172   6.591   6.502
   66SAPC   H3S 5451   4.305   6.529   6.607
   66SAPC   C24 5452   4.095   6.462   6.654
   66SAPC   H4R 5453   4.109   6.357   6.686
   66SAPC   H4S 5454   4.008   6.467   6.584
   66SAPC   C25 5455   4.081   6.567   6.765
   66SAPC   H5R 5456   4.008   6.647   6.745
   66SAPC   C26 5457   4.145   6.560   6.886
   66SAPC   H6R 5458   4.143   6.653   6.944
   66SAPC   C27 5459   4.242   6.452   6.932
   66SAPC   H7R 5460   4.275   6.377   6.856
   66SAPC   H7S 5461   4.204   6.395   7.019
   66SAPC   C28 5462   4.377   6.512   6.983
   66SAPC   H8R 5463   4.442   6.553   6.904
   66SAPC   C29 5464   4.414   6.520   7.113
   66SAPC   H9R 5465   4.512   6.569   7.127
   66SAPC  C210 5466   4.347   6.483   7.238
   66SAPC  H10R 5467   4.259   6.549   7.255
   66SAPC  H10S 5468   4.424   6.500   7.316
   66SAPC  C211 5469   4.303   6.336   7.254
   66SAPC  H11R 5470   4.292   6.283   7.159
   66SAPC  C212 5471   4.283   6.267   7.372
   66SAPC  H12R 5472   4.239   6.167   7.364
   66SAPC  C213 5473   4.288   6.321   7.518
   66SAPC  H13R 5474   4.188   6.339   7.562
   66SAPC  H13S 5475   4.337   6.421   7.518
   66SAPC  C214 5476   4.358   6.225   7.609
   66SAPC  H14R 5477   4.352   6.120   7.576
   66SAPC  C215 5478   4.423   6.259   7.728
   66SAPC  H15R 5479   4.465   6.179   7.790
   66SAPC  C216 5480   4.445   6.392   7.789
   66SAPC  H16R 5481   4.350   6.446   7.770
   66SAPC  H16S 5482   4.520   6.451   7.731
   66SAPC  C217 5483   4.490   6.387   7.935
   66SAPC  H17R 5484   4.420   6.326   7.995
   66SAPC  H17S 5485   4.490   6.489   7.979
   66SAPC  C218 5486   4.631   6.329   7.947
   66SAPC  H18R 5487   4.706   6.398   7.902
   66SAPC  H18S 5488   4.634   6.232   7.893
   66SAPC  C219 5489   4.672   6.315   8.095
   66SAPC  H19R 5490   4.639   6.212   8.122
   66SAPC  H19S 5491   4.632   6.403   8.149
   66SAPC  C220 5492   4.822   6.307   8.105
   66SAPC  H20R 5493   4.865   6.238   8.028
   66SAPC  H20S 5494   4.852   6.268   8.205
   66SAPC  H20T 5495   4.876   6.401   8.082
   66SAPC   C33 5496   4.195   5.936   6.754
   66SAPC   H3X 5497   4.274   6.000   6.709
   66SAPC   H3Y 5498   4.232   5.833   6.730
   66SAPC   C34 5499   4.164   5.960   6.901
   66SAPC   H4X 5500   4.141   6.066   6.925
   66SAPC   H4Y 5501   4.260   5.931   6.951
   66SAPC   C35 5502   4.059   5.869   6.966
   66SAPC   H5X 5503   4.092   5.764   6.957
   66SAPC   H5Y 5504   3.959   5.888   6.922
   66SAPC   C36 5505   4.046   5.896   7.114
   66SAPC   H6X 5506   3.981   5.817   7.157
   66SAPC   H6Y 5507   3.999   5.995   7.128
   66SAPC   C37 5508   4.183   5.888   7.184
   66SAPC   H7X 5509   4.249   5.976   7.170
   66SAPC   H7Y 5510   4.234   5.795   7.149
   66SAPC   C38 5511   4.150   5.864   7.338
   66SAPC   H8X 5512   4.088   5.773   7.345
   66SAPC   H8Y 5513   4.096   5.955   7.371
   66SAPC   C39 5514   4.270   5.836   7.425
   66SAPC   H9X 5515   4.347   5.915   7.412
   66SAPC   H9Y 5516   4.316   5.746   7.381
   66SAPC  C310 5517   4.234   5.818   7.571
   66SAPC  H10X 5518   4.177   5.725   7.592
   66SAPC  H10Y 5519   4.167   5.901   7.602
   66SAPC  C311 5520   4.356   5.831   7.666
   66SAPC  H11X 5521   4.399   5.928   7.632
   66SAPC  H11Y 5522   4.426   5.744   7.662
   66SAPC  C312 5523   4.313   5.843   7.815
   66SAPC  H12X 5524   4.246   5.757   7.834
   66SAPC  H12Y 5525   4.257   5.939   7.809
   66SAPC  C313 5526   4.426   5.869   7.910
   66SAPC  H13X 5527   4.402   5.951   7.981
   66SAPC  H13Y 5528   4.515   5.897   7.849
   66SAPC  C314 5529   4.450   5.749   8.002
   66SAPC  H14X 5530   4.351   5.714   8.040
   66SAPC  H14Y 5531   4.517   5.776   8.086
   66SAPC  C315 5532   4.532   5.635   7.932
   66SAPC  H15X 5533   4.591   5.677   7.847
   66SAPC  H15Y 5534   4.468   5.565   7.874
   66SAPC  C316 5535   4.612   5.558   8.037
   66SAPC  H16X 5536   4.538   5.511   8.106
   66SAPC  H16Y 5537   4.675   5.632   8.091
   66SAPC  C317 5538   4.695   5.446   7.976
   66SAPC  H17X 5539   4.711   5.472   7.869
   66SAPC  H17Y 5540   4.635   5.352   7.977
   66SAPC  C318 5541   4.830   5.432   8.048
   66SAPC  H18X 5542   4.884   5.347   8.003
   66SAPC  H18Y 5543   4.815   5.394   8.151
   66SAPC  H18Z 5544   4.882   5.530   8.057
   67SAPC     N 5545   0.293   0.823   6.477
   67SAPC   C12 5546   0.170   0.882   6.526
   67SAPC  H12A 5547   0.110   0.805   6.573
   67SAPC  H12B 5548   0.113   0.919   6.443
   67SAPC   C13 5549   0.352   0.723   6.568
   67SAPC  H13A 5550   0.441   0.680   6.523
   67SAPC  H13B 5551   0.384   0.770   6.660
   67SAPC  H13C 5552   0.290   0.638   6.593
   67SAPC   C14 5553   0.263   0.755   6.344
   67SAPC  H14A 5554   0.217   0.658   6.355
   67SAPC  H14B 5555   0.212   0.817   6.272
   67SAPC  H14C 5556   0.359   0.746   6.297
   67SAPC   C15 5557   0.387   0.940   6.436
   67SAPC  H15A 5558   0.428   0.998   6.517
   67SAPC  H15B 5559   0.462   0.903   6.367
   67SAPC  H15C 5560   0.338   1.008   6.369
   67SAPC   C11 5561   0.183   0.997   6.623
   67SAPC  H11A 5562   0.267   0.982   6.695
   67SAPC  H11B 5563   0.091   0.986   6.684
   67SAPC     P 5564   0.085   1.199   6.496
   67SAPC   O13 5565   0.140   1.325   6.451
   67SAPC   O14 5566   0.024   1.119   6.387
   67SAPC   O12 5567   0.206   1.123   6.557
   67SAPC   O11 5568   0.001   1.224   6.626
   67SAPC    C1 5569  -0.132   1.272   6.611
   67SAPC    HA 5570  -0.135   1.383   6.599
   67SAPC    HB 5571  -0.189   1.238   6.521
   67SAPC    C2 5572  -0.221   1.219   6.730
   67SAPC    HS 5573  -0.319   1.271   6.725
   67SAPC   O21 5574  -0.160   1.226   6.858
   67SAPC   C21 5575  -0.133   1.349   6.891
   67SAPC   O22 5576  -0.189   1.449   6.838
   67SAPC   C22 5577  -0.057   1.348   7.027
   67SAPC   H2R 5578  -0.120   1.306   7.109
   67SAPC   H2S 5579   0.033   1.289   7.001
   67SAPC    C3 5580  -0.259   1.068   6.708
   67SAPC    HX 5581  -0.171   1.005   6.685
   67SAPC    HY 5582  -0.314   1.082   6.613
   67SAPC   O31 5583  -0.340   1.024   6.821
   67SAPC   C31 5584  -0.290   0.925   6.890
   67SAPC   O32 5585  -0.189   0.862   6.867
   67SAPC   C32 5586  -0.383   0.894   7.007
   67SAPC   H2X 5587  -0.393   0.788   7.040
   67SAPC   H2Y 5588  -0.481   0.924   6.963
   67SAPC   C23 5589  -0.013   1.490   7.058
   67SAPC   H3R 5590  -0.090   1.570   7.058
   67SAPC   H3S 5591   0.052   1.523   6.974
   67SAPC   C24 5592   0.068   1.498   7.188
   67SAPC   H4R 5593   0.015   1.448   7.272
   67SAPC   H4S 5594   0.071   1.606   7.211
   67SAPC   C25 5595   0.201   1.430   7.173
   67SAPC   H5R 5596   0.243   1.433   7.071
   67SAPC   C26 5597   0.264   1.360   7.275
   67SAPC   H6R 5598   0.363   1.315   7.260
   67SAPC   C27 5599   0.224   1.348   7.423
   67SAPC   H7R 5600   0.171   1.442   7.450
   67SAPC   H7S 5601   0.314   1.346   7.488
   67SAPC   C28 5602   0.129   1.238   7.447
   67SAPC   H8R 5603   0.075   1.199   7.359
   67SAPC   C29 5604   0.098   1.185   7.570
   67SAPC   H9R 5605   0.046   1.088   7.571
   67SAPC  C210 5606   0.157   1.221   7.707
   67SAPC  H10R 5607   0.102   1.302   7.758
   67SAPC  H10S 5608   0.262   1.252   7.685
   67SAPC  C211 5609   0.162   1.107   7.804
   67SAPC  H11R 5610   0.209   1.013   7.769
   67SAPC  C212 5611   0.098   1.097   7.926
   67SAPC  H12R 5612   0.113   1.008   7.989
   67SAPC  C213 5613   0.012   1.200   7.989
   67SAPC  H13R 5614  -0.089   1.174   7.949
   67SAPC  H13S 5615   0.034   1.303   7.954
   67SAPC  C214 5616   0.008   1.200   8.140
   67SAPC  H14R 5617  -0.059   1.126   8.186
   67SAPC  C215 5618   0.080   1.280   8.224
   67SAPC  H15R 5619   0.078   1.251   8.330
   67SAPC  C216 5620   0.184   1.379   8.188
   67SAPC  H16R 5621   0.219   1.382   8.083
   67SAPC  H16S 5622   0.279   1.347   8.237
   67SAPC  C217 5623   0.141   1.518   8.230
   67SAPC  H17R 5624   0.041   1.536   8.184
   67SAPC  H17S 5625   0.206   1.597   8.186
   67SAPC  C218 5626   0.136   1.545   8.381
   67SAPC  H18R 5627   0.066   1.469   8.424
   67SAPC  H18S 5628   0.084   1.642   8.393
   67SAPC  C219 5629   0.274   1.549   8.456
   67SAPC  H19R 5630   0.319   1.643   8.416
   67SAPC  H19S 5631   0.334   1.459   8.432
   67SAPC  C220 5632   0.262   1.564   8.605
   67SAPC  H20R 5633   0.213   1.660   8.632
   67SAPC  H20S 5634   0.365   1.569   8.646
   67SAPC  H20T 5635   0.215   1.474   8.650
   67SAPC   C33 5636  -0.347   0.981   7.128
   67SAPC   H3X 5637  -0.439   0.989   7.190
   67SAPC   H3Y 5638  -0.333   1.086   7.095
   67SAPC   C34 5639  -0.230   0.918   7.211
   67SAPC   H4X 5640  -0.137   0.958   7.164
   67SAPC   H4Y 5641  -0.231   0.808   7.193
   67SAPC   C35 5642  -0.250   0.945   7.355
   67SAPC   H5X 5643  -0.349   0.903   7.382
   67SAPC   H5Y 5644  -0.242   1.056   7.362
   67SAPC   C36 5645  -0.146   0.872   7.449
   67SAPC   H6X 5646  -0.049   0.922   7.426
   67SAPC   H6Y 5647  -0.146   0.765   7.417
   67SAPC   C37 5648  -0.179   0.880   7.599
   67SAPC   H7X 5649  -0.284   0.848   7.617
   67SAPC   H7Y 5650  -0.157   0.979   7.643
   67SAPC   C38 5651  -0.101   0.766   7.677
   67SAPC   H8X 5652   0.008   0.789   7.678
   67SAPC   H8Y 5653  -0.119   0.667   7.631
   67SAPC   C39 5654  -0.146   0.756   7.828
   67SAPC   H9X 5655  -0.257   0.763   7.832
   67SAPC   H9Y 5656  -0.111   0.843   7.888
   67SAPC  C310 5657  -0.102   0.622   7.897
   67SAPC  H10X 5658   0.008   0.616   7.886
   67SAPC  H10Y 5659  -0.142   0.531   7.848
   67SAPC  C311 5660  -0.149   0.612   8.047
   67SAPC  H11X 5661  -0.134   0.506   8.074
   67SAPC  H11Y 5662  -0.250   0.660   8.052
   67SAPC  C312 5663  -0.068   0.687   8.149
   67SAPC  H12X 5664  -0.055   0.793   8.120
   67SAPC  H12Y 5665   0.025   0.628   8.163
   67SAPC  C313 5666  -0.151   0.680   8.280
   67SAPC  H13X 5667  -0.172   0.573   8.305
   67SAPC  H13Y 5668  -0.250   0.725   8.256
   67SAPC  C314 5669  -0.091   0.764   8.399
   67SAPC  H14X 5670  -0.173   0.786   8.471
   67SAPC  H14Y 5671  -0.055   0.860   8.356
   67SAPC  C315 5672   0.015   0.681   8.475
   67SAPC  H15X 5673   0.102   0.667   8.407
   67SAPC  H15Y 5674  -0.024   0.579   8.495
   67SAPC  C316 5675   0.069   0.741   8.606
   67SAPC  H16X 5676   0.163   0.685   8.625
   67SAPC  H16Y 5677   0.004   0.712   8.691
   67SAPC  C317 5678   0.104   0.889   8.615
   67SAPC  H17X 5679   0.024   0.953   8.571
   67SAPC  H17Y 5680   0.192   0.913   8.553
   67SAPC  C318 5681   0.140   0.940   8.752
   67SAPC  H18X 5682   0.129   1.051   8.758
   67SAPC  H18Y 5683   0.246   0.915   8.774
   67SAPC  H18Z 5684   0.077   0.880   8.822
   68SAPC     N 5685   4.158   0.677   6.376
   68SAPC   C12 5686   4.239   0.553   6.418
   68SAPC  H12A 5687   4.210   0.530   6.519
   68SAPC  H12B 5688   4.341   0.588   6.421
   68SAPC   C13 5689   4.011   0.651   6.397
   68SAPC  H13A 5690   3.984   0.556   6.353
   68SAPC  H13B 5691   3.993   0.645   6.504
   68SAPC  H13C 5692   3.946   0.720   6.347
   68SAPC   C14 5693   4.191   0.803   6.446
   68SAPC  H14A 5694   4.127   0.884   6.415
   68SAPC  H14B 5695   4.173   0.782   6.551
   68SAPC  H14C 5696   4.290   0.842   6.434
   68SAPC   C15 5697   4.175   0.706   6.225
   68SAPC  H15A 5698   4.101   0.775   6.186
   68SAPC  H15B 5699   4.261   0.771   6.218
   68SAPC  H15C 5700   4.192   0.619   6.164
   68SAPC   C11 5701   4.240   0.422   6.327
   68SAPC  H11A 5702   4.137   0.400   6.291
   68SAPC  H11B 5703   4.278   0.339   6.390
   68SAPC     P 5704   4.485   0.437   6.211
   68SAPC   O13 5705   4.532   0.377   6.081
   68SAPC   O14 5706   4.531   0.575   6.241
   68SAPC   O12 5707   4.328   0.435   6.216
   68SAPC   O11 5708   4.528   0.337   6.333
   68SAPC    C1 5709   4.656   0.370   6.401
   68SAPC    HA 5710   4.735   0.319   6.343
   68SAPC    HB 5711   4.674   0.480   6.399
   68SAPC    C2 5712   4.663   0.327   6.551
   68SAPC    HS 5713   4.764   0.335   6.597
   68SAPC   O21 5714   4.603   0.193   6.571
   68SAPC   C21 5715   4.692   0.103   6.533
   68SAPC   O22 5716   4.805   0.117   6.497
   68SAPC   C22 5717   4.630  -0.027   6.567
   68SAPC   H2R 5718   4.558  -0.015   6.651
   68SAPC   H2S 5719   4.570  -0.054   6.478
   68SAPC    C3 5720   4.574   0.425   6.639
   68SAPC    HX 5721   4.469   0.407   6.609
   68SAPC    HY 5722   4.606   0.520   6.592
   68SAPC   O31 5723   4.612   0.412   6.780
   68SAPC   C31 5724   4.563   0.510   6.853
   68SAPC   O32 5725   4.469   0.578   6.828
   68SAPC   C32 5726   4.639   0.507   6.995
   68SAPC   H2X 5727   4.740   0.552   6.987
   68SAPC   H2Y 5728   4.663   0.401   7.017
   68SAPC   C23 5729   4.737  -0.137   6.609
   68SAPC   H3R 5730   4.806  -0.100   6.687
   68SAPC   H3S 5731   4.800  -0.154   6.519
   68SAPC   C24 5732   4.673  -0.268   6.670
   68SAPC   H4R 5733   4.589  -0.298   6.604
   68SAPC   H4S 5734   4.618  -0.247   6.764
   68SAPC   C25 5735   4.782  -0.373   6.688
   68SAPC   H5R 5736   4.802  -0.433   6.598
   68SAPC   C26 5737   4.830  -0.403   6.806
   68SAPC   H6R 5738   4.913  -0.475   6.815
   68SAPC   C27 5739   4.795  -0.357   6.943
   68SAPC   H7R 5740   4.700  -0.406   6.972
   68SAPC   H7S 5741   4.781  -0.248   6.929
   68SAPC   C28 5742   4.892  -0.397   7.049
   68SAPC   H8R 5743   4.993  -0.425   7.016
   68SAPC   C29 5744   4.883  -0.370   7.182
   68SAPC   H9R 5745   4.960  -0.397   7.256
   68SAPC  C210 5746   4.768  -0.296   7.249
   68SAPC  H10R 5747   4.676  -0.354   7.231
   68SAPC  H10S 5748   4.770  -0.197   7.198
   68SAPC  C211 5749   4.780  -0.298   7.398
   68SAPC  H11R 5750   4.776  -0.398   7.444
   68SAPC  C212 5751   4.755  -0.200   7.482
   68SAPC  H12R 5752   4.764  -0.218   7.590
   68SAPC  C213 5753   4.727  -0.057   7.446
   68SAPC  H13R 5754   4.685   0.004   7.529
   68SAPC  H13S 5755   4.642  -0.061   7.374
   68SAPC  C214 5756   4.845   0.017   7.393
   68SAPC  H14R 5757   4.941   0.010   7.447
   68SAPC  C215 5758   4.847   0.104   7.285
   68SAPC  H15R 5759   4.939   0.151   7.249
   68SAPC  C216 5760   4.727   0.148   7.201
   68SAPC  H16R 5761   4.752   0.251   7.168
   68SAPC  H16S 5762   4.642   0.140   7.272
   68SAPC  C217 5763   4.705   0.069   7.064
   68SAPC  H17R 5764   4.626   0.130   7.018
   68SAPC  H17S 5765   4.650  -0.023   7.094
   68SAPC  C218 5766   4.830   0.054   6.975
   68SAPC  H18R 5767   4.815  -0.024   6.897
   68SAPC  H18S 5768   4.914   0.022   7.041
   68SAPC  C219 5769   4.875   0.184   6.909
   68SAPC  H19R 5770   4.901   0.257   6.988
   68SAPC  H19S 5771   4.790   0.237   6.859
   68SAPC  C220 5772   4.993   0.156   6.812
   68SAPC  H20R 5773   5.027   0.246   6.757
   68SAPC  H20S 5774   4.963   0.078   6.739
   68SAPC  H20T 5775   5.073   0.117   6.879
   68SAPC   C33 5776   4.554   0.580   7.114
   68SAPC   H3X 5777   4.462   0.526   7.146
   68SAPC   H3Y 5778   4.529   0.684   7.085
   68SAPC   C34 5779   4.643   0.590   7.237
   68SAPC   H4X 5780   4.713   0.672   7.211
   68SAPC   H4Y 5781   4.705   0.498   7.247
   68SAPC   C35 5782   4.579   0.623   7.370
   68SAPC   H5X 5783   4.478   0.578   7.366
   68SAPC   H5Y 5784   4.560   0.732   7.377
   68SAPC   C36 5785   4.659   0.583   7.496
   68SAPC   H6X 5786   4.730   0.668   7.503
   68SAPC   H6Y 5787   4.709   0.485   7.481
   68SAPC   C37 5788   4.560   0.555   7.605
   68SAPC   H7X 5789   4.504   0.459   7.603
   68SAPC   H7Y 5790   4.475   0.625   7.615
   68SAPC   C38 5791   4.644   0.545   7.736
   68SAPC   H8X 5792   4.703   0.638   7.738
   68SAPC   H8Y 5793   4.718   0.465   7.713
   68SAPC   C39 5794   4.567   0.543   7.867
   68SAPC   H9X 5795   4.513   0.447   7.880
   68SAPC   H9Y 5796   4.505   0.634   7.883
   68SAPC  C310 5797   4.670   0.537   7.991
   68SAPC  H10X 5798   4.614   0.574   8.080
   68SAPC  H10Y 5799   4.749   0.615   7.986
   68SAPC  C311 5800   4.736   0.397   8.006
   68SAPC  H11X 5801   4.768   0.370   7.903
   68SAPC  H11Y 5802   4.661   0.321   8.035
   68SAPC  C312 5803   4.859   0.389   8.101
   68SAPC  H12X 5804   4.828   0.423   8.202
   68SAPC  H12Y 5805   4.940   0.457   8.067
   68SAPC  C313 5806   4.908   0.249   8.113
   68SAPC  H13X 5807   4.914   0.204   8.011
   68SAPC  H13Y 5808   4.841   0.179   8.167
   68SAPC  C314 5809   5.048   0.246   8.176
   68SAPC  H14X 5810   5.050   0.280   8.281
   68SAPC  H14Y 5811   5.108   0.320   8.120
   68SAPC  C315 5812   5.110   0.107   8.171
   68SAPC  H15X 5813   5.142   0.089   8.066
   68SAPC  H15Y 5814   5.049   0.018   8.197
   68SAPC  C316 5815   5.238   0.091   8.264
   68SAPC  H16X 5816   5.231   0.151   8.357
   68SAPC  H16Y 5817   5.323   0.137   8.209
   68SAPC  C317 5818   5.285  -0.054   8.290
   68SAPC  H17X 5819   5.293  -0.106   8.192
   68SAPC  H17Y 5820   5.195  -0.092   8.343
   68SAPC  C318 5821   5.412  -0.063   8.379
   68SAPC  H18X 5822   5.403   0.013   8.459
   68SAPC  H18Y 5823   5.500  -0.028   8.321
   68SAPC  H18Z 5824   5.440  -0.164   8.415
   69SLPC     N 5825   2.438   4.944  11.360
   69SLPC   C13 5826   2.388   4.802  11.371
   69SLPC  H13A 5827   2.364   4.771  11.471
   69SLPC  H13B 5828   2.301   4.788  11.308
   69SLPC  H13C 5829   2.467   4.734  11.342
   69SLPC   C14 5830   2.558   4.962  11.451
   69SLPC  H14A 5831   2.528   4.962  11.555
   69SLPC  H14B 5832   2.629   4.881  11.438
   69SLPC  H14C 5833   2.600   5.061  11.440
   69SLPC   C15 5834   2.326   5.035  11.401
   69SLPC  H15A 5835   2.353   5.139  11.392
   69SLPC  H15B 5836   2.247   5.030  11.327
   69SLPC  H15C 5837   2.286   5.023  11.500
   69SLPC   C12 5838   2.481   4.981  11.219
   69SLPC  H12A 5839   2.569   4.922  11.199
   69SLPC  H12B 5840   2.517   5.083  11.215
   69SLPC   C11 5841   2.378   4.952  11.108
   69SLPC  H11A 5842   2.357   4.843  11.116
   69SLPC  H11B 5843   2.420   4.945  11.006
   69SLPC     P 5844   2.260   5.169  11.054
   69SLPC   O13 5845   2.135   5.236  11.083
   69SLPC   O14 5846   2.377   5.252  11.090
   69SLPC   O12 5847   2.266   5.035  11.133
   69SLPC   O11 5848   2.264   5.134  10.902
   69SLPC    C1 5849   2.152   5.051  10.850
   69SLPC    HA 5850   2.166   4.947  10.887
   69SLPC    HB 5851   2.053   5.077  10.893
   69SLPC    C2 5852   2.142   5.068  10.696
   69SLPC    HS 5853   2.237   5.021  10.660
   69SLPC   O21 5854   2.121   5.207  10.660
   69SLPC   C21 5855   2.233   5.271  10.627
   69SLPC   O22 5856   2.339   5.218  10.617
   69SLPC   C22 5857   2.200   5.411  10.578
   69SLPC   H2R 5858   2.140   5.476  10.645
   69SLPC   H2S 5859   2.294   5.471  10.581
   69SLPC    C3 5860   2.025   4.994  10.635
   69SLPC    HX 5861   1.931   5.019  10.688
   69SLPC    HY 5862   2.026   4.885  10.653
   69SLPC   O31 5863   2.013   5.012  10.493
   69SLPC   C31 5864   2.096   4.962  10.415
   69SLPC   O32 5865   2.201   4.909  10.434
   69SLPC   C32 5866   2.027   4.976  10.276
   69SLPC   H2X 5867   2.006   5.083  10.257
   69SLPC   H2Y 5868   1.926   4.930  10.284
   69SLPC   C23 5869   2.144   5.422  10.432
   69SLPC   H3R 5870   2.209   5.364  10.364
   69SLPC   H3S 5871   2.140   5.530  10.410
   69SLPC   C24 5872   2.007   5.368  10.424
   69SLPC   H4R 5873   1.950   5.412  10.508
   69SLPC   H4S 5874   2.014   5.260  10.449
   69SLPC   C25 5875   1.947   5.403  10.289
   69SLPC   H5R 5876   2.022   5.369  10.215
   69SLPC   H5S 5877   1.946   5.512  10.268
   69SLPC   C26 5878   1.802   5.355  10.267
   69SLPC   H6R 5879   1.748   5.405  10.350
   69SLPC   H6S 5880   1.797   5.245  10.279
   69SLPC   C27 5881   1.752   5.376  10.118
   69SLPC   H7R 5882   1.729   5.483  10.101
   69SLPC   H7S 5883   1.665   5.308  10.112
   69SLPC   C28 5884   1.826   5.315  10.001
   69SLPC   H8R 5885   1.750   5.280   9.928
   69SLPC   H8S 5886   1.865   5.220  10.043
   69SLPC   C29 5887   1.935   5.402   9.939
   69SLPC   H9R 5888   2.020   5.431  10.003
   69SLPC  C210 5889   1.935   5.438   9.804
   69SLPC  H10R 5890   2.028   5.494   9.781
   69SLPC  C211 5891   1.835   5.398   9.697
   69SLPC  H11R 5892   1.855   5.467   9.612
   69SLPC  H11S 5893   1.733   5.422   9.733
   69SLPC  C212 5894   1.838   5.257   9.646
   69SLPC  H12R 5895   1.926   5.202   9.681
   69SLPC  C213 5896   1.738   5.192   9.581
   69SLPC  H13R 5897   1.767   5.089   9.558
   69SLPC  C214 5898   1.600   5.239   9.534
   69SLPC  H14R 5899   1.565   5.327   9.592
   69SLPC  H14S 5900   1.528   5.155   9.534
   69SLPC  C215 5901   1.617   5.280   9.382
   69SLPC  H15R 5902   1.697   5.356   9.373
   69SLPC  H15S 5903   1.522   5.331   9.353
   69SLPC  C216 5904   1.628   5.157   9.290
   69SLPC  H16R 5905   1.550   5.086   9.325
   69SLPC  H16S 5906   1.721   5.103   9.318
   69SLPC  C217 5907   1.625   5.201   9.147
   69SLPC  H17R 5908   1.653   5.307   9.131
   69SLPC  H17S 5909   1.515   5.202   9.128
   69SLPC  C218 5910   1.680   5.096   9.050
   69SLPC  H18R 5911   1.784   5.066   9.076
   69SLPC  H18S 5912   1.687   5.133   8.945
   69SLPC  H18T 5913   1.616   5.006   9.049
   69SLPC   C33 5914   2.117   4.904  10.169
   69SLPC   H3X 5915   2.149   4.801  10.193
   69SLPC   H3Y 5916   2.211   4.963  10.176
   69SLPC   C34 5917   2.039   4.921  10.035
   69SLPC   H4X 5918   2.014   5.027  10.011
   69SLPC   H4Y 5919   1.950   4.857  10.046
   69SLPC   C35 5920   2.118   4.859   9.925
   69SLPC   H5X 5921   2.134   4.750   9.943
   69SLPC   H5Y 5922   2.220   4.903   9.927
   69SLPC   C36 5923   2.055   4.867   9.787
   69SLPC   H6X 5924   2.030   4.975   9.777
   69SLPC   H6Y 5925   1.965   4.802   9.789
   69SLPC   C37 5926   2.148   4.835   9.671
   69SLPC   H7X 5927   2.148   4.725   9.652
   69SLPC   H7Y 5928   2.248   4.876   9.699
   69SLPC   C38 5929   2.114   4.899   9.537
   69SLPC   H8X 5930   2.194   4.885   9.462
   69SLPC   H8Y 5931   2.119   5.006   9.564
   69SLPC   C39 5932   1.982   4.853   9.490
   69SLPC   H9X 5933   1.900   4.860   9.565
   69SLPC   H9Y 5934   2.001   4.745   9.472
   69SLPC  C310 5935   1.928   4.928   9.361
   69SLPC  H10X 5936   1.916   5.037   9.384
   69SLPC  H10Y 5937   1.825   4.897   9.333
   69SLPC  C311 5938   2.012   4.927   9.230
   69SLPC  H11X 5939   2.108   4.975   9.256
   69SLPC  H11Y 5940   1.965   4.983   9.146
   69SLPC  C312 5941   2.026   4.780   9.183
   69SLPC  H12X 5942   1.925   4.735   9.173
   69SLPC  H12Y 5943   2.065   4.720   9.268
   69SLPC  C313 5944   2.104   4.756   9.060
   69SLPC  H13X 5945   2.037   4.749   8.971
   69SLPC  H13Y 5946   2.142   4.652   9.070
   69SLPC  C314 5947   2.211   4.855   9.031
   69SLPC  H14X 5948   2.279   4.860   9.119
   69SLPC  H14Y 5949   2.177   4.957   9.004
   69SLPC  C315 5950   2.287   4.820   8.902
   69SLPC  H15X 5951   2.222   4.796   8.815
   69SLPC  H15Y 5952   2.351   4.729   8.913
   69SLPC  C316 5953   2.399   4.923   8.851
   69SLPC  H16X 5954   2.464   4.964   8.932
   69SLPC  H16Y 5955   2.354   5.003   8.788
   69SLPC  C317 5956   2.501   4.846   8.766
   69SLPC  H17X 5957   2.445   4.772   8.706
   69SLPC  H17Y 5958   2.569   4.794   8.837
   69SLPC  C318 5959   2.591   4.933   8.682
   69SLPC  H18X 5960   2.524   5.002   8.627
   69SLPC  H18Y 5961   2.632   4.870   8.600
   69SLPC  H18Z 5962   2.677   4.983   8.731
   70SLPC     N 5963   3.238   3.224  11.020
   70SLPC   C13 5964   3.108   3.247  11.084
   70SLPC  H13A 5965   3.045   3.324  11.043
   70SLPC  H13B 5966   3.040   3.163  11.078
   70SLPC  H13C 5967   3.114   3.276  11.187
   70SLPC   C14 5968   3.319   3.349  11.044
   70SLPC  H14A 5969   3.350   3.344  11.147
   70SLPC  H14B 5970   3.415   3.341  10.995
   70SLPC  H14C 5971   3.272   3.438  11.006
   70SLPC   C15 5972   3.220   3.207  10.878
   70SLPC  H15A 5973   3.317   3.174  10.844
   70SLPC  H15B 5974   3.157   3.122  10.855
   70SLPC  H15C 5975   3.191   3.293  10.819
   70SLPC   C12 5976   3.314   3.101  11.076
   70SLPC  H12A 5977   3.337   3.121  11.179
   70SLPC  H12B 5978   3.407   3.096  11.022
   70SLPC   C11 5979   3.247   2.963  11.065
   70SLPC  H11A 5980   3.149   2.958  11.117
   70SLPC  H11B 5981   3.314   2.889  11.115
   70SLPC     P 5982   3.328   2.848  10.846
   70SLPC   O13 5983   3.462   2.905  10.869
   70SLPC   O14 5984   3.312   2.710  10.892
   70SLPC   O12 5985   3.223   2.930  10.927
   70SLPC   O11 5986   3.285   2.862  10.696
   70SLPC    C1 5987   3.158   2.827  10.646
   70SLPC    HA 5988   3.081   2.850  10.722
   70SLPC    HB 5989   3.136   2.895  10.561
   70SLPC    C2 5990   3.139   2.683  10.589
   70SLPC    HS 5991   3.185   2.615  10.664
   70SLPC   O21 5992   3.206   2.682  10.459
   70SLPC   C21 5993   3.231   2.557  10.412
   70SLPC   O22 5994   3.206   2.455  10.474
   70SLPC   C22 5995   3.300   2.566  10.276
   70SLPC   H2R 5996   3.230   2.600  10.197
   70SLPC   H2S 5997   3.377   2.646  10.281
   70SLPC    C3 5998   2.990   2.649  10.566
   70SLPC    HX 5999   2.955   2.642  10.671
   70SLPC    HY 6000   2.978   2.552  10.514
   70SLPC   O31 6001   2.919   2.753  10.492
   70SLPC   C31 6002   2.791   2.743  10.498
   70SLPC   O32 6003   2.726   2.658  10.556
   70SLPC   C32 6004   2.731   2.856  10.417
   70SLPC   H2X 6005   2.805   2.904  10.350
   70SLPC   H2Y 6006   2.700   2.936  10.486
   70SLPC   C23 6007   3.367   2.436  10.233
   70SLPC   H3R 6008   3.311   2.350  10.275
   70SLPC   H3S 6009   3.473   2.424  10.266
   70SLPC   C24 6010   3.371   2.419  10.079
   70SLPC   H4R 6011   3.269   2.406  10.037
   70SLPC   H4S 6012   3.425   2.323  10.064
   70SLPC   C25 6013   3.439   2.537  10.008
   70SLPC   H5R 6014   3.546   2.533  10.038
   70SLPC   H5S 6015   3.382   2.629  10.030
   70SLPC   C26 6016   3.418   2.523   9.858
   70SLPC   H6R 6017   3.308   2.529   9.843
   70SLPC   H6S 6018   3.459   2.429   9.815
   70SLPC   C27 6019   3.479   2.649   9.793
   70SLPC   H7R 6020   3.590   2.648   9.783
   70SLPC   H7S 6021   3.448   2.749   9.830
   70SLPC   C28 6022   3.430   2.661   9.646
   70SLPC   H8R 6023   3.456   2.760   9.604
   70SLPC   H8S 6024   3.319   2.665   9.653
   70SLPC   C29 6025   3.458   2.560   9.536
   70SLPC   H9R 6026   3.433   2.454   9.552
   70SLPC  C210 6027   3.518   2.583   9.417
   70SLPC  H10R 6028   3.538   2.491   9.361
   70SLPC  C211 6029   3.559   2.710   9.349
   70SLPC  H11R 6030   3.670   2.703   9.346
   70SLPC  H11S 6031   3.518   2.794   9.410
   70SLPC  C212 6032   3.501   2.724   9.204
   70SLPC  H12R 6033   3.441   2.634   9.184
   70SLPC  C213 6034   3.533   2.827   9.115
   70SLPC  H13R 6035   3.479   2.834   9.019
   70SLPC  C214 6036   3.632   2.940   9.142
   70SLPC  H14R 6037   3.698   2.921   9.229
   70SLPC  H14S 6038   3.566   3.029   9.155
   70SLPC  C215 6039   3.729   2.958   9.025
   70SLPC  H15R 6040   3.681   2.929   8.929
   70SLPC  H15S 6041   3.811   2.883   9.028
   70SLPC  C216 6042   3.795   3.096   9.019
   70SLPC  H16R 6043   3.827   3.113   9.124
   70SLPC  H16S 6044   3.717   3.173   9.005
   70SLPC  C217 6045   3.918   3.103   8.933
   70SLPC  H17R 6046   3.867   3.095   8.835
   70SLPC  H17S 6047   3.992   3.021   8.949
   70SLPC  C218 6048   3.990   3.242   8.934
   70SLPC  H18R 6049   4.070   3.256   8.858
   70SLPC  H18S 6050   4.031   3.259   9.036
   70SLPC  H18T 6051   3.911   3.320   8.925
   70SLPC   C33 6052   2.607   2.812  10.328
   70SLPC   H3X 6053   2.564   2.907  10.290
   70SLPC   H3Y 6054   2.528   2.758  10.385
   70SLPC   C34 6055   2.659   2.737  10.210
   70SLPC   H4X 6056   2.603   2.642  10.195
   70SLPC   H4Y 6057   2.767   2.712  10.220
   70SLPC   C35 6058   2.638   2.813  10.077
   70SLPC   H5X 6059   2.693   2.909  10.083
   70SLPC   H5Y 6060   2.534   2.840  10.051
   70SLPC   C36 6061   2.688   2.729   9.960
   70SLPC   H6X 6062   2.627   2.637   9.972
   70SLPC   H6Y 6063   2.793   2.694   9.960
   70SLPC   C37 6064   2.675   2.799   9.831
   70SLPC   H7X 6065   2.758   2.873   9.827
   70SLPC   H7Y 6066   2.582   2.859   9.828
   70SLPC   C38 6067   2.677   2.693   9.713
   70SLPC   H8X 6068   2.620   2.598   9.728
   70SLPC   H8Y 6069   2.783   2.664   9.701
   70SLPC   C39 6070   2.630   2.764   9.582
   70SLPC   H9X 6071   2.708   2.836   9.548
   70SLPC   H9Y 6072   2.539   2.822   9.611
   70SLPC  C310 6073   2.593   2.659   9.483
   70SLPC  H10X 6074   2.508   2.603   9.526
   70SLPC  H10Y 6075   2.681   2.595   9.461
   70SLPC  C311 6076   2.535   2.712   9.351
   70SLPC  H11X 6077   2.615   2.775   9.306
   70SLPC  H11Y 6078   2.444   2.774   9.362
   70SLPC  C312 6079   2.512   2.594   9.250
   70SLPC  H12X 6080   2.444   2.517   9.293
   70SLPC  H12Y 6081   2.613   2.549   9.232
   70SLPC  C313 6082   2.467   2.643   9.116
   70SLPC  H13X 6083   2.546   2.702   9.065
   70SLPC  H13Y 6084   2.382   2.713   9.127
   70SLPC  C314 6085   2.426   2.528   9.025
   70SLPC  H14X 6086   2.373   2.449   9.083
   70SLPC  H14Y 6087   2.516   2.478   8.985
   70SLPC  C315 6088   2.343   2.581   8.909
   70SLPC  H15X 6089   2.408   2.644   8.844
   70SLPC  H15Y 6090   2.262   2.648   8.946
   70SLPC  C316 6091   2.268   2.465   8.837
   70SLPC  H16X 6092   2.229   2.382   8.900
   70SLPC  H16Y 6093   2.344   2.425   8.766
   70SLPC  C317 6094   2.149   2.517   8.761
   70SLPC  H17X 6095   2.191   2.585   8.684
   70SLPC  H17Y 6096   2.080   2.570   8.830
   70SLPC  C318 6097   2.086   2.395   8.701
   70SLPC  H18X 6098   2.159   2.327   8.651
   70SLPC  H18Y 6099   2.027   2.428   8.613
   70SLPC  H18Z 6100   2.014   2.342   8.767
   71SLPC     N 6101   2.768   0.760  10.731
   71SLPC   C13 6102   2.750   0.670  10.614
   71SLPC  H13A 6103   2.843   0.615  10.600
   71SLPC  H13B 6104   2.658   0.614  10.625
   71SLPC  H13C 6105   2.741   0.716  10.516
   71SLPC   C14 6106   2.887   0.842  10.715
   71SLPC  H14A 6107   2.976   0.781  10.709
   71SLPC  H14B 6108   2.869   0.922  10.645
   71SLPC  H14C 6109   2.892   0.893  10.810
   71SLPC   C15 6110   2.772   0.677  10.855
   71SLPC  H15A 6111   2.851   0.604  10.846
   71SLPC  H15B 6112   2.799   0.736  10.942
   71SLPC  H15C 6113   2.687   0.613  10.873
   71SLPC   C12 6114   2.642   0.850  10.738
   71SLPC  H12A 6115   2.659   0.903  10.830
   71SLPC  H12B 6116   2.560   0.781  10.752
   71SLPC   C11 6117   2.613   0.952  10.625
   71SLPC  H11A 6118   2.509   0.991  10.632
   71SLPC  H11B 6119   2.607   0.898  10.529
   71SLPC     P 6120   2.728   1.166  10.726
   71SLPC   O13 6121   2.725   1.106  10.862
   71SLPC   O14 6122   2.843   1.250  10.690
   71SLPC   O12 6123   2.718   1.046  10.612
   71SLPC   O11 6124   2.605   1.258  10.702
   71SLPC    C1 6125   2.609   1.363  10.599
   71SLPC    HA 6126   2.603   1.467  10.635
   71SLPC    HB 6127   2.693   1.358  10.527
   71SLPC    C2 6128   2.491   1.352  10.498
   71SLPC    HS 6129   2.396   1.354  10.554
   71SLPC   O21 6130   2.509   1.230  10.426
   71SLPC   C21 6131   2.403   1.197  10.360
   71SLPC   O22 6132   2.293   1.250  10.362
   71SLPC   C22 6133   2.448   1.076  10.275
   71SLPC   H2R 6134   2.547   1.102  10.231
   71SLPC   H2S 6135   2.456   0.992  10.347
   71SLPC    C3 6136   2.497   1.481  10.396
   71SLPC    HX 6137   2.483   1.581  10.444
   71SLPC    HY 6138   2.404   1.477  10.334
   71SLPC   O31 6139   2.626   1.484  10.327
   71SLPC   C31 6140   2.642   1.578  10.235
   71SLPC   O32 6141   2.554   1.631  10.171
   71SLPC   C32 6142   2.791   1.601  10.204
   71SLPC   H2X 6143   2.846   1.570  10.296
   71SLPC   H2Y 6144   2.814   1.709  10.199
   71SLPC   C23 6145   2.350   1.031  10.162
   71SLPC   H3R 6146   2.242   1.053  10.178
   71SLPC   H3S 6147   2.350   0.924  10.130
   71SLPC   C24 6148   2.386   1.104  10.029
   71SLPC   H4R 6149   2.486   1.075   9.989
   71SLPC   H4S 6150   2.388   1.215  10.036
   71SLPC   C25 6151   2.288   1.062   9.916
   71SLPC   H5R 6152   2.185   1.093   9.945
   71SLPC   H5S 6153   2.287   0.951   9.911
   71SLPC   C26 6154   2.332   1.120   9.781
   71SLPC   H6R 6155   2.431   1.076   9.756
   71SLPC   H6S 6156   2.341   1.230   9.789
   71SLPC   C27 6157   2.225   1.089   9.672
   71SLPC   H7R 6158   2.124   1.129   9.692
   71SLPC   H7S 6159   2.204   0.980   9.665
   71SLPC   C28 6160   2.258   1.138   9.524
   71SLPC   H8R 6161   2.256   1.249   9.519
   71SLPC   H8S 6162   2.183   1.095   9.454
   71SLPC   C29 6163   2.390   1.095   9.471
   71SLPC   H9R 6164   2.468   1.111   9.547
   71SLPC  C210 6165   2.412   1.032   9.356
   71SLPC  H10R 6166   2.515   0.997   9.339
   71SLPC  C211 6167   2.317   0.986   9.250
   71SLPC  H11R 6168   2.362   1.007   9.151
   71SLPC  H11S 6169   2.219   1.039   9.248
   71SLPC  C212 6170   2.280   0.842   9.262
   71SLPC  H12R 6171   2.363   0.773   9.285
   71SLPC  C213 6172   2.167   0.780   9.245
   71SLPC  H13R 6173   2.153   0.674   9.270
   71SLPC  C214 6174   2.031   0.846   9.211
   71SLPC  H14R 6175   2.006   0.807   9.110
   71SLPC  H14S 6176   2.046   0.956   9.212
   71SLPC  C215 6177   1.935   0.799   9.307
   71SLPC  H15R 6178   1.940   0.689   9.316
   71SLPC  H15S 6179   1.838   0.827   9.261
   71SLPC  C216 6180   1.929   0.868   9.444
   71SLPC  H16R 6181   1.938   0.975   9.418
   71SLPC  H16S 6182   2.023   0.838   9.495
   71SLPC  C217 6183   1.808   0.829   9.534
   71SLPC  H17R 6184   1.812   0.719   9.548
   71SLPC  H17S 6185   1.715   0.848   9.476
   71SLPC  C218 6186   1.803   0.909   9.656
   71SLPC  H18R 6187   1.765   1.010   9.631
   71SLPC  H18S 6188   1.906   0.928   9.694
   71SLPC  H18T 6189   1.749   0.860   9.740
   71SLPC   C33 6190   2.852   1.507  10.094
   71SLPC   H3X 6191   2.840   1.402  10.129
   71SLPC   H3Y 6192   2.955   1.544  10.079
   71SLPC   C34 6193   2.774   1.532   9.964
   71SLPC   H4X 6194   2.787   1.637   9.930
   71SLPC   H4Y 6195   2.664   1.517   9.967
   71SLPC   C35 6196   2.829   1.447   9.852
   71SLPC   H5X 6197   2.818   1.342   9.884
   71SLPC   H5Y 6198   2.936   1.466   9.830
   71SLPC   C36 6199   2.746   1.462   9.724
   71SLPC   H6X 6200   2.753   1.566   9.685
   71SLPC   H6Y 6201   2.639   1.438   9.742
   71SLPC   C37 6202   2.791   1.364   9.612
   71SLPC   H7X 6203   2.779   1.258   9.642
   71SLPC   H7Y 6204   2.898   1.387   9.597
   71SLPC   C38 6205   2.721   1.390   9.477
   71SLPC   H8X 6206   2.735   1.497   9.449
   71SLPC   H8Y 6207   2.612   1.372   9.488
   71SLPC   C39 6208   2.778   1.315   9.354
   71SLPC   H9X 6209   2.745   1.209   9.357
   71SLPC   H9Y 6210   2.889   1.309   9.349
   71SLPC  C310 6211   2.726   1.383   9.228
   71SLPC  H10X 6212   2.774   1.483   9.214
   71SLPC  H10Y 6213   2.621   1.418   9.231
   71SLPC  C311 6214   2.745   1.305   9.096
   71SLPC  H11X 6215   2.690   1.209   9.100
   71SLPC  H11Y 6216   2.853   1.288   9.076
   71SLPC  C312 6217   2.698   1.392   8.978
   71SLPC  H12X 6218   2.775   1.452   8.924
   71SLPC  H12Y 6219   2.623   1.470   9.004
   71SLPC  C313 6220   2.633   1.298   8.865
   71SLPC  H13X 6221   2.584   1.365   8.791
   71SLPC  H13Y 6222   2.548   1.244   8.913
   71SLPC  C314 6223   2.728   1.202   8.795
   71SLPC  H14X 6224   2.674   1.153   8.711
   71SLPC  H14Y 6225   2.744   1.118   8.867
   71SLPC  C315 6226   2.853   1.258   8.736
   71SLPC  H15X 6227   2.925   1.276   8.819
   71SLPC  H15Y 6228   2.816   1.352   8.691
   71SLPC  C316 6229   2.918   1.164   8.635
   71SLPC  H16X 6230   2.992   1.228   8.580
   71SLPC  H16Y 6231   2.845   1.126   8.561
   71SLPC  C317 6232   2.989   1.041   8.687
   71SLPC  H17X 6233   3.011   0.969   8.605
   71SLPC  H17Y 6234   2.927   0.977   8.753
   71SLPC  C318 6235   3.112   1.082   8.769
   71SLPC  H18X 6236   3.185   1.000   8.784
   71SLPC  H18Y 6237   3.074   1.108   8.870
   71SLPC  H18Z 6238   3.150   1.169   8.710
   72SLPC     N 6239   4.161   6.745  10.951
   72SLPC   C13 6240   4.180   6.697  11.094
   72SLPC  H13A 6241   4.207   6.782  11.155
   72SLPC  H13B 6242   4.100   6.637  11.134
   72SLPC  H13C 6243   4.262   6.628  11.094
   72SLPC   C14 6244   4.289   6.814  10.907
   72SLPC  H14A 6245   4.371   6.748  10.930
   72SLPC  H14B 6246   4.285   6.835  10.801
   72SLPC  H14C 6247   4.290   6.907  10.962
   72SLPC   C15 6248   4.045   6.836  10.955
   72SLPC  H15A 6249   4.071   6.919  11.019
   72SLPC  H15B 6250   4.017   6.885  10.862
   72SLPC  H15C 6251   3.958   6.786  10.994
   72SLPC   C12 6252   4.130   6.629  10.860
   72SLPC  H12A 6253   4.095   6.654  10.761
   72SLPC  H12B 6254   4.043   6.579  10.899
   72SLPC   C11 6255   4.239   6.519  10.837
   72SLPC  H11A 6256   4.266   6.472  10.934
   72SLPC  H11B 6257   4.329   6.559  10.786
   72SLPC     P 6258   4.104   6.311  10.795
   72SLPC   O13 6259   4.202   6.222  10.860
   72SLPC   O14 6260   3.995   6.364  10.872
   72SLPC   O12 6261   4.181   6.433  10.732
   72SLPC   O11 6262   4.048   6.248  10.660
   72SLPC    C1 6263   4.020   6.345  10.546
   72SLPC    HA 6264   4.001   6.449  10.578
   72SLPC    HB 6265   4.097   6.333  10.466
   72SLPC    C2 6266   3.893   6.299  10.480
   72SLPC    HS 6267   3.910   6.203  10.427
   72SLPC   O21 6268   3.870   6.409  10.395
   72SLPC   C21 6269   3.913   6.401  10.273
   72SLPC   O22 6270   3.969   6.306  10.225
   72SLPC   C22 6271   3.892   6.524  10.190
   72SLPC   H2R 6272   3.795   6.574  10.211
   72SLPC   H2S 6273   3.974   6.592  10.219
   72SLPC    C3 6274   3.776   6.285  10.576
   72SLPC    HX 6275   3.778   6.386  10.622
   72SLPC    HY 6276   3.822   6.211  10.645
   72SLPC   O31 6277   3.649   6.228  10.532
   72SLPC   C31 6278   3.560   6.321  10.497
   72SLPC   O32 6279   3.563   6.441  10.518
   72SLPC   C32 6280   3.465   6.249  10.403
   72SLPC   H2X 6281   3.371   6.308  10.398
   72SLPC   H2Y 6282   3.442   6.147  10.441
   72SLPC   C23 6283   3.888   6.505  10.039
   72SLPC   H3R 6284   3.973   6.442  10.003
   72SLPC   H3S 6285   3.910   6.602   9.989
   72SLPC   C24 6286   3.753   6.461   9.980
   72SLPC   H4R 6287   3.672   6.529  10.012
   72SLPC   H4S 6288   3.730   6.359  10.017
   72SLPC   C25 6289   3.754   6.466   9.829
   72SLPC   H5R 6290   3.822   6.546   9.791
   72SLPC   H5S 6291   3.651   6.487   9.793
   72SLPC   C26 6292   3.814   6.344   9.759
   72SLPC   H6R 6293   3.767   6.260   9.814
   72SLPC   H6S 6294   3.923   6.350   9.779
   72SLPC   C27 6295   3.785   6.331   9.610
   72SLPC   H7R 6296   3.814   6.432   9.575
   72SLPC   H7S 6297   3.676   6.316   9.592
   72SLPC   C28 6298   3.856   6.217   9.535
   72SLPC   H8R 6299   3.791   6.197   9.447
   72SLPC   H8S 6300   3.847   6.126   9.597
   72SLPC   C29 6301   3.998   6.253   9.510
   72SLPC   H9R 6302   4.051   6.267   9.605
   72SLPC  C210 6303   4.051   6.249   9.383
   72SLPC  H10R 6304   4.154   6.283   9.365
   72SLPC  C211 6305   3.979   6.203   9.256
   72SLPC  H11R 6306   3.872   6.232   9.266
   72SLPC  H11S 6307   3.990   6.094   9.241
   72SLPC  C212 6308   4.027   6.260   9.125
   72SLPC  H12R 6309   4.135   6.276   9.110
   72SLPC  C213 6310   3.948   6.275   9.020
   72SLPC  H13R 6311   3.991   6.312   8.926
   72SLPC  C214 6312   3.796   6.266   9.009
   72SLPC  H14R 6313   3.769   6.373   8.995
   72SLPC  H14S 6314   3.746   6.250   9.106
   72SLPC  C215 6315   3.746   6.172   8.902
   72SLPC  H15R 6316   3.636   6.159   8.911
   72SLPC  H15S 6317   3.789   6.070   8.911
   72SLPC  C216 6318   3.764   6.242   8.769
   72SLPC  H16R 6319   3.861   6.296   8.776
   72SLPC  H16S 6320   3.688   6.320   8.746
   72SLPC  C217 6321   3.779   6.148   8.645
   72SLPC  H17R 6322   3.873   6.094   8.668
   72SLPC  H17S 6323   3.798   6.212   8.556
   72SLPC  C218 6324   3.659   6.061   8.621
   72SLPC  H18R 6325   3.648   5.985   8.701
   72SLPC  H18S 6326   3.660   6.014   8.521
   72SLPC  H18T 6327   3.566   6.122   8.631
   72SLPC   C33 6328   3.513   6.250  10.256
   72SLPC   H3X 6329   3.618   6.217  10.241
   72SLPC   H3Y 6330   3.511   6.357  10.228
   72SLPC   C34 6331   3.418   6.180  10.168
   72SLPC   H4X 6332   3.314   6.206  10.199
   72SLPC   H4Y 6333   3.428   6.072  10.191
   72SLPC   C35 6334   3.452   6.197  10.021
   72SLPC   H5X 6335   3.555   6.160  10.004
   72SLPC   H5Y 6336   3.444   6.304   9.994
   72SLPC   C36 6337   3.352   6.109   9.939
   72SLPC   H6X 6338   3.255   6.156   9.967
   72SLPC   H6Y 6339   3.359   6.007   9.981
   72SLPC   C37 6340   3.386   6.102   9.787
   72SLPC   H7X 6341   3.316   6.029   9.741
   72SLPC   H7Y 6342   3.486   6.054   9.778
   72SLPC   C38 6343   3.382   6.233   9.707
   72SLPC   H8X 6344   3.473   6.290   9.735
   72SLPC   H8Y 6345   3.289   6.284   9.740
   72SLPC   C39 6346   3.369   6.193   9.552
   72SLPC   H9X 6347   3.287   6.118   9.551
   72SLPC   H9Y 6348   3.468   6.152   9.522
   72SLPC  C310 6349   3.328   6.318   9.463
   72SLPC  H10X 6350   3.409   6.394   9.458
   72SLPC  H10Y 6351   3.240   6.362   9.514
   72SLPC  C311 6352   3.288   6.278   9.320
   72SLPC  H11X 6353   3.217   6.350   9.274
   72SLPC  H11Y 6354   3.249   6.176   9.299
   72SLPC  C312 6355   3.415   6.282   9.225
   72SLPC  H12X 6356   3.496   6.210   9.246
   72SLPC  H12Y 6357   3.461   6.381   9.246
   72SLPC  C313 6358   3.372   6.266   9.076
   72SLPC  H13X 6359   3.438   6.324   9.007
   72SLPC  H13Y 6360   3.285   6.334   9.068
   72SLPC  C314 6361   3.358   6.122   9.031
   72SLPC  H14X 6362   3.265   6.085   9.077
   72SLPC  H14Y 6363   3.449   6.062   9.051
   72SLPC  C315 6364   3.333   6.099   8.877
   72SLPC  H15X 6365   3.430   6.119   8.826
   72SLPC  H15Y 6366   3.255   6.172   8.847
   72SLPC  C316 6367   3.300   5.964   8.826
   72SLPC  H16X 6368   3.211   5.921   8.876
   72SLPC  H16Y 6369   3.381   5.903   8.872
   72SLPC  C317 6370   3.289   5.946   8.674
   72SLPC  H17X 6371   3.256   5.842   8.658
   72SLPC  H17Y 6372   3.393   5.961   8.638
   72SLPC  C318 6373   3.186   6.032   8.589
   72SLPC  H18X 6374   3.212   6.015   8.482
   72SLPC  H18Y 6375   3.193   6.138   8.620
   72SLPC  H18Z 6376   3.084   5.992   8.606
   73SLPC     N 6377   4.090   5.044  10.753
   73SLPC   C13 6378   4.215   5.095  10.800
   73SLPC  H13A 6379   4.225   5.201  10.816
   73SLPC  H13B 6380   4.239   5.059  10.898
   73SLPC  H13C 6381   4.295   5.053  10.741
   73SLPC   C14 6382   4.074   5.090  10.609
   73SLPC  H14A 6383   3.975   5.050  10.588
   73SLPC  H14B 6384   4.075   5.198  10.604
   73SLPC  H14C 6385   4.149   5.053  10.541
   73SLPC   C15 6386   3.979   5.100  10.831
   73SLPC  H15A 6387   3.949   5.199  10.801
   73SLPC  H15B 6388   3.899   5.028  10.835
   73SLPC  H15C 6389   4.023   5.112  10.929
   73SLPC   C12 6390   4.090   4.894  10.767
   73SLPC  H12A 6391   4.083   4.875  10.873
   73SLPC  H12B 6392   4.188   4.849  10.757
   73SLPC   C11 6393   3.983   4.808  10.689
   73SLPC  H11A 6394   4.016   4.702  10.696
   73SLPC  H11B 6395   3.975   4.852  10.587
   73SLPC     P 6396   3.803   4.754  10.865
   73SLPC   O13 6397   3.919   4.712  10.947
   73SLPC   O14 6398   3.710   4.853  10.921
   73SLPC   O12 6399   3.854   4.825  10.738
   73SLPC   O11 6400   3.735   4.629  10.804
   73SLPC    C1 6401   3.631   4.636  10.696
   73SLPC    HA 6402   3.551   4.560  10.704
   73SLPC    HB 6403   3.582   4.735  10.702
   73SLPC    C2 6404   3.702   4.603  10.565
   73SLPC    HS 6405   3.764   4.693  10.544
   73SLPC   O21 6406   3.611   4.592  10.456
   73SLPC   C21 6407   3.564   4.703  10.401
   73SLPC   O22 6408   3.621   4.808  10.409
   73SLPC   C22 6409   3.426   4.664  10.328
   73SLPC   H2R 6410   3.431   4.557  10.301
   73SLPC   H2S 6411   3.360   4.686  10.414
   73SLPC    C3 6412   3.796   4.477  10.574
   73SLPC    HX 6413   3.741   4.392  10.618
   73SLPC    HY 6414   3.876   4.508  10.645
   73SLPC   O31 6415   3.844   4.429  10.446
   73SLPC   C31 6416   3.936   4.508  10.381
   73SLPC   O32 6417   3.981   4.612  10.423
   73SLPC   C32 6418   3.955   4.447  10.244
   73SLPC   H2X 6419   3.882   4.364  10.233
   73SLPC   H2Y 6420   4.061   4.414  10.243
   73SLPC   C23 6421   3.400   4.748  10.203
   73SLPC   H3R 6422   3.420   4.857  10.211
   73SLPC   H3S 6423   3.290   4.738  10.192
   73SLPC   C24 6424   3.483   4.696  10.079
   73SLPC   H4R 6425   3.442   4.595  10.062
   73SLPC   H4S 6426   3.591   4.682  10.104
   73SLPC   C25 6427   3.472   4.794   9.962
   73SLPC   H5R 6428   3.502   4.894  10.001
   73SLPC   H5S 6429   3.366   4.784   9.929
   73SLPC   C26 6430   3.555   4.748   9.841
   73SLPC   H6R 6431   3.516   4.661   9.784
   73SLPC   H6S 6432   3.660   4.729   9.870
   73SLPC   C27 6433   3.550   4.867   9.738
   73SLPC   H7R 6434   3.576   4.963   9.787
   73SLPC   H7S 6435   3.441   4.871   9.716
   73SLPC   C28 6436   3.642   4.849   9.617
   73SLPC   H8R 6437   3.745   4.858   9.657
   73SLPC   H8S 6438   3.640   4.927   9.538
   73SLPC   C29 6439   3.623   4.710   9.559
   73SLPC   H9R 6440   3.699   4.640   9.596
   73SLPC  C210 6441   3.538   4.662   9.471
   73SLPC  H10R 6442   3.544   4.556   9.445
   73SLPC  C211 6443   3.422   4.736   9.400
   73SLPC  H11R 6444   3.379   4.814   9.467
   73SLPC  H11S 6445   3.350   4.662   9.360
   73SLPC  C212 6446   3.481   4.814   9.287
   73SLPC  H12R 6447   3.560   4.888   9.308
   73SLPC  C213 6448   3.429   4.811   9.161
   73SLPC  H13R 6449   3.479   4.855   9.074
   73SLPC  C214 6450   3.301   4.738   9.111
   73SLPC  H14R 6451   3.283   4.646   9.171
   73SLPC  H14S 6452   3.319   4.695   9.010
   73SLPC  C215 6453   3.171   4.821   9.113
   73SLPC  H15R 6454   3.177   4.899   9.192
   73SLPC  H15S 6455   3.081   4.759   9.132
   73SLPC  C216 6456   3.134   4.891   8.983
   73SLPC  H16R 6457   3.116   4.813   8.906
   73SLPC  H16S 6458   3.221   4.953   8.953
   73SLPC  C217 6459   3.010   4.978   9.004
   73SLPC  H17R 6460   2.991   5.024   8.904
   73SLPC  H17S 6461   3.034   5.069   9.063
   73SLPC  C218 6462   2.881   4.914   9.058
   73SLPC  H18R 6463   2.857   4.823   8.999
   73SLPC  H18S 6464   2.793   4.981   9.061
   73SLPC  H18T 6465   2.894   4.881   9.164
   73SLPC   C33 6466   3.940   4.551  10.129
   73SLPC   H3X 6467   4.009   4.633  10.157
   73SLPC   H3Y 6468   3.837   4.593  10.140
   73SLPC   C34 6469   3.957   4.491   9.986
   73SLPC   H4X 6470   3.869   4.427   9.963
   73SLPC   H4Y 6471   4.040   4.418   9.995
   73SLPC   C35 6472   3.994   4.597   9.887
   73SLPC   H5X 6473   4.103   4.614   9.900
   73SLPC   H5Y 6474   3.936   4.689   9.906
   73SLPC   C36 6475   3.963   4.567   9.739
   73SLPC   H6X 6476   3.854   4.555   9.721
   73SLPC   H6Y 6477   4.012   4.470   9.715
   73SLPC   C37 6478   4.018   4.669   9.644
   73SLPC   H7X 6479   4.122   4.696   9.673
   73SLPC   H7Y 6480   3.968   4.768   9.640
   73SLPC   C38 6481   4.029   4.622   9.499
   73SLPC   H8X 6482   3.924   4.610   9.463
   73SLPC   H8Y 6483   4.066   4.517   9.497
   73SLPC   C39 6484   4.113   4.710   9.403
   73SLPC   H9X 6485   4.220   4.680   9.409
   73SLPC   H9Y 6486   4.121   4.819   9.419
   73SLPC  C310 6487   4.061   4.687   9.260
   73SLPC  H10X 6488   4.039   4.580   9.240
   73SLPC  H10Y 6489   4.154   4.699   9.200
   73SLPC  C311 6490   3.939   4.779   9.227
   73SLPC  H11X 6491   3.971   4.883   9.253
   73SLPC  H11Y 6492   3.854   4.743   9.289
   73SLPC  C312 6493   3.897   4.769   9.083
   73SLPC  H12X 6494   3.839   4.675   9.080
   73SLPC  H12Y 6495   3.995   4.755   9.032
   73SLPC  C313 6496   3.822   4.887   9.027
   73SLPC  H13X 6497   3.857   4.983   9.072
   73SLPC  H13Y 6498   3.715   4.878   9.058
   73SLPC  C314 6499   3.852   4.900   8.879
   73SLPC  H14X 6500   3.867   4.798   8.836
   73SLPC  H14Y 6501   3.931   4.974   8.854
   73SLPC  C315 6502   3.723   4.946   8.804
   73SLPC  H15X 6503   3.749   4.992   8.706
   73SLPC  H15Y 6504   3.680   5.030   8.864
   73SLPC  C316 6505   3.617   4.836   8.793
   73SLPC  H16X 6506   3.582   4.811   8.896
   73SLPC  H16Y 6507   3.666   4.745   8.753
   73SLPC  C317 6508   3.490   4.862   8.710
   73SLPC  H17X 6509   3.458   4.968   8.722
   73SLPC  H17Y 6510   3.405   4.802   8.748
   73SLPC  C318 6511   3.510   4.828   8.560
   73SLPC  H18X 6512   3.525   4.720   8.540
   73SLPC  H18Y 6513   3.597   4.882   8.517
   73SLPC  H18Z 6514   3.420   4.850   8.498
   74SLPC     N 6515   4.553   6.185  10.684
   74SLPC   C13 6516   4.544   6.053  10.752
   74SLPC  H13A 6517   4.469   6.051  10.829
   74SLPC  H13B 6518   4.520   5.968  10.690
   74SLPC  H13C 6519   4.645   6.037  10.786
   74SLPC   C14 6520   4.600   6.292  10.779
   74SLPC  H14A 6521   4.700   6.266  10.811
   74SLPC  H14B 6522   4.597   6.389  10.731
   74SLPC  H14C 6523   4.539   6.300  10.868
   74SLPC   C15 6524   4.423   6.229  10.635
   74SLPC  H15A 6525   4.351   6.213  10.715
   74SLPC  H15B 6526   4.412   6.335  10.617
   74SLPC  H15C 6527   4.388   6.174  10.549
   74SLPC   C12 6528   4.660   6.179  10.573
   74SLPC  H12A 6529   4.633   6.090  10.517
   74SLPC  H12B 6530   4.751   6.141  10.618
   74SLPC   C11 6531   4.678   6.295  10.471
   74SLPC  H11A 6532   4.599   6.298  10.394
   74SLPC  H11B 6533   4.772   6.268  10.419
   74SLPC     P 6534   4.809   6.523  10.507
   74SLPC   O13 6535   4.767   6.660  10.540
   74SLPC   O14 6536   4.939   6.478  10.568
   74SLPC   O12 6537   4.685   6.423  10.539
   74SLPC   O11 6538   4.820   6.512  10.355
   74SLPC    C1 6539   4.738   6.586  10.268
   74SLPC    HA 6540   4.631   6.558  10.284
   74SLPC    HB 6541   4.738   6.694  10.294
   74SLPC    C2 6542   4.776   6.578  10.121
   74SLPC    HS 6543   4.759   6.477  10.079
   74SLPC   O21 6544   4.904   6.638  10.102
   74SLPC   C21 6545   5.005   6.552  10.085
   74SLPC   O22 6546   4.997   6.431  10.084
   74SLPC   C22 6547   5.137   6.629  10.076
   74SLPC   H2R 6548   5.123   6.735  10.043
   74SLPC   H2S 6549   5.194   6.618  10.170
   74SLPC    C3 6550   4.675   6.661  10.038
   74SLPC    HX 6551   4.684   6.767  10.071
   74SLPC    HY 6552   4.579   6.621  10.077
   74SLPC   O31 6553   4.696   6.652   9.896
   74SLPC   C31 6554   4.612   6.572   9.826
   74SLPC   O32 6555   4.527   6.501   9.877
   74SLPC   C32 6556   4.634   6.581   9.685
   74SLPC   H2X 6557   4.600   6.684   9.658
   74SLPC   H2Y 6558   4.577   6.493   9.650
   74SLPC   C23 6559   5.231   6.557   9.980
   74SLPC   H3R 6560   5.223   6.449  10.006
   74SLPC   H3S 6561   5.335   6.592   9.998
   74SLPC   C24 6562   5.193   6.581   9.832
   74SLPC   H4R 6563   5.240   6.679   9.809
   74SLPC   H4S 6564   5.083   6.581   9.818
   74SLPC   C25 6565   5.273   6.482   9.743
   74SLPC   H5R 6566   5.229   6.380   9.747
   74SLPC   H5S 6567   5.375   6.470   9.784
   74SLPC   C26 6568   5.281   6.532   9.603
   74SLPC   H6R 6569   5.351   6.618   9.590
   74SLPC   H6S 6570   5.181   6.572   9.575
   74SLPC   C27 6571   5.313   6.431   9.498
   74SLPC   H7R 6572   5.223   6.365   9.486
   74SLPC   H7S 6573   5.410   6.382   9.517
   74SLPC   C28 6574   5.339   6.493   9.363
   74SLPC   H8R 6575   5.415   6.574   9.372
   74SLPC   H8S 6576   5.252   6.554   9.331
   74SLPC   C29 6577   5.378   6.389   9.254
   74SLPC   H9R 6578   5.296   6.337   9.204
   74SLPC  C210 6579   5.500   6.355   9.204
   74SLPC  H10R 6580   5.509   6.272   9.133
   74SLPC  C211 6581   5.630   6.417   9.231
   74SLPC  H11R 6582   5.624   6.519   9.275
   74SLPC  H11S 6583   5.688   6.419   9.136
   74SLPC  C212 6584   5.706   6.354   9.349
   74SLPC  H12R 6585   5.679   6.395   9.447
   74SLPC  C213 6586   5.804   6.259   9.342
   74SLPC  H13R 6587   5.854   6.234   9.436
   74SLPC  C214 6588   5.859   6.191   9.220
   74SLPC  H14R 6589   5.967   6.218   9.222
   74SLPC  H14S 6590   5.817   6.221   9.121
   74SLPC  C215 6591   5.836   6.041   9.236
   74SLPC  H15R 6592   5.731   6.021   9.266
   74SLPC  H15S 6593   5.901   5.999   9.315
   74SLPC  C216 6594   5.869   5.968   9.098
   74SLPC  H16R 6595   5.975   5.987   9.069
   74SLPC  H16S 6596   5.802   5.997   9.014
   74SLPC  C217 6597   5.856   5.814   9.107
   74SLPC  H17R 6598   5.754   5.781   9.135
   74SLPC  H17S 6599   5.929   5.782   9.185
   74SLPC  C218 6600   5.883   5.743   8.971
   74SLPC  H18R 6601   5.844   5.639   8.972
   74SLPC  H18S 6602   5.992   5.735   8.948
   74SLPC  H18T 6603   5.825   5.798   8.894
   74SLPC   C33 6604   4.782   6.574   9.640
   74SLPC   H3X 6605   4.842   6.520   9.717
   74SLPC   H3Y 6606   4.812   6.680   9.641
   74SLPC   C34 6607   4.794   6.526   9.497
   74SLPC   H4X 6608   4.736   6.434   9.478
   74SLPC   H4Y 6609   4.902   6.507   9.478
   74SLPC   C35 6610   4.761   6.624   9.387
   74SLPC   H5X 6611   4.810   6.723   9.388
   74SLPC   H5Y 6612   4.654   6.647   9.403
   74SLPC   C36 6613   4.778   6.559   9.247
   74SLPC   H6X 6614   4.744   6.455   9.261
   74SLPC   H6Y 6615   4.886   6.548   9.220
   74SLPC   C37 6616   4.696   6.625   9.140
   74SLPC   H7X 6617   4.713   6.735   9.136
   74SLPC   H7Y 6618   4.586   6.611   9.152
   74SLPC   C38 6619   4.736   6.560   9.009
   74SLPC   H8X 6620   4.653   6.579   8.937
   74SLPC   H8Y 6621   4.747   6.450   9.013
   74SLPC   C39 6622   4.864   6.625   8.959
   74SLPC   H9X 6623   4.944   6.628   9.036
   74SLPC   H9Y 6624   4.839   6.731   8.940
   74SLPC  C310 6625   4.911   6.566   8.816
   74SLPC  H10X 6626   5.022   6.556   8.814
   74SLPC  H10Y 6627   4.897   6.649   8.743
   74SLPC  C311 6628   4.847   6.443   8.755
   74SLPC  H11X 6629   4.738   6.461   8.744
   74SLPC  H11Y 6630   4.858   6.350   8.814
   74SLPC  C312 6631   4.903   6.420   8.616
   74SLPC  H12X 6632   5.010   6.392   8.603
   74SLPC  H12Y 6633   4.889   6.508   8.551
   74SLPC  C313 6634   4.822   6.311   8.545
   74SLPC  H13X 6635   4.876   6.294   8.450
   74SLPC  H13Y 6636   4.723   6.357   8.520
   74SLPC  C314 6637   4.797   6.174   8.618
   74SLPC  H14X 6638   4.789   6.196   8.727
   74SLPC  H14Y 6639   4.874   6.096   8.599
   74SLPC  C315 6640   4.668   6.110   8.567
   74SLPC  H15X 6641   4.672   6.063   8.467
   74SLPC  H15Y 6642   4.592   6.190   8.557
   74SLPC  C316 6643   4.623   6.001   8.667
   74SLPC  H16X 6644   4.604   6.057   8.761
   74SLPC  H16Y 6645   4.706   5.930   8.689
   74SLPC  C317 6646   4.508   5.916   8.619
   74SLPC  H17X 6647   4.542   5.829   8.558
   74SLPC  H17Y 6648   4.456   5.983   8.548
   74SLPC  C318 6649   4.408   5.859   8.713
   74SLPC  H18X 6650   4.349   5.940   8.762
   74SLPC  H18Y 6651   4.471   5.810   8.790
   74SLPC  H18Z 6652   4.329   5.792   8.670
   75SLPC     N 6653   2.805   3.206   6.547
   75SLPC   C13 6654   2.836   3.332   6.476
   75SLPC  H13A 6655   2.792   3.333   6.377
   75SLPC  H13B 6656   2.802   3.422   6.524
   75SLPC  H13C 6657   2.942   3.340   6.456
   75SLPC   C14 6658   2.849   3.090   6.467
   75SLPC  H14A 6659   2.957   3.089   6.464
   75SLPC  H14B 6660   2.828   3.000   6.523
   75SLPC  H14C 6661   2.814   3.086   6.365
   75SLPC   C15 6662   2.661   3.199   6.570
   75SLPC  H15A 6663   2.628   3.102   6.605
   75SLPC  H15B 6664   2.617   3.278   6.630
   75SLPC  H15C 6665   2.601   3.206   6.481
   75SLPC   C12 6666   2.876   3.214   6.682
   75SLPC  H12A 6667   2.857   3.120   6.730
   75SLPC  H12B 6668   2.827   3.291   6.740
   75SLPC   C11 6669   3.031   3.238   6.688
   75SLPC  H11A 6670   3.069   3.209   6.788
   75SLPC  H11B 6671   3.032   3.349   6.677
   75SLPC     P 6672   3.151   3.025   6.604
   75SLPC   O13 6673   3.137   2.953   6.479
   75SLPC   O14 6674   3.279   3.029   6.677
   75SLPC   O12 6675   3.109   3.177   6.586
   75SLPC   O11 6676   3.043   2.978   6.705
   75SLPC    C1 6677   2.984   2.847   6.701
   75SLPC    HA 6678   2.912   2.837   6.617
   75SLPC    HB 6679   3.067   2.774   6.691
   75SLPC    C2 6680   2.911   2.825   6.832
   75SLPC    HS 6681   2.831   2.902   6.834
   75SLPC   O21 6682   3.008   2.826   6.938
   75SLPC   C21 6683   2.991   2.926   7.019
   75SLPC   O22 6684   2.894   3.005   7.017
   75SLPC   C22 6685   3.098   2.927   7.126
   75SLPC   H2R 6686   3.121   2.827   7.169
   75SLPC   H2S 6687   3.189   2.958   7.070
   75SLPC    C3 6688   2.846   2.683   6.817
   75SLPC    HX 6689   2.925   2.607   6.801
   75SLPC    HY 6690   2.786   2.684   6.723
   75SLPC   O31 6691   2.770   2.644   6.936
   75SLPC   C31 6692   2.653   2.707   6.945
   75SLPC   O32 6693   2.600   2.779   6.866
   75SLPC   C32 6694   2.588   2.653   7.073
   75SLPC   H2X 6695   2.563   2.547   7.053
   75SLPC   H2Y 6696   2.489   2.702   7.083
   75SLPC   C23 6697   3.065   3.026   7.235
   75SLPC   H3R 6698   3.024   3.118   7.190
   75SLPC   H3S 6699   3.159   3.059   7.285
   75SLPC   C24 6700   2.955   2.966   7.337
   75SLPC   H4R 6701   2.987   2.873   7.389
   75SLPC   H4S 6702   2.866   2.953   7.271
   75SLPC   C25 6703   2.928   3.074   7.454
   75SLPC   H5R 6704   2.827   3.053   7.495
   75SLPC   H5S 6705   2.914   3.169   7.399
   75SLPC   C26 6706   3.026   3.090   7.559
   75SLPC   H6R 6707   2.992   3.175   7.622
   75SLPC   H6S 6708   3.123   3.131   7.523
   75SLPC   C27 6709   3.040   2.982   7.669
   75SLPC   H7R 6710   3.121   3.019   7.736
   75SLPC   H7S 6711   3.075   2.888   7.622
   75SLPC   C28 6712   2.915   2.962   7.759
   75SLPC   H8R 6713   2.823   2.942   7.701
   75SLPC   H8S 6714   2.884   3.056   7.810
   75SLPC   C29 6715   2.930   2.858   7.864
   75SLPC   H9R 6716   2.921   2.756   7.824
   75SLPC  C210 6717   2.971   2.872   7.992
   75SLPC  H10R 6718   2.981   2.782   8.055
   75SLPC  C211 6719   3.015   2.999   8.060
   75SLPC  H11R 6720   2.962   3.012   8.157
   75SLPC  H11S 6721   2.999   3.089   7.997
   75SLPC  C212 6722   3.169   3.021   8.088
   75SLPC  H12R 6723   3.230   3.024   7.996
   75SLPC  C213 6724   3.232   3.013   8.207
   75SLPC  H13R 6725   3.341   3.015   8.202
   75SLPC  C214 6726   3.169   2.969   8.331
   75SLPC  H14R 6727   3.092   2.889   8.321
   75SLPC  H14S 6728   3.129   3.057   8.387
   75SLPC  C215 6729   3.269   2.920   8.439
   75SLPC  H15R 6730   3.212   2.907   8.533
   75SLPC  H15S 6731   3.355   2.988   8.457
   75SLPC  C216 6732   3.326   2.777   8.412
   75SLPC  H16R 6733   3.382   2.779   8.317
   75SLPC  H16S 6734   3.245   2.702   8.401
   75SLPC  C217 6735   3.422   2.729   8.525
   75SLPC  H17R 6736   3.430   2.619   8.524
   75SLPC  H17S 6737   3.367   2.752   8.618
   75SLPC  C218 6738   3.551   2.797   8.528
   75SLPC  H18R 6739   3.602   2.765   8.435
   75SLPC  H18S 6740   3.614   2.757   8.610
   75SLPC  H18T 6741   3.553   2.906   8.546
   75SLPC   C33 6742   2.671   2.684   7.191
   75SLPC   H3X 6743   2.772   2.640   7.178
   75SLPC   H3Y 6744   2.691   2.793   7.195
   75SLPC   C34 6745   2.627   2.642   7.333
   75SLPC   H4X 6746   2.648   2.533   7.337
   75SLPC   H4Y 6747   2.517   2.660   7.341
   75SLPC   C35 6748   2.705   2.721   7.442
   75SLPC   H5X 6749   2.665   2.824   7.447
   75SLPC   H5Y 6750   2.808   2.736   7.403
   75SLPC   C36 6751   2.703   2.655   7.579
   75SLPC   H6X 6752   2.809   2.666   7.609
   75SLPC   H6Y 6753   2.694   2.544   7.575
   75SLPC   C37 6754   2.596   2.705   7.677
   75SLPC   H7X 6755   2.494   2.685   7.638
   75SLPC   H7Y 6756   2.608   2.815   7.687
   75SLPC   C38 6757   2.587   2.648   7.817
   75SLPC   H8X 6758   2.681   2.666   7.873
   75SLPC   H8Y 6759   2.591   2.540   7.791
   75SLPC   C39 6760   2.463   2.700   7.887
   75SLPC   H9X 6761   2.383   2.689   7.811
   75SLPC   H9Y 6762   2.475   2.808   7.909
   75SLPC  C310 6763   2.443   2.625   8.017
   75SLPC  H10X 6764   2.542   2.632   8.069
   75SLPC  H10Y 6765   2.422   2.521   7.986
   75SLPC  C311 6766   2.333   2.687   8.097
   75SLPC  H11X 6767   2.243   2.691   8.032
   75SLPC  H11Y 6768   2.376   2.787   8.120
   75SLPC  C312 6769   2.299   2.601   8.226
   75SLPC  H12X 6770   2.247   2.512   8.184
   75SLPC  H12Y 6771   2.224   2.650   8.291
   75SLPC  C313 6772   2.418   2.569   8.318
   75SLPC  H13X 6773   2.473   2.662   8.344
   75SLPC  H13Y 6774   2.490   2.509   8.259
   75SLPC  C314 6775   2.368   2.472   8.432
   75SLPC  H14X 6776   2.297   2.400   8.386
   75SLPC  H14Y 6777   2.294   2.523   8.498
   75SLPC  C315 6778   2.489   2.407   8.509
   75SLPC  H15X 6779   2.558   2.368   8.431
   75SLPC  H15Y 6780   2.451   2.319   8.565
   75SLPC  C316 6781   2.565   2.507   8.589
   75SLPC  H16X 6782   2.501   2.547   8.671
   75SLPC  H16Y 6783   2.594   2.596   8.530
   75SLPC  C317 6784   2.703   2.464   8.640
   75SLPC  H17X 6785   2.765   2.548   8.676
   75SLPC  H17Y 6786   2.743   2.419   8.546
   75SLPC  C318 6787   2.696   2.366   8.755
   75SLPC  H18X 6788   2.626   2.282   8.736
   75SLPC  H18Y 6789   2.663   2.428   8.841
   75SLPC  H18Z 6790   2.796   2.330   8.787
   76SLPC     N 6791   5.309   1.641   6.023
   76SLPC   C13 6792   5.423   1.540   6.019
   76SLPC  H13A 6793   5.499   1.556   5.943
   76SLPC  H13B 6794   5.471   1.533   6.115
   76SLPC  H13C 6795   5.377   1.445   5.999
   76SLPC   C14 6796   5.241   1.645   5.895
   76SLPC  H14A 6797   5.309   1.670   5.815
   76SLPC  H14B 6798   5.192   1.554   5.863
   76SLPC  H14C 6799   5.162   1.719   5.894
   76SLPC   C15 6800   5.375   1.772   6.057
   76SLPC  H15A 6801   5.307   1.856   6.045
   76SLPC  H15B 6802   5.413   1.771   6.158
   76SLPC  H15C 6803   5.459   1.778   5.990
   76SLPC   C12 6804   5.199   1.608   6.122
   76SLPC  H12A 6805   5.159   1.511   6.095
   76SLPC  H12B 6806   5.124   1.683   6.102
   76SLPC   C11 6807   5.212   1.597   6.278
   76SLPC  H11A 6808   5.118   1.592   6.337
   76SLPC  H11B 6809   5.247   1.693   6.320
   76SLPC     P 6810   5.256   1.343   6.278
   76SLPC   O13 6811   5.108   1.335   6.269
   76SLPC   O14 6812   5.327   1.299   6.152
   76SLPC   O12 6813   5.298   1.489   6.317
   76SLPC   O11 6814   5.302   1.256   6.400
   76SLPC    C1 6815   5.252   1.119   6.409
   76SLPC    HA 6816   5.256   1.067   6.311
   76SLPC    HB 6817   5.322   1.059   6.470
   76SLPC    C2 6818   5.101   1.108   6.465
   76SLPC    HS 6819   5.033   1.169   6.401
   76SLPC   O21 6820   5.095   1.157   6.603
   76SLPC   C21 6821   4.975   1.212   6.635
   76SLPC   O22 6822   4.873   1.211   6.573
   76SLPC   C22 6823   4.979   1.262   6.773
   76SLPC   H2R 6824   4.909   1.202   6.835
   76SLPC   H2S 6825   5.074   1.250   6.829
   76SLPC    C3 6826   5.051   0.962   6.456
   76SLPC    HX 6827   5.137   0.895   6.477
   76SLPC    HY 6828   5.016   0.945   6.352
   76SLPC   O31 6829   4.941   0.936   6.550
   76SLPC   C31 6830   4.898   0.808   6.539
   76SLPC   O32 6831   4.959   0.730   6.464
   76SLPC   C32 6832   4.797   0.778   6.651
   76SLPC   H2X 6833   4.831   0.679   6.689
   76SLPC   H2Y 6834   4.692   0.764   6.616
   76SLPC   C23 6835   4.939   1.410   6.789
   76SLPC   H3R 6836   4.835   1.419   6.752
   76SLPC   H3S 6837   5.004   1.476   6.728
   76SLPC   C24 6838   4.953   1.465   6.927
   76SLPC   H4R 6839   4.903   1.564   6.934
   76SLPC   H4S 6840   5.062   1.485   6.933
   76SLPC   C25 6841   4.893   1.376   7.036
   76SLPC   H5R 6842   4.938   1.274   7.042
   76SLPC   H5S 6843   4.790   1.375   6.995
   76SLPC   C26 6844   4.886   1.456   7.175
   76SLPC   H6R 6845   4.835   1.553   7.160
   76SLPC   H6S 6846   4.988   1.478   7.213
   76SLPC   C27 6847   4.806   1.375   7.278
   76SLPC   H7R 6848   4.838   1.273   7.310
   76SLPC   H7S 6849   4.714   1.342   7.225
   76SLPC   C28 6850   4.768   1.456   7.406
   76SLPC   H8R 6851   4.729   1.554   7.369
   76SLPC   H8S 6852   4.680   1.406   7.451
   76SLPC   C29 6853   4.884   1.453   7.503
   76SLPC   H9R 6854   4.983   1.435   7.459
   76SLPC  C210 6855   4.877   1.444   7.637
   76SLPC  H10R 6856   4.971   1.449   7.695
   76SLPC  C211 6857   4.759   1.435   7.723
   76SLPC  H11R 6858   4.661   1.417   7.673
   76SLPC  H11S 6859   4.751   1.533   7.774
   76SLPC  C212 6860   4.770   1.338   7.836
   76SLPC  H12R 6861   4.854   1.269   7.821
   76SLPC  C213 6862   4.711   1.355   7.958
   76SLPC  H13R 6863   4.756   1.297   8.040
   76SLPC  C214 6864   4.602   1.450   7.993
   76SLPC  H14R 6865   4.523   1.388   8.042
   76SLPC  H14S 6866   4.560   1.507   7.908
   76SLPC  C215 6867   4.648   1.562   8.085
   76SLPC  H15R 6868   4.572   1.640   8.110
   76SLPC  H15S 6869   4.729   1.606   8.023
   76SLPC  C216 6870   4.707   1.515   8.213
   76SLPC  H16R 6871   4.797   1.450   8.205
   76SLPC  H16S 6872   4.627   1.459   8.265
   76SLPC  C217 6873   4.741   1.634   8.317
   76SLPC  H17R 6874   4.665   1.617   8.396
   76SLPC  H17S 6875   4.718   1.732   8.271
   76SLPC  C218 6876   4.881   1.633   8.384
   76SLPC  H18R 6877   4.894   1.731   8.435
   76SLPC  H18S 6878   4.967   1.634   8.314
   76SLPC  H18T 6879   4.896   1.539   8.442
   76SLPC   C33 6880   4.803   0.892   6.759
   76SLPC   H3X 6881   4.752   0.982   6.718
   76SLPC   H3Y 6882   4.905   0.929   6.779
   76SLPC   C34 6883   4.757   0.853   6.902
   76SLPC   H4X 6884   4.835   0.787   6.946
   76SLPC   H4Y 6885   4.662   0.797   6.889
   76SLPC   C35 6886   4.732   0.973   6.983
   76SLPC   H5X 6887   4.671   1.049   6.930
   76SLPC   H5Y 6888   4.830   1.012   7.018
   76SLPC   C36 6889   4.642   0.952   7.106
   76SLPC   H6X 6890   4.686   0.876   7.175
   76SLPC   H6Y 6891   4.553   0.903   7.062
   76SLPC   C37 6892   4.610   1.085   7.184
   76SLPC   H7X 6893   4.568   1.161   7.114
   76SLPC   H7Y 6894   4.707   1.122   7.222
   76SLPC   C38 6895   4.520   1.061   7.301
   76SLPC   H8X 6896   4.568   0.987   7.370
   76SLPC   H8Y 6897   4.428   1.019   7.255
   76SLPC   C39 6898   4.481   1.191   7.381
   76SLPC   H9X 6899   4.437   1.266   7.312
   76SLPC   H9Y 6900   4.567   1.234   7.436
   76SLPC  C310 6901   4.387   1.149   7.494
   76SLPC  H10X 6902   4.438   1.064   7.544
   76SLPC  H10Y 6903   4.293   1.123   7.441
   76SLPC  C311 6904   4.376   1.256   7.598
   76SLPC  H11X 6905   4.315   1.342   7.560
   76SLPC  H11Y 6906   4.474   1.305   7.612
   76SLPC  C312 6907   4.323   1.218   7.727
   76SLPC  H12X 6908   4.395   1.157   7.786
   76SLPC  H12Y 6909   4.230   1.157   7.726
   76SLPC  C313 6910   4.293   1.340   7.810
   76SLPC  H13X 6911   4.218   1.400   7.755
   76SLPC  H13Y 6912   4.384   1.400   7.826
   76SLPC  C314 6913   4.248   1.303   7.956
   76SLPC  H14X 6914   4.308   1.222   8.002
   76SLPC  H14Y 6915   4.145   1.266   7.936
   76SLPC  C315 6916   4.234   1.427   8.051
   76SLPC  H15X 6917   4.183   1.510   7.998
   76SLPC  H15Y 6918   4.334   1.444   8.097
   76SLPC  C316 6919   4.138   1.398   8.169
   76SLPC  H16X 6920   4.157   1.480   8.242
   76SLPC  H16Y 6921   4.183   1.308   8.217
   76SLPC  C317 6922   3.992   1.397   8.126
   76SLPC  H17X 6923   3.981   1.312   8.054
   76SLPC  H17Y 6924   3.972   1.493   8.074
   76SLPC  C318 6925   3.902   1.387   8.243
   76SLPC  H18X 6926   3.909   1.283   8.283
   76SLPC  H18Y 6927   3.795   1.399   8.217
   76SLPC  H18Z 6928   3.910   1.453   8.332
   77SLPC     N 6929   0.838   0.425   6.227
   77SLPC   C13 6930   0.736   0.351   6.134
   77SLPC  H13A 6931   0.701   0.259   6.178
   77SLPC  H13B 6932   0.654   0.420   6.123
   77SLPC  H13C 6933   0.785   0.340   6.038
   77SLPC   C14 6934   0.879   0.560   6.170
   77SLPC  H14A 6935   0.934   0.618   6.243
   77SLPC  H14B 6936   0.943   0.554   6.083
   77SLPC  H14C 6937   0.794   0.618   6.140
   77SLPC   C15 6938   0.967   0.345   6.244
   77SLPC  H15A 6939   1.019   0.366   6.337
   77SLPC  H15B 6940   0.958   0.238   6.231
   77SLPC  H15C 6941   1.037   0.384   6.172
   77SLPC   C12 6942   0.772   0.447   6.364
   77SLPC  H12A 6943   0.726   0.355   6.396
   77SLPC  H12B 6944   0.685   0.508   6.342
   77SLPC   C11 6945   0.854   0.506   6.482
   77SLPC  H11A 6946   0.931   0.430   6.509
   77SLPC  H11B 6947   0.786   0.518   6.569
   77SLPC     P 6948   1.016   0.710   6.529
   77SLPC   O13 6949   1.136   0.623   6.541
   77SLPC   O14 6950   1.037   0.849   6.484
   77SLPC   O12 6951   0.907   0.630   6.441
   77SLPC   O11 6952   0.942   0.714   6.669
   77SLPC    C1 6953   0.841   0.812   6.688
   77SLPC    HA 6954   0.869   0.907   6.639
   77SLPC    HB 6955   0.747   0.772   6.643
   77SLPC    C2 6956   0.806   0.826   6.843
   77SLPC    HS 6957   0.748   0.919   6.862
   77SLPC   O21 6958   0.929   0.826   6.915
   77SLPC   C21 6959   1.005   0.927   6.891
   77SLPC   O22 6960   0.978   1.030   6.828
   77SLPC   C22 6961   1.138   0.913   6.960
   77SLPC   H2R 6962   1.167   0.806   6.958
   77SLPC   H2S 6963   1.217   0.967   6.904
   77SLPC    C3 6964   0.733   0.708   6.893
   77SLPC    HX 6965   0.778   0.614   6.853
   77SLPC    HY 6966   0.642   0.704   6.829
   77SLPC   O31 6967   0.695   0.718   7.028
   77SLPC   C31 6968   0.702   0.616   7.108
   77SLPC   O32 6969   0.714   0.497   7.073
   77SLPC   C32 6970   0.679   0.666   7.246
   77SLPC   H2X 6971   0.606   0.750   7.245
   77SLPC   H2Y 6972   0.765   0.715   7.295
   77SLPC   C23 6973   1.142   0.958   7.110
   77SLPC   H3R 6974   1.091   1.056   7.123
   77SLPC   H3S 6975   1.248   0.968   7.141
   77SLPC   C24 6976   1.087   0.857   7.201
   77SLPC   H4R 6977   0.994   0.822   7.152
   77SLPC   H4S 6978   1.056   0.918   7.289
   77SLPC   C25 6979   1.183   0.743   7.247
   77SLPC   H5R 6980   1.262   0.788   7.312
   77SLPC   H5S 6981   1.239   0.712   7.155
   77SLPC   C26 6982   1.116   0.629   7.319
   77SLPC   H6R 6983   1.037   0.596   7.247
   77SLPC   H6S 6984   1.066   0.658   7.414
   77SLPC   C27 6985   1.208   0.511   7.341
   77SLPC   H7R 6986   1.308   0.545   7.377
   77SLPC   H7S 6987   1.226   0.463   7.242
   77SLPC   C28 6988   1.161   0.383   7.428
   77SLPC   H8R 6989   1.246   0.311   7.429
   77SLPC   H8S 6990   1.082   0.328   7.374
   77SLPC   C29 6991   1.097   0.422   7.561
   77SLPC   H9R 6992   1.034   0.512   7.555
   77SLPC  C210 6993   1.123   0.368   7.677
   77SLPC  H10R 6994   1.083   0.417   7.767
   77SLPC  C211 6995   1.233   0.266   7.705
   77SLPC  H11R 6996   1.278   0.230   7.610
   77SLPC  H11S 6997   1.199   0.170   7.749
   77SLPC  C212 6998   1.345   0.329   7.788
   77SLPC  H12R 6999   1.431   0.379   7.740
   77SLPC  C213 7000   1.364   0.321   7.920
   77SLPC  H13R 7001   1.453   0.362   7.968
   77SLPC  C214 7002   1.270   0.258   8.013
   77SLPC  H14R 7003   1.304   0.153   8.028
   77SLPC  H14S 7004   1.166   0.252   7.975
   77SLPC  C215 7005   1.288   0.315   8.156
   77SLPC  H15R 7006   1.296   0.426   8.147
   77SLPC  H15S 7007   1.386   0.287   8.200
   77SLPC  C216 7008   1.181   0.261   8.260
   77SLPC  H16R 7009   1.217   0.265   8.365
   77SLPC  H16S 7010   1.167   0.153   8.243
   77SLPC  C217 7011   1.050   0.336   8.252
   77SLPC  H17R 7012   1.006   0.349   8.151
   77SLPC  H17S 7013   1.064   0.438   8.293
   77SLPC  C218 7014   0.945   0.266   8.339
   77SLPC  H18R 7015   0.979   0.271   8.444
   77SLPC  H18S 7016   0.936   0.161   8.304
   77SLPC  H18T 7017   0.846   0.316   8.329
   77SLPC   C33 7018   0.626   0.543   7.340
   77SLPC   H3X 7019   0.551   0.486   7.280
   77SLPC   H3Y 7020   0.574   0.588   7.426
   77SLPC   C34 7021   0.749   0.464   7.388
   77SLPC   H4X 7022   0.826   0.528   7.435
   77SLPC   H4Y 7023   0.792   0.423   7.295
   77SLPC   C35 7024   0.712   0.353   7.482
   77SLPC   H5X 7025   0.610   0.318   7.454
   77SLPC   H5Y 7026   0.697   0.400   7.581
   77SLPC   C36 7027   0.802   0.228   7.482
   77SLPC   H6X 7028   0.910   0.252   7.469
   77SLPC   H6Y 7029   0.784   0.173   7.387
   77SLPC   C37 7030   0.769   0.151   7.606
   77SLPC   H7X 7031   0.664   0.117   7.597
   77SLPC   H7Y 7032   0.768   0.210   7.700
   77SLPC   C38 7033   0.865   0.031   7.623
   77SLPC   H8X 7034   0.970   0.067   7.624
   77SLPC   H8Y 7035   0.857  -0.044   7.541
   77SLPC   C39 7036   0.828  -0.034   7.754
   77SLPC   H9X 7037   0.864  -0.138   7.761
   77SLPC   H9Y 7038   0.717  -0.028   7.764
   77SLPC  C310 7039   0.890   0.024   7.885
   77SLPC  H10X 7040   0.846   0.126   7.884
   77SLPC  H10Y 7041   1.000   0.029   7.867
   77SLPC  C311 7042   0.842  -0.045   8.014
   77SLPC  H11X 7043   0.877   0.018   8.099
   77SLPC  H11Y 7044   0.887  -0.146   8.017
   77SLPC  C312 7045   0.694  -0.070   8.019
   77SLPC  H12X 7046   0.653  -0.118   7.928
   77SLPC  H12Y 7047   0.649   0.031   8.029
   77SLPC  C313 7048   0.649  -0.146   8.146
   77SLPC  H13X 7049   0.706  -0.241   8.139
   77SLPC  H13Y 7050   0.544  -0.169   8.117
   77SLPC  C314 7051   0.656  -0.066   8.274
   77SLPC  H14X 7052   0.625   0.036   8.243
   77SLPC  H14Y 7053   0.754  -0.069   8.327
   77SLPC  C315 7054   0.567  -0.124   8.382
   77SLPC  H15X 7055   0.593  -0.231   8.396
   77SLPC  H15Y 7056   0.458  -0.127   8.359
   77SLPC  C316 7057   0.578  -0.065   8.525
   77SLPC  H16X 7058   0.676  -0.019   8.550
   77SLPC  H16Y 7059   0.568  -0.155   8.589
   77SLPC  C317 7060   0.473   0.036   8.565
   77SLPC  H17X 7061   0.369  -0.002   8.562
   77SLPC  H17Y 7062   0.482   0.119   8.492
   77SLPC  C318 7063   0.488   0.101   8.709
   77SLPC  H18X 7064   0.422   0.190   8.705
   77SLPC  H18Y 7065   0.591   0.139   8.725
   77SLPC  H18Z 7066   0.458   0.034   8.792
   78SLPC     N 7067   2.412   1.672   6.034
   78SLPC   C13 7068   2.283   1.645   5.965
   78SLPC  H13A 7069   2.198   1.673   6.026
   78SLPC  H13B 7070   2.270   1.691   5.868
   78SLPC  H13C 7071   2.279   1.538   5.955
   78SLPC   C14 7072   2.418   1.582   6.150
   78SLPC  H14A 7073   2.519   1.567   6.186
   78SLPC  H14B 7074   2.358   1.614   6.234
   78SLPC  H14C 7075   2.383   1.485   6.119
   78SLPC   C15 7076   2.427   1.809   6.089
   78SLPC  H15A 7077   2.424   1.894   6.023
   78SLPC  H15B 7078   2.350   1.831   6.162
   78SLPC  H15C 7079   2.514   1.825   6.151
   78SLPC   C12 7080   2.526   1.641   5.945
   78SLPC  H12A 7081   2.523   1.704   5.857
   78SLPC  H12B 7082   2.513   1.541   5.906
   78SLPC   C11 7083   2.672   1.654   6.002
   78SLPC  H11A 7084   2.746   1.630   5.922
   78SLPC  H11B 7085   2.673   1.564   6.066
   78SLPC     P 7086   2.763   1.806   6.209
   78SLPC   O13 7087   2.860   1.919   6.198
   78SLPC   O14 7088   2.653   1.817   6.309
   78SLPC   O12 7089   2.706   1.777   6.067
   78SLPC   O11 7090   2.854   1.671   6.225
   78SLPC    C1 7091   2.824   1.572   6.323
   78SLPC    HA 7092   2.716   1.544   6.321
   78SLPC    HB 7093   2.887   1.481   6.311
   78SLPC    C2 7094   2.860   1.614   6.468
   78SLPC    HS 7095   2.804   1.706   6.495
   78SLPC   O21 7096   3.000   1.648   6.478
   78SLPC   C21 7097   3.035   1.732   6.573
   78SLPC   O22 7098   2.964   1.805   6.638
   78SLPC   C22 7099   3.185   1.720   6.608
   78SLPC   H2R 7100   3.219   1.619   6.575
   78SLPC   H2S 7101   3.235   1.798   6.548
   78SLPC    C3 7102   2.812   1.500   6.566
   78SLPC    HX 7103   2.874   1.413   6.536
   78SLPC    HY 7104   2.705   1.475   6.556
   78SLPC   O31 7105   2.848   1.541   6.701
   78SLPC   C31 7106   2.750   1.566   6.790
   78SLPC   O32 7107   2.634   1.537   6.772
   78SLPC   C32 7108   2.815   1.612   6.919
   78SLPC   H2X 7109   2.897   1.680   6.888
   78SLPC   H2Y 7110   2.870   1.522   6.954
   78SLPC   C23 7111   3.216   1.755   6.755
   78SLPC   H3R 7112   3.157   1.699   6.830
   78SLPC   H3S 7113   3.217   1.865   6.769
   78SLPC   C24 7114   3.354   1.699   6.777
   78SLPC   H4R 7115   3.429   1.752   6.715
   78SLPC   H4S 7116   3.351   1.589   6.757
   78SLPC   C25 7117   3.406   1.708   6.918
   78SLPC   H5R 7118   3.339   1.648   6.983
   78SLPC   H5S 7119   3.395   1.813   6.952
   78SLPC   C26 7120   3.557   1.668   6.928
   78SLPC   H6R 7121   3.580   1.705   7.031
   78SLPC   H6S 7122   3.614   1.718   6.847
   78SLPC   C27 7123   3.589   1.518   6.941
   78SLPC   H7R 7124   3.580   1.472   6.840
   78SLPC   H7S 7125   3.525   1.468   7.017
   78SLPC   C28 7126   3.727   1.487   6.996
   78SLPC   H8R 7127   3.724   1.379   7.023
   78SLPC   H8S 7128   3.736   1.549   7.087
   78SLPC   C29 7129   3.833   1.521   6.894
   78SLPC   H9R 7130   3.839   1.464   6.800
   78SLPC  C210 7131   3.920   1.622   6.907
   78SLPC  H10R 7132   4.004   1.614   6.836
   78SLPC  C211 7133   3.918   1.736   7.008
   78SLPC  H11R 7134   3.813   1.762   7.031
   78SLPC  H11S 7135   3.966   1.823   6.958
   78SLPC  C212 7136   3.976   1.708   7.144
   78SLPC  H12R 7137   4.023   1.611   7.163
   78SLPC  C213 7138   3.991   1.798   7.247
   78SLPC  H13R 7139   4.045   1.779   7.341
   78SLPC  C214 7140   3.938   1.942   7.259
   78SLPC  H14R 7141   3.841   1.931   7.206
   78SLPC  H14S 7142   3.999   2.011   7.197
   78SLPC  C215 7143   3.916   1.997   7.399
   78SLPC  H15R 7144   3.889   1.914   7.467
   78SLPC  H15S 7145   3.833   2.071   7.403
   78SLPC  C216 7146   4.036   2.071   7.455
   78SLPC  H16R 7147   4.026   2.173   7.413
   78SLPC  H16S 7148   4.134   2.025   7.427
   78SLPC  C217 7149   4.050   2.105   7.604
   78SLPC  H17R 7150   4.071   2.004   7.646
   78SLPC  H17S 7151   3.953   2.133   7.650
   78SLPC  C218 7152   4.173   2.189   7.638
   78SLPC  H18R 7153   4.189   2.189   7.748
   78SLPC  H18S 7154   4.160   2.299   7.629
   78SLPC  H18T 7155   4.258   2.151   7.577
   78SLPC   C33 7156   2.735   1.662   7.034
   78SLPC   H3X 7157   2.665   1.579   7.056
   78SLPC   H3Y 7158   2.670   1.746   7.002
   78SLPC   C34 7159   2.837   1.700   7.139
   78SLPC   H4X 7160   2.869   1.806   7.128
   78SLPC   H4Y 7161   2.931   1.643   7.124
   78SLPC   C35 7162   2.777   1.692   7.281
   78SLPC   H5X 7163   2.751   1.585   7.296
   78SLPC   H5Y 7164   2.678   1.741   7.273
   78SLPC   C36 7165   2.879   1.730   7.377
   78SLPC   H6X 7166   2.906   1.837   7.370
   78SLPC   H6Y 7167   2.969   1.664   7.369
   78SLPC   C37 7168   2.821   1.716   7.518
   78SLPC   H7X 7169   2.838   1.610   7.547
   78SLPC   H7Y 7170   2.712   1.737   7.524
   78SLPC   C38 7171   2.895   1.802   7.616
   78SLPC   H8X 7172   2.883   1.911   7.596
   78SLPC   H8Y 7173   3.005   1.787   7.621
   78SLPC   C39 7174   2.833   1.771   7.751
   78SLPC   H9X 7175   2.849   1.668   7.788
   78SLPC   H9Y 7176   2.725   1.782   7.725
   78SLPC  C310 7177   2.863   1.876   7.865
   78SLPC  H10X 7178   2.841   1.976   7.821
   78SLPC  H10Y 7179   2.971   1.869   7.891
   78SLPC  C311 7180   2.777   1.848   7.988
   78SLPC  H11X 7181   2.668   1.851   7.965
   78SLPC  H11Y 7182   2.792   1.929   8.063
   78SLPC  C312 7183   2.794   1.715   8.067
   78SLPC  H12X 7184   2.780   1.632   7.994
   78SLPC  H12Y 7185   2.714   1.697   8.142
   78SLPC  C313 7186   2.929   1.699   8.128
   78SLPC  H13X 7187   3.015   1.737   8.070
   78SLPC  H13Y 7188   2.946   1.590   8.138
   78SLPC  C314 7189   2.929   1.770   8.265
   78SLPC  H14X 7190   2.830   1.766   8.315
   78SLPC  H14Y 7191   2.949   1.877   8.241
   78SLPC  C315 7192   3.034   1.710   8.367
   78SLPC  H15X 7193   3.057   1.765   8.460
   78SLPC  H15Y 7194   3.131   1.706   8.315
   78SLPC  C316 7195   3.005   1.563   8.413
   78SLPC  H16X 7196   3.095   1.526   8.467
   78SLPC  H16Y 7197   2.997   1.498   8.323
   78SLPC  C317 7198   2.889   1.544   8.507
   78SLPC  H17X 7199   2.882   1.610   8.597
   78SLPC  H17Y 7200   2.918   1.445   8.547
   78SLPC  C318 7201   2.756   1.522   8.445
   78SLPC  H18X 7202   2.705   1.613   8.404
   78SLPC  H18Y 7203   2.695   1.471   8.522
   78SLPC  H18Z 7204   2.777   1.461   8.355
   79SLPC     N 7205   0.225   3.513   6.114
   79SLPC   C13 7206   0.106   3.431   6.141
   79SLPC  H13A 7207   0.139   3.372   6.225
   79SLPC  H13B 7208   0.016   3.486   6.167
   79SLPC  H13C 7209   0.084   3.362   6.061
   79SLPC   C14 7210   0.198   3.599   5.991
   79SLPC  H14A 7211   0.159   3.537   5.912
   79SLPC  H14B 7212   0.131   3.681   6.011
   79SLPC  H14C 7213   0.293   3.638   5.957
   79SLPC   C15 7214   0.335   3.412   6.090
   79SLPC  H15A 7215   0.314   3.347   6.006
   79SLPC  H15B 7216   0.425   3.464   6.061
   79SLPC  H15C 7217   0.354   3.346   6.173
   79SLPC   C12 7218   0.264   3.602   6.227
   79SLPC  H12A 7219   0.363   3.644   6.214
   79SLPC  H12B 7220   0.270   3.552   6.323
   79SLPC   C11 7221   0.176   3.728   6.245
   79SLPC  H11A 7222   0.073   3.690   6.262
   79SLPC  H11B 7223   0.180   3.785   6.150
   79SLPC     P 7224   0.341   3.894   6.343
   79SLPC   O13 7225   0.394   3.891   6.205
   79SLPC   O14 7226   0.310   4.027   6.398
   79SLPC   O12 7227   0.212   3.804   6.356
   79SLPC   O11 7228   0.442   3.824   6.443
   79SLPC    C1 7229   0.403   3.729   6.545
   79SLPC    HA 7230   0.301   3.686   6.529
   79SLPC    HB 7231   0.471   3.642   6.537
   79SLPC    C2 7232   0.412   3.788   6.683
   79SLPC    HS 7233   0.348   3.879   6.689
   79SLPC   O21 7234   0.549   3.820   6.701
   79SLPC   C21 7235   0.575   3.922   6.779
   79SLPC   O22 7236   0.500   3.983   6.853
   79SLPC   C22 7237   0.727   3.954   6.771
   79SLPC   H2R 7238   0.763   3.936   6.668
   79SLPC   H2S 7239   0.753   4.056   6.806
   79SLPC    C3 7240   0.359   3.679   6.785
   79SLPC    HX 7241   0.413   3.585   6.762
   79SLPC    HY 7242   0.253   3.653   6.765
   79SLPC   O31 7243   0.377   3.708   6.924
   79SLPC   C31 7244   0.293   3.795   6.977
   79SLPC   O32 7245   0.207   3.853   6.911
   79SLPC   C32 7246   0.313   3.804   7.131
   79SLPC   H2X 7247   0.333   3.911   7.150
   79SLPC   H2Y 7248   0.398   3.742   7.164
   79SLPC   C23 7249   0.801   3.860   6.867
   79SLPC   H3R 7250   0.911   3.880   6.860
   79SLPC   H3S 7251   0.771   3.756   6.845
   79SLPC   C24 7252   0.768   3.896   7.013
   79SLPC   H4R 7253   0.675   3.845   7.045
   79SLPC   H4S 7254   0.760   4.007   7.023
   79SLPC   C25 7255   0.879   3.857   7.116
   79SLPC   H5R 7256   0.979   3.885   7.076
   79SLPC   H5S 7257   0.883   3.746   7.121
   79SLPC   C26 7258   0.858   3.913   7.257
   79SLPC   H6R 7259   0.834   4.020   7.248
   79SLPC   H6S 7260   0.946   3.886   7.320
   79SLPC   C27 7261   0.744   3.835   7.325
   79SLPC   H7R 7262   0.748   3.727   7.301
   79SLPC   H7S 7263   0.659   3.894   7.285
   79SLPC   C28 7264   0.736   3.860   7.479
   79SLPC   H8R 7265   0.719   3.967   7.504
   79SLPC   H8S 7266   0.829   3.835   7.534
   79SLPC   C29 7267   0.635   3.764   7.534
   79SLPC   H9R 7268   0.654   3.659   7.511
   79SLPC  C210 7269   0.515   3.788   7.603
   79SLPC  H10R 7270   0.448   3.704   7.625
   79SLPC  C211 7271   0.464   3.920   7.649
   79SLPC  H11R 7272   0.368   3.945   7.598
   79SLPC  H11S 7273   0.537   4.002   7.629
   79SLPC  C212 7274   0.439   3.919   7.801
   79SLPC  H12R 7275   0.494   3.846   7.862
   79SLPC  C213 7276   0.358   4.005   7.862
   79SLPC  H13R 7277   0.351   4.002   7.972
   79SLPC  C214 7278   0.292   4.119   7.795
   79SLPC  H14R 7279   0.195   4.086   7.753
   79SLPC  H14S 7280   0.356   4.154   7.711
   79SLPC  C215 7281   0.264   4.237   7.890
   79SLPC  H15R 7282   0.186   4.299   7.842
   79SLPC  H15S 7283   0.352   4.304   7.897
   79SLPC  C216 7284   0.197   4.204   8.023
   79SLPC  H16R 7285   0.270   4.166   8.098
   79SLPC  H16S 7286   0.119   4.127   8.009
   79SLPC  C217 7287   0.162   4.340   8.087
   79SLPC  H17R 7288   0.083   4.332   8.165
   79SLPC  H17S 7289   0.114   4.405   8.011
   79SLPC  C218 7290   0.281   4.420   8.138
   79SLPC  H18R 7291   0.350   4.458   8.059
   79SLPC  H18S 7292   0.349   4.359   8.201
   79SLPC  H18T 7293   0.247   4.500   8.208
   79SLPC   C33 7294   0.192   3.771   7.211
   79SLPC   H3X 7295   0.163   3.666   7.185
   79SLPC   H3Y 7296   0.099   3.827   7.189
   79SLPC   C34 7297   0.210   3.783   7.360
   79SLPC   H4X 7298   0.254   3.883   7.382
   79SLPC   H4Y 7299   0.291   3.715   7.395
   79SLPC   C35 7300   0.078   3.760   7.435
   79SLPC   H5X 7301   0.044   3.657   7.410
   79SLPC   H5Y 7302   0.004   3.829   7.391
   79SLPC   C36 7303   0.086   3.791   7.585
   79SLPC   H6X 7304   0.131   3.890   7.603
   79SLPC   H6Y 7305   0.155   3.723   7.640
   79SLPC   C37 7306  -0.051   3.785   7.647
   79SLPC   H7X 7307  -0.101   3.688   7.623
   79SLPC   H7Y 7308  -0.105   3.868   7.597
   79SLPC   C38 7309  -0.041   3.818   7.794
   79SLPC   H8X 7310   0.010   3.914   7.818
   79SLPC   H8Y 7311   0.011   3.737   7.850
   79SLPC   C39 7312  -0.179   3.824   7.866
   79SLPC   H9X 7313  -0.228   3.725   7.850
   79SLPC   H9Y 7314  -0.251   3.891   7.814
   79SLPC  C310 7315  -0.178   3.858   8.012
   79SLPC  H10X 7316  -0.274   3.868   8.066
   79SLPC  H10Y 7317  -0.129   3.958   8.018
   79SLPC  C311 7318  -0.099   3.758   8.097
   79SLPC  H11X 7319   0.005   3.745   8.062
   79SLPC  H11Y 7320  -0.152   3.661   8.081
   79SLPC  C312 7321  -0.111   3.776   8.248
   79SLPC  H12X 7322  -0.054   3.692   8.292
   79SLPC  H12Y 7323  -0.216   3.760   8.280
   79SLPC  C313 7324  -0.069   3.916   8.299
   79SLPC  H13X 7325  -0.123   3.998   8.246
   79SLPC  H13Y 7326   0.039   3.922   8.274
   79SLPC  C314 7327  -0.090   3.927   8.451
   79SLPC  H14X 7328  -0.079   3.828   8.499
   79SLPC  H14Y 7329  -0.191   3.967   8.473
   79SLPC  C315 7330   0.011   4.023   8.516
   79SLPC  H15X 7331   0.005   4.121   8.464
   79SLPC  H15Y 7332   0.110   3.979   8.489
   79SLPC  C316 7333  -0.004   4.039   8.670
   79SLPC  H16X 7334   0.093   4.065   8.716
   79SLPC  H16Y 7335  -0.029   3.938   8.709
   79SLPC  C317 7336  -0.114   4.136   8.724
   79SLPC  H17X 7337  -0.215   4.099   8.695
   79SLPC  H17Y 7338  -0.105   4.234   8.673
   79SLPC  C318 7339  -0.113   4.161   8.874
   79SLPC  H18X 7340  -0.018   4.209   8.909
   79SLPC  H18Y 7341  -0.155   4.070   8.922
   79SLPC  H18Z 7342  -0.189   4.241   8.889
   80SLPC     N 7343   1.376   1.871   6.501
   80SLPC   C13 7344   1.369   1.827   6.362
   80SLPC  H13A 7345   1.385   1.722   6.346
   80SLPC  H13B 7346   1.280   1.862   6.311
   80SLPC  H13C 7347   1.451   1.877   6.313
   80SLPC   C14 7348   1.342   1.752   6.579
   80SLPC  H14A 7349   1.352   1.777   6.684
   80SLPC  H14B 7350   1.248   1.715   6.542
   80SLPC  H14C 7351   1.419   1.679   6.558
   80SLPC   C15 7352   1.291   1.983   6.537
   80SLPC  H15A 7353   1.326   2.072   6.487
   80SLPC  H15B 7354   1.185   1.968   6.526
   80SLPC  H15C 7355   1.300   2.008   6.642
   80SLPC   C12 7356   1.516   1.915   6.537
   80SLPC  H12A 7357   1.581   1.828   6.530
   80SLPC  H12B 7358   1.525   1.928   6.644
   80SLPC   C11 7359   1.583   2.030   6.465
   80SLPC  H11A 7360   1.673   2.061   6.522
   80SLPC  H11B 7361   1.513   2.115   6.449
   80SLPC     P 7362   1.769   1.950   6.289
   80SLPC   O13 7363   1.759   1.802   6.263
   80SLPC   O14 7364   1.807   2.027   6.169
   80SLPC   O12 7365   1.628   1.997   6.340
   80SLPC   O11 7366   1.868   1.981   6.416
   80SLPC    C1 7367   1.933   1.863   6.469
   80SLPC    HA 7368   1.945   1.772   6.408
   80SLPC    HB 7369   2.039   1.892   6.490
   80SLPC    C2 7370   1.870   1.821   6.608
   80SLPC    HS 7371   1.765   1.811   6.572
   80SLPC   O21 7372   1.891   1.925   6.705
   80SLPC   C21 7373   1.782   1.934   6.791
   80SLPC   O22 7374   1.684   1.867   6.786
   80SLPC   C22 7375   1.800   2.047   6.891
   80SLPC   H2R 7376   1.903   2.040   6.932
   80SLPC   H2S 7377   1.813   2.148   6.846
   80SLPC    C3 7378   1.919   1.680   6.647
   80SLPC    HX 7379   2.024   1.692   6.683
   80SLPC    HY 7380   1.915   1.619   6.554
   80SLPC   O31 7381   1.820   1.623   6.734
   80SLPC   C31 7382   1.854   1.625   6.862
   80SLPC   O32 7383   1.953   1.681   6.906
   80SLPC   C32 7384   1.751   1.553   6.950
   80SLPC   H2X 7385   1.748   1.443   6.931
   80SLPC   H2Y 7386   1.649   1.581   6.917
   80SLPC   C23 7387   1.695   2.047   6.998
   80SLPC   H3R 7388   1.702   1.947   7.046
   80SLPC   H3S 7389   1.593   2.063   6.958
   80SLPC   C24 7390   1.718   2.148   7.112
   80SLPC   H4R 7391   1.714   2.254   7.079
   80SLPC   H4S 7392   1.810   2.127   7.170
   80SLPC   C25 7393   1.617   2.140   7.220
   80SLPC   H5R 7394   1.510   2.160   7.194
   80SLPC   H5S 7395   1.644   2.216   7.296
   80SLPC   C26 7396   1.619   2.005   7.292
   80SLPC   H6R 7397   1.717   1.974   7.333
   80SLPC   H6S 7398   1.589   1.927   7.220
   80SLPC   C27 7399   1.528   1.988   7.415
   80SLPC   H7R 7400   1.494   1.882   7.424
   80SLPC   H7S 7401   1.435   2.045   7.396
   80SLPC   C28 7402   1.589   2.032   7.555
   80SLPC   H8R 7403   1.659   2.115   7.531
   80SLPC   H8S 7404   1.652   1.949   7.594
   80SLPC   C29 7405   1.474   2.067   7.650
   80SLPC   H9R 7406   1.381   2.113   7.613
   80SLPC  C210 7407   1.468   2.034   7.783
   80SLPC  H10R 7408   1.375   2.049   7.840
   80SLPC  C211 7409   1.570   1.960   7.866
   80SLPC  H11R 7410   1.596   2.020   7.956
   80SLPC  H11S 7411   1.669   1.957   7.816
   80SLPC  C212 7412   1.520   1.824   7.909
   80SLPC  H12R 7413   1.548   1.738   7.846
   80SLPC  C213 7414   1.458   1.793   8.026
   80SLPC  H13R 7415   1.422   1.691   8.041
   80SLPC  C214 7416   1.431   1.889   8.143
   80SLPC  H14R 7417   1.427   1.997   8.114
   80SLPC  H14S 7418   1.520   1.890   8.209
   80SLPC  C215 7419   1.296   1.870   8.210
   80SLPC  H15R 7420   1.284   1.763   8.235
   80SLPC  H15S 7421   1.219   1.893   8.133
   80SLPC  C216 7422   1.284   1.960   8.333
   80SLPC  H16R 7423   1.284   2.071   8.320
   80SLPC  H16S 7424   1.380   1.943   8.386
   80SLPC  C217 7425   1.178   1.926   8.430
   80SLPC  H17R 7426   1.077   1.944   8.387
   80SLPC  H17S 7427   1.162   2.007   8.504
   80SLPC  C218 7428   1.196   1.785   8.497
   80SLPC  H18R 7429   1.106   1.759   8.557
   80SLPC  H18S 7430   1.287   1.773   8.560
   80SLPC  H18T 7431   1.208   1.718   8.409
   80SLPC   C33 7432   1.751   1.604   7.097
   80SLPC   H3X 7433   1.770   1.713   7.086
   80SLPC   H3Y 7434   1.841   1.553   7.138
   80SLPC   C34 7435   1.631   1.565   7.181
   80SLPC   H4X 7436   1.613   1.458   7.159
   80SLPC   H4Y 7437   1.536   1.616   7.154
   80SLPC   C35 7438   1.668   1.589   7.326
   80SLPC   H5X 7439   1.718   1.688   7.341
   80SLPC   H5Y 7440   1.751   1.524   7.359
   80SLPC   C36 7441   1.554   1.565   7.424
   80SLPC   H6X 7442   1.522   1.461   7.402
   80SLPC   H6Y 7443   1.473   1.638   7.403
   80SLPC   C37 7444   1.616   1.568   7.570
   80SLPC   H7X 7445   1.627   1.674   7.600
   80SLPC   H7Y 7446   1.721   1.532   7.566
   80SLPC   C38 7447   1.536   1.499   7.675
   80SLPC   H8X 7448   1.497   1.406   7.627
   80SLPC   H8Y 7449   1.458   1.569   7.711
   80SLPC   C39 7450   1.616   1.461   7.791
   80SLPC   H9X 7451   1.660   1.550   7.841
   80SLPC   H9Y 7452   1.707   1.408   7.757
   80SLPC  C310 7453   1.540   1.383   7.898
   80SLPC  H10X 7454   1.479   1.294   7.871
   80SLPC  H10Y 7455   1.468   1.453   7.944
   80SLPC  C311 7456   1.639   1.314   8.009
   80SLPC  H11X 7457   1.676   1.398   8.072
   80SLPC  H11Y 7458   1.723   1.265   7.954
   80SLPC  C312 7459   1.560   1.223   8.102
   80SLPC  H12X 7460   1.519   1.137   8.043
   80SLPC  H12Y 7461   1.474   1.284   8.135
   80SLPC  C313 7462   1.643   1.165   8.214
   80SLPC  H13X 7463   1.702   1.248   8.258
   80SLPC  H13Y 7464   1.714   1.087   8.178
   80SLPC  C314 7465   1.566   1.095   8.325
   80SLPC  H14X 7466   1.504   1.169   8.381
   80SLPC  H14Y 7467   1.647   1.049   8.385
   80SLPC  C315 7468   1.476   0.979   8.285
   80SLPC  H15X 7469   1.385   1.021   8.238
   80SLPC  H15Y 7470   1.451   0.919   8.375
   80SLPC  C316 7471   1.548   0.888   8.197
   80SLPC  H16X 7472   1.649   0.854   8.227
   80SLPC  H16Y 7473   1.560   0.935   8.097
   80SLPC  C317 7474   1.472   0.761   8.165
   80SLPC  H17X 7475   1.367   0.792   8.146
   80SLPC  H17Y 7476   1.472   0.708   8.262
   80SLPC  C318 7477   1.530   0.666   8.060
   80SLPC  H18X 7478   1.467   0.574   8.060
   80SLPC  H18Y 7479   1.631   0.628   8.087
   80SLPC  H18Z 7480   1.537   0.705   7.957
   81SAPS     N 7481   2.509   3.295  11.250
   81SAPS   HN1 7482   2.550   3.328  11.340
   81SAPS   HN2 7483   2.550   3.214  11.200
   81SAPS   HN3 7484   2.518   3.375  11.183
   81SAPS   C12 7485   2.364   3.281  11.273
   81SAPS  H12A 7486   2.362   3.199  11.344
   81SAPS   C13 7487   2.297   3.405  11.329
   81SAPS  O13A 7488   2.368   3.511  11.349
   81SAPS  O13B 7489   2.185   3.400  11.381
   81SAPS   C11 7490   2.285   3.251  11.150
   81SAPS  H11A 7491   2.318   3.325  11.074
   81SAPS  H11B 7492   2.181   3.289  11.150
   81SAPS     P 7493   2.384   3.090  10.969
   81SAPS   O13 7494   2.511   3.165  10.995
   81SAPS   O14 7495   2.393   2.945  10.946
   81SAPS   O12 7496   2.289   3.117  11.101
   81SAPS   O11 7497   2.312   3.165  10.853
   81SAPS    C1 7498   2.176   3.131  10.830
   81SAPS    HA 7499   2.150   3.023  10.831
   81SAPS    HB 7500   2.116   3.181  10.908
   81SAPS    C2 7501   2.125   3.191  10.689
   81SAPS    HS 7502   2.016   3.169  10.692
   81SAPS   O21 7503   2.194   3.121  10.584
   81SAPS   C21 7504   2.157   3.002  10.552
   81SAPS   O22 7505   2.067   2.941  10.605
   81SAPS   C22 7506   2.239   2.949  10.440
   81SAPS   H2R 7507   2.348   2.957  10.459
   81SAPS   H2S 7508   2.217   2.844  10.411
   81SAPS    C3 7509   2.158   3.345  10.674
   81SAPS    HX 7510   2.269   3.347  10.672
   81SAPS    HY 7511   2.128   3.396  10.768
   81SAPS   O31 7512   2.099   3.411  10.561
   81SAPS   C31 7513   1.985   3.481  10.573
   81SAPS   O32 7514   1.918   3.488  10.673
   81SAPS   C32 7515   1.971   3.550  10.440
   81SAPS   H2X 7516   2.055   3.623  10.429
   81SAPS   H2Y 7517   1.878   3.610  10.447
   81SAPS   C23 7518   2.227   3.030  10.307
   81SAPS   H3R 7519   2.284   2.988  10.221
   81SAPS   H3S 7520   2.267   3.133  10.321
   81SAPS   C24 7521   2.075   3.040  10.264
   81SAPS   H4R 7522   2.069   3.125  10.193
   81SAPS   H4S 7523   2.016   3.073  10.352
   81SAPS   C25 7524   2.009   2.914  10.206
   81SAPS   H5R 7525   1.989   2.835  10.279
   81SAPS   C26 7526   1.968   2.887  10.085
   81SAPS   H6R 7527   1.918   2.794  10.053
   81SAPS   C27 7528   1.983   2.976   9.966
   81SAPS   H7R 7529   2.011   2.914   9.879
   81SAPS   H7S 7530   2.069   3.046   9.970
   81SAPS   C28 7531   1.858   3.056   9.942
   81SAPS   H8R 7532   1.852   3.147  10.004
   81SAPS   C29 7533   1.780   3.048   9.836
   81SAPS   H9R 7534   1.712   3.134   9.824
   81SAPS  C210 7535   1.767   2.950   9.720
   81SAPS  H10R 7536   1.658   2.931   9.705
   81SAPS  H10S 7537   1.824   2.855   9.727
   81SAPS  C211 7538   1.822   3.017   9.589
   81SAPS  H11R 7539   1.932   3.024   9.595
   81SAPS  C212 7540   1.759   3.049   9.472
   81SAPS  H12R 7541   1.819   3.084   9.388
   81SAPS  C213 7542   1.618   3.020   9.432
   81SAPS  H13R 7543   1.576   3.112   9.384
   81SAPS  H13S 7544   1.559   3.000   9.523
   81SAPS  C214 7545   1.594   2.898   9.351
   81SAPS  H14R 7546   1.647   2.811   9.392
   81SAPS  C215 7547   1.517   2.883   9.242
   81SAPS  H15R 7548   1.500   2.778   9.213
   81SAPS  C216 7549   1.418   2.978   9.174
   81SAPS  H16R 7550   1.438   3.072   9.230
   81SAPS  H16S 7551   1.315   2.946   9.201
   81SAPS  C217 7552   1.449   2.997   9.025
   81SAPS  H17R 7553   1.559   3.004   9.012
   81SAPS  H17S 7554   1.403   3.093   8.993
   81SAPS  C218 7555   1.412   2.889   8.918
   81SAPS  H18R 7556   1.316   2.844   8.951
   81SAPS  H18S 7557   1.501   2.822   8.917
   81SAPS  C219 7558   1.397   2.943   8.776
   81SAPS  H19R 7559   1.336   3.035   8.789
   81SAPS  H19S 7560   1.340   2.868   8.717
   81SAPS  C220 7561   1.532   2.976   8.708
   81SAPS  H20R 7562   1.600   2.889   8.690
   81SAPS  H20S 7563   1.580   3.056   8.768
   81SAPS  H20T 7564   1.498   3.012   8.609
   81SAPS   C33 7565   1.973   3.449  10.328
   81SAPS   H3X 7566   1.899   3.370  10.351
   81SAPS   H3Y 7567   2.073   3.401  10.325
   81SAPS   C34 7568   1.939   3.503  10.196
   81SAPS   H4X 7569   1.996   3.599  10.197
   81SAPS   H4Y 7570   1.830   3.511  10.173
   81SAPS   C35 7571   1.997   3.411  10.090
   81SAPS   H5X 7572   1.940   3.316  10.091
   81SAPS   H5Y 7573   2.104   3.392  10.115
   81SAPS   C36 7574   1.967   3.475   9.958
   81SAPS   H6X 7575   2.033   3.563   9.938
   81SAPS   H6Y 7576   1.866   3.521   9.964
   81SAPS   C37 7577   1.967   3.380   9.836
   81SAPS   H7X 7578   1.886   3.305   9.853
   81SAPS   H7Y 7579   2.064   3.326   9.843
   81SAPS   C38 7580   1.949   3.451   9.708
   81SAPS   H8X 7581   2.007   3.545   9.714
   81SAPS   H8Y 7582   1.842   3.482   9.696
   81SAPS   C39 7583   2.001   3.375   9.582
   81SAPS   H9X 7584   1.962   3.271   9.589
   81SAPS   H9Y 7585   2.112   3.372   9.583
   81SAPS  C310 7586   1.953   3.440   9.450
   81SAPS  H10X 7587   1.980   3.547   9.464
   81SAPS  H10Y 7588   1.842   3.430   9.454
   81SAPS  C311 7589   2.007   3.401   9.318
   81SAPS  H11X 7590   2.019   3.290   9.318
   81SAPS  H11Y 7591   2.114   3.431   9.319
   81SAPS  C312 7592   1.928   3.469   9.208
   81SAPS  H12X 7593   1.925   3.573   9.247
   81SAPS  H12Y 7594   1.827   3.424   9.204
   81SAPS  C313 7595   1.988   3.473   9.067
   81SAPS  H13X 7596   1.996   3.367   9.035
   81SAPS  H13Y 7597   2.082   3.533   9.073
   81SAPS  C314 7598   1.893   3.534   8.966
   81SAPS  H14X 7599   1.798   3.478   8.983
   81SAPS  H14Y 7600   1.930   3.507   8.865
   81SAPS  C315 7601   1.880   3.688   8.980
   81SAPS  H15X 7602   1.973   3.731   9.022
   81SAPS  H15Y 7603   1.820   3.712   9.070
   81SAPS  C316 7604   1.818   3.756   8.853
   81SAPS  H16X 7605   1.759   3.845   8.884
   81SAPS  H16Y 7606   1.732   3.700   8.811
   81SAPS  C317 7607   1.924   3.789   8.753
   81SAPS  H17X 7608   1.973   3.696   8.717
   81SAPS  H17Y 7609   1.997   3.857   8.803
   81SAPS  C318 7610   1.857   3.873   8.634
   81SAPS  H18X 7611   1.782   3.811   8.580
   81SAPS  H18Y 7612   1.926   3.911   8.556
   81SAPS  H18Z 7613   1.799   3.956   8.678
   82SAPS     N 7614   0.562   2.101  10.997
   82SAPS   HN1 7615   0.645   2.080  10.938
   82SAPS   HN2 7616   0.539   2.009  11.038
   82SAPS   HN3 7617   0.479   2.125  10.940
   82SAPS   C12 7618   0.604   2.205  11.093
   82SAPS  H12A 7619   0.527   2.219  11.167
   82SAPS   C13 7620   0.730   2.188  11.183
   82SAPS  O13A 7621   0.791   2.078  11.186
   82SAPS  O13B 7622   0.763   2.280  11.266
   82SAPS   C11 7623   0.634   2.338  11.011
   82SAPS  H11A 7624   0.738   2.327  10.973
   82SAPS  H11B 7625   0.641   2.426  11.079
   82SAPS     P 7626   0.518   2.508  10.847
   82SAPS   O13 7627   0.436   2.498  10.726
   82SAPS   O14 7628   0.473   2.606  10.954
   82SAPS   O12 7629   0.524   2.360  10.917
   82SAPS   O11 7630   0.670   2.529  10.811
   82SAPS    C1 7631   0.745   2.456  10.715
   82SAPS    HA 7632   0.834   2.417  10.770
   82SAPS    HB 7633   0.691   2.369  10.671
   82SAPS    C2 7634   0.797   2.541  10.599
   82SAPS    HS 7635   0.827   2.641  10.637
   82SAPS   O21 7636   0.697   2.537  10.487
   82SAPS   C21 7637   0.619   2.644  10.488
   82SAPS   O22 7638   0.624   2.738  10.573
   82SAPS   C22 7639   0.510   2.620  10.385
   82SAPS   H2R 7640   0.544   2.687  10.303
   82SAPS   H2S 7641   0.522   2.513  10.357
   82SAPS    C3 7642   0.921   2.477  10.549
   82SAPS    HX 7643   0.918   2.370  10.519
   82SAPS    HY 7644   0.995   2.482  10.632
   82SAPS   O31 7645   0.960   2.553  10.436
   82SAPS   C31 7646   1.061   2.499  10.366
   82SAPS   O32 7647   1.122   2.398  10.401
   82SAPS   C32 7648   1.111   2.584  10.254
   82SAPS   H2X 7649   1.218   2.614  10.266
   82SAPS   H2Y 7650   1.058   2.680  10.237
   82SAPS   C23 7651   0.360   2.638  10.436
   82SAPS   H3R 7652   0.344   2.732  10.492
   82SAPS   H3S 7653   0.344   2.556  10.510
   82SAPS   C24 7654   0.248   2.611  10.341
   82SAPS   H4R 7655   0.163   2.584  10.408
   82SAPS   H4S 7656   0.269   2.528  10.270
   82SAPS   C25 7657   0.220   2.739  10.263
   82SAPS   H5R 7658   0.183   2.824  10.322
   82SAPS   C26 7659   0.215   2.757  10.129
   82SAPS   H6R 7660   0.188   2.854  10.084
   82SAPS   C27 7661   0.246   2.649  10.027
   82SAPS   H7R 7662   0.187   2.667   9.935
   82SAPS   H7S 7663   0.213   2.547  10.057
   82SAPS   C28 7664   0.389   2.661   9.977
   82SAPS   H8R 7665   0.466   2.698  10.046
   82SAPS   C29 7666   0.446   2.594   9.872
   82SAPS   H9R 7667   0.556   2.596   9.864
   82SAPS  C210 7668   0.387   2.502   9.771
   82SAPS  H10R 7669   0.375   2.553   9.673
   82SAPS  H10S 7670   0.282   2.492   9.805
   82SAPS  C211 7671   0.459   2.371   9.760
   82SAPS  H11R 7672   0.482   2.325   9.857
   82SAPS  C212 7673   0.483   2.302   9.648
   82SAPS  H12R 7674   0.545   2.212   9.652
   82SAPS  C213 7675   0.442   2.349   9.512
   82SAPS  H13R 7676   0.480   2.453   9.504
   82SAPS  H13S 7677   0.332   2.347   9.498
   82SAPS  C214 7678   0.488   2.251   9.407
   82SAPS  H14R 7679   0.414   2.175   9.378
   82SAPS  C215 7680   0.600   2.261   9.332
   82SAPS  H15R 7681   0.613   2.186   9.252
   82SAPS  C216 7682   0.710   2.362   9.325
   82SAPS  H16R 7683   0.701   2.426   9.415
   82SAPS  H16S 7684   0.699   2.434   9.241
   82SAPS  C217 7685   0.854   2.306   9.304
   82SAPS  H17R 7686   0.908   2.382   9.243
   82SAPS  H17S 7687   0.855   2.215   9.241
   82SAPS  C218 7688   0.933   2.285   9.435
   82SAPS  H18R 7689   1.019   2.230   9.392
   82SAPS  H18S 7690   0.891   2.204   9.499
   82SAPS  C219 7691   0.951   2.405   9.528
   82SAPS  H19R 7692   0.852   2.445   9.560
   82SAPS  H19S 7693   0.995   2.498   9.485
   82SAPS  C220 7694   1.051   2.360   9.632
   82SAPS  H20R 7695   1.013   2.267   9.680
   82SAPS  H20S 7696   1.067   2.437   9.710
   82SAPS  H20T 7697   1.149   2.349   9.582
   82SAPS   C33 7698   1.092   2.490  10.134
   82SAPS   H3X 7699   1.143   2.392  10.147
   82SAPS   H3Y 7700   1.136   2.552  10.053
   82SAPS   C34 7701   0.943   2.481  10.103
   82SAPS   H4X 7702   0.887   2.468  10.199
   82SAPS   H4Y 7703   0.921   2.397  10.034
   82SAPS   C35 7704   0.868   2.604  10.033
   82SAPS   H5X 7705   0.895   2.695  10.090
   82SAPS   H5Y 7706   0.758   2.591  10.046
   82SAPS   C36 7707   0.896   2.619   9.885
   82SAPS   H6X 7708   0.840   2.540   9.830
   82SAPS   H6Y 7709   1.004   2.606   9.864
   82SAPS   C37 7710   0.854   2.747   9.813
   82SAPS   H7X 7711   0.917   2.826   9.859
   82SAPS   H7Y 7712   0.749   2.779   9.831
   82SAPS   C38 7713   0.885   2.749   9.666
   82SAPS   H8X 7714   0.827   2.668   9.616
   82SAPS   H8Y 7715   0.991   2.718   9.660
   82SAPS   C39 7716   0.868   2.880   9.589
   82SAPS   H9X 7717   0.951   2.946   9.622
   82SAPS   H9Y 7718   0.780   2.929   9.636
   82SAPS  C310 7719   0.855   2.878   9.438
   82SAPS  H10X 7720   0.846   2.985   9.408
   82SAPS  H10Y 7721   0.764   2.829   9.397
   82SAPS  C311 7722   0.977   2.814   9.370
   82SAPS  H11X 7723   1.015   2.721   9.417
   82SAPS  H11Y 7724   1.064   2.880   9.389
   82SAPS  C312 7725   0.937   2.775   9.229
   82SAPS  H12X 7726   0.902   2.869   9.181
   82SAPS  H12Y 7727   0.851   2.704   9.239
   82SAPS  C313 7728   1.044   2.725   9.137
   82SAPS  H13X 7729   1.101   2.640   9.178
   82SAPS  H13Y 7730   1.125   2.801   9.133
   82SAPS  C314 7731   1.003   2.698   8.994
   82SAPS  H14X 7732   1.091   2.715   8.928
   82SAPS  H14Y 7733   0.914   2.754   8.956
   82SAPS  C315 7734   0.946   2.559   8.989
   82SAPS  H15X 7735   0.871   2.546   9.070
   82SAPS  H15Y 7736   1.028   2.486   9.009
   82SAPS  C316 7737   0.892   2.523   8.851
   82SAPS  H16X 7738   0.984   2.500   8.793
   82SAPS  H16Y 7739   0.843   2.612   8.806
   82SAPS  C317 7740   0.807   2.396   8.854
   82SAPS  H17X 7741   0.769   2.374   8.752
   82SAPS  H17Y 7742   0.724   2.422   8.924
   82SAPS  C318 7743   0.884   2.278   8.918
   82SAPS  H18X 7744   0.829   2.182   8.909
   82SAPS  H18Y 7745   0.916   2.296   9.023
   82SAPS  H18Z 7746   0.985   2.266   8.873
   83SAPS     N 7747   2.410   3.764  11.233
   83SAPS   HN1 7748   2.389   3.667  11.263
   83SAPS   HN2 7749   2.436   3.827  11.312
   83SAPS   HN3 7750   2.323   3.803  11.190
   83SAPS   C12 7751   2.525   3.772  11.139
   83SAPS  H12A 7752   2.607   3.793  11.206
   83SAPS   C13 7753   2.568   3.639  11.061
   83SAPS  O13A 7754   2.510   3.533  11.079
   83SAPS  O13B 7755   2.660   3.650  10.979
   83SAPS   C11 7756   2.513   3.890  11.036
   83SAPS  H11A 7757   2.419   3.868  10.981
   83SAPS  H11B 7758   2.599   3.889  10.966
   83SAPS     P 7759   2.590   4.117  11.142
   83SAPS   O13 7760   2.530   4.204  11.247
   83SAPS   O14 7761   2.705   4.043  11.189
   83SAPS   O12 7762   2.482   4.020  11.094
   83SAPS   O11 7763   2.629   4.207  11.016
   83SAPS    C1 7764   2.541   4.320  10.982
   83SAPS    HA 7765   2.441   4.316  11.032
   83SAPS    HB 7766   2.590   4.410  11.023
   83SAPS    C2 7767   2.544   4.333  10.827
   83SAPS    HS 7768   2.496   4.430  10.799
   83SAPS   O21 7769   2.470   4.224  10.770
   83SAPS   C21 7770   2.343   4.221  10.796
   83SAPS   O22 7771   2.274   4.312  10.847
   83SAPS   C22 7772   2.302   4.077  10.764
   83SAPS   H2R 7773   2.364   4.034  10.682
   83SAPS   H2S 7774   2.321   4.015  10.854
   83SAPS    C3 7775   2.689   4.331  10.773
   83SAPS    HX 7776   2.746   4.240  10.802
   83SAPS    HY 7777   2.751   4.409  10.821
   83SAPS   O31 7778   2.695   4.346  10.626
   83SAPS   C31 7779   2.687   4.235  10.549
   83SAPS   O32 7780   2.675   4.122  10.585
   83SAPS   C32 7781   2.675   4.269  10.397
   83SAPS   H2X 7782   2.698   4.377  10.391
   83SAPS   H2Y 7783   2.569   4.246  10.373
   83SAPS   C23 7784   2.154   4.075  10.714
   83SAPS   H3R 7785   2.147   4.165  10.648
   83SAPS   H3S 7786   2.088   4.092  10.802
   83SAPS   C24 7787   2.120   3.946  10.636
   83SAPS   H4R 7788   2.154   3.859  10.695
   83SAPS   H4S 7789   2.186   3.957  10.547
   83SAPS   C25 7790   1.969   3.935  10.603
   83SAPS   H5R 7791   1.904   3.952  10.690
   83SAPS   C26 7792   1.910   3.926  10.481
   83SAPS   H6R 7793   1.800   3.930  10.470
   83SAPS   C27 7794   1.983   3.949  10.345
   83SAPS   H7R 7795   1.943   3.870  10.278
   83SAPS   H7S 7796   2.090   3.924  10.357
   83SAPS   C28 7797   1.963   4.076  10.270
   83SAPS   H8R 7798   1.992   4.167  10.324
   83SAPS   C29 7799   1.935   4.096  10.140
   83SAPS   H9R 7800   1.922   4.199  10.105
   83SAPS  C210 7801   1.903   3.988  10.044
   83SAPS  H10R 7802   1.818   4.020   9.980
   83SAPS  H10S 7803   1.875   3.895  10.096
   83SAPS  C211 7804   2.035   3.971   9.974
   83SAPS  H11R 7805   2.129   3.980  10.031
   83SAPS  C212 7806   2.055   3.938   9.845
   83SAPS  H12R 7807   2.161   3.916   9.823
   83SAPS  C213 7808   1.954   3.936   9.733
   83SAPS  H13R 7809   1.850   3.953   9.770
   83SAPS  H13S 7810   1.933   3.830   9.707
   83SAPS  C214 7811   1.979   4.032   9.619
   83SAPS  H14R 7812   2.000   4.135   9.650
   83SAPS  C215 7813   1.968   4.003   9.489
   83SAPS  H15R 7814   1.986   4.089   9.422
   83SAPS  C216 7815   1.933   3.870   9.422
   83SAPS  H16R 7816   1.857   3.889   9.343
   83SAPS  H16S 7817   1.883   3.800   9.492
   83SAPS  C217 7818   2.070   3.817   9.372
   83SAPS  H17R 7819   2.049   3.711   9.346
   83SAPS  H17S 7820   2.157   3.824   9.441
   83SAPS  C218 7821   2.112   3.887   9.238
   83SAPS  H18R 7822   2.153   3.986   9.265
   83SAPS  H18S 7823   2.022   3.908   9.177
   83SAPS  C219 7824   2.211   3.806   9.159
   83SAPS  H19R 7825   2.179   3.704   9.129
   83SAPS  H19S 7826   2.314   3.802   9.201
   83SAPS  C220 7827   2.247   3.865   9.026
   83SAPS  H20R 7828   2.293   3.967   9.032
   83SAPS  H20S 7829   2.152   3.886   8.973
   83SAPS  H20T 7830   2.305   3.793   8.964
   83SAPS   C33 7831   2.784   4.182  10.321
   83SAPS   H3X 7832   2.768   4.073  10.339
   83SAPS   H3Y 7833   2.884   4.195  10.365
   83SAPS   C34 7834   2.793   4.201  10.168
   83SAPS   H4X 7835   2.867   4.128  10.130
   83SAPS   H4Y 7836   2.839   4.299  10.143
   83SAPS   C35 7837   2.652   4.203  10.097
   83SAPS   H5X 7838   2.580   4.265  10.155
   83SAPS   H5Y 7839   2.609   4.103  10.115
   83SAPS   C36 7840   2.670   4.239   9.949
   83SAPS   H6X 7841   2.708   4.343   9.949
   83SAPS   H6Y 7842   2.568   4.244   9.906
   83SAPS   C37 7843   2.760   4.151   9.864
   83SAPS   H7X 7844   2.765   4.047   9.902
   83SAPS   H7Y 7845   2.863   4.194   9.868
   83SAPS   C38 7846   2.712   4.146   9.713
   83SAPS   H8X 7847   2.691   4.252   9.688
   83SAPS   H8Y 7848   2.617   4.087   9.710
   83SAPS   C39 7849   2.813   4.082   9.623
   83SAPS   H9X 7850   2.839   3.975   9.641
   83SAPS   H9Y 7851   2.905   4.144   9.630
   83SAPS  C310 7852   2.772   4.089   9.475
   83SAPS  H10X 7853   2.865   4.066   9.418
   83SAPS  H10Y 7854   2.755   4.194   9.444
   83SAPS  C311 7855   2.654   3.996   9.434
   83SAPS  H11X 7856   2.565   4.050   9.471
   83SAPS  H11Y 7857   2.668   3.901   9.491
   83SAPS  C312 7858   2.645   3.965   9.288
   83SAPS  H12X 7859   2.550   3.907   9.283
   83SAPS  H12Y 7860   2.736   3.910   9.254
   83SAPS  C313 7861   2.615   4.101   9.204
   83SAPS  H13X 7862   2.697   4.176   9.214
   83SAPS  H13Y 7863   2.523   4.144   9.249
   83SAPS  C314 7864   2.601   4.067   9.059
   83SAPS  H14X 7865   2.543   4.147   9.006
   83SAPS  H14Y 7866   2.554   3.968   9.041
   83SAPS  C315 7867   2.736   4.070   8.978
   83SAPS  H15X 7868   2.809   4.008   9.034
   83SAPS  H15Y 7869   2.781   4.171   8.979
   83SAPS  C316 7870   2.731   4.034   8.828
   83SAPS  H16X 7871   2.697   4.112   8.757
   83SAPS  H16Y 7872   2.671   3.943   8.807
   83SAPS  C317 7873   2.874   3.998   8.775
   83SAPS  H17X 7874   2.943   4.083   8.794
   83SAPS  H17Y 7875   2.869   4.012   8.665
   83SAPS  C318 7876   2.941   3.872   8.829
   83SAPS  H18X 7877   2.921   3.861   8.938
   83SAPS  H18Y 7878   3.051   3.867   8.814
   83SAPS  H18Z 7879   2.903   3.779   8.781
   84SAPS     N 7880   3.966   3.644  10.928
   84SAPS   HN1 7881   3.883   3.684  10.878
   84SAPS   HN2 7882   4.041   3.685  10.869
   84SAPS   HN3 7883   3.968   3.540  10.928
   84SAPS   C12 7884   3.979   3.719  11.060
   84SAPS  H12A 7885   3.957   3.824  11.056
   84SAPS   C13 7886   3.877   3.661  11.164
   84SAPS  O13A 7887   3.796   3.564  11.139
   84SAPS  O13B 7888   3.896   3.707  11.279
   84SAPS   C11 7889   4.120   3.704  11.115
   84SAPS  H11A 7890   4.144   3.601  11.148
   84SAPS  H11B 7891   4.127   3.780  11.196
   84SAPS     P 7892   4.352   3.748  11.026
   84SAPS   O13 7893   4.426   3.820  10.920
   84SAPS   O14 7894   4.384   3.790  11.165
   84SAPS   O12 7895   4.201   3.757  11.006
   84SAPS   O11 7896   4.371   3.596  11.018
   84SAPS    C1 7897   4.322   3.506  10.920
   84SAPS    HA 7898   4.327   3.406  10.969
   84SAPS    HB 7899   4.219   3.534  10.891
   84SAPS    C2 7900   4.393   3.495  10.781
   84SAPS    HS 7901   4.502   3.490  10.801
   84SAPS   O21 7902   4.362   3.609  10.703
   84SAPS   C21 7903   4.453   3.664  10.626
   84SAPS   O22 7904   4.562   3.611  10.598
   84SAPS   C22 7905   4.418   3.800  10.565
   84SAPS   H2R 7906   4.388   3.863  10.651
   84SAPS   H2S 7907   4.505   3.835  10.506
   84SAPS    C3 7908   4.351   3.374  10.697
   84SAPS    HX 7909   4.382   3.287  10.760
   84SAPS    HY 7910   4.408   3.361  10.603
   84SAPS   O31 7911   4.208   3.370  10.694
   84SAPS   C31 7912   4.158   3.383  10.572
   84SAPS   O32 7913   4.224   3.370  10.471
   84SAPS   C32 7914   4.010   3.434  10.573
   84SAPS   H2X 7915   3.995   3.515  10.648
   84SAPS   H2Y 7916   3.941   3.356  10.610
   84SAPS   C23 7917   4.303   3.782  10.462
   84SAPS   H3R 7918   4.253   3.880  10.446
   84SAPS   H3S 7919   4.228   3.708  10.496
   84SAPS   C24 7920   4.352   3.720  10.323
   84SAPS   H4R 7921   4.380   3.616  10.350
   84SAPS   H4S 7922   4.444   3.770  10.286
   84SAPS   C25 7923   4.251   3.714  10.209
   84SAPS   H5R 7924   4.212   3.616  10.178
   84SAPS   C26 7925   4.210   3.828  10.147
   84SAPS   H6R 7926   4.139   3.819  10.063
   84SAPS   C27 7927   4.269   3.961  10.173
   84SAPS   H7R 7928   4.356   3.967  10.105
   84SAPS   H7S 7929   4.321   3.968  10.271
   84SAPS   C28 7930   4.164   4.072  10.144
   84SAPS   H8R 7931   4.124   4.127  10.230
   84SAPS   C29 7932   4.110   4.105  10.023
   84SAPS   H9R 7933   4.034   4.184  10.020
   84SAPS  C210 7934   4.142   4.045   9.887
   84SAPS  H10R 7935   4.237   3.988   9.893
   84SAPS  H10S 7936   4.163   4.124   9.811
   84SAPS  C211 7937   4.031   3.954   9.831
   84SAPS  H11R 7938   3.981   3.897   9.910
   84SAPS  C212 7939   3.995   3.936   9.704
   84SAPS  H12R 7940   3.908   3.870   9.691
   84SAPS  C213 7941   4.051   4.009   9.584
   84SAPS  H13R 7942   4.015   3.949   9.498
   84SAPS  H13S 7943   4.162   4.018   9.591
   84SAPS  C214 7944   4.010   4.155   9.569
   84SAPS  H14R 7945   3.963   4.196   9.660
   84SAPS  C215 7946   4.025   4.232   9.461
   84SAPS  H15R 7947   3.975   4.329   9.466
   84SAPS  C216 7948   4.076   4.176   9.331
   84SAPS  H16R 7949   4.087   4.066   9.330
   84SAPS  H16S 7950   4.181   4.210   9.315
   84SAPS  C217 7951   4.011   4.238   9.208
   84SAPS  H17R 7952   4.012   4.349   9.204
   84SAPS  H17S 7953   3.908   4.208   9.180
   84SAPS  C218 7954   4.099   4.198   9.089
   84SAPS  H18R 7955   4.118   4.090   9.070
   84SAPS  H18S 7956   4.200   4.240   9.113
   84SAPS  C219 7957   4.053   4.259   8.950
   84SAPS  H19R 7958   4.137   4.235   8.882
   84SAPS  H19S 7959   4.052   4.370   8.956
   84SAPS  C220 7960   3.916   4.216   8.882
   84SAPS  H20R 7961   3.888   4.288   8.803
   84SAPS  H20S 7962   3.837   4.218   8.960
   84SAPS  H20T 7963   3.917   4.115   8.835
   84SAPS   C33 7964   3.967   3.493  10.430
   84SAPS   H3X 7965   4.038   3.567  10.389
   84SAPS   H3Y 7966   3.865   3.532  10.448
   84SAPS   C34 7967   3.958   3.386  10.322
   84SAPS   H4X 7968   3.884   3.308  10.351
   84SAPS   H4Y 7969   4.056   3.333  10.319
   84SAPS   C35 7970   3.900   3.437  10.187
   84SAPS   H5X 7971   3.952   3.535  10.174
   84SAPS   H5Y 7972   3.799   3.468  10.221
   84SAPS   C36 7973   3.912   3.341  10.073
   84SAPS   H6X 7974   3.851   3.248  10.084
   84SAPS   H6Y 7975   4.018   3.308  10.071
   84SAPS   C37 7976   3.870   3.419   9.950
   84SAPS   H7X 7977   3.933   3.509   9.935
   84SAPS   H7Y 7978   3.769   3.457   9.978
   84SAPS   C38 7979   3.876   3.333   9.821
   84SAPS   H8X 7980   3.813   3.242   9.823
   84SAPS   H8Y 7981   3.981   3.297   9.824
   84SAPS   C39 7982   3.840   3.420   9.699
   84SAPS   H9X 7983   3.906   3.509   9.699
   84SAPS   H9Y 7984   3.734   3.450   9.712
   84SAPS  C310 7985   3.858   3.340   9.568
   84SAPS  H10X 7986   3.800   3.245   9.569
   84SAPS  H10Y 7987   3.965   3.309   9.563
   84SAPS  C311 7988   3.831   3.428   9.447
   84SAPS  H11X 7989   3.914   3.502   9.441
   84SAPS  H11Y 7990   3.728   3.466   9.455
   84SAPS  C312 7991   3.842   3.350   9.314
   84SAPS  H12X 7992   3.808   3.245   9.327
   84SAPS  H12Y 7993   3.951   3.343   9.296
   84SAPS  C313 7994   3.758   3.414   9.204
   84SAPS  H13X 7995   3.798   3.377   9.107
   84SAPS  H13Y 7996   3.783   3.522   9.201
   84SAPS  C314 7997   3.610   3.384   9.194
   84SAPS  H14X 7998   3.571   3.406   9.297
   84SAPS  H14Y 7999   3.594   3.279   9.163
   84SAPS  C315 8000   3.535   3.475   9.097
   84SAPS  H15X 8001   3.587   3.473   8.999
   84SAPS  H15Y 8002   3.555   3.578   9.134
   84SAPS  C316 8003   3.390   3.437   9.085
   84SAPS  H16X 8004   3.336   3.471   9.176
   84SAPS  H16Y 8005   3.385   3.327   9.070
   84SAPS  C317 8006   3.317   3.515   8.971
   84SAPS  H17X 8007   3.331   3.454   8.879
   84SAPS  H17Y 8008   3.366   3.612   8.948
   84SAPS  C318 8009   3.174   3.541   9.009
   84SAPS  H18X 8010   3.132   3.602   8.927
   84SAPS  H18Y 8011   3.163   3.596   9.105
   84SAPS  H18Z 8012   3.120   3.446   9.031
   85SAPS     N 8013   0.835   5.690  11.326
   85SAPS   HN1 8014   0.886   5.697  11.417
   85SAPS   HN2 8015   0.884   5.754  11.261
   85SAPS   HN3 8016   0.732   5.700  11.336
   85SAPS   C12 8017   0.856   5.548  11.282
   85SAPS  H12A 8018   0.963   5.535  11.279
   85SAPS   C13 8019   0.793   5.433  11.363
   85SAPS  O13A 8020   0.739   5.465  11.472
   85SAPS  O13B 8021   0.817   5.312  11.329
   85SAPS   C11 8022   0.810   5.541  11.131
   85SAPS  H11A 8023   0.704   5.571  11.124
   85SAPS  H11B 8024   0.823   5.434  11.103
   85SAPS     P 8025   1.008   5.589  10.962
   85SAPS   O13 8026   1.086   5.710  10.918
   85SAPS   O14 8027   1.084   5.481  11.032
   85SAPS   O12 8028   0.890   5.635  11.056
   85SAPS   O11 8029   0.920   5.530  10.842
   85SAPS    C1 8030   0.880   5.591  10.728
   85SAPS    HA 8031   0.771   5.577  10.714
   85SAPS    HB 8032   0.905   5.699  10.713
   85SAPS    C2 8033   0.936   5.524  10.601
   85SAPS    HS 8034   1.044   5.549  10.588
   85SAPS   O21 8035   0.858   5.556  10.492
   85SAPS   C21 8036   0.889   5.674  10.443
   85SAPS   O22 8037   0.977   5.751  10.478
   85SAPS   C22 8038   0.799   5.703  10.327
   85SAPS   H2R 8039   0.755   5.609  10.287
   85SAPS   H2S 8040   0.720   5.768  10.371
   85SAPS    C3 8041   0.925   5.365  10.619
   85SAPS    HX 8042   0.820   5.331  10.612
   85SAPS    HY 8043   0.952   5.337  10.723
   85SAPS   O31 8044   1.002   5.305  10.517
   85SAPS   C31 8045   1.122   5.278  10.546
   85SAPS   O32 8046   1.176   5.277  10.657
   85SAPS   C32 8047   1.192   5.247  10.417
   85SAPS   H2X 8048   1.142   5.164  10.362
   85SAPS   H2Y 8049   1.300   5.223  10.432
   85SAPS   C23 8050   0.875   5.785  10.212
   85SAPS   H3R 8051   0.888   5.890  10.246
   85SAPS   H3S 8052   0.798   5.791  10.132
   85SAPS   C24 8053   1.006   5.722  10.165
   85SAPS   H4R 8054   1.060   5.697  10.259
   85SAPS   H4S 8055   1.059   5.800  10.106
   85SAPS   C25 8056   0.974   5.594  10.090
   85SAPS   H5R 8057   0.951   5.503  10.147
   85SAPS   C26 8058   0.992   5.559   9.969
   85SAPS   H6R 8059   0.971   5.455   9.942
   85SAPS   C27 8060   1.028   5.650   9.854
   85SAPS   H7R 8061   1.096   5.598   9.783
   85SAPS   H7S 8062   1.093   5.734   9.888
   85SAPS   C28 8063   0.903   5.691   9.783
   85SAPS   H8R 8064   0.836   5.752   9.845
   85SAPS   C29 8065   0.861   5.660   9.659
   85SAPS   H9R 8066   0.757   5.675   9.629
   85SAPS  C210 8067   0.956   5.592   9.556
   85SAPS  H10R 8068   0.909   5.495   9.527
   85SAPS  H10S 8069   1.059   5.577   9.594
   85SAPS  C211 8070   0.971   5.679   9.433
   85SAPS  H11R 8071   0.978   5.786   9.456
   85SAPS  C212 8072   0.969   5.638   9.307
   85SAPS  H12R 8073   0.974   5.714   9.228
   85SAPS  C213 8074   0.947   5.498   9.257
   85SAPS  H13R 8075   0.926   5.416   9.330
   85SAPS  H13S 8076   1.044   5.476   9.208
   85SAPS  C214 8077   0.844   5.499   9.151
   85SAPS  H14R 8078   0.739   5.491   9.184
   85SAPS  C215 8079   0.866   5.510   9.018
   85SAPS  H15R 8080   0.778   5.502   8.953
   85SAPS  C216 8081   0.999   5.514   8.945
   85SAPS  H16R 8082   1.064   5.436   8.991
   85SAPS  H16S 8083   1.039   5.617   8.954
   85SAPS  C217 8084   0.974   5.467   8.802
   85SAPS  H17R 8085   0.891   5.526   8.757
   85SAPS  H17S 8086   0.943   5.360   8.814
   85SAPS  C218 8087   1.092   5.490   8.713
   85SAPS  H18R 8088   1.105   5.393   8.662
   85SAPS  H18S 8089   1.193   5.500   8.757
   85SAPS  C219 8090   1.068   5.602   8.613
   85SAPS  H19R 8091   0.969   5.591   8.563
   85SAPS  H19S 8092   1.146   5.593   8.535
   85SAPS  C220 8093   1.069   5.744   8.676
   85SAPS  H20R 8094   1.034   5.822   8.605
   85SAPS  H20S 8095   1.173   5.767   8.707
   85SAPS  H20T 8096   1.000   5.741   8.763
   85SAPS   C33 8097   1.181   5.378  10.331
   85SAPS   H3X 8098   1.207   5.463  10.398
   85SAPS   H3Y 8099   1.077   5.400  10.300
   85SAPS   C34 8100   1.260   5.364  10.198
   85SAPS   H4X 8101   1.370   5.360  10.210
   85SAPS   H4Y 8102   1.248   5.456  10.137
   85SAPS   C35 8103   1.222   5.245  10.109
   85SAPS   H5X 8104   1.111   5.246  10.103
   85SAPS   H5Y 8105   1.272   5.155  10.151
   85SAPS   C36 8106   1.269   5.266   9.971
   85SAPS   H6X 8107   1.380   5.270   9.966
   85SAPS   H6Y 8108   1.231   5.356   9.918
   85SAPS   C37 8109   1.225   5.137   9.888
   85SAPS   H7X 8110   1.118   5.109   9.898
   85SAPS   H7Y 8111   1.278   5.049   9.932
   85SAPS   C38 8112   1.275   5.139   9.746
   85SAPS   H8X 8113   1.237   5.046   9.700
   85SAPS   H8Y 8114   1.386   5.147   9.740
   85SAPS   C39 8115   1.208   5.255   9.668
   85SAPS   H9X 8116   1.265   5.344   9.700
   85SAPS   H9Y 8117   1.104   5.265   9.707
   85SAPS  C310 8118   1.226   5.242   9.522
   85SAPS  H10X 8119   1.316   5.183   9.493
   85SAPS  H10Y 8120   1.249   5.341   9.477
   85SAPS  C311 8121   1.101   5.186   9.450
   85SAPS  H11X 8122   1.020   5.262   9.449
   85SAPS  H11Y 8123   1.064   5.087   9.481
   85SAPS  C312 8124   1.130   5.167   9.299
   85SAPS  H12X 8125   1.216   5.097   9.305
   85SAPS  H12Y 8126   1.175   5.264   9.269
   85SAPS  C313 8127   1.013   5.125   9.210
   85SAPS  H13X 8128   0.925   5.190   9.233
   85SAPS  H13Y 8129   0.996   5.022   9.249
   85SAPS  C314 8130   1.046   5.132   9.054
   85SAPS  H14X 8131   1.075   5.235   9.026
   85SAPS  H14Y 8132   0.947   5.113   9.008
   85SAPS  C315 8133   1.144   5.020   9.015
   85SAPS  H15X 8134   1.102   4.920   9.041
   85SAPS  H15Y 8135   1.236   5.033   9.075
   85SAPS  C316 8136   1.166   5.020   8.862
   85SAPS  H16X 8137   1.255   4.954   8.849
   85SAPS  H16Y 8138   1.198   5.122   8.832
   85SAPS  C317 8139   1.051   4.958   8.785
   85SAPS  H17X 8140   0.971   5.035   8.789
   85SAPS  H17Y 8141   1.007   4.864   8.826
   85SAPS  C318 8142   1.083   4.941   8.631
   85SAPS  H18X 8143   1.182   4.892   8.628
   85SAPS  H18Y 8144   1.096   5.034   8.573
   85SAPS  H18Z 8145   1.011   4.872   8.582
   86SAPS     N 8146   2.518   5.288  10.839
   86SAPS   HN1 8147   2.592   5.215  10.831
   86SAPS   HN2 8148   2.477   5.283  10.934
   86SAPS   HN3 8149   2.439   5.267  10.774
   86SAPS   C12 8150   2.579   5.423  10.792
   86SAPS  H12A 8151   2.580   5.407  10.685
   86SAPS   C13 8152   2.483   5.539  10.821
   86SAPS  O13A 8153   2.363   5.504  10.849
   86SAPS  O13B 8154   2.519   5.653  10.783
   86SAPS   C11 8155   2.716   5.447  10.848
   86SAPS  H11A 8156   2.691   5.458  10.956
   86SAPS  H11B 8157   2.767   5.542  10.823
   86SAPS     P 8158   2.952   5.352  10.880
   86SAPS   O13 8159   2.964   5.452  10.989
   86SAPS   O14 8160   2.991   5.220  10.933
   86SAPS   O12 8161   2.805   5.339  10.822
   86SAPS   O11 8162   3.036   5.389  10.752
   86SAPS    C1 8163   3.066   5.530  10.731
   86SAPS    HA 8164   2.981   5.598  10.750
   86SAPS    HB 8165   3.135   5.561  10.812
   86SAPS    C2 8166   3.131   5.548  10.591
   86SAPS    HS 8167   3.156   5.654  10.567
   86SAPS   O21 8168   3.047   5.486  10.498
   86SAPS   C21 8169   2.940   5.554  10.473
   86SAPS   O22 8170   2.905   5.656  10.529
   86SAPS   C22 8171   2.871   5.496  10.346
   86SAPS   H2R 8172   2.944   5.501  10.262
   86SAPS   H2S 8173   2.838   5.394  10.375
   86SAPS    C3 8174   3.281   5.490  10.589
   86SAPS    HX 8175   3.286   5.380  10.598
   86SAPS    HY 8176   3.316   5.518  10.691
   86SAPS   O31 8177   3.357   5.541  10.475
   86SAPS   C31 8178   3.351   5.452  10.373
   86SAPS   O32 8179   3.274   5.360  10.365
   86SAPS   C32 8180   3.451   5.489  10.261
   86SAPS   H2X 8181   3.553   5.471  10.302
   86SAPS   H2Y 8182   3.431   5.596  10.243
   86SAPS   C23 8183   2.754   5.576  10.287
   86SAPS   H3R 8184   2.754   5.565  10.177
   86SAPS   H3S 8185   2.771   5.685  10.298
   86SAPS   C24 8186   2.615   5.569  10.360
   86SAPS   H4R 8187   2.558   5.650  10.311
   86SAPS   H4S 8188   2.616   5.603  10.466
   86SAPS   C25 8189   2.557   5.431  10.351
   86SAPS   H5R 8190   2.583   5.379  10.445
   86SAPS   C26 8191   2.483   5.373  10.258
   86SAPS   H6R 8192   2.456   5.266  10.258
   86SAPS   C27 8193   2.440   5.438  10.131
   86SAPS   H7R 8194   2.530   5.426  10.067
   86SAPS   H7S 8195   2.433   5.548  10.137
   86SAPS   C28 8196   2.309   5.384  10.071
   86SAPS   H8R 8197   2.223   5.447  10.099
   86SAPS   C29 8198   2.285   5.269  10.004
   86SAPS   H9R 8199   2.183   5.243   9.971
   86SAPS  C210 8200   2.381   5.156   9.974
   86SAPS  H10R 8201   2.344   5.070  10.034
   86SAPS  H10S 8202   2.478   5.178  10.024
   86SAPS  C211 8203   2.386   5.122   9.828
   86SAPS  H11R 8204   2.287   5.122   9.779
   86SAPS  C212 8205   2.498   5.124   9.751
   86SAPS  H12R 8206   2.485   5.117   9.642
   86SAPS  C213 8207   2.637   5.150   9.799
   86SAPS  H13R 8208   2.713   5.111   9.728
   86SAPS  H13S 8209   2.648   5.084   9.888
   86SAPS  C214 8210   2.669   5.285   9.849
   86SAPS  H14R 8211   2.589   5.361   9.837
   86SAPS  C215 8212   2.792   5.332   9.871
   86SAPS  H15R 8213   2.803   5.429   9.922
   86SAPS  C216 8214   2.919   5.252   9.858
   86SAPS  H16R 8215   2.984   5.293   9.778
   86SAPS  H16S 8216   2.895   5.152   9.818
   86SAPS  C217 8217   2.992   5.223   9.992
   86SAPS  H17R 8218   3.017   5.312  10.055
   86SAPS  H17S 8219   3.084   5.166   9.967
   86SAPS  C218 8220   2.908   5.127  10.074
   86SAPS  H18R 8221   2.885   5.030  10.025
   86SAPS  H18S 8222   2.812   5.180  10.092
   86SAPS  C219 8223   2.977   5.101  10.212
   86SAPS  H19R 8224   2.905   5.033  10.262
   86SAPS  H19S 8225   2.977   5.194  10.272
   86SAPS  C220 8226   3.122   5.035  10.218
   86SAPS  H20R 8227   3.191   5.120  10.200
   86SAPS  H20S 8228   3.136   4.943  10.157
   86SAPS  H20T 8229   3.134   5.002  10.323
   86SAPS   C33 8230   3.425   5.429  10.123
   86SAPS   H3X 8231   3.480   5.479  10.041
   86SAPS   H3Y 8232   3.316   5.428  10.103
   86SAPS   C34 8233   3.460   5.279  10.132
   86SAPS   H4X 8234   3.412   5.224  10.215
   86SAPS   H4Y 8235   3.569   5.281  10.155
   86SAPS   C35 8236   3.415   5.199  10.004
   86SAPS   H5X 8237   3.305   5.210   9.995
   86SAPS   H5Y 8238   3.439   5.094  10.032
   86SAPS   C36 8239   3.471   5.238   9.873
   86SAPS   H6X 8240   3.570   5.192   9.856
   86SAPS   H6Y 8241   3.470   5.349   9.864
   86SAPS   C37 8242   3.384   5.185   9.757
   86SAPS   H7X 8243   3.284   5.233   9.750
   86SAPS   H7Y 8244   3.367   5.075   9.764
   86SAPS   C38 8245   3.472   5.202   9.631
   86SAPS   H8X 8246   3.566   5.142   9.632
   86SAPS   H8Y 8247   3.503   5.308   9.633
   86SAPS   C39 8248   3.391   5.201   9.501
   86SAPS   H9X 8249   3.310   5.277   9.501
   86SAPS   H9Y 8250   3.357   5.095   9.497
   86SAPS  C310 8251   3.479   5.223   9.369
   86SAPS  H10X 8252   3.570   5.160   9.365
   86SAPS  H10Y 8253   3.511   5.329   9.379
   86SAPS  C311 8254   3.404   5.199   9.237
   86SAPS  H11X 8255   3.335   5.286   9.230
   86SAPS  H11Y 8256   3.347   5.105   9.223
   86SAPS  C312 8257   3.502   5.195   9.119
   86SAPS  H12X 8258   3.579   5.118   9.140
   86SAPS  H12Y 8259   3.545   5.298   9.119
   86SAPS  C313 8260   3.441   5.163   8.985
   86SAPS  H13X 8261   3.388   5.067   9.004
   86SAPS  H13Y 8262   3.534   5.150   8.925
   86SAPS  C314 8263   3.358   5.279   8.928
   86SAPS  H14X 8264   3.419   5.370   8.909
   86SAPS  H14Y 8265   3.273   5.296   8.998
   86SAPS  C315 8266   3.295   5.248   8.790
   86SAPS  H15X 8267   3.260   5.143   8.799
   86SAPS  H15Y 8268   3.380   5.244   8.718
   86SAPS  C316 8269   3.183   5.346   8.750
   86SAPS  H16X 8270   3.124   5.374   8.840
   86SAPS  H16Y 8271   3.111   5.286   8.690
   86SAPS  C317 8272   3.232   5.464   8.673
   86SAPS  H17X 8273   3.290   5.429   8.585
   86SAPS  H17Y 8274   3.282   5.544   8.731
   86SAPS  C318 8275   3.108   5.532   8.610
   86SAPS  H18X 8276   3.045   5.462   8.552
   86SAPS  H18Y 8277   3.142   5.617   8.548
   86SAPS  H18Z 8278   3.046   5.565   8.696
   87SAPS     N 8279   3.767   6.344  10.999
   87SAPS   HN1 8280   3.825   6.368  11.082
   87SAPS   HN2 8281   3.729   6.250  11.023
   87SAPS   HN3 8282   3.821   6.353  10.911
   87SAPS   C12 8283   3.654   6.440  11.000
   87SAPS  H12A 8284   3.591   6.419  11.085
   87SAPS   C13 8285   3.691   6.591  11.019
   87SAPS  O13A 8286   3.813   6.627  11.035
   87SAPS  O13B 8287   3.601   6.673  10.987
   87SAPS   C11 8288   3.572   6.423  10.873
   87SAPS  H11A 8289   3.627   6.468  10.788
   87SAPS  H11B 8290   3.478   6.481  10.883
   87SAPS     P 8291   3.413   6.208  10.923
   87SAPS   O13 8292   3.410   6.064  10.877
   87SAPS   O14 8293   3.420   6.229  11.067
   87SAPS   O12 8294   3.547   6.281  10.853
   87SAPS   O11 8295   3.278   6.277  10.872
   87SAPS    C1 8296   3.265   6.373  10.769
   87SAPS    HA 8297   3.262   6.475  10.812
   87SAPS    HB 8298   3.360   6.381  10.713
   87SAPS    C2 8299   3.143   6.340  10.679
   87SAPS    HS 8300   3.056   6.326  10.747
   87SAPS   O21 8301   3.164   6.216  10.608
   87SAPS   C21 8302   3.051   6.142  10.578
   87SAPS   O22 8303   2.942   6.171  10.623
   87SAPS   C22 8304   3.081   6.014  10.503
   87SAPS   H2R 8305   3.184   5.978  10.524
   87SAPS   H2S 8306   3.008   5.958  10.565
   87SAPS    C3 8307   3.093   6.448  10.576
   87SAPS    HX 8308   3.050   6.535  10.630
   87SAPS    HY 8309   3.007   6.408  10.519
   87SAPS   O31 8310   3.206   6.488  10.501
   87SAPS   C31 8311   3.175   6.554  10.392
   87SAPS   O32 8312   3.061   6.563  10.346
   87SAPS   C32 8313   3.305   6.613  10.337
   87SAPS   H2X 8314   3.379   6.530  10.329
   87SAPS   H2Y 8315   3.334   6.681  10.420
   87SAPS   C23 8316   3.034   6.023  10.357
   87SAPS   H3R 8317   3.092   6.102  10.304
   87SAPS   H3S 8318   2.927   6.052  10.359
   87SAPS   C24 8319   3.032   5.888  10.279
   87SAPS   H4R 8320   2.960   5.892  10.195
   87SAPS   H4S 8321   2.991   5.808  10.345
   87SAPS   C25 8322   3.170   5.842  10.237
   87SAPS   H5R 8323   3.240   5.836  10.321
   87SAPS   C26 8324   3.207   5.774  10.129
   87SAPS   H6R 8325   3.313   5.752  10.116
   87SAPS   C27 8326   3.104   5.733  10.024
   87SAPS   H7R 8327   3.094   5.805   9.940
   87SAPS   H7S 8328   3.000   5.740  10.062
   87SAPS   C28 8329   3.120   5.584   9.979
   87SAPS   H8R 8330   3.092   5.506  10.051
   87SAPS   C29 8331   3.177   5.548   9.859
   87SAPS   H9R 8332   3.182   5.440   9.838
   87SAPS  C210 8333   3.220   5.646   9.751
   87SAPS  H10R 8334   3.292   5.719   9.792
   87SAPS  H10S 8335   3.128   5.703   9.724
   87SAPS  C211 8336   3.246   5.573   9.622
   87SAPS  H11R 8337   3.157   5.530   9.574
   87SAPS  C212 8338   3.363   5.557   9.552
   87SAPS  H12R 8339   3.364   5.501   9.458
   87SAPS  C213 8340   3.501   5.606   9.588
   87SAPS  H13R 8341   3.515   5.576   9.694
   87SAPS  H13S 8342   3.495   5.717   9.589
   87SAPS  C214 8343   3.613   5.561   9.504
   87SAPS  H14R 8344   3.648   5.462   9.538
   87SAPS  C215 8345   3.664   5.623   9.394
   87SAPS  H15R 8346   3.762   5.585   9.363
   87SAPS  C216 8347   3.623   5.758   9.342
   87SAPS  H16R 8348   3.706   5.813   9.293
   87SAPS  H16S 8349   3.572   5.819   9.419
   87SAPS  C217 8350   3.529   5.738   9.216
   87SAPS  H17R 8351   3.496   5.834   9.171
   87SAPS  H17S 8352   3.432   5.693   9.245
   87SAPS  C218 8353   3.593   5.650   9.099
   87SAPS  H18R 8354   3.603   5.545   9.134
   87SAPS  H18S 8355   3.691   5.692   9.068
   87SAPS  C219 8356   3.501   5.661   8.975
   87SAPS  H19R 8357   3.455   5.762   8.965
   87SAPS  H19S 8358   3.419   5.586   8.978
   87SAPS  C220 8359   3.587   5.631   8.854
   87SAPS  H20R 8360   3.650   5.540   8.860
   87SAPS  H20S 8361   3.659   5.711   8.828
   87SAPS  H20T 8362   3.514   5.625   8.769
   87SAPS   C33 8363   3.283   6.695  10.200
   87SAPS   H3X 8364   3.373   6.760  10.191
   87SAPS   H3Y 8365   3.194   6.759  10.217
   87SAPS   C34 8366   3.271   6.608  10.077
   87SAPS   H4X 8367   3.177   6.549  10.081
   87SAPS   H4Y 8368   3.351   6.532  10.064
   87SAPS   C35 8369   3.279   6.697   9.951
   87SAPS   H5X 8370   3.365   6.767   9.955
   87SAPS   H5Y 8371   3.189   6.762   9.951
   87SAPS   C36 8372   3.288   6.613   9.825
   87SAPS   H6X 8373   3.200   6.545   9.837
   87SAPS   H6Y 8374   3.379   6.552   9.807
   87SAPS   C37 8375   3.276   6.711   9.709
   87SAPS   H7X 8376   3.357   6.785   9.726
   87SAPS   H7Y 8377   3.181   6.768   9.718
   87SAPS   C38 8378   3.285   6.657   9.562
   87SAPS   H8X 8379   3.204   6.583   9.543
   87SAPS   H8Y 8380   3.384   6.610   9.550
   87SAPS   C39 8381   3.269   6.763   9.450
   87SAPS   H9X 8382   3.353   6.837   9.447
   87SAPS   H9Y 8383   3.173   6.818   9.460
   87SAPS  C310 8384   3.252   6.699   9.309
   87SAPS  H10X 8385   3.167   6.629   9.320
   87SAPS  H10Y 8386   3.339   6.638   9.277
   87SAPS  C311 8387   3.220   6.806   9.207
   87SAPS  H11X 8388   3.302   6.880   9.198
   87SAPS  H11Y 8389   3.127   6.855   9.240
   87SAPS  C312 8390   3.187   6.750   9.068
   87SAPS  H12X 8391   3.138   6.823   9.000
   87SAPS  H12Y 8392   3.115   6.667   9.083
   87SAPS  C313 8393   3.309   6.704   8.978
   87SAPS  H13X 8394   3.361   6.624   9.034
   87SAPS  H13Y 8395   3.374   6.788   8.947
   87SAPS  C314 8396   3.253   6.637   8.851
   87SAPS  H14X 8397   3.221   6.712   8.776
   87SAPS  H14Y 8398   3.157   6.588   8.877
   87SAPS  C315 8399   3.355   6.539   8.790
   87SAPS  H15X 8400   3.359   6.452   8.859
   87SAPS  H15Y 8401   3.454   6.587   8.776
   87SAPS  C316 8402   3.310   6.480   8.651
   87SAPS  H16X 8403   3.311   6.566   8.580
   87SAPS  H16Y 8404   3.206   6.443   8.659
   87SAPS  C317 8405   3.383   6.354   8.600
   87SAPS  H17X 8406   3.355   6.267   8.663
   87SAPS  H17Y 8407   3.489   6.382   8.615
   87SAPS  C318 8408   3.349   6.331   8.449
   87SAPS  H18X 8409   3.248   6.286   8.434
   87SAPS  H18Y 8410   3.421   6.258   8.408
   87SAPS  H18Z 8411   3.366   6.424   8.392
   88SAPS     N 8412   5.403   4.955  10.783
   88SAPS   HN1 8413   5.456   5.023  10.724
   88SAPS   HN2 8414   5.391   4.868  10.727
   88SAPS   HN3 8415   5.306   4.990  10.791
   88SAPS   C12 8416   5.445   4.918  10.926
   88SAPS  H12A 8417   5.551   4.937  10.937
   88SAPS   C13 8418   5.375   5.017  11.028
   88SAPS  O13A 8419   5.306   5.112  10.990
   88SAPS  O13B 8420   5.414   5.006  11.144
   88SAPS   C11 8421   5.399   4.775  10.949
   88SAPS  H11A 8422   5.289   4.763  10.960
   88SAPS  H11B 8423   5.437   4.750  11.051
   88SAPS     P 8424   5.503   4.544  10.883
   88SAPS   O13 8425   5.483   4.513  11.024
   88SAPS   O14 8426   5.468   4.432  10.794
   88SAPS   O12 8427   5.433   4.673  10.846
   88SAPS   O11 8428   5.658   4.574  10.868
   88SAPS    C1 8429   5.699   4.660  10.762
   88SAPS    HA 8430   5.618   4.709  10.704
   88SAPS    HB 8431   5.756   4.748  10.798
   88SAPS    C2 8432   5.804   4.593  10.667
   88SAPS    HS 8433   5.820   4.674  10.593
   88SAPS   O21 8434   5.759   4.476  10.591
   88SAPS   C21 8435   5.660   4.492  10.511
   88SAPS   O22 8436   5.604   4.602  10.490
   88SAPS   C22 8437   5.615   4.369  10.444
   88SAPS   H2R 8438   5.667   4.286  10.496
   88SAPS   H2S 8439   5.510   4.352  10.473
   88SAPS    C3 8440   5.946   4.567  10.729
   88SAPS    HX 8441   5.918   4.481  10.794
   88SAPS    HY 8442   5.979   4.651  10.794
   88SAPS   O31 8443   6.044   4.538  10.631
   88SAPS   C31 8444   6.163   4.498  10.680
   88SAPS   O32 8445   6.191   4.483  10.795
   88SAPS   C32 8446   6.254   4.476  10.558
   88SAPS   H2X 8447   6.354   4.462  10.603
   88SAPS   H2Y 8448   6.250   4.568  10.496
   88SAPS   C23 8449   5.627   4.372  10.290
   88SAPS   H3R 8450   5.590   4.270  10.263
   88SAPS   H3S 8451   5.734   4.384  10.262
   88SAPS   C24 8452   5.538   4.470  10.210
   88SAPS   H4R 8453   5.575   4.474  10.105
   88SAPS   H4S 8454   5.565   4.570  10.248
   88SAPS   C25 8455   5.393   4.450  10.217
   88SAPS   H5R 8456   5.351   4.455  10.319
   88SAPS   C26 8457   5.319   4.437  10.104
   88SAPS   H6R 8458   5.210   4.447  10.115
   88SAPS   C27 8459   5.370   4.423   9.962
   88SAPS   H7R 8460   5.448   4.344   9.964
   88SAPS   H7S 8461   5.435   4.512   9.949
   88SAPS   C28 8462   5.272   4.416   9.845
   88SAPS   H8R 8463   5.163   4.419   9.862
   88SAPS   C29 8464   5.303   4.381   9.721
   88SAPS   H9R 8465   5.229   4.403   9.642
   88SAPS  C210 8466   5.445   4.357   9.680
   88SAPS  H10R 8467   5.448   4.269   9.612
   88SAPS  H10S 8468   5.511   4.320   9.761
   88SAPS  C211 8469   5.507   4.477   9.612
   88SAPS  H11R 8470   5.531   4.570   9.665
   88SAPS  C212 8471   5.514   4.484   9.481
   88SAPS  H12R 8472   5.566   4.569   9.435
   88SAPS  C213 8473   5.443   4.389   9.388
   88SAPS  H13R 8474   5.371   4.320   9.437
   88SAPS  H13S 8475   5.531   4.327   9.363
   88SAPS  C214 8476   5.405   4.436   9.250
   88SAPS  H14R 8477   5.453   4.529   9.216
   88SAPS  C215 8478   5.332   4.367   9.162
   88SAPS  H15R 8479   5.316   4.412   9.063
   88SAPS  C216 8480   5.281   4.225   9.192
   88SAPS  H16R 8481   5.323   4.169   9.278
   88SAPS  H16S 8482   5.308   4.163   9.104
   88SAPS  C217 8483   5.127   4.234   9.211
   88SAPS  H17R 8484   5.102   4.318   9.278
   88SAPS  H17S 8485   5.100   4.140   9.264
   88SAPS  C218 8486   5.067   4.240   9.066
   88SAPS  H18R 8487   5.103   4.149   9.014
   88SAPS  H18S 8488   5.114   4.321   9.007
   88SAPS  C219 8489   4.909   4.243   9.061
   88SAPS  H19R 8490   4.874   4.162   9.129
   88SAPS  H19S 8491   4.877   4.214   8.959
   88SAPS  C220 8492   4.843   4.379   9.085
   88SAPS  H20R 8493   4.876   4.426   9.180
   88SAPS  H20S 8494   4.732   4.370   9.081
   88SAPS  H20T 8495   4.851   4.438   8.992
   88SAPS   C33 8496   6.203   4.364  10.471
   88SAPS   H3X 8497   6.113   4.376  10.407
   88SAPS   H3Y 8498   6.171   4.279  10.536
   88SAPS   C34 8499   6.305   4.298  10.379
   88SAPS   H4X 8500   6.379   4.253  10.448
   88SAPS   H4Y 8501   6.359   4.388  10.344
   88SAPS   C35 8502   6.240   4.209  10.270
   88SAPS   H5X 8503   6.182   4.271  10.198
   88SAPS   H5Y 8504   6.178   4.126  10.309
   88SAPS   C36 8505   6.350   4.132  10.185
   88SAPS   H6X 8506   6.434   4.100  10.251
   88SAPS   H6Y 8507   6.412   4.198  10.121
   88SAPS   C37 8508   6.293   4.019  10.105
   88SAPS   H7X 8509   6.206   3.972  10.156
   88SAPS   H7Y 8510   6.376   3.952  10.075
   88SAPS   C38 8511   6.237   4.064   9.968
   88SAPS   H8X 8512   6.316   4.124   9.918
   88SAPS   H8Y 8513   6.150   4.133   9.977
   88SAPS   C39 8514   6.199   3.943   9.879
   88SAPS   H9X 8515   6.103   3.903   9.919
   88SAPS   H9Y 8516   6.270   3.858   9.892
   88SAPS  C310 8517   6.180   3.982   9.726
   88SAPS  H10X 8518   6.286   4.003   9.700
   88SAPS  H10Y 8519   6.113   4.071   9.722
   88SAPS  C311 8520   6.127   3.860   9.647
   88SAPS  H11X 8521   6.023   3.836   9.676
   88SAPS  H11Y 8522   6.185   3.768   9.672
   88SAPS  C312 8523   6.123   3.892   9.495
   88SAPS  H12X 8524   6.226   3.894   9.453
   88SAPS  H12Y 8525   6.082   3.990   9.463
   88SAPS  C313 8526   6.047   3.778   9.411
   88SAPS  H13X 8527   5.939   3.780   9.434
   88SAPS  H13Y 8528   6.086   3.675   9.426
   88SAPS  C314 8529   6.065   3.809   9.257
   88SAPS  H14X 8530   6.174   3.807   9.240
   88SAPS  H14Y 8531   6.025   3.910   9.233
   88SAPS  C315 8532   5.995   3.705   9.169
   88SAPS  H15X 8533   5.891   3.712   9.207
   88SAPS  H15Y 8534   6.032   3.601   9.184
   88SAPS  C316 8535   6.005   3.748   9.024
   88SAPS  H16X 8536   6.112   3.760   8.995
   88SAPS  H16Y 8537   5.969   3.850   8.999
   88SAPS  C317 8538   5.937   3.652   8.922
   88SAPS  H17X 8539   5.953   3.547   8.952
   88SAPS  H17Y 8540   5.984   3.676   8.824
   88SAPS  C318 8541   5.793   3.674   8.912
   88SAPS  H18X 8542   5.772   3.783   8.910
   88SAPS  H18Y 8543   5.736   3.646   9.003
   88SAPS  H18Z 8544   5.749   3.608   8.834
   89SAPS     N 8545   5.074   0.245  10.731
   89SAPS   HN1 8546   5.073   0.320  10.658
   89SAPS   HN2 8547   5.137   0.173  10.691
   89SAPS   HN3 8548   4.981   0.198  10.736
   89SAPS   C12 8549   5.129   0.288  10.863
   89SAPS  H12A 8550   5.050   0.326  10.925
   89SAPS   C13 8551   5.192   0.169  10.945
   89SAPS  O13A 8552   5.165   0.053  10.913
   89SAPS  O13B 8553   5.209   0.196  11.071
   89SAPS   C11 8554   5.247   0.388  10.847
   89SAPS  H11A 8555   5.347   0.341  10.838
   89SAPS  H11B 8556   5.247   0.448  10.940
   89SAPS     P 8557   5.336   0.563  10.662
   89SAPS   O13 8558   5.265   0.678  10.603
   89SAPS   O14 8559   5.439   0.600  10.763
   89SAPS   O12 8560   5.219   0.476  10.731
   89SAPS   O11 8561   5.412   0.477  10.554
   89SAPS    C1 8562   5.345   0.392  10.465
   89SAPS    HA 8563   5.413   0.312  10.429
   89SAPS    HB 8564   5.257   0.336  10.504
   89SAPS    C2 8565   5.294   0.471  10.335
   89SAPS    HS 8566   5.205   0.532  10.361
   89SAPS   O21 8567   5.269   0.378  10.233
   89SAPS   C21 8568   5.169   0.417  10.142
   89SAPS   O22 8569   5.113   0.527  10.136
   89SAPS   C22 8570   5.164   0.297  10.042
   89SAPS   H2R 8571   5.263   0.251  10.024
   89SAPS   H2S 8572   5.101   0.218  10.089
   89SAPS    C3 8573   5.404   0.569  10.279
   89SAPS    HX 8574   5.504   0.520  10.278
   89SAPS    HY 8575   5.410   0.652  10.353
   89SAPS   O31 8576   5.389   0.613  10.145
   89SAPS   C31 8577   5.334   0.735  10.144
   89SAPS   O32 8578   5.297   0.797  10.243
   89SAPS   C32 8579   5.337   0.779   9.996
   89SAPS   H2X 8580   5.262   0.859   9.974
   89SAPS   H2Y 8581   5.324   0.699   9.920
   89SAPS   C23 8582   5.091   0.351   9.923
   89SAPS   H3R 8583   5.145   0.430   9.866
   89SAPS   H3S 8584   5.004   0.407   9.964
   89SAPS   C24 8585   5.060   0.246   9.821
   89SAPS   H4R 8586   4.999   0.298   9.745
   89SAPS   H4S 8587   4.999   0.170   9.873
   89SAPS   C25 8588   5.188   0.176   9.767
   89SAPS   H5R 8589   5.261   0.134   9.838
   89SAPS   C26 8590   5.218   0.147   9.637
   89SAPS   H6R 8591   5.305   0.087   9.608
   89SAPS   C27 8592   5.128   0.188   9.524
   89SAPS   H7R 8593   5.195   0.260   9.473
   89SAPS   H7S 8594   5.035   0.236   9.560
   89SAPS   C28 8595   5.099   0.075   9.430
   89SAPS   H8R 8596   5.136  -0.023   9.462
   89SAPS   C29 8597   5.056   0.091   9.304
   89SAPS   H9R 8598   5.050   0.002   9.239
   89SAPS  C210 8599   5.025   0.220   9.232
   89SAPS  H10R 8600   4.957   0.272   9.303
   89SAPS  H10S 8601   4.962   0.215   9.141
   89SAPS  C211 8602   5.143   0.311   9.212
   89SAPS  H11R 8603   5.121   0.408   9.260
   89SAPS  C212 8604   5.255   0.292   9.142
   89SAPS  H12R 8605   5.303   0.390   9.129
   89SAPS  C213 8606   5.278   0.178   9.041
   89SAPS  H13R 8607   5.336   0.204   8.950
   89SAPS  H13S 8608   5.182   0.135   9.005
   89SAPS  C214 8609   5.346   0.063   9.123
   89SAPS  H14R 8610   5.408   0.110   9.201
   89SAPS  C215 8611   5.369  -0.062   9.083
   89SAPS  H15R 8612   5.429  -0.130   9.145
   89SAPS  C216 8613   5.313  -0.118   8.955
   89SAPS  H16R 8614   5.298  -0.033   8.884
   89SAPS  H16S 8615   5.212  -0.162   8.964
   89SAPS  C217 8616   5.406  -0.225   8.888
   89SAPS  H17R 8617   5.383  -0.310   8.955
   89SAPS  H17S 8618   5.511  -0.194   8.905
   89SAPS  C218 8619   5.387  -0.258   8.744
   89SAPS  H18R 8620   5.403  -0.175   8.672
   89SAPS  H18S 8621   5.281  -0.283   8.726
   89SAPS  C219 8622   5.476  -0.375   8.691
   89SAPS  H19R 8623   5.577  -0.339   8.664
   89SAPS  H19S 8624   5.422  -0.404   8.598
   89SAPS  C220 8625   5.497  -0.507   8.774
   89SAPS  H20R 8626   5.574  -0.501   8.854
   89SAPS  H20S 8627   5.518  -0.586   8.700
   89SAPS  H20T 8628   5.397  -0.523   8.819
   89SAPS   C33 8629   5.471   0.847   9.966
   89SAPS   H3X 8630   5.537   0.760   9.945
   89SAPS   H3Y 8631   5.491   0.920  10.047
   89SAPS   C34 8632   5.480   0.947   9.843
   89SAPS   H4X 8633   5.587   0.975   9.834
   89SAPS   H4Y 8634   5.412   1.035   9.841
   89SAPS   C35 8635   5.458   0.866   9.717
   89SAPS   H5X 8636   5.353   0.834   9.699
   89SAPS   H5Y 8637   5.511   0.769   9.707
   89SAPS   C36 8638   5.483   0.954   9.596
   89SAPS   H6X 8639   5.593   0.956   9.580
   89SAPS   H6Y 8640   5.440   1.054   9.619
   89SAPS   C37 8641   5.425   0.903   9.460
   89SAPS   H7X 8642   5.316   0.924   9.463
   89SAPS   H7Y 8643   5.442   0.794   9.457
   89SAPS   C38 8644   5.482   0.978   9.340
   89SAPS   H8X 8645   5.590   0.952   9.336
   89SAPS   H8Y 8646   5.474   1.087   9.358
   89SAPS   C39 8647   5.409   0.943   9.212
   89SAPS   H9X 8648   5.307   0.986   9.224
   89SAPS   H9Y 8649   5.392   0.834   9.200
   89SAPS  C310 8650   5.462   0.991   9.081
   89SAPS  H10X 8651   5.565   0.957   9.058
   89SAPS  H10Y 8652   5.455   1.102   9.076
   89SAPS  C311 8653   5.370   0.932   8.968
   89SAPS  H11X 8654   5.265   0.963   8.987
   89SAPS  H11Y 8655   5.362   0.821   8.970
   89SAPS  C312 8656   5.410   0.982   8.831
   89SAPS  H12X 8657   5.520   0.975   8.815
   89SAPS  H12Y 8658   5.400   1.092   8.818
   89SAPS  C313 8659   5.325   0.903   8.725
   89SAPS  H13X 8660   5.218   0.932   8.727
   89SAPS  H13Y 8661   5.338   0.797   8.755
   89SAPS  C314 8662   5.378   0.928   8.580
   89SAPS  H14X 8663   5.458   0.858   8.549
   89SAPS  H14Y 8664   5.428   1.027   8.579
   89SAPS  C315 8665   5.261   0.914   8.474
   89SAPS  H15X 8666   5.312   0.926   8.376
   89SAPS  H15Y 8667   5.188   0.997   8.486
   89SAPS  C316 8668   5.188   0.776   8.461
   89SAPS  H16X 8669   5.099   0.791   8.397
   89SAPS  H16Y 8670   5.147   0.751   8.561
   89SAPS  C317 8671   5.268   0.663   8.406
   89SAPS  H17X 8672   5.354   0.646   8.473
   89SAPS  H17Y 8673   5.308   0.686   8.305
   89SAPS  C318 8674   5.192   0.535   8.404
   89SAPS  H18X 8675   5.117   0.528   8.323
   89SAPS  H18Y 8676   5.143   0.515   8.502
   89SAPS  H18Z 8677   5.256   0.445   8.390
   90SAPS     N 8678   0.711   0.531  10.654
   90SAPS   HN1 8679   0.762   0.618  10.680
   90SAPS   HN2 8680   0.725   0.513  10.552
   90SAPS   HN3 8681   0.611   0.560  10.654
   90SAPS   C12 8682   0.728   0.415  10.744
   90SAPS  H12A 8683   0.833   0.387  10.745
   90SAPS   C13 8684   0.697   0.440  10.888
   90SAPS  O13A 8685   0.631   0.543  10.922
   90SAPS  O13B 8686   0.731   0.357  10.978
   90SAPS   C11 8687   0.636   0.288  10.704
   90SAPS  H11A 8688   0.639   0.201  10.773
   90SAPS  H11B 8689   0.693   0.252  10.616
   90SAPS     P 8690   0.415   0.231  10.591
   90SAPS   O13 8691   0.451   0.092  10.619
   90SAPS   O14 8692   0.275   0.261  10.630
   90SAPS   O12 8693   0.502   0.323  10.675
   90SAPS   O11 8694   0.438   0.266  10.440
   90SAPS    C1 8695   0.330   0.278  10.351
   90SAPS    HA 8696   0.244   0.330  10.399
   90SAPS    HB 8697   0.370   0.326  10.259
   90SAPS    C2 8698   0.278   0.139  10.315
   90SAPS    HS 8699   0.266   0.082  10.409
   90SAPS   O21 8700   0.377   0.074  10.230
   90SAPS   C21 8701   0.366  -0.054  10.235
   90SAPS   O22 8702   0.281  -0.111  10.304
   90SAPS   C22 8703   0.466  -0.121  10.139
   90SAPS   H2R 8704   0.500  -0.046  10.064
   90SAPS   H2S 8705   0.560  -0.139  10.196
   90SAPS    C3 8706   0.138   0.163  10.241
   90SAPS    HX 8707   0.067   0.202  10.317
   90SAPS    HY 8708   0.095   0.066  10.209
   90SAPS   O31 8709   0.146   0.261  10.136
   90SAPS   C31 8710   0.189   0.216  10.013
   90SAPS   O32 8711   0.169   0.106   9.970
   90SAPS   C32 8712   0.246   0.334   9.935
   90SAPS   H2X 8713   0.307   0.391  10.008
   90SAPS   H2Y 8714   0.155   0.388   9.901
   90SAPS   C23 8715   0.422  -0.254  10.079
   90SAPS   H3R 8716   0.327  -0.240  10.024
   90SAPS   H3S 8717   0.405  -0.334  10.154
   90SAPS   C24 8718   0.531  -0.314   9.978
   90SAPS   H4R 8719   0.626  -0.329  10.033
   90SAPS   H4S 8720   0.551  -0.238   9.900
   90SAPS   C25 8721   0.490  -0.452   9.920
   90SAPS   H5R 8722   0.475  -0.537   9.989
   90SAPS   C26 8723   0.463  -0.468   9.784
   90SAPS   H6R 8724   0.420  -0.563   9.750
   90SAPS   C27 8725   0.489  -0.361   9.677
   90SAPS   H7R 8726   0.433  -0.266   9.689
   90SAPS   H7S 8727   0.457  -0.398   9.577
   90SAPS   C28 8728   0.627  -0.321   9.651
   90SAPS   H8R 8729   0.679  -0.279   9.738
   90SAPS   C29 8730   0.700  -0.330   9.537
   90SAPS   H9R 8731   0.799  -0.282   9.537
   90SAPS  C210 8732   0.640  -0.386   9.405
   90SAPS  H10R 8733   0.571  -0.470   9.426
   90SAPS  H10S 8734   0.719  -0.439   9.348
   90SAPS  C211 8735   0.580  -0.273   9.327
   90SAPS  H11R 8736   0.516  -0.217   9.397
   90SAPS  C212 8737   0.600  -0.225   9.202
   90SAPS  H12R 8738   0.553  -0.132   9.168
   90SAPS  C213 8739   0.695  -0.283   9.109
   90SAPS  H13R 8740   0.677  -0.392   9.097
   90SAPS  H13S 8741   0.798  -0.280   9.151
   90SAPS  C214 8742   0.686  -0.220   8.975
   90SAPS  H14R 8743   0.647  -0.118   8.961
   90SAPS  C215 8744   0.701  -0.284   8.860
   90SAPS  H15R 8745   0.703  -0.225   8.768
   90SAPS  C216 8746   0.753  -0.422   8.838
   90SAPS  H16R 8747   0.782  -0.481   8.928
   90SAPS  H16S 8748   0.845  -0.414   8.777
   90SAPS  C217 8749   0.647  -0.502   8.748
   90SAPS  H17R 8750   0.551  -0.490   8.803
   90SAPS  H17S 8751   0.682  -0.607   8.763
   90SAPS  C218 8752   0.646  -0.477   8.602
   90SAPS  H18R 8753   0.745  -0.494   8.555
   90SAPS  H18S 8754   0.618  -0.372   8.580
   90SAPS  C219 8755   0.546  -0.564   8.544
   90SAPS  H19R 8756   0.454  -0.566   8.606
   90SAPS  H19S 8757   0.574  -0.671   8.534
   90SAPS  C220 8758   0.507  -0.527   8.403
   90SAPS  H20R 8759   0.467  -0.424   8.396
   90SAPS  H20S 8760   0.426  -0.590   8.359
   90SAPS  H20T 8761   0.598  -0.517   8.340
   90SAPS   C33 8762   0.336   0.292   9.823
   90SAPS   H3X 8763   0.413   0.221   9.860
   90SAPS   H3Y 8764   0.375   0.380   9.767
   90SAPS   C34 8765   0.256   0.225   9.706
   90SAPS   H4X 8766   0.193   0.138   9.733
   90SAPS   H4Y 8767   0.332   0.184   9.636
   90SAPS   C35 8768   0.163   0.321   9.620
   90SAPS   H5X 8769   0.153   0.419   9.672
   90SAPS   H5Y 8770   0.058   0.286   9.620
   90SAPS   C36 8771   0.213   0.345   9.478
   90SAPS   H6X 8772   0.324   0.351   9.479
   90SAPS   H6Y 8773   0.172   0.442   9.439
   90SAPS   C37 8774   0.178   0.235   9.377
   90SAPS   H7X 8775   0.069   0.214   9.380
   90SAPS   H7Y 8776   0.224   0.139   9.410
   90SAPS   C38 8777   0.217   0.261   9.233
   90SAPS   H8X 8778   0.326   0.270   9.214
   90SAPS   H8Y 8779   0.159   0.354   9.216
   90SAPS   C39 8780   0.166   0.155   9.140
   90SAPS   H9X 8781   0.160   0.208   9.042
   90SAPS   H9Y 8782   0.061   0.122   9.158
   90SAPS  C310 8783   0.261   0.030   9.149
   90SAPS  H10X 8784   0.235  -0.022   9.244
   90SAPS  H10Y 8785   0.367   0.061   9.137
   90SAPS  C311 8786   0.224  -0.059   9.031
   90SAPS  H11X 8787   0.258  -0.003   8.942
   90SAPS  H11Y 8788   0.113  -0.066   9.028
   90SAPS  C312 8789   0.283  -0.201   9.032
   90SAPS  H12X 8790   0.247  -0.253   9.123
   90SAPS  H12Y 8791   0.393  -0.191   9.042
   90SAPS  C313 8792   0.244  -0.290   8.906
   90SAPS  H13X 8793   0.135  -0.310   8.901
   90SAPS  H13Y 8794   0.296  -0.388   8.915
   90SAPS  C314 8795   0.292  -0.217   8.777
   90SAPS  H14X 8796   0.403  -0.211   8.782
   90SAPS  H14Y 8797   0.243  -0.117   8.770
   90SAPS  C315 8798   0.244  -0.292   8.651
   90SAPS  H15X 8799   0.284  -0.396   8.652
   90SAPS  H15Y 8800   0.295  -0.251   8.561
   90SAPS  C316 8801   0.092  -0.276   8.623
   90SAPS  H16X 8802   0.084  -0.165   8.620
   90SAPS  H16Y 8803   0.040  -0.316   8.714
   90SAPS  C317 8804   0.043  -0.353   8.502
   90SAPS  H17X 8805   0.110  -0.326   8.418
   90SAPS  H17Y 8806  -0.061  -0.321   8.479
   90SAPS  C318 8807   0.042  -0.501   8.510
   90SAPS  H18X 8808  -0.021  -0.545   8.590
   90SAPS  H18Y 8809   0.147  -0.536   8.518
   90SAPS  H18Z 8810   0.004  -0.539   8.413
   91SAPS     N 8811   5.210   5.274   5.939
   91SAPS   HN1 8812   5.218   5.178   5.978
   91SAPS   HN2 8813   5.197   5.349   6.010
   91SAPS   HN3 8814   5.138   5.280   5.864
   91SAPS   C12 8815   5.356   5.301   5.897
   91SAPS  H12A 8816   5.384   5.238   5.814
   91SAPS   C13 8817   5.387   5.453   5.852
   91SAPS  O13A 8818   5.294   5.535   5.862
   91SAPS  O13B 8819   5.499   5.484   5.805
   91SAPS   C11 8820   5.439   5.262   6.025
   91SAPS  H11A 8821   5.404   5.317   6.115
   91SAPS  H11B 8822   5.543   5.285   5.993
   91SAPS     P 8823   5.552   5.033   6.084
   91SAPS   O13 8824   5.534   4.902   6.022
   91SAPS   O14 8825   5.672   5.104   6.061
   91SAPS   O12 8826   5.429   5.124   6.042
   91SAPS   O11 8827   5.517   5.027   6.238
   91SAPS    C1 8828   5.616   5.006   6.341
   91SAPS    HA 8829   5.604   4.900   6.374
   91SAPS    HB 8830   5.718   5.022   6.302
   91SAPS    C2 8831   5.579   5.095   6.460
   91SAPS    HS 8832   5.666   5.091   6.528
   91SAPS   O21 8833   5.454   5.055   6.528
   91SAPS   C21 8834   5.468   4.975   6.633
   91SAPS   O22 8835   5.568   4.918   6.668
   91SAPS   C22 8836   5.334   4.960   6.707
   91SAPS   H2R 8837   5.252   4.991   6.639
   91SAPS   H2S 8838   5.318   4.851   6.722
   91SAPS    C3 8839   5.558   5.241   6.416
   91SAPS    HX 8840   5.464   5.258   6.360
   91SAPS    HY 8841   5.641   5.261   6.345
   91SAPS   O31 8842   5.575   5.336   6.529
   91SAPS   C31 8843   5.465   5.369   6.594
   91SAPS   O32 8844   5.348   5.341   6.560
   91SAPS   C32 8845   5.515   5.424   6.728
   91SAPS   H2X 8846   5.571   5.519   6.714
   91SAPS   H2Y 8847   5.588   5.349   6.767
   91SAPS   C23 8848   5.357   5.023   6.844
   91SAPS   H3R 8849   5.406   5.122   6.836
   91SAPS   H3S 8850   5.432   4.960   6.896
   91SAPS   C24 8851   5.228   5.038   6.931
   91SAPS   H4R 8852   5.165   5.111   6.875
   91SAPS   H4S 8853   5.258   5.097   7.021
   91SAPS   C25 8854   5.154   4.912   6.959
   91SAPS   H5R 8855   5.064   4.907   6.897
   91SAPS   C26 8856   5.186   4.812   7.043
   91SAPS   H6R 8857   5.146   4.712   7.016
   91SAPS   C27 8858   5.308   4.817   7.138
   91SAPS   H7R 8859   5.288   4.893   7.217
   91SAPS   H7S 8860   5.394   4.859   7.082
   91SAPS   C28 8861   5.351   4.680   7.190
   91SAPS   H8R 8862   5.300   4.591   7.150
   91SAPS   C29 8863   5.449   4.658   7.287
   91SAPS   H9R 8864   5.490   4.557   7.295
   91SAPS  C210 8865   5.525   4.758   7.362
   91SAPS  H10R 8866   5.458   4.805   7.437
   91SAPS  H10S 8867   5.556   4.841   7.295
   91SAPS  C211 8868   5.647   4.709   7.422
   91SAPS  H11R 8869   5.733   4.708   7.354
   91SAPS  C212 8870   5.656   4.665   7.550
   91SAPS  H12R 8871   5.756   4.636   7.584
   91SAPS  C213 8872   5.544   4.651   7.652
   91SAPS  H13R 8873   5.484   4.557   7.644
   91SAPS  H13S 8874   5.470   4.732   7.638
   91SAPS  C214 8875   5.601   4.675   7.788
   91SAPS  H14R 8876   5.626   4.779   7.813
   91SAPS  C215 8877   5.630   4.587   7.886
   91SAPS  H15R 8878   5.666   4.637   7.977
   91SAPS  C216 8879   5.597   4.443   7.882
   91SAPS  H16R 8880   5.682   4.379   7.916
   91SAPS  H16S 8881   5.580   4.403   7.780
   91SAPS  C217 8882   5.477   4.388   7.962
   91SAPS  H17R 8883   5.459   4.282   7.933
   91SAPS  H17S 8884   5.383   4.443   7.937
   91SAPS  C218 8885   5.500   4.414   8.113
   91SAPS  H18R 8886   5.495   4.525   8.115
   91SAPS  H18S 8887   5.600   4.379   8.148
   91SAPS  C219 8888   5.405   4.345   8.207
   91SAPS  H19R 8889   5.399   4.236   8.186
   91SAPS  H19S 8890   5.304   4.387   8.189
   91SAPS  C220 8891   5.429   4.352   8.353
   91SAPS  H20R 8892   5.528   4.311   8.380
   91SAPS  H20S 8893   5.353   4.291   8.406
   91SAPS  H20T 8894   5.439   4.457   8.390
   91SAPS   C33 8895   5.404   5.444   6.829
   91SAPS   H3X 8896   5.350   5.349   6.849
   91SAPS   H3Y 8897   5.336   5.526   6.799
   91SAPS   C34 8898   5.467   5.470   6.974
   91SAPS   H4X 8899   5.406   5.537   7.038
   91SAPS   H4Y 8900   5.555   5.535   6.954
   91SAPS   C35 8901   5.504   5.352   7.059
   91SAPS   H5X 8902   5.554   5.289   6.982
   91SAPS   H5Y 8903   5.421   5.299   7.111
   91SAPS   C36 8904   5.614   5.374   7.159
   91SAPS   H6X 8905   5.669   5.466   7.129
   91SAPS   H6Y 8906   5.686   5.291   7.174
   91SAPS   C37 8907   5.548   5.395   7.292
   91SAPS   H7X 8908   5.505   5.302   7.335
   91SAPS   H7Y 8909   5.466   5.469   7.288
   91SAPS   C38 8910   5.651   5.444   7.400
   91SAPS   H8X 8911   5.735   5.371   7.400
   91SAPS   H8Y 8912   5.600   5.434   7.499
   91SAPS   C39 8913   5.715   5.585   7.380
   91SAPS   H9X 8914   5.630   5.649   7.348
   91SAPS   H9Y 8915   5.790   5.575   7.298
   91SAPS  C310 8916   5.808   5.626   7.501
   91SAPS  H10X 8917   5.811   5.736   7.489
   91SAPS  H10Y 8918   5.904   5.571   7.497
   91SAPS  C311 8919   5.743   5.600   7.635
   91SAPS  H11X 8920   5.726   5.491   7.647
   91SAPS  H11Y 8921   5.646   5.651   7.658
   91SAPS  C312 8922   5.835   5.631   7.754
   91SAPS  H12X 8923   5.865   5.737   7.744
   91SAPS  H12Y 8924   5.920   5.561   7.741
   91SAPS  C313 8925   5.763   5.622   7.892
   91SAPS  H13X 8926   5.724   5.520   7.907
   91SAPS  H13Y 8927   5.669   5.681   7.891
   91SAPS  C314 8928   5.850   5.648   8.017
   91SAPS  H14X 8929   5.865   5.755   8.041
   91SAPS  H14Y 8930   5.952   5.606   8.008
   91SAPS  C315 8931   5.786   5.569   8.138
   91SAPS  H15X 8932   5.795   5.461   8.114
   91SAPS  H15Y 8933   5.680   5.599   8.143
   91SAPS  C316 8934   5.854   5.618   8.270
   91SAPS  H16X 8935   5.827   5.725   8.282
   91SAPS  H16Y 8936   5.964   5.610   8.251
   91SAPS  C317 8937   5.815   5.527   8.387
   91SAPS  H17X 8938   5.828   5.419   8.365
   91SAPS  H17Y 8939   5.705   5.543   8.383
   91SAPS  C318 8940   5.871   5.569   8.523
   91SAPS  H18X 8941   5.976   5.533   8.531
   91SAPS  H18Y 8942   5.815   5.520   8.606
   91SAPS  H18Z 8943   5.859   5.678   8.541
   92SAPS     N 8944   5.078   2.790   6.138
   92SAPS   HN1 8945   5.165   2.783   6.081
   92SAPS   HN2 8946   5.087   2.720   6.215
   92SAPS   HN3 8947   5.003   2.765   6.071
   92SAPS   C12 8948   5.039   2.928   6.181
   92SAPS  H12A 8949   5.130   2.973   6.217
   92SAPS   C13 8950   4.978   3.020   6.076
   92SAPS  O13A 8951   4.937   2.975   5.964
   92SAPS  O13B 8952   4.966   3.141   6.105
   92SAPS   C11 8953   4.942   2.907   6.298
   92SAPS  H11A 8954   4.849   2.865   6.254
   92SAPS  H11B 8955   4.919   3.007   6.340
   92SAPS     P 8956   4.896   2.761   6.509
   92SAPS   O13 8957   4.786   2.689   6.448
   92SAPS   O14 8958   4.978   2.687   6.608
   92SAPS   O12 8959   4.995   2.813   6.400
   92SAPS   O11 8960   4.832   2.883   6.583
   92SAPS    C1 8961   4.902   2.966   6.671
   92SAPS    HA 8962   5.009   2.967   6.639
   92SAPS    HB 8963   4.864   3.070   6.667
   92SAPS    C2 8964   4.894   2.923   6.821
   92SAPS    HS 8965   4.932   2.819   6.826
   92SAPS   O21 8966   4.762   2.942   6.864
   92SAPS   C21 8967   4.685   2.832   6.860
   92SAPS   O22 8968   4.715   2.722   6.815
   92SAPS   C22 8969   4.561   2.858   6.935
   92SAPS   H2R 8970   4.590   2.928   7.016
   92SAPS   H2S 8971   4.481   2.904   6.872
   92SAPS    C3 8972   4.984   3.006   6.906
   92SAPS    HX 8973   4.964   2.971   7.010
   92SAPS    HY 8974   4.960   3.113   6.888
   92SAPS   O31 8975   5.122   2.990   6.863
   92SAPS   C31 8976   5.191   2.910   6.922
   92SAPS   O32 8977   5.149   2.832   7.010
   92SAPS   C32 8978   5.340   2.912   6.876
   92SAPS   H2X 8979   5.352   2.987   6.795
   92SAPS   H2Y 8980   5.348   2.810   6.832
   92SAPS   C23 8981   4.504   2.725   7.012
   92SAPS   H3R 8982   4.587   2.683   7.072
   92SAPS   H3S 8983   4.489   2.645   6.937
   92SAPS   C24 8984   4.383   2.754   7.104
   92SAPS   H4R 8985   4.401   2.837   7.176
   92SAPS   H4S 8986   4.363   2.660   7.160
   92SAPS   C25 8987   4.244   2.772   7.030
   92SAPS   H5R 8988   4.240   2.700   6.947
   92SAPS   C26 8989   4.145   2.863   7.045
   92SAPS   H6R 8990   4.050   2.857   6.990
   92SAPS   C27 8991   4.140   2.962   7.158
   92SAPS   H7R 8992   4.051   3.028   7.143
   92SAPS   H7S 8993   4.229   3.022   7.131
   92SAPS   C28 8994   4.152   2.910   7.304
   92SAPS   H8R 8995   4.085   2.827   7.334
   92SAPS   C29 8996   4.247   2.943   7.394
   92SAPS   H9R 8997   4.241   2.892   7.491
   92SAPS  C210 8998   4.351   3.052   7.388
   92SAPS  H10R 8999   4.323   3.118   7.303
   92SAPS  H10S 9000   4.452   3.014   7.362
   92SAPS  C211 9001   4.366   3.136   7.507
   92SAPS  H11R 9002   4.292   3.217   7.515
   92SAPS  C212 9003   4.461   3.117   7.602
   92SAPS  H12R 9004   4.476   3.194   7.679
   92SAPS  C213 9005   4.565   3.011   7.606
   92SAPS  H13R 9006   4.593   2.999   7.499
   92SAPS  H13S 9007   4.520   2.913   7.632
   92SAPS  C214 9008   4.692   3.039   7.687
   92SAPS  H14R 9009   4.745   3.129   7.653
   92SAPS  C215 9010   4.749   2.961   7.782
   92SAPS  H15R 9011   4.852   2.975   7.818
   92SAPS  C216 9012   4.689   2.836   7.847
   92SAPS  H16R 9013   4.749   2.751   7.808
   92SAPS  H16S 9014   4.587   2.806   7.815
   92SAPS  C217 9015   4.698   2.855   7.998
   92SAPS  H17R 9016   4.640   2.947   8.020
   92SAPS  H17S 9017   4.801   2.859   8.038
   92SAPS  C218 9018   4.625   2.738   8.074
   92SAPS  H18R 9019   4.679   2.642   8.055
   92SAPS  H18S 9020   4.527   2.728   8.023
   92SAPS  C219 9021   4.615   2.771   8.219
   92SAPS  H19R 9022   4.570   2.872   8.224
   92SAPS  H19S 9023   4.715   2.800   8.258
   92SAPS  C220 9024   4.551   2.664   8.299
   92SAPS  H20R 9025   4.467   2.613   8.246
   92SAPS  H20S 9026   4.517   2.706   8.396
   92SAPS  H20T 9027   4.626   2.595   8.343
   92SAPS   C33 9028   5.443   2.937   6.986
   92SAPS   H3X 9029   5.445   3.047   7.002
   92SAPS   H3Y 9030   5.540   2.896   6.950
   92SAPS   C34 9031   5.403   2.860   7.116
   92SAPS   H4X 9032   5.388   2.752   7.097
   92SAPS   H4Y 9033   5.312   2.910   7.155
   92SAPS   C35 9034   5.512   2.858   7.219
   92SAPS   H5X 9035   5.527   2.951   7.278
   92SAPS   H5Y 9036   5.605   2.828   7.166
   92SAPS   C36 9037   5.476   2.753   7.324
   92SAPS   H6X 9038   5.475   2.652   7.277
   92SAPS   H6Y 9039   5.372   2.768   7.360
   92SAPS   C37 9040   5.564   2.747   7.445
   92SAPS   H7X 9041   5.558   2.844   7.500
   92SAPS   H7Y 9042   5.667   2.722   7.412
   92SAPS   C38 9043   5.509   2.634   7.532
   92SAPS   H8X 9044   5.510   2.535   7.483
   92SAPS   H8Y 9045   5.403   2.661   7.552
   92SAPS   C39 9046   5.598   2.639   7.654
   92SAPS   H9X 9047   5.593   2.740   7.700
   92SAPS   H9Y 9048   5.704   2.615   7.633
   92SAPS  C310 9049   5.556   2.529   7.756
   92SAPS  H10X 9050   5.614   2.435   7.744
   92SAPS  H10Y 9051   5.445   2.523   7.749
   92SAPS  C311 9052   5.590   2.558   7.910
   92SAPS  H11X 9053   5.577   2.667   7.926
   92SAPS  H11Y 9054   5.697   2.534   7.928
   92SAPS  C312 9055   5.511   2.483   8.014
   92SAPS  H12X 9056   5.402   2.495   7.997
   92SAPS  H12Y 9057   5.540   2.539   8.105
   92SAPS  C313 9058   5.554   2.331   8.034
   92SAPS  H13X 9059   5.654   2.344   8.081
   92SAPS  H13Y 9060   5.574   2.272   7.942
   92SAPS  C314 9061   5.459   2.250   8.126
   92SAPS  H14X 9062   5.376   2.231   8.055
   92SAPS  H14Y 9063   5.422   2.314   8.209
   92SAPS  C315 9064   5.507   2.116   8.174
   92SAPS  H15X 9065   5.545   2.052   8.092
   92SAPS  H15Y 9066   5.425   2.059   8.224
   92SAPS  C316 9067   5.613   2.127   8.279
   92SAPS  H16X 9068   5.574   2.193   8.359
   92SAPS  H16Y 9069   5.704   2.177   8.241
   92SAPS  C317 9070   5.648   1.984   8.344
   92SAPS  H17X 9071   5.690   1.929   8.256
   92SAPS  H17Y 9072   5.562   1.920   8.374
   92SAPS  C318 9073   5.754   2.003   8.450
   92SAPS  H18X 9074   5.836   2.066   8.410
   92SAPS  H18Y 9075   5.784   1.907   8.498
   92SAPS  H18Z 9076   5.707   2.069   8.527
   93SAPS     N 9077   5.607   3.346   6.422
   93SAPS   HN1 9078   5.598   3.449   6.423
   93SAPS   HN2 9079   5.515   3.308   6.394
   93SAPS   HN3 9080   5.624   3.315   6.520
   93SAPS   C12 9081   5.710   3.304   6.317
   93SAPS  H12A 9082   5.700   3.196   6.317
   93SAPS   C13 9083   5.693   3.346   6.172
   93SAPS  O13A 9084   5.589   3.419   6.152
   93SAPS  O13B 9085   5.778   3.313   6.086
   93SAPS   C11 9086   5.840   3.356   6.381
   93SAPS  H11A 9087   5.846   3.465   6.359
   93SAPS  H11B 9088   5.910   3.296   6.318
   93SAPS     P 9089   6.011   3.381   6.578
   93SAPS   O13 9090   6.118   3.293   6.535
   93SAPS   O14 9091   6.021   3.530   6.554
   93SAPS   O12 9092   5.868   3.326   6.520
   93SAPS   O11 9093   5.989   3.362   6.731
   93SAPS    C1 9094   5.936   3.245   6.789
   93SAPS    HA 9095   5.913   3.161   6.721
   93SAPS    HB 9096   5.998   3.204   6.872
   93SAPS    C2 9097   5.798   3.280   6.844
   93SAPS    HS 9098   5.739   3.330   6.765
   93SAPS   O21 9099   5.813   3.365   6.958
   93SAPS   C21 9100   5.705   3.437   6.989
   93SAPS   O22 9101   5.599   3.428   6.931
   93SAPS   C22 9102   5.732   3.511   7.120
   93SAPS   H2R 9103   5.627   3.539   7.142
   93SAPS   H2S 9104   5.757   3.440   7.201
   93SAPS    C3 9105   5.722   3.148   6.879
   93SAPS    HX 9106   5.703   3.096   6.782
   93SAPS    HY 9107   5.623   3.170   6.923
   93SAPS   O31 9108   5.800   3.057   6.954
   93SAPS   C31 9109   5.796   3.074   7.086
   93SAPS   O32 9110   5.735   3.161   7.144
   93SAPS   C32 9111   5.903   2.989   7.148
   93SAPS   H2X 9112   5.997   3.049   7.144
   93SAPS   H2Y 9113   5.909   2.892   7.094
   93SAPS   C23 9114   5.818   3.640   7.114
   93SAPS   H3R 9115   5.797   3.693   7.019
   93SAPS   H3S 9116   5.921   3.599   7.105
   93SAPS   C24 9117   5.795   3.740   7.227
   93SAPS   H4R 9118   5.689   3.751   7.259
   93SAPS   H4S 9119   5.838   3.834   7.185
   93SAPS   C25 9120   5.886   3.702   7.342
   93SAPS   H5R 9121   5.984   3.665   7.310
   93SAPS   C26 9122   5.857   3.715   7.478
   93SAPS   H6R 9123   5.926   3.665   7.548
   93SAPS   C27 9124   5.734   3.788   7.532
   93SAPS   H7R 9125   5.681   3.853   7.459
   93SAPS   H7S 9126   5.769   3.853   7.616
   93SAPS   C28 9127   5.636   3.671   7.567
   93SAPS   H8R 9128   5.582   3.622   7.485
   93SAPS   C29 9129   5.613   3.634   7.691
   93SAPS   H9R 9130   5.547   3.550   7.716
   93SAPS  C210 9131   5.677   3.688   7.814
   93SAPS  H10R 9132   5.621   3.769   7.865
   93SAPS  H10S 9133   5.766   3.750   7.789
   93SAPS  C211 9134   5.709   3.577   7.908
   93SAPS  H11R 9135   5.808   3.530   7.900
   93SAPS  C212 9136   5.628   3.535   8.014
   93SAPS  H12R 9137   5.659   3.444   8.068
   93SAPS  C213 9138   5.494   3.603   8.045
   93SAPS  H13R 9139   5.485   3.693   7.981
   93SAPS  H13S 9140   5.502   3.645   8.148
   93SAPS  C214 9141   5.384   3.508   8.018
   93SAPS  H14R 9142   5.340   3.520   7.918
   93SAPS  C215 9143   5.338   3.398   8.090
   93SAPS  H15R 9144   5.247   3.342   8.061
   93SAPS  C216 9145   5.386   3.349   8.228
   93SAPS  H16R 9146   5.484   3.397   8.250
   93SAPS  H16S 9147   5.396   3.239   8.213
   93SAPS  C217 9148   5.299   3.365   8.353
   93SAPS  H17R 9149   5.367   3.321   8.428
   93SAPS  H17S 9150   5.203   3.311   8.340
   93SAPS  C218 9151   5.261   3.508   8.407
   93SAPS  H18R 9152   5.204   3.561   8.328
   93SAPS  H18S 9153   5.338   3.583   8.434
   93SAPS  C219 9154   5.171   3.492   8.530
   93SAPS  H19R 9155   5.218   3.430   8.609
   93SAPS  H19S 9156   5.084   3.428   8.501
   93SAPS  C220 9157   5.110   3.620   8.582
   93SAPS  H20R 9158   5.178   3.706   8.561
   93SAPS  H20S 9159   5.094   3.623   8.692
   93SAPS  H20T 9160   5.013   3.639   8.532
   93SAPS   C33 9161   5.865   2.948   7.296
   93SAPS   H3X 9162   5.808   2.853   7.299
   93SAPS   H3Y 9163   5.794   3.021   7.341
   93SAPS   C34 9164   5.983   2.915   7.379
   93SAPS   H4X 9165   6.051   3.003   7.382
   93SAPS   H4Y 9166   6.041   2.831   7.335
   93SAPS   C35 9167   5.936   2.872   7.521
   93SAPS   H5X 9168   5.834   2.829   7.512
   93SAPS   H5Y 9169   5.929   2.954   7.595
   93SAPS   C36 9170   6.020   2.757   7.563
   93SAPS   H6X 9171   6.124   2.795   7.548
   93SAPS   H6Y 9172   6.013   2.678   7.485
   93SAPS   C37 9173   5.994   2.679   7.694
   93SAPS   H7X 9174   6.074   2.602   7.689
   93SAPS   H7Y 9175   5.893   2.630   7.696
   93SAPS   C38 9176   6.024   2.754   7.830
   93SAPS   H8X 9177   5.942   2.828   7.843
   93SAPS   H8Y 9178   6.121   2.801   7.806
   93SAPS   C39 9179   6.027   2.662   7.951
   93SAPS   H9X 9180   6.099   2.579   7.933
   93SAPS   H9Y 9181   5.931   2.607   7.955
   93SAPS  C310 9182   6.045   2.728   8.092
   93SAPS  H10X 9183   5.962   2.801   8.101
   93SAPS  H10Y 9184   6.138   2.787   8.081
   93SAPS  C311 9185   6.042   2.632   8.211
   93SAPS  H11X 9186   6.079   2.688   8.300
   93SAPS  H11Y 9187   6.120   2.553   8.206
   93SAPS  C312 9188   5.898   2.570   8.217
   93SAPS  H12X 9189   5.892   2.465   8.181
   93SAPS  H12Y 9190   5.836   2.644   8.160
   93SAPS  C313 9191   5.847   2.567   8.363
   93SAPS  H13X 9192   5.740   2.538   8.371
   93SAPS  H13Y 9193   5.846   2.669   8.408
   93SAPS  C314 9194   5.952   2.487   8.458
   93SAPS  H14X 9195   6.049   2.541   8.458
   93SAPS  H14Y 9196   5.967   2.382   8.423
   93SAPS  C315 9197   5.899   2.475   8.596
   93SAPS  H15X 9198   5.946   2.388   8.648
   93SAPS  H15Y 9199   5.792   2.461   8.569
   93SAPS  C316 9200   5.929   2.611   8.665
   93SAPS  H16X 9201   5.959   2.685   8.587
   93SAPS  H16Y 9202   6.010   2.609   8.741
   93SAPS  C317 9203   5.802   2.664   8.740
   93SAPS  H17X 9204   5.787   2.610   8.836
   93SAPS  H17Y 9205   5.712   2.637   8.680
   93SAPS  C318 9206   5.819   2.817   8.749
   93SAPS  H18X 9207   5.831   2.848   8.644
   93SAPS  H18Y 9208   5.904   2.846   8.814
   93SAPS  H18Z 9209   5.728   2.868   8.788
   94SAPS     N 9210   6.185   5.408   5.695
   94SAPS   HN1 9211   6.229   5.317   5.719
   94SAPS   HN2 9212   6.099   5.382   5.643
   94SAPS   HN3 9213   6.255   5.464   5.644
   94SAPS   C12 9214   6.170   5.481   5.828
   94SAPS  H12A 9215   6.094   5.428   5.884
   94SAPS   C13 9216   6.302   5.490   5.920
   94SAPS  O13A 9217   6.419   5.476   5.874
   94SAPS  O13B 9218   6.295   5.540   6.032
   94SAPS   C11 9219   6.117   5.623   5.804
   94SAPS  H11A 9220   6.188   5.675   5.735
   94SAPS  H11B 9221   6.103   5.681   5.898
   94SAPS     P 9222   5.849   5.619   5.802
   94SAPS   O13 9223   5.747   5.701   5.737
   94SAPS   O14 9224   5.826   5.475   5.819
   94SAPS   O12 9225   5.991   5.640   5.735
   94SAPS   O11 9226   5.876   5.679   5.945
   94SAPS    C1 9227   5.917   5.600   6.059
   94SAPS    HA 9228   5.932   5.493   6.030
   94SAPS    HB 9229   6.011   5.639   6.104
   94SAPS    C2 9230   5.808   5.600   6.167
   94SAPS    HS 9231   5.777   5.706   6.182
   94SAPS   O21 9232   5.868   5.551   6.292
   94SAPS   C21 9233   5.921   5.643   6.374
   94SAPS   O22 9234   5.901   5.763   6.361
   94SAPS   C22 9235   5.982   5.577   6.494
   94SAPS   H2R 9236   6.044   5.488   6.469
   94SAPS   H2S 9237   6.057   5.637   6.549
   94SAPS    C3 9238   5.683   5.514   6.140
   94SAPS    HX 9239   5.701   5.404   6.137
   94SAPS    HY 9240   5.639   5.529   6.039
   94SAPS   O31 9241   5.578   5.532   6.251
   94SAPS   C31 9242   5.520   5.646   6.237
   94SAPS   O32 9243   5.538   5.726   6.149
   94SAPS   C32 9244   5.420   5.672   6.357
   94SAPS   H2X 9245   5.370   5.576   6.382
   94SAPS   H2Y 9246   5.345   5.746   6.324
   94SAPS   C23 9247   5.878   5.539   6.598
   94SAPS   H3R 9248   5.894   5.430   6.613
   94SAPS   H3S 9249   5.775   5.555   6.560
   94SAPS   C24 9250   5.890   5.609   6.737
   94SAPS   H4R 9251   5.998   5.606   6.761
   94SAPS   H4S 9252   5.821   5.558   6.808
   94SAPS   C25 9253   5.846   5.755   6.728
   94SAPS   H5R 9254   5.821   5.802   6.632
   94SAPS   C26 9255   5.837   5.826   6.843
   94SAPS   H6R 9256   5.796   5.928   6.833
   94SAPS   C27 9257   5.890   5.788   6.981
   94SAPS   H7R 9258   5.988   5.840   6.982
   94SAPS   H7S 9259   5.917   5.680   6.989
   94SAPS   C28 9260   5.801   5.819   7.096
   94SAPS   H8R 9261   5.700   5.773   7.098
   94SAPS   C29 9262   5.848   5.873   7.211
   94SAPS   H9R 9263   5.783   5.907   7.293
   94SAPS  C210 9264   5.984   5.938   7.230
   94SAPS  H10R 9265   5.999   6.010   7.146
   94SAPS  H10S 9266   6.065   5.864   7.213
   94SAPS  C211 9267   6.010   6.003   7.368
   94SAPS  H11R 9268   5.978   6.108   7.375
   94SAPS  C212 9269   6.056   5.944   7.481
   94SAPS  H12R 9270   6.045   6.009   7.568
   94SAPS  C213 9271   6.110   5.799   7.508
   94SAPS  H13R 9272   6.088   5.740   7.416
   94SAPS  H13S 9273   6.054   5.754   7.592
   94SAPS  C214 9274   6.259   5.786   7.537
   94SAPS  H14R 9275   6.322   5.804   7.449
   94SAPS  C215 9276   6.317   5.769   7.657
   94SAPS  H15R 9277   6.426   5.761   7.669
   94SAPS  C216 9278   6.244   5.747   7.783
   94SAPS  H16R 9279   6.298   5.671   7.845
   94SAPS  H16S 9280   6.141   5.709   7.769
   94SAPS  C217 9281   6.237   5.865   7.874
   94SAPS  H17R 9282   6.337   5.895   7.913
   94SAPS  H17S 9283   6.173   5.827   7.956
   94SAPS  C218 9284   6.162   5.987   7.820
   94SAPS  H18R 9285   6.057   5.966   7.790
   94SAPS  H18S 9286   6.215   6.034   7.734
   94SAPS  C219 9287   6.152   6.104   7.923
   94SAPS  H19R 9288   6.254   6.109   7.967
   94SAPS  H19S 9289   6.084   6.066   8.002
   94SAPS  C220 9290   6.100   6.237   7.864
   94SAPS  H20R 9291   5.993   6.241   7.832
   94SAPS  H20S 9292   6.175   6.261   7.786
   94SAPS  H20T 9293   6.115   6.310   7.946
   94SAPS   C33 9294   5.483   5.726   6.489
   94SAPS   H3X 9295   5.551   5.810   6.464
   94SAPS   H3Y 9296   5.543   5.642   6.530
   94SAPS   C34 9297   5.375   5.761   6.598
   94SAPS   H4X 9298   5.327   5.672   6.642
   94SAPS   H4Y 9299   5.293   5.819   6.550
   94SAPS   C35 9300   5.429   5.854   6.711
   94SAPS   H5X 9301   5.469   5.943   6.659
   94SAPS   H5Y 9302   5.519   5.794   6.738
   94SAPS   C36 9303   5.323   5.888   6.820
   94SAPS   H6X 9304   5.291   5.791   6.863
   94SAPS   H6Y 9305   5.245   5.959   6.784
   94SAPS   C37 9306   5.403   5.955   6.944
   94SAPS   H7X 9307   5.400   6.059   6.905
   94SAPS   H7Y 9308   5.510   5.927   6.944
   94SAPS   C38 9309   5.341   5.952   7.086
   94SAPS   H8X 9310   5.231   5.962   7.070
   94SAPS   H8Y 9311   5.377   6.040   7.144
   94SAPS   C39 9312   5.377   5.824   7.161
   94SAPS   H9X 9313   5.481   5.828   7.201
   94SAPS   H9Y 9314   5.363   5.734   7.097
   94SAPS  C310 9315   5.286   5.806   7.283
   94SAPS  H10X 9316   5.308   5.704   7.322
   94SAPS  H10Y 9317   5.183   5.817   7.245
   94SAPS  C311 9318   5.326   5.899   7.383
   94SAPS  H11X 9319   5.332   6.001   7.339
   94SAPS  H11Y 9320   5.423   5.875   7.431
   94SAPS  C312 9321   5.234   5.893   7.508
   94SAPS  H12X 9322   5.230   5.791   7.552
   94SAPS  H12Y 9323   5.131   5.920   7.478
   94SAPS  C313 9324   5.280   6.003   7.615
   94SAPS  H13X 9325   5.385   5.972   7.635
   94SAPS  H13Y 9326   5.225   6.007   7.711
   94SAPS  C314 9327   5.268   6.145   7.562
   94SAPS  H14X 9328   5.162   6.149   7.530
   94SAPS  H14Y 9329   5.321   6.160   7.465
   94SAPS  C315 9330   5.315   6.265   7.649
   94SAPS  H15X 9331   5.410   6.238   7.699
   94SAPS  H15Y 9332   5.247   6.286   7.734
   94SAPS  C316 9333   5.333   6.390   7.565
   94SAPS  H16X 9334   5.376   6.363   7.466
   94SAPS  H16Y 9335   5.394   6.464   7.623
   94SAPS  C317 9336   5.196   6.449   7.517
   94SAPS  H17X 9337   5.150   6.385   7.439
   94SAPS  H17Y 9338   5.206   6.545   7.463
   94SAPS  C318 9339   5.106   6.482   7.632
   94SAPS  H18X 9340   5.024   6.546   7.591
   94SAPS  H18Y 9341   5.163   6.548   7.701
   94SAPS  H18Z 9342   5.071   6.394   7.690
   95SAPS     N 9343   2.335   3.544   5.980
   95SAPS   HN1 9344   2.261   3.607   5.943
   95SAPS   HN2 9345   2.320   3.535   6.082
   95SAPS   HN3 9346   2.425   3.597   5.978
   95SAPS   C12 9347   2.329   3.404   5.916
   95SAPS  H12A 9348   2.229   3.365   5.934
   95SAPS   C13 9349   2.371   3.400   5.769
   95SAPS  O13A 9350   2.409   3.500   5.703
   95SAPS  O13B 9351   2.371   3.292   5.707
   95SAPS   C11 9352   2.442   3.323   5.991
   95SAPS  H11A 9353   2.545   3.354   5.965
   95SAPS  H11B 9354   2.432   3.219   5.955
   95SAPS     P 9355   2.509   3.268   6.232
   95SAPS   O13 9356   2.514   3.123   6.214
   95SAPS   O14 9357   2.640   3.331   6.237
   95SAPS   O12 9358   2.413   3.337   6.132
   95SAPS   O11 9359   2.438   3.294   6.366
   95SAPS    C1 9360   2.295   3.302   6.383
   95SAPS    HA 9361   2.258   3.371   6.304
   95SAPS    HB 9362   2.250   3.202   6.369
   95SAPS    C2 9363   2.248   3.349   6.523
   95SAPS    HS 9364   2.302   3.445   6.539
   95SAPS   O21 9365   2.275   3.247   6.629
   95SAPS   C21 9366   2.308   3.297   6.748
   95SAPS   O22 9367   2.335   3.416   6.770
   95SAPS   C22 9368   2.302   3.190   6.849
   95SAPS   H2R 9369   2.210   3.211   6.908
   95SAPS   H2S 9370   2.295   3.092   6.798
   95SAPS    C3 9371   2.098   3.369   6.525
   95SAPS    HX 9372   2.054   3.277   6.481
   95SAPS    HY 9373   2.078   3.438   6.440
   95SAPS   O31 9374   2.049   3.408   6.651
   95SAPS   C31 9375   1.928   3.461   6.636
   95SAPS   O32 9376   1.860   3.460   6.535
   95SAPS   C32 9377   1.887   3.505   6.768
   95SAPS   H2X 9378   1.940   3.599   6.796
   95SAPS   H2Y 9379   1.914   3.427   6.843
   95SAPS   C23 9380   2.433   3.184   6.935
   95SAPS   H3R 9381   2.441   3.278   6.992
   95SAPS   H3S 9382   2.515   3.164   6.863
   95SAPS   C24 9383   2.432   3.069   7.038
   95SAPS   H4R 9384   2.408   2.982   6.972
   95SAPS   H4S 9385   2.339   3.063   7.099
   95SAPS   C25 9386   2.565   3.070   7.108
   95SAPS   H5R 9387   2.656   3.048   7.050
   95SAPS   C26 9388   2.589   3.115   7.237
   95SAPS   H6R 9389   2.689   3.086   7.271
   95SAPS   C27 9390   2.492   3.149   7.347
   95SAPS   H7R 9391   2.405   3.204   7.307
   95SAPS   H7S 9392   2.534   3.230   7.411
   95SAPS   C28 9393   2.441   3.037   7.430
   95SAPS   H8R 9394   2.434   2.936   7.386
   95SAPS   C29 9395   2.407   3.036   7.557
   95SAPS   H9R 9396   2.364   2.944   7.599
   95SAPS  C210 9397   2.425   3.156   7.649
   95SAPS  H10R 9398   2.324   3.188   7.682
   95SAPS  H10S 9399   2.472   3.247   7.606
   95SAPS  C211 9400   2.506   3.110   7.765
   95SAPS  H11R 9401   2.588   3.039   7.745
   95SAPS  C212 9402   2.493   3.140   7.895
   95SAPS  H12R 9403   2.559   3.098   7.972
   95SAPS  C213 9404   2.410   3.240   7.973
   95SAPS  H13R 9405   2.330   3.286   7.910
   95SAPS  H13S 9406   2.477   3.322   8.006
   95SAPS  C214 9407   2.350   3.179   8.100
   95SAPS  H14R 9408   2.265   3.110   8.089
   95SAPS  C215 9409   2.402   3.193   8.227
   95SAPS  H15R 9410   2.366   3.132   8.311
   95SAPS  C216 9411   2.508   3.295   8.270
   95SAPS  H16R 9412   2.491   3.387   8.210
   95SAPS  H16S 9413   2.613   3.264   8.250
   95SAPS  C217 9414   2.505   3.332   8.421
   95SAPS  H17R 9415   2.589   3.400   8.446
   95SAPS  H17S 9416   2.528   3.238   8.476
   95SAPS  C218 9417   2.380   3.401   8.467
   95SAPS  H18R 9418   2.289   3.344   8.438
   95SAPS  H18S 9419   2.379   3.500   8.417
   95SAPS  C219 9420   2.389   3.449   8.616
   95SAPS  H19R 9421   2.485   3.501   8.637
   95SAPS  H19S 9422   2.399   3.352   8.669
   95SAPS  C220 9423   2.264   3.533   8.662
   95SAPS  H20R 9424   2.271   3.565   8.768
   95SAPS  H20S 9425   2.173   3.476   8.636
   95SAPS  H20T 9426   2.259   3.631   8.610
   95SAPS   C33 9427   1.731   3.522   6.783
   95SAPS   H3X 9428   1.686   3.543   6.684
   95SAPS   H3Y 9429   1.713   3.613   6.844
   95SAPS   C34 9430   1.662   3.393   6.832
   95SAPS   H4X 9431   1.712   3.304   6.787
   95SAPS   H4Y 9432   1.555   3.402   6.800
   95SAPS   C35 9433   1.662   3.387   6.978
   95SAPS   H5X 9434   1.641   3.485   7.025
   95SAPS   H5Y 9435   1.765   3.370   7.017
   95SAPS   C36 9436   1.557   3.286   7.040
   95SAPS   H6X 9437   1.562   3.192   6.981
   95SAPS   H6Y 9438   1.454   3.326   7.026
   95SAPS   C37 9439   1.580   3.252   7.192
   95SAPS   H7X 9440   1.572   3.343   7.255
   95SAPS   H7Y 9441   1.686   3.219   7.206
   95SAPS   C38 9442   1.476   3.153   7.243
   95SAPS   H8X 9443   1.480   3.054   7.192
   95SAPS   H8Y 9444   1.378   3.193   7.210
   95SAPS   C39 9445   1.477   3.131   7.398
   95SAPS   H9X 9446   1.575   3.093   7.433
   95SAPS   H9Y 9447   1.400   3.059   7.432
   95SAPS  C310 9448   1.441   3.264   7.473
   95SAPS  H10X 9449   1.356   3.310   7.418
   95SAPS  H10Y 9450   1.528   3.333   7.472
   95SAPS  C311 9451   1.405   3.234   7.615
   95SAPS  H11X 9452   1.491   3.180   7.659
   95SAPS  H11Y 9453   1.316   3.167   7.612
   95SAPS  C312 9454   1.376   3.354   7.703
   95SAPS  H12X 9455   1.315   3.432   7.653
   95SAPS  H12Y 9456   1.473   3.400   7.732
   95SAPS  C313 9457   1.302   3.306   7.829
   95SAPS  H13X 9458   1.292   3.400   7.888
   95SAPS  H13Y 9459   1.368   3.239   7.888
   95SAPS  C314 9460   1.161   3.245   7.812
   95SAPS  H14X 9461   1.165   3.138   7.783
   95SAPS  H14Y 9462   1.095   3.306   7.747
   95SAPS  C315 9463   1.073   3.253   7.947
   95SAPS  H15X 9464   0.983   3.192   7.926
   95SAPS  H15Y 9465   1.044   3.357   7.974
   95SAPS  C316 9466   1.160   3.213   8.071
   95SAPS  H16X 9467   1.240   3.289   8.086
   95SAPS  H16Y 9468   1.216   3.118   8.057
   95SAPS  C317 9469   1.082   3.203   8.202
   95SAPS  H17X 9470   1.005   3.123   8.207
   95SAPS  H17Y 9471   1.026   3.299   8.210
   95SAPS  C318 9472   1.174   3.185   8.316
   95SAPS  H18X 9473   1.121   3.178   8.413
   95SAPS  H18Y 9474   1.256   3.260   8.324
   95SAPS  H18Z 9475   1.225   3.087   8.303
   96SAPS     N 9476   2.103   4.703   6.325
   96SAPS   HN1 9477   2.149   4.761   6.253
   96SAPS   HN2 9478   2.025   4.656   6.275
   96SAPS   HN3 9479   2.073   4.765   6.404
   96SAPS   C12 9480   2.206   4.613   6.368
   96SAPS  H12A 9481   2.180   4.561   6.460
   96SAPS   C13 9482   2.240   4.495   6.269
   96SAPS  O13A 9483   2.169   4.481   6.168
   96SAPS  O13B 9484   2.334   4.414   6.309
   96SAPS   C11 9485   2.327   4.697   6.397
   96SAPS  H11A 9486   2.400   4.633   6.450
   96SAPS  H11B 9487   2.301   4.773   6.474
   96SAPS     P 9488   2.468   4.883   6.293
   96SAPS   O13 9489   2.557   4.894   6.172
   96SAPS   O14 9490   2.372   4.995   6.313
   96SAPS   O12 9491   2.383   4.752   6.277
   96SAPS   O11 9492   2.561   4.865   6.423
   96SAPS    C1 9493   2.676   4.781   6.437
   96SAPS    HA 9494   2.643   4.681   6.404
   96SAPS    HB 9495   2.744   4.808   6.354
   96SAPS    C2 9496   2.743   4.778   6.576
   96SAPS    HS 9497   2.834   4.714   6.565
   96SAPS   O21 9498   2.652   4.719   6.667
   96SAPS   C21 9499   2.678   4.598   6.723
   96SAPS   O22 9500   2.788   4.543   6.717
   96SAPS   C22 9501   2.553   4.542   6.783
   96SAPS   H2R 9502   2.467   4.612   6.793
   96SAPS   H2S 9503   2.507   4.456   6.729
   96SAPS    C3 9504   2.777   4.924   6.607
   96SAPS    HX 9505   2.696   4.995   6.579
   96SAPS    HY 9506   2.859   4.947   6.534
   96SAPS   O31 9507   2.821   4.941   6.743
   96SAPS   C31 9508   2.950   4.917   6.773
   96SAPS   O32 9509   3.039   4.905   6.693
   96SAPS   C32 9510   2.957   4.897   6.929
   96SAPS   H2X 9511   2.866   4.841   6.961
   96SAPS   H2Y 9512   2.942   5.002   6.961
   96SAPS   C23 9513   2.565   4.500   6.928
   96SAPS   H3R 9514   2.644   4.422   6.935
   96SAPS   H3S 9515   2.470   4.455   6.963
   96SAPS   C24 9516   2.621   4.609   7.013
   96SAPS   H4R 9517   2.704   4.661   6.961
   96SAPS   H4S 9518   2.676   4.571   7.102
   96SAPS   C25 9519   2.503   4.704   7.043
   96SAPS   H5R 9520   2.445   4.725   6.952
   96SAPS   C26 9521   2.468   4.745   7.164
   96SAPS   H6R 9522   2.382   4.813   7.167
   96SAPS   C27 9523   2.544   4.726   7.293
   96SAPS   H7R 9524   2.539   4.819   7.353
   96SAPS   H7S 9525   2.651   4.736   7.264
   96SAPS   C28 9526   2.506   4.606   7.371
   96SAPS   H8R 9527   2.443   4.529   7.324
   96SAPS   C29 9528   2.518   4.592   7.507
   96SAPS   H9R 9529   2.488   4.494   7.546
   96SAPS  C210 9530   2.569   4.696   7.601
   96SAPS  H10R 9531   2.626   4.780   7.556
   96SAPS  H10S 9532   2.626   4.644   7.680
   96SAPS  C211 9533   2.447   4.773   7.658
   96SAPS  H11R 9534   2.381   4.818   7.582
   96SAPS  C212 9535   2.409   4.794   7.781
   96SAPS  H12R 9536   2.322   4.858   7.798
   96SAPS  C213 9537   2.470   4.730   7.901
   96SAPS  H13R 9538   2.510   4.808   7.969
   96SAPS  H13S 9539   2.559   4.673   7.865
   96SAPS  C214 9540   2.369   4.648   7.973
   96SAPS  H14R 9541   2.296   4.601   7.906
   96SAPS  C215 9542   2.352   4.633   8.107
   96SAPS  H15R 9543   2.272   4.568   8.144
   96SAPS  C216 9544   2.438   4.681   8.221
   96SAPS  H16R 9545   2.404   4.774   8.273
   96SAPS  H16S 9546   2.536   4.714   8.179
   96SAPS  C217 9547   2.473   4.577   8.330
   96SAPS  H17R 9548   2.582   4.587   8.352
   96SAPS  H17S 9549   2.445   4.472   8.309
   96SAPS  C218 9550   2.411   4.605   8.473
   96SAPS  H18R 9551   2.425   4.711   8.502
   96SAPS  H18S 9552   2.471   4.557   8.553
   96SAPS  C219 9553   2.264   4.560   8.489
   96SAPS  H19R 9554   2.261   4.456   8.450
   96SAPS  H19S 9555   2.207   4.619   8.414
   96SAPS  C220 9556   2.199   4.570   8.617
   96SAPS  H20R 9557   2.245   4.517   8.703
   96SAPS  H20S 9558   2.099   4.521   8.616
   96SAPS  H20T 9559   2.188   4.676   8.649
   96SAPS   C33 9560   3.087   4.835   6.978
   96SAPS   H3X 9561   3.163   4.886   6.915
   96SAPS   H3Y 9562   3.100   4.727   6.954
   96SAPS   C34 9563   3.103   4.856   7.125
   96SAPS   H4X 9564   3.110   4.965   7.148
   96SAPS   H4Y 9565   3.202   4.816   7.156
   96SAPS   C35 9566   2.991   4.796   7.209
   96SAPS   H5X 9567   2.974   4.698   7.160
   96SAPS   H5Y 9568   2.902   4.861   7.222
   96SAPS   C36 9569   3.050   4.758   7.349
   96SAPS   H6X 9570   3.122   4.834   7.387
   96SAPS   H6Y 9571   3.088   4.653   7.340
   96SAPS   C37 9572   2.942   4.753   7.458
   96SAPS   H7X 9573   2.872   4.668   7.442
   96SAPS   H7Y 9574   2.899   4.855   7.458
   96SAPS   C38 9575   3.012   4.728   7.590
   96SAPS   H8X 9576   3.100   4.794   7.606
   96SAPS   H8Y 9577   3.042   4.621   7.591
   96SAPS   C39 9578   2.921   4.771   7.707
   96SAPS   H9X 9579   2.830   4.708   7.710
   96SAPS   H9Y 9580   2.903   4.880   7.699
   96SAPS  C310 9581   2.996   4.755   7.840
   96SAPS  H10X 9582   3.075   4.831   7.861
   96SAPS  H10Y 9583   3.043   4.655   7.833
   96SAPS  C311 9584   2.892   4.745   7.952
   96SAPS  H11X 9585   2.818   4.666   7.925
   96SAPS  H11Y 9586   2.838   4.841   7.960
   96SAPS  C312 9587   2.964   4.705   8.085
   96SAPS  H12X 9588   3.064   4.754   8.095
   96SAPS  H12Y 9589   2.987   4.596   8.094
   96SAPS  C313 9590   2.872   4.746   8.201
   96SAPS  H13X 9591   2.776   4.693   8.185
   96SAPS  H13Y 9592   2.868   4.857   8.205
   96SAPS  C314 9593   2.931   4.707   8.339
   96SAPS  H14X 9594   3.034   4.745   8.355
   96SAPS  H14Y 9595   2.930   4.596   8.337
   96SAPS  C315 9596   2.853   4.775   8.445
   96SAPS  H15X 9597   2.744   4.771   8.428
   96SAPS  H15Y 9598   2.878   4.883   8.436
   96SAPS  C316 9599   2.900   4.730   8.589
   96SAPS  H16X 9600   2.855   4.805   8.658
   96SAPS  H16Y 9601   3.010   4.720   8.596
   96SAPS  C317 9602   2.843   4.600   8.635
   96SAPS  H17X 9603   2.850   4.517   8.561
   96SAPS  H17Y 9604   2.738   4.623   8.661
   96SAPS  C318 9605   2.908   4.551   8.764
   96SAPS  H18X 9606   2.902   4.623   8.848
   96SAPS  H18Y 9607   3.017   4.536   8.754
   96SAPS  H18Z 9608   2.860   4.456   8.796
   97SAPS     N 9609   3.093   2.729   6.333
   97SAPS   HN1 9610   3.119   2.817   6.382
   97SAPS   HN2 9611   3.003   2.737   6.282
   97SAPS   HN3 9612   3.095   2.656   6.406
   97SAPS   C12 9613   3.187   2.695   6.230
   97SAPS  H12A 9614   3.170   2.599   6.185
   97SAPS   C13 9615   3.216   2.802   6.116
   97SAPS  O13A 9616   3.142   2.908   6.112
   97SAPS  O13B 9617   3.293   2.769   6.024
   97SAPS   C11 9618   3.332   2.679   6.294
   97SAPS  H11A 9619   3.358   2.779   6.335
   97SAPS  H11B 9620   3.397   2.652   6.208
   97SAPS     P 9621   3.472   2.522   6.451
   97SAPS   O13 9622   3.464   2.376   6.437
   97SAPS   O14 9623   3.582   2.596   6.385
   97SAPS   O12 9624   3.332   2.575   6.399
   97SAPS   O11 9625   3.459   2.566   6.602
   97SAPS    C1 9626   3.454   2.706   6.623
   97SAPS    HA 9627   3.534   2.761   6.568
   97SAPS    HB 9628   3.367   2.763   6.584
   97SAPS    C2 9629   3.468   2.747   6.778
   97SAPS    HS 9630   3.517   2.846   6.793
   97SAPS   O21 9631   3.566   2.648   6.831
   97SAPS   C21 9632   3.697   2.655   6.803
   97SAPS   O22 9633   3.751   2.742   6.741
   97SAPS   C22 9634   3.770   2.530   6.847
   97SAPS   H2R 9635   3.695   2.457   6.884
   97SAPS   H2S 9636   3.817   2.491   6.755
   97SAPS    C3 9637   3.344   2.742   6.862
   97SAPS    HX 9638   3.311   2.637   6.847
   97SAPS    HY 9639   3.269   2.808   6.814
   97SAPS   O31 9640   3.377   2.783   6.996
   97SAPS   C31 9641   3.400   2.681   7.080
   97SAPS   O32 9642   3.392   2.563   7.056
   97SAPS   C32 9643   3.453   2.738   7.213
   97SAPS   H2X 9644   3.445   2.849   7.209
   97SAPS   H2Y 9645   3.558   2.707   7.229
   97SAPS   C23 9646   3.879   2.553   6.944
   97SAPS   H3R 9647   3.948   2.634   6.911
   97SAPS   H3S 9648   3.935   2.457   6.943
   97SAPS   C24 9649   3.823   2.599   7.088
   97SAPS   H4R 9650   3.740   2.536   7.125
   97SAPS   H4S 9651   3.772   2.695   7.068
   97SAPS   C25 9652   3.933   2.614   7.193
   97SAPS   H5R 9653   4.016   2.684   7.177
   97SAPS   C26 9654   3.924   2.559   7.320
   97SAPS   H6R 9655   4.004   2.590   7.388
   97SAPS   C27 9656   3.813   2.472   7.383
   97SAPS   H7R 9657   3.814   2.371   7.337
   97SAPS   H7S 9658   3.709   2.505   7.363
   97SAPS   C28 9659   3.825   2.442   7.529
   97SAPS   H8R 9660   3.849   2.336   7.545
   97SAPS   C29 9661   3.823   2.524   7.634
   97SAPS   H9R 9662   3.836   2.484   7.736
   97SAPS  C210 9663   3.786   2.674   7.624
   97SAPS  H10R 9664   3.692   2.688   7.681
   97SAPS  H10S 9665   3.766   2.710   7.520
   97SAPS  C211 9666   3.905   2.752   7.686
   97SAPS  H11R 9667   3.974   2.793   7.610
   97SAPS  C212 9668   3.928   2.761   7.817
   97SAPS  H12R 9669   4.022   2.811   7.843
   97SAPS  C213 9670   3.853   2.707   7.936
   97SAPS  H13R 9671   3.773   2.632   7.917
   97SAPS  H13S 9672   3.776   2.779   7.971
   97SAPS  C214 9673   3.922   2.661   8.059
   97SAPS  H14R 9674   3.928   2.551   8.066
   97SAPS  C215 9675   3.972   2.736   8.155
   97SAPS  H15R 9676   4.022   2.693   8.243
   97SAPS  C216 9677   3.963   2.883   8.156
   97SAPS  H16R 9678   3.941   2.927   8.056
   97SAPS  H16S 9679   4.064   2.926   8.177
   97SAPS  C217 9680   3.875   2.959   8.260
   97SAPS  H17R 9681   3.773   2.918   8.246
   97SAPS  H17S 9682   3.867   3.061   8.216
   97SAPS  C218 9683   3.927   2.965   8.403
   97SAPS  H18R 9684   3.868   3.035   8.465
   97SAPS  H18S 9685   4.030   3.008   8.407
   97SAPS  C219 9686   3.937   2.831   8.474
   97SAPS  H19R 9687   3.890   2.750   8.414
   97SAPS  H19S 9688   3.888   2.840   8.574
   97SAPS  C220 9689   4.079   2.779   8.505
   97SAPS  H20R 9690   4.131   2.848   8.575
   97SAPS  H20S 9691   4.123   2.777   8.403
   97SAPS  H20T 9692   4.082   2.675   8.543
   97SAPS   C33 9693   3.371   2.680   7.326
   97SAPS   H3X 9694   3.414   2.583   7.357
   97SAPS   H3Y 9695   3.269   2.656   7.292
   97SAPS   C34 9696   3.363   2.783   7.438
   97SAPS   H4X 9697   3.309   2.870   7.396
   97SAPS   H4Y 9698   3.469   2.816   7.446
   97SAPS   C35 9699   3.316   2.741   7.578
   97SAPS   H5X 9700   3.349   2.639   7.607
   97SAPS   H5Y 9701   3.206   2.730   7.583
   97SAPS   C36 9702   3.371   2.847   7.684
   97SAPS   H6X 9703   3.321   2.943   7.657
   97SAPS   H6Y 9704   3.481   2.846   7.671
   97SAPS   C37 9705   3.324   2.814   7.834
   97SAPS   H7X 9706   3.215   2.809   7.853
   97SAPS   H7Y 9707   3.367   2.895   7.897
   97SAPS   C38 9708   3.389   2.681   7.886
   97SAPS   H8X 9709   3.500   2.688   7.879
   97SAPS   H8Y 9710   3.367   2.591   7.825
   97SAPS   C39 9711   3.340   2.648   8.028
   97SAPS   H9X 9712   3.231   2.633   8.018
   97SAPS   H9Y 9713   3.363   2.740   8.086
   97SAPS  C310 9714   3.401   2.526   8.097
   97SAPS  H10X 9715   3.402   2.441   8.025
   97SAPS  H10Y 9716   3.340   2.499   8.186
   97SAPS  C311 9717   3.544   2.544   8.139
   97SAPS  H11X 9718   3.537   2.630   8.208
   97SAPS  H11Y 9719   3.610   2.563   8.052
   97SAPS  C312 9720   3.586   2.423   8.225
   97SAPS  H12X 9721   3.593   2.339   8.154
   97SAPS  H12Y 9722   3.513   2.380   8.297
   97SAPS  C313 9723   3.723   2.436   8.281
   97SAPS  H13X 9724   3.735   2.527   8.344
   97SAPS  H13Y 9725   3.797   2.437   8.198
   97SAPS  C314 9726   3.742   2.320   8.374
   97SAPS  H14X 9727   3.750   2.223   8.320
   97SAPS  H14Y 9728   3.653   2.323   8.442
   97SAPS  C315 9729   3.854   2.349   8.479
   97SAPS  H15X 9730   3.859   2.264   8.551
   97SAPS  H15Y 9731   3.827   2.438   8.539
   97SAPS  C316 9732   3.989   2.374   8.413
   97SAPS  H16X 9733   3.989   2.483   8.393
   97SAPS  H16Y 9734   4.016   2.314   8.324
   97SAPS  C317 9735   4.110   2.337   8.508
   97SAPS  H17X 9736   4.096   2.229   8.529
   97SAPS  H17Y 9737   4.101   2.393   8.604
   97SAPS  C318 9738   4.247   2.369   8.444
   97SAPS  H18X 9739   4.235   2.459   8.380
   97SAPS  H18Y 9740   4.283   2.282   8.386
   97SAPS  H18Z 9741   4.320   2.389   8.526
   98SAPS     N 9742   1.734   2.897   5.871
   98SAPS   HN1 9743   1.691   2.832   5.941
   98SAPS   HN2 9744   1.791   2.841   5.804
   98SAPS   HN3 9745   1.804   2.955   5.921
   98SAPS   C12 9746   1.640   2.989   5.802
   98SAPS  H12A 9747   1.693   3.060   5.740
   98SAPS   C13 9748   1.528   2.924   5.708
   98SAPS  O13A 9749   1.518   2.800   5.697
   98SAPS  O13B 9750   1.451   2.999   5.641
   98SAPS   C11 9751   1.575   3.079   5.911
   98SAPS  H11A 9752   1.521   3.014   5.983
   98SAPS  H11B 9753   1.500   3.140   5.857
   98SAPS     P 9754   1.652   3.257   6.081
   98SAPS   O13 9755   1.772   3.339   6.113
   98SAPS   O14 9756   1.529   3.329   6.040
   98SAPS   O12 9757   1.680   3.150   5.970
   98SAPS   O11 9758   1.624   3.180   6.200
   98SAPS    C1 9759   1.674   3.049   6.225
   98SAPS    HA 9760   1.595   2.970   6.229
   98SAPS    HB 9761   1.753   3.010   6.157
   98SAPS    C2 9762   1.739   3.037   6.362
   98SAPS    HS 9763   1.779   2.933   6.369
   98SAPS   O21 9764   1.638   3.069   6.456
   98SAPS   C21 9765   1.623   2.991   6.558
   98SAPS   O22 9766   1.684   2.883   6.570
   98SAPS   C22 9767   1.546   3.062   6.665
   98SAPS   H2R 9768   1.565   3.014   6.764
   98SAPS   H2S 9769   1.565   3.171   6.653
   98SAPS    C3 9770   1.866   3.120   6.401
   98SAPS    HX 9771   1.844   3.228   6.381
   98SAPS    HY 9772   1.948   3.084   6.336
   98SAPS   O31 9773   1.904   3.117   6.541
   98SAPS   C31 9774   1.993   3.016   6.561
   98SAPS   O32 9775   2.042   2.945   6.475
   98SAPS   C32 9776   2.022   2.989   6.709
   98SAPS   H2X 9777   2.083   3.078   6.733
   98SAPS   H2Y 9778   2.086   2.898   6.704
   98SAPS   C23 9779   1.398   3.058   6.638
   98SAPS   H3R 9780   1.370   2.954   6.613
   98SAPS   H3S 9781   1.369   3.120   6.550
   98SAPS   C24 9782   1.320   3.117   6.751
   98SAPS   H4R 9783   1.334   3.227   6.752
   98SAPS   H4S 9784   1.359   3.078   6.848
   98SAPS   C25 9785   1.178   3.078   6.738
   98SAPS   H5R 9786   1.138   3.087   6.636
   98SAPS   C26 9787   1.094   3.044   6.839
   98SAPS   H6R 9788   0.989   3.033   6.806
   98SAPS   C27 9789   1.119   3.045   6.989
   98SAPS   H7R 9790   1.052   3.123   7.032
   98SAPS   H7S 9791   1.222   3.081   7.009
   98SAPS   C28 9792   1.087   2.909   7.043
   98SAPS   H8R 9793   1.029   2.845   6.974
   98SAPS   C29 9794   1.122   2.868   7.164
   98SAPS   H9R 9795   1.088   2.770   7.199
   98SAPS  C210 9796   1.201   2.942   7.272
   98SAPS  H10R 9797   1.243   3.040   7.240
   98SAPS  H10S 9798   1.289   2.882   7.303
   98SAPS  C211 9799   1.108   2.981   7.379
   98SAPS  H11R 9800   1.041   3.061   7.345
   98SAPS  C212 9801   1.095   2.928   7.501
   98SAPS  H12R 9802   1.003   2.953   7.556
   98SAPS  C213 9803   1.178   2.821   7.558
   98SAPS  H13R 9804   1.281   2.857   7.538
   98SAPS  H13S 9805   1.164   2.730   7.496
   98SAPS  C214 9806   1.142   2.794   7.702
   98SAPS  H14R 9807   1.041   2.751   7.710
   98SAPS  C215 9808   1.216   2.809   7.814
   98SAPS  H15R 9809   1.178   2.797   7.916
   98SAPS  C216 9810   1.347   2.873   7.816
   98SAPS  H16R 9811   1.339   2.981   7.792
   98SAPS  H16S 9812   1.410   2.832   7.735
   98SAPS  C217 9813   1.411   2.882   7.958
   98SAPS  H17R 9814   1.438   2.780   7.993
   98SAPS  H17S 9815   1.334   2.921   8.028
   98SAPS  C218 9816   1.521   2.989   7.960
   98SAPS  H18R 9817   1.487   3.075   7.898
   98SAPS  H18S 9818   1.613   2.953   7.908
   98SAPS  C219 9819   1.573   3.035   8.097
   98SAPS  H19R 9820   1.483   3.057   8.159
   98SAPS  H19S 9821   1.621   3.135   8.090
   98SAPS  C220 9822   1.659   2.942   8.183
   98SAPS  H20R 9823   1.611   2.845   8.207
   98SAPS  H20S 9824   1.672   2.994   8.280
   98SAPS  H20T 9825   1.749   2.916   8.123
   98SAPS   C33 9826   1.900   2.982   6.801
   98SAPS   H3X 9827   1.835   2.897   6.772
   98SAPS   H3Y 9828   1.836   3.072   6.784
   98SAPS   C34 9829   1.917   2.968   6.959
   98SAPS   H4X 9830   1.999   2.895   6.974
   98SAPS   H4Y 9831   1.822   2.919   6.991
   98SAPS   C35 9832   1.950   3.094   7.036
   98SAPS   H5X 9833   1.880   3.177   7.009
   98SAPS   H5Y 9834   2.047   3.127   6.994
   98SAPS   C36 9835   1.961   3.055   7.184
   98SAPS   H6X 9836   2.022   2.962   7.193
   98SAPS   H6Y 9837   1.861   3.029   7.226
   98SAPS   C37 9838   2.040   3.158   7.260
   98SAPS   H7X 9839   1.974   3.246   7.276
   98SAPS   H7Y 9840   2.130   3.191   7.203
   98SAPS   C38 9841   2.073   3.094   7.394
   98SAPS   H8X 9842   2.145   3.165   7.439
   98SAPS   H8Y 9843   2.131   2.999   7.385
   98SAPS   C39 9844   1.952   3.086   7.489
   98SAPS   H9X 9845   1.874   3.025   7.438
   98SAPS   H9Y 9846   1.905   3.186   7.505
   98SAPS  C310 9847   1.981   3.025   7.628
   98SAPS  H10X 9848   2.063   3.079   7.680
   98SAPS  H10Y 9849   2.007   2.918   7.619
   98SAPS  C311 9850   1.855   3.036   7.726
   98SAPS  H11X 9851   1.771   2.974   7.687
   98SAPS  H11Y 9852   1.815   3.139   7.716
   98SAPS  C312 9853   1.883   2.983   7.868
   98SAPS  H12X 9854   1.903   2.874   7.873
   98SAPS  H12Y 9855   1.800   3.003   7.939
   98SAPS  C313 9856   1.989   3.070   7.949
   98SAPS  H13X 9857   1.975   3.174   7.914
   98SAPS  H13Y 9858   2.085   3.037   7.903
   98SAPS  C314 9859   1.994   3.061   8.105
   98SAPS  H14X 9860   1.888   3.069   8.136
   98SAPS  H14Y 9861   2.054   3.138   8.158
   98SAPS  C315 9862   2.055   2.925   8.163
   98SAPS  H15X 9863   2.156   2.917   8.116
   98SAPS  H15Y 9864   1.997   2.836   8.130
   98SAPS  C316 9865   2.081   2.914   8.314
   98SAPS  H16X 9866   2.123   3.007   8.357
   98SAPS  H16Y 9867   2.152   2.831   8.335
   98SAPS  C317 9868   1.958   2.872   8.395
   98SAPS  H17X 9869   1.895   2.818   8.321
   98SAPS  H17Y 9870   1.906   2.966   8.422
   98SAPS  C318 9871   1.998   2.793   8.517
   98SAPS  H18X 9872   2.040   2.692   8.497
   98SAPS  H18Y 9873   1.917   2.764   8.587
   98SAPS  H18Z 9874   2.076   2.848   8.572
   99SAPS     N 9875   0.860   6.597   5.950
   99SAPS   HN1 9876   0.860   6.576   6.052
   99SAPS   HN2 9877   0.762   6.582   5.917
   99SAPS   HN3 9878   0.910   6.523   5.897
   99SAPS   C12 9879   0.914   6.735   5.925
   99SAPS  H12A 9880   1.017   6.725   5.957
   99SAPS   C13 9881   0.911   6.771   5.781
   99SAPS  O13A 9882   0.880   6.685   5.696
   99SAPS  O13B 9883   0.962   6.880   5.744
   99SAPS   C11 9884   0.847   6.841   6.029
   99SAPS  H11A 9885   0.744   6.844   5.986
   99SAPS  H11B 9886   0.901   6.937   6.017
   99SAPS     P 9887   0.710   6.748   6.227
   99SAPS   O13 9888   0.599   6.828   6.180
   99SAPS   O14 9889   0.704   6.602   6.212
   99SAPS   O12 9890   0.851   6.791   6.161
   99SAPS   O11 9891   0.735   6.791   6.385
   99SAPS    C1 9892   0.827   6.707   6.455
   99SAPS    HA 9893   0.774   6.617   6.492
   99SAPS    HB 9894   0.918   6.693   6.393
   99SAPS    C2 9895   0.865   6.785   6.596
   99SAPS    HS 9896   0.930   6.714   6.651
   99SAPS   O21 9897   0.744   6.813   6.672
   99SAPS   C21 9898   0.715   6.710   6.753
   99SAPS   O22 9899   0.767   6.604   6.755
   99SAPS   C22 9900   0.606   6.755   6.854
   99SAPS   H2R 9901   0.550   6.844   6.821
   99SAPS   H2S 9902   0.535   6.670   6.862
   99SAPS    C3 9903   0.953   6.916   6.569
   99SAPS    HX 9904   0.889   6.984   6.509
   99SAPS    HY 9905   1.030   6.888   6.493
   99SAPS   O31 9906   1.015   6.984   6.688
   99SAPS   C31 9907   0.934   7.078   6.741
   99SAPS   O32 9908   0.817   7.079   6.722
   99SAPS   C32 9909   1.018   7.181   6.836
   99SAPS   H2X 9910   1.010   7.153   6.943
   99SAPS   H2Y 9911   0.972   7.280   6.816
   99SAPS   C23 9912   0.677   6.801   6.985
   99SAPS   H3R 9913   0.725   6.900   6.968
   99SAPS   H3S 9914   0.752   6.725   7.017
   99SAPS   C24 9915   0.576   6.817   7.110
   99SAPS   H4R 9916   0.507   6.899   7.079
   99SAPS   H4S 9917   0.641   6.862   7.188
   99SAPS   C25 9918   0.503   6.702   7.159
   99SAPS   H5R 9919   0.451   6.635   7.089
   99SAPS   C26 9920   0.488   6.670   7.293
   99SAPS   H6R 9921   0.425   6.587   7.328
   99SAPS   C27 9922   0.535   6.750   7.408
   99SAPS   H7R 9923   0.479   6.843   7.384
   99SAPS   H7S 9924   0.642   6.781   7.402
   99SAPS   C28 9925   0.507   6.699   7.545
   99SAPS   H8R 9926   0.575   6.616   7.569
   99SAPS   C29 9927   0.432   6.752   7.637
   99SAPS   H9R 9928   0.414   6.692   7.728
   99SAPS  C210 9929   0.338   6.876   7.619
   99SAPS  H10R 9930   0.326   6.906   7.512
   99SAPS  H10S 9931   0.386   6.966   7.664
   99SAPS  C211 9932   0.199   6.842   7.678
   99SAPS  H11R 9933   0.124   6.793   7.615
   99SAPS  C212 9934   0.159   6.885   7.805
   99SAPS  H12R 9935   0.062   6.849   7.844
   99SAPS  C213 9936   0.244   6.968   7.900
   99SAPS  H13R 9937   0.341   6.998   7.857
   99SAPS  H13S 9938   0.262   6.895   7.983
   99SAPS  C214 9939   0.165   7.085   7.948
   99SAPS  H14R 9940   0.147   7.164   7.875
   99SAPS  C215 9941   0.113   7.105   8.069
   99SAPS  H15R 9942   0.063   7.200   8.095
   99SAPS  C216 9943   0.117   7.017   8.191
   99SAPS  H16R 9944   0.168   6.921   8.171
   99SAPS  H16S 9945   0.013   6.987   8.216
   99SAPS  C217 9946   0.156   7.086   8.323
   99SAPS  H17R 9947   0.163   7.003   8.397
   99SAPS  H17S 9948   0.082   7.167   8.341
   99SAPS  C218 9949   0.290   7.159   8.324
   99SAPS  H18R 9950   0.283   7.243   8.252
   99SAPS  H18S 9951   0.371   7.091   8.290
   99SAPS  C219 9952   0.328   7.230   8.450
   99SAPS  H19R 9953   0.370   7.166   8.530
   99SAPS  H19S 9954   0.236   7.270   8.497
   99SAPS  C220 9955   0.426   7.345   8.420
   99SAPS  H20R 9956   0.517   7.297   8.379
   99SAPS  H20S 9957   0.452   7.406   8.509
   99SAPS  H20T 9958   0.382   7.418   8.349
   99SAPS   C33 9959   1.162   7.191   6.794
   99SAPS   H3X 9960   1.169   7.215   6.685
   99SAPS   H3Y 9961   1.211   7.092   6.796
   99SAPS   C34 9962   1.250   7.282   6.877
   99SAPS   H4X 9963   1.219   7.258   6.981
   99SAPS   H4Y 9964   1.214   7.385   6.855
   99SAPS   C35 9965   1.403   7.267   6.843
   99SAPS   H5X 9966   1.420   7.285   6.734
   99SAPS   H5Y 9967   1.418   7.160   6.869
   99SAPS   C36 9968   1.492   7.355   6.936
   99SAPS   H6X 9969   1.453   7.459   6.944
   99SAPS   H6Y 9970   1.594   7.353   6.892
   99SAPS   C37 9971   1.508   7.307   7.080
   99SAPS   H7X 9972   1.538   7.200   7.072
   99SAPS   H7Y 9973   1.413   7.314   7.138
   99SAPS   C38 9974   1.613   7.385   7.159
   99SAPS   H8X 9975   1.592   7.493   7.149
   99SAPS   H8Y 9976   1.709   7.365   7.107
   99SAPS   C39 9977   1.620   7.329   7.296
   99SAPS   H9X 9978   1.668   7.229   7.282
   99SAPS   H9Y 9979   1.529   7.328   7.359
   99SAPS  C310 9980   1.727   7.402   7.383
   99SAPS  H10X 9981   1.667   7.488   7.420
   99SAPS  H10Y 9982   1.805   7.426   7.308
   99SAPS  C311 9983   1.791   7.312   7.499
   99SAPS  H11X 9984   1.870   7.249   7.453
   99SAPS  H11Y 9985   1.711   7.239   7.525
   99SAPS  C312 9986   1.827   7.390   7.622
   99SAPS  H12X 9987   1.729   7.436   7.649
   99SAPS  H12Y 9988   1.894   7.467   7.577
   99SAPS  C313 9989   1.866   7.302   7.742
   99SAPS  H13X 9990   1.966   7.254   7.740
   99SAPS  H13Y 9991   1.792   7.221   7.756
   99SAPS  C314 9992   1.855   7.370   7.878
   99SAPS  H14X 9993   1.875   7.289   7.951
   99SAPS  H14Y 9994   1.751   7.409   7.889
   99SAPS  C315 9995   1.932   7.499   7.901
   99SAPS  H15X 9996   1.901   7.580   7.831
   99SAPS  H15Y 9997   2.037   7.473   7.877
   99SAPS  C316 9998   1.916   7.570   8.040
   99SAPS  H16X 9999   1.813   7.610   8.032
   99SAPS  H16Y10000   1.992   7.651   8.039
   99SAPS  C31710001   1.943   7.490   8.164
   99SAPS  H17X10002   2.045   7.446   8.157
   99SAPS  H17Y10003   1.876   7.402   8.148
   99SAPS  C31810004   1.926   7.566   8.296
   99SAPS  H18X10005   1.977   7.510   8.378
   99SAPS  H18Y10006   1.817   7.561   8.318
   99SAPS  H18Z10007   1.959   7.672   8.295
  100SAPS     N10008   3.981   1.597   5.986
  100SAPS   HN110009   3.936   1.540   5.912
  100SAPS   HN210010   4.084   1.584   5.972
  100SAPS   HN310011   3.948   1.559   6.077
  100SAPS   C1210012   3.943   1.738   5.976
  100SAPS  H12A10013   4.021   1.784   5.917
  100SAPS   C1310014   3.804   1.774   5.901
  100SAPS  O13A10015   3.735   1.678   5.865
  100SAPS  O13B10016   3.763   1.895   5.897
  100SAPS   C1110017   3.927   1.793   6.122
  100SAPS  H11A10018   3.849   1.735   6.176
  100SAPS  H11B10019   3.895   1.900   6.121
  100SAPS     P10020   4.107   1.906   6.261
  100SAPS   O1310021   4.235   1.869   6.322
  100SAPS   O1410022   4.116   2.016   6.163
  100SAPS   O1210023   4.051   1.771   6.191
  100SAPS   O1110024   3.995   1.925   6.370
  100SAPS    C110025   3.976   1.834   6.478
  100SAPS    HA10026   3.878   1.784   6.460
  100SAPS    HB10027   4.051   1.752   6.485
  100SAPS    C210028   3.968   1.904   6.622
  100SAPS    HS10029   3.937   1.828   6.697
  100SAPS   O2110030   3.874   2.012   6.628
  100SAPS   C2110031   3.749   1.976   6.660
  100SAPS   O2210032   3.714   1.862   6.667
  100SAPS   C2210033   3.676   2.100   6.707
  100SAPS   H2R10034   3.672   2.173   6.623
  100SAPS   H2S10035   3.573   2.068   6.730
  100SAPS    C310036   4.109   1.956   6.660
  100SAPS    HX10037   4.128   2.039   6.589
  100SAPS    HY10038   4.183   1.875   6.642
  100SAPS   O3110039   4.123   1.998   6.799
  100SAPS   C3110040   4.128   2.122   6.831
  100SAPS   O3210041   4.107   2.217   6.757
  100SAPS   C3210042   4.187   2.135   6.972
  100SAPS   H2X10043   4.295   2.110   6.974
  100SAPS   H2Y10044   4.144   2.059   7.041
  100SAPS   C2310045   3.748   2.174   6.824
  100SAPS   H3R10046   3.679   2.250   6.868
  100SAPS   H3S10047   3.837   2.226   6.784
  100SAPS   C2410048   3.782   2.089   6.951
  100SAPS   H4R10049   3.848   2.138   7.026
  100SAPS   H4S10050   3.851   2.009   6.918
  100SAPS   C2510051   3.662   2.014   7.007
  100SAPS   H5R10052   3.616   1.935   6.946
  100SAPS   C2610053   3.588   2.055   7.112
  100SAPS   H6R10054   3.500   1.993   7.134
  100SAPS   C2710055   3.606   2.188   7.199
  100SAPS   H7R10056   3.660   2.259   7.133
  100SAPS   H7S10057   3.681   2.171   7.280
  100SAPS   C2810058   3.472   2.255   7.228
  100SAPS   H8R10059   3.420   2.278   7.134
  100SAPS   C2910060   3.424   2.305   7.344
  100SAPS   H9R10061   3.321   2.346   7.341
  100SAPS  C21010062   3.467   2.280   7.489
  100SAPS  H10R10063   3.377   2.296   7.551
  100SAPS  H10S10064   3.541   2.356   7.521
  100SAPS  C21110065   3.508   2.137   7.535
  100SAPS  H11R10066   3.494   2.059   7.459
  100SAPS  C21210067   3.573   2.112   7.652
  100SAPS  H12R10068   3.619   2.014   7.670
  100SAPS  C21310069   3.614   2.210   7.756
  100SAPS  H13R10070   3.548   2.297   7.736
  100SAPS  H13S10071   3.719   2.242   7.736
  100SAPS  C21410072   3.592   2.160   7.896
  100SAPS  H14R10073   3.508   2.215   7.940
  100SAPS  C21510074   3.671   2.072   7.970
  100SAPS  H15R10075   3.628   2.040   8.067
  100SAPS  C21610076   3.785   1.987   7.917
  100SAPS  H16R10077   3.798   1.995   7.807
  100SAPS  H16S10078   3.779   1.877   7.931
  100SAPS  C21710079   3.923   2.012   7.984
  100SAPS  H17R10080   4.004   1.953   7.937
  100SAPS  H17S10081   3.916   1.995   8.093
  100SAPS  C21810082   3.972   2.157   7.973
  100SAPS  H18R10083   3.887   2.218   8.010
  100SAPS  H18S10084   3.984   2.160   7.863
  100SAPS  C21910085   4.103   2.200   8.046
  100SAPS  H19R10086   4.181   2.140   7.995
  100SAPS  H19S10087   4.099   2.174   8.154
  100SAPS  C22010088   4.131   2.352   8.023
  100SAPS  H20R10089   4.145   2.377   7.916
  100SAPS  H20S10090   4.228   2.367   8.074
  100SAPS  H20T10091   4.049   2.383   8.092
  100SAPS   C3310092   4.161   2.278   7.033
  100SAPS   H3X10093   4.051   2.283   7.047
  100SAPS   H3Y10094   4.176   2.357   6.956
  100SAPS   C3410095   4.251   2.300   7.150
  100SAPS   H4X10096   4.355   2.320   7.118
  100SAPS   H4Y10097   4.244   2.205   7.209
  100SAPS   C3510098   4.219   2.419   7.235
  100SAPS   H5X10099   4.121   2.405   7.287
  100SAPS   H5Y10100   4.205   2.508   7.171
  100SAPS   C3610101   4.330   2.449   7.342
  100SAPS   H6X10102   4.426   2.468   7.290
  100SAPS   H6Y10103   4.343   2.355   7.398
  100SAPS   C3710104   4.301   2.567   7.436
  100SAPS   H7X10105   4.222   2.527   7.503
  100SAPS   H7Y10106   4.258   2.650   7.376
  100SAPS   C3810107   4.421   2.611   7.522
  100SAPS   H8X10108   4.369   2.687   7.584
  100SAPS   H8Y10109   4.498   2.658   7.458
  100SAPS   C3910110   4.478   2.495   7.601
  100SAPS   H9X10111   4.554   2.429   7.553
  100SAPS   H9Y10112   4.398   2.425   7.633
  100SAPS  C31010113   4.558   2.553   7.726
  100SAPS  H10X10114   4.476   2.595   7.788
  100SAPS  H10Y10115   4.625   2.634   7.690
  100SAPS  C31110116   4.631   2.445   7.808
  100SAPS  H11X10117   4.672   2.497   7.897
  100SAPS  H11Y10118   4.714   2.396   7.752
  100SAPS  C31210119   4.543   2.335   7.865
  100SAPS  H12X10120   4.463   2.306   7.793
  100SAPS  H12Y10121   4.483   2.369   7.953
  100SAPS  C31310122   4.623   2.215   7.920
  100SAPS  H13X10123   4.696   2.186   7.841
  100SAPS  H13Y10124   4.547   2.135   7.928
  100SAPS  C31410125   4.676   2.245   8.065
  100SAPS  H14X10126   4.757   2.321   8.062
  100SAPS  H14Y10127   4.723   2.149   8.098
  100SAPS  C31510128   4.576   2.286   8.171
  100SAPS  H15X10129   4.505   2.203   8.190
  100SAPS  H15Y10130   4.517   2.379   8.152
  100SAPS  C31610131   4.642   2.315   8.306
  100SAPS  H16X10132   4.572   2.354   8.383
  100SAPS  H16Y10133   4.724   2.389   8.294
  100SAPS  C31710134   4.703   2.183   8.370
  100SAPS  H17X10135   4.793   2.159   8.309
  100SAPS  H17Y10136   4.636   2.095   8.357
  100SAPS  C31810137   4.726   2.203   8.517
  100SAPS  H18X10138   4.634   2.190   8.578
  100SAPS  H18Y10139   4.762   2.307   8.526
  100SAPS  H18Z10140   4.802   2.138   8.565
  101OSM      N10141   2.102   2.636  10.875
  101OSM    C1510142   2.011   2.727  10.813
  101OSM   H15A10143   2.033   2.826  10.851
  101OSM   H15B10144   1.909   2.711  10.845
  101OSM   H15C10145   2.012   2.731  10.705
  101OSM    C1410146   2.095   2.669  11.023
  101OSM   H14A10147   1.993   2.666  11.058
  101OSM   H14B10148   2.132   2.771  11.032
  101OSM   H14C10149   2.161   2.602  11.076
  101OSM    C1310150   2.062   2.491  10.861
  101OSM   H13A10151   2.102   2.425  10.937
  101OSM   H13B10152   2.087   2.455  10.762
  101OSM   H13C10153   1.955   2.492  10.871
  101OSM    C1210154   2.238   2.671  10.827
  101OSM   H12A10155   2.306   2.630  10.900
  101OSM   H12B10156   2.258   2.777  10.833
  101OSM    C1110157   2.267   2.610  10.693
  101OSM   H11A10158   2.356   2.654  10.642
  101OSM   H11B10159   2.189   2.637  10.618
  101OSM      P10160   2.402   2.381  10.729
  101OSM    O1310161   2.470   2.444  10.845
  101OSM    O1410162   2.354   2.243  10.749
  101OSM    O1110163   2.501   2.389  10.605
  101OSM    O1210164   2.282   2.471  10.690
  101OSM    C1S10165   2.449   2.335  10.485
  101OSM    H1S10166   2.346   2.369  10.461
  101OSM    H1T10167   2.429   2.226  10.490
  101OSM     NF10168   2.473   2.349  10.240
  101OSM    HNF10169   2.502   2.276  10.180
  101OSM    C2S10170   2.542   2.368  10.365
  101OSM    H2S10171   2.572   2.475  10.372
  101OSM    C3S10172   2.681   2.296  10.381
  101OSM    H3S10173   2.652   2.189  10.372
  101OSM     O310174   2.738   2.311  10.512
  101OSM    HO310175   2.672   2.355  10.566
  101OSM    C4S10176   2.770   2.331  10.278
  101OSM    H4S10177   2.784   2.259  10.196
  101OSM    C5S10178   2.849   2.441  10.264
  101OSM    H5S10179   2.832   2.526  10.331
  101OSM    C6S10180   2.942   2.463  10.149
  101OSM    H6S10181   3.046   2.433  10.173
  101OSM    H6T10182   2.947   2.573  10.135
  101OSM    C7S10183   2.911   2.387  10.024
  101OSM    H7S10184   2.809   2.401   9.981
  101OSM    H7T10185   2.928   2.279  10.043
  101OSM    C8S10186   3.008   2.418   9.898
  101OSM    H8S10187   3.098   2.355   9.914
  101OSM    H8T10188   3.034   2.524   9.918
  101OSM    C9S10189   2.945   2.377   9.769
  101OSM    H9S10190   2.859   2.436   9.732
  101OSM    H9T10191   2.896   2.279   9.789
  101OSM   C10S10192   3.048   2.359   9.655
  101OSM   H10S10193   3.134   2.305   9.698
  101OSM   H10T10194   3.088   2.462   9.644
  101OSM   C11S10195   3.002   2.302   9.516
  101OSM   H11S10196   2.923   2.367   9.474
  101OSM   H11T10197   2.960   2.201   9.537
  101OSM   C12S10198   3.106   2.296   9.402
  101OSM   H12S10199   3.190   2.231   9.435
  101OSM   H12T10200   3.148   2.397   9.386
  101OSM   C13S10201   3.045   2.226   9.284
  101OSM   H13S10202   2.959   2.289   9.253
  101OSM   H13T10203   2.992   2.131   9.310
  101OSM   C14S10204   3.136   2.195   9.173
  101OSM   H14S10205   3.218   2.132   9.215
  101OSM   H14T10206   3.180   2.283   9.121
  101OSM   C15S10207   3.063   2.126   9.062
  101OSM   H15S10208   2.984   2.200   9.036
  101OSM   H15T10209   3.016   2.030   9.090
  101OSM   C16S10210   3.144   2.101   8.939
  101OSM   H16S10211   3.192   2.199   8.920
  101OSM   H16T10212   3.080   2.081   8.850
  101OSM   C17S10213   3.242   1.985   8.966
  101OSM   H17S10214   3.177   1.898   8.990
  101OSM   H17T10215   3.314   2.010   9.046
  101OSM   C18S10216   3.317   1.953   8.841
  101OSM   H18S10217   3.242   1.933   8.761
  101OSM   H18T10218   3.396   1.880   8.868
  101OSM   H18U10219   3.380   2.038   8.806
  101OSM    C1F10220   2.366   2.423  10.204
  101OSM     OF10221   2.325   2.510  10.283
  101OSM    C2F10222   2.298   2.390  10.080
  101OSM    H2F10223   2.285   2.280  10.069
  101OSM    H2G10224   2.364   2.414   9.994
  101OSM    C3F10225   2.169   2.454  10.033
  101OSM    H3F10226   2.092   2.438  10.112
  101OSM    H3G10227   2.126   2.411   9.940
  101OSM    C4F10228   2.189   2.610  10.020
  101OSM    H4F10229   2.217   2.652  10.119
  101OSM    H4G10230   2.092   2.661  10.001
  101OSM    C5F10231   2.285   2.655   9.904
  101OSM    H5F10232   2.391   2.652   9.936
  101OSM    H5G10233   2.268   2.763   9.882
  101OSM    C6F10234   2.285   2.572   9.772
  101OSM    H6F10235   2.300   2.465   9.799
  101OSM    H6G10236   2.365   2.615   9.708
  101OSM    C7F10237   2.149   2.584   9.700
  101OSM    H7F10238   2.097   2.682   9.704
  101OSM    H7G10239   2.070   2.526   9.752
  101OSM    C8F10240   2.163   2.533   9.553
  101OSM    H8F10241   2.205   2.430   9.556
  101OSM    H8G10242   2.231   2.606   9.505
  101OSM    C9F10243   2.025   2.515   9.492
  101OSM    H9F10244   1.968   2.429   9.530
  101OSM   C10F10245   1.975   2.585   9.392
  101OSM   H10F10246   1.879   2.549   9.354
  101OSM   C11F10247   2.056   2.694   9.327
  101OSM   H11F10248   2.136   2.638   9.273
  101OSM   H11G10249   2.109   2.760   9.399
  101OSM   C12F10250   1.983   2.795   9.235
  101OSM   H12F10251   2.059   2.871   9.206
  101OSM   H12G10252   1.909   2.848   9.300
  101OSM   C13F10253   1.915   2.721   9.120
  101OSM   H13F10254   1.839   2.649   9.158
  101OSM   H13G10255   1.994   2.678   9.053
  101OSM   C14F10256   1.835   2.820   9.026
  101OSM   H14F10257   1.752   2.877   9.074
  101OSM   H14G10258   1.788   2.757   8.948
  101OSM   C15F10259   1.928   2.915   8.955
  101OSM   H15F10260   1.990   2.854   8.886
  101OSM   H15G10261   2.001   2.966   9.022
  101OSM   C16F10262   1.861   3.033   8.878
  101OSM   H16F10263   1.815   3.101   8.953
  101OSM   H16G10264   1.784   2.994   8.807
  101OSM   C17F10265   1.969   3.114   8.809
  101OSM   H17F10266   2.025   3.041   8.747
  101OSM   H17G10267   2.043   3.159   8.879
  101OSM   C18F10268   1.900   3.227   8.730
  101OSM   H18F10269   1.973   3.288   8.673
  101OSM   H18G10270   1.840   3.290   8.798
  101OSM   H18H10271   1.835   3.172   8.658
  102OSM      N10272   2.029   1.859  11.171
  102OSM    C1510273   1.933   1.951  11.232
  102OSM   H15A10274   1.973   1.974  11.330
  102OSM   H15B10275   1.837   1.904  11.243
  102OSM   H15C10276   1.910   2.039  11.173
  102OSM    C1410277   2.166   1.916  11.152
  102OSM   H14A10278   2.228   1.839  11.110
  102OSM   H14B10279   2.206   1.950  11.246
  102OSM   H14C10280   2.165   1.997  11.081
  102OSM    C1310281   2.041   1.743  11.262
  102OSM   H13A10282   2.123   1.683  11.228
  102OSM   H13B10283   1.958   1.674  11.259
  102OSM   H13C10284   2.056   1.765  11.367
  102OSM    C1210285   1.977   1.817  11.033
  102OSM   H12A10286   1.883   1.771  11.061
  102OSM   H12B10287   2.031   1.734  10.990
  102OSM    C1110288   1.976   1.923  10.923
  102OSM   H11A10289   1.926   2.014  10.964
  102OSM   H11B10290   1.910   1.902  10.836
  102OSM      P10291   2.188   1.830  10.804
  102OSM    O1310292   2.310   1.883  10.736
  102OSM    O1410293   2.209   1.713  10.886
  102OSM    O1110294   2.088   1.785  10.689
  102OSM    O1210295   2.108   1.946  10.874
  102OSM    C1S10296   2.067   1.872  10.578
  102OSM    H1S10297   2.095   1.977  10.599
  102OSM    H1T10298   1.957   1.868  10.563
  102OSM     NF10299   2.078   1.918  10.336
  102OSM    HNF10300   1.996   1.901  10.282
  102OSM    C2S10301   2.130   1.831  10.439
  102OSM    H2S10302   2.237   1.855  10.454
  102OSM    C3S10303   2.115   1.680  10.402
  102OSM    H3S10304   2.006   1.659  10.404
  102OSM     O310305   2.175   1.586  10.495
  102OSM    HO310306   2.194   1.647  10.566
  102OSM    C4S10307   2.178   1.646  10.268
  102OSM    H4S10308   2.260   1.715  10.243
  102OSM    C5S10309   2.139   1.542  10.187
  102OSM    H5S10310   2.058   1.474  10.217
  102OSM    C6S10311   2.210   1.501  10.065
  102OSM    H6S10312   2.196   1.392  10.052
  102OSM    H6T10313   2.316   1.533  10.070
  102OSM    C7S10314   2.145   1.556   9.922
  102OSM    H7S10315   2.148   1.667   9.928
  102OSM    H7T10316   2.041   1.518   9.919
  102OSM    C8S10317   2.229   1.514   9.799
  102OSM    H8S10318   2.141   1.487   9.737
  102OSM    H8T10319   2.285   1.420   9.815
  102OSM    C9S10320   2.322   1.620   9.733
  102OSM    H9S10321   2.400   1.643   9.809
  102OSM    H9T10322   2.261   1.710   9.708
  102OSM   C10S10323   2.390   1.579   9.602
  102OSM   H10S10324   2.437   1.478   9.613
  102OSM   H10T10325   2.468   1.651   9.571
  102OSM   C11S10326   2.293   1.543   9.482
  102OSM   H11S10327   2.230   1.629   9.450
  102OSM   H11T10328   2.219   1.469   9.519
  102OSM   C12S10329   2.369   1.494   9.354
  102OSM   H12S10330   2.424   1.399   9.374
  102OSM   H12T10331   2.447   1.565   9.319
  102OSM   C13S10332   2.277   1.457   9.236
  102OSM   H13S10333   2.207   1.541   9.216
  102OSM   H13T10334   2.216   1.370   9.270
  102OSM   C14S10335   2.349   1.429   9.103
  102OSM   H14S10336   2.420   1.344   9.111
  102OSM   H14T10337   2.399   1.519   9.060
  102OSM   C15S10338   2.254   1.378   8.995
  102OSM   H15S10339   2.204   1.283   9.022
  102OSM   H15T10340   2.313   1.347   8.907
  102OSM   C16S10341   2.141   1.477   8.953
  102OSM   H16S10342   2.189   1.576   8.930
  102OSM   H16T10343   2.076   1.494   9.041
  102OSM   C17S10344   2.069   1.423   8.823
  102OSM   H17S10345   2.020   1.328   8.853
  102OSM   H17T10346   2.148   1.405   8.747
  102OSM   C18S10347   1.962   1.513   8.767
  102OSM   H18S10348   1.906   1.463   8.685
  102OSM   H18T10349   2.002   1.615   8.752
  102OSM   H18U10350   1.877   1.529   8.836
  102OSM    C1F10351   2.124   2.040  10.315
  102OSM     OF10352   2.215   2.089  10.379
  102OSM    C2F10353   2.052   2.115  10.204
  102OSM    H2F10354   2.085   2.222  10.206
  102OSM    H2G10355   1.942   2.108  10.217
  102OSM    C3F10356   2.097   2.061  10.062
  102OSM    H3F10357   2.077   1.952  10.065
  102OSM    H3G10358   2.206   2.065  10.043
  102OSM    C4F10359   2.021   2.129   9.948
  102OSM    H4F10360   2.031   2.239   9.960
  102OSM    H4G10361   1.916   2.095   9.953
  102OSM    C5F10362   2.093   2.086   9.818
  102OSM    H5F10363   2.090   1.975   9.814
  102OSM    H5G10364   2.198   2.123   9.826
  102OSM    C6F10365   2.028   2.132   9.687
  102OSM    H6F10366   2.006   2.241   9.691
  102OSM    H6G10367   1.927   2.086   9.682
  102OSM    C7F10368   2.096   2.093   9.558
  102OSM    H7F10369   2.129   1.989   9.577
  102OSM    H7G10370   2.181   2.164   9.550
  102OSM    C8F10371   2.018   2.098   9.431
  102OSM    H8F10372   1.960   2.192   9.425
  102OSM    H8G10373   1.938   2.022   9.446
  102OSM    C9F10374   2.098   2.063   9.304
  102OSM    H9F10375   2.130   1.960   9.287
  102OSM   C10F10376   2.127   2.156   9.209
  102OSM   H10F10377   2.203   2.131   9.133
  102OSM   C11F10378   2.101   2.305   9.201
  102OSM   H11F10379   2.196   2.357   9.174
  102OSM   H11G10380   2.076   2.341   9.303
  102OSM   C12F10381   2.000   2.338   9.089
  102OSM   H12F10382   2.028   2.277   9.000
  102OSM   H12G10383   2.022   2.444   9.066
  102OSM   C13F10384   1.853   2.320   9.124
  102OSM   H13F10385   1.819   2.392   9.201
  102OSM   H13G10386   1.853   2.218   9.169
  102OSM   C14F10387   1.761   2.329   9.006
  102OSM   H14F10388   1.671   2.277   9.045
  102OSM   H14G10389   1.807   2.268   8.926
  102OSM   C15F10390   1.744   2.462   8.946
  102OSM   H15F10391   1.842   2.513   8.934
  102OSM   H15G10392   1.696   2.524   9.025
  102OSM   C16F10393   1.667   2.469   8.812
  102OSM   H16F10394   1.561   2.486   8.837
  102OSM   H16G10395   1.669   2.368   8.766
  102OSM   C17F10396   1.709   2.586   8.718
  102OSM   H17F10397   1.809   2.558   8.680
  102OSM   H17G10398   1.726   2.678   8.777
  102OSM   C18F10399   1.607   2.612   8.607
  102OSM   H18F10400   1.657   2.665   8.523
  102OSM   H18G10401   1.546   2.695   8.649
  102OSM   H18H10402   1.549   2.521   8.579
  103OSM      N10403   3.367   4.088  11.279
  103OSM    C1510404   3.301   3.962  11.246
  103OSM   H15A10405   3.243   3.962  11.156
  103OSM   H15B10406   3.233   3.928  11.323
  103OSM   H15C10407   3.372   3.881  11.256
  103OSM    C1410408   3.266   4.200  11.299
  103OSM   H14A10409   3.214   4.220  11.207
  103OSM   H14B10410   3.315   4.292  11.326
  103OSM   H14C10411   3.203   4.179  11.384
  103OSM    C1310412   3.438   4.075  11.406
  103OSM   H13A10413   3.374   4.080  11.493
  103OSM   H13B10414   3.514   4.150  11.417
  103OSM   H13C10415   3.485   3.977  11.404
  103OSM    C1210416   3.462   4.121  11.168
  103OSM   H12A10417   3.534   4.040  11.168
  103OSM   H12B10418   3.513   4.211  11.198
  103OSM    C1110419   3.411   4.152  11.024
  103OSM   H11A10420   3.331   4.080  10.998
  103OSM   H11B10421   3.489   4.133  10.947
  103OSM      P10422   3.430   4.404  10.967
  103OSM    O1310423   3.354   4.518  11.023
  103OSM    O1410424   3.570   4.393  10.997
  103OSM    O1110425   3.420   4.399  10.809
  103OSM    O1210426   3.350   4.278  11.018
  103OSM    C1S10427   3.293   4.372  10.742
  103OSM    H1S10428   3.220   4.451  10.768
  103OSM    H1T10429   3.255   4.273  10.776
  103OSM     NF10430   3.192   4.385  10.526
  103OSM    HNF10431   3.144   4.298  10.513
  103OSM    C2S10432   3.318   4.376  10.594
  103OSM    H2S10433   3.371   4.471  10.576
  103OSM    C3S10434   3.394   4.248  10.548
  103OSM    H3S10435   3.321   4.165  10.551
  103OSM     O310436   3.496   4.200  10.637
  103OSM    HO310437   3.501   4.274  10.698
  103OSM    C4S10438   3.449   4.254  10.406
  103OSM    H4S10439   3.502   4.348  10.384
  103OSM    C5S10440   3.431   4.156  10.317
  103OSM    H5S10441   3.372   4.067  10.342
  103OSM    C6S10442   3.494   4.141  10.179
  103OSM    H6S10443   3.418   4.178  10.107
  103OSM    H6T10444   3.506   4.033  10.159
  103OSM    C7S10445   3.626   4.218  10.159
  103OSM    H7S10446   3.694   4.209  10.246
  103OSM    H7T10447   3.610   4.328  10.147
  103OSM    C8S10448   3.700   4.185  10.020
  103OSM    H8S10449   3.725   4.077  10.010
  103OSM    H8T10450   3.790   4.248  10.030
  103OSM    C9S10451   3.608   4.226   9.904
  103OSM    H9S10452   3.565   4.326   9.924
  103OSM    H9T10453   3.524   4.156   9.889
  103OSM   C10S10454   3.688   4.215   9.765
  103OSM   H10S10455   3.721   4.110   9.752
  103OSM   H10T10456   3.781   4.274   9.768
  103OSM   C11S10457   3.589   4.249   9.648
  103OSM   H11S10458   3.544   4.348   9.671
  103OSM   H11T10459   3.518   4.164   9.640
  103OSM   C12S10460   3.661   4.262   9.516
  103OSM   H12S10461   3.698   4.160   9.494
  103OSM   H12T10462   3.753   4.324   9.522
  103OSM   C13S10463   3.560   4.288   9.400
  103OSM   H13S10464   3.502   4.382   9.410
  103OSM   H13T10465   3.491   4.201   9.396
  103OSM   C14S10466   3.646   4.303   9.279
  103OSM   H14S10467   3.697   4.210   9.246
  103OSM   H14T10468   3.706   4.394   9.299
  103OSM   C15S10469   3.557   4.347   9.158
  103OSM   H15S10470   3.497   4.435   9.189
  103OSM   H15T10471   3.477   4.279   9.123
  103OSM   C16S10472   3.628   4.372   9.022
  103OSM   H16S10473   3.645   4.278   8.965
  103OSM   H16T10474   3.728   4.416   9.041
  103OSM   C17S10475   3.545   4.467   8.934
  103OSM   H17S10476   3.542   4.569   8.977
  103OSM   H17T10477   3.442   4.427   8.924
  103OSM   C18S10478   3.607   4.474   8.796
  103OSM   H18S10479   3.559   4.541   8.722
  103OSM   H18T10480   3.611   4.371   8.755
  103OSM   H18U10481   3.706   4.522   8.813
  103OSM    C1F10482   3.130   4.506  10.526
  103OSM     OF10483   3.166   4.598  10.594
  103OSM    C2F10484   3.000   4.518  10.461
  103OSM    H2F10485   2.944   4.607  10.497
  103OSM    H2G10486   2.937   4.428  10.476
  103OSM    C3F10487   3.013   4.530  10.305
  103OSM    H3F10488   3.057   4.435  10.268
  103OSM    H3G10489   3.089   4.605  10.273
  103OSM    C4F10490   2.886   4.580  10.233
  103OSM    H4F10491   2.859   4.679  10.276
  103OSM    H4G10492   2.806   4.508  10.262
  103OSM    C5F10493   2.892   4.591  10.083
  103OSM    H5F10494   2.793   4.583  10.035
  103OSM    H5G10495   2.956   4.510  10.041
  103OSM    C6F10496   2.955   4.721  10.015
  103OSM    H6F10497   3.047   4.758  10.065
  103OSM    H6G10498   2.873   4.793  10.031
  103OSM    C7F10499   2.997   4.698   9.868
  103OSM    H7F10500   2.911   4.650   9.818
  103OSM    H7G10501   3.072   4.616   9.874
  103OSM    C8F10502   3.064   4.829   9.813
  103OSM    H8F10503   3.140   4.870   9.882
  103OSM    H8G10504   2.983   4.905   9.808
  103OSM    C9F10505   3.124   4.801   9.674
  103OSM    H9F10506   3.220   4.749   9.688
  103OSM   C10F10507   3.068   4.817   9.554
  103OSM   H10F10508   3.127   4.799   9.463
  103OSM   C11F10509   2.930   4.874   9.543
  103OSM   H11F10510   2.884   4.894   9.641
  103OSM   H11G10511   2.867   4.795   9.497
  103OSM   C12F10512   2.927   4.990   9.446
  103OSM   H12F10513   2.818   5.003   9.427
  103OSM   H12G10514   2.975   4.973   9.347
  103OSM   C13F10515   2.980   5.126   9.497
  103OSM   H13F10516   2.961   5.142   9.605
  103OSM   H13G10517   3.089   5.120   9.476
  103OSM   C14F10518   2.916   5.249   9.427
  103OSM   H14F10519   2.973   5.338   9.462
  103OSM   H14G10520   2.810   5.272   9.452
  103OSM   C15F10521   2.926   5.250   9.274
  103OSM   H15F10522   2.850   5.180   9.233
  103OSM   H15G10523   3.029   5.213   9.253
  103OSM   C16F10524   2.899   5.382   9.210
  103OSM   H16F10525   2.951   5.449   9.281
  103OSM   H16G10526   2.788   5.383   9.209
  103OSM   C17F10527   2.972   5.397   9.074
  103OSM   H17F10528   2.949   5.314   9.004
  103OSM   H17G10529   3.083   5.398   9.087
  103OSM   C18F10530   2.939   5.529   9.002
  103OSM   H18F10531   3.013   5.550   8.922
  103OSM   H18G10532   2.943   5.613   9.075
  103OSM   H18H10533   2.835   5.540   8.965
  104OSM      N10534   0.909   4.067  10.973
  104OSM    C1510535   0.777   4.041  11.036
  104OSM   H15A10536   0.782   4.022  11.142
  104OSM   H15B10537   0.725   3.956  10.993
  104OSM   H15C10538   0.715   4.129  11.030
  104OSM    C1410539   0.971   4.199  11.027
  104OSM   H14A10540   1.063   4.230  10.979
  104OSM   H14B10541   0.975   4.190  11.135
  104OSM   H14C10542   0.899   4.280  11.015
  104OSM    C1310543   1.006   3.958  11.014
  104OSM   H13A10544   0.980   3.862  10.972
  104OSM   H13B10545   1.010   3.946  11.121
  104OSM   H13C10546   1.106   3.982  10.980
  104OSM    C1210547   0.884   4.086  10.827
  104OSM   H12A10548   0.976   4.128  10.790
  104OSM   H12B10549   0.805   4.158  10.810
  104OSM    C1110550   0.848   3.962  10.742
  104OSM   H11A10551   0.923   3.881  10.734
  104OSM   H11B10552   0.833   3.984  10.634
  104OSM      P10553   0.672   3.776  10.702
  104OSM    O1310554   0.782   3.679  10.700
  104OSM    O1410555   0.545   3.729  10.760
  104OSM    O1110556   0.646   3.839  10.559
  104OSM    O1210557   0.723   3.902  10.788
  104OSM    C1S10558   0.560   3.950  10.541
  104OSM    H1S10559   0.612   4.034  10.590
  104OSM    H1T10560   0.461   3.936  10.590
  104OSM     NF10561   0.446   4.080  10.359
  104OSM    HNF10562   0.358   4.049  10.323
  104OSM    C2S10563   0.546   3.977  10.387
  104OSM    H2S10564   0.646   4.010  10.352
  104OSM    C3S10565   0.496   3.849  10.309
  104OSM    H3S10566   0.415   3.813  10.376
  104OSM     O310567   0.588   3.743  10.324
  104OSM    HO310568   0.630   3.774  10.405
  104OSM    C4S10569   0.451   3.873  10.170
  104OSM    H4S10570   0.352   3.921  10.161
  104OSM    C5S10571   0.533   3.881  10.059
  104OSM    H5S10572   0.642   3.869  10.070
  104OSM    C6S10573   0.498   3.913   9.911
  104OSM    H6S10574   0.493   4.022   9.888
  104OSM    H6T10575   0.395   3.874   9.896
  104OSM    C7S10576   0.595   3.855   9.800
  104OSM    H7S10577   0.600   3.745   9.815
  104OSM    H7T10578   0.703   3.881   9.809
  104OSM    C8S10579   0.539   3.883   9.654
  104OSM    H8S10580   0.570   3.985   9.623
  104OSM    H8T10581   0.428   3.880   9.665
  104OSM    C9S10582   0.591   3.779   9.558
  104OSM    H9S10583   0.554   3.680   9.592
  104OSM    H9T10584   0.702   3.777   9.551
  104OSM   C10S10585   0.535   3.816   9.411
  104OSM   H10S10586   0.513   3.925   9.411
  104OSM   H10T10587   0.439   3.763   9.392
  104OSM   C11S10588   0.634   3.774   9.306
  104OSM   H11S10589   0.653   3.665   9.304
  104OSM   H11T10590   0.731   3.825   9.327
  104OSM   C12S10591   0.592   3.829   9.174
  104OSM   H12S10592   0.573   3.935   9.199
  104OSM   H12T10593   0.506   3.768   9.137
  104OSM   C13S10594   0.706   3.801   9.070
  104OSM   H13S10595   0.752   3.701   9.083
  104OSM   H13T10596   0.789   3.866   9.103
  104OSM   C14S10597   0.666   3.821   8.925
  104OSM   H14S10598   0.558   3.810   8.903
  104OSM   H14T10599   0.717   3.738   8.871
  104OSM   C15S10600   0.729   3.961   8.892
  104OSM   H15S10601   0.836   3.953   8.920
  104OSM   H15T10602   0.689   4.034   8.966
  104OSM   C16S10603   0.705   3.997   8.746
  104OSM   H16S10604   0.597   3.999   8.719
  104OSM   H16T10605   0.736   3.918   8.674
  104OSM   C17S10606   0.781   4.127   8.710
  104OSM   H17S10607   0.886   4.117   8.747
  104OSM   H17T10608   0.730   4.216   8.755
  104OSM   C18S10609   0.772   4.162   8.555
  104OSM   H18S10610   0.673   4.194   8.517
  104OSM   H18T10611   0.807   4.080   8.488
  104OSM   H18U10612   0.840   4.249   8.538
  104OSM    C1F10613   0.484   4.210  10.384
  104OSM     OF10614   0.569   4.248  10.461
  104OSM    C2F10615   0.398   4.313  10.314
  104OSM    H2F10616   0.382   4.400  10.381
  104OSM    H2G10617   0.305   4.258  10.289
  104OSM    C3F10618   0.468   4.350  10.179
  104OSM    H3F10619   0.492   4.258  10.121
  104OSM    H3G10620   0.567   4.398  10.192
  104OSM    C4F10621   0.374   4.433  10.090
  104OSM    H4F10622   0.332   4.523  10.140
  104OSM    H4G10623   0.287   4.371  10.062
  104OSM    C5F10624   0.451   4.487   9.966
  104OSM    H5F10625   0.516   4.565  10.011
  104OSM    H5G10626   0.373   4.543   9.911
  104OSM    C6F10627   0.520   4.373   9.896
  104OSM    H6F10628   0.446   4.291   9.903
  104OSM    H6G10629   0.614   4.355   9.952
  104OSM    C7F10630   0.548   4.410   9.749
  104OSM    H7F10631   0.624   4.337   9.714
  104OSM    H7G10632   0.587   4.514   9.744
  104OSM    C8F10633   0.422   4.401   9.658
  104OSM    H8F10634   0.344   4.468   9.700
  104OSM    H8G10635   0.386   4.295   9.656
  104OSM    C9F10636   0.462   4.447   9.520
  104OSM    H9F10637   0.487   4.553   9.508
  104OSM   C10F10638   0.478   4.369   9.410
  104OSM   H10F10639   0.496   4.416   9.312
  104OSM   C11F10640   0.448   4.218   9.401
  104OSM   H11F10641   0.462   4.176   9.503
  104OSM   H11G10642   0.502   4.165   9.320
  104OSM   C12F10643   0.304   4.189   9.356
  104OSM   H12F10644   0.249   4.227   9.445
  104OSM   H12G10645   0.281   4.081   9.352
  104OSM   C13F10646   0.249   4.256   9.229
  104OSM   H13F10647   0.236   4.361   9.261
  104OSM   H13G10648   0.149   4.213   9.206
  104OSM   C14F10649   0.338   4.242   9.108
  104OSM   H14F10650   0.388   4.144   9.116
  104OSM   H14G10651   0.423   4.311   9.124
  104OSM   C15F10652   0.275   4.266   8.965
  104OSM   H15F10653   0.224   4.364   8.969
  104OSM   H15G10654   0.197   4.192   8.939
  104OSM   C16F10655   0.392   4.261   8.865
  104OSM   H16F10656   0.441   4.161   8.864
  104OSM   H16G10657   0.477   4.327   8.893
  104OSM   C17F10658   0.340   4.289   8.722
  104OSM   H17F10659   0.337   4.400   8.712
  104OSM   H17G10660   0.240   4.243   8.728
  104OSM   C18F10661   0.439   4.226   8.625
  104OSM   H18F10662   0.398   4.208   8.523
  104OSM   H18G10663   0.466   4.123   8.659
  104OSM   H18H10664   0.530   4.288   8.611
  105OSM      N10665   0.215   3.418  11.176
  105OSM    C1510666   0.079   3.389  11.229
  105OSM   H15A10667   0.053   3.464  11.302
  105OSM   H15B10668   0.077   3.290  11.273
  105OSM   H15C10669  -0.000   3.390  11.155
  105OSM    C1410670   0.302   3.407  11.294
  105OSM   H14A10671   0.290   3.310  11.339
  105OSM   H14B10672   0.302   3.492  11.362
  105OSM   H14C10673   0.405   3.404  11.264
  105OSM    C1310674   0.261   3.314  11.089
  105OSM   H13A10675   0.208   3.312  10.996
  105OSM   H13B10676   0.254   3.216  11.134
  105OSM   H13C10677   0.365   3.319  11.059
  105OSM    C1210678   0.223   3.559  11.111
  105OSM   H12A10679   0.328   3.578  11.093
  105OSM   H12B10680   0.194   3.626  11.189
  105OSM    C1110681   0.133   3.584  10.982
  105OSM   H11A10682   0.133   3.694  10.965
  105OSM   H11B10683   0.029   3.555  11.008
  105OSM      P10684   0.075   3.478  10.742
  105OSM    O1310685   0.101   3.339  10.695
  105OSM    O1410686  -0.063   3.517  10.776
  105OSM    O1110687   0.121   3.582  10.624
  105OSM    O1210688   0.177   3.508  10.866
  105OSM    C1S10689   0.256   3.595  10.590
  105OSM    H1S10690   0.333   3.548  10.655
  105OSM    H1T10691   0.287   3.701  10.590
  105OSM     NF10692   0.434   3.515  10.436
  105OSM    HNF10693   0.487   3.583  10.387
  105OSM    C2S10694   0.284   3.526  10.451
  105OSM    H2S10695   0.239   3.424  10.446
  105OSM    C3S10696   0.202   3.606  10.343
  105OSM    H3S10697   0.227   3.714  10.355
  105OSM     O310698   0.059   3.610  10.344
  105OSM    HO310699   0.029   3.587  10.432
  105OSM    C4S10700   0.254   3.564  10.210
  105OSM    H4S10701   0.330   3.626  10.160
  105OSM    C5S10702   0.233   3.444  10.151
  105OSM    H5S10703   0.158   3.372  10.187
  105OSM    C6S10704   0.300   3.421  10.021
  105OSM    H6S10705   0.291   3.316   9.987
  105OSM    H6T10706   0.409   3.444  10.019
  105OSM    C7S10707   0.236   3.518   9.909
  105OSM    H7S10708   0.255   3.626   9.923
  105OSM    H7T10709   0.125   3.512   9.908
  105OSM    C8S10710   0.284   3.472   9.775
  105OSM    H8S10711   0.219   3.383   9.761
  105OSM    H8T10712   0.391   3.442   9.768
  105OSM    C9S10713   0.230   3.572   9.669
  105OSM    H9S10714   0.275   3.672   9.689
  105OSM    H9T10715   0.122   3.594   9.684
  105OSM   C10S10716   0.253   3.531   9.528
  105OSM   H10S10717   0.358   3.500   9.505
  105OSM   H10T10718   0.231   3.622   9.468
  105OSM   C11S10719   0.167   3.420   9.469
  105OSM   H11S10720   0.061   3.419   9.501
  105OSM   H11T10721   0.209   3.323   9.503
  105OSM   C12S10722   0.168   3.404   9.320
  105OSM   H12S10723   0.117   3.309   9.291
  105OSM   H12T10724   0.275   3.395   9.292
  105OSM   C13S10725   0.109   3.520   9.240
  105OSM   H13S10726   0.168   3.614   9.250
  105OSM   H13T10727   0.005   3.532   9.279
  105OSM   C14S10728   0.089   3.492   9.097
  105OSM   H14S10729   0.038   3.394   9.086
  105OSM   H14T10730   0.190   3.468   9.055
  105OSM   C15S10731  -0.000   3.588   9.004
  105OSM   H15S10732  -0.089   3.604   9.069
  105OSM   H15T10733  -0.034   3.534   8.913
  105OSM   C16S10734   0.062   3.722   8.967
  105OSM   H16S10735   0.095   3.757   9.067
  105OSM   H16T10736  -0.021   3.785   8.928
  105OSM   C17S10737   0.181   3.737   8.871
  105OSM   H17S10738   0.261   3.669   8.908
  105OSM   H17T10739   0.237   3.833   8.873
  105OSM   C18S10740   0.138   3.694   8.729
  105OSM   H18S10741   0.040   3.735   8.696
  105OSM   H18T10742   0.126   3.584   8.723
  105OSM   H18U10743   0.208   3.719   8.648
  105OSM    C1F10744   0.503   3.422  10.499
  105OSM     OF10745   0.447   3.346  10.580
  105OSM    C2F10746   0.648   3.416  10.478
  105OSM    H2F10747   0.688   3.385  10.577
  105OSM    H2G10748   0.689   3.517  10.458
  105OSM    C3F10749   0.691   3.310  10.377
  105OSM    H3F10750   0.640   3.212  10.393
  105OSM    H3G10751   0.798   3.296  10.403
  105OSM    C4F10752   0.675   3.337  10.226
  105OSM    H4F10753   0.570   3.360  10.202
  105OSM    H4G10754   0.711   3.245  10.175
  105OSM    C5F10755   0.759   3.461  10.186
  105OSM    H5F10756   0.868   3.445  10.202
  105OSM    H5G10757   0.732   3.550  10.247
  105OSM    C6F10758   0.753   3.489  10.040
  105OSM    H6F10759   0.650   3.515  10.009
  105OSM    H6G10760   0.796   3.407   9.979
  105OSM    C7F10761   0.841   3.611  10.001
  105OSM    H7F10762   0.836   3.700  10.068
  105OSM    H7G10763   0.803   3.648   9.903
  105OSM    C8F10764   0.986   3.581   9.977
  105OSM    H8F10765   0.995   3.501   9.900
  105OSM    H8G10766   1.031   3.525  10.062
  105OSM    C9F10767   1.075   3.693   9.935
  105OSM    H9F10768   1.098   3.761  10.018
  105OSM   C10F10769   1.135   3.715   9.818
  105OSM   H10F10770   1.203   3.800   9.804
  105OSM   C11F10771   1.114   3.636   9.695
  105OSM   H11F10772   1.128   3.527   9.715
  105OSM   H11G10773   1.190   3.675   9.624
  105OSM   C12F10774   0.973   3.645   9.633
  105OSM   H12F10775   0.945   3.750   9.611
  105OSM   H12G10776   0.889   3.611   9.698
  105OSM   C13F10777   0.953   3.560   9.506
  105OSM   H13F10778   0.853   3.587   9.464
  105OSM   H13G10779   0.953   3.452   9.530
  105OSM   C14F10780   1.047   3.585   9.388
  105OSM   H14F10781   1.018   3.526   9.299
  105OSM   H14G10782   1.150   3.554   9.417
  105OSM   C15F10783   1.037   3.736   9.338
  105OSM   H15F10784   1.024   3.813   9.418
  105OSM   H15G10785   0.938   3.727   9.289
  105OSM   C16F10786   1.144   3.772   9.229
  105OSM   H16F10787   1.245   3.778   9.276
  105OSM   H16G10788   1.128   3.876   9.195
  105OSM   C17F10789   1.151   3.676   9.110
  105OSM   H17F10790   1.157   3.571   9.145
  105OSM   H17G10791   1.246   3.692   9.055
  105OSM   C18F10792   1.033   3.666   9.018
  105OSM   H18F10793   0.941   3.656   9.079
  105OSM   H18G10794   1.048   3.575   8.956
  105OSM   H18H10795   1.025   3.752   8.948
  106OSM      N10796   1.436   1.954  10.898
  106OSM    C1510797   1.391   2.098  10.877
  106OSM   H15A10798   1.289   2.096  10.910
  106OSM   H15B10799   1.401   2.121  10.772
  106OSM   H15C10800   1.455   2.164  10.933
  106OSM    C1410801   1.418   1.906  11.040
  106OSM   H14A10802   1.483   1.962  11.105
  106OSM   H14B10803   1.444   1.801  11.034
  106OSM   H14C10804   1.322   1.918  11.088
  106OSM    C1310805   1.351   1.872  10.805
  106OSM   H13A10806   1.378   1.890  10.702
  106OSM   H13B10807   1.246   1.884  10.827
  106OSM   H13C10808   1.379   1.768  10.815
  106OSM    C1210809   1.584   1.943  10.862
  106OSM   H12A10810   1.617   1.850  10.906
  106OSM   H12B10811   1.629   2.022  10.920
  106OSM    C1110812   1.635   1.951  10.717
  106OSM   H11A10813   1.746   1.948  10.714
  106OSM   H11B10814   1.600   2.046  10.670
  106OSM      P10815   1.625   1.691  10.677
  106OSM    O1310816   1.747   1.683  10.759
  106OSM    O1410817   1.502   1.622  10.722
  106OSM    O1110818   1.662   1.623  10.541
  106OSM    O1210819   1.591   1.846  10.640
  106OSM    C1S10820   1.664   1.691  10.409
  106OSM    H1S10821   1.724   1.784  10.420
  106OSM    H1T10822   1.562   1.716  10.372
  106OSM     NF10823   1.682   1.666  10.173
  106OSM    HNF10824   1.622   1.617  10.110
  106OSM    C2S10825   1.715   1.597  10.303
  106OSM    H2S10826   1.826   1.596  10.301
  106OSM    C3S10827   1.667   1.450  10.321
  106OSM    H3S10828   1.556   1.451  10.323
  106OSM     O310829   1.700   1.392  10.446
  106OSM    HO310830   1.706   1.470  10.502
  106OSM    C4S10831   1.721   1.385  10.200
  106OSM    H4S10832   1.649   1.372  10.118
  106OSM    C5S10833   1.846   1.341  10.185
  106OSM    H5S10834   1.927   1.343  10.259
  106OSM    C6S10835   1.885   1.260  10.065
  106OSM    H6S10836   1.871   1.152  10.085
  106OSM    H6T10837   1.995   1.272  10.057
  106OSM    C7S10838   1.828   1.307   9.925
  106OSM    H7S10839   1.824   1.418   9.927
  106OSM    H7T10840   1.727   1.270   9.897
  106OSM    C8S10841   1.915   1.260   9.815
  106OSM    H8S10842   1.899   1.150   9.817
  106OSM    H8T10843   2.024   1.282   9.823
  106OSM    C9S10844   1.849   1.307   9.678
  106OSM    H9S10845   1.853   1.418   9.683
  106OSM    H9T10846   1.741   1.285   9.695
  106OSM   C10S10847   1.911   1.260   9.551
  106OSM   H10S10848   1.947   1.157   9.571
  106OSM   H10T10849   1.999   1.324   9.525
  106OSM   C11S10850   1.811   1.239   9.443
  106OSM   H11S10851   1.760   1.337   9.433
  106OSM   H11T10852   1.733   1.165   9.471
  106OSM   C12S10853   1.879   1.218   9.304
  106OSM   H12S10854   1.962   1.146   9.321
  106OSM   H12T10855   1.928   1.316   9.285
  106OSM   C13S10856   1.792   1.195   9.184
  106OSM   H13S10857   1.703   1.262   9.178
  106OSM   H13T10858   1.758   1.090   9.178
  106OSM   C14S10859   1.864   1.218   9.045
  106OSM   H14S10860   1.942   1.146   9.009
  106OSM   H14T10861   1.915   1.317   9.045
  106OSM   C15S10862   1.755   1.219   8.933
  106OSM   H15S10863   1.798   1.265   8.841
  106OSM   H15T10864   1.667   1.284   8.955
  106OSM   C16S10865   1.704   1.081   8.904
  106OSM   H16S10866   1.670   1.025   8.993
  106OSM   H16T10867   1.784   1.019   8.858
  106OSM   C17S10868   1.581   1.090   8.818
  106OSM   H17S10869   1.509   1.158   8.867
  106OSM   H17T10870   1.531   0.990   8.817
  106OSM   C18S10871   1.596   1.129   8.674
  106OSM   H18S10872   1.649   1.226   8.665
  106OSM   H18T10873   1.498   1.150   8.625
  106OSM   H18U10874   1.658   1.057   8.616
  106OSM    C1F10875   1.729   1.782  10.129
  106OSM     OF10876   1.780   1.866  10.199
  106OSM    C2F10877   1.705   1.806   9.981
  106OSM    H2F10878   1.650   1.900   9.958
  106OSM    H2G10879   1.639   1.723   9.948
  106OSM    C3F10880   1.828   1.808   9.884
  106OSM    H3F10881   1.906   1.737   9.921
  106OSM    H3G10882   1.877   1.907   9.870
  106OSM    C4F10883   1.784   1.742   9.748
  106OSM    H4F10884   1.706   1.807   9.704
  106OSM    H4G10885   1.754   1.635   9.752
  106OSM    C5F10886   1.903   1.719   9.647
  106OSM    H5F10887   1.970   1.640   9.688
  106OSM    H5G10888   1.958   1.815   9.638
  106OSM    C6F10889   1.870   1.655   9.510
  106OSM    H6F10890   1.792   1.576   9.518
  106OSM    H6G10891   1.959   1.595   9.480
  106OSM    C7F10892   1.840   1.764   9.406
  106OSM    H7F10893   1.936   1.813   9.378
  106OSM    H7G10894   1.777   1.835   9.463
  106OSM    C8F10895   1.768   1.713   9.284
  106OSM    H8F10896   1.692   1.793   9.269
  106OSM    H8G10897   1.700   1.629   9.312
  106OSM    C9F10898   1.850   1.690   9.165
  106OSM    H9F10899   1.890   1.587   9.157
  106OSM   C10F10900   1.859   1.762   9.058
  106OSM   H10F10901   1.929   1.726   8.981
  106OSM   C11F10902   1.794   1.898   9.039
  106OSM   H11F10903   1.857   1.983   9.073
  106OSM   H11G10904   1.697   1.896   9.094
  106OSM   C12F10905   1.775   1.906   8.886
  106OSM   H12F10906   1.694   1.982   8.880
  106OSM   H12G10907   1.729   1.815   8.841
  106OSM   C13F10908   1.894   1.955   8.804
  106OSM   H13F10909   1.988   1.899   8.823
  106OSM   H13G10910   1.918   2.051   8.854
  106OSM   C14F10911   1.870   1.974   8.652
  106OSM   H14F10912   1.856   1.870   8.615
  106OSM   H14G10913   1.964   2.019   8.614
  106OSM   C15F10914   1.746   2.061   8.613
  106OSM   H15F10915   1.736   2.138   8.693
  106OSM   H15G10916   1.655   1.998   8.614
  106OSM   C16F10917   1.769   2.128   8.470
  106OSM   H16F10918   1.831   2.048   8.424
  106OSM   H16G10919   1.823   2.225   8.472
  106OSM   C17F10920   1.634   2.149   8.398
  106OSM   H17F10921   1.581   2.053   8.385
  106OSM   H17G10922   1.643   2.188   8.295
  106OSM   C18F10923   1.542   2.241   8.476
  106OSM   H18F10924   1.450   2.267   8.421
  106OSM   H18G10925   1.587   2.342   8.481
  106OSM   H18H10926   1.510   2.199   8.574
  107OSM      N10927   1.837   6.467  10.973
  107OSM    C1510928   1.922   6.420  10.861
  107OSM   H15A10929   1.987   6.498  10.824
  107OSM   H15B10930   1.856   6.400  10.777
  107OSM   H15C10931   1.975   6.330  10.886
  107OSM    C1410932   1.776   6.592  10.929
  107OSM   H14A10933   1.714   6.582  10.841
  107OSM   H14B10934   1.847   6.668  10.899
  107OSM   H14C10935   1.725   6.639  11.012
  107OSM    C1310936   1.737   6.371  11.010
  107OSM   H13A10937   1.677   6.350  10.923
  107OSM   H13B10938   1.666   6.381  11.090
  107OSM   H13C10939   1.795   6.287  11.048
  107OSM    C1210940   1.928   6.495  11.095
  107OSM   H12A10941   1.866   6.532  11.175
  107OSM   H12B10942   1.989   6.577  11.058
  107OSM    C1110943   2.027   6.387  11.145
  107OSM   H11A10944   1.970   6.306  11.196
  107OSM   H11B10945   2.080   6.433  11.231
  107OSM      P10946   2.269   6.363  11.053
  107OSM    O1310947   2.297   6.482  11.139
  107OSM    O1410948   2.332   6.229  11.092
  107OSM    O1110949   2.318   6.390  10.905
  107OSM    O1210950   2.115   6.341  11.048
  107OSM    C1S10951   2.280   6.296  10.810
  107OSM    H1S10952   2.169   6.293  10.807
  107OSM    H1T10953   2.318   6.198  10.848
  107OSM     NF10954   2.259   6.246  10.576
  107OSM    HNF10955   2.278   6.148  10.578
  107OSM    C2S10956   2.337   6.321  10.675
  107OSM    H2S10957   2.333   6.428  10.646
  107OSM    C3S10958   2.483   6.274  10.677
  107OSM    H3S10959   2.486   6.167  10.706
  107OSM     O310960   2.560   6.326  10.783
  107OSM    HO310961   2.496   6.345  10.851
  107OSM    C4S10962   2.547   6.301  10.546
  107OSM    H4S10963   2.540   6.214  10.479
  107OSM    C5S10964   2.608   6.405  10.498
  107OSM    H5S10965   2.599   6.497  10.557
  107OSM    C6S10966   2.665   6.405  10.355
  107OSM    H6S10967   2.741   6.486  10.352
  107OSM    H6T10968   2.594   6.434  10.276
  107OSM    C7S10969   2.736   6.279  10.288
  107OSM    H7S10970   2.663   6.196  10.291
  107OSM    H7T10971   2.824   6.261  10.353
  107OSM    C8S10972   2.772   6.304  10.144
  107OSM    H8S10973   2.852   6.381  10.134
  107OSM    H8T10974   2.689   6.343  10.081
  107OSM    C9S10975   2.841   6.186  10.081
  107OSM    H9S10976   2.784   6.091  10.093
  107OSM    H9T10977   2.941   6.169  10.128
  107OSM   C10S10978   2.880   6.217   9.933
  107OSM   H10S10979   2.943   6.309   9.935
  107OSM   H10T10980   2.777   6.237   9.894
  107OSM   C11S10981   2.956   6.101   9.868
  107OSM   H11S10982   2.902   6.009   9.897
  107OSM   H11T10983   3.063   6.106   9.900
  107OSM   C12S10984   2.945   6.100   9.715
  107OSM   H12S10985   2.982   6.192   9.664
  107OSM   H12T10986   2.835   6.099   9.699
  107OSM   C13S10987   3.016   5.979   9.644
  107OSM   H13S10988   2.965   5.881   9.658
  107OSM   H13T10989   3.117   5.978   9.691
  107OSM   C14S10990   3.019   5.990   9.489
  107OSM   H14S10991   3.092   6.067   9.455
  107OSM   H14T10992   2.918   6.028   9.464
  107OSM   C15S10993   3.048   5.851   9.427
  107OSM   H15S10994   2.985   5.762   9.451
  107OSM   H15T10995   3.151   5.824   9.458
  107OSM   C16S10996   3.042   5.864   9.273
  107OSM   H16S10997   3.080   5.773   9.222
  107OSM   H16T10998   3.102   5.957   9.257
  107OSM   C17S10999   2.911   5.890   9.200
  107OSM   H17S11000   2.851   5.968   9.252
  107OSM   H17T11001   2.843   5.802   9.193
  107OSM   C18S11002   2.944   5.936   9.052
  107OSM   H18S11003   2.997   5.849   9.006
  107OSM   H18T11004   3.004   6.028   9.044
  107OSM   H18U11005   2.848   5.958   9.000
  107OSM    C1F11006   2.148   6.293  10.528
  107OSM     OF11007   2.091   6.387  10.584
  107OSM    C2F11008   2.075   6.206  10.423
  107OSM    H2F11009   1.974   6.250  10.408
  107OSM    H2G11010   2.077   6.100  10.456
  107OSM    C3F11011   2.146   6.205  10.290
  107OSM    H3F11012   2.190   6.303  10.260
  107OSM    H3G11013   2.080   6.160  10.213
  107OSM    C4F11014   2.259   6.094  10.282
  107OSM    H4F11015   2.205   6.000  10.308
  107OSM    H4G11016   2.341   6.096  10.356
  107OSM    C5F11017   2.323   6.087  10.142
  107OSM    H5F11018   2.380   6.178  10.113
  107OSM    H5G11019   2.247   6.082  10.060
  107OSM    C6F11020   2.416   5.966  10.114
  107OSM    H6F11021   2.344   5.882  10.126
  107OSM    H6G11022   2.487   5.960  10.199
  107OSM    C7F11023   2.468   5.976   9.967
  107OSM    H7F11024   2.524   6.072   9.966
  107OSM    H7G11025   2.389   5.987   9.889
  107OSM    C8F11026   2.561   5.861   9.926
  107OSM    H8F11027   2.503   5.767   9.927
  107OSM    H8G11028   2.639   5.851  10.005
  107OSM    C9F11029   2.620   5.884   9.793
  107OSM    H9F11030   2.695   5.964   9.797
  107OSM   C10F11031   2.586   5.827   9.673
  107OSM   H10F11032   2.628   5.863   9.578
  107OSM   C11F11033   2.491   5.717   9.648
  107OSM   H11F11034   2.418   5.748   9.571
  107OSM   H11G11035   2.432   5.696   9.739
  107OSM   C12F11036   2.554   5.585   9.609
  107OSM   H12F11037   2.586   5.542   9.706
  107OSM   H12G11038   2.646   5.597   9.548
  107OSM   C13F11039   2.463   5.489   9.529
  107OSM   H13F11040   2.529   5.399   9.525
  107OSM   H13G11041   2.445   5.519   9.424
  107OSM   C14F11042   2.337   5.443   9.611
  107OSM   H14F11043   2.268   5.525   9.636
  107OSM   H14G11044   2.378   5.407   9.707
  107OSM   C15F11045   2.248   5.323   9.555
  107OSM   H15F11046   2.175   5.295   9.635
  107OSM   H15G11047   2.312   5.233   9.546
  107OSM   C16F11048   2.158   5.378   9.440
  107OSM   H16F11049   2.232   5.432   9.376
  107OSM   H16G11050   2.081   5.450   9.475
  107OSM   C17F11051   2.091   5.269   9.352
  107OSM   H17F11052   2.034   5.192   9.409
  107OSM   H17G11053   2.167   5.211   9.296
  107OSM   C18F11054   1.984   5.335   9.262
  107OSM   H18F11055   1.954   5.268   9.178
  107OSM   H18G11056   2.024   5.433   9.229
  107OSM   H18H11057   1.894   5.348   9.325
  108OSM      N11058   6.153   2.978  10.992
  108OSM    C1511059   6.139   2.836  10.930
  108OSM   H15A11060   6.156   2.833  10.824
  108OSM   H15B11061   6.044   2.787  10.944
  108OSM   H15C11062   6.210   2.764  10.969
  108OSM    C1411063   6.118   2.973  11.139
  108OSM   H14A11064   6.183   2.915  11.202
  108OSM   H14B11065   6.017   2.938  11.155
  108OSM   H14C11066   6.111   3.071  11.184
  108OSM    C1311067   6.299   3.012  10.982
  108OSM   H13A11068   6.356   2.956  11.054
  108OSM   H13B11069   6.326   3.116  10.998
  108OSM   H13C11070   6.331   2.989  10.881
  108OSM    C1211071   6.057   3.073  10.926
  108OSM   H12A11072   5.962   3.028  10.949
  108OSM   H12B11073   6.067   3.076  10.819
  108OSM    C1111074   6.047   3.218  10.975
  108OSM   H11A11075   5.976   3.212  11.060
  108OSM   H11B11076   5.985   3.280  10.907
  108OSM      P11077   6.255   3.340  10.883
  108OSM    O1311078   6.204   3.478  10.868
  108OSM    O1411079   6.399   3.318  10.907
  108OSM    O1111080   6.211   3.256  10.758
  108OSM    O1211081   6.171   3.283  11.001
  108OSM    C1S11082   6.138   3.317  10.656
  108OSM    H1S11083   6.160   3.425  10.643
  108OSM    H1T11084   6.029   3.305  10.674
  108OSM     NF11085   6.066   3.334  10.431
  108OSM    HNF11086   5.969   3.337  10.453
  108OSM    C2S11087   6.149   3.246  10.517
  108OSM    H2S11088   6.255   3.247  10.484
  108OSM    C3S11089   6.102   3.097  10.525
  108OSM    H3S11090   6.002   3.099  10.574
  108OSM     O311091   6.179   3.023  10.615
  108OSM    HO311092   6.216   3.090  10.673
  108OSM    C4S11093   6.089   3.029  10.388
  108OSM    H4S11094   6.004   3.067  10.330
  108OSM    C5S11095   6.170   2.938  10.334
  108OSM    H5S11096   6.264   2.904  10.379
  108OSM    C6S11097   6.139   2.884  10.193
  108OSM    H6S11098   6.032   2.892  10.162
  108OSM    H6T11099   6.160   2.776  10.174
  108OSM    C7S11100   6.230   2.956  10.087
  108OSM    H7S11101   6.331   2.941  10.130
  108OSM    H7T11102   6.199   3.061  10.067
  108OSM    C8S11103   6.213   2.889   9.951
  108OSM    H8S11104   6.137   2.950   9.899
  108OSM    H8T11105   6.178   2.783   9.953
  108OSM    C9S11106   6.341   2.918   9.873
  108OSM    H9S11107   6.420   2.861   9.927
  108OSM    H9T11108   6.369   3.025   9.875
  108OSM   C10S11109   6.352   2.863   9.731
  108OSM   H10S11110   6.267   2.895   9.667
  108OSM   H10T11111   6.342   2.754   9.751
  108OSM   C11S11112   6.485   2.891   9.658
  108OSM   H11S11113   6.563   2.831   9.709
  108OSM   H11T11114   6.505   2.999   9.673
  108OSM   C12S11115   6.483   2.871   9.509
  108OSM   H12S11116   6.394   2.925   9.471
  108OSM   H12T11117   6.462   2.765   9.483
  108OSM   C13S11118   6.603   2.924   9.440
  108OSM   H13S11119   6.699   2.872   9.455
  108OSM   H13T11120   6.609   3.033   9.463
  108OSM   C14S11121   6.573   2.920   9.285
  108OSM   H14S11122   6.475   2.968   9.266
  108OSM   H14T11123   6.577   2.816   9.246
  108OSM   C15S11124   6.678   2.996   9.203
  108OSM   H15S11125   6.703   3.096   9.243
  108OSM   H15T11126   6.624   3.022   9.110
  108OSM   C16S11127   6.804   2.911   9.171
  108OSM   H16S11128   6.771   2.812   9.133
  108OSM   H16T11129   6.867   2.883   9.258
  108OSM   C17S11130   6.896   2.954   9.056
  108OSM   H17S11131   6.831   2.991   8.973
  108OSM   H17T11132   6.953   2.867   9.019
  108OSM   C18S11133   7.001   3.062   9.089
  108OSM   H18S11134   6.956   3.156   9.127
  108OSM   H18T11135   7.056   3.082   8.995
  108OSM   H18U11136   7.072   3.014   9.160
  108OSM    C1F11137   6.125   3.439  10.378
  108OSM     OF11138   6.246   3.455  10.368
  108OSM    C2F11139   6.044   3.555  10.353
  108OSM    H2F11140   6.079   3.634  10.422
  108OSM    H2G11141   5.936   3.542  10.376
  108OSM    C3F11142   6.045   3.605  10.210
  108OSM    H3F11143   6.148   3.615  10.169
  108OSM    H3G11144   6.000   3.707  10.204
  108OSM    C4F11145   5.967   3.510  10.110
  108OSM    H4F11146   5.860   3.507  10.140
  108OSM    H4G11147   6.011   3.408  10.118
  108OSM    C5F11148   5.977   3.558   9.964
  108OSM    H5F11149   6.085   3.571   9.942
  108OSM    H5G11150   5.934   3.660   9.952
  108OSM    C6F11151   5.918   3.468   9.864
  108OSM    H6F11152   5.808   3.478   9.875
  108OSM    H6G11153   5.947   3.361   9.859
  108OSM    C7F11154   5.947   3.514   9.712
  108OSM    H7F11155   6.055   3.516   9.687
  108OSM    H7G11156   5.917   3.619   9.689
  108OSM    C8F11157   5.881   3.413   9.610
  108OSM    H8F11158   5.774   3.419   9.639
  108OSM    H8G11159   5.927   3.314   9.631
  108OSM    C9F11160   5.894   3.457   9.465
  108OSM    H9F11161   5.990   3.507   9.448
  108OSM   C10F11162   5.815   3.429   9.363
  108OSM   H10F11163   5.846   3.480   9.270
  108OSM   C11F11164   5.689   3.340   9.355
  108OSM   H11F11165   5.622   3.405   9.296
  108OSM   H11G11166   5.642   3.319   9.454
  108OSM   C12F11167   5.693   3.209   9.273
  108OSM   H12F11168   5.726   3.234   9.170
  108OSM   H12G11169   5.589   3.171   9.266
  108OSM   C13F11170   5.774   3.095   9.323
  108OSM   H13F11171   5.867   3.143   9.359
  108OSM   H13G11172   5.804   3.024   9.243
  108OSM   C14F11173   5.720   3.043   9.459
  108OSM   H14F11174   5.647   2.965   9.429
  108OSM   H14G11175   5.680   3.129   9.516
  108OSM   C15F11176   5.820   2.975   9.554
  108OSM   H15F11177   5.822   3.032   9.649
  108OSM   H15G11178   5.923   2.976   9.513
  108OSM   C16F11179   5.787   2.827   9.555
  108OSM   H16F11180   5.810   2.805   9.449
  108OSM   H16G11181   5.683   2.817   9.592
  108OSM   C17F11182   5.878   2.736   9.651
  108OSM   H17F11183   5.816   2.645   9.666
  108OSM   H17G11184   5.877   2.771   9.756
  108OSM   C18F11185   6.021   2.730   9.603
  108OSM   H18F11186   6.084   2.665   9.668
  108OSM   H18G11187   6.066   2.830   9.616
  108OSM   H18H11188   6.034   2.694   9.498
  109OSM      N11189   0.155   4.703  10.949
  109OSM    C1511190   0.183   4.571  10.889
  109OSM   H15A11191   0.237   4.583  10.797
  109OSM   H15B11192   0.093   4.521  10.855
  109OSM   H15C11193   0.247   4.509  10.949
  109OSM    C1411194   0.068   4.677  11.070
  109OSM   H14A11195  -0.033   4.669  11.032
  109OSM   H14B11196   0.060   4.755  11.144
  109OSM   H14C11197   0.094   4.587  11.124
  109OSM    C1311198   0.284   4.764  11.004
  109OSM   H13A11199   0.323   4.692  11.074
  109OSM   H13B11200   0.263   4.859  11.049
  109OSM   H13C11201   0.358   4.770  10.926
  109OSM    C1211202   0.091   4.804  10.856
  109OSM   H12A11203   0.162   4.828  10.778
  109OSM   H12B11204   0.066   4.892  10.914
  109OSM    C1111205  -0.045   4.760  10.787
  109OSM   H11A11206  -0.082   4.846  10.727
  109OSM   H11B11207  -0.127   4.731  10.856
  109OSM      P11208  -0.135   4.585  10.614
  109OSM    O1311209  -0.089   4.495  10.506
  109OSM    O1411210  -0.221   4.529  10.722
  109OSM    O1111211  -0.210   4.708  10.555
  109OSM    O1211212  -0.008   4.649  10.693
  109OSM    C1S11213  -0.147   4.802  10.465
  109OSM    H1S11214  -0.042   4.822  10.493
  109OSM    H1T11215  -0.200   4.899  10.471
  109OSM     NF11216  -0.054   4.841  10.254
  109OSM    HNF11217  -0.078   4.932  10.219
  109OSM    C2S11218  -0.150   4.759  10.319
  109OSM    H2S11219  -0.120   4.653  10.309
  109OSM    C3S11220  -0.293   4.776  10.267
  109OSM    H3S11221  -0.320   4.883  10.257
  109OSM     O311222  -0.400   4.716  10.341
  109OSM    HO311223  -0.356   4.679  10.418
  109OSM    C4S11224  -0.305   4.720  10.126
  109OSM    H4S11225  -0.283   4.613  10.115
  109OSM    C5S11226  -0.338   4.795  10.019
  109OSM    H5S11227  -0.315   4.903  10.021
  109OSM    C6S11228  -0.344   4.735   9.879
  109OSM    H6S11229  -0.355   4.824   9.812
  109OSM    H6T11230  -0.437   4.675   9.866
  109OSM    C7S11231  -0.220   4.659   9.828
  109OSM    H7S11232  -0.213   4.567   9.890
  109OSM    H7T11233  -0.127   4.718   9.843
  109OSM    C8S11234  -0.230   4.614   9.679
  109OSM    H8S11235  -0.307   4.534   9.677
  109OSM    H8T11236  -0.136   4.572   9.637
  109OSM    C9S11237  -0.295   4.717   9.593
  109OSM    H9S11238  -0.260   4.819   9.619
  109OSM    H9T11239  -0.405   4.714   9.611
  109OSM   C10S11240  -0.260   4.697   9.441
  109OSM   H10S11241  -0.305   4.600   9.410
  109OSM   H10T11242  -0.151   4.704   9.420
  109OSM   C11S11243  -0.330   4.803   9.364
  109OSM   H11S11244  -0.285   4.898   9.400
  109OSM   H11T11245  -0.436   4.812   9.395
  109OSM   C12S11246  -0.314   4.785   9.210
  109OSM   H12S11247  -0.211   4.811   9.176
  109OSM   H12T11248  -0.381   4.857   9.159
  109OSM   C13S11249  -0.349   4.643   9.170
  109OSM   H13S11250  -0.451   4.620   9.207
  109OSM   H13T11251  -0.274   4.581   9.224
  109OSM   C14S11252  -0.346   4.616   9.019
  109OSM   H14S11253  -0.252   4.656   8.974
  109OSM   H14T11254  -0.437   4.659   8.972
  109OSM   C15S11255  -0.344   4.471   8.972
  109OSM   H15S11256  -0.441   4.426   9.001
  109OSM   H15T11257  -0.255   4.425   9.020
  109OSM   C16S11258  -0.331   4.449   8.821
  109OSM   H16S11259  -0.339   4.340   8.801
  109OSM   H16T11260  -0.232   4.483   8.784
  109OSM   C17S11261  -0.439   4.537   8.739
  109OSM   H17S11262  -0.417   4.643   8.766
  109OSM   H17T11263  -0.534   4.506   8.788
  109OSM   C18S11264  -0.438   4.507   8.589
  109OSM   H18S11265  -0.520   4.567   8.544
  109OSM   H18T11266  -0.453   4.401   8.559
  109OSM   H18U11267  -0.343   4.546   8.547
  109OSM    C1F11268   0.081   4.814  10.252
  109OSM     OF11269   0.126   4.710  10.301
  109OSM    C2F11270   0.165   4.908  10.190
  109OSM    H2F11271   0.223   4.961  10.268
  109OSM    H2G11272   0.101   4.979  10.133
  109OSM    C3F11273   0.279   4.838  10.110
  109OSM    H3F11274   0.334   4.764  10.172
  109OSM    H3G11275   0.353   4.916  10.081
  109OSM    C4F11276   0.223   4.776   9.984
  109OSM    H4F11277   0.164   4.685  10.007
  109OSM    H4G11278   0.308   4.747   9.918
  109OSM    C5F11279   0.136   4.883   9.904
  109OSM    H5F11280   0.179   4.985   9.906
  109OSM    H5G11281   0.039   4.891   9.957
  109OSM    C6F11282   0.103   4.840   9.754
  109OSM    H6F11283   0.006   4.890   9.734
  109OSM    H6G11284   0.089   4.731   9.737
  109OSM    C7F11285   0.202   4.893   9.649
  109OSM    H7F11286   0.303   4.854   9.674
  109OSM    H7G11287   0.181   5.000   9.666
  109OSM    C8F11288   0.174   4.869   9.499
  109OSM    H8F11289   0.247   4.930   9.441
  109OSM    H8G11290   0.071   4.899   9.470
  109OSM    C9F11291   0.192   4.724   9.468
  109OSM    H9F11292   0.192   4.666   9.562
  109OSM   C10F11293   0.202   4.671   9.351
  109OSM   H10F11294   0.198   4.562   9.343
  109OSM   C11F11295   0.207   4.748   9.219
  109OSM   H11F11296   0.307   4.735   9.173
  109OSM   H11G11297   0.191   4.857   9.235
  109OSM   C12F11298   0.101   4.698   9.117
  109OSM   H12F11299  -0.005   4.689   9.149
  109OSM   H12G11300   0.123   4.599   9.071
  109OSM   C13F11301   0.110   4.806   9.000
  109OSM   H13F11302   0.214   4.820   8.962
  109OSM   H13G11303   0.077   4.898   9.053
  109OSM   C14F11304   0.034   4.772   8.872
  109OSM   H14F11305   0.040   4.852   8.795
  109OSM   H14G11306  -0.073   4.774   8.901
  109OSM   C15F11307   0.071   4.642   8.800
  109OSM   H15F11308   0.016   4.560   8.850
  109OSM   H15G11309   0.181   4.631   8.785
  109OSM   C16F11310   0.015   4.636   8.659
  109OSM   H16F11311   0.040   4.727   8.599
  109OSM   H16G11312  -0.095   4.653   8.659
  109OSM   C17F11313   0.038   4.505   8.577
  109OSM   H17F11314  -0.006   4.422   8.635
  109OSM   H17G11315   0.147   4.485   8.565
  109OSM   C18F11316  -0.023   4.512   8.437
  109OSM   H18F11317   0.020   4.446   8.359
  109OSM   H18G11318  -0.014   4.610   8.386
  109OSM   H18H11319  -0.131   4.483   8.441
  110OSM      N11320   1.781   4.231  11.082
  110OSM    C1511321   1.927   4.250  11.063
  110OSM   H15A11322   1.941   4.330  10.992
  110OSM   H15B11323   1.974   4.156  11.040
  110OSM   H15C11324   1.976   4.291  11.150
  110OSM    C1411325   1.748   4.108  11.156
  110OSM   H14A11326   1.809   4.022  11.133
  110OSM   H14B11327   1.646   4.073  11.145
  110OSM   H14C11328   1.756   4.126  11.262
  110OSM    C1311329   1.717   4.351  11.148
  110OSM   H13A11330   1.612   4.326  11.159
  110OSM   H13B11331   1.728   4.434  11.080
  110OSM   H13C11332   1.767   4.378  11.240
  110OSM    C1211333   1.721   4.221  10.941
  110OSM   H12A11334   1.712   4.320  10.899
  110OSM   H12B11335   1.616   4.201  10.954
  110OSM    C1111336   1.783   4.134  10.836
  110OSM   H11A11337   1.884   4.165  10.804
  110OSM   H11B11338   1.743   4.163  10.736
  110OSM      P11339   1.640   3.923  10.843
  110OSM    O1311340   1.661   3.775  10.880
  110OSM    O1411341   1.540   4.000  10.918
  110OSM    O1111342   1.598   3.929  10.688
  110OSM    O1211343   1.777   3.992  10.860
  110OSM    C1S11344   1.450   3.919  10.653
  110OSM    H1S11345   1.402   4.018  10.669
  110OSM    H1T11346   1.398   3.845  10.717
  110OSM     NF11347   1.287   3.877  10.462
  110OSM    HNF11348   1.240   3.794  10.435
  110OSM    C2S11349   1.429   3.877  10.505
  110OSM    H2S11350   1.495   3.945  10.448
  110OSM    C3S11351   1.489   3.740  10.475
  110OSM    H3S11352   1.417   3.665  10.516
  110OSM     O311353   1.613   3.708  10.542
  110OSM    HO311354   1.610   3.770  10.615
  110OSM    C4S11355   1.496   3.700  10.325
  110OSM    H4S11356   1.401   3.666  10.280
  110OSM    C5S11357   1.610   3.702  10.250
  110OSM    H5S11358   1.705   3.732  10.297
  110OSM    C6S11359   1.613   3.682  10.101
  110OSM    H6S11360   1.719   3.662  10.075
  110OSM    H6T11361   1.576   3.764  10.035
  110OSM    C7S11362   1.541   3.549  10.065
  110OSM    H7S11363   1.433   3.573  10.055
  110OSM    H7T11364   1.550   3.467  10.139
  110OSM    C8S11365   1.574   3.484   9.927
  110OSM    H8S11366   1.492   3.410   9.916
  110OSM    H8T11367   1.674   3.435   9.919
  110OSM    C9S11368   1.553   3.586   9.808
  110OSM    H9S11369   1.639   3.653   9.825
  110OSM    H9T11370   1.450   3.622   9.827
  110OSM   C10S11371   1.556   3.505   9.674
  110OSM   H10S11372   1.477   3.427   9.686
  110OSM   H10T11373   1.657   3.458   9.671
  110OSM   C11S11374   1.534   3.588   9.539
  110OSM   H11S11375   1.628   3.631   9.499
  110OSM   H11T11376   1.476   3.679   9.566
  110OSM   C12S11377   1.466   3.506   9.420
  110OSM   H12S11378   1.426   3.579   9.346
  110OSM   H12T11379   1.378   3.442   9.440
  110OSM   C13S11380   1.561   3.405   9.354
  110OSM   H13S11381   1.586   3.332   9.434
  110OSM   H13T11382   1.656   3.459   9.337
  110OSM   C14S11383   1.518   3.341   9.222
  110OSM   H14S11384   1.415   3.299   9.230
  110OSM   H14T11385   1.588   3.261   9.191
  110OSM   C15S11386   1.509   3.450   9.110
  110OSM   H15S11387   1.599   3.515   9.114
  110OSM   H15T11388   1.420   3.515   9.126
  110OSM   C16S11389   1.497   3.388   8.970
  110OSM   H16S11390   1.505   3.277   8.979
  110OSM   H16T11391   1.578   3.428   8.905
  110OSM   C17S11392   1.359   3.411   8.914
  110OSM   H17S11393   1.324   3.516   8.925
  110OSM   H17T11394   1.288   3.343   8.965
  110OSM   C18S11395   1.362   3.396   8.760
  110OSM   H18S11396   1.433   3.470   8.715
  110OSM   H18T11397   1.261   3.414   8.717
  110OSM   H18U11398   1.382   3.289   8.735
  110OSM    C1F11399   1.213   3.992  10.458
  110OSM     OF11400   1.264   4.098  10.490
  110OSM    C2F11401   1.063   3.983  10.436
  110OSM    H2F11402   1.018   4.014  10.533
  110OSM    H2G11403   1.034   3.877  10.418
  110OSM    C3F11404   1.029   4.063  10.306
  110OSM    H3F11405   1.096   4.031  10.223
  110OSM    H3G11406   1.059   4.166  10.332
  110OSM    C4F11407   0.881   4.050  10.268
  110OSM    H4F11408   0.823   4.069  10.360
  110OSM    H4G11409   0.848   3.949  10.236
  110OSM    C5F11410   0.839   4.155  10.158
  110OSM    H5F11411   0.862   4.259  10.192
  110OSM    H5G11412   0.733   4.153  10.124
  110OSM    C6F11413   0.930   4.142  10.027
  110OSM    H6F11414   0.921   4.037   9.992
  110OSM    H6G11415   1.037   4.151  10.055
  110OSM    C7F11416   0.886   4.234   9.908
  110OSM    H7F11417   0.903   4.340   9.937
  110OSM    H7G11418   0.782   4.215   9.873
  110OSM    C8F11419   0.972   4.202   9.779
  110OSM    H8F11420   1.078   4.222   9.806
  110OSM    H8G11421   0.946   4.282   9.707
  110OSM    C9F11422   0.953   4.065   9.713
  110OSM    H9F11423   1.003   3.989   9.774
  110OSM   C10F11424   0.887   4.036   9.598
  110OSM   H10F11425   0.896   3.934   9.557
  110OSM   C11F11426   0.809   4.140   9.513
  110OSM   H11F11427   0.774   4.233   9.563
  110OSM   H11G11428   0.718   4.088   9.476
  110OSM   C12F11429   0.893   4.185   9.394
  110OSM   H12F11430   0.999   4.215   9.409
  110OSM   H12G11431   0.840   4.268   9.344
  110OSM   C13F11432   0.916   4.076   9.295
  110OSM   H13F11433   0.831   4.006   9.308
  110OSM   H13G11434   1.003   4.012   9.322
  110OSM   C14F11435   0.931   4.108   9.147
  110OSM   H14F11436   0.828   4.141   9.125
  110OSM   H14G11437   0.954   4.018   9.087
  110OSM   C15F11438   1.042   4.207   9.115
  110OSM   H15F11439   1.134   4.167   9.164
  110OSM   H15G11440   1.017   4.307   9.156
  110OSM   C16F11441   1.073   4.212   8.973
  110OSM   H16F11442   0.974   4.242   8.933
  110OSM   H16G11443   1.109   4.117   8.929
  110OSM   C17F11444   1.177   4.316   8.937
  110OSM   H17F11445   1.270   4.277   8.985
  110OSM   H17G11446   1.166   4.409   8.997
  110OSM   C18F11447   1.196   4.351   8.790
  110OSM   H18F11448   1.256   4.285   8.724
  110OSM   H18G11449   1.250   4.448   8.786
  110OSM   H18H11450   1.099   4.373   8.741
  111OSM      N11451   2.056   0.525  11.124
  111OSM    C1511452   2.208   0.518  11.151
  111OSM   H15A11453   2.226   0.470  11.246
  111OSM   H15B11454   2.250   0.617  11.163
  111OSM   H15C11455   2.261   0.462  11.076
  111OSM    C1411456   2.005   0.383  11.126
  111OSM   H14A11457   1.900   0.373  11.105
  111OSM   H14B11458   2.040   0.347  11.222
  111OSM   H14C11459   2.067   0.337  11.051
  111OSM    C1311460   1.991   0.587  11.236
  111OSM   H13A11461   1.883   0.592  11.228
  111OSM   H13B11462   2.021   0.690  11.249
  111OSM   H13C11463   2.002   0.532  11.328
  111OSM    C1211464   2.034   0.596  10.992
  111OSM   H12A11465   2.094   0.686  10.995
  111OSM   H12B11466   1.929   0.618  10.977
  111OSM    C1111467   2.096   0.528  10.861
  111OSM   H11A11468   2.048   0.584  10.778
  111OSM   H11B11469   2.067   0.422  10.849
  111OSM      P11470   2.325   0.659  10.828
  111OSM    O1311471   2.283   0.774  10.912
  111OSM    O1411472   2.465   0.614  10.837
  111OSM    O1111473   2.287   0.678  10.675
  111OSM    O1211474   2.239   0.535  10.876
  111OSM    C1S11475   2.272   0.570  10.581
  111OSM    H1S11476   2.240   0.481  10.640
  111OSM    H1T11477   2.368   0.555  10.527
  111OSM     NF11478   2.168   0.483  10.378
  111OSM    HNF11479   2.240   0.464  10.311
  111OSM    C2S11480   2.182   0.598  10.463
  111OSM    H2S11481   2.087   0.634  10.509
  111OSM    C3S11482   2.222   0.721  10.383
  111OSM    H3S11483   2.330   0.706  10.360
  111OSM     O311484   2.231   0.839  10.467
  111OSM    HO311485   2.257   0.802  10.552
  111OSM    C4S11486   2.140   0.738  10.262
  111OSM    H4S11487   2.190   0.692  10.175
  111OSM    C5S11488   2.025   0.804  10.262
  111OSM    H5S11489   1.983   0.840  10.357
  111OSM    C6S11490   1.927   0.811  10.141
  111OSM    H6S11491   1.957   0.902  10.084
  111OSM    H6T11492   1.822   0.831  10.173
  111OSM    C7S11493   1.952   0.704  10.028
  111OSM    H7S11494   1.858   0.719   9.971
  111OSM    H7T11495   1.955   0.603  10.075
  111OSM    C8S11496   2.071   0.725   9.932
  111OSM    H8S11497   2.168   0.702   9.982
  111OSM    H8T11498   2.065   0.822   9.878
  111OSM    C9S11499   2.062   0.620   9.812
  111OSM    H9S11500   1.965   0.609   9.760
  111OSM    H9T11501   2.083   0.520   9.856
  111OSM   C10S11502   2.158   0.657   9.697
  111OSM   H10S11503   2.251   0.699   9.742
  111OSM   H10T11504   2.126   0.748   9.641
  111OSM   C11S11505   2.214   0.546   9.613
  111OSM   H11S11506   2.241   0.461   9.680
  111OSM   H11T11507   2.308   0.581   9.565
  111OSM   C12S11508   2.114   0.495   9.503
  111OSM   H12S11509   2.061   0.586   9.467
  111OSM   H12T11510   2.025   0.444   9.545
  111OSM   C13S11511   2.179   0.409   9.398
  111OSM   H13S11512   2.218   0.323   9.456
  111OSM   H13T11513   2.251   0.478   9.348
  111OSM   C14S11514   2.077   0.347   9.290
  111OSM   H14S11515   2.035   0.431   9.230
  111OSM   H14T11516   2.002   0.281   9.339
  111OSM   C15S11517   2.136   0.256   9.180
  111OSM   H15S11518   2.052   0.214   9.121
  111OSM   H15T11519   2.168   0.169   9.241
  111OSM   C16S11520   2.246   0.307   9.088
  111OSM   H16S11521   2.313   0.225   9.053
  111OSM   H16T11522   2.300   0.389   9.139
  111OSM   C17S11523   2.197   0.381   8.958
  111OSM   H17S11524   2.120   0.456   8.986
  111OSM   H17T11525   2.138   0.309   8.898
  111OSM   C18S11526   2.307   0.448   8.884
  111OSM   H18S11527   2.355   0.521   8.954
  111OSM   H18T11528   2.270   0.502   8.795
  111OSM   H18U11529   2.376   0.373   8.839
  111OSM    C1F11530   2.092   0.390  10.427
  111OSM     OF11531   2.019   0.412  10.531
  111OSM    C2F11532   2.097   0.250  10.357
  111OSM    H2F11533   2.039   0.167  10.402
  111OSM    H2G11534   2.202   0.215  10.359
  111OSM    C3F11535   2.049   0.257  10.217
  111OSM    H3F11536   2.077   0.353  10.168
  111OSM    H3G11537   1.938   0.248  10.212
  111OSM    C4F11538   2.105   0.136  10.138
  111OSM    H4F11539   2.065   0.043  10.186
  111OSM    H4G11540   2.215   0.147  10.149
  111OSM    C5F11541   2.069   0.145   9.990
  111OSM    H5F11542   2.109   0.052   9.944
  111OSM    H5G11543   2.118   0.232   9.940
  111OSM    C6F11544   1.922   0.155   9.968
  111OSM    H6F11545   1.900   0.264   9.978
  111OSM    H6G11546   1.863   0.090  10.035
  111OSM    C7F11547   1.881   0.114   9.825
  111OSM    H7F11548   1.777   0.147   9.803
  111OSM    H7G11549   1.884   0.003   9.818
  111OSM    C8F11550   1.976   0.178   9.720
  111OSM    H8F11551   2.084   0.158   9.733
  111OSM    H8G11552   1.968   0.287   9.738
  111OSM    C9F11553   1.934   0.146   9.578
  111OSM    H9F11554   1.837   0.190   9.553
  111OSM   C10F11555   2.000   0.067   9.494
  111OSM   H10F11556   1.962   0.033   9.397
  111OSM   C11F11557   2.131  -0.008   9.525
  111OSM   H11F11558   2.111  -0.103   9.578
  111OSM   H11G11559   2.205   0.044   9.590
  111OSM   C12F11560   2.211  -0.050   9.402
  111OSM   H12F11561   2.270   0.039   9.371
  111OSM   H12G11562   2.153  -0.092   9.317
  111OSM   C13F11563   2.319  -0.160   9.436
  111OSM   H13F11564   2.255  -0.242   9.474
  111OSM   H13G11565   2.375  -0.116   9.521
  111OSM   C14F11566   2.404  -0.203   9.320
  111OSM   H14F11567   2.463  -0.291   9.355
  111OSM   H14G11568   2.479  -0.126   9.291
  111OSM   C15F11569   2.327  -0.244   9.190
  111OSM   H15F11570   2.276  -0.153   9.151
  111OSM   H15G11571   2.242  -0.313   9.211
  111OSM   C16F11572   2.423  -0.295   9.073
  111OSM   H16F11573   2.481  -0.385   9.101
  111OSM   H16G11574   2.488  -0.212   9.038
  111OSM   C17F11575   2.325  -0.357   8.969
  111OSM   H17F11576   2.241  -0.292   8.938
  111OSM   H17G11577   2.297  -0.452   9.019
  111OSM   C18F11578   2.394  -0.383   8.836
  111OSM   H18F11579   2.468  -0.465   8.847
  111OSM   H18G11580   2.447  -0.295   8.795
  111OSM   H18H11581   2.317  -0.418   8.764
  112OSM      N11582   3.057   4.831  10.884
  112OSM    C1511583   3.026   4.861  11.021
  112OSM   H15A11584   2.989   4.963  11.016
  112OSM   H15B11585   3.118   4.859  11.078
  112OSM   H15C11586   2.956   4.786  11.054
  112OSM    C1411587   3.126   4.949  10.830
  112OSM   H14A11588   3.225   4.964  10.870
  112OSM   H14B11589   3.082   5.044  10.854
  112OSM   H14C11590   3.136   4.947  10.722
  112OSM    C1311591   3.155   4.715  10.872
  112OSM   H13A11592   3.247   4.728  10.928
  112OSM   H13B11593   3.181   4.694  10.769
  112OSM   H13C11594   3.107   4.629  10.916
  112OSM    C1211595   2.933   4.805  10.807
  112OSM   H12A11596   2.954   4.817  10.701
  112OSM   H12B11597   2.855   4.876  10.830
  112OSM    C1111598   2.861   4.670  10.833
  112OSM   H11A11599   2.944   4.596  10.824
  112OSM   H11B11600   2.786   4.641  10.757
  112OSM      P11601   2.658   4.739  10.998
  112OSM    O1311602   2.608   4.671  11.121
  112OSM    O1411603   2.686   4.884  11.014
  112OSM    O1111604   2.562   4.711  10.875
  112OSM    O1211605   2.795   4.675  10.960
  112OSM    C1S11606   2.536   4.811  10.776
  112OSM    H1S11607   2.622   4.873  10.743
  112OSM    H1T11608   2.465   4.888  10.810
  112OSM     NF11609   2.455   4.846  10.547
  112OSM    HNF11610   2.364   4.881  10.525
  112OSM    C2S11611   2.476   4.750  10.647
  112OSM    H2S11612   2.536   4.663  10.611
  112OSM    C3S11613   2.332   4.692  10.673
  112OSM    H3S11614   2.264   4.780  10.664
  112OSM     O311615   2.318   4.635  10.804
  112OSM    HO311616   2.401   4.657  10.846
  112OSM    C4S11617   2.281   4.603  10.556
  112OSM    H4S11618   2.256   4.656  10.463
  112OSM    C5S11619   2.280   4.469  10.558
  112OSM    H5S11620   2.316   4.408  10.642
  112OSM    C6S11621   2.242   4.380  10.440
  112OSM    H6S11622   2.131   4.381  10.433
  112OSM    H6T11623   2.263   4.273  10.459
  112OSM    C7S11624   2.298   4.436  10.309
  112OSM    H7S11625   2.408   4.452  10.313
  112OSM    H7T11626   2.250   4.531  10.279
  112OSM    C8S11627   2.264   4.344  10.194
  112OSM    H8S11628   2.164   4.298  10.210
  112OSM    H8T11629   2.336   4.260  10.207
  112OSM    C9S11630   2.279   4.394  10.052
  112OSM    H9S11631   2.383   4.426  10.029
  112OSM    H9T11632   2.203   4.475  10.049
  112OSM   C10S11633   2.239   4.298   9.935
  112OSM   H10S11634   2.136   4.257   9.938
  112OSM   H10T11635   2.305   4.209   9.945
  112OSM   C11S11636   2.268   4.372   9.803
  112OSM   H11S11637   2.360   4.434   9.813
  112OSM   H11T11638   2.177   4.427   9.771
  112OSM   C12S11639   2.299   4.281   9.679
  112OSM   H12S11640   2.206   4.220   9.676
  112OSM   H12T11641   2.389   4.219   9.695
  112OSM   C13S11642   2.309   4.361   9.555
  112OSM   H13S11643   2.404   4.419   9.552
  112OSM   H13T11644   2.219   4.426   9.547
  112OSM   C14S11645   2.299   4.263   9.437
  112OSM   H14S11646   2.222   4.185   9.454
  112OSM   H14T11647   2.396   4.215   9.413
  112OSM   C15S11648   2.277   4.347   9.311
  112OSM   H15S11649   2.373   4.400   9.291
  112OSM   H15T11650   2.192   4.415   9.333
  112OSM   C16S11651   2.235   4.276   9.179
  112OSM   H16S11652   2.148   4.210   9.198
  112OSM   H16T11653   2.315   4.206   9.148
  112OSM   C17S11654   2.197   4.376   9.072
  112OSM   H17S11655   2.272   4.456   9.091
  112OSM   H17T11656   2.104   4.435   9.082
  112OSM   C18S11657   2.209   4.317   8.936
  112OSM   H18S11658   2.318   4.319   8.916
  112OSM   H18T11659   2.155   4.378   8.860
  112OSM   H18U11660   2.185   4.209   8.939
  112OSM    C1F11661   2.563   4.901  10.481
  112OSM     OF11662   2.675   4.876  10.514
  112OSM    C2F11663   2.536   4.989  10.358
  112OSM    H2F11664   2.570   5.092  10.378
  112OSM    H2G11665   2.427   4.979  10.340
  112OSM    C3F11666   2.606   4.926  10.234
  112OSM    H3F11667   2.715   4.917  10.253
  112OSM    H3G11668   2.601   5.009  10.161
  112OSM    C4F11669   2.540   4.802  10.174
  112OSM    H4F11670   2.433   4.805  10.202
  112OSM    H4G11671   2.589   4.714  10.220
  112OSM    C5F11672   2.562   4.796  10.022
  112OSM    H5F11673   2.670   4.806  10.000
  112OSM    H5G11674   2.513   4.881   9.970
  112OSM    C6F11675   2.523   4.665   9.963
  112OSM    H6F11676   2.414   4.648   9.945
  112OSM    H6G11677   2.558   4.586  10.033
  112OSM    C7F11678   2.589   4.630   9.827
  112OSM    H7F11679   2.607   4.521   9.825
  112OSM    H7G11680   2.688   4.679   9.816
  112OSM    C8F11681   2.505   4.675   9.713
  112OSM    H8F11682   2.507   4.785   9.728
  112OSM    H8G11683   2.399   4.644   9.712
  112OSM    C9F11684   2.570   4.642   9.581
  112OSM    H9F11685   2.591   4.537   9.558
  112OSM   C10F11686   2.590   4.729   9.477
  112OSM   H10F11687   2.637   4.699   9.382
  112OSM   C11F11688   2.548   4.869   9.487
  112OSM   H11F11689   2.631   4.919   9.540
  112OSM   H11G11690   2.455   4.869   9.549
  112OSM   C12F11691   2.524   4.944   9.359
  112OSM   H12F11692   2.423   4.933   9.315
  112OSM   H12G11693   2.593   4.911   9.277
  112OSM   C13F11694   2.540   5.097   9.373
  112OSM   H13F11695   2.639   5.118   9.418
  112OSM   H13G11696   2.455   5.144   9.427
  112OSM   C14F11697   2.541   5.170   9.241
  112OSM   H14F11698   2.614   5.118   9.176
  112OSM   H14G11699   2.577   5.271   9.267
  112OSM   C15F11700   2.407   5.181   9.173
  112OSM   H15F11701   2.344   5.240   9.243
  112OSM   H15G11702   2.368   5.078   9.158
  112OSM   C16F11703   2.412   5.252   9.039
  112OSM   H16F11704   2.455   5.187   8.959
  112OSM   H16G11705   2.473   5.344   9.044
  112OSM   C17F11706   2.262   5.293   9.011
  112OSM   H17F11707   2.211   5.338   9.099
  112OSM   H17G11708   2.209   5.202   8.976
  112OSM   C18F11709   2.262   5.385   8.891
  112OSM   H18F11710   2.156   5.403   8.863
  112OSM   H18G11711   2.313   5.334   8.806
  112OSM   H18H11712   2.315   5.481   8.910
  113OSM      N11713   6.421   1.496  11.409
  113OSM    C1511714   6.365   1.387  11.505
  113OSM   H15A11715   6.427   1.376  11.592
  113OSM   H15B11716   6.360   1.290  11.457
  113OSM   H15C11717   6.266   1.410  11.541
  113OSM    C1411718   6.423   1.626  11.482
  113OSM   H14A11719   6.325   1.670  11.484
  113OSM   H14B11720   6.486   1.704  11.440
  113OSM   H14C11721   6.450   1.610  11.585
  113OSM    C1311722   6.561   1.463  11.374
  113OSM   H13A11723   6.577   1.359  11.347
  113OSM   H13B11724   6.631   1.485  11.453
  113OSM   H13C11725   6.594   1.516  11.285
  113OSM    C1211726   6.336   1.512  11.285
  113OSM   H12A11727   6.238   1.521  11.330
  113OSM   H12B11728   6.348   1.420  11.230
  113OSM    C1111729   6.384   1.632  11.185
  113OSM   H11A11730   6.383   1.728  11.241
  113OSM   H11B11731   6.301   1.658  11.115
  113OSM      P11732   6.515   1.504  11.009
  113OSM    O1311733   6.647   1.525  10.940
  113OSM    O1411734   6.490   1.371  11.062
  113OSM    O1111735   6.400   1.547  10.905
  113OSM    O1211736   6.514   1.604  11.133
  113OSM    C1S11737   6.432   1.573  10.768
  113OSM    H1S11738   6.475   1.482  10.720
  113OSM    H1T11739   6.514   1.648  10.768
  113OSM     NF11740   6.347   1.646  10.555
  113OSM    HNF11741   6.389   1.732  10.527
  113OSM    C2S11742   6.313   1.631  10.694
  113OSM    H2S11743   6.240   1.548  10.698
  113OSM    C3S11744   6.269   1.764  10.761
  113OSM    H3S11745   6.359   1.828  10.779
  113OSM     O311746   6.211   1.736  10.889
  113OSM    HO311747   6.251   1.653  10.915
  113OSM    C4S11748   6.165   1.823  10.674
  113OSM    H4S11749   6.079   1.756  10.659
  113OSM    C5S11750   6.161   1.951  10.628
  113OSM    H5S11751   6.238   2.025  10.654
  113OSM    C6S11752   6.054   2.004  10.535
  113OSM    H6S11753   5.991   2.074  10.596
  113OSM    H6T11754   5.990   1.920  10.502
  113OSM    C7S11755   6.110   2.086  10.418
  113OSM    H7S11756   6.176   2.169  10.450
  113OSM    H7T11757   6.021   2.132  10.370
  113OSM    C8S11758   6.177   1.995  10.311
  113OSM    H8S11759   6.104   1.912  10.296
  113OSM    H8T11760   6.270   1.957  10.359
  113OSM    C9S11761   6.210   2.062  10.176
  113OSM    H9S11762   6.275   2.147  10.207
  113OSM    H9T11763   6.112   2.093  10.132
  113OSM   C10S11764   6.298   1.980  10.082
  113OSM   H10S11765   6.251   1.879  10.077
  113OSM   H10T11766   6.400   1.969  10.124
  113OSM   C11S11767   6.299   2.035   9.943
  113OSM   H11S11768   6.349   2.133   9.957
  113OSM   H11T11769   6.195   2.042   9.903
  113OSM   C12S11770   6.371   1.936   9.847
  113OSM   H12S11771   6.298   1.853   9.839
  113OSM   H12T11772   6.463   1.889   9.886
  113OSM   C13S11773   6.377   1.989   9.695
  113OSM   H13S11774   6.434   2.084   9.689
  113OSM   H13T11775   6.269   2.010   9.680
  113OSM   C14S11776   6.417   1.889   9.585
  113OSM   H14S11777   6.360   1.796   9.607
  113OSM   H14T11778   6.523   1.861   9.598
  113OSM   C15S11779   6.406   1.948   9.449
  113OSM   H15S11780   6.491   2.019   9.439
  113OSM   H15T11781   6.310   2.002   9.449
  113OSM   C16S11782   6.407   1.835   9.346
  113OSM   H16S11783   6.319   1.772   9.370
  113OSM   H16T11784   6.498   1.777   9.373
  113OSM   C17S11785   6.419   1.899   9.205
  113OSM   H17S11786   6.516   1.954   9.211
  113OSM   H17T11787   6.337   1.973   9.193
  113OSM   C18S11788   6.417   1.793   9.101
  113OSM   H18S11789   6.497   1.718   9.121
  113OSM   H18T11790   6.443   1.833   9.001
  113OSM   H18U11791   6.321   1.738   9.095
  113OSM    C1F11792   6.373   1.550  10.476
  113OSM     OF11793   6.348   1.428  10.499
  113OSM    C2F11794   6.465   1.586  10.365
  113OSM    H2F11795   6.565   1.547  10.394
  113OSM    H2G11796   6.492   1.693  10.359
  113OSM    C3F11797   6.427   1.528  10.229
  113OSM    H3F11798   6.320   1.552  10.212
  113OSM    H3G11799   6.441   1.418  10.227
  113OSM    C4F11800   6.508   1.591  10.116
  113OSM    H4F11801   6.614   1.564  10.137
  113OSM    H4G11802   6.507   1.701  10.128
  113OSM    C5F11803   6.456   1.554   9.979
  113OSM    H5F11804   6.350   1.585   9.970
  113OSM    H5G11805   6.445   1.444   9.974
  113OSM    C6F11806   6.565   1.581   9.868
  113OSM    H6F11807   6.655   1.520   9.888
  113OSM    H6G11808   6.606   1.684   9.876
  113OSM    C7F11809   6.515   1.557   9.731
  113OSM    H7F11810   6.430   1.626   9.713
  113OSM    H7G11811   6.465   1.458   9.738
  113OSM    C8F11812   6.618   1.572   9.612
  113OSM    H8F11813   6.668   1.670   9.599
  113OSM    H8G11814   6.564   1.562   9.516
  113OSM    C9F11815   6.726   1.472   9.621
  113OSM    H9F11816   6.727   1.427   9.721
  113OSM   C10F11817   6.827   1.472   9.539
  113OSM   H10F11818   6.910   1.403   9.555
  113OSM   C11F11819   6.840   1.559   9.414
  113OSM   H11F11820   6.944   1.555   9.375
  113OSM   H11G11821   6.823   1.666   9.440
  113OSM   C12F11822   6.752   1.517   9.290
  113OSM   H12F11823   6.744   1.610   9.229
  113OSM   H12G11824   6.653   1.482   9.326
  113OSM   C13F11825   6.802   1.398   9.209
  113OSM   H13F11826   6.831   1.306   9.264
  113OSM   H13G11827   6.899   1.434   9.169
  113OSM   C14F11828   6.721   1.362   9.092
  113OSM   H14F11829   6.695   1.460   9.048
  113OSM   H14G11830   6.631   1.311   9.133
  113OSM   C15F11831   6.800   1.275   8.990
  113OSM   H15F11832   6.839   1.181   9.036
  113OSM   H15G11833   6.873   1.347   8.948
  113OSM   C16F11834   6.712   1.232   8.873
  113OSM   H16F11835   6.777   1.196   8.791
  113OSM   H16G11836   6.649   1.318   8.841
  113OSM   C17F11837   6.630   1.110   8.910
  113OSM   H17F11838   6.558   1.147   8.986
  113OSM   H17G11839   6.702   1.041   8.959
  113OSM   C18F11840   6.557   1.042   8.789
  113OSM   H18F11841   6.627   1.028   8.704
  113OSM   H18G11842   6.481   1.109   8.742
  113OSM   H18H11843   6.513   0.944   8.817
  114OSM      N11844   0.992   4.640  11.119
  114OSM    C1511845   0.862   4.708  11.075
  114OSM   H15A11846   0.876   4.782  10.997
  114OSM   H15B11847   0.827   4.774  11.154
  114OSM   H15C11848   0.779   4.644  11.050
  114OSM    C1411849   1.091   4.746  11.161
  114OSM   H14A11850   1.189   4.701  11.155
  114OSM   H14B11851   1.075   4.789  11.258
  114OSM   H14C11852   1.099   4.829  11.092
  114OSM    C1311853   0.961   4.554  11.233
  114OSM   H13A11854   0.873   4.495  11.212
  114OSM   H13B11855   0.929   4.618  11.313
  114OSM   H13C11856   1.040   4.487  11.265
  114OSM    C1211857   1.052   4.573  10.994
  114OSM   H12A11858   1.070   4.642  10.912
  114OSM   H12B11859   0.980   4.510  10.945
  114OSM    C1111860   1.181   4.494  11.023
  114OSM   H11A11861   1.200   4.429  10.935
  114OSM   H11B11862   1.163   4.425  11.108
  114OSM      P11863   1.436   4.540  11.028
  114OSM    O1311864   1.524   4.631  11.105
  114OSM    O1411865   1.450   4.395  11.052
  114OSM    O1111866   1.462   4.562  10.876
  114OSM    O1211867   1.284   4.581  11.050
  114OSM    C1S11868   1.380   4.513  10.770
  114OSM    H1S11869   1.282   4.563  10.752
  114OSM    H1T11870   1.365   4.404  10.778
  114OSM     NF11871   1.371   4.479  10.520
  114OSM    HNF11872   1.390   4.390  10.480
  114OSM    C2S11873   1.457   4.519  10.631
  114OSM    H2S11874   1.475   4.628  10.618
  114OSM    C3S11875   1.598   4.449  10.633
  114OSM    H3S11876   1.584   4.342  10.662
  114OSM     O311877   1.683   4.484  10.741
  114OSM    HO311878   1.623   4.501  10.814
  114OSM    C4S11879   1.670   4.449  10.500
  114OSM    H4S11880   1.667   4.359  10.437
  114OSM    C5S11881   1.755   4.550  10.461
  114OSM    H5S11882   1.774   4.633  10.531
  114OSM    C6S11883   1.818   4.578  10.328
  114OSM    H6S11884   1.929   4.569  10.335
  114OSM    H6T11885   1.796   4.683  10.300
  114OSM    C7S11886   1.778   4.485  10.211
  114OSM    H7S11887   1.668   4.488  10.200
  114OSM    H7T11888   1.808   4.379  10.227
  114OSM    C8S11889   1.839   4.540  10.082
  114OSM    H8S11890   1.949   4.532  10.091
  114OSM    H8T11891   1.786   4.638  10.080
  114OSM    C9S11892   1.799   4.458   9.960
  114OSM    H9S11893   1.690   4.470   9.943
  114OSM    H9T11894   1.836   4.353   9.962
  114OSM   C10S11895   1.867   4.525   9.836
  114OSM   H10S11896   1.974   4.537   9.860
  114OSM   H10T11897   1.827   4.625   9.809
  114OSM   C11S11898   1.854   4.424   9.719
  114OSM   H11S11899   1.750   4.388   9.705
  114OSM   H11T11900   1.911   4.331   9.738
  114OSM   C12S11901   1.905   4.487   9.584
  114OSM   H12S11902   2.015   4.503   9.593
  114OSM   H12T11903   1.857   4.584   9.562
  114OSM   C13S11904   1.883   4.382   9.473
  114OSM   H13S11905   1.787   4.330   9.493
  114OSM   H13T11906   1.955   4.298   9.463
  114OSM   C14S11907   1.856   4.443   9.334
  114OSM   H14S11908   1.946   4.483   9.283
  114OSM   H14T11909   1.780   4.521   9.352
  114OSM   C15S11910   1.792   4.347   9.231
  114OSM   H15S11911   1.704   4.289   9.266
  114OSM   H15T11912   1.865   4.270   9.199
  114OSM   C16S11913   1.758   4.426   9.100
  114OSM   H16S11914   1.840   4.489   9.060
  114OSM   H16T11915   1.681   4.499   9.132
  114OSM   C17S11916   1.699   4.327   8.993
  114OSM   H17S11917   1.608   4.292   9.046
  114OSM   H17T11918   1.770   4.242   8.984
  114OSM   C18S11919   1.667   4.398   8.864
  114OSM   H18S11920   1.609   4.326   8.803
  114OSM   H18T11921   1.759   4.425   8.808
  114OSM   H18U11922   1.603   4.487   8.883
  114OSM    C1F11923   1.261   4.540  10.490
  114OSM     OF11924   1.245   4.657  10.506
  114OSM    C2F11925   1.152   4.458  10.444
  114OSM    H2F11926   1.096   4.433  10.537
  114OSM    H2G11927   1.195   4.361  10.411
  114OSM    C3F11928   1.057   4.543  10.348
  114OSM    H3F11929   1.023   4.627  10.412
  114OSM    H3G11930   0.962   4.488  10.332
  114OSM    C4F11931   1.114   4.590  10.214
  114OSM    H4F11932   1.135   4.498  10.156
  114OSM    H4G11933   1.209   4.645  10.231
  114OSM    C5F11934   1.015   4.675  10.140
  114OSM    H5F11935   0.988   4.771  10.190
  114OSM    H5G11936   0.931   4.610  10.110
  114OSM    C6F11937   1.074   4.724  10.008
  114OSM    H6F11938   1.165   4.787  10.017
  114OSM    H6G11939   0.999   4.789   9.958
  114OSM    C7F11940   1.078   4.617   9.898
  114OSM    H7F11941   0.981   4.569   9.875
  114OSM    H7G11942   1.134   4.532   9.942
  114OSM    C8F11943   1.138   4.670   9.768
  114OSM    H8F11944   1.133   4.581   9.702
  114OSM    H8G11945   1.243   4.702   9.780
  114OSM    C9F11946   1.055   4.782   9.702
  114OSM    H9F11947   1.018   4.868   9.760
  114OSM   C10F11948   1.015   4.780   9.572
  114OSM   H10F11949   0.962   4.865   9.528
  114OSM   C11F11950   1.032   4.668   9.470
  114OSM   H11F11951   1.110   4.595   9.500
  114OSM   H11G11952   1.069   4.711   9.374
  114OSM   C12F11953   0.899   4.604   9.453
  114OSM   H12F11954   0.820   4.646   9.519
  114OSM   H12G11955   0.905   4.494   9.471
  114OSM   C13F11956   0.852   4.616   9.306
  114OSM   H13F11957   0.943   4.588   9.249
  114OSM   H13G11958   0.828   4.723   9.287
  114OSM   C14F11959   0.719   4.539   9.271
  114OSM   H14F11960   0.631   4.574   9.329
  114OSM   H14G11961   0.725   4.432   9.300
  114OSM   C15F11962   0.695   4.565   9.123
  114OSM   H15F11963   0.718   4.672   9.102
  114OSM   H15G11964   0.587   4.547   9.102
  114OSM   C16F11965   0.775   4.471   9.029
  114OSM   H16F11966   0.744   4.365   9.043
  114OSM   H16G11967   0.878   4.478   9.070
  114OSM   C17F11968   0.770   4.510   8.882
  114OSM   H17F11969   0.667   4.489   8.845
  114OSM   H17G11970   0.823   4.432   8.823
  114OSM   C18F11971   0.817   4.649   8.841
  114OSM   H18F11972   0.923   4.674   8.864
  114OSM   H18G11973   0.755   4.723   8.895
  114OSM   H18H11974   0.801   4.668   8.733
  115OSM      N11975   5.692   3.940  11.010
  115OSM    C1511976   5.684   3.841  10.902
  115OSM   H15A11977   5.583   3.804  10.898
  115OSM   H15B11978   5.734   3.746  10.916
  115OSM   H15C11979   5.717   3.884  10.808
  115OSM    C1411980   5.839   3.952  11.038
  115OSM   H14A11981   5.897   3.963  10.948
  115OSM   H14B11982   5.886   3.860  11.068
  115OSM   H14C11983   5.862   4.037  11.100
  115OSM    C1311984   5.644   4.078  10.973
  115OSM   H13A11985   5.538   4.079  10.953
  115OSM   H13B11986   5.689   4.117  10.884
  115OSM   H13C11987   5.661   4.152  11.050
  115OSM    C1211988   5.616   3.884  11.129
  115OSM   H12A11989   5.632   3.950  11.213
  115OSM   H12B11990   5.648   3.783  11.151
  115OSM    C1111991   5.463   3.868  11.116
  115OSM   H11A11992   5.423   3.968  11.088
  115OSM   H11B11993   5.419   3.838  11.213
  115OSM      P11994   5.437   3.625  11.028
  115OSM    O1311995   5.573   3.576  11.070
  115OSM    O1411996   5.325   3.575  11.113
  115OSM    O1111997   5.417   3.570  10.883
  115OSM    O1211998   5.415   3.779  11.016
  115OSM    C1S11999   5.381   3.662  10.779
  115OSM    H1S12000   5.475   3.717  10.755
  115OSM    H1T12001   5.301   3.730  10.815
  115OSM     NF12002   5.278   3.703  10.558
  115OSM    HNF12003   5.180   3.718  10.546
  115OSM    C2S12004   5.316   3.602  10.654
  115OSM    H2S12005   5.397   3.545  10.604
  115OSM    C3S12006   5.208   3.491  10.684
  115OSM    H3S12007   5.121   3.544  10.728
  115OSM     O312008   5.248   3.394  10.782
  115OSM    HO312009   5.313   3.448  10.828
  115OSM    C4S12010   5.169   3.426  10.554
  115OSM    H4S12011   5.064   3.434  10.524
  115OSM    C5S12012   5.238   3.327  10.483
  115OSM    H5S12013   5.331   3.292  10.531
  115OSM    C6S12014   5.191   3.257  10.359
  115OSM    H6S12015   5.256   3.168  10.341
  115OSM    H6T12016   5.216   3.329  10.278
  115OSM    C7S12017   5.043   3.220  10.339
  115OSM    H7S12018   4.979   3.310  10.353
  115OSM    H7T12019   5.015   3.147  10.418
  115OSM    C8S12020   5.010   3.148  10.209
  115OSM    H8S12021   4.915   3.093  10.218
  115OSM    H8T12022   5.081   3.072  10.170
  115OSM    C9S12023   4.989   3.251  10.090
  115OSM    H9S12024   5.076   3.320  10.085
  115OSM    H9T12025   4.910   3.317  10.133
  115OSM   C10S12026   4.966   3.194   9.953
  115OSM   H10S12027   4.897   3.107   9.954
  115OSM   H10T12028   5.053   3.156   9.896
  115OSM   C11S12029   4.893   3.304   9.867
  115OSM   H11S12030   4.944   3.403   9.869
  115OSM   H11T12031   4.792   3.325   9.906
  115OSM   C12S12032   4.884   3.258   9.723
  115OSM   H12S12033   4.812   3.173   9.726
  115OSM   H12T12034   4.980   3.231   9.674
  115OSM   C13S12035   4.811   3.361   9.632
  115OSM   H13S12036   4.882   3.444   9.610
  115OSM   H13T12037   4.725   3.407   9.686
  115OSM   C14S12038   4.751   3.301   9.501
  115OSM   H14S12039   4.675   3.221   9.519
  115OSM   H14T12040   4.832   3.248   9.448
  115OSM   C15S12041   4.689   3.395   9.403
  115OSM   H15S12042   4.679   3.491   9.458
  115OSM   H15T12043   4.585   3.368   9.374
  115OSM   C16S12044   4.769   3.403   9.271
  115OSM   H16S12045   4.877   3.395   9.294
  115OSM   H16T12046   4.749   3.502   9.225
  115OSM   C17S12047   4.730   3.283   9.186
  115OSM   H17S12048   4.622   3.296   9.161
  115OSM   H17T12049   4.732   3.191   9.249
  115OSM   C18S12050   4.802   3.280   9.053
  115OSM   H18S12051   4.795   3.382   9.012
  115OSM   H18T12052   4.750   3.216   8.978
  115OSM   H18U12053   4.911   3.266   9.070
  115OSM    C1F12054   5.363   3.800  10.501
  115OSM     OF12055   5.486   3.817  10.516
  115OSM    C2F12056   5.277   3.893  10.426
  115OSM    H2F12057   5.204   3.942  10.495
  115OSM    H2G12058   5.213   3.828  10.363
  115OSM    C3F12059   5.353   3.992  10.332
  115OSM    H3F12060   5.449   3.954  10.291
  115OSM    H3G12061   5.404   4.069  10.394
  115OSM    C4F12062   5.257   4.033  10.227
  115OSM    H4F12063   5.220   3.941  10.177
  115OSM    H4G12064   5.294   4.110  10.155
  115OSM    C5F12065   5.133   4.111  10.280
  115OSM    H5F12066   5.185   4.193  10.334
  115OSM    H5G12067   5.065   4.057  10.348
  115OSM    C6F12068   5.035   4.163  10.169
  115OSM    H6F12069   4.977   4.078  10.126
  115OSM    H6G12070   5.087   4.205  10.081
  115OSM    C7F12071   4.939   4.271  10.227
  115OSM    H7F12072   4.998   4.354  10.272
  115OSM    H7G12073   4.880   4.222  10.307
  115OSM    C8F12074   4.839   4.344  10.127
  115OSM    H8F12075   4.825   4.450  10.157
  115OSM    H8G12076   4.748   4.280  10.136
  115OSM    C9F12077   4.885   4.341   9.984
  115OSM    H9F12078   4.896   4.240   9.943
  115OSM   C10F12079   4.924   4.447   9.908
  115OSM   H10F12080   4.952   4.436   9.802
  115OSM   C11F12081   4.925   4.591   9.954
  115OSM   H11F12082   5.028   4.629   9.940
  115OSM   H11G12083   4.901   4.609  10.061
  115OSM   C12F12084   4.831   4.684   9.875
  115OSM   H12F12085   4.829   4.786   9.918
  115OSM   H12G12086   4.730   4.639   9.888
  115OSM   C13F12087   4.863   4.706   9.727
  115OSM   H13F12088   4.768   4.742   9.681
  115OSM   H13G12089   4.872   4.604   9.685
  115OSM   C14F12090   4.990   4.787   9.702
  115OSM   H14F12091   5.072   4.712   9.715
  115OSM   H14G12092   5.012   4.856   9.786
  115OSM   C15F12093   4.980   4.863   9.571
  115OSM   H15F12094   5.062   4.938   9.573
  115OSM   H15G12095   4.881   4.911   9.565
  115OSM   C16F12096   4.999   4.770   9.459
  115OSM   H16F12097   4.918   4.693   9.463
  115OSM   H16G12098   5.089   4.706   9.465
  115OSM   C17F12099   4.991   4.825   9.313
  115OSM   H17F12100   5.065   4.906   9.294
  115OSM   H17G12101   4.895   4.879   9.303
  115OSM   C18F12102   4.998   4.709   9.218
  115OSM   H18F12103   4.954   4.616   9.261
  115OSM   H18G12104   5.099   4.683   9.180
  115OSM   H18H12105   4.934   4.728   9.129
  116OSM      N12106   1.242   0.398  10.913
  116OSM    C1512107   1.094   0.379  10.879
  116OSM   H15A12108   1.077   0.309  10.799
  116OSM   H15B12109   1.051   0.474  10.849
  116OSM   H15C12110   1.045   0.335  10.964
  116OSM    C1412111   1.294   0.263  10.924
  116OSM   H14A12112   1.402   0.268  10.929
  116OSM   H14B12113   1.274   0.203  10.836
  116OSM   H14C12114   1.256   0.205  11.007
  116OSM    C1312115   1.320   0.471  10.802
  116OSM   H13A12116   1.269   0.563  10.780
  116OSM   H13B12117   1.309   0.412  10.712
  116OSM   H13C12118   1.423   0.491  10.830
  116OSM    C1212119   1.260   0.480  11.041
  116OSM   H12A12120   1.217   0.424  11.122
  116OSM   H12B12121   1.201   0.571  11.035
  116OSM    C1112122   1.404   0.520  11.085
  116OSM   H11A12123   1.400   0.550  11.192
  116OSM   H11B12124   1.433   0.610  11.027
  116OSM      P12125   1.646   0.442  11.057
  116OSM    O1312126   1.688   0.532  11.167
  116OSM    O1412127   1.710   0.309  11.054
  116OSM    O1112128   1.642   0.507  10.918
  116OSM    O1212129   1.491   0.413  11.066
  116OSM    C1S12130   1.703   0.430  10.811
  116OSM    H1S12131   1.652   0.332  10.802
  116OSM    H1T12132   1.810   0.410  10.834
  116OSM     NF12133   1.724   0.409  10.569
  116OSM    HNF12134   1.822   0.413  10.549
  116OSM    C2S12135   1.692   0.497  10.677
  116OSM    H2S12136   1.590   0.540  10.670
  116OSM    C3S12137   1.773   0.635  10.682
  116OSM    H3S12138   1.882   0.613  10.682
  116OSM     O312139   1.764   0.717  10.803
  116OSM    HO312140   1.702   0.669  10.857
  116OSM    C4S12141   1.747   0.713  10.560
  116OSM    H4S12142   1.810   0.693  10.473
  116OSM    C5S12143   1.648   0.806  10.543
  116OSM    H5S12144   1.559   0.816  10.607
  116OSM    C6S12145   1.639   0.882  10.415
  116OSM    H6S12146   1.608   0.817  10.330
  116OSM    H6T12147   1.740   0.905  10.374
  116OSM    C7S12148   1.548   1.006  10.422
  116OSM    H7S12149   1.599   1.084  10.483
  116OSM    H7T12150   1.453   0.975  10.472
  116OSM    C8S12151   1.519   1.081  10.290
  116OSM    H8S12152   1.609   1.094  10.225
  116OSM    H8T12153   1.496   1.185  10.322
  116OSM    C9S12154   1.395   1.037  10.218
  116OSM    H9S12155   1.308   1.040  10.287
  116OSM    H9T12156   1.414   0.944  10.162
  116OSM   C10S12157   1.369   1.143  10.115
  116OSM   H10S12158   1.465   1.162  10.061
  116OSM   H10T12159   1.334   1.244  10.143
  116OSM   C11S12160   1.272   1.092  10.007
  116OSM   H11S12161   1.245   1.181   9.946
  116OSM   H11T12162   1.189   1.042  10.061
  116OSM   C12S12163   1.337   0.988   9.912
  116OSM   H12S12164   1.368   0.889   9.951
  116OSM   H12T12165   1.427   1.035   9.868
  116OSM   C13S12166   1.249   0.958   9.798
  116OSM   H13S12167   1.207   1.056   9.765
  116OSM   H13T12168   1.164   0.891   9.821
  116OSM   C14S12169   1.315   0.921   9.672
  116OSM   H14S12170   1.378   0.830   9.686
  116OSM   H14T12171   1.394   0.996   9.652
  116OSM   C15S12172   1.227   0.904   9.553
  116OSM   H15S12173   1.161   0.992   9.537
  116OSM   H15T12174   1.161   0.815   9.551
  116OSM   C16S12175   1.314   0.890   9.427
  116OSM   H16S12176   1.350   0.787   9.403
  116OSM   H16T12177   1.406   0.951   9.434
  116OSM   C17S12178   1.242   0.937   9.298
  116OSM   H17S12179   1.198   1.038   9.314
  116OSM   H17T12180   1.152   0.872   9.286
  116OSM   C18S12181   1.326   0.953   9.167
  116OSM   H18S12182   1.357   0.856   9.122
  116OSM   H18T12183   1.423   0.997   9.197
  116OSM   H18U12184   1.286   1.020   9.088
  116OSM    C1F12185   1.645   0.309  10.533
  116OSM     OF12186   1.530   0.300  10.579
  116OSM    C2F12187   1.699   0.209  10.445
  116OSM    H2F12188   1.730   0.117  10.499
  116OSM    H2G12189   1.782   0.245  10.380
  116OSM    C3F12190   1.584   0.162  10.349
  116OSM    H3F12191   1.511   0.244  10.327
  116OSM    H3G12192   1.522   0.093  10.410
  116OSM    C4F12193   1.631   0.096  10.215
  116OSM    H4F12194   1.677  -0.001  10.242
  116OSM    H4G12195   1.699   0.165  10.161
  116OSM    C5F12196   1.513   0.066  10.118
  116OSM    H5F12197   1.424   0.039  10.178
  116OSM    H5G12198   1.546  -0.019  10.055
  116OSM    C6F12199   1.476   0.169  10.008
  116OSM    H6F12200   1.571   0.202   9.961
  116OSM    H6G12201   1.438   0.254  10.069
  116OSM    C7F12202   1.358   0.135   9.912
  116OSM    H7F12203   1.306   0.232   9.894
  116OSM    H7G12204   1.287   0.065   9.959
  116OSM    C8F12205   1.396   0.067   9.775
  116OSM    H8F12206   1.424  -0.036   9.806
  116OSM    H8G12207   1.493   0.104   9.735
  116OSM    C9F12208   1.288   0.055   9.671
  116OSM    H9F12209   1.192   0.024   9.715
  116OSM   C10F12210   1.295   0.093   9.540
  116OSM   H10F12211   1.202   0.071   9.486
  116OSM   C11F12212   1.411   0.155   9.461
  116OSM   H11F12213   1.506   0.122   9.508
  116OSM   H11G12214   1.402   0.264   9.476
  116OSM   C12F12215   1.405   0.105   9.312
  116OSM   H12F12216   1.317   0.149   9.261
  116OSM   H12G12217   1.403  -0.006   9.307
  116OSM   C13F12218   1.529   0.140   9.215
  116OSM   H13F12219   1.563   0.244   9.233
  116OSM   H13G12220   1.497   0.138   9.108
  116OSM   C14F12221   1.660   0.051   9.236
  116OSM   H14F12222   1.622  -0.054   9.228
  116OSM   H14G12223   1.686   0.055   9.344
  116OSM   C15F12224   1.782   0.083   9.148
  116OSM   H15F12225   1.871   0.018   9.168
  116OSM   H15G12226   1.804   0.188   9.178
  116OSM   C16F12227   1.744   0.071   8.999
  116OSM   H16F12228   1.659   0.141   8.983
  116OSM   H16G12229   1.702  -0.027   8.965
  116OSM   C17F12230   1.846   0.123   8.894
  116OSM   H17F12231   1.892   0.221   8.920
  116OSM   H17G12232   1.799   0.142   8.795
  116OSM   C18F12233   1.968   0.038   8.870
  116OSM   H18F12234   2.035   0.018   8.957
  116OSM   H18G12235   2.042   0.081   8.799
  116OSM   H18H12236   1.947  -0.061   8.824
  117OSM      N12237   5.880   1.676  11.174
  117OSM    C1512238   5.992   1.667  11.267
  117OSM   H15A12239   6.048   1.760  11.271
  117OSM   H15B12240   6.053   1.587  11.229
  117OSM   H15C12241   5.967   1.646  11.370
  117OSM    C1412242   5.795   1.561  11.219
  117OSM   H14A12243   5.697   1.563  11.173
  117OSM   H14B12244   5.769   1.567  11.323
  117OSM   H14C12245   5.839   1.463  11.204
  117OSM    C1312246   5.786   1.800  11.196
  117OSM   H13A12247   5.830   1.896  11.175
  117OSM   H13B12248   5.767   1.797  11.302
  117OSM   H13C12249   5.694   1.796  11.141
  117OSM    C1212250   5.927   1.667  11.029
  117OSM   H12A12251   6.013   1.731  11.014
  117OSM   H12B12252   5.847   1.693  10.961
  117OSM    C1112253   5.986   1.528  10.988
  117OSM   H11A12254   6.027   1.529  10.885
  117OSM   H11B12255   5.897   1.462  10.992
  117OSM      P12256   6.074   1.308  11.106
  117OSM    O1312257   6.187   1.266  11.189
  117OSM    O1412258   5.939   1.282  11.157
  117OSM    O1112259   6.086   1.246  10.962
  117OSM    O1212260   6.082   1.467  11.080
  117OSM    C1S12261   6.205   1.255  10.889
  117OSM    H1S12262   6.289   1.201  10.938
  117OSM    H1T12263   6.235   1.360  10.872
  117OSM     NF12264   6.314   1.197  10.677
  117OSM    HNF12265   6.323   1.268  10.607
  117OSM    C2S12266   6.185   1.189  10.747
  117OSM    H2S12267   6.160   1.082  10.759
  117OSM    C3S12268   6.065   1.259  10.671
  117OSM    H3S12269   6.077   1.365  10.702
  117OSM     O312270   5.936   1.223  10.723
  117OSM    HO312271   5.964   1.178  10.802
  117OSM    C4S12272   6.062   1.246  10.522
  117OSM    H4S12273   6.100   1.335  10.470
  117OSM    C5S12274   6.026   1.133  10.459
  117OSM    H5S12275   6.010   1.042  10.518
  117OSM    C6S12276   6.025   1.108  10.310
  117OSM    H6S12277   5.922   1.086  10.275
  117OSM    H6T12278   6.071   1.013  10.275
  117OSM    C7S12279   6.088   1.221  10.227
  117OSM    H7S12280   6.197   1.231  10.249
  117OSM    H7T12281   6.045   1.322  10.246
  117OSM    C8S12282   6.084   1.185  10.076
  117OSM    H8S12283   5.982   1.146  10.052
  117OSM    H8T12284   6.161   1.107  10.062
  117OSM    C9S12285   6.126   1.294   9.979
  117OSM    H9S12286   6.229   1.323  10.011
  117OSM    H9T12287   6.079   1.394   9.992
  117OSM   C10S12288   6.126   1.246   9.832
  117OSM   H10S12289   6.022   1.235   9.795
  117OSM   H10T12290   6.171   1.145   9.827
  117OSM   C11S12291   6.186   1.344   9.732
  117OSM   H11S12292   6.285   1.365   9.778
  117OSM   H11T12293   6.128   1.438   9.729
  117OSM   C12S12294   6.181   1.292   9.594
  117OSM   H12S12295   6.074   1.273   9.569
  117OSM   H12T12296   6.233   1.195   9.583
  117OSM   C13S12297   6.243   1.391   9.497
  117OSM   H13S12298   6.353   1.401   9.514
  117OSM   H13T12299   6.203   1.493   9.519
  117OSM   C14S12300   6.209   1.347   9.358
  117OSM   H14S12301   6.100   1.351   9.340
  117OSM   H14T12302   6.257   1.248   9.346
  117OSM   C15S12303   6.283   1.425   9.247
  117OSM   H15S12304   6.394   1.428   9.255
  117OSM   H15T12305   6.240   1.528   9.247
  117OSM   C16S12306   6.264   1.361   9.107
  117OSM   H16S12307   6.156   1.352   9.085
  117OSM   H16T12308   6.305   1.257   9.115
  117OSM   C17S12309   6.343   1.429   8.989
  117OSM   H17S12310   6.449   1.415   9.020
  117OSM   H17T12311   6.328   1.539   8.987
  117OSM   C18S12312   6.306   1.388   8.846
  117OSM   H18S12313   6.344   1.286   8.824
  117OSM   H18T12314   6.353   1.453   8.770
  117OSM   H18U12315   6.197   1.371   8.836
  117OSM    C1F12316   6.427   1.122  10.693
  117OSM     OF12317   6.433   1.026  10.771
  117OSM    C2F12318   6.540   1.174  10.607
  117OSM    H2F12319   6.616   1.222  10.673
  117OSM    H2G12320   6.498   1.252  10.540
  117OSM    C3F12321   6.609   1.067  10.519
  117OSM    H3F12322   6.656   0.993  10.587
  117OSM    H3G12323   6.694   1.118  10.468
  117OSM    C4F12324   6.514   0.995  10.437
  117OSM    H4F12325   6.430   0.967  10.503
  117OSM    H4G12326   6.561   0.897  10.413
  117OSM    C5F12327   6.460   1.067  10.317
  117OSM    H5F12328   6.402   1.159  10.341
  117OSM    H5G12329   6.393   0.999  10.261
  117OSM    C6F12330   6.567   1.104  10.218
  117OSM    H6F12331   6.646   1.026  10.210
  117OSM    H6G12332   6.616   1.197  10.254
  117OSM    C7F12333   6.499   1.129  10.087
  117OSM    H7F12334   6.438   1.222  10.078
  117OSM    H7G12335   6.435   1.041  10.066
  117OSM    C8F12336   6.591   1.137   9.958
  117OSM    H8F12337   6.644   1.041   9.942
  117OSM    H8G12338   6.662   1.216   9.988
  117OSM    C9F12339   6.509   1.183   9.839
  117OSM    H9F12340   6.413   1.234   9.860
  117OSM   C10F12341   6.548   1.164   9.716
  117OSM   H10F12342   6.480   1.202   9.637
  117OSM   C11F12343   6.684   1.112   9.676
  117OSM   H11F12344   6.719   1.022   9.731
  117OSM   H11G12345   6.756   1.191   9.704
  117OSM   C12F12346   6.705   1.106   9.521
  117OSM   H12F12347   6.815   1.099   9.510
  117OSM   H12G12348   6.666   1.200   9.475
  117OSM   C13F12349   6.634   0.986   9.453
  117OSM   H13F12350   6.525   1.000   9.469
  117OSM   H13G12351   6.667   0.888   9.494
  117OSM   C14F12352   6.655   0.965   9.300
  117OSM   H14F12353   6.764   0.950   9.284
  117OSM   H14G12354   6.625   1.052   9.238
  117OSM   C15F12355   6.581   0.837   9.256
  117OSM   H15F12356   6.477   0.871   9.274
  117OSM   H15G12357   6.606   0.752   9.323
  117OSM   C16F12358   6.586   0.813   9.107
  117OSM   H16F12359   6.686   0.805   9.058
  117OSM   H16G12360   6.530   0.894   9.056
  117OSM   C17F12361   6.516   0.680   9.075
  117OSM   H17F12362   6.418   0.669   9.127
  117OSM   H17G12363   6.563   0.589   9.119
  117OSM   C18F12364   6.486   0.658   8.923
  117OSM   H18F12365   6.412   0.574   8.922
  117OSM   H18G12366   6.566   0.615   8.858
  117OSM   H18H12367   6.453   0.749   8.869
  118OSM      N12368   6.580   1.945  11.063
  118OSM    C1512369   6.592   1.868  10.929
  118OSM   H15A12370   6.546   1.770  10.939
  118OSM   H15B12371   6.696   1.870  10.901
  118OSM   H15C12372   6.538   1.933  10.861
  118OSM    C1412373   6.660   1.875  11.162
  118OSM   H14A12374   6.624   1.777  11.190
  118OSM   H14B12375   6.660   1.952  11.238
  118OSM   H14C12376   6.762   1.856  11.134
  118OSM    C1312377   6.642   2.077  11.042
  118OSM   H13A12378   6.739   2.071  10.993
  118OSM   H13B12379   6.630   2.150  11.120
  118OSM   H13C12380   6.591   2.127  10.961
  118OSM    C1212381   6.437   1.961  11.108
  118OSM   H12A12382   6.430   1.995  11.210
  118OSM   H12B12383   6.392   1.862  11.114
  118OSM    C1112384   6.349   2.062  11.028
  118OSM   H11A12385   6.244   2.035  11.051
  118OSM   H11B12386   6.363   2.042  10.920
  118OSM      P12387   6.262   2.309  11.066
  118OSM    O1312388   6.137   2.246  11.116
  118OSM    O1412389   6.316   2.426  11.142
  118OSM    O1112390   6.243   2.339  10.910
  118OSM    O1212391   6.375   2.197  11.062
  118OSM    C1S12392   6.348   2.417  10.840
  118OSM    H1S12393   6.449   2.376  10.860
  118OSM    H1T12394   6.356   2.523  10.874
  118OSM     NF12395   6.407   2.511  10.626
  118OSM    HNF12396   6.386   2.607  10.610
  118OSM    C2S12397   6.306   2.429  10.689
  118OSM    H2S12398   6.305   2.325  10.650
  118OSM    C3S12399   6.165   2.493  10.682
  118OSM    H3S12400   6.163   2.585  10.744
  118OSM     O312401   6.056   2.410  10.734
  118OSM    HO312402   6.105   2.330  10.756
  118OSM    C4S12403   6.135   2.535  10.540
  118OSM    H4S12404   6.152   2.642  10.520
  118OSM    C5S12405   6.086   2.453  10.450
  118OSM    H5S12406   6.055   2.355  10.489
  118OSM    C6S12407   6.046   2.488  10.316
  118OSM    H6S12408   6.065   2.597  10.305
  118OSM    H6T12409   5.936   2.477  10.305
  118OSM    C7S12410   6.111   2.397  10.211
  118OSM    H7S12411   6.068   2.294  10.218
  118OSM    H7T12412   6.218   2.376  10.234
  118OSM    C8S12413   6.118   2.467  10.072
  118OSM    H8S12414   6.164   2.567  10.088
  118OSM    H8T12415   6.018   2.480  10.025
  118OSM    C9S12416   6.200   2.383   9.975
  118OSM    H9S12417   6.134   2.298   9.948
  118OSM    H9T12418   6.284   2.333  10.028
  118OSM   C10S12419   6.230   2.465   9.849
  118OSM   H10S12420   6.314   2.534   9.874
  118OSM   H10T12421   6.151   2.532   9.810
  118OSM   C11S12422   6.274   2.378   9.734
  118OSM   H11S12423   6.195   2.301   9.722
  118OSM   H11T12424   6.364   2.314   9.748
  118OSM   C12S12425   6.289   2.448   9.596
  118OSM   H12S12426   6.365   2.526   9.615
  118OSM   H12T12427   6.193   2.492   9.561
  118OSM   C13S12428   6.314   2.338   9.488
  118OSM   H13S12429   6.228   2.269   9.486
  118OSM   H13T12430   6.397   2.278   9.530
  118OSM   C14S12431   6.350   2.385   9.349
  118OSM   H14S12432   6.412   2.477   9.355
  118OSM   H14T12433   6.250   2.412   9.307
  118OSM   C15S12434   6.428   2.279   9.265
  118OSM   H15S12435   6.348   2.209   9.234
  118OSM   H15T12436   6.504   2.225   9.324
  118OSM   C16S12437   6.468   2.329   9.129
  118OSM   H16S12438   6.544   2.411   9.133
  118OSM   H16T12439   6.383   2.380   9.079
  118OSM   C17S12440   6.531   2.225   9.041
  118OSM   H17S12441   6.469   2.133   9.031
  118OSM   H17T12442   6.624   2.203   9.097
  118OSM   C18S12443   6.568   2.262   8.901
  118OSM   H18S12444   6.619   2.177   8.851
  118OSM   H18T12445   6.638   2.348   8.887
  118OSM   H18U12446   6.476   2.297   8.850
  118OSM    C1F12447   6.529   2.474  10.596
  118OSM     OF12448   6.569   2.368  10.635
  118OSM    C2F12449   6.619   2.590  10.538
  118OSM    H2F12450   6.722   2.550  10.544
  118OSM    H2G12451   6.610   2.680  10.603
  118OSM    C3F12452   6.566   2.653  10.408
  118OSM    H3F12453   6.642   2.730  10.382
  118OSM    H3G12454   6.466   2.700  10.404
  118OSM    C4F12455   6.578   2.558  10.289
  118OSM    H4F12456   6.507   2.473  10.285
  118OSM    H4G12457   6.672   2.499  10.289
  118OSM    C5F12458   6.565   2.636  10.158
  118OSM    H5F12459   6.631   2.726  10.154
  118OSM    H5G12460   6.461   2.672  10.144
  118OSM    C6F12461   6.618   2.545  10.044
  118OSM    H6F12462   6.548   2.460  10.034
  118OSM    H6G12463   6.714   2.507  10.085
  118OSM    C7F12464   6.631   2.630   9.917
  118OSM    H7F12465   6.701   2.713   9.938
  118OSM    H7G12466   6.538   2.680   9.883
  118OSM    C8F12467   6.704   2.561   9.805
  118OSM    H8F12468   6.790   2.506   9.849
  118OSM    H8G12469   6.754   2.639   9.743
  118OSM    C9F12470   6.619   2.467   9.726
  118OSM    H9F12471   6.526   2.433   9.774
  118OSM   C10F12472   6.648   2.417   9.601
  118OSM   H10F12473   6.593   2.329   9.564
  118OSM   C11F12474   6.771   2.436   9.511
  118OSM   H11F12475   6.831   2.342   9.510
  118OSM   H11G12476   6.829   2.524   9.548
  118OSM   C12F12477   6.736   2.475   9.362
  118OSM   H12F12478   6.685   2.573   9.369
  118OSM   H12G12479   6.678   2.398   9.305
  118OSM   C13F12480   6.863   2.503   9.272
  118OSM   H13F12481   6.934   2.420   9.294
  118OSM   H13G12482   6.916   2.593   9.308
  118OSM   C14F12483   6.835   2.507   9.125
  118OSM   H14F12484   6.750   2.577   9.110
  118OSM   H14G12485   6.807   2.404   9.092
  118OSM   C15F12486   6.955   2.564   9.040
  118OSM   H15F12487   6.981   2.659   9.090
  118OSM   H15G12488   6.907   2.592   8.944
  118OSM   C16F12489   7.083   2.479   9.028
  118OSM   H16F12490   7.115   2.462   9.134
  118OSM   H16G12491   7.170   2.533   8.986
  118OSM   C17F12492   7.063   2.335   8.968
  118OSM   H17F12493   6.995   2.288   9.042
  118OSM   H17G12494   7.164   2.289   8.968
  118OSM   C18F12495   7.012   2.340   8.823
  118OSM   H18F12496   7.012   2.240   8.776
  118OSM   H18G12497   7.050   2.420   8.755
  118OSM   H18H12498   6.903   2.360   8.825
  119OSM      N12499   0.470   1.321  11.189
  119OSM    C1512500   0.344   1.304  11.262
  119OSM   H15A12501   0.289   1.218  11.229
  119OSM   H15B12502   0.279   1.390  11.254
  119OSM   H15C12503   0.362   1.281  11.366
  119OSM    C1412504   0.561   1.196  11.195
  119OSM   H14A12505   0.514   1.101  11.176
  119OSM   H14B12506   0.619   1.178  11.285
  119OSM   H14C12507   0.634   1.205  11.116
  119OSM    C1312508   0.448   1.338  11.038
  119OSM   H13A12509   0.528   1.376  10.976
  119OSM   H13B12510   0.373   1.415  11.029
  119OSM   H13C12511   0.413   1.245  10.997
  119OSM    C1212512   0.555   1.442  11.236
  119OSM   H12A12513   0.638   1.456  11.169
  119OSM   H12B12514   0.588   1.424  11.337
  119OSM    C1112515   0.477   1.576  11.236
  119OSM   H11A12516   0.530   1.664  11.278
  119OSM   H11B12517   0.392   1.556  11.304
  119OSM      P12518   0.515   1.713  11.023
  119OSM    O1312519   0.521   1.848  11.081
  119OSM    O1412520   0.643   1.651  10.992
  119OSM    O1112521   0.430   1.728  10.888
  119OSM    O1212522   0.423   1.617  11.107
  119OSM    C1S12523   0.443   1.616  10.792
  119OSM    H1S12524   0.394   1.533  10.848
  119OSM    H1T12525   0.548   1.590  10.769
  119OSM     NF12526   0.334   1.548  10.562
  119OSM    HNF12527   0.385   1.531  10.478
  119OSM    C2S12528   0.385   1.655  10.648
  119OSM    H2S12529   0.292   1.709  10.675
  119OSM    C3S12530   0.478   1.763  10.582
  119OSM    H3S12531   0.570   1.712  10.547
  119OSM     O312532   0.520   1.865  10.669
  119OSM    HO312533   0.468   1.842  10.747
  119OSM    C4S12534   0.410   1.818  10.453
  119OSM    H4S12535   0.309   1.861  10.464
  119OSM    C5S12536   0.457   1.824  10.330
  119OSM    H5S12537   0.558   1.794  10.296
  119OSM    C6S12538   0.373   1.890  10.223
  119OSM    H6S12539   0.413   1.992  10.204
  119OSM    H6T12540   0.269   1.911  10.258
  119OSM    C7S12541   0.371   1.813  10.088
  119OSM    H7S12542   0.344   1.706  10.104
  119OSM    H7T12543   0.470   1.801  10.040
  119OSM    C8S12544   0.276   1.889   9.995
  119OSM    H8S12545   0.327   1.983   9.964
  119OSM    H8T12546   0.181   1.916  10.045
  119OSM    C9S12547   0.246   1.799   9.863
  119OSM    H9S12548   0.197   1.868   9.791
  119OSM    H9T12549   0.171   1.722   9.889
  119OSM   C10S12550   0.375   1.745   9.806
  119OSM   H10S12551   0.417   1.664   9.870
  119OSM   H10T12552   0.450   1.827   9.802
  119OSM   C11S12553   0.349   1.689   9.665
  119OSM   H11S12554   0.335   1.780   9.602
  119OSM   H11T12555   0.247   1.646   9.667
  119OSM   C12S12556   0.458   1.594   9.609
  119OSM   H12S12557   0.480   1.513   9.682
  119OSM   H12T12558   0.551   1.650   9.584
  119OSM   C13S12559   0.416   1.527   9.480
  119OSM   H13S12560   0.311   1.490   9.474
  119OSM   H13T12561   0.484   1.441   9.462
  119OSM   C14S12562   0.426   1.629   9.367
  119OSM   H14S12563   0.527   1.677   9.366
  119OSM   H14T12564   0.350   1.709   9.379
  119OSM   C15S12565   0.415   1.592   9.216
  119OSM   H15S12566   0.307   1.574   9.200
  119OSM   H15T12567   0.468   1.495   9.202
  119OSM   C16S12568   0.480   1.691   9.115
  119OSM   H16S12569   0.426   1.787   9.126
  119OSM   H16T12570   0.453   1.633   9.025
  119OSM   C17S12571   0.631   1.707   9.134
  119OSM   H17S12572   0.687   1.698   9.039
  119OSM   H17T12573   0.679   1.621   9.186
  119OSM   C18S12574   0.667   1.845   9.192
  119OSM   H18S12575   0.616   1.924   9.132
  119OSM   H18T12576   0.776   1.866   9.204
  119OSM   H18U12577   0.620   1.851   9.293
  119OSM    C1F12578   0.235   1.462  10.598
  119OSM     OF12579   0.174   1.483  10.703
  119OSM    C2F12580   0.198   1.343  10.512
  119OSM    H2F12581   0.170   1.261  10.581
  119OSM    H2G12582   0.265   1.303  10.433
  119OSM    C3F12583   0.065   1.391  10.444
  119OSM    H3F12584  -0.015   1.415  10.517
  119OSM    H3G12585   0.026   1.301  10.393
  119OSM    C4F12586   0.070   1.516  10.348
  119OSM    H4F12587   0.112   1.601  10.405
  119OSM    H4G12588  -0.032   1.535  10.309
  119OSM    C5F12589   0.172   1.494  10.228
  119OSM    H5F12590   0.269   1.474  10.279
  119OSM    H5G12591   0.174   1.593  10.177
  119OSM    C6F12592   0.134   1.381  10.131
  119OSM    H6F12593   0.024   1.389  10.121
  119OSM    H6G12594   0.152   1.280  10.174
  119OSM    C7F12595   0.205   1.397   9.997
  119OSM    H7F12596   0.169   1.497   9.962
  119OSM    H7G12597   0.163   1.322   9.927
  119OSM    C8F12598   0.359   1.395  10.007
  119OSM    H8F12599   0.410   1.476  10.063
  119OSM    H8G12600   0.386   1.425   9.904
  119OSM    C9F12601   0.415   1.255  10.031
  119OSM    H9F12602   0.375   1.214  10.125
  119OSM   C10F12603   0.474   1.166   9.949
  119OSM   H10F12604   0.512   1.070   9.987
  119OSM   C11F12605   0.505   1.188   9.800
  119OSM   H11F12606   0.595   1.129   9.772
  119OSM   H11G12607   0.537   1.292   9.774
  119OSM   C12F12608   0.377   1.147   9.718
  119OSM   H12F12609   0.303   1.225   9.748
  119OSM   H12G12610   0.333   1.049   9.743
  119OSM   C13F12611   0.400   1.154   9.563
  119OSM   H13F12612   0.449   1.064   9.520
  119OSM   H13G12613   0.470   1.236   9.536
  119OSM   C14F12614   0.281   1.175   9.470
  119OSM   H14F12615   0.232   1.260   9.523
  119OSM   H14G12616   0.226   1.079   9.469
  119OSM   C15F12617   0.318   1.216   9.329
  119OSM   H15F12618   0.353   1.322   9.324
  119OSM   H15G12619   0.229   1.219   9.262
  119OSM   C16F12620   0.426   1.129   9.267
  119OSM   H16F12621   0.414   1.026   9.307
  119OSM   H16G12622   0.526   1.168   9.296
  119OSM   C17F12623   0.414   1.126   9.117
  119OSM   H17F12624   0.314   1.078   9.107
  119OSM   H17G12625   0.476   1.050   9.065
  119OSM   C18F12626   0.402   1.255   9.042
  119OSM   H18F12627   0.505   1.288   9.017
  119OSM   H18G12628   0.357   1.335   9.105
  119OSM   H18H12629   0.346   1.239   8.948
  120OSM      N12630   6.162   5.249  10.876
  120OSM    C1512631   6.119   5.163  10.989
  120OSM   H15A12632   6.133   5.210  11.086
  120OSM   H15B12633   6.161   5.064  10.987
  120OSM   H15C12634   6.011   5.160  10.990
  120OSM    C1412635   6.111   5.392  10.901
  120OSM   H14A12636   6.135   5.454  10.817
  120OSM   H14B12637   6.160   5.437  10.986
  120OSM   H14C12638   6.005   5.398  10.919
  120OSM    C1312639   6.308   5.265  10.876
  120OSM   H13A12640   6.356   5.169  10.888
  120OSM   H13B12641   6.341   5.324  10.961
  120OSM   H13C12642   6.340   5.312  10.783
  120OSM    C1212643   6.114   5.206  10.736
  120OSM   H12A12644   6.006   5.206  10.737
  120OSM   H12B12645   6.148   5.106  10.713
  120OSM    C1112646   6.144   5.287  10.605
  120OSM   H11A12647   6.111   5.392  10.618
  120OSM   H11B12648   6.083   5.242  10.523
  120OSM      P12649   6.360   5.177  10.520
  120OSM    O1312650   6.503   5.209  10.537
  120OSM    O1412651   6.307   5.049  10.562
  120OSM    O1112652   6.336   5.188  10.363
  120OSM    O1212653   6.284   5.295  10.582
  120OSM    C1S12654   6.321   5.317  10.307
  120OSM    H1S12655   6.349   5.406  10.368
  120OSM    H1T12656   6.214   5.323  10.279
  120OSM     NF12657   6.399   5.488  10.155
  120OSM    HNF12658   6.319   5.532  10.116
  120OSM    C2S12659   6.401   5.345  10.182
  120OSM    H2S12660   6.507   5.319  10.199
  120OSM    C3S12661   6.346   5.263  10.070
  120OSM    H3S12662   6.251   5.310  10.035
  120OSM     O312663   6.310   5.127  10.104
  120OSM    HO312664   6.293   5.139  10.198
  120OSM    C4S12665   6.428   5.269   9.942
  120OSM    H4S12666   6.388   5.334   9.863
  120OSM    C5S12667   6.532   5.193   9.907
  120OSM    H5S12668   6.577   5.119   9.975
  120OSM    C6S12669   6.602   5.201   9.777
  120OSM    H6S12670   6.643   5.101   9.751
  120OSM    H6T12671   6.692   5.267   9.778
  120OSM    C7S12672   6.517   5.249   9.653
  120OSM    H7S12673   6.494   5.355   9.675
  120OSM    H7T12674   6.425   5.188   9.636
  120OSM    C8S12675   6.614   5.237   9.523
  120OSM    H8S12676   6.686   5.155   9.545
  120OSM    H8T12677   6.678   5.325   9.503
  120OSM    C9S12678   6.534   5.204   9.404
  120OSM    H9S12679   6.470   5.292   9.381
  120OSM    H9T12680   6.468   5.120   9.433
  120OSM   C10S12681   6.614   5.176   9.273
  120OSM   H10S12682   6.689   5.097   9.296
  120OSM   H10T12683   6.672   5.268   9.249
  120OSM   C11S12684   6.524   5.147   9.150
  120OSM   H11S12685   6.463   5.234   9.119
  120OSM   H11T12686   6.448   5.067   9.162
  120OSM   C12S12687   6.596   5.101   9.019
  120OSM   H12S12688   6.667   5.020   9.043
  120OSM   H12T12689   6.657   5.180   8.971
  120OSM   C13S12690   6.488   5.051   8.914
  120OSM   H13S12691   6.402   5.121   8.912
  120OSM   H13T12692   6.447   4.957   8.954
  120OSM   C14S12693   6.559   5.023   8.783
  120OSM   H14S12694   6.633   4.942   8.803
  120OSM   H14T12695   6.622   5.106   8.746
  120OSM   C15S12696   6.459   4.969   8.680
  120OSM   H15S12697   6.398   5.056   8.645
  120OSM   H15T12698   6.397   4.889   8.726
  120OSM   C16S12699   6.533   4.921   8.559
  120OSM   H16S12700   6.605   4.841   8.587
  120OSM   H16T12701   6.601   4.997   8.516
  120OSM   C17S12702   6.450   4.869   8.445
  120OSM   H17S12703   6.369   4.944   8.429
  120OSM   H17T12704   6.401   4.776   8.479
  120OSM   C18S12705   6.532   4.827   8.318
  120OSM   H18S12706   6.460   4.792   8.241
  120OSM   H18T12707   6.596   4.741   8.345
  120OSM   H18U12708   6.590   4.917   8.290
  120OSM    C1F12709   6.484   5.578  10.208
  120OSM     OF12710   6.574   5.541  10.287
  120OSM    C2F12711   6.463   5.719  10.172
  120OSM    H2F12712   6.455   5.778  10.266
  120OSM    H2G12713   6.369   5.733  10.114
  120OSM    C3F12714   6.588   5.770  10.096
  120OSM    H3F12715   6.667   5.772  10.174
  120OSM    H3G12716   6.567   5.871  10.056
  120OSM    C4F12717   6.624   5.683   9.968
  120OSM    H4F12718   6.644   5.579  10.002
  120OSM    H4G12719   6.718   5.715   9.920
  120OSM    C5F12720   6.514   5.683   9.862
  120OSM    H5F12721   6.465   5.782   9.849
  120OSM    H5G12722   6.434   5.622   9.908
  120OSM    C6F12723   6.556   5.628   9.727
  120OSM    H6F12724   6.469   5.603   9.662
  120OSM    H6G12725   6.613   5.533   9.734
  120OSM    C7F12726   6.643   5.722   9.646
  120OSM    H7F12727   6.748   5.705   9.678
  120OSM    H7G12728   6.620   5.828   9.671
  120OSM    C8F12729   6.643   5.701   9.492
  120OSM    H8F12730   6.550   5.745   9.450
  120OSM    H8G12731   6.646   5.591   9.475
  120OSM    C9F12732   6.767   5.761   9.420
  120OSM    H9F12733   6.816   5.848   9.467
  120OSM   C10F12734   6.824   5.713   9.303
  120OSM   H10F12735   6.911   5.757   9.252
  120OSM   C11F12736   6.763   5.597   9.225
  120OSM   H11F12737   6.652   5.586   9.228
  120OSM   H11G12738   6.804   5.501   9.262
  120OSM   C12F12739   6.791   5.609   9.072
  120OSM   H12F12740   6.901   5.608   9.058
  120OSM   H12G12741   6.757   5.706   9.029
  120OSM   C13F12742   6.736   5.500   8.988
  120OSM   H13F12743   6.629   5.470   9.001
  120OSM   H13G12744   6.800   5.411   9.003
  120OSM   C14F12745   6.747   5.521   8.832
  120OSM   H14F12746   6.846   5.568   8.814
  120OSM   H14G12747   6.678   5.604   8.807
  120OSM   C15F12748   6.729   5.402   8.744
  120OSM   H15F12749   6.637   5.351   8.780
  120OSM   H15G12750   6.820   5.340   8.758
  120OSM   C16F12751   6.709   5.453   8.597
  120OSM   H16F12752   6.806   5.498   8.569
  120OSM   H16G12753   6.625   5.526   8.588
  120OSM   C17F12754   6.692   5.324   8.509
  120OSM   H17F12755   6.606   5.279   8.563
  120OSM   H17G12756   6.782   5.260   8.521
  120OSM   C18F12757   6.670   5.361   8.359
  120OSM   H18F12758   6.578   5.421   8.342
  120OSM   H18G12759   6.681   5.268   8.299
  120OSM   H18H12760   6.753   5.429   8.333
  121OSM      N12761   5.171   1.340  10.879
  121OSM    C1512762   5.260   1.284  10.986
  121OSM   H15A12763   5.213   1.206  11.043
  121OSM   H15B12764   5.272   1.366  11.055
  121OSM   H15C12765   5.357   1.257  10.947
  121OSM    C1412766   5.155   1.236  10.770
  121OSM   H14A12767   5.075   1.273  10.708
  121OSM   H14B12768   5.131   1.135  10.799
  121OSM   H14C12769   5.246   1.234  10.712
  121OSM    C1312770   5.037   1.372  10.937
  121OSM   H13A12771   5.017   1.282  10.994
  121OSM   H13B12772   4.964   1.399  10.863
  121OSM   H13C12773   5.027   1.445  11.016
  121OSM    C1212774   5.237   1.462  10.819
  121OSM   H12A12775   5.192   1.489  10.725
  121OSM   H12B12776   5.338   1.431  10.797
  121OSM    C1112777   5.253   1.586  10.911
  121OSM   H11A12778   5.147   1.617  10.923
  121OSM   H11B12779   5.302   1.672  10.858
  121OSM      P12780   5.482   1.556  11.046
  121OSM    O1312781   5.511   1.676  11.127
  121OSM    O1412782   5.522   1.430  11.105
  121OSM    O1112783   5.533   1.566  10.892
  121OSM    O1212784   5.321   1.548  11.033
  121OSM    C1S12785   5.574   1.437  10.837
  121OSM    H1S12786   5.497   1.358  10.843
  121OSM    H1T12787   5.659   1.399  10.898
  121OSM     NF12788   5.677   1.319  10.643
  121OSM    HNF12789   5.774   1.299  10.652
  121OSM    C2S12790   5.641   1.450  10.686
  121OSM    H2S12791   5.562   1.485  10.617
  121OSM    C3S12792   5.758   1.551  10.689
  121OSM    H3S12793   5.842   1.504  10.745
  121OSM     O312794   5.731   1.675  10.759
  121OSM    HO312795   5.648   1.656  10.804
  121OSM    C4S12796   5.807   1.576  10.544
  121OSM    H4S12797   5.730   1.583  10.465
  121OSM    C5S12798   5.940   1.564  10.509
  121OSM    H5S12799   6.014   1.548  10.589
  121OSM    C6S12800   6.010   1.584  10.375
  121OSM    H6S12801   6.087   1.510  10.345
  121OSM    H6T12802   6.068   1.678  10.391
  121OSM    C7S12803   5.934   1.616  10.243
  121OSM    H7S12804   5.863   1.699  10.265
  121OSM    H7T12805   5.862   1.531  10.231
  121OSM    C8S12806   6.022   1.660  10.131
  121OSM    H8S12807   6.086   1.570  10.118
  121OSM    H8T12808   6.084   1.747  10.159
  121OSM    C9S12809   5.954   1.682  10.004
  121OSM    H9S12810   5.891   1.774  10.007
  121OSM    H9T12811   5.892   1.592   9.985
  121OSM   C10S12812   6.047   1.687   9.884
  121OSM   H10S12813   6.133   1.616   9.882
  121OSM   H10T12814   6.102   1.782   9.895
  121OSM   C11S12815   5.977   1.691   9.749
  121OSM   H11S12816   5.879   1.741   9.766
  121OSM   H11T12817   5.959   1.584   9.726
  121OSM   C12S12818   6.043   1.761   9.627
  121OSM   H12S12819   6.144   1.730   9.593
  121OSM   H12T12820   6.058   1.868   9.653
  121OSM   C13S12821   5.950   1.743   9.504
  121OSM   H13S12822   5.849   1.782   9.527
  121OSM   H13T12823   5.948   1.634   9.480
  121OSM   C14S12824   5.997   1.814   9.370
  121OSM   H14S12825   6.104   1.785   9.365
  121OSM   H14T12826   5.995   1.923   9.390
  121OSM   C15S12827   5.918   1.765   9.252
  121OSM   H15S12828   5.844   1.845   9.229
  121OSM   H15T12829   5.855   1.675   9.268
  121OSM   C16S12830   6.012   1.737   9.136
  121OSM   H16S12831   6.067   1.641   9.147
  121OSM   H16T12832   6.089   1.814   9.117
  121OSM   C17S12833   5.931   1.720   9.007
  121OSM   H17S12834   5.848   1.792   8.991
  121OSM   H17T12835   5.890   1.616   9.000
  121OSM   C18S12836   6.023   1.735   8.887
  121OSM   H18S12837   5.964   1.735   8.794
  121OSM   H18T12838   6.094   1.651   8.866
  121OSM   H18U12839   6.069   1.836   8.891
  121OSM    C1F12840   5.601   1.218  10.610
  121OSM     OF12841   5.479   1.239  10.609
  121OSM    C2F12842   5.662   1.092  10.561
  121OSM    H2F12843   5.722   1.043  10.640
  121OSM    H2G12844   5.746   1.121  10.494
  121OSM    C3F12845   5.560   1.003  10.488
  121OSM    H3F12846   5.481   0.976  10.562
  121OSM    H3G12847   5.610   0.907  10.464
  121OSM    C4F12848   5.516   1.064  10.356
  121OSM    H4F12849   5.441   1.141  10.385
  121OSM    H4G12850   5.455   0.983  10.310
  121OSM    C5F12851   5.618   1.113  10.267
  121OSM    H5F12852   5.687   1.029  10.244
  121OSM    H5G12853   5.687   1.186  10.315
  121OSM    C6F12854   5.562   1.182  10.143
  121OSM    H6F12855   5.501   1.269  10.175
  121OSM    H6G12856   5.486   1.106  10.113
  121OSM    C7F12857   5.656   1.216  10.027
  121OSM    H7F12858   5.717   1.131   9.992
  121OSM    H7G12859   5.737   1.276  10.074
  121OSM    C8F12860   5.590   1.291   9.908
  121OSM    H8F12861   5.506   1.355   9.942
  121OSM    H8G12862   5.536   1.214   9.850
  121OSM    C9F12863   5.696   1.370   9.842
  121OSM    H9F12864   5.789   1.377   9.900
  121OSM   C10F12865   5.683   1.425   9.719
  121OSM   H10F12866   5.773   1.472   9.677
  121OSM   C11F12867   5.562   1.429   9.638
  121OSM   H11F12868   5.545   1.532   9.601
  121OSM   H11G12869   5.469   1.394   9.687
  121OSM   C12F12870   5.585   1.335   9.519
  121OSM   H12F12871   5.497   1.324   9.452
  121OSM   H12G12872   5.607   1.230   9.545
  121OSM   C13F12873   5.691   1.372   9.419
  121OSM   H13F12874   5.796   1.348   9.446
  121OSM   H13G12875   5.708   1.482   9.426
  121OSM   C14F12876   5.679   1.341   9.264
  121OSM   H14F12877   5.647   1.235   9.262
  121OSM   H14G12878   5.778   1.353   9.215
  121OSM   C15F12879   5.580   1.431   9.185
  121OSM   H15F12880   5.619   1.535   9.192
  121OSM   H15G12881   5.483   1.430   9.239
  121OSM   C16F12882   5.575   1.388   9.039
  121OSM   H16F12883   5.589   1.279   9.027
  121OSM   H16G12884   5.655   1.448   8.989
  121OSM   C17F12885   5.442   1.424   8.968
  121OSM   H17F12886   5.422   1.533   8.980
  121OSM   H17G12887   5.354   1.366   9.003
  121OSM   C18F12888   5.451   1.398   8.812
  121OSM   H18F12889   5.359   1.433   8.760
  121OSM   H18G12890   5.475   1.290   8.796
  121OSM   H18H12891   5.528   1.461   8.764
  122OSM      N12892   6.190   0.207  10.906
  122OSM    C1512893   6.066   0.294  10.926
  122OSM   H15A12894   5.989   0.221  10.947
  122OSM   H15B12895   6.056   0.354  10.837
  122OSM   H15C12896   6.079   0.367  11.005
  122OSM    C1412897   6.309   0.292  10.897
  122OSM   H14A12898   6.387   0.221  10.876
  122OSM   H14B12899   6.334   0.343  10.989
  122OSM   H14C12900   6.287   0.364  10.819
  122OSM    C1312901   6.206   0.129  11.033
  122OSM   H13A12902   6.113   0.080  11.057
  122OSM   H13B12903   6.236   0.189  11.118
  122OSM   H13C12904   6.277   0.048  11.024
  122OSM    C1212905   6.173   0.126  10.788
  122OSM   H12A12906   6.129   0.177  10.703
  122OSM   H12B12907   6.103   0.045  10.806
  122OSM    C1112908   6.298   0.033  10.747
  122OSM   H11A12909   6.388   0.097  10.738
  122OSM   H11B12910   6.281  -0.015  10.649
  122OSM      P12911   6.241  -0.195  10.858
  122OSM    O1312912   6.307  -0.307  10.932
  122OSM    O1412913   6.104  -0.153  10.904
  122OSM    O1112914   6.224  -0.244  10.706
  122OSM    O1212915   6.330  -0.069  10.840
  122OSM    C1S12916   6.317  -0.346  10.662
  122OSM    H1S12917   6.310  -0.434  10.729
  122OSM    H1T12918   6.422  -0.310  10.663
  122OSM     NF12919   6.433  -0.456  10.458
  122OSM    HNF12920   6.474  -0.403  10.384
  122OSM    C2S12921   6.296  -0.397  10.513
  122OSM    H2S12922   6.231  -0.487  10.504
  122OSM    C3S12923   6.237  -0.288  10.428
  122OSM    H3S12924   6.303  -0.203  10.454
  122OSM     O312925   6.111  -0.234  10.459
  122OSM    HO312926   6.080  -0.275  10.540
  122OSM    C4S12927   6.247  -0.310  10.277
  122OSM    H4S12928   6.207  -0.405  10.236
  122OSM    C5S12929   6.286  -0.206  10.193
  122OSM    H5S12930   6.320  -0.110  10.235
  122OSM    C6S12931   6.288  -0.211  10.045
  122OSM    H6S12932   6.333  -0.306  10.007
  122OSM    H6T12933   6.337  -0.127   9.991
  122OSM    C7S12934   6.149  -0.209   9.974
  122OSM    H7S12935   6.102  -0.310   9.972
  122OSM    H7T12936   6.158  -0.169   9.871
  122OSM    C8S12937   6.063  -0.099  10.029
  122OSM    H8S12938   6.040  -0.116  10.136
  122OSM    H8T12939   5.964  -0.104   9.980
  122OSM    C9S12940   6.100   0.049  10.011
  122OSM    H9S12941   6.194   0.073  10.064
  122OSM    H9T12942   6.021   0.100  10.071
  122OSM   C10S12943   6.093   0.093   9.864
  122OSM   H10S12944   6.003   0.055   9.812
  122OSM   H10T12945   6.183   0.049   9.815
  122OSM   C11S12946   6.116   0.240   9.843
  122OSM   H11S12947   6.212   0.270   9.890
  122OSM   H11T12948   6.038   0.295   9.900
  122OSM   C12S12949   6.125   0.298   9.701
  122OSM   H12S12950   6.191   0.228   9.644
  122OSM   H12T12951   6.168   0.400   9.695
  122OSM   C13S12952   5.995   0.298   9.629
  122OSM   H13S12953   5.924   0.377   9.660
  122OSM   H13T12954   5.942   0.204   9.656
  122OSM   C14S12955   5.994   0.292   9.473
  122OSM   H14S12956   5.892   0.275   9.433
  122OSM   H14T12957   6.071   0.218   9.441
  122OSM   C15S12958   6.040   0.428   9.417
  122OSM   H15S12959   6.133   0.464   9.467
  122OSM   H15T12960   5.953   0.491   9.445
  122OSM   C16S12961   6.059   0.444   9.270
  122OSM   H16S12962   5.964   0.424   9.217
  122OSM   H16T12963   6.121   0.360   9.233
  122OSM   C17S12964   6.107   0.579   9.218
  122OSM   H17S12965   6.201   0.607   9.270
  122OSM   H17T12966   6.033   0.659   9.241
  122OSM   C18S12967   6.141   0.574   9.070
  122OSM   H18S12968   6.066   0.521   9.007
  122OSM   H18T12969   6.245   0.535   9.062
  122OSM   H18U12970   6.153   0.677   9.030
  122OSM    C1F12971   6.512  -0.545  10.512
  122OSM     OF12972   6.482  -0.596  10.620
  122OSM    C2F12973   6.641  -0.569  10.448
  122OSM    H2F12974   6.713  -0.593  10.529
  122OSM    H2G12975   6.678  -0.477  10.397
  122OSM    C3F12976   6.629  -0.675  10.342
  122OSM    H3F12977   6.599  -0.629  10.246
  122OSM    H3G12978   6.561  -0.761  10.361
  122OSM    C4F12979   6.762  -0.744  10.308
  122OSM    H4F12980   6.758  -0.807  10.217
  122OSM    H4G12981   6.799  -0.810  10.389
  122OSM    C5F12982   6.885  -0.651  10.288
  122OSM    H5F12983   6.975  -0.714  10.305
  122OSM    H5G12984   6.880  -0.571  10.366
  122OSM    C6F12985   6.900  -0.588  10.150
  122OSM    H6F12986   6.983  -0.516  10.168
  122OSM    H6G12987   6.815  -0.527  10.114
  122OSM    C7F12988   6.951  -0.687  10.050
  122OSM    H7F12989   6.990  -0.775  10.106
  122OSM    H7G12990   7.033  -0.631   9.999
  122OSM    C8F12991   6.833  -0.719   9.944
  122OSM    H8F12992   6.795  -0.620   9.911
  122OSM    H8G12993   6.753  -0.758  10.011
  122OSM    C9F12994   6.869  -0.810   9.833
  122OSM    H9F12995   6.894  -0.915   9.854
  122OSM   C10F12996   6.881  -0.774   9.704
  122OSM   H10F12997   6.913  -0.844   9.625
  122OSM   C11F12998   6.879  -0.629   9.657
  122OSM   H11F12999   6.906  -0.567   9.746
  122OSM   H11G13000   6.782  -0.591   9.620
  122OSM   C12F13001   6.989  -0.598   9.556
  122OSM   H12F13002   7.089  -0.625   9.597
  122OSM   H12G13003   6.987  -0.489   9.536
  122OSM   C13F13004   6.972  -0.683   9.425
  122OSM   H13F13005   6.869  -0.659   9.390
  122OSM   H13G13006   6.972  -0.794   9.437
  122OSM   C14F13007   7.064  -0.645   9.308
  122OSM   H14F13008   7.170  -0.648   9.339
  122OSM   H14G13009   7.038  -0.539   9.286
  122OSM   C15F13010   7.043  -0.737   9.178
  122OSM   H15F13011   7.066  -0.843   9.204
  122OSM   H15G13012   7.115  -0.706   9.099
  122OSM   C16F13013   6.907  -0.724   9.108
  122OSM   H16F13014   6.846  -0.706   9.199
  122OSM   H16G13015   6.882  -0.826   9.070
  122OSM   C17F13016   6.903  -0.622   9.000
  122OSM   H17F13017   6.983  -0.634   8.925
  122OSM   H17G13018   6.925  -0.525   9.050
  122OSM   C18F13019   6.768  -0.615   8.930
  122OSM   H18F13020   6.763  -0.549   8.840
  122OSM   H18G13021   6.689  -0.576   8.998
  122OSM   H18H13022   6.737  -0.717   8.898
  123OSM      N13023   3.479   4.586   6.181
  123OSM    C1513024   3.461   4.486   6.291
  123OSM   H15A13025   3.503   4.391   6.261
  123OSM   H15B13026   3.357   4.464   6.310
  123OSM   H15C13027   3.505   4.516   6.385
  123OSM    C1413028   3.429   4.524   6.056
  123OSM   H14A13029   3.476   4.427   6.047
  123OSM   H14B13030   3.459   4.589   5.975
  123OSM   H14C13031   3.321   4.527   6.055
  123OSM    C1313032   3.399   4.702   6.215
  123OSM   H13A13033   3.405   4.768   6.130
  123OSM   H13B13034   3.441   4.759   6.297
  123OSM   H13C13035   3.298   4.676   6.243
  123OSM    C1213036   3.627   4.629   6.166
  123OSM   H12A13037   3.696   4.546   6.162
  123OSM   H12B13038   3.660   4.692   6.247
  123OSM    C1113039   3.665   4.712   6.041
  123OSM   H11A13040   3.669   4.645   5.952
  123OSM   H11B13041   3.773   4.733   6.060
  123OSM      P13042   3.673   4.965   5.983
  123OSM    O1313043   3.785   4.923   5.894
  123OSM    O1413044   3.586   5.070   5.928
  123OSM    O1113045   3.722   5.006   6.127
  123OSM    O1213046   3.586   4.831   6.021
  123OSM    C1S13047   3.626   5.016   6.234
  123OSM    H1S13048   3.548   4.937   6.228
  123OSM    H1T13049   3.573   5.112   6.222
  123OSM     NF13050   3.577   5.058   6.478
  123OSM    HNF13051   3.580   5.148   6.520
  123OSM    C2S13052   3.679   5.020   6.381
  123OSM    H2S13053   3.707   4.915   6.405
  123OSM    C3S13054   3.798   5.120   6.391
  123OSM    H3S13055   3.746   5.217   6.370
  123OSM     O313056   3.903   5.112   6.298
  123OSM    HO313057   3.866   5.049   6.235
  123OSM    C4S13058   3.872   5.107   6.517
  123OSM    H4S13059   3.952   5.032   6.504
  123OSM    C5S13060   3.854   5.182   6.629
  123OSM    H5S13061   3.784   5.267   6.624
  123OSM    C6S13062   3.961   5.176   6.732
  123OSM    H6S13063   3.918   5.221   6.824
  123OSM    H6T13064   4.047   5.238   6.699
  123OSM    C7S13065   4.029   5.038   6.772
  123OSM    H7S13066   4.091   5.000   6.688
  123OSM    H7T13067   3.945   4.969   6.793
  123OSM    C8S13068   4.115   5.043   6.906
  123OSM    H8S13069   4.206   5.099   6.875
  123OSM    H8T13070   4.132   4.940   6.943
  123OSM    C9S13071   4.050   5.112   7.028
  123OSM    H9S13072   3.957   5.057   7.056
  123OSM    H9T13073   4.031   5.219   7.007
  123OSM   C10S13074   4.135   5.110   7.150
  123OSM   H10S13075   4.240   5.143   7.132
  123OSM   H10T13076   4.137   5.010   7.198
  123OSM   C11S13077   4.080   5.197   7.265
  123OSM   H11S13078   3.971   5.178   7.279
  123OSM   H11T13079   4.081   5.302   7.230
  123OSM   C12S13080   4.158   5.167   7.397
  123OSM   H12S13081   4.181   5.258   7.457
  123OSM   H12T13082   4.257   5.131   7.360
  123OSM   C13S13083   4.091   5.060   7.486
  123OSM   H13S13084   4.113   4.955   7.460
  123OSM   H13T13085   3.982   5.075   7.473
  123OSM   C14S13086   4.122   5.080   7.639
  123OSM   H14S13087   4.028   5.077   7.698
  123OSM   H14T13088   4.161   5.183   7.652
  123OSM   C15S13089   4.228   4.975   7.693
  123OSM   H15S13090   4.321   4.995   7.635
  123OSM   H15T13091   4.190   4.873   7.670
  123OSM   C16S13092   4.257   4.993   7.843
  123OSM   H16S13093   4.290   4.892   7.874
  123OSM   H16T13094   4.158   5.020   7.885
  123OSM   C17S13095   4.352   5.113   7.869
  123OSM   H17S13096   4.302   5.212   7.879
  123OSM   H17T13097   4.429   5.126   7.790
  123OSM   C18S13098   4.428   5.092   8.000
  123OSM   H18S13099   4.472   5.187   8.037
  123OSM   H18T13100   4.510   5.020   7.978
  123OSM   H18U13101   4.360   5.051   8.078
  123OSM    C1F13102   3.465   4.984   6.503
  123OSM     OF13103   3.443   4.867   6.469
  123OSM    C2F13104   3.366   5.059   6.578
  123OSM    H2F13105   3.273   5.071   6.520
  123OSM    H2G13106   3.396   5.162   6.605
  123OSM    C3F13107   3.334   4.991   6.713
  123OSM    H3F13108   3.301   4.890   6.681
  123OSM    H3G13109   3.246   5.035   6.765
  123OSM    C4F13110   3.458   4.979   6.811
  123OSM    H4F13111   3.527   4.913   6.755
  123OSM    H4G13112   3.420   4.929   6.903
  123OSM    C5F13113   3.513   5.114   6.858
  123OSM    H5F13114   3.427   5.162   6.910
  123OSM    H5G13115   3.563   5.169   6.776
  123OSM    C6F13116   3.625   5.096   6.961
  123OSM    H6F13117   3.661   5.188   7.011
  123OSM    H6G13118   3.713   5.068   6.900
  123OSM    C7F13119   3.615   4.992   7.072
  123OSM    H7F13120   3.705   4.990   7.138
  123OSM    H7G13121   3.607   4.890   7.029
  123OSM    C8F13122   3.493   5.027   7.163
  123OSM    H8F13123   3.404   5.029   7.097
  123OSM    H8G13124   3.514   5.132   7.191
  123OSM    C9F13125   3.471   4.949   7.289
  123OSM    H9F13126   3.381   4.885   7.284
  123OSM   C10F13127   3.542   4.952   7.402
  123OSM   H10F13128   3.504   4.887   7.482
  123OSM   C11F13129   3.667   5.036   7.438
  123OSM   H11F13130   3.637   5.134   7.395
  123OSM   H11G13131   3.748   4.996   7.373
  123OSM   C12F13132   3.693   5.031   7.594
  123OSM   H12F13133   3.602   5.060   7.650
  123OSM   H12G13134   3.771   5.106   7.622
  123OSM   C13F13135   3.726   4.896   7.661
  123OSM   H13F13136   3.835   4.873   7.656
  123OSM   H13G13137   3.678   4.819   7.597
  123OSM   C14F13138   3.677   4.873   7.802
  123OSM   H14F13139   3.691   4.765   7.828
  123OSM   H14G13140   3.569   4.899   7.809
  123OSM   C15F13141   3.756   4.956   7.906
  123OSM   H15F13142   3.762   5.065   7.882
  123OSM   H15G13143   3.861   4.921   7.913
  123OSM   C16F13144   3.683   4.951   8.043
  123OSM   H16F13145   3.680   4.844   8.072
  123OSM   H16G13146   3.585   5.002   8.031
  123OSM   C17F13147   3.766   5.029   8.144
  123OSM   H17F13148   3.728   5.133   8.148
  123OSM   H17G13149   3.872   5.030   8.113
  123OSM   C18F13150   3.770   4.981   8.287
  123OSM   H18F13151   3.672   4.981   8.338
  123OSM   H18G13152   3.845   5.030   8.352
  123OSM   H18H13153   3.803   4.875   8.281
  124OSM      N13154   0.284   2.719   6.131
  124OSM    C1513155   0.332   2.585   6.073
  124OSM   H15A13156   0.341   2.603   5.967
  124OSM   H15B13157   0.256   2.510   6.090
  124OSM   H15C13158   0.424   2.545   6.113
  124OSM    C1413159   0.390   2.821   6.119
  124OSM   H14A13160   0.477   2.796   6.178
  124OSM   H14B13161   0.354   2.915   6.158
  124OSM   H14C13162   0.426   2.829   6.018
  124OSM    C1313163   0.172   2.789   6.059
  124OSM   H13A13164   0.205   2.815   5.960
  124OSM   H13B13165   0.156   2.880   6.114
  124OSM   H13C13166   0.078   2.735   6.063
  124OSM    C1213167   0.248   2.711   6.280
  124OSM   H12A13168   0.335   2.678   6.335
  124OSM   H12B13169   0.181   2.627   6.294
  124OSM    C1113170   0.202   2.834   6.352
  124OSM   H11A13171   0.199   2.807   6.459
  124OSM   H11B13172   0.100   2.862   6.320
  124OSM      P13173   0.249   3.083   6.322
  124OSM    O1313174   0.359   3.181   6.323
  124OSM    O1413175   0.168   3.078   6.200
  124OSM    O1113176   0.149   3.101   6.449
  124OSM    O1213177   0.297   2.934   6.350
  124OSM    C1S13178   0.199   3.108   6.579
  124OSM    H1S13179   0.260   3.197   6.602
  124OSM    H1T13180   0.275   3.029   6.595
  124OSM     NF13181   0.157   3.131   6.820
  124OSM    HNF13182   0.170   3.043   6.866
  124OSM    C2S13183   0.092   3.120   6.692
  124OSM    H2S13184   0.018   3.201   6.681
  124OSM    C3S13185   0.004   2.985   6.682
  124OSM    H3S13186   0.074   2.899   6.689
  124OSM     O313187  -0.065   2.963   6.553
  124OSM    HO313188  -0.024   3.026   6.493
  124OSM    C4S13189  -0.096   2.968   6.795
  124OSM    H4S13190  -0.057   2.917   6.884
  124OSM    C5S13191  -0.224   3.012   6.799
  124OSM    H5S13192  -0.258   3.056   6.704
  124OSM    C6S13193  -0.333   2.996   6.908
  124OSM    H6S13194  -0.421   2.941   6.869
  124OSM    H6T13195  -0.367   3.101   6.927
  124OSM    C7S13196  -0.290   2.932   7.034
  124OSM    H7S13197  -0.201   2.992   7.063
  124OSM    H7T13198  -0.273   2.823   7.025
  124OSM    C8S13199  -0.401   2.944   7.144
  124OSM    H8S13200  -0.478   2.873   7.108
  124OSM    H8T13201  -0.457   3.040   7.134
  124OSM    C9S13202  -0.352   2.907   7.277
  124OSM    H9S13203  -0.327   3.002   7.330
  124OSM    H9T13204  -0.248   2.869   7.280
  124OSM   C10S13205  -0.444   2.809   7.352
  124OSM   H10S13206  -0.476   2.729   7.282
  124OSM   H10T13207  -0.532   2.867   7.384
  124OSM   C11S13208  -0.378   2.752   7.482
  124OSM   H11S13209  -0.279   2.705   7.465
  124OSM   H11T13210  -0.456   2.679   7.514
  124OSM   C12S13211  -0.354   2.853   7.593
  124OSM   H12S13212  -0.434   2.930   7.591
  124OSM   H12T13213  -0.255   2.903   7.591
  124OSM   C13S13214  -0.363   2.783   7.733
  124OSM   H13S13215  -0.289   2.700   7.729
  124OSM   H13T13216  -0.458   2.726   7.736
  124OSM   C14S13217  -0.338   2.869   7.858
  124OSM   H14S13218  -0.409   2.955   7.854
  124OSM   H14T13219  -0.235   2.911   7.850
  124OSM   C15S13220  -0.351   2.786   7.981
  124OSM   H15S13221  -0.258   2.726   7.989
  124OSM   H15T13222  -0.433   2.711   7.971
  124OSM   C16S13223  -0.383   2.864   8.100
  124OSM   H16S13224  -0.486   2.905   8.104
  124OSM   H16T13225  -0.319   2.954   8.115
  124OSM   C17S13226  -0.357   2.775   8.222
  124OSM   H17S13227  -0.261   2.720   8.208
  124OSM   H17T13228  -0.434   2.696   8.217
  124OSM   C18S13229  -0.377   2.837   8.362
  124OSM   H18S13230  -0.381   2.762   8.444
  124OSM   H18T13231  -0.470   2.897   8.370
  124OSM   H18U13232  -0.296   2.909   8.386
  124OSM    C1F13233   0.215   3.246   6.858
  124OSM     OF13234   0.194   3.352   6.797
  124OSM    C2F13235   0.312   3.247   6.969
  124OSM    H2F13236   0.411   3.257   6.921
  124OSM    H2G13237   0.308   3.142   7.006
  124OSM    C3F13238   0.292   3.347   7.084
  124OSM    H3F13239   0.190   3.336   7.125
  124OSM    H3G13240   0.310   3.450   7.045
  124OSM    C4F13241   0.397   3.338   7.193
  124OSM    H4F13242   0.501   3.351   7.155
  124OSM    H4G13243   0.408   3.243   7.249
  124OSM    C5F13244   0.370   3.443   7.293
  124OSM    H5F13245   0.270   3.490   7.278
  124OSM    H5G13246   0.438   3.529   7.276
  124OSM    C6F13247   0.379   3.404   7.443
  124OSM    H6F13248   0.348   3.494   7.501
  124OSM    H6G13249   0.485   3.381   7.468
  124OSM    C7F13250   0.305   3.279   7.488
  124OSM    H7F13251   0.373   3.191   7.494
  124OSM    H7G13252   0.224   3.255   7.415
  124OSM    C8F13253   0.242   3.288   7.622
  124OSM    H8F13254   0.171   3.204   7.636
  124OSM    H8G13255   0.172   3.374   7.616
  124OSM    C9F13256   0.338   3.282   7.736
  124OSM    H9F13257   0.442   3.269   7.702
  124OSM   C10F13258   0.313   3.319   7.859
  124OSM   H10F13259   0.397   3.311   7.930
  124OSM   C11F13260   0.196   3.386   7.921
  124OSM   H11F13261   0.133   3.312   7.973
  124OSM   H11G13262   0.130   3.414   7.836
  124OSM   C12F13263   0.217   3.512   8.000
  124OSM   H12F13264   0.123   3.571   7.998
  124OSM   H12G13265   0.282   3.571   7.932
  124OSM   C13F13266   0.286   3.484   8.133
  124OSM   H13F13267   0.392   3.455   8.118
  124OSM   H13G13268   0.220   3.413   8.187
  124OSM   C14F13269   0.289   3.612   8.229
  124OSM   H14F13270   0.336   3.580   8.325
  124OSM   H14G13271   0.189   3.653   8.257
  124OSM   C15F13272   0.368   3.724   8.159
  124OSM   H15F13273   0.333   3.749   8.057
  124OSM   H15G13274   0.472   3.685   8.154
  124OSM   C16F13275   0.365   3.859   8.233
  124OSM   H16F13276   0.260   3.896   8.227
  124OSM   H16G13277   0.425   3.926   8.168
  124OSM   C17F13278   0.408   3.867   8.379
  124OSM   H17F13279   0.335   3.808   8.440
  124OSM   H17G13280   0.404   3.971   8.417
  124OSM   C18F13281   0.548   3.815   8.417
  124OSM   H18F13282   0.557   3.705   8.409
  124OSM   H18G13283   0.560   3.836   8.526
  124OSM   H18H13284   0.628   3.870   8.363
  125OSM      N13285   6.665   4.187   6.019
  125OSM    C1513286   6.786   4.174   6.104
  125OSM   H15A13287   6.828   4.270   6.131
  125OSM   H15B13288   6.863   4.112   6.060
  125OSM   H15C13289   6.761   4.136   6.203
  125OSM    C1413290   6.707   4.250   5.890
  125OSM   H14A13291   6.626   4.233   5.820
  125OSM   H14B13292   6.799   4.204   5.856
  125OSM   H14C13293   6.720   4.357   5.894
  125OSM    C1313294   6.615   4.054   5.988
  125OSM   H13A13295   6.581   3.997   6.073
  125OSM   H13B13296   6.695   4.005   5.935
  125OSM   H13C13297   6.533   4.052   5.918
  125OSM    C1213298   6.569   4.276   6.084
  125OSM   H12A13299   6.490   4.291   6.011
  125OSM   H12B13300   6.615   4.373   6.095
  125OSM    C1113301   6.492   4.230   6.212
  125OSM   H11A13302   6.556   4.214   6.301
  125OSM   H11B13303   6.445   4.132   6.190
  125OSM      P13304   6.253   4.284   6.297
  125OSM    O1313305   6.176   4.410   6.298
  125OSM    O1413306   6.198   4.172   6.220
  125OSM    O1113307   6.285   4.245   6.451
  125OSM    O1213308   6.398   4.330   6.240
  125OSM    C1S13309   6.376   4.329   6.518
  125OSM    H1S13310   6.356   4.437   6.497
  125OSM    H1T13311   6.478   4.324   6.475
  125OSM     NF13312   6.474   4.386   6.747
  125OSM    HNF13313   6.571   4.367   6.753
  125OSM    C2S13314   6.390   4.291   6.671
  125OSM    H2S13315   6.284   4.293   6.702
  125OSM    C3S13316   6.444   4.148   6.681
  125OSM    H3S13317   6.548   4.144   6.642
  125OSM     O313318   6.379   4.063   6.594
  125OSM    HO313319   6.376   4.125   6.521
  125OSM    C4S13320   6.445   4.095   6.825
  125OSM    H4S13321   6.540   4.104   6.880
  125OSM    C5S13322   6.343   4.026   6.883
  125OSM    H5S13323   6.251   4.024   6.823
  125OSM    C6S13324   6.333   3.965   7.017
  125OSM    H6S13325   6.308   3.858   7.005
  125OSM    H6T13326   6.246   4.010   7.069
  125OSM    C7S13327   6.460   3.976   7.111
  125OSM    H7S13328   6.485   4.084   7.122
  125OSM    H7T13329   6.538   3.928   7.048
  125OSM    C8S13330   6.445   3.908   7.248
  125OSM    H8S13331   6.382   3.963   7.322
  125OSM    H8T13332   6.546   3.898   7.293
  125OSM    C9S13333   6.406   3.757   7.227
  125OSM    H9S13334   6.471   3.714   7.148
  125OSM    H9T13335   6.302   3.753   7.188
  125OSM   C10S13336   6.417   3.676   7.363
  125OSM   H10S13337   6.526   3.661   7.382
  125OSM   H10T13338   6.382   3.574   7.338
  125OSM   C11S13339   6.341   3.736   7.478
  125OSM   H11S13340   6.241   3.760   7.437
  125OSM   H11T13341   6.382   3.833   7.513
  125OSM   C12S13342   6.333   3.653   7.605
  125OSM   H12S13343   6.431   3.645   7.658
  125OSM   H12T13344   6.316   3.548   7.572
  125OSM   C13S13345   6.229   3.702   7.708
  125OSM   H13S13346   6.131   3.685   7.658
  125OSM   H13T13347   6.254   3.809   7.726
  125OSM   C14S13348   6.233   3.632   7.841
  125OSM   H14S13349   6.324   3.664   7.898
  125OSM   H14T13350   6.236   3.522   7.826
  125OSM   C15S13351   6.120   3.673   7.932
  125OSM   H15S13352   6.025   3.625   7.899
  125OSM   H15T13353   6.100   3.782   7.937
  125OSM   C16S13354   6.142   3.624   8.074
  125OSM   H16S13355   6.225   3.685   8.116
  125OSM   H16T13356   6.176   3.519   8.070
  125OSM   C17S13357   6.021   3.647   8.166
  125OSM   H17S13358   5.933   3.598   8.120
  125OSM   H17T13359   5.994   3.754   8.162
  125OSM   C18S13360   6.021   3.588   8.311
  125OSM   H18S13361   6.059   3.485   8.292
  125OSM   H18T13362   5.917   3.588   8.350
  125OSM   H18U13363   6.088   3.641   8.381
  125OSM    C1F13364   6.425   4.507   6.774
  125OSM     OF13365   6.305   4.528   6.769
  125OSM    C2F13366   6.521   4.620   6.787
  125OSM    H2F13367   6.551   4.651   6.685
  125OSM    H2G13368   6.617   4.597   6.839
  125OSM    C3F13369   6.452   4.734   6.869
  125OSM    H3F13370   6.348   4.762   6.841
  125OSM    H3G13371   6.507   4.829   6.856
  125OSM    C4F13372   6.464   4.701   7.021
  125OSM    H4F13373   6.574   4.695   7.037
  125OSM    H4G13374   6.423   4.602   7.047
  125OSM    C5F13375   6.389   4.802   7.114
  125OSM    H5F13376   6.284   4.803   7.077
  125OSM    H5G13377   6.437   4.900   7.097
  125OSM    C6F13378   6.409   4.763   7.261
  125OSM    H6F13379   6.517   4.738   7.259
  125OSM    H6G13380   6.346   4.675   7.283
  125OSM    C7F13381   6.380   4.874   7.367
  125OSM    H7F13382   6.277   4.916   7.357
  125OSM    H7G13383   6.442   4.965   7.351
  125OSM    C8F13384   6.423   4.819   7.504
  125OSM    H8F13385   6.442   4.906   7.570
  125OSM    H8G13386   6.523   4.771   7.494
  125OSM    C9F13387   6.328   4.720   7.573
  125OSM    H9F13388   6.317   4.627   7.516
  125OSM   C10F13389   6.254   4.742   7.684
  125OSM   H10F13390   6.179   4.668   7.716
  125OSM   C11F13391   6.244   4.879   7.750
  125OSM   H11F13392   6.244   4.956   7.670
  125OSM   H11G13393   6.324   4.904   7.823
  125OSM   C12F13394   6.109   4.895   7.812
  125OSM   H12F13395   6.021   4.854   7.757
  125OSM   H12G13396   6.092   5.004   7.822
  125OSM   C13F13397   6.112   4.820   7.945
  125OSM   H13F13398   6.186   4.865   8.014
  125OSM   H13G13399   6.128   4.711   7.933
  125OSM   C14F13400   5.980   4.830   8.016
  125OSM   H14F13401   5.975   4.756   8.099
  125OSM   H14G13402   5.897   4.820   7.943
  125OSM   C15F13403   5.957   4.971   8.082
  125OSM   H15F13404   5.951   5.064   8.022
  125OSM   H15G13405   6.049   4.973   8.145
  125OSM   C16F13406   5.825   4.981   8.156
  125OSM   H16F13407   5.823   5.072   8.219
  125OSM   H16G13408   5.817   4.892   8.221
  125OSM   C17F13409   5.708   4.988   8.059
  125OSM   H17F13410   5.702   4.891   8.005
  125OSM   H17G13411   5.711   5.070   7.985
  125OSM   C18F13412   5.576   5.010   8.127
  125OSM   H18F13413   5.581   5.119   8.146
  125OSM   H18G13414   5.563   4.955   8.223
  125OSM   H18H13415   5.491   4.992   8.058
  126OSM      N13416   4.258   3.150   6.708
  126OSM    C1513417   4.244   3.128   6.851
  126OSM   H15A13418   4.253   3.220   6.906
  126OSM   H15B13419   4.318   3.062   6.893
  126OSM   H15C13420   4.146   3.088   6.874
  126OSM    C1413421   4.398   3.204   6.685
  126OSM   H14A13422   4.438   3.268   6.762
  126OSM   H14B13423   4.403   3.262   6.593
  126OSM   H14C13424   4.461   3.119   6.667
  126OSM    C1313425   4.240   3.022   6.634
  126OSM   H13A13426   4.141   2.982   6.646
  126OSM   H13B13427   4.308   2.943   6.662
  126OSM   H13C13428   4.239   3.037   6.527
  126OSM    C1213429   4.150   3.243   6.650
  126OSM   H12A13430   4.135   3.323   6.721
  126OSM   H12B13431   4.056   3.190   6.644
  126OSM    C1113432   4.192   3.298   6.518
  126OSM   H11A13433   4.096   3.332   6.472
  126OSM   H11B13434   4.239   3.220   6.454
  126OSM      P13435   4.234   3.555   6.561
  126OSM    O1313436   4.354   3.639   6.545
  126OSM    O1413437   4.112   3.597   6.490
  126OSM    O1113438   4.197   3.546   6.711
  126OSM    O1213439   4.280   3.407   6.536
  126OSM    C1S13440   4.176   3.669   6.782
  126OSM    H1S13441   4.099   3.735   6.737
  126OSM    H1T13442   4.270   3.729   6.781
  126OSM     NF13443   4.096   3.746   7.000
  126OSM    HNF13444   4.161   3.772   7.071
  126OSM    C2S13445   4.132   3.631   6.922
  126OSM    H2S13446   4.042   3.570   6.900
  126OSM    C3S13447   4.239   3.539   6.996
  126OSM    H3S13448   4.318   3.615   7.012
  126OSM     O313449   4.308   3.436   6.921
  126OSM    HO313450   4.278   3.454   6.832
  126OSM    C4S13451   4.180   3.481   7.127
  126OSM    H4S13452   4.194   3.540   7.219
  126OSM    C5S13453   4.108   3.367   7.136
  126OSM    H5S13454   4.111   3.290   7.058
  126OSM    C6S13455   4.040   3.327   7.258
  126OSM    H6S13456   4.074   3.224   7.279
  126OSM    H6T13457   3.931   3.320   7.239
  126OSM    C7S13458   4.064   3.397   7.398
  126OSM    H7S13459   4.070   3.508   7.385
  126OSM    H7T13460   4.160   3.362   7.442
  126OSM    C8S13461   3.956   3.368   7.499
  126OSM    H8S13462   3.960   3.257   7.504
  126OSM    H8T13463   3.859   3.404   7.458
  126OSM    C9S13464   3.973   3.428   7.636
  126OSM    H9S13465   3.882   3.407   7.696
  126OSM    H9T13466   3.969   3.538   7.627
  126OSM   C10S13467   4.093   3.393   7.721
  126OSM   H10S13468   4.102   3.467   7.803
  126OSM   H10T13469   4.188   3.406   7.665
  126OSM   C11S13470   4.082   3.247   7.774
  126OSM   H11S13471   4.069   3.177   7.689
  126OSM   H11T13472   3.986   3.245   7.831
  126OSM   C12S13473   4.199   3.213   7.868
  126OSM   H12S13474   4.223   3.286   7.948
  126OSM   H12T13475   4.294   3.230   7.812
  126OSM   C13S13476   4.215   3.064   7.912
  126OSM   H13S13477   4.213   3.005   7.818
  126OSM   H13T13478   4.136   3.022   7.979
  126OSM   C14S13479   4.353   3.027   7.966
  126OSM   H14S13480   4.433   3.048   7.893
  126OSM   H14T13481   4.352   2.918   7.988
  126OSM   C15S13482   4.398   3.109   8.086
  126OSM   H15S13483   4.405   3.217   8.058
  126OSM   H15T13484   4.493   3.070   8.129
  126OSM   C16S13485   4.289   3.099   8.198
  126OSM   H16S13486   4.271   2.994   8.230
  126OSM   H16T13487   4.188   3.135   8.166
  126OSM   C17S13488   4.331   3.180   8.322
  126OSM   H17S13489   4.255   3.175   8.403
  126OSM   H17T13490   4.328   3.288   8.299
  126OSM   C18S13491   4.460   3.147   8.387
  126OSM   H18S13492   4.544   3.127   8.317
  126OSM   H18T13493   4.454   3.054   8.448
  126OSM   H18U13494   4.487   3.231   8.455
  126OSM    C1F13495   3.990   3.828   6.989
  126OSM     OF13496   3.902   3.796   6.911
  126OSM    C2F13497   3.993   3.954   7.074
  126OSM    H2F13498   4.056   4.032   7.026
  126OSM    H2G13499   4.034   3.924   7.172
  126OSM    C3F13500   3.847   4.007   7.091
  126OSM    H3F13501   3.785   3.926   7.135
  126OSM    H3G13502   3.816   4.022   6.986
  126OSM    C4F13503   3.836   4.128   7.183
  126OSM    H4F13504   3.898   4.214   7.149
  126OSM    H4G13505   3.877   4.088   7.278
  126OSM    C5F13506   3.691   4.188   7.194
  126OSM    H5F13507   3.615   4.107   7.184
  126OSM    H5G13508   3.680   4.259   7.108
  126OSM    C6F13509   3.666   4.253   7.325
  126OSM    H6F13510   3.576   4.318   7.315
  126OSM    H6G13511   3.738   4.334   7.344
  126OSM    C7F13512   3.663   4.148   7.438
  126OSM    H7F13513   3.748   4.080   7.420
  126OSM    H7G13514   3.573   4.083   7.437
  126OSM    C8F13515   3.684   4.209   7.578
  126OSM    H8F13516   3.601   4.281   7.595
  126OSM    H8G13517   3.784   4.256   7.574
  126OSM    C9F13518   3.681   4.100   7.682
  126OSM    H9F13519   3.723   4.003   7.653
  126OSM   C10F13520   3.637   4.114   7.809
  126OSM   H10F13521   3.637   4.035   7.885
  126OSM   C11F13522   3.583   4.239   7.873
  126OSM   H11F13523   3.477   4.247   7.903
  126OSM   H11G13524   3.599   4.322   7.801
  126OSM   C12F13525   3.669   4.276   7.998
  126OSM   H12F13526   3.637   4.372   8.044
  126OSM   H12G13527   3.777   4.293   7.980
  126OSM   C13F13528   3.648   4.179   8.106
  126OSM   H13F13529   3.694   4.080   8.082
  126OSM   H13G13530   3.540   4.167   8.130
  126OSM   C14F13531   3.730   4.222   8.227
  126OSM   H14F13532   3.671   4.297   8.284
  126OSM   H14G13533   3.825   4.275   8.202
  126OSM   C15F13534   3.768   4.112   8.324
  126OSM   H15F13535   3.840   4.160   8.393
  126OSM   H15G13536   3.813   4.027   8.270
  126OSM   C16F13537   3.649   4.061   8.396
  126OSM   H16F13538   3.572   4.028   8.322
  126OSM   H16G13539   3.593   4.149   8.435
  126OSM   C17F13540   3.678   3.943   8.494
  126OSM   H17F13541   3.708   3.855   8.432
  126OSM   H17G13542   3.587   3.902   8.543
  126OSM   C18F13543   3.792   3.970   8.593
  126OSM   H18F13544   3.876   3.993   8.524
  126OSM   H18G13545   3.813   3.871   8.640
  126OSM   H18H13546   3.763   4.043   8.671
  127OSM      N13547   5.822   2.356   5.995
  127OSM    C1513548   5.903   2.465   6.057
  127OSM   H15A13549   5.949   2.429   6.148
  127OSM   H15B13550   5.839   2.541   6.099
  127OSM   H15C13551   5.969   2.511   5.985
  127OSM    C1413552   5.715   2.422   5.919
  127OSM   H14A13553   5.753   2.492   5.847
  127OSM   H14B13554   5.665   2.484   5.992
  127OSM   H14C13555   5.650   2.354   5.865
  127OSM    C1313556   5.892   2.259   5.898
  127OSM   H13A13557   5.910   2.301   5.800
  127OSM   H13B13558   5.837   2.168   5.880
  127OSM   H13C13559   5.992   2.234   5.929
  127OSM    C1213560   5.771   2.266   6.106
  127OSM   H12A13561   5.847   2.204   6.151
  127OSM   H12B13562   5.711   2.190   6.059
  127OSM    C1113563   5.689   2.333   6.225
  127OSM   H11A13564   5.752   2.405   6.281
  127OSM   H11B13565   5.660   2.252   6.295
  127OSM      P13566   5.430   2.322   6.155
  127OSM    O1313567   5.325   2.423   6.181
  127OSM    O1413568   5.434   2.250   6.029
  127OSM    O1113569   5.414   2.215   6.266
  127OSM    O1213570   5.569   2.396   6.183
  127OSM    C1S13571   5.391   2.251   6.402
  127OSM    H1S13572   5.301   2.314   6.416
  127OSM    H1T13573   5.477   2.309   6.443
  127OSM     NF13574   5.368   2.168   6.634
  127OSM    HNF13575   5.453   2.150   6.685
  127OSM    C2S13576   5.374   2.128   6.496
  127OSM    H2S13577   5.278   2.075   6.478
  127OSM    C3S13578   5.487   2.028   6.453
  127OSM    H3S13579   5.568   2.085   6.403
  127OSM     O313580   5.444   1.931   6.349
  127OSM    HO313581   5.357   1.964   6.322
  127OSM    C4S13582   5.539   1.958   6.574
  127OSM    H4S13583   5.642   1.985   6.602
  127OSM    C5S13584   5.486   1.852   6.643
  127OSM    H5S13585   5.402   1.794   6.603
  127OSM    C6S13586   5.553   1.767   6.752
  127OSM    H6S13587   5.657   1.759   6.715
  127OSM    H6T13588   5.515   1.662   6.751
  127OSM    C7S13589   5.545   1.824   6.889
  127OSM    H7S13590   5.588   1.926   6.901
  127OSM    H7T13591   5.596   1.766   6.969
  127OSM    C8S13592   5.395   1.837   6.925
  127OSM    H8S13593   5.349   1.898   6.844
  127OSM    H8T13594   5.382   1.906   7.012
  127OSM    C9S13595   5.322   1.703   6.944
  127OSM    H9S13596   5.341   1.641   6.853
  127OSM    H9T13597   5.213   1.721   6.938
  127OSM   C10S13598   5.358   1.643   7.077
  127OSM   H10S13599   5.309   1.701   7.158
  127OSM   H10T13600   5.467   1.650   7.100
  127OSM   C11S13601   5.315   1.496   7.082
  127OSM   H11S13602   5.367   1.442   7.000
  127OSM   H11T13603   5.206   1.482   7.071
  127OSM   C12S13604   5.371   1.430   7.214
  127OSM   H12S13605   5.462   1.483   7.249
  127OSM   H12T13606   5.400   1.326   7.189
  127OSM   C13S13607   5.273   1.432   7.327
  127OSM   H13S13608   5.210   1.341   7.316
  127OSM   H13T13609   5.196   1.511   7.313
  127OSM   C14S13610   5.320   1.451   7.470
  127OSM   H14S13611   5.233   1.474   7.536
  127OSM   H14T13612   5.392   1.535   7.474
  127OSM   C15S13613   5.403   1.334   7.537
  127OSM   H15S13614   5.474   1.371   7.614
  127OSM   H15T13615   5.464   1.286   7.458
  127OSM   C16S13616   5.310   1.222   7.585
  127OSM   H16S13617   5.258   1.176   7.498
  127OSM   H16T13618   5.240   1.265   7.660
  127OSM   C17S13619   5.402   1.112   7.646
  127OSM   H17S13620   5.462   1.156   7.728
  127OSM   H17T13621   5.475   1.083   7.567
  127OSM   C18S13622   5.333   0.982   7.692
  127OSM   H18S13623   5.270   0.938   7.611
  127OSM   H18T13624   5.256   1.005   7.768
  127OSM   H18U13625   5.411   0.912   7.728
  127OSM    C1F13626   5.262   2.240   6.676
  127OSM     OF13627   5.161   2.249   6.604
  127OSM    C2F13628   5.270   2.304   6.809
  127OSM    H2F13629   5.235   2.409   6.801
  127OSM    H2G13630   5.373   2.295   6.849
  127OSM    C3F13631   5.184   2.229   6.916
  127OSM    H3F13632   5.243   2.137   6.936
  127OSM    H3G13633   5.079   2.207   6.886
  127OSM    C4F13634   5.169   2.312   7.041
  127OSM    H4F13635   5.098   2.267   7.113
  127OSM    H4G13636   5.132   2.412   7.010
  127OSM    C5F13637   5.305   2.330   7.117
  127OSM    H5F13638   5.363   2.405   7.058
  127OSM    H5G13639   5.359   2.234   7.130
  127OSM    C6F13640   5.295   2.375   7.261
  127OSM    H6F13641   5.242   2.473   7.257
  127OSM    H6G13642   5.397   2.393   7.301
  127OSM    C7F13643   5.218   2.272   7.353
  127OSM    H7F13644   5.250   2.172   7.317
  127OSM    H7G13645   5.112   2.284   7.324
  127OSM    C8F13646   5.233   2.302   7.500
  127OSM    H8F13647   5.341   2.329   7.511
  127OSM    H8G13648   5.204   2.213   7.560
  127OSM    C9F13649   5.152   2.421   7.541
  127OSM    H9F13650   5.182   2.508   7.482
  127OSM   C10F13651   5.073   2.438   7.647
  127OSM   H10F13652   5.011   2.528   7.653
  127OSM   C11F13653   5.041   2.337   7.755
  127OSM   H11F13654   5.123   2.268   7.780
  127OSM   H11G13655   4.957   2.270   7.725
  127OSM   C12F13656   4.996   2.404   7.883
  127OSM   H12F13657   4.957   2.320   7.945
  127OSM   H12G13658   4.922   2.486   7.873
  127OSM   C13F13659   5.118   2.455   7.963
  127OSM   H13F13660   5.178   2.524   7.899
  127OSM   H13G13661   5.180   2.368   7.994
  127OSM   C14F13662   5.076   2.547   8.085
  127OSM   H14F13663   5.002   2.616   8.039
  127OSM   H14G13664   5.164   2.609   8.113
  127OSM   C15F13665   5.004   2.480   8.201
  127OSM   H15F13666   5.071   2.416   8.262
  127OSM   H15G13667   4.917   2.422   8.163
  127OSM   C16F13668   4.940   2.582   8.300
  127OSM   H16F13669   4.885   2.527   8.379
  127OSM   H16G13670   4.867   2.650   8.252
  127OSM   C17F13671   5.036   2.683   8.364
  127OSM   H17F13672   5.072   2.745   8.279
  127OSM   H17G13673   5.128   2.651   8.419
  127OSM   C18F13674   4.962   2.781   8.463
  127OSM   H18F13675   4.887   2.730   8.527
  127OSM   H18G13676   4.916   2.866   8.408
  127OSM   H18H13677   5.026   2.842   8.530
  128OSM      N13678   0.494   5.816   5.812
  128OSM    C1513679   0.456   5.717   5.712
  128OSM   H15A13680   0.483   5.618   5.746
  128OSM   H15B13681   0.513   5.728   5.621
  128OSM   H15C13682   0.351   5.715   5.684
  128OSM    C1413683   0.469   5.951   5.747
  128OSM   H14A13684   0.502   5.945   5.644
  128OSM   H14B13685   0.515   6.019   5.817
  128OSM   H14C13686   0.363   5.971   5.747
  128OSM    C1313687   0.397   5.795   5.922
  128OSM   H13A13688   0.311   5.745   5.878
  128OSM   H13B13689   0.366   5.889   5.966
  128OSM   H13C13690   0.433   5.741   6.008
  128OSM    C1213691   0.639   5.795   5.856
  128OSM   H12A13692   0.704   5.822   5.774
  128OSM   H12B13693   0.655   5.689   5.869
  128OSM    C1113694   0.688   5.874   5.977
  128OSM   H11A13695   0.654   5.975   5.949
  128OSM   H11B13696   0.799   5.880   5.970
  128OSM      P13697   0.673   5.668   6.138
  128OSM    O1313698   0.570   5.576   6.086
  128OSM    O1413699   0.810   5.634   6.109
  128OSM    O1113700   0.657   5.677   6.294
  128OSM    O1213701   0.635   5.817   6.094
  128OSM    C1S13702   0.652   5.551   6.362
  128OSM    H1S13703   0.742   5.491   6.337
  128OSM    H1T13704   0.557   5.495   6.351
  128OSM     NF13705   0.761   5.481   6.588
  128OSM    HNF13706   0.722   5.442   6.672
  128OSM    C2S13707   0.681   5.581   6.521
  128OSM    H2S13708   0.754   5.665   6.515
  128OSM    C3S13709   0.550   5.639   6.592
  128OSM    H3S13710   0.475   5.558   6.603
  128OSM     O313711   0.484   5.742   6.508
  128OSM    HO313712   0.533   5.722   6.427
  128OSM    C4S13713   0.572   5.694   6.735
  128OSM    H4S13714   0.553   5.631   6.823
  128OSM    C5S13715   0.611   5.826   6.760
  128OSM    H5S13716   0.613   5.891   6.671
  128OSM    C6S13717   0.648   5.900   6.884
  128OSM    H6S13718   0.563   5.970   6.903
  128OSM    H6T13719   0.733   5.968   6.860
  128OSM    C7S13720   0.688   5.819   7.005
  128OSM    H7S13721   0.779   5.756   6.988
  128OSM    H7T13722   0.601   5.754   7.029
  128OSM    C8S13723   0.703   5.897   7.133
  128OSM    H8S13724   0.615   5.962   7.146
  128OSM    H8T13725   0.786   5.969   7.116
  128OSM    C9S13726   0.725   5.808   7.251
  128OSM    H9S13727   0.811   5.744   7.222
  128OSM    H9T13728   0.643   5.734   7.263
  128OSM   C10S13729   0.759   5.870   7.387
  128OSM   H10S13730   0.694   5.960   7.396
  128OSM   H10T13731   0.859   5.918   7.379
  128OSM   C11S13732   0.737   5.779   7.508
  128OSM   H11S13733   0.790   5.681   7.506
  128OSM   H11T13734   0.629   5.751   7.505
  128OSM   C12S13735   0.768   5.854   7.645
  128OSM   H12S13736   0.728   5.957   7.654
  128OSM   H12T13737   0.878   5.863   7.643
  128OSM   C13S13738   0.726   5.769   7.761
  128OSM   H13S13739   0.807   5.696   7.782
  128OSM   H13T13740   0.634   5.708   7.756
  128OSM   C14S13741   0.719   5.858   7.884
  128OSM   H14S13742   0.644   5.931   7.846
  128OSM   H14T13743   0.811   5.916   7.904
  128OSM   C15S13744   0.661   5.788   8.008
  128OSM   H15S13745   0.690   5.681   8.019
  128OSM   H15T13746   0.550   5.778   8.001
  128OSM   C16S13747   0.717   5.865   8.130
  128OSM   H16S13748   0.652   5.867   8.220
  128OSM   H16T13749   0.721   5.973   8.104
  128OSM   C17S13750   0.852   5.821   8.185
  128OSM   H17S13751   0.875   5.888   8.270
  128OSM   H17T13752   0.931   5.829   8.106
  128OSM   C18S13753   0.850   5.683   8.253
  128OSM   H18S13754   0.841   5.615   8.166
  128OSM   H18T13755   0.764   5.678   8.323
  128OSM   H18U13756   0.947   5.662   8.303
  128OSM    C1F13757   0.866   5.415   6.544
  128OSM     OF13758   0.945   5.456   6.454
  128OSM    C2F13759   0.887   5.284   6.617
  128OSM    H2F13760   0.811   5.208   6.590
  128OSM    H2G13761   0.872   5.317   6.722
  128OSM    C3F13762   1.034   5.234   6.605
  128OSM    H3F13763   1.114   5.306   6.634
  128OSM    H3G13764   1.052   5.194   6.504
  128OSM    C4F13765   1.053   5.114   6.702
  128OSM    H4F13766   1.152   5.068   6.680
  128OSM    H4G13767   0.986   5.031   6.670
  128OSM    C5F13768   1.041   5.150   6.853
  128OSM    H5F13769   0.942   5.193   6.878
  128OSM    H5G13770   1.126   5.217   6.876
  128OSM    C6F13771   1.066   5.025   6.942
  128OSM    H6F13772   1.157   4.964   6.924
  128OSM    H6G13773   0.974   4.966   6.923
  128OSM    C7F13774   1.074   5.054   7.097
  128OSM    H7F13775   0.995   5.121   7.135
  128OSM    H7G13776   1.178   5.094   7.102
  128OSM    C8F13777   1.082   4.921   7.177
  128OSM    H8F13778   1.121   4.942   7.278
  128OSM    H8G13779   1.163   4.857   7.135
  128OSM    C9F13780   0.950   4.843   7.168
  128OSM    H9F13781   0.915   4.828   7.064
  128OSM   C10F13782   0.882   4.790   7.274
  128OSM   H10F13783   0.789   4.734   7.254
  128OSM   C11F13784   0.939   4.814   7.416
  128OSM   H11F13785   0.965   4.922   7.423
  128OSM   H11G13786   1.033   4.760   7.439
  128OSM   C12F13787   0.834   4.774   7.529
  128OSM   H12F13788   0.791   4.674   7.503
  128OSM   H12G13789   0.747   4.841   7.529
  128OSM   C13F13790   0.895   4.760   7.672
  128OSM   H13F13791   0.938   4.856   7.708
  128OSM   H13G13792   0.989   4.701   7.682
  128OSM   C14F13793   0.793   4.713   7.787
  128OSM   H14F13794   0.699   4.770   7.771
  128OSM   H14G13795   0.820   4.733   7.893
  128OSM   C15F13796   0.769   4.562   7.777
  128OSM   H15F13797   0.849   4.523   7.710
  128OSM   H15G13798   0.670   4.546   7.729
  128OSM   C16F13799   0.764   4.475   7.902
  128OSM   H16F13800   0.714   4.536   7.980
  128OSM   H16G13801   0.868   4.469   7.939
  128OSM   C17F13802   0.681   4.351   7.881
  128OSM   H17F13803   0.717   4.292   7.794
  128OSM   H17G13804   0.579   4.385   7.851
  128OSM   C18F13805   0.668   4.258   8.006
  128OSM   H18F13806   0.617   4.302   8.094
  128OSM   H18G13807   0.761   4.223   8.055
  128OSM   H18H13808   0.604   4.173   7.970
  129OSM      N13809   4.468   1.619   6.236
  129OSM    C1513810   4.524   1.494   6.263
  129OSM   H15A13811   4.472   1.424   6.200
  129OSM   H15B13812   4.508   1.470   6.367
  129OSM   H15C13813   4.631   1.498   6.249
  129OSM    C1413814   4.321   1.598   6.251
  129OSM   H14A13815   4.269   1.692   6.241
  129OSM   H14B13816   4.307   1.559   6.351
  129OSM   H14C13817   4.293   1.520   6.182
  129OSM    C1313818   4.505   1.707   6.353
  129OSM   H13A13819   4.509   1.648   6.443
  129OSM   H13B13820   4.429   1.782   6.367
  129OSM   H13C13821   4.598   1.758   6.335
  129OSM    C1213822   4.502   1.687   6.104
  129OSM   H12A13823   4.448   1.780   6.094
  129OSM   H12B13824   4.463   1.622   6.027
  129OSM    C1113825   4.649   1.717   6.065
  129OSM   H11A13826   4.666   1.759   5.964
  129OSM   H11B13827   4.707   1.622   6.055
  129OSM      P13828   4.861   1.788   6.208
  129OSM    O1313829   4.908   1.654   6.182
  129OSM    O1413830   4.949   1.896   6.159
  129OSM    O1113831   4.840   1.803   6.366
  129OSM    O1213832   4.710   1.805   6.153
  129OSM    C1S13833   4.828   1.932   6.425
  129OSM    H1S13834   4.739   1.990   6.393
  129OSM    H1T13835   4.925   1.984   6.410
  129OSM     NF13836   4.743   2.019   6.642
  129OSM    HNF13837   4.792   2.101   6.670
  129OSM    C2S13838   4.811   1.912   6.581
  129OSM    H2S13839   4.745   1.823   6.593
  129OSM    C3S13840   4.941   1.858   6.637
  129OSM    H3S13841   5.014   1.942   6.638
  129OSM     O313842   5.005   1.747   6.566
  129OSM    HO313843   4.961   1.749   6.480
  129OSM    C4S13844   4.928   1.824   6.783
  129OSM    H4S13845   4.918   1.715   6.795
  129OSM    C5S13846   4.956   1.908   6.884
  129OSM    H5S13847   4.995   2.010   6.878
  129OSM    C6S13848   4.943   1.862   7.031
  129OSM    H6S13849   4.948   1.752   7.049
  129OSM    H6T13850   4.842   1.898   7.059
  129OSM    C7S13851   5.044   1.906   7.129
  129OSM    H7S13852   5.040   2.017   7.128
  129OSM    H7T13853   5.147   1.877   7.101
  129OSM    C8S13854   5.006   1.860   7.268
  129OSM    H8S13855   4.968   1.755   7.264
  129OSM    H8T13856   4.924   1.931   7.290
  129OSM    C9S13857   5.122   1.866   7.369
  129OSM    H9S13858   5.166   1.968   7.378
  129OSM    H9T13859   5.207   1.809   7.326
  129OSM   C10S13860   5.095   1.814   7.515
  129OSM   H10S13861   5.191   1.812   7.571
  129OSM   H10T13862   5.046   1.715   7.523
  129OSM   C11S13863   4.996   1.914   7.592
  129OSM   H11S13864   4.892   1.899   7.556
  129OSM   H11T13865   5.026   2.021   7.579
  129OSM   C12S13866   5.000   1.876   7.745
  129OSM   H12S13867   5.101   1.856   7.787
  129OSM   H12T13868   4.940   1.783   7.753
  129OSM   C13S13869   4.938   1.986   7.820
  129OSM   H13S13870   4.840   2.013   7.775
  129OSM   H13T13871   4.994   2.080   7.807
  129OSM   C14S13872   4.930   1.956   7.964
  129OSM   H14S13873   4.886   1.853   7.968
  129OSM   H14T13874   4.851   2.022   8.006
  129OSM   C15S13875   5.060   1.958   8.046
  129OSM   H15S13876   5.143   1.947   7.974
  129OSM   H15T13877   5.060   1.858   8.095
  129OSM   C16S13878   5.080   2.068   8.155
  129OSM   H16S13879   4.997   2.141   8.156
  129OSM   H16T13880   5.173   2.126   8.135
  129OSM   C17S13881   5.103   2.020   8.300
  129OSM   H17S13882   5.194   1.957   8.298
  129OSM   H17T13883   5.022   1.947   8.322
  129OSM   C18S13884   5.124   2.138   8.391
  129OSM   H18S13885   5.156   2.099   8.490
  129OSM   H18T13886   5.036   2.205   8.396
  129OSM   H18U13887   5.206   2.203   8.354
  129OSM    C1F13888   4.621   2.055   6.630
  129OSM     OF13889   4.536   1.983   6.574
  129OSM    C2F13890   4.599   2.200   6.655
  129OSM    H2F13891   4.507   2.224   6.597
  129OSM    H2G13892   4.687   2.262   6.627
  129OSM    C3F13893   4.560   2.222   6.798
  129OSM    H3F13894   4.500   2.134   6.831
  129OSM    H3G13895   4.488   2.306   6.804
  129OSM    C4F13896   4.671   2.247   6.902
  129OSM    H4F13897   4.746   2.310   6.851
  129OSM    H4G13898   4.727   2.155   6.928
  129OSM    C5F13899   4.622   2.319   7.033
  129OSM    H5F13900   4.561   2.246   7.090
  129OSM    H5G13901   4.568   2.413   7.010
  129OSM    C6F13902   4.743   2.348   7.126
  129OSM    H6F13903   4.820   2.397   7.062
  129OSM    H6G13904   4.800   2.258   7.158
  129OSM    C7F13905   4.697   2.442   7.236
  129OSM    H7F13906   4.648   2.374   7.309
  129OSM    H7G13907   4.616   2.508   7.199
  129OSM    C8F13908   4.825   2.528   7.279
  129OSM    H8F13909   4.860   2.596   7.198
  129OSM    H8G13910   4.915   2.463   7.291
  129OSM    C9F13911   4.800   2.619   7.400
  129OSM    H9F13912   4.739   2.577   7.482
  129OSM   C10F13913   4.818   2.748   7.412
  129OSM   H10F13914   4.780   2.807   7.497
  129OSM   C11F13915   4.885   2.830   7.306
  129OSM   H11F13916   4.819   2.829   7.217
  129OSM   H11G13917   4.983   2.793   7.270
  129OSM   C12F13918   4.913   2.976   7.344
  129OSM   H12F13919   4.820   3.028   7.377
  129OSM   H12G13920   4.946   3.037   7.258
  129OSM   C13F13921   5.002   3.004   7.466
  129OSM   H13F13922   4.950   2.981   7.561
  129OSM   H13G13923   5.025   3.112   7.468
  129OSM   C14F13924   5.126   2.929   7.474
  129OSM   H14F13925   5.189   2.963   7.389
  129OSM   H14G13926   5.122   2.818   7.471
  129OSM   C15F13927   5.200   2.967   7.615
  129OSM   H15F13928   5.178   3.073   7.638
  129OSM   H15G13929   5.309   2.957   7.593
  129OSM   C16F13930   5.156   2.882   7.738
  129OSM   H16F13931   5.167   2.775   7.712
  129OSM   H16G13932   5.045   2.882   7.748
  129OSM   C17F13933   5.217   2.934   7.869
  129OSM   H17F13934   5.214   3.044   7.852
  129OSM   H17G13935   5.323   2.900   7.872
  129OSM   C18F13936   5.133   2.906   7.993
  129OSM   H18F13937   5.108   2.799   7.980
  129OSM   H18G13938   5.039   2.964   7.993
  129OSM   H18H13939   5.189   2.922   8.088
  130OSM      N13940   1.256   4.536   5.886
  130OSM    C1513941   1.113   4.564   5.858
  130OSM   H15A13942   1.055   4.478   5.885
  130OSM   H15B13943   1.104   4.589   5.753
  130OSM   H15C13944   1.067   4.649   5.906
  130OSM    C1413945   1.291   4.406   5.822
  130OSM   H14A13946   1.398   4.404   5.809
  130OSM   H14B13947   1.238   4.414   5.729
  130OSM   H14C13948   1.257   4.316   5.872
  130OSM    C1313949   1.346   4.636   5.821
  130OSM   H13A13950   1.333   4.649   5.715
  130OSM   H13B13951   1.447   4.624   5.855
  130OSM   H13C13952   1.329   4.733   5.864
  130OSM    C1213953   1.275   4.550   6.039
  130OSM   H12A13954   1.184   4.517   6.087
  130OSM   H12B13955   1.269   4.655   6.060
  130OSM    C1113956   1.405   4.501   6.100
  130OSM   H11A13957   1.415   4.392   6.083
  130OSM   H11B13958   1.386   4.494   6.209
  130OSM      P13959   1.535   4.720   6.106
  130OSM    O1313960   1.672   4.764   6.074
  130OSM    O1413961   1.422   4.804   6.064
  130OSM    O1113962   1.534   4.705   6.273
  130OSM    O1213963   1.523   4.572   6.060
  130OSM    C1S13964   1.426   4.750   6.354
  130OSM    H1S13965   1.335   4.710   6.306
  130OSM    H1T13966   1.426   4.861   6.368
  130OSM     NF13967   1.316   4.731   6.568
  130OSM    HNF13968   1.328   4.783   6.652
  130OSM    C2S13969   1.440   4.694   6.492
  130OSM    H2S13970   1.443   4.584   6.479
  130OSM    C3S13971   1.571   4.732   6.567
  130OSM    H3S13972   1.563   4.841   6.585
  130OSM     O313973   1.682   4.712   6.483
  130OSM    HO313974   1.650   4.684   6.397
  130OSM    C4S13975   1.591   4.659   6.697
  130OSM    H4S13976   1.572   4.720   6.787
  130OSM    C5S13977   1.651   4.536   6.712
  130OSM    H5S13978   1.681   4.473   6.627
  130OSM    C6S13979   1.690   4.476   6.839
  130OSM    H6S13980   1.796   4.444   6.838
  130OSM    H6T13981   1.647   4.373   6.846
  130OSM    C7S13982   1.674   4.558   6.969
  130OSM    H7S13983   1.573   4.604   6.972
  130OSM    H7T13984   1.741   4.647   6.975
  130OSM    C8S13985   1.667   4.468   7.096
  130OSM    H8S13986   1.766   4.417   7.101
  130OSM    H8T13987   1.585   4.395   7.085
  130OSM    C9S13988   1.651   4.545   7.226
  130OSM    H9S13989   1.563   4.613   7.220
  130OSM    H9T13990   1.739   4.609   7.250
  130OSM   C10S13991   1.646   4.453   7.349
  130OSM   H10S13992   1.729   4.378   7.353
  130OSM   H10T13993   1.544   4.410   7.348
  130OSM   C11S13994   1.657   4.527   7.484
  130OSM   H11S13995   1.563   4.587   7.481
  130OSM   H11T13996   1.747   4.592   7.477
  130OSM   C12S13997   1.643   4.441   7.602
  130OSM   H12S13998   1.719   4.361   7.603
  130OSM   H12T13999   1.543   4.391   7.607
  130OSM   C13S14000   1.647   4.516   7.732
  130OSM   H13S14001   1.590   4.611   7.717
  130OSM   H13T14002   1.754   4.536   7.756
  130OSM   C14S14003   1.603   4.429   7.856
  130OSM   H14S14004   1.658   4.333   7.870
  130OSM   H14T14005   1.499   4.398   7.829
  130OSM   C15S14006   1.609   4.508   7.982
  130OSM   H15S14007   1.516   4.568   7.993
  130OSM   H15T14008   1.700   4.572   7.977
  130OSM   C16S14009   1.627   4.411   8.102
  130OSM   H16S14010   1.727   4.365   8.095
  130OSM   H16T14011   1.564   4.323   8.079
  130OSM   C17S14012   1.610   4.462   8.244
  130OSM   H17S14013   1.525   4.531   8.267
  130OSM   H17T14014   1.692   4.536   8.257
  130OSM   C18S14015   1.625   4.348   8.348
  130OSM   H18S14016   1.677   4.381   8.440
  130OSM   H18T14017   1.672   4.262   8.295
  130OSM   H18U14018   1.526   4.316   8.386
  130OSM    C1F14019   1.195   4.691   6.535
  130OSM     OF14020   1.170   4.598   6.453
  130OSM    C2F14021   1.078   4.764   6.597
  130OSM    H2F14022   1.038   4.837   6.523
  130OSM    H2G14023   1.129   4.823   6.676
  130OSM    C3F14024   0.964   4.665   6.646
  130OSM    H3F14025   1.021   4.581   6.690
  130OSM    H3G14026   0.912   4.629   6.555
  130OSM    C4F14027   0.858   4.722   6.742
  130OSM    H4F14028   0.771   4.766   6.690
  130OSM    H4G14029   0.894   4.807   6.804
  130OSM    C5F14030   0.806   4.608   6.846
  130OSM    H5F14031   0.765   4.665   6.932
  130OSM    H5G14032   0.906   4.575   6.879
  130OSM    C6F14033   0.714   4.500   6.787
  130OSM    H6F14034   0.780   4.463   6.707
  130OSM    H6G14035   0.622   4.547   6.747
  130OSM    C7F14036   0.678   4.385   6.884
  130OSM    H7F14037   0.765   4.344   6.940
  130OSM    H7G14038   0.641   4.303   6.819
  130OSM    C8F14039   0.565   4.406   6.991
  130OSM    H8F14040   0.490   4.465   6.933
  130OSM    H8G14041   0.595   4.476   7.072
  130OSM    C9F14042   0.520   4.279   7.059
  130OSM    H9F14043   0.462   4.215   6.992
  130OSM   C10F14044   0.546   4.234   7.178
  130OSM   H10F14045   0.502   4.137   7.209
  130OSM   C11F14046   0.628   4.311   7.281
  130OSM   H11F14047   0.715   4.368   7.243
  130OSM   H11G14048   0.680   4.238   7.346
  130OSM   C12F14049   0.543   4.411   7.348
  130OSM   H12F14050   0.506   4.479   7.269
  130OSM   H12G14051   0.612   4.468   7.414
  130OSM   C13F14052   0.418   4.363   7.425
  130OSM   H13F14053   0.450   4.290   7.502
  130OSM   H13G14054   0.362   4.303   7.350
  130OSM   C14F14055   0.336   4.470   7.497
  130OSM   H14F14056   0.253   4.411   7.543
  130OSM   H14G14057   0.280   4.537   7.429
  130OSM   C15F14058   0.421   4.541   7.605
  130OSM   H15F14059   0.502   4.600   7.556
  130OSM   H15G14060   0.481   4.466   7.661
  130OSM   C16F14061   0.326   4.619   7.698
  130OSM   H16F14062   0.237   4.557   7.723
  130OSM   H16G14063   0.284   4.705   7.641
  130OSM   C17F14064   0.394   4.667   7.824
  130OSM   H17F14065   0.491   4.711   7.793
  130OSM   H17G14066   0.425   4.578   7.882
  130OSM   C18F14067   0.312   4.766   7.898
  130OSM   H18F14068   0.347   4.863   7.858
  130OSM   H18G14069   0.342   4.746   8.003
  130OSM   H18H14070   0.205   4.749   7.874
  131OSM      N14071   5.025   0.295   5.719
  131OSM    C1514072   4.902   0.205   5.696
  131OSM   H15A14073   4.854   0.238   5.605
  131OSM   H15B14074   4.846   0.199   5.788
  131OSM   H15C14075   4.932   0.106   5.666
  131OSM    C1414076   5.077   0.260   5.856
  131OSM   H14A14077   5.179   0.292   5.868
  131OSM   H14B14078   5.069   0.152   5.865
  131OSM   H14C14079   5.016   0.302   5.935
  131OSM    C1314080   5.116   0.256   5.610
  131OSM   H13A14081   5.201   0.320   5.627
  131OSM   H13B14082   5.084   0.265   5.507
  131OSM   H13C14083   5.146   0.152   5.620
  131OSM    C1214084   4.986   0.441   5.705
  131OSM   H12A14085   4.916   0.470   5.781
  131OSM   H12B14086   4.936   0.465   5.612
  131OSM    C1114087   5.100   0.551   5.722
  131OSM   H11A14088   5.064   0.644   5.672
  131OSM   H11B14089   5.190   0.522   5.663
  131OSM      P14090   5.033   0.645   5.956
  131OSM    O1314091   5.075   0.788   5.954
  131OSM    O1414092   4.895   0.622   5.922
  131OSM    O1114093   5.070   0.594   6.103
  131OSM    O1214094   5.134   0.573   5.859
  131OSM    C1S14095   5.211   0.604   6.130
  131OSM    H1S14096   5.258   0.694   6.086
  131OSM    H1T14097   5.271   0.525   6.079
  131OSM     NF14098   5.391   0.625   6.300
  131OSM    HNF14099   5.446   0.543   6.312
  131OSM    C2S14100   5.246   0.611   6.287
  131OSM    H2S14101   5.196   0.704   6.319
  131OSM    C3S14102   5.193   0.483   6.354
  131OSM    H3S14103   5.254   0.394   6.326
  131OSM     O314104   5.053   0.455   6.325
  131OSM    HO314105   5.029   0.510   6.249
  131OSM    C4S14106   5.203   0.491   6.505
  131OSM    H4S14107   5.123   0.558   6.540
  131OSM    C5S14108   5.268   0.410   6.598
  131OSM    H5S14109   5.338   0.334   6.561
  131OSM    C6S14110   5.258   0.416   6.754
  131OSM    H6S14111   5.361   0.409   6.795
  131OSM    H6T14112   5.214   0.321   6.791
  131OSM    C7S14113   5.203   0.537   6.816
  131OSM    H7S14114   5.102   0.559   6.775
  131OSM    H7T14115   5.266   0.623   6.785
  131OSM    C8S14116   5.184   0.532   6.971
  131OSM    H8S14117   5.156   0.635   7.002
  131OSM    H8T14118   5.283   0.531   7.020
  131OSM    C9S14119   5.072   0.442   7.025
  131OSM    H9S14120   5.100   0.335   7.018
  131OSM    H9T14121   4.989   0.455   6.952
  131OSM   C10S14122   5.040   0.456   7.170
  131OSM   H10S14123   4.963   0.381   7.197
  131OSM   H10T14124   5.011   0.561   7.193
  131OSM   C11S14125   5.156   0.420   7.259
  131OSM   H11S14126   5.250   0.458   7.215
  131OSM   H11T14127   5.170   0.310   7.271
  131OSM   C12S14128   5.136   0.482   7.401
  131OSM   H12S14129   5.091   0.584   7.401
  131OSM   H12T14130   5.238   0.514   7.429
  131OSM   C13S14131   5.059   0.395   7.504
  131OSM   H13S14132   5.092   0.291   7.483
  131OSM   H13T14133   4.953   0.408   7.474
  131OSM   C14S14134   5.096   0.428   7.653
  131OSM   H14S14135   5.206   0.419   7.666
  131OSM   H14T14136   5.048   0.354   7.720
  131OSM   C15S14137   5.040   0.567   7.681
  131OSM   H15S14138   4.929   0.561   7.681
  131OSM   H15T14139   5.082   0.635   7.604
  131OSM   C16S14140   5.083   0.629   7.815
  131OSM   H16S14141   5.194   0.618   7.815
  131OSM   H16T14142   5.053   0.561   7.897
  131OSM   C17S14143   5.042   0.776   7.840
  131OSM   H17S14144   4.933   0.773   7.857
  131OSM   H17T14145   5.077   0.828   7.748
  131OSM   C18S14146   5.114   0.830   7.959
  131OSM   H18S14147   5.098   0.935   7.990
  131OSM   H18T14148   5.224   0.816   7.956
  131OSM   H18U14149   5.086   0.776   8.053
  131OSM    C1F14150   5.452   0.736   6.287
  131OSM     OF14151   5.390   0.840   6.256
  131OSM    C2F14152   5.594   0.727   6.332
  131OSM    H2F14153   5.649   0.769   6.245
  131OSM    H2G14154   5.617   0.621   6.353
  131OSM    C3F14155   5.620   0.833   6.443
  131OSM    H3F14156   5.618   0.934   6.396
  131OSM    H3G14157   5.724   0.819   6.479
  131OSM    C4F14158   5.529   0.821   6.565
  131OSM    H4F14159   5.538   0.719   6.608
  131OSM    H4G14160   5.423   0.836   6.536
  131OSM    C5F14161   5.569   0.921   6.672
  131OSM    H5F14162   5.539   1.024   6.643
  131OSM    H5G14163   5.680   0.922   6.682
  131OSM    C6F14164   5.506   0.875   6.802
  131OSM    H6F14165   5.560   0.789   6.848
  131OSM    H6G14166   5.397   0.859   6.788
  131OSM    C7F14167   5.506   0.990   6.902
  131OSM    H7F14168   5.437   1.073   6.874
  131OSM    H7G14169   5.601   1.048   6.906
  131OSM    C8F14170   5.461   0.934   7.042
  131OSM    H8F14171   5.551   0.889   7.089
  131OSM    H8G14172   5.383   0.856   7.032
  131OSM    C9F14173   5.403   1.036   7.146
  131OSM    H9F14174   5.485   1.085   7.200
  131OSM   C10F14175   5.268   1.055   7.182
  131OSM   H10F14176   5.241   1.121   7.266
  131OSM   C11F14177   5.142   0.993   7.128
  131OSM   H11F14178   5.173   0.925   7.046
  131OSM   H11G14179   5.076   1.070   7.083
  131OSM   C12F14180   5.063   0.910   7.224
  131OSM   H12F14181   5.129   0.832   7.268
  131OSM   H12G14182   4.978   0.861   7.173
  131OSM   C13F14183   5.011   1.001   7.339
  131OSM   H13F14184   4.962   1.087   7.290
  131OSM   H13G14185   5.096   1.033   7.403
  131OSM   C14F14186   4.913   0.927   7.434
  131OSM   H14F14187   4.956   0.833   7.474
  131OSM   H14G14188   4.830   0.899   7.364
  131OSM   C15F14189   4.869   1.004   7.549
  131OSM   H15F14190   4.826   1.101   7.517
  131OSM   H15G14191   4.947   1.034   7.623
  131OSM   C16F14192   4.754   0.938   7.631
  131OSM   H16F14193   4.797   0.844   7.674
  131OSM   H16G14194   4.666   0.907   7.572
  131OSM   C17F14195   4.704   1.020   7.751
  131OSM   H17F14196   4.641   1.099   7.708
  131OSM   H17G14197   4.786   1.062   7.814
  131OSM   C18F14198   4.615   0.936   7.847
  131OSM   H18F14199   4.562   0.984   7.931
  131OSM   H18G14200   4.685   0.863   7.893
  131OSM   H18H14201   4.546   0.877   7.784
  132OSM      N14202   0.396   1.689   6.000
  132OSM    C1514203   0.376   1.576   5.902
  132OSM   H15A14204   0.472   1.534   5.875
  132OSM   H15B14205   0.334   1.622   5.814
  132OSM   H15C14206   0.303   1.508   5.943
  132OSM    C1414207   0.504   1.783   5.949
  132OSM   H14A14208   0.601   1.736   5.950
  132OSM   H14B14209   0.499   1.869   6.014
  132OSM   H14C14210   0.489   1.820   5.848
  132OSM    C1314211   0.271   1.767   5.998
  132OSM   H13A14212   0.189   1.720   6.050
  132OSM   H13B14213   0.240   1.797   5.899
  132OSM   H13C14214   0.300   1.854   6.056
  132OSM    C1214215   0.432   1.645   6.137
  132OSM   H12A14216   0.501   1.564   6.116
  132OSM   H12B14217   0.341   1.597   6.170
  132OSM    C1114218   0.466   1.745   6.248
  132OSM   H11A14219   0.560   1.799   6.222
  132OSM   H11B14220   0.487   1.681   6.337
  132OSM      P14221   0.389   1.992   6.273
  132OSM    O1314222   0.473   2.038   6.159
  132OSM    O1414223   0.254   2.051   6.272
  132OSM    O1114224   0.455   2.019   6.409
  132OSM    O1214225   0.354   1.836   6.269
  132OSM    C1S14226   0.402   1.946   6.522
  132OSM    H1S14227   0.429   1.840   6.506
  132OSM    H1T14228   0.292   1.957   6.534
  132OSM     NF14229   0.444   1.914   6.771
  132OSM    HNF14230   0.381   1.949   6.840
  132OSM    C2S14231   0.461   2.006   6.654
  132OSM    H2S14232   0.571   2.010   6.639
  132OSM    C3S14233   0.402   2.149   6.682
  132OSM    H3S14234   0.301   2.140   6.725
  132OSM     O314235   0.381   2.231   6.566
  132OSM    HO314236   0.408   2.174   6.494
  132OSM    C4S14237   0.480   2.230   6.779
  132OSM    H4S14238   0.426   2.227   6.875
  132OSM    C5S14239   0.585   2.309   6.759
  132OSM    H5S14240   0.640   2.306   6.664
  132OSM    C6S14241   0.650   2.393   6.862
  132OSM    H6S14242   0.655   2.502   6.839
  132OSM    H6T14243   0.756   2.366   6.880
  132OSM    C7S14244   0.590   2.380   7.000
  132OSM    H7S14245   0.598   2.275   7.036
  132OSM    H7T14246   0.486   2.418   6.992
  132OSM    C8S14247   0.651   2.478   7.100
  132OSM    H8S14248   0.625   2.583   7.075
  132OSM    H8T14249   0.760   2.460   7.083
  132OSM    C9S14250   0.602   2.454   7.243
  132OSM    H9S14251   0.623   2.347   7.265
  132OSM    H9T14252   0.495   2.480   7.258
  132OSM   C10S14253   0.668   2.534   7.347
  132OSM   H10S14254   0.604   2.620   7.375
  132OSM   H10T14255   0.765   2.572   7.309
  132OSM   C11S14256   0.698   2.466   7.475
  132OSM   H11S14257   0.774   2.386   7.464
  132OSM   H11T14258   0.608   2.432   7.531
  132OSM   C12S14259   0.756   2.570   7.576
  132OSM   H12S14260   0.672   2.639   7.602
  132OSM   H12T14261   0.842   2.620   7.526
  132OSM   C13S14262   0.813   2.499   7.704
  132OSM   H13S14263   0.858   2.573   7.774
  132OSM   H13T14264   0.896   2.427   7.687
  132OSM   C14S14265   0.695   2.431   7.773
  132OSM   H14S14266   0.677   2.337   7.717
  132OSM   H14T14267   0.597   2.483   7.781
  132OSM   C15S14268   0.708   2.408   7.919
  132OSM   H15S14269   0.801   2.367   7.963
  132OSM   H15T14270   0.635   2.328   7.944
  132OSM   C16S14271   0.665   2.524   8.009
  132OSM   H16S14272   0.558   2.542   7.985
  132OSM   H16T14273   0.725   2.616   7.992
  132OSM   C17S14274   0.662   2.481   8.156
  132OSM   H17S14275   0.769   2.460   8.178
  132OSM   H17T14276   0.596   2.393   8.171
  132OSM   C18S14277   0.598   2.591   8.247
  132OSM   H18S14278   0.663   2.680   8.251
  132OSM   H18T14279   0.595   2.548   8.349
  132OSM   H18U14280   0.498   2.623   8.208
  132OSM    C1F14281   0.514   1.802   6.780
  132OSM     OF14282   0.582   1.762   6.687
  132OSM    C2F14283   0.487   1.714   6.897
  132OSM    H2F14284   0.484   1.607   6.865
  132OSM    H2G14285   0.387   1.733   6.940
  132OSM    C3F14286   0.584   1.722   7.018
  132OSM    H3F14287   0.581   1.828   7.054
  132OSM    H3G14288   0.686   1.693   6.987
  132OSM    C4F14289   0.536   1.628   7.130
  132OSM    H4F14290   0.598   1.536   7.130
  132OSM    H4G14291   0.427   1.604   7.124
  132OSM    C5F14292   0.576   1.690   7.264
  132OSM    H5F14293   0.521   1.779   7.302
  132OSM    H5G14294   0.680   1.714   7.236
  132OSM    C6F14295   0.581   1.582   7.379
  132OSM    H6F14296   0.690   1.579   7.398
  132OSM    H6G14297   0.547   1.485   7.336
  132OSM    C7F14298   0.500   1.617   7.496
  132OSM    H7F14299   0.398   1.630   7.452
  132OSM    H7G14300   0.528   1.719   7.530
  132OSM    C8F14301   0.519   1.525   7.615
  132OSM    H8F14302   0.611   1.544   7.674
  132OSM    H8G14303   0.524   1.423   7.573
  132OSM    C9F14304   0.408   1.528   7.717
  132OSM    H9F14305   0.307   1.512   7.677
  132OSM   C10F14306   0.429   1.521   7.852
  132OSM   H10F14307   0.347   1.524   7.925
  132OSM   C11F14308   0.557   1.510   7.933
  132OSM   H11F14309   0.548   1.538   8.040
  132OSM   H11G14310   0.629   1.584   7.892
  132OSM   C12F14311   0.606   1.367   7.934
  132OSM   H12F14312   0.691   1.353   8.004
  132OSM   H12G14313   0.636   1.331   7.833
  132OSM   C13F14314   0.505   1.266   7.990
  132OSM   H13F14315   0.410   1.267   7.933
  132OSM   H13G14316   0.491   1.306   8.092
  132OSM   C14F14317   0.555   1.123   7.988
  132OSM   H14F14318   0.656   1.111   8.033
  132OSM   H14G14319   0.556   1.076   7.887
  132OSM   C15F14320   0.466   1.025   8.063
  132OSM   H15F14321   0.361   1.033   8.027
  132OSM   H15G14322   0.457   1.067   8.165
  132OSM   C16F14323   0.509   0.873   8.066
  132OSM   H16F14324   0.602   0.861   8.125
  132OSM   H16G14325   0.527   0.839   7.962
  132OSM   C17F14326   0.402   0.787   8.130
  132OSM   H17F14327   0.365   0.840   8.220
  132OSM   H17G14328   0.448   0.690   8.161
  132OSM   C18F14329   0.277   0.755   8.042
  132OSM   H18F14330   0.212   0.684   8.097
  132OSM   H18G14331   0.308   0.708   7.946
  132OSM   H18H14332   0.212   0.844   8.026
  133OSM      N14333   0.957   2.197   5.968
  133OSM    C1514334   1.086   2.132   5.930
  133OSM   H15A14335   1.075   2.053   5.857
  133OSM   H15B14336   1.140   2.087   6.013
  133OSM   H15C14337   1.144   2.218   5.898
  133OSM    C1414338   0.984   2.305   6.063
  133OSM   H14A14339   1.034   2.273   6.153
  133OSM   H14B14340   0.888   2.344   6.094
  133OSM   H14C14341   1.044   2.379   6.013
  133OSM    C1314342   0.895   2.256   5.838
  133OSM   H13A14343   0.883   2.189   5.754
  133OSM   H13B14344   0.952   2.341   5.803
  133OSM   H13C14345   0.795   2.293   5.853
  133OSM    C1214346   0.862   2.091   6.025
  133OSM   H12A14347   0.856   2.015   5.949
  133OSM   H12B14348   0.767   2.143   6.025
  133OSM    C1114349   0.889   2.040   6.165
  133OSM   H11A14350   0.798   1.979   6.180
  133OSM   H11B14351   0.875   2.124   6.236
  133OSM      P14352   1.033   1.821   6.162
  133OSM    O1314353   0.916   1.764   6.090
  133OSM    O1414354   1.167   1.781   6.113
  133OSM    O1114355   1.024   1.789   6.315
  133OSM    O1214356   1.019   1.979   6.175
  133OSM    C1S14357   0.922   1.724   6.388
  133OSM    H1S14358   0.919   1.613   6.377
  133OSM    H1T14359   0.825   1.757   6.344
  133OSM     NF14360   0.854   1.692   6.624
  133OSM    HNF14361   0.759   1.719   6.638
  133OSM    C2S14362   0.934   1.774   6.539
  133OSM    H2S14363   1.041   1.757   6.564
  133OSM    C3S14364   0.883   1.918   6.550
  133OSM    H3S14365   0.790   1.933   6.492
  133OSM     O314366   0.972   2.004   6.473
  133OSM    HO314367   1.007   1.948   6.403
  133OSM    C4S14368   0.862   1.970   6.690
  133OSM    H4S14369   0.768   1.937   6.737
  133OSM    C5S14370   0.943   2.054   6.761
  133OSM    H5S14371   1.043   2.072   6.721
  133OSM    C6S14372   0.933   2.104   6.898
  133OSM    H6S14373   0.932   2.215   6.895
  133OSM    H6T14374   1.023   2.080   6.959
  133OSM    C7S14375   0.810   2.055   6.970
  133OSM    H7S14376   0.808   1.944   6.979
  133OSM    H7T14377   0.714   2.075   6.917
  133OSM    C8S14378   0.809   2.100   7.117
  133OSM    H8S14379   0.787   2.209   7.127
  133OSM    H8T14380   0.910   2.094   7.163
  133OSM    C9S14381   0.714   2.021   7.204
  133OSM    H9S14382   0.741   1.916   7.179
  133OSM    H9T14383   0.608   2.049   7.184
  133OSM   C10S14384   0.745   2.036   7.354
  133OSM   H10S14385   0.768   2.143   7.374
  133OSM   H10T14386   0.842   1.990   7.383
  133OSM   C11S14387   0.632   1.986   7.439
  133OSM   H11S14388   0.647   1.877   7.455
  133OSM   H11T14389   0.534   1.996   7.387
  133OSM   C12S14390   0.642   2.052   7.570
  133OSM   H12S14391   0.601   2.155   7.556
  133OSM   H12T14392   0.749   2.065   7.594
  133OSM   C13S14393   0.577   1.969   7.686
  133OSM   H13S14394   0.622   1.868   7.699
  133OSM   H13T14395   0.470   1.949   7.667
  133OSM   C14S14396   0.583   2.051   7.820
  133OSM   H14S14397   0.538   2.148   7.792
  133OSM   H14T14398   0.681   2.066   7.870
  133OSM   C15S14399   0.501   1.984   7.932
  133OSM   H15S14400   0.539   1.880   7.938
  133OSM   H15T14401   0.399   1.977   7.888
  133OSM   C16S14402   0.517   2.042   8.079
  133OSM   H16S14403   0.496   2.151   8.080
  133OSM   H16T14404   0.623   2.022   8.107
  133OSM   C17S14405   0.423   1.986   8.174
  133OSM   H17S14406   0.322   2.015   8.138
  133OSM   H17T14407   0.446   2.036   8.270
  133OSM   C18S14408   0.408   1.831   8.192
  133OSM   H18S14409   0.507   1.794   8.226
  133OSM   H18T14410   0.373   1.774   8.104
  133OSM   H18U14411   0.345   1.814   8.282
  133OSM    C1F14412   0.901   1.571   6.662
  133OSM     OF14413   1.021   1.542   6.647
  133OSM    C2F14414   0.798   1.465   6.721
  133OSM    H2F14415   0.805   1.373   6.660
  133OSM    H2G14416   0.696   1.507   6.706
  133OSM    C3F14417   0.827   1.413   6.858
  133OSM    H3F14418   0.845   1.502   6.921
  133OSM    H3G14419   0.919   1.351   6.855
  133OSM    C4F14420   0.712   1.328   6.905
  133OSM    H4F14421   0.688   1.246   6.834
  133OSM    H4G14422   0.623   1.392   6.922
  133OSM    C5F14423   0.765   1.255   7.030
  133OSM    H5F14424   0.804   1.328   7.104
  133OSM    H5G14425   0.854   1.193   7.004
  133OSM    C6F14426   0.652   1.161   7.084
  133OSM    H6F14427   0.615   1.097   7.001
  133OSM    H6G14428   0.569   1.225   7.121
  133OSM    C7F14429   0.705   1.070   7.193
  133OSM    H7F14430   0.770   0.991   7.150
  133OSM    H7G14431   0.616   1.013   7.229
  133OSM    C8F14432   0.753   1.131   7.325
  133OSM    H8F14433   0.679   1.201   7.369
  133OSM    H8G14434   0.847   1.187   7.311
  133OSM    C9F14435   0.772   1.016   7.421
  133OSM    H9F14436   0.872   0.971   7.416
  133OSM   C10F14437   0.681   0.975   7.508
  133OSM   H10F14438   0.718   0.896   7.576
  133OSM   C11F14439   0.543   1.039   7.527
  133OSM   H11F14440   0.489   1.092   7.445
  133OSM   H11G14441   0.557   1.119   7.602
  133OSM   C12F14442   0.446   0.940   7.602
  133OSM   H12F14443   0.362   0.999   7.644
  133OSM   H12G14444   0.497   0.905   7.694
  133OSM   C13F14445   0.392   0.835   7.505
  133OSM   H13F14446   0.477   0.788   7.450
  133OSM   H13G14447   0.327   0.888   7.431
  133OSM   C14F14448   0.303   0.726   7.572
  133OSM   H14F14449   0.212   0.777   7.611
  133OSM   H14G14450   0.366   0.691   7.657
  133OSM   C15F14451   0.256   0.614   7.479
  133OSM   H15F14452   0.341   0.569   7.425
  133OSM   H15G14453   0.195   0.661   7.399
  133OSM   C16F14454   0.167   0.515   7.541
  133OSM   H16F14455   0.071   0.541   7.592
  133OSM   H16G14456   0.236   0.462   7.611
  133OSM   C17F14457   0.105   0.414   7.442
  133OSM   H17F14458   0.068   0.340   7.516
  133OSM   H17G14459   0.185   0.360   7.387
  133OSM   C18F14460   0.004   0.460   7.335
  133OSM   H18F14461  -0.035   0.367   7.288
  133OSM   H18G14462   0.036   0.534   7.259
  133OSM   H18H14463  -0.083   0.499   7.392
  134OSM      N14464   1.716   5.603   6.494
  134OSM    C1514465   1.577   5.569   6.470
  134OSM   H15A14466   1.571   5.462   6.456
  134OSM   H15B14467   1.553   5.614   6.375
  134OSM   H15C14468   1.518   5.583   6.559
  134OSM    C1414469   1.793   5.558   6.373
  134OSM   H14A14470   1.791   5.450   6.368
  134OSM   H14B14471   1.897   5.585   6.367
  134OSM   H14C14472   1.741   5.592   6.284
  134OSM    C1314473   1.737   5.754   6.503
  134OSM   H13A14474   1.675   5.801   6.579
  134OSM   H13B14475   1.713   5.800   6.409
  134OSM   H13C14476   1.838   5.773   6.536
  134OSM    C1214477   1.774   5.534   6.621
  134OSM   H12A14478   1.709   5.573   6.697
  134OSM   H12B14479   1.869   5.583   6.634
  134OSM    C1114480   1.794   5.385   6.624
  134OSM   H11A14481   1.700   5.336   6.590
  134OSM   H11B14482   1.834   5.349   6.722
  134OSM      P14483   1.976   5.227   6.514
  134OSM    O1314484   1.972   5.180   6.373
  134OSM    O1414485   2.114   5.245   6.573
  134OSM    O1114486   1.903   5.120   6.602
  134OSM    O1214487   1.899   5.360   6.529
  134OSM    C1S14488   1.950   5.094   6.735
  134OSM    H1S14489   1.884   5.159   6.796
  134OSM    H1T14490   2.053   5.120   6.766
  134OSM     NF14491   1.970   4.908   6.907
  134OSM    HNF14492   2.063   4.878   6.922
  134OSM    C2S14493   1.937   4.939   6.768
  134OSM    H2S14494   1.831   4.907   6.756
  134OSM    C3S14495   2.023   4.861   6.664
  134OSM    H3S14496   2.121   4.914   6.658
  134OSM     O314497   1.969   4.870   6.528
  134OSM    HO314498   1.897   4.932   6.536
  134OSM    C4S14499   2.033   4.711   6.692
  134OSM    H4S14500   1.950   4.649   6.656
  134OSM    C5S14501   2.138   4.640   6.732
  134OSM    H5S14502   2.229   4.698   6.755
  134OSM    C6S14503   2.152   4.494   6.747
  134OSM    H6S14504   2.223   4.456   6.670
  134OSM    H6T14505   2.062   4.434   6.723
  134OSM    C7S14506   2.200   4.457   6.881
  134OSM    H7S14507   2.294   4.516   6.886
  134OSM    H7T14508   2.229   4.351   6.869
  134OSM    C8S14509   2.094   4.480   6.995
  134OSM    H8S14510   1.997   4.429   6.976
  134OSM    H8T14511   2.067   4.587   7.010
  134OSM    C9S14512   2.154   4.425   7.128
  134OSM    H9S14513   2.261   4.451   7.142
  134OSM    H9T14514   2.156   4.314   7.121
  134OSM   C10S14515   2.071   4.473   7.247
  134OSM   H10S14516   1.970   4.430   7.229
  134OSM   H10T14517   2.065   4.584   7.252
  134OSM   C11S14518   2.123   4.436   7.390
  134OSM   H11S14519   2.225   4.481   7.389
  134OSM   H11T14520   2.119   4.326   7.401
  134OSM   C12S14521   2.056   4.487   7.514
  134OSM   H12S14522   1.949   4.458   7.512
  134OSM   H12T14523   2.060   4.598   7.509
  134OSM   C13S14524   2.125   4.428   7.642
  134OSM   H13S14525   2.233   4.452   7.636
  134OSM   H13T14526   2.129   4.317   7.643
  134OSM   C14S14527   2.063   4.476   7.769
  134OSM   H14S14528   1.955   4.478   7.744
  134OSM   H14T14529   2.088   4.582   7.792
  134OSM   C15S14530   2.103   4.390   7.888
  134OSM   H15S14531   2.214   4.398   7.891
  134OSM   H15T14532   2.092   4.281   7.869
  134OSM   C16S14533   2.037   4.445   8.017
  134OSM   H16S14534   1.926   4.438   8.018
  134OSM   H16T14535   2.063   4.552   8.027
  134OSM   C17S14536   2.078   4.385   8.158
  134OSM   H17S14537   2.184   4.355   8.175
  134OSM   H17T14538   2.027   4.286   8.161
  134OSM   C18S14539   2.021   4.468   8.280
  134OSM   H18S14540   2.047   4.413   8.373
  134OSM   H18T14541   1.913   4.488   8.262
  134OSM   H18U14542   2.068   4.568   8.284
  134OSM    C1F14543   1.894   4.935   7.014
  134OSM     OF14544   1.791   4.999   6.997
  134OSM    C2F14545   1.949   4.903   7.152
  134OSM    H2F14546   2.053   4.942   7.162
  134OSM    H2G14547   1.964   4.793   7.165
  134OSM    C3F14548   1.862   4.961   7.258
  134OSM    H3F14549   1.756   4.949   7.228
  134OSM    H3G14550   1.885   5.067   7.278
  134OSM    C4F14551   1.871   4.895   7.401
  134OSM    H4F14552   1.979   4.876   7.414
  134OSM    H4G14553   1.829   4.792   7.402
  134OSM    C5F14554   1.810   4.982   7.516
  134OSM    H5F14555   1.699   4.980   7.509
  134OSM    H5G14556   1.840   5.087   7.496
  134OSM    C6F14557   1.861   4.938   7.655
  134OSM    H6F14558   1.971   4.944   7.668
  134OSM    H6G14559   1.840   4.832   7.682
  134OSM    C7F14560   1.792   5.017   7.772
  134OSM    H7F14561   1.684   4.993   7.761
  134OSM    H7G14562   1.801   5.127   7.766
  134OSM    C8F14563   1.837   4.956   7.909
  134OSM    H8F14564   1.819   4.846   7.917
  134OSM    H8G14565   1.774   5.002   7.988
  134OSM    C9F14566   1.979   4.966   7.946
  134OSM    H9F14567   2.048   5.032   7.891
  134OSM   C10F14568   2.049   4.907   8.045
  134OSM   H10F14569   2.157   4.911   8.025
  134OSM   C11F14570   2.001   4.807   8.146
  134OSM   H11F14571   2.093   4.778   8.201
  134OSM   H11G14572   1.949   4.727   8.091
  134OSM   C12F14573   1.904   4.876   8.241
  134OSM   H12F14574   1.816   4.924   8.194
  134OSM   H12G14575   1.965   4.954   8.291
  134OSM   C13F14576   1.859   4.778   8.351
  134OSM   H13F14577   1.961   4.737   8.367
  134OSM   H13G14578   1.800   4.700   8.300
  134OSM   C14F14579   1.777   4.838   8.465
  134OSM   H14F14580   1.808   4.943   8.485
  134OSM   H14G14581   1.797   4.781   8.558
  134OSM   C15F14582   1.621   4.843   8.451
  134OSM   H15F14583   1.564   4.753   8.483
  134OSM   H15G14584   1.596   4.862   8.344
  134OSM   C16F14585   1.558   4.956   8.533
  134OSM   H16F14586   1.458   4.978   8.490
  134OSM   H16G14587   1.626   5.045   8.535
  134OSM   C17F14588   1.533   4.924   8.682
  134OSM   H17F14589   1.449   4.853   8.690
  134OSM   H17G14590   1.496   5.014   8.737
  134OSM   C18F14591   1.645   4.865   8.764
  134OSM   H18F14592   1.611   4.865   8.870
  134OSM   H18G14593   1.727   4.940   8.762
  134OSM   H18H14594   1.677   4.765   8.728
  135OSM      N14595   1.654   5.117   6.146
  135OSM    C1514596   1.639   5.259   6.173
  135OSM   H15A14597   1.691   5.280   6.265
  135OSM   H15B14598   1.538   5.282   6.206
  135OSM   H15C14599   1.669   5.323   6.091
  135OSM    C1414600   1.582   5.091   6.013
  135OSM   H14A14601   1.603   5.171   5.944
  135OSM   H14B14602   1.477   5.067   6.018
  135OSM   H14C14603   1.623   5.001   5.971
  135OSM    C1314604   1.799   5.094   6.129
  135OSM   H13A14605   1.835   5.155   6.047
  135OSM   H13B14606   1.821   4.989   6.116
  135OSM   H13C14607   1.851   5.136   6.214
  135OSM    C1214608   1.598   5.034   6.258
  135OSM   H12A14609   1.635   4.933   6.249
  135OSM   H12B14610   1.492   5.036   6.239
  135OSM    C1114611   1.633   5.081   6.395
  135OSM   H11A14612   1.742   5.101   6.393
  135OSM   H11B14613   1.627   4.998   6.469
  135OSM      P14614   1.405   5.195   6.478
  135OSM    O1314615   1.356   5.325   6.533
  135OSM    O1414616   1.330   5.129   6.367
  135OSM    O1114617   1.422   5.098   6.609
  135OSM    O1214618   1.556   5.201   6.434
  135OSM    C1S14619   1.522   5.148   6.707
  135OSM    H1S14620   1.530   5.259   6.705
  135OSM    H1T14621   1.620   5.099   6.692
  135OSM     NF14622   1.566   5.187   6.951
  135OSM    HNF14623   1.640   5.128   6.982
  135OSM    C2S14624   1.481   5.119   6.855
  135OSM    H2S14625   1.377   5.156   6.861
  135OSM    C3S14626   1.458   4.965   6.880
  135OSM    H3S14627   1.558   4.925   6.851
  135OSM     O314628   1.373   4.887   6.797
  135OSM    HO314629   1.345   4.960   6.741
  135OSM    C4S14630   1.426   4.925   7.014
  135OSM    H4S14631   1.320   4.941   7.039
  135OSM    C5S14632   1.507   4.876   7.113
  135OSM    H5S14633   1.613   4.855   7.099
  135OSM    C6S14634   1.454   4.864   7.253
  135OSM    H6S14635   1.537   4.807   7.301
  135OSM    H6T14636   1.359   4.806   7.251
  135OSM    C7S14637   1.414   4.990   7.335
  135OSM    H7S14638   1.347   5.055   7.274
  135OSM    H7T14639   1.507   5.045   7.362
  135OSM    C8S14640   1.346   4.956   7.466
  135OSM    H8S14641   1.257   4.893   7.443
  135OSM    H8T14642   1.301   5.048   7.509
  135OSM    C9S14643   1.443   4.883   7.563
  135OSM    H9S14644   1.529   4.941   7.602
  135OSM    H9T14645   1.494   4.796   7.516
  135OSM   C10S14646   1.376   4.815   7.687
  135OSM   H10S14647   1.449   4.742   7.728
  135OSM   H10T14648   1.290   4.761   7.642
  135OSM   C11S14649   1.330   4.908   7.799
  135OSM   H11S14650   1.244   4.974   7.773
  135OSM   H11T14651   1.416   4.973   7.826
  135OSM   C12S14652   1.289   4.813   7.922
  135OSM   H12S14653   1.286   4.881   8.010
  135OSM   H12T14654   1.361   4.730   7.937
  135OSM   C13S14655   1.156   4.750   7.895
  135OSM   H13S14656   1.165   4.693   7.799
  135OSM   H13T14657   1.080   4.825   7.866
  135OSM   C14S14658   1.102   4.668   8.009
  135OSM   H14S14659   1.175   4.588   8.034
  135OSM   H14T14660   1.007   4.617   7.982
  135OSM   C15S14661   1.055   4.761   8.130
  135OSM   H15S14662   0.966   4.819   8.099
  135OSM   H15T14663   1.133   4.837   8.151
  135OSM   C16S14664   1.024   4.680   8.261
  135OSM   H16S14665   0.947   4.605   8.234
  135OSM   H16T14666   0.974   4.738   8.341
  135OSM   C17S14667   1.146   4.606   8.317
  135OSM   H17S14668   1.221   4.681   8.350
  135OSM   H17T14669   1.199   4.532   8.254
  135OSM   C18S14670   1.104   4.535   8.448
  135OSM   H18S14671   1.197   4.495   8.494
  135OSM   H18T14672   1.038   4.448   8.425
  135OSM   H18U14673   1.057   4.599   8.525
  135OSM    C1F14674   1.566   5.314   6.981
  135OSM     OF14675   1.491   5.396   6.929
  135OSM    C2F14676   1.678   5.367   7.065
  135OSM    H2F14677   1.699   5.467   7.019
  135OSM    H2G14678   1.768   5.303   7.071
  135OSM    C3F14679   1.609   5.381   7.201
  135OSM    H3F14680   1.572   5.284   7.241
  135OSM    H3G14681   1.530   5.458   7.190
  135OSM    C4F14682   1.702   5.444   7.314
  135OSM    H4F14683   1.756   5.532   7.273
  135OSM    H4G14684   1.773   5.364   7.342
  135OSM    C5F14685   1.621   5.491   7.433
  135OSM    H5F14686   1.542   5.417   7.461
  135OSM    H5G14687   1.567   5.587   7.423
  135OSM    C6F14688   1.706   5.502   7.553
  135OSM    H6F14689   1.767   5.594   7.538
  135OSM    H6G14690   1.782   5.423   7.569
  135OSM    C7F14691   1.628   5.550   7.676
  135OSM    H7F14692   1.557   5.627   7.640
  135OSM    H7G14693   1.698   5.602   7.745
  135OSM    C8F14694   1.568   5.424   7.750
  135OSM    H8F14695   1.657   5.377   7.796
  135OSM    H8G14696   1.517   5.351   7.683
  135OSM    C9F14697   1.478   5.468   7.858
  135OSM    H9F14698   1.419   5.556   7.829
  135OSM   C10F14699   1.450   5.404   7.979
  135OSM   H10F14700   1.373   5.445   8.046
  135OSM   C11F14701   1.511   5.280   8.033
  135OSM   H11F14702   1.516   5.198   7.959
  135OSM   H11G14703   1.437   5.237   8.103
  135OSM   C12F14704   1.657   5.305   8.097
  135OSM   H12F14705   1.715   5.366   8.025
  135OSM   H12G14706   1.701   5.203   8.096
  135OSM   C13F14707   1.638   5.370   8.239
  135OSM   H13F14708   1.542   5.328   8.276
  135OSM   H13G14709   1.621   5.479   8.228
  135OSM   C14F14710   1.753   5.338   8.346
  135OSM   H14F14711   1.843   5.400   8.326
  135OSM   H14G14712   1.780   5.231   8.356
  135OSM   C15F14713   1.704   5.376   8.491
  135OSM   H15F14714   1.714   5.485   8.512
  135OSM   H15G14715   1.779   5.335   8.563
  135OSM   C16F14716   1.568   5.331   8.532
  135OSM   H16F14717   1.539   5.236   8.482
  135OSM   H16G14718   1.501   5.410   8.492
  135OSM   C17F14719   1.552   5.314   8.677
  135OSM   H17F14720   1.586   5.406   8.730
  135OSM   H17G14721   1.604   5.225   8.719
  135OSM   C18F14722   1.409   5.288   8.717
  135OSM   H18F14723   1.348   5.375   8.682
  135OSM   H18G14724   1.400   5.273   8.826
  135OSM   H18H14725   1.374   5.198   8.663
  136OSM      N14726   5.779   6.626   6.079
  136OSM    C1514727   5.641   6.559   6.096
  136OSM   H15A14728   5.656   6.453   6.081
  136OSM   H15B14729   5.574   6.587   6.017
  136OSM   H15C14730   5.581   6.582   6.183
  136OSM    C1414731   5.854   6.572   5.957
  136OSM   H14A14732   5.949   6.624   5.963
  136OSM   H14B14733   5.803   6.605   5.867
  136OSM   H14C14734   5.873   6.466   5.957
  136OSM    C1314735   5.758   6.773   6.064
  136OSM   H13A14736   5.853   6.823   6.052
  136OSM   H13B14737   5.704   6.817   6.147
  136OSM   H13C14738   5.698   6.793   5.976
  136OSM    C1214739   5.847   6.596   6.212
  136OSM   H12A14740   5.858   6.489   6.218
  136OSM   H12B14741   5.795   6.631   6.300
  136OSM    C1114742   5.989   6.661   6.237
  136OSM   H11A14743   6.014   6.646   6.344
  136OSM   H11B14744   5.983   6.771   6.225
  136OSM      P14745   6.247   6.619   6.192
  136OSM    O1314746   6.333   6.558   6.089
  136OSM    O1414747   6.263   6.759   6.227
  136OSM    O1114748   6.258   6.536   6.325
  136OSM    O1214749   6.092   6.611   6.145
  136OSM    C1S14750   6.180   6.414   6.333
  136OSM    H1S14751   6.227   6.343   6.262
  136OSM    H1T14752   6.073   6.426   6.306
  136OSM     NF14753   6.142   6.215   6.490
  136OSM    HNF14754   6.060   6.199   6.544
  136OSM    C2S14755   6.178   6.350   6.480
  136OSM    H2S14756   6.284   6.351   6.513
  136OSM    C3S14757   6.106   6.437   6.583
  136OSM    H3S14758   6.000   6.455   6.556
  136OSM     O314759   6.148   6.572   6.584
  136OSM    HO314760   6.201   6.564   6.504
  136OSM    C4S14761   6.119   6.382   6.721
  136OSM    H4S14762   6.225   6.373   6.750
  136OSM    C5S14763   6.024   6.343   6.811
  136OSM    H5S14764   5.917   6.346   6.785
  136OSM    C6S14765   6.056   6.291   6.948
  136OSM    H6S14766   6.066   6.181   6.946
  136OSM    H6T14767   5.967   6.315   7.011
  136OSM    C7S14768   6.171   6.367   7.010
  136OSM    H7S14769   6.164   6.478   6.999
  136OSM    H7T14770   6.275   6.340   6.983
  136OSM    C8S14771   6.174   6.361   7.163
  136OSM    H8S14772   6.279   6.373   7.198
  136OSM    H8T14773   6.149   6.258   7.195
  136OSM    C9S14774   6.080   6.461   7.227
  136OSM    H9S14775   5.975   6.451   7.193
  136OSM    H9T14776   6.103   6.570   7.223
  136OSM   C10S14777   6.068   6.429   7.372
  136OSM   H10S14778   6.163   6.433   7.429
  136OSM   H10T14779   6.033   6.325   7.389
  136OSM   C11S14780   5.977   6.526   7.450
  136OSM   H11S14781   5.872   6.531   7.416
  136OSM   H11T14782   6.025   6.626   7.445
  136OSM   C12S14783   5.966   6.481   7.601
  136OSM   H12S14784   6.066   6.492   7.647
  136OSM   H12T14785   5.948   6.372   7.608
  136OSM   C13S14786   5.862   6.554   7.686
  136OSM   H13S14787   5.766   6.549   7.630
  136OSM   H13T14788   5.877   6.662   7.705
  136OSM   C14S14789   5.839   6.499   7.832
  136OSM   H14S14790   5.942   6.483   7.871
  136OSM   H14T14791   5.796   6.397   7.823
  136OSM   C15S14792   5.765   6.593   7.931
  136OSM   H15S14793   5.665   6.608   7.885
  136OSM   H15T14794   5.825   6.686   7.923
  136OSM   C16S14795   5.756   6.544   8.074
  136OSM   H16S14796   5.693   6.452   8.077
  136OSM   H16T14797   5.707   6.624   8.133
  136OSM   C17S14798   5.885   6.531   8.140
  136OSM   H17S14799   5.935   6.630   8.144
  136OSM   H17T14800   5.949   6.459   8.085
  136OSM   C18S14801   5.869   6.470   8.279
  136OSM   H18S14802   5.781   6.508   8.335
  136OSM   H18T14803   5.953   6.480   8.352
  136OSM   H18U14804   5.844   6.363   8.262
  136OSM    C1F14805   6.205   6.111   6.429
  136OSM     OF14806   6.301   6.126   6.354
  136OSM    C2F14807   6.141   5.980   6.439
  136OSM    H2F14808   6.143   5.936   6.336
  136OSM    H2G14809   6.039   5.977   6.484
  136OSM    C3F14810   6.236   5.888   6.524
  136OSM    H3F14811   6.342   5.912   6.501
  136OSM    H3G14812   6.237   5.784   6.484
  136OSM    C4F14813   6.211   5.906   6.673
  136OSM    H4F14814   6.112   5.861   6.694
  136OSM    H4G14815   6.223   6.009   6.714
  136OSM    C5F14816   6.300   5.812   6.756
  136OSM    H5F14817   6.283   5.716   6.703
  136OSM    H5G14818   6.250   5.810   6.855
  136OSM    C6F14819   6.452   5.846   6.764
  136OSM    H6F14820   6.453   5.955   6.785
  136OSM    H6G14821   6.504   5.841   6.667
  136OSM    C7F14822   6.533   5.754   6.862
  136OSM    H7F14823   6.630   5.736   6.810
  136OSM    H7G14824   6.472   5.661   6.863
  136OSM    C8F14825   6.562   5.815   6.994
  136OSM    H8F14826   6.597   5.919   6.982
  136OSM    H8G14827   6.648   5.758   7.036
  136OSM    C9F14828   6.444   5.806   7.091
  136OSM    H9F14829   6.390   5.711   7.096
  136OSM   C10F14830   6.394   5.899   7.176
  136OSM   H10F14831   6.310   5.869   7.240
  136OSM   C11F14832   6.430   6.039   7.208
  136OSM   H11F14833   6.345   6.103   7.178
  136OSM   H11G14834   6.513   6.073   7.142
  136OSM   C12F14835   6.467   6.059   7.358
  136OSM   H12F14836   6.403   6.004   7.430
  136OSM   H12G14837   6.442   6.162   7.391
  136OSM   C13F14838   6.614   6.038   7.406
  136OSM   H13F14839   6.666   6.085   7.320
  136OSM   H13G14840   6.632   5.928   7.400
  136OSM   C14F14841   6.665   6.109   7.531
  136OSM   H14F14842   6.673   6.215   7.498
  136OSM   H14G14843   6.770   6.073   7.537
  136OSM   C15F14844   6.576   6.084   7.653
  136OSM   H15F14845   6.574   5.975   7.670
  136OSM   H15G14846   6.475   6.126   7.636
  136OSM   C16F14847   6.619   6.159   7.779
  136OSM   H16F14848   6.606   6.269   7.773
  136OSM   H16G14849   6.729   6.145   7.775
  136OSM   C17F14850   6.557   6.102   7.905
  136OSM   H17F14851   6.606   6.002   7.910
  136OSM   H17G14852   6.447   6.092   7.903
  136OSM   C18F14853   6.590   6.191   8.027
  136OSM   H18F14854   6.522   6.279   8.018
  136OSM   H18G14855   6.694   6.230   8.031
  136OSM   H18H14856   6.577   6.147   8.128
  137OSM      N14857   2.566   4.016   6.269
  137OSM    C1514858   2.504   3.893   6.210
  137OSM   H15A14859   2.413   3.864   6.260
  137OSM   H15B14860   2.573   3.809   6.215
  137OSM   H15C14861   2.478   3.913   6.107
  137OSM    C1414862   2.689   4.044   6.186
  137OSM   H14A14863   2.754   3.959   6.175
  137OSM   H14B14864   2.748   4.123   6.231
  137OSM   H14C14865   2.676   4.075   6.083
  137OSM    C1314866   2.468   4.128   6.255
  137OSM   H13A14867   2.364   4.104   6.275
  137OSM   H13B14868   2.478   4.167   6.155
  137OSM   H13C14869   2.487   4.204   6.329
  137OSM    C1214870   2.600   3.992   6.416
  137OSM   H12A14871   2.506   3.967   6.462
  137OSM   H12B14872   2.625   4.081   6.473
  137OSM    C1114873   2.711   3.888   6.443
  137OSM   H11A14874   2.680   3.793   6.396
  137OSM   H11B14875   2.701   3.857   6.549
  137OSM      P14876   2.939   4.013   6.472
  137OSM    O1314877   3.073   4.009   6.402
  137OSM    O1414878   2.876   4.146   6.480
  137OSM    O1114879   2.956   3.957   6.616
  137OSM    O1214880   2.841   3.911   6.400
  137OSM    C1S14881   3.004   4.037   6.724
  137OSM    H1S14882   2.973   4.143   6.711
  137OSM    H1T14883   3.114   4.023   6.731
  137OSM     NF14884   2.968   4.049   6.983
  137OSM    HNF14885   3.031   4.009   7.050
  137OSM    C2S14886   2.934   3.979   6.855
  137OSM    H2S14887   2.826   4.001   6.845
  137OSM    C3S14888   2.952   3.827   6.855
  137OSM    H3S14889   3.063   3.814   6.852
  137OSM     O314890   2.888   3.754   6.746
  137OSM    HO314891   2.881   3.825   6.682
  137OSM    C4S14892   2.907   3.768   6.986
  137OSM    H4S14893   2.997   3.768   7.050
  137OSM    C5S14894   2.788   3.736   7.032
  137OSM    H5S14895   2.698   3.759   6.972
  137OSM    C6S14896   2.758   3.698   7.173
  137OSM    H6S14897   2.683   3.767   7.217
  137OSM    H6T14898   2.852   3.711   7.230
  137OSM    C7S14899   2.705   3.557   7.193
  137OSM    H7S14900   2.777   3.483   7.151
  137OSM    H7T14901   2.611   3.542   7.134
  137OSM    C8S14902   2.685   3.520   7.349
  137OSM    H8S14903   2.783   3.495   7.395
  137OSM    H8T14904   2.609   3.439   7.359
  137OSM    C9S14905   2.611   3.627   7.436
  137OSM    H9S14906   2.518   3.633   7.375
  137OSM    H9T14907   2.643   3.733   7.435
  137OSM   C10S14908   2.572   3.605   7.577
  137OSM   H10S14909   2.524   3.505   7.580
  137OSM   H10T14910   2.494   3.680   7.606
  137OSM   C11S14911   2.692   3.609   7.676
  137OSM   H11S14912   2.730   3.713   7.674
  137OSM   H11T14913   2.771   3.540   7.640
  137OSM   C12S14914   2.668   3.587   7.829
  137OSM   H12S14915   2.750   3.623   7.895
  137OSM   H12T14916   2.642   3.480   7.845
  137OSM   C13S14917   2.543   3.665   7.884
  137OSM   H13S14918   2.453   3.635   7.827
  137OSM   H13T14919   2.553   3.768   7.844
  137OSM   C14S14920   2.515   3.651   8.037
  137OSM   H14S14921   2.503   3.544   8.062
  137OSM   H14T14922   2.420   3.705   8.059
  137OSM   C15S14923   2.630   3.715   8.116
  137OSM   H15S14924   2.631   3.823   8.092
  137OSM   H15T14925   2.729   3.669   8.096
  137OSM   C16S14926   2.600   3.699   8.264
  137OSM   H16S14927   2.582   3.599   8.308
  137OSM   H16T14928   2.509   3.761   8.277
  137OSM   C17S14929   2.703   3.759   8.348
  137OSM   H17S14930   2.707   3.870   8.348
  137OSM   H17T14931   2.807   3.736   8.317
  137OSM   C18S14932   2.707   3.734   8.500
  137OSM   H18S14933   2.772   3.812   8.545
  137OSM   H18T14934   2.741   3.630   8.520
  137OSM   H18U14935   2.605   3.749   8.540
  137OSM    C1F14936   2.937   4.178   7.015
  137OSM     OF14937   2.888   4.248   6.931
  137OSM    C2F14938   2.961   4.217   7.156
  137OSM    H2F14939   3.061   4.184   7.193
  137OSM    H2G14940   2.881   4.163   7.210
  137OSM    C3F14941   2.941   4.366   7.192
  137OSM    H3F14942   2.838   4.400   7.167
  137OSM    H3G14943   3.018   4.417   7.130
  137OSM    C4F14944   2.974   4.374   7.344
  137OSM    H4F14945   3.003   4.472   7.389
  137OSM    H4G14946   3.061   4.310   7.368
  137OSM    C5F14947   2.864   4.332   7.440
  137OSM    H5F14948   2.835   4.235   7.395
  137OSM    H5G14949   2.776   4.398   7.431
  137OSM    C6F14950   2.907   4.300   7.591
  137OSM    H6F14951   2.961   4.391   7.623
  137OSM    H6G14952   2.984   4.220   7.592
  137OSM    C7F14953   2.779   4.262   7.665
  137OSM    H7F14954   2.722   4.173   7.631
  137OSM    H7G14955   2.711   4.350   7.666
  137OSM    C8F14956   2.798   4.238   7.814
  137OSM    H8F14957   2.895   4.184   7.815
  137OSM    H8G14958   2.720   4.167   7.849
  137OSM    C9F14959   2.804   4.359   7.901
  137OSM    H9F14960   2.887   4.424   7.871
  137OSM   C10F14961   2.723   4.406   8.001
  137OSM   H10F14962   2.761   4.496   8.052
  137OSM   C11F14963   2.628   4.313   8.068
  137OSM   H11F14964   2.613   4.217   8.014
  137OSM   H11G14965   2.522   4.346   8.078
  137OSM   C12F14966   2.661   4.285   8.216
  137OSM   H12F14967   2.681   4.383   8.264
  137OSM   H12G14968   2.756   4.227   8.210
  137OSM   C13F14969   2.547   4.216   8.300
  137OSM   H13F14970   2.522   4.123   8.244
  137OSM   H13G14971   2.453   4.274   8.302
  137OSM   C14F14972   2.588   4.180   8.449
  137OSM   H14F14973   2.585   4.276   8.507
  137OSM   H14G14974   2.689   4.137   8.465
  137OSM   C15F14975   2.479   4.093   8.514
  137OSM   H15F14976   2.513   4.067   8.616
  137OSM   H15G14977   2.471   4.003   8.449
  137OSM   C16F14978   2.340   4.156   8.526
  137OSM   H16F14979   2.295   4.151   8.425
  137OSM   H16G14980   2.357   4.259   8.565
  137OSM   C17F14981   2.248   4.084   8.633
  137OSM   H17F14982   2.284   4.088   8.738
  137OSM   H17G14983   2.243   3.978   8.602
  137OSM   C18F14984   2.111   4.155   8.642
  137OSM   H18F14985   2.056   4.115   8.730
  137OSM   H18G14986   2.046   4.138   8.553
  137OSM   H18H14987   2.127   4.263   8.658
  138OSM      N14988   3.126   6.197   5.878
  138OSM    C1514989   3.123   6.225   5.730
  138OSM   H15A14990   3.018   6.228   5.705
  138OSM   H15B14991   3.163   6.143   5.671
  138OSM   H15C14992   3.186   6.308   5.701
  138OSM    C1414993   3.041   6.084   5.918
  138OSM   H14A14994   3.064   6.054   6.018
  138OSM   H14B14995   3.066   5.996   5.861
  138OSM   H14C14996   2.937   6.113   5.922
  138OSM    C1314997   3.262   6.166   5.917
  138OSM   H13A14998   3.293   6.089   5.848
  138OSM   H13B14999   3.259   6.115   6.013
  138OSM   H13C15000   3.321   6.256   5.913
  138OSM    C1215001   3.073   6.320   5.957
  138OSM   H12A15002   3.097   6.299   6.060
  138OSM   H12B15003   2.966   6.329   5.954
  138OSM    C1115004   3.121   6.468   5.921
  138OSM   H11A15005   3.081   6.536   5.999
  138OSM   H11B15006   3.088   6.501   5.820
  138OSM      P15007   3.358   6.532   6.023
  138OSM    O1315008   3.448   6.427   6.071
  138OSM    O1415009   3.427   6.648   5.962
  138OSM    O1115010   3.258   6.564   6.140
  138OSM    O1215011   3.260   6.475   5.911
  138OSM    C1S15012   3.210   6.484   6.246
  138OSM    H1S15013   3.254   6.382   6.249
  138OSM    H1T15014   3.101   6.470   6.227
  138OSM     NF15015   3.191   6.456   6.486
  138OSM    HNF15016   3.115   6.499   6.534
  138OSM    C2S15017   3.232   6.554   6.378
  138OSM    H2S15018   3.342   6.563   6.394
  138OSM    C3S15019   3.163   6.682   6.390
  138OSM    H3S15020   3.056   6.651   6.398
  138OSM     O315021   3.164   6.781   6.280
  138OSM    HO315022   3.215   6.737   6.212
  138OSM    C4S15023   3.201   6.750   6.516
  138OSM    H4S15024   3.307   6.775   6.530
  138OSM    C5S15025   3.111   6.806   6.594
  138OSM    H5S15026   3.003   6.799   6.576
  138OSM    C6S15027   3.130   6.877   6.720
  138OSM    H6S15028   3.028   6.872   6.765
  138OSM    H6T15029   3.165   6.980   6.702
  138OSM    C7S15030   3.231   6.812   6.819
  138OSM    H7S15031   3.334   6.851   6.804
  138OSM    H7T15032   3.230   6.701   6.818
  138OSM    C8S15033   3.202   6.848   6.967
  138OSM    H8S15034   3.108   6.815   7.016
  138OSM    H8T15035   3.205   6.958   6.953
  138OSM    C9S15036   3.310   6.808   7.062
  138OSM    H9S15037   3.408   6.846   7.027
  138OSM    H9T15038   3.316   6.697   7.066
  138OSM   C10S15039   3.276   6.871   7.197
  138OSM   H10S15040   3.171   6.840   7.220
  138OSM   H10T15041   3.277   6.982   7.193
  138OSM   C11S15042   3.363   6.828   7.320
  138OSM   H11S15043   3.470   6.837   7.292
  138OSM   H11T15044   3.347   6.719   7.338
  138OSM   C12S15045   3.309   6.898   7.447
  138OSM   H12S15046   3.202   6.876   7.466
  138OSM   H12T15047   3.318   7.009   7.440
  138OSM   C13S15048   3.386   6.852   7.573
  138OSM   H13S15049   3.494   6.878   7.562
  138OSM   H13T15050   3.362   6.745   7.589
  138OSM   C14S15051   3.335   6.910   7.702
  138OSM   H14S15052   3.226   6.897   7.721
  138OSM   H14T15053   3.346   7.020   7.689
  138OSM   C15S15054   3.421   6.873   7.824
  138OSM   H15S15055   3.380   6.927   7.911
  138OSM   H15T15056   3.525   6.903   7.799
  138OSM   C16S15057   3.435   6.724   7.863
  138OSM   H16S15058   3.453   6.657   7.776
  138OSM   H16T15059   3.335   6.691   7.898
  138OSM   C17S15060   3.551   6.695   7.968
  138OSM   H17S15061   3.548   6.779   8.040
  138OSM   H17T15062   3.646   6.696   7.909
  138OSM   C18S15063   3.544   6.564   8.041
  138OSM   H18S15064   3.638   6.509   8.060
  138OSM   H18T15065   3.470   6.507   7.982
  138OSM   H18U15066   3.494   6.583   8.139
  138OSM    C1F15067   3.258   6.345   6.530
  138OSM     OF15068   3.367   6.317   6.472
  138OSM    C2F15069   3.188   6.263   6.639
  138OSM    H2F15070   3.081   6.249   6.611
  138OSM    H2G15071   3.204   6.319   6.733
  138OSM    C3F15072   3.264   6.127   6.645
  138OSM    H3F15073   3.363   6.140   6.695
  138OSM    H3G15074   3.280   6.069   6.552
  138OSM    C4F15075   3.170   6.023   6.723
  138OSM    H4F15076   3.221   5.924   6.715
  138OSM    H4G15077   3.068   6.005   6.684
  138OSM    C5F15078   3.142   6.057   6.867
  138OSM    H5F15079   3.098   6.158   6.875
  138OSM    H5G15080   3.239   6.053   6.921
  138OSM    C6F15081   3.048   5.947   6.933
  138OSM    H6F15082   3.098   5.848   6.930
  138OSM    H6G15083   2.963   5.937   6.862
  138OSM    C7F15084   2.995   5.995   7.067
  138OSM    H7F15085   2.916   5.927   7.106
  138OSM    H7G15086   2.952   6.097   7.053
  138OSM    C8F15087   3.098   6.023   7.181
  138OSM    H8F15088   3.042   6.050   7.273
  138OSM    H8G15089   3.149   6.117   7.153
  138OSM    C9F15090   3.187   5.903   7.209
  138OSM    H9F15091   3.180   5.814   7.145
  138OSM   C10F15092   3.255   5.880   7.325
  138OSM   H10F15093   3.300   5.783   7.349
  138OSM   C11F15094   3.269   5.974   7.439
  138OSM   H11F15095   3.172   5.982   7.492
  138OSM   H11G15096   3.287   6.075   7.396
  138OSM   C12F15097   3.373   5.957   7.547
  138OSM   H12F15098   3.392   6.050   7.604
  138OSM   H12G15099   3.465   5.926   7.492
  138OSM   C13F15100   3.330   5.849   7.648
  138OSM   H13F15101   3.300   5.753   7.600
  138OSM   H13G15102   3.238   5.886   7.699
  138OSM   C14F15103   3.428   5.822   7.762
  138OSM   H14F15104   3.418   5.903   7.837
  138OSM   H14G15105   3.529   5.818   7.716
  138OSM   C15F15106   3.390   5.686   7.823
  138OSM   H15F15107   3.381   5.617   7.736
  138OSM   H15G15108   3.288   5.685   7.869
  138OSM   C16F15109   3.506   5.633   7.908
  138OSM   H16F15110   3.515   5.698   7.997
  138OSM   H16G15111   3.602   5.639   7.852
  138OSM   C17F15112   3.479   5.487   7.957
  138OSM   H17F15113   3.431   5.443   7.867
  138OSM   H17G15114   3.405   5.481   8.040
  138OSM   C18F15115   3.597   5.400   7.988
  138OSM   H18F15116   3.633   5.341   7.901
  138OSM   H18G15117   3.564   5.339   8.075
  138OSM   H18H15118   3.688   5.453   8.024
  139OSM      N15119   2.759   0.550   6.065
  139OSM    C1515120   2.668   0.506   5.950
  139OSM   H15A15121   2.564   0.535   5.958
  139OSM   H15B15122   2.675   0.400   5.932
  139OSM   H15C15123   2.713   0.552   5.864
  139OSM    C1415124   2.898   0.527   6.027
  139OSM   H14A15125   2.964   0.574   6.098
  139OSM   H14B15126   2.940   0.555   5.932
  139OSM   H14C15127   2.912   0.420   6.024
  139OSM    C1315128   2.743   0.695   6.078
  139OSM   H13A15129   2.770   0.753   5.991
  139OSM   H13B15130   2.807   0.728   6.158
  139OSM   H13C15131   2.642   0.724   6.103
  139OSM    C1215132   2.731   0.482   6.195
  139OSM   H12A15133   2.802   0.530   6.261
  139OSM   H12B15134   2.746   0.376   6.179
  139OSM    C1115135   2.585   0.512   6.249
  139OSM   H11A15136   2.566   0.621   6.255
  139OSM   H11B15137   2.575   0.475   6.354
  139OSM      P15138   2.449   0.310   6.153
  139OSM    O1315139   2.371   0.281   6.030
  139OSM    O1415140   2.573   0.230   6.173
  139OSM    O1115141   2.354   0.287   6.277
  139OSM    O1215142   2.485   0.465   6.165
  139OSM    C1S15143   2.377   0.323   6.411
  139OSM    H1S15144   2.381   0.433   6.419
  139OSM    H1T15145   2.471   0.278   6.449
  139OSM     NF15146   2.290   0.332   6.634
  139OSM    HNF15147   2.310   0.268   6.708
  139OSM    C2S15148   2.263   0.275   6.511
  139OSM    H2S15149   2.176   0.323   6.463
  139OSM    C3S15150   2.257   0.121   6.519
  139OSM    H3S15151   2.347   0.088   6.574
  139OSM     O315152   2.271   0.069   6.388
  139OSM    HO315153   2.318   0.140   6.342
  139OSM    C4S15154   2.119   0.079   6.575
  139OSM    H4S15155   2.050   0.051   6.494
  139OSM    C5S15156   2.075   0.086   6.700
  139OSM    H5S15157   2.142   0.108   6.785
  139OSM    C6S15158   1.939   0.048   6.740
  139OSM    H6S15159   1.937  -0.063   6.748
  139OSM    H6T15160   1.863   0.075   6.665
  139OSM    C7S15161   1.906   0.100   6.878
  139OSM    H7S15162   1.993   0.088   6.946
  139OSM    H7T15163   1.820   0.045   6.922
  139OSM    C8S15164   1.852   0.244   6.872
  139OSM    H8S15165   1.754   0.245   6.819
  139OSM    H8T15166   1.925   0.298   6.807
  139OSM    C9S15167   1.851   0.320   7.006
  139OSM    H9S15168   1.832   0.249   7.089
  139OSM    H9T15169   1.759   0.383   7.005
  139OSM   C10S15170   1.971   0.412   7.027
  139OSM   H10S15171   1.942   0.486   7.104
  139OSM   H10T15172   1.993   0.468   6.934
  139OSM   C11S15173   2.109   0.356   7.057
  139OSM   H11S15174   2.193   0.426   7.040
  139OSM   H11T15175   2.124   0.295   6.965
  139OSM   C12S15176   2.119   0.268   7.188
  139OSM   H12S15177   2.211   0.206   7.178
  139OSM   H12T15178   2.028   0.203   7.189
  139OSM   C13S15179   2.117   0.356   7.319
  139OSM   H13S15180   2.018   0.404   7.338
  139OSM   H13T15181   2.190   0.437   7.299
  139OSM   C14S15182   2.141   0.278   7.445
  139OSM   H14S15183   2.234   0.222   7.421
  139OSM   H14T15184   2.060   0.205   7.468
  139OSM   C15S15185   2.173   0.380   7.552
  139OSM   H15S15186   2.095   0.459   7.550
  139OSM   H15T15187   2.263   0.429   7.510
  139OSM   C16S15188   2.205   0.322   7.696
  139OSM   H16S15189   2.244   0.218   7.704
  139OSM   H16T15190   2.110   0.319   7.752
  139OSM   C17S15191   2.303   0.396   7.785
  139OSM   H17S15192   2.267   0.500   7.798
  139OSM   H17T15193   2.401   0.386   7.734
  139OSM   C18S15194   2.310   0.334   7.921
  139OSM   H18S15195   2.212   0.327   7.972
  139OSM   H18T15196   2.382   0.394   7.982
  139OSM   H18U15197   2.349   0.230   7.921
  139OSM    C1F15198   2.283   0.460   6.659
  139OSM     OF15199   2.232   0.532   6.573
  139OSM    C2F15200   2.319   0.513   6.798
  139OSM    H2F15201   2.404   0.452   6.834
  139OSM    H2G15202   2.231   0.526   6.864
  139OSM    C3F15203   2.393   0.649   6.778
  139OSM    H3F15204   2.321   0.720   6.733
  139OSM    H3G15205   2.481   0.644   6.709
  139OSM    C4F15206   2.438   0.711   6.909
  139OSM    H4F15207   2.356   0.695   6.983
  139OSM    H4G15208   2.453   0.821   6.902
  139OSM    C5F15209   2.576   0.657   6.959
  139OSM    H5F15210   2.647   0.704   6.889
  139OSM    H5G15211   2.590   0.547   6.945
  139OSM    C6F15212   2.602   0.719   7.094
  139OSM    H6F15213   2.627   0.826   7.079
  139OSM    H6G15214   2.702   0.683   7.129
  139OSM    C7F15215   2.500   0.698   7.207
  139OSM    H7F15216   2.455   0.598   7.195
  139OSM    H7G15217   2.407   0.757   7.193
  139OSM    C8F15218   2.551   0.723   7.337
  139OSM    H8F15219   2.463   0.743   7.402
  139OSM    H8G15220   2.609   0.818   7.328
  139OSM    C9F15221   2.643   0.622   7.396
  139OSM    H9F15222   2.695   0.550   7.331
  139OSM   C10F15223   2.670   0.600   7.528
  139OSM   H10F15224   2.723   0.505   7.546
  139OSM   C11F15225   2.630   0.683   7.647
  139OSM   H11F15226   2.524   0.673   7.677
  139OSM   H11G15227   2.635   0.792   7.626
  139OSM   C12F15228   2.722   0.643   7.768
  139OSM   H12F15229   2.818   0.698   7.756
  139OSM   H12G15230   2.748   0.536   7.775
  139OSM   C13F15231   2.650   0.671   7.903
  139OSM   H13F15232   2.547   0.633   7.888
  139OSM   H13G15233   2.650   0.780   7.926
  139OSM   C14F15234   2.725   0.618   8.021
  139OSM   H14F15235   2.818   0.676   8.041
  139OSM   H14G15236   2.755   0.513   7.997
  139OSM   C15F15237   2.649   0.626   8.160
  139OSM   H15F15238   2.565   0.555   8.149
  139OSM   H15G15239   2.611   0.731   8.171
  139OSM   C16F15240   2.732   0.586   8.279
  139OSM   H16F15241   2.786   0.489   8.270
  139OSM   H16G15242   2.670   0.593   8.371
  139OSM   C17F15243   2.826   0.708   8.296
  139OSM   H17F15244   2.792   0.803   8.249
  139OSM   H17G15245   2.922   0.694   8.242
  139OSM   C18F15246   2.855   0.744   8.439
  139OSM   H18F15247   2.931   0.826   8.437
  139OSM   H18G15248   2.877   0.659   8.507
  139OSM   H18H15249   2.758   0.784   8.477
  140OSM      N15250   2.426   2.332   6.232
  140OSM    C1515251   2.424   2.183   6.238
  140OSM   H15A15252   2.338   2.153   6.295
  140OSM   H15B15253   2.521   2.144   6.267
  140OSM   H15C15254   2.410   2.151   6.136
  140OSM    C1415255   2.542   2.360   6.155
  140OSM   H14A15256   2.576   2.461   6.172
  140OSM   H14B15257   2.527   2.349   6.049
  140OSM   H14C15258   2.626   2.298   6.182
  140OSM    C1315259   2.298   2.379   6.163
  140OSM   H13A15260   2.209   2.360   6.221
  140OSM   H13B15261   2.285   2.327   6.069
  140OSM   H13C15262   2.314   2.484   6.149
  140OSM    C1215263   2.445   2.387   6.370
  140OSM   H12A15264   2.530   2.340   6.418
  140OSM   H12B15265   2.362   2.366   6.436
  140OSM    C1115266   2.470   2.537   6.376
  140OSM   H11A15267   2.456   2.565   6.483
  140OSM   H11B15268   2.394   2.597   6.322
  140OSM      P15269   2.732   2.580   6.408
  140OSM    O1315270   2.846   2.534   6.330
  140OSM    O1415271   2.749   2.717   6.461
  140OSM    O1115272   2.691   2.487   6.534
  140OSM    O1215273   2.599   2.573   6.315
  140OSM    C1S15274   2.753   2.355   6.548
  140OSM    H1S15275   2.855   2.354   6.506
  140OSM    H1T15276   2.701   2.267   6.503
  140OSM     NF15277   2.859   2.221   6.739
  140OSM    HNF15278   2.828   2.126   6.742
  140OSM    C2S15279   2.762   2.318   6.703
  140OSM    H2S15280   2.805   2.412   6.743
  140OSM    C3S15281   2.621   2.297   6.756
  140OSM    H3S15282   2.565   2.219   6.698
  140OSM     O315283   2.540   2.418   6.747
  140OSM    HO315284   2.589   2.466   6.680
  140OSM    C4S15285   2.623   2.264   6.905
  140OSM    H4S15286   2.684   2.335   6.962
  140OSM    C5S15287   2.557   2.159   6.959
  140OSM    H5S15288   2.498   2.087   6.900
  140OSM    C6S15289   2.539   2.141   7.106
  140OSM    H6S15290   2.432   2.116   7.121
  140OSM    H6T15291   2.536   2.239   7.158
  140OSM    C7S15292   2.637   2.060   7.185
  140OSM    H7S15293   2.729   2.118   7.207
  140OSM    H7T15294   2.670   1.968   7.133
  140OSM    C8S15295   2.584   2.023   7.328
  140OSM    H8S15296   2.660   1.948   7.358
  140OSM    H8T15297   2.484   1.974   7.321
  140OSM    C9S15298   2.601   2.134   7.437
  140OSM    H9S15299   2.540   2.218   7.400
  140OSM    H9T15300   2.706   2.170   7.435
  140OSM   C10S15301   2.543   2.093   7.572
  140OSM   H10S15302   2.591   1.998   7.604
  140OSM   H10T15303   2.436   2.075   7.545
  140OSM   C11S15304   2.559   2.193   7.696
  140OSM   H11S15305   2.507   2.282   7.654
  140OSM   H11T15306   2.665   2.219   7.716
  140OSM   C12S15307   2.492   2.143   7.823
  140OSM   H12S15308   2.483   2.033   7.834
  140OSM   H12T15309   2.385   2.173   7.810
  140OSM   C13S15310   2.554   2.212   7.951
  140OSM   H13S15311   2.536   2.322   7.952
  140OSM   H13T15312   2.664   2.195   7.948
  140OSM   C14S15313   2.511   2.154   8.085
  140OSM   H14S15314   2.598   2.180   8.149
  140OSM   H14T15315   2.511   2.043   8.075
  140OSM   C15S15316   2.397   2.229   8.147
  140OSM   H15S15317   2.387   2.318   8.081
  140OSM   H15T15318   2.426   2.261   8.249
  140OSM   C16S15319   2.260   2.150   8.158
  140OSM   H16S15320   2.272   2.056   8.215
  140OSM   H16T15321   2.233   2.112   8.057
  140OSM   C17S15322   2.149   2.235   8.220
  140OSM   H17S15323   2.152   2.343   8.193
  140OSM   H17T15324   2.159   2.232   8.330
  140OSM   C18S15325   2.014   2.174   8.170
  140OSM   H18S15326   2.005   2.196   8.062
  140OSM   H18T15327   1.927   2.221   8.222
  140OSM   H18U15328   2.002   2.066   8.194
  140OSM    C1F15329   2.987   2.249   6.736
  140OSM     OF15330   3.026   2.344   6.676
  140OSM    C2F15331   3.080   2.160   6.812
  140OSM    H2F15332   3.170   2.218   6.841
  140OSM    H2G15333   3.128   2.079   6.753
  140OSM    C3F15334   3.025   2.105   6.943
  140OSM    H3F15335   3.101   2.043   6.995
  140OSM    H3G15336   2.936   2.041   6.927
  140OSM    C4F15337   2.991   2.209   7.048
  140OSM    H4F15338   2.957   2.147   7.134
  140OSM    H4G15339   2.903   2.264   7.010
  140OSM    C5F15340   3.106   2.302   7.097
  140OSM    H5F15341   3.155   2.349   7.009
  140OSM    H5G15342   3.185   2.237   7.140
  140OSM    C6F15343   3.065   2.399   7.201
  140OSM    H6F15344   3.010   2.475   7.142
  140OSM    H6G15345   3.164   2.443   7.228
  140OSM    C7F15346   2.998   2.339   7.317
  140OSM    H7F15347   3.066   2.260   7.354
  140OSM    H7G15348   2.900   2.299   7.285
  140OSM    C8F15349   2.963   2.438   7.431
  140OSM    H8F15350   2.878   2.388   7.483
  140OSM    H8G15351   2.912   2.529   7.393
  140OSM    C9F15352   3.083   2.464   7.525
  140OSM    H9F15353   3.159   2.529   7.478
  140OSM   C10F15354   3.098   2.408   7.648
  140OSM   H10F15355   3.200   2.417   7.689
  140OSM   C11F15356   3.007   2.307   7.716
  140OSM   H11F15357   2.938   2.280   7.633
  140OSM   H11G15358   2.945   2.353   7.796
  140OSM   C12F15359   3.101   2.194   7.756
  140OSM   H12F15360   3.176   2.162   7.681
  140OSM   H12G15361   3.032   2.112   7.787
  140OSM   C13F15362   3.176   2.231   7.890
  140OSM   H13F15363   3.135   2.323   7.938
  140OSM   H13G15364   3.281   2.244   7.855
  140OSM   C14F15365   3.178   2.114   7.992
  140OSM   H14F15366   3.219   2.029   7.932
  140OSM   H14G15367   3.073   2.093   8.019
  140OSM   C15F15368   3.258   2.154   8.118
  140OSM   H15F15369   3.236   2.262   8.132
  140OSM   H15G15370   3.365   2.139   8.091
  140OSM   C16F15371   3.240   2.070   8.244
  140OSM   H16F15372   3.256   1.963   8.220
  140OSM   H16G15373   3.138   2.082   8.286
  140OSM   C17F15374   3.335   2.110   8.360
  140OSM   H17F15375   3.316   2.214   8.394
  140OSM   H17G15376   3.431   2.118   8.305
  140OSM   C18F15377   3.336   1.998   8.465
  140OSM   H18F15378   3.394   2.041   8.549
  140OSM   H18G15379   3.386   1.911   8.419
  140OSM   H18H15380   3.232   1.976   8.500
  141OSM      N15381   1.684   3.701   6.209
  141OSM    C1515382   1.645   3.826   6.270
  141OSM   H15A15383   1.575   3.881   6.209
  141OSM   H15B15384   1.734   3.888   6.271
  141OSM   H15C15385   1.610   3.818   6.371
  141OSM    C1415386   1.760   3.623   6.310
  141OSM   H14A15387   1.864   3.651   6.315
  141OSM   H14B15388   1.768   3.520   6.280
  141OSM   H14C15389   1.715   3.614   6.408
  141OSM    C1315390   1.554   3.628   6.172
  141OSM   H13A15391   1.576   3.524   6.149
  141OSM   H13B15392   1.504   3.683   6.094
  141OSM   H13C15393   1.497   3.642   6.263
  141OSM    C1215394   1.764   3.727   6.085
  141OSM   H12A15395   1.711   3.797   6.023
  141OSM   H12B15396   1.789   3.634   6.038
  141OSM    C1115397   1.901   3.792   6.106
  141OSM   H11A15398   1.893   3.873   6.182
  141OSM   H11B15399   1.923   3.841   6.009
  141OSM      P15400   2.132   3.722   6.216
  141OSM    O1315401   2.216   3.603   6.215
  141OSM    O1415402   2.190   3.844   6.155
  141OSM    O1115403   2.083   3.749   6.368
  141OSM    O1215404   2.000   3.697   6.138
  141OSM    C1S15405   2.181   3.769   6.468
  141OSM    H1S15406   2.283   3.790   6.428
  141OSM    H1T15407   2.199   3.673   6.521
  141OSM     NF15408   2.234   3.863   6.685
  141OSM    HNF15409   2.208   3.807   6.763
  141OSM    C2S15410   2.143   3.880   6.566
  141OSM    H2S15411   2.161   3.979   6.519
  141OSM    C3S15412   1.990   3.871   6.588
  141OSM    H3S15413   1.949   3.768   6.596
  141OSM     O315414   1.912   3.921   6.475
  141OSM    HO315415   1.971   3.928   6.399
  141OSM    C4S15416   1.961   3.935   6.723
  141OSM    H4S15417   2.007   3.876   6.804
  141OSM    C5S15418   1.895   4.051   6.754
  141OSM    H5S15419   1.858   4.100   6.663
  141OSM    C6S15420   1.874   4.111   6.892
  141OSM    H6S15421   1.767   4.138   6.904
  141OSM    H6T15422   1.934   4.204   6.890
  141OSM    C7S15423   1.917   4.025   7.019
  141OSM    H7S15424   2.024   3.996   7.017
  141OSM    H7T15425   1.866   3.926   7.024
  141OSM    C8S15426   1.892   4.104   7.152
  141OSM    H8S15427   1.783   4.126   7.158
  141OSM    H8T15428   1.944   4.201   7.139
  141OSM    C9S15429   1.933   4.026   7.279
  141OSM    H9S15430   2.041   4.009   7.262
  141OSM    H9T15431   1.889   3.924   7.290
  141OSM   C10S15432   1.902   4.099   7.414
  141OSM   H10S15433   1.794   4.122   7.417
  141OSM   H10T15434   1.950   4.198   7.432
  141OSM   C11S15435   1.938   4.018   7.538
  141OSM   H11S15436   2.048   4.010   7.544
  141OSM   H11T15437   1.900   3.913   7.543
  141OSM   C12S15438   1.886   4.101   7.662
  141OSM   H12S15439   1.777   4.114   7.644
  141OSM   H12T15440   1.945   4.195   7.668
  141OSM   C13S15441   1.887   4.023   7.789
  141OSM   H13S15442   1.993   3.997   7.809
  141OSM   H13T15443   1.827   3.930   7.777
  141OSM   C14S15444   1.821   4.083   7.910
  141OSM   H14S15445   1.713   4.104   7.896
  141OSM   H14T15446   1.875   4.178   7.928
  141OSM   C15S15447   1.829   3.992   8.039
  141OSM   H15S15448   1.872   4.055   8.120
  141OSM   H15T15449   1.908   3.917   8.017
  141OSM   C16S15450   1.704   3.928   8.078
  141OSM   H16S15451   1.677   3.856   7.998
  141OSM   H16T15452   1.625   4.007   8.086
  141OSM   C17S15453   1.725   3.844   8.200
  141OSM   H17S15454   1.808   3.771   8.191
  141OSM   H17T15455   1.639   3.776   8.217
  141OSM   C18S15456   1.735   3.924   8.327
  141OSM   H18S15457   1.843   3.949   8.340
  141OSM   H18T15458   1.713   3.872   8.423
  141OSM   H18U15459   1.679   4.019   8.320
  141OSM    C1F15460   2.363   3.911   6.684
  141OSM     OF15461   2.391   3.986   6.591
  141OSM    C2F15462   2.452   3.849   6.785
  141OSM    H2F15463   2.553   3.884   6.755
  141OSM    H2G15464   2.445   3.739   6.776
  141OSM    C3F15465   2.409   3.898   6.922
  141OSM    H3F15466   2.473   3.847   6.997
  141OSM    H3G15467   2.309   3.860   6.949
  141OSM    C4F15468   2.411   4.051   6.934
  141OSM    H4F15469   2.340   4.100   6.865
  141OSM    H4G15470   2.515   4.081   6.907
  141OSM    C5F15471   2.396   4.102   7.074
  141OSM    H5F15472   2.290   4.082   7.103
  141OSM    H5G15473   2.402   4.213   7.075
  141OSM    C6F15474   2.495   4.040   7.181
  141OSM    H6F15475   2.600   4.052   7.147
  141OSM    H6G15476   2.469   3.933   7.190
  141OSM    C7F15477   2.503   4.117   7.316
  141OSM    H7F15478   2.550   4.215   7.293
  141OSM    H7G15479   2.570   4.059   7.383
  141OSM    C8F15480   2.361   4.139   7.380
  141OSM    H8F15481   2.304   4.045   7.393
  141OSM    H8G15482   2.307   4.192   7.298
  141OSM    C9F15483   2.386   4.221   7.513
  141OSM    H9F15484   2.379   4.330   7.503
  141OSM   C10F15485   2.419   4.169   7.634
  141OSM   H10F15486   2.447   4.245   7.709
  141OSM   C11F15487   2.410   4.024   7.674
  141OSM   H11F15488   2.505   3.976   7.704
  141OSM   H11G15489   2.384   3.960   7.586
  141OSM   C12F15490   2.323   4.012   7.803
  141OSM   H12F15491   2.319   3.905   7.830
  141OSM   H12G15492   2.220   4.044   7.777
  141OSM   C13F15493   2.377   4.072   7.932
  141OSM   H13F15494   2.405   4.179   7.917
  141OSM   H13G15495   2.466   4.020   7.972
  141OSM   C14F15496   2.279   4.075   8.050
  141OSM   H14F15497   2.178   4.107   8.017
  141OSM   H14G15498   2.321   4.147   8.122
  141OSM   C15F15499   2.259   3.932   8.111
  141OSM   H15F15500   2.355   3.889   8.146
  141OSM   H15G15501   2.218   3.863   8.034
  141OSM   C16F15502   2.161   3.930   8.228
  141OSM   H16F15503   2.074   3.992   8.195
  141OSM   H16G15504   2.196   3.975   8.323
  141OSM   C17F15505   2.115   3.787   8.265
  141OSM   H17F15506   2.078   3.731   8.176
  141OSM   H17G15507   2.038   3.804   8.344
  141OSM   C18F15508   2.222   3.693   8.324
  141OSM   H18F15509   2.306   3.696   8.251
  141OSM   H18G15510   2.191   3.586   8.328
  141OSM   H18H15511   2.266   3.728   8.419
  142OSM      N15512   2.304   5.383   6.223
  142OSM    C1515513   2.388   5.265   6.199
  142OSM   H15A15514   2.491   5.283   6.227
  142OSM   H15B15515   2.378   5.215   6.104
  142OSM   H15C15516   2.367   5.183   6.267
  142OSM    C1415517   2.345   5.490   6.125
  142OSM   H14A15518   2.447   5.517   6.148
  142OSM   H14B15519   2.281   5.577   6.123
  142OSM   H14C15520   2.348   5.461   6.021
  142OSM    C1315521   2.159   5.350   6.188
  142OSM   H13A15522   2.137   5.252   6.227
  142OSM   H13B15523   2.148   5.348   6.081
  142OSM   H13C15524   2.082   5.423   6.209
  142OSM    C1215525   2.318   5.431   6.367
  142OSM   H12A15526   2.422   5.452   6.387
  142OSM   H12B15527   2.281   5.355   6.434
  142OSM    C1115528   2.227   5.549   6.415
  142OSM   H11A15529   2.232   5.546   6.526
  142OSM   H11B15530   2.126   5.524   6.376
  142OSM      P15531   2.168   5.799   6.360
  142OSM    O1315532   2.246   5.918   6.318
  142OSM    O1415533   2.037   5.769   6.303
  142OSM    O1115534   2.146   5.807   6.514
  142OSM    O1215535   2.272   5.675   6.358
  142OSM    C1S15536   2.248   5.865   6.598
  142OSM    H1S15537   2.271   5.968   6.561
  142OSM    H1T15538   2.337   5.802   6.583
  142OSM     NF15539   2.324   5.894   6.827
  142OSM    HNF15540   2.383   5.825   6.868
  142OSM    C2S15541   2.208   5.858   6.748
  142OSM    H2S15542   2.125   5.929   6.765
  142OSM    C3S15543   2.153   5.715   6.783
  142OSM    H3S15544   2.237   5.644   6.769
  142OSM     O315545   2.051   5.653   6.698
  142OSM    HO315546   2.058   5.694   6.612
  142OSM    C4S15547   2.114   5.716   6.928
  142OSM    H4S15548   2.209   5.722   6.983
  142OSM    C5S15549   1.996   5.717   6.991
  142OSM    H5S15550   1.900   5.725   6.937
  142OSM    C6S15551   1.978   5.698   7.137
  142OSM    H6S15552   1.930   5.601   7.166
  142OSM    H6T15553   1.900   5.772   7.166
  142OSM    C7S15554   2.099   5.717   7.223
  142OSM    H7S15555   2.140   5.820   7.233
  142OSM    H7T15556   2.180   5.645   7.202
  142OSM    C8S15557   2.063   5.698   7.368
  142OSM    H8S15558   2.027   5.596   7.392
  142OSM    H8T15559   1.999   5.781   7.405
  142OSM    C9S15560   2.192   5.718   7.455
  142OSM    H9S15561   2.246   5.807   7.415
  142OSM    H9T15562   2.257   5.629   7.454
  142OSM   C10S15563   2.160   5.752   7.597
  142OSM   H10S15564   2.107   5.663   7.637
  142OSM   H10T15565   2.087   5.835   7.598
  142OSM   C11S15566   2.286   5.775   7.676
  142OSM   H11S15567   2.347   5.853   7.625
  142OSM   H11T15568   2.347   5.682   7.670
  142OSM   C12S15569   2.252   5.803   7.819
  142OSM   H12S15570   2.199   5.723   7.875
  142OSM   H12T15571   2.187   5.893   7.820
  142OSM   C13S15572   2.381   5.809   7.901
  142OSM   H13S15573   2.458   5.863   7.843
  142OSM   H13T15574   2.419   5.704   7.905
  142OSM   C14S15575   2.371   5.865   8.043
  142OSM   H14S15576   2.317   5.962   8.041
  142OSM   H14T15577   2.477   5.886   8.067
  142OSM   C15S15578   2.316   5.767   8.142
  142OSM   H15S15579   2.374   5.673   8.134
  142OSM   H15T15580   2.210   5.739   8.123
  142OSM   C16S15581   2.334   5.808   8.297
  142OSM   H16S15582   2.294   5.912   8.304
  142OSM   H16T15583   2.439   5.818   8.331
  142OSM   C17S15584   2.273   5.701   8.392
  142OSM   H17S15585   2.344   5.622   8.425
  142OSM   H17T15586   2.190   5.651   8.339
  142OSM   C18S15587   2.228   5.755   8.523
  142OSM   H18S15588   2.318   5.779   8.584
  142OSM   H18T15589   2.156   5.686   8.572
  142OSM   H18U15590   2.187   5.858   8.524
  142OSM    C1F15591   2.363   6.019   6.837
  142OSM     OF15592   2.316   6.105   6.767
  142OSM    C2F15593   2.454   6.053   6.948
  142OSM    H2F15594   2.558   6.032   6.916
  142OSM    H2G15595   2.443   5.990   7.039
  142OSM    C3F15596   2.432   6.205   6.985
  142OSM    H3F15597   2.342   6.199   7.049
  142OSM    H3G15598   2.420   6.271   6.897
  142OSM    C4F15599   2.550   6.269   7.063
  142OSM    H4F15600   2.516   6.372   7.089
  142OSM    H4G15601   2.645   6.288   7.010
  142OSM    C5F15602   2.574   6.195   7.191
  142OSM    H5F15603   2.593   6.087   7.173
  142OSM    H5G15604   2.472   6.203   7.235
  142OSM    C6F15605   2.675   6.272   7.273
  142OSM    H6F15606   2.626   6.367   7.302
  142OSM    H6G15607   2.762   6.294   7.206
  142OSM    C7F15608   2.715   6.199   7.403
  142OSM    H7F15609   2.799   6.253   7.451
  142OSM    H7G15610   2.767   6.104   7.381
  142OSM    C8F15611   2.598   6.202   7.506
  142OSM    H8F15612   2.510   6.134   7.494
  142OSM    H8G15613   2.557   6.305   7.516
  142OSM    C9F15614   2.642   6.151   7.645
  142OSM    H9F15615   2.735   6.091   7.649
  142OSM   C10F15616   2.576   6.171   7.766
  142OSM   H10F15617   2.621   6.132   7.858
  142OSM   C11F15618   2.454   6.260   7.793
  142OSM   H11F15619   2.362   6.204   7.820
  142OSM   H11G15620   2.417   6.302   7.698
  142OSM   C12F15621   2.476   6.365   7.903
  142OSM   H12F15622   2.395   6.440   7.901
  142OSM   H12G15623   2.573   6.419   7.897
  142OSM   C13F15624   2.475   6.309   8.048
  142OSM   H13F15625   2.492   6.390   8.123
  142OSM   H13G15626   2.558   6.235   8.056
  142OSM   C14F15627   2.347   6.249   8.099
  142OSM   H14F15628   2.327   6.151   8.051
  142OSM   H14G15629   2.265   6.307   8.052
  142OSM   C15F15630   2.315   6.251   8.245
  142OSM   H15F15631   2.207   6.230   8.258
  142OSM   H15G15632   2.315   6.353   8.289
  142OSM   C16F15633   2.420   6.161   8.327
  142OSM   H16F15634   2.512   6.222   8.334
  142OSM   H16G15635   2.445   6.070   8.268
  142OSM   C17F15636   2.359   6.124   8.461
  142OSM   H17F15637   2.265   6.064   8.454
  142OSM   H17G15638   2.350   6.226   8.504
  142OSM   C18F15639   2.468   6.056   8.543
  142OSM   H18F15640   2.551   6.127   8.565
  142OSM   H18G15641   2.513   5.975   8.484
  142OSM   H18H15642   2.415   6.016   8.633
  143OSM      N15643   3.420   1.324   5.987
  143OSM    C1515644   3.323   1.434   5.964
  143OSM   H15A15645   3.366   1.526   6.000
  143OSM   H15B15646   3.224   1.417   6.004
  143OSM   H15C15647   3.311   1.454   5.858
  143OSM    C1415648   3.350   1.202   5.939
  143OSM   H14A15649   3.421   1.121   5.946
  143OSM   H14B15650   3.318   1.217   5.837
  143OSM   H14C15651   3.260   1.180   5.994
  143OSM    C1315652   3.533   1.351   5.890
  143OSM   H13A15653   3.491   1.345   5.791
  143OSM   H13B15654   3.605   1.271   5.897
  143OSM   H13C15655   3.575   1.448   5.911
  143OSM    C1215656   3.466   1.312   6.138
  143OSM   H12A15657   3.376   1.289   6.193
  143OSM   H12B15658   3.497   1.410   6.174
  143OSM    C1115659   3.583   1.219   6.154
  143OSM   H11A15660   3.570   1.135   6.082
  143OSM   H11B15661   3.569   1.188   6.259
  143OSM      P15662   3.763   1.391   6.220
  143OSM    O1315663   3.902   1.414   6.176
  143OSM    O1415664   3.669   1.505   6.210
  143OSM    O1115665   3.756   1.327   6.359
  143OSM    O1215666   3.710   1.278   6.120
  143OSM    C1S15667   3.839   1.214   6.381
  143OSM    H1S15668   3.944   1.248   6.373
  143OSM    H1T15669   3.815   1.130   6.312
  143OSM     NF15670   3.947   1.091   6.560
  143OSM    HNF15671   3.943   0.993   6.578
  143OSM    C2S15672   3.825   1.168   6.527
  143OSM    H2S15673   3.819   1.254   6.596
  143OSM    C3S15674   3.680   1.108   6.541
  143OSM    H3S15675   3.682   1.023   6.470
  143OSM     O315676   3.577   1.199   6.501
  143OSM    HO315677   3.635   1.266   6.462
  143OSM    C4S15678   3.656   1.043   6.683
  143OSM    H4S15679   3.716   0.954   6.705
  143OSM    C5S15680   3.573   1.099   6.779
  143OSM    H5S15681   3.521   1.193   6.758
  143OSM    C6S15682   3.557   1.042   6.914
  143OSM    H6S15683   3.622   0.952   6.926
  143OSM    H6T15684   3.456   0.996   6.913
  143OSM    C7S15685   3.560   1.135   7.034
  143OSM    H7S15686   3.480   1.210   7.018
  143OSM    H7T15687   3.661   1.180   7.045
  143OSM    C8S15688   3.517   1.063   7.159
  143OSM    H8S15689   3.592   0.985   7.182
  143OSM    H8T15690   3.422   1.011   7.137
  143OSM    C9S15691   3.494   1.150   7.281
  143OSM    H9S15692   3.387   1.139   7.305
  143OSM    H9T15693   3.511   1.254   7.247
  143OSM   C10S15694   3.581   1.114   7.404
  143OSM   H10S15695   3.688   1.140   7.385
  143OSM   H10T15696   3.579   1.004   7.415
  143OSM   C11S15697   3.518   1.175   7.521
  143OSM   H11S15698   3.426   1.122   7.552
  143OSM   H11T15699   3.491   1.281   7.497
  143OSM   C12S15700   3.620   1.177   7.642
  143OSM   H12S15701   3.717   1.227   7.619
  143OSM   H12T15702   3.639   1.072   7.671
  143OSM   C13S15703   3.550   1.245   7.763
  143OSM   H13S15704   3.440   1.226   7.755
  143OSM   H13T15705   3.560   1.354   7.747
  143OSM   C14S15706   3.610   1.204   7.901
  143OSM   H14S15707   3.572   1.282   7.971
  143OSM   H14T15708   3.721   1.200   7.898
  143OSM   C15S15709   3.558   1.069   7.943
  143OSM   H15S15710   3.589   0.986   7.876
  143OSM   H15T15711   3.447   1.064   7.942
  143OSM   C16S15712   3.618   1.029   8.075
  143OSM   H16S15713   3.729   1.029   8.073
  143OSM   H16T15714   3.584   0.925   8.095
  143OSM   C17S15715   3.557   1.107   8.200
  143OSM   H17S15716   3.446   1.099   8.203
  143OSM   H17T15717   3.601   1.209   8.204
  143OSM   C18S15718   3.606   1.038   8.331
  143OSM   H18S15719   3.564   0.935   8.336
  143OSM   H18T15720   3.572   1.103   8.414
  143OSM   H18U15721   3.717   1.033   8.341
  143OSM    C1F15722   4.056   1.162   6.601
  143OSM     OF15723   4.068   1.288   6.602
  143OSM    C2F15724   4.172   1.083   6.649
  143OSM    H2F15725   4.232   1.089   6.555
  143OSM    H2G15726   4.145   0.979   6.675
  143OSM    C3F15727   4.236   1.155   6.767
  143OSM    H3F15728   4.277   1.257   6.752
  143OSM    H3G15729   4.331   1.102   6.789
  143OSM    C4F15730   4.148   1.156   6.897
  143OSM    H4F15731   4.092   1.060   6.896
  143OSM    H4G15732   4.066   1.228   6.881
  143OSM    C5F15733   4.217   1.181   7.025
  143OSM    H5F15734   4.266   1.281   7.024
  143OSM    H5G15735   4.294   1.104   7.044
  143OSM    C6F15736   4.125   1.194   7.150
  143OSM    H6F15737   4.189   1.191   7.241
  143OSM    H6G15738   4.054   1.108   7.152
  143OSM    C7F15739   4.048   1.323   7.167
  143OSM    H7F15740   3.998   1.347   7.071
  143OSM    H7G15741   4.119   1.406   7.191
  143OSM    C8F15742   3.943   1.314   7.274
  143OSM    H8F15743   3.871   1.231   7.263
  143OSM    H8G15744   3.876   1.402   7.266
  143OSM    C9F15745   4.015   1.294   7.403
  143OSM    H9F15746   4.067   1.201   7.429
  143OSM   C10F15747   4.021   1.387   7.499
  143OSM   H10F15748   4.074   1.361   7.592
  143OSM   C11F15749   3.954   1.523   7.504
  143OSM   H11F15750   3.933   1.570   7.405
  143OSM   H11G15751   4.017   1.601   7.552
  143OSM   C12F15752   3.814   1.515   7.573
  143OSM   H12F15753   3.819   1.488   7.681
  143OSM   H12G15754   3.762   1.432   7.522
  143OSM   C13F15755   3.729   1.644   7.567
  143OSM   H13F15756   3.790   1.733   7.593
  143OSM   H13G15757   3.656   1.630   7.649
  143OSM   C14F15758   3.658   1.667   7.428
  143OSM   H14F15759   3.595   1.581   7.397
  143OSM   H14G15760   3.731   1.669   7.344
  143OSM   C15F15761   3.566   1.788   7.430
  143OSM   H15F15762   3.615   1.888   7.428
  143OSM   H15G15763   3.502   1.774   7.520
  143OSM   C16F15764   3.448   1.772   7.325
  143OSM   H16F15765   3.421   1.665   7.314
  143OSM   H16G15766   3.481   1.813   7.227
  143OSM   C17F15767   3.317   1.846   7.360
  143OSM   H17F15768   3.337   1.954   7.381
  143OSM   H17G15769   3.278   1.813   7.458
  143OSM   C18F15770   3.215   1.841   7.248
  143OSM   H18F15771   3.139   1.919   7.269
  143OSM   H18G15772   3.167   1.741   7.242
  143OSM   H18H15773   3.268   1.872   7.155
  144OSM      N15774   2.143   0.708   6.218
  144OSM    C1515775   2.132   0.839   6.145
  144OSM   H15A15776   2.114   0.818   6.040
  144OSM   H15B15777   2.223   0.896   6.146
  144OSM   H15C15778   2.052   0.900   6.185
  144OSM    C1415779   2.012   0.642   6.227
  144OSM   H14A15780   2.007   0.570   6.307
  144OSM   H14B15781   2.002   0.579   6.140
  144OSM   H14C15782   1.926   0.706   6.218
  144OSM    C1315783   2.246   0.624   6.141
  144OSM   H13A15784   2.342   0.671   6.122
  144OSM   H13B15785   2.197   0.604   6.047
  144OSM   H13C15786   2.279   0.535   6.193
  144OSM    C1215787   2.187   0.750   6.358
  144OSM   H12A15788   2.191   0.660   6.418
  144OSM   H12B15789   2.120   0.825   6.395
  144OSM    C1115790   2.336   0.802   6.374
  144OSM   H11A15791   2.406   0.726   6.333
  144OSM   H11B15792   2.364   0.803   6.482
  144OSM      P15793   2.466   0.981   6.235
  144OSM    O1315794   2.482   0.868   6.132
  144OSM    O1415795   2.440   1.113   6.177
  144OSM    O1115796   2.587   0.980   6.327
  144OSM    O1215797   2.349   0.939   6.334
  144OSM    C1S15798   2.588   1.035   6.458
  144OSM    H1S15799   2.489   1.074   6.487
  144OSM    H1T15800   2.658   1.121   6.459
  144OSM     NF15801   2.644   0.998   6.690
  144OSM    HNF15802   2.733   1.018   6.729
  144OSM    C2S15803   2.640   0.929   6.558
  144OSM    H2S15804   2.566   0.846   6.563
  144OSM    C3S15805   2.782   0.876   6.519
  144OSM    H3S15806   2.859   0.956   6.524
  144OSM     O315807   2.798   0.825   6.385
  144OSM    HO315808   2.722   0.864   6.341
  144OSM    C4S15809   2.823   0.772   6.623
  144OSM    H4S15810   2.860   0.813   6.718
  144OSM    C5S15811   2.830   0.641   6.601
  144OSM    H5S15812   2.804   0.614   6.498
  144OSM    C6S15813   2.877   0.526   6.688
  144OSM    H6S15814   2.958   0.466   6.642
  144OSM    H6T15815   2.790   0.460   6.710
  144OSM    C7S15816   2.923   0.585   6.826
  144OSM    H7S15817   2.855   0.663   6.867
  144OSM    H7T15818   3.022   0.633   6.812
  144OSM    C8S15819   2.931   0.464   6.921
  144OSM    H8S15820   2.986   0.380   6.874
  144OSM    H8T15821   2.825   0.443   6.945
  144OSM    C9S15822   3.017   0.492   7.046
  144OSM    H9S15823   2.991   0.592   7.085
  144OSM    H9T15824   3.124   0.506   7.019
  144OSM   C10S15825   2.984   0.403   7.163
  144OSM   H10S15826   3.015   0.301   7.133
  144OSM   H10T15827   2.874   0.411   7.176
  144OSM   C11S15828   3.058   0.455   7.294
  144OSM   H11S15829   3.020   0.559   7.293
  144OSM   H11T15830   3.166   0.452   7.270
  144OSM   C12S15831   3.011   0.397   7.433
  144OSM   H12S15832   3.022   0.288   7.444
  144OSM   H12T15833   2.909   0.435   7.458
  144OSM   C13S15834   3.082   0.471   7.546
  144OSM   H13S15835   3.046   0.575   7.532
  144OSM   H13T15836   3.193   0.475   7.552
  144OSM   C14S15837   3.039   0.414   7.679
  144OSM   H14S15838   3.070   0.308   7.673
  144OSM   H14T15839   2.929   0.423   7.693
  144OSM   C15S15840   3.110   0.469   7.794
  144OSM   H15S15841   3.107   0.580   7.799
  144OSM   H15T15842   3.213   0.429   7.792
  144OSM   C16S15843   3.049   0.421   7.928
  144OSM   H16S15844   2.938   0.419   7.918
  144OSM   H16T15845   3.082   0.484   8.013
  144OSM   C17S15846   3.093   0.277   7.970
  144OSM   H17S15847   3.200   0.279   7.999
  144OSM   H17T15848   3.084   0.211   7.881
  144OSM   C18S15849   3.019   0.229   8.097
  144OSM   H18S15850   3.003   0.316   8.164
  144OSM   H18T15851   3.079   0.155   8.154
  144OSM   H18U15852   2.916   0.200   8.069
  144OSM    C1F15853   2.538   1.041   6.757
  144OSM     OF15854   2.423   1.024   6.717
  144OSM    C2F15855   2.568   1.115   6.886
  144OSM    H2F15856   2.571   1.224   6.868
  144OSM    H2G15857   2.665   1.093   6.935
  144OSM    C3F15858   2.463   1.094   6.992
  144OSM    H3F15859   2.451   0.986   7.015
  144OSM    H3G15860   2.362   1.113   6.950
  144OSM    C4F15861   2.478   1.191   7.121
  144OSM    H4F15862   2.376   1.194   7.165
  144OSM    H4G15863   2.504   1.289   7.076
  144OSM    C5F15864   2.569   1.152   7.237
  144OSM    H5F15865   2.661   1.158   7.176
  144OSM    H5G15866   2.555   1.048   7.273
  144OSM    C6F15867   2.576   1.254   7.343
  144OSM    H6F15868   2.484   1.265   7.404
  144OSM    H6G15869   2.583   1.358   7.303
  144OSM    C7F15870   2.699   1.226   7.439
  144OSM    H7F15871   2.741   1.321   7.478
  144OSM    H7G15872   2.787   1.191   7.382
  144OSM    C8F15873   2.671   1.133   7.558
  144OSM    H8F15874   2.760   1.096   7.613
  144OSM    H8G15875   2.615   1.047   7.516
  144OSM    C9F15876   2.571   1.197   7.649
  144OSM    H9F15877   2.469   1.188   7.610
  144OSM   C10F15878   2.589   1.231   7.778
  144OSM   H10F15879   2.500   1.257   7.836
  144OSM   C11F15880   2.724   1.219   7.845
  144OSM   H11F15881   2.798   1.160   7.788
  144OSM   H11G15882   2.711   1.163   7.940
  144OSM   C12F15883   2.796   1.349   7.881
  144OSM   H12F15884   2.734   1.411   7.950
  144OSM   H12G15885   2.802   1.415   7.792
  144OSM   C13F15886   2.930   1.317   7.945
  144OSM   H13F15887   2.983   1.415   7.944
  144OSM   H13G15888   2.989   1.248   7.881
  144OSM   C14F15889   2.918   1.241   8.079
  144OSM   H14F15890   2.879   1.141   8.051
  144OSM   H14G15891   2.847   1.297   8.143
  144OSM   C15F15892   3.054   1.228   8.154
  144OSM   H15F15893   3.095   1.331   8.163
  144OSM   H15G15894   3.114   1.168   8.081
  144OSM   C16F15895   3.032   1.149   8.281
  144OSM   H16F15896   2.995   1.047   8.259
  144OSM   H16G15897   2.960   1.196   8.352
  144OSM   C17F15898   3.165   1.138   8.366
  144OSM   H17F15899   3.237   1.076   8.310
  144OSM   H17G15900   3.140   1.089   8.463
  144OSM   C18F15901   3.236   1.268   8.393
  144OSM   H18F15902   3.184   1.330   8.469
  144OSM   H18G15903   3.235   1.331   8.301
  144OSM   H18H15904   3.341   1.258   8.427
  145SAPE     N15905   0.883   1.556  10.918
  145SAPE   HN115906   0.795   1.574  10.969
  145SAPE   HN215907   0.891   1.452  10.914
  145SAPE   HN315908   0.971   1.589  10.962
  145SAPE   C1215909   0.884   1.622  10.780
  145SAPE  H12A15910   0.824   1.715  10.793
  145SAPE  H12B15911   0.824   1.556  10.714
  145SAPE   C1115912   1.024   1.645  10.726
  145SAPE  H11A15913   1.084   1.699  10.803
  145SAPE  H11B15914   1.016   1.706  10.633
  145SAPE     P15915   1.087   1.457  10.561
  145SAPE   O1315916   1.203   1.363  10.557
  145SAPE   O1415917   0.953   1.406  10.528
  145SAPE   O1215918   1.089   1.521  10.712
  145SAPE   O1115919   1.113   1.574  10.454
  145SAPE    C115920   1.244   1.627  10.419
  145SAPE    HA15921   1.254   1.724  10.471
  145SAPE    HB15922   1.325   1.560  10.458
  145SAPE    C215923   1.249   1.641  10.263
  145SAPE    HS15924   1.352   1.678  10.248
  145SAPE   O2115925   1.159   1.737  10.208
  145SAPE   C2115926   1.189   1.862  10.240
  145SAPE   O2215927   1.285   1.901  10.298
  145SAPE   C2215928   1.083   1.951  10.172
  145SAPE   H2R15929   1.035   1.889  10.093
  145SAPE   H2S15930   1.017   1.970  10.260
  145SAPE    C315931   1.227   1.506  10.193
  145SAPE    HX15932   1.125   1.476  10.226
  145SAPE    HY15933   1.289   1.426  10.239
  145SAPE   O3115934   1.224   1.526  10.052
  145SAPE   C3115935   1.342   1.533   9.995
  145SAPE   O3215936   1.451   1.523  10.052
  145SAPE   C3215937   1.311   1.540   9.843
  145SAPE   H2X15938   1.215   1.589   9.813
  145SAPE   H2Y15939   1.286   1.435   9.818
  145SAPE   C2315940   1.131   2.083  10.104
  145SAPE   H3R15941   1.195   2.133  10.180
  145SAPE   H3S15942   1.060   2.166  10.083
  145SAPE   C2415943   1.241   2.057   9.991
  145SAPE   H4R15944   1.202   2.016   9.896
  145SAPE   H4S15945   1.324   2.001  10.038
  145SAPE   C2515946   1.295   2.192   9.946
  145SAPE   H5R15947   1.224   2.264   9.903
  145SAPE   C2615948   1.421   2.237   9.961
  145SAPE   H6R15949   1.454   2.332   9.918
  145SAPE   C2715950   1.534   2.172  10.030
  145SAPE   H7R15951   1.628   2.188   9.974
  145SAPE   H7S15952   1.518   2.062  10.041
  145SAPE   C2815953   1.552   2.235  10.163
  145SAPE   H8R15954   1.470   2.230  10.236
  145SAPE   C2915955   1.670   2.279  10.210
  145SAPE   H9R15956   1.672   2.331  10.307
  145SAPE  C21015957   1.794   2.317  10.134
  145SAPE  H10R15958   1.826   2.250  10.051
  145SAPE  H10S15959   1.879   2.309  10.205
  145SAPE  C21115960   1.790   2.464  10.102
  145SAPE  H11R15961   1.761   2.531  10.184
  145SAPE  C21215962   1.780   2.519   9.981
  145SAPE  H12R15963   1.769   2.628   9.974
  145SAPE  C21315964   1.773   2.437   9.854
  145SAPE  H13R15965   1.775   2.328   9.876
  145SAPE  H13S15966   1.863   2.448   9.790
  145SAPE  C21415967   1.662   2.475   9.757
  145SAPE  H14R15968   1.612   2.572   9.771
  145SAPE  C21515969   1.636   2.396   9.648
  145SAPE  H15R15970   1.550   2.419   9.584
  145SAPE  C21615971   1.711   2.276   9.602
  145SAPE  H16R15972   1.761   2.231   9.690
  145SAPE  H16S15973   1.773   2.306   9.514
  145SAPE  C21715974   1.619   2.181   9.523
  145SAPE  H17R15975   1.672   2.095   9.478
  145SAPE  H17S15976   1.572   2.232   9.436
  145SAPE  C21815977   1.505   2.129   9.611
  145SAPE  H18R15978   1.437   2.210   9.645
  145SAPE  H18S15979   1.544   2.078   9.701
  145SAPE  C21915980   1.419   2.024   9.533
  145SAPE  H19R15981   1.497   1.947   9.516
  145SAPE  H19S15982   1.399   2.071   9.435
  145SAPE  C22015983   1.310   1.964   9.614
  145SAPE  H20R15984   1.343   1.924   9.712
  145SAPE  H20S15985   1.269   1.883   9.550
  145SAPE  H20T15986   1.228   2.038   9.621
  145SAPE   C3315987   1.429   1.567   9.765
  145SAPE   H3X15988   1.527   1.518   9.784
  145SAPE   H3Y15989   1.459   1.671   9.791
  145SAPE   C3415990   1.415   1.562   9.617
  145SAPE   H4X15991   1.503   1.615   9.574
  145SAPE   H4Y15992   1.329   1.619   9.575
  145SAPE   C3515993   1.423   1.425   9.551
  145SAPE   H5X15994   1.353   1.351   9.595
  145SAPE   H5Y15995   1.526   1.386   9.554
  145SAPE   C3615996   1.399   1.436   9.404
  145SAPE   H6X15997   1.459   1.526   9.378
  145SAPE   H6Y15998   1.290   1.446   9.387
  145SAPE   C3715999   1.459   1.318   9.321
  145SAPE   H7X16000   1.420   1.220   9.354
  145SAPE   H7Y16001   1.570   1.312   9.326
  145SAPE   C3816002   1.421   1.334   9.170
  145SAPE   H8X16003   1.313   1.360   9.171
  145SAPE   H8Y16004   1.431   1.237   9.117
  145SAPE   C3916005   1.492   1.451   9.090
  145SAPE   H9X16006   1.600   1.432   9.109
  145SAPE   H9Y16007   1.472   1.547   9.142
  145SAPE  C31016008   1.465   1.464   8.939
  145SAPE  H10X16009   1.360   1.454   8.905
  145SAPE  H10Y16010   1.507   1.375   8.887
  145SAPE  C31116011   1.530   1.592   8.873
  145SAPE  H11X16012   1.618   1.631   8.929
  145SAPE  H11Y16013   1.463   1.679   8.888
  145SAPE  C31216014   1.547   1.552   8.727
  145SAPE  H12X16015   1.444   1.549   8.685
  145SAPE  H12Y16016   1.598   1.456   8.703
  145SAPE  C31316017   1.622   1.657   8.649
  145SAPE  H13X16018   1.729   1.662   8.680
  145SAPE  H13Y16019   1.577   1.753   8.680
  145SAPE  C31416020   1.609   1.634   8.498
  145SAPE  H14X16021   1.512   1.676   8.464
  145SAPE  H14Y16022   1.608   1.524   8.478
  145SAPE  C31516023   1.722   1.699   8.424
  145SAPE  H15X16024   1.821   1.681   8.472
  145SAPE  H15Y16025   1.706   1.809   8.423
  145SAPE  C31616026   1.725   1.645   8.282
  145SAPE  H16X16027   1.629   1.674   8.233
  145SAPE  H16Y16028   1.729   1.533   8.283
  145SAPE  C31716029   1.844   1.697   8.197
  145SAPE  H17X16030   1.937   1.663   8.248
  145SAPE  H17Y16031   1.834   1.807   8.197
  145SAPE  C31816032   1.857   1.648   8.052
  145SAPE  H18X16033   1.881   1.540   8.041
  145SAPE  H18Y16034   1.947   1.704   8.018
  145SAPE  H18Z16035   1.769   1.671   7.989
  146SAPE     N16036   0.361   2.843  10.979
  146SAPE   HN116037   0.378   2.891  11.070
  146SAPE   HN216038   0.259   2.851  10.964
  146SAPE   HN316039   0.403   2.750  10.997
  146SAPE   C1216040   0.438   2.921  10.875
  146SAPE  H12A16041   0.541   2.881  10.875
  146SAPE  H12B16042   0.453   3.026  10.906
  146SAPE   C1116043   0.376   2.903  10.743
  146SAPE  H11A16044   0.371   2.798  10.705
  146SAPE  H11B16045   0.438   2.959  10.671
  146SAPE     P16046   0.129   2.894  10.661
  146SAPE   O1316047   0.153   2.749  10.658
  146SAPE   O1416048   0.005   2.931  10.734
  146SAPE   O1216049   0.248   2.971  10.738
  146SAPE   O1116050   0.131   2.961  10.517
  146SAPE    C116051   0.136   3.106  10.511
  146SAPE    HA16052   0.035   3.143  10.540
  146SAPE    HB16053   0.210   3.154  10.579
  146SAPE    C216054   0.167   3.135  10.362
  146SAPE    HS16055   0.142   3.241  10.338
  146SAPE   O2116056   0.097   3.053  10.269
  146SAPE   C2116057  -0.032   3.082  10.262
  146SAPE   O2216058  -0.093   3.176  10.312
  146SAPE   C2216059  -0.103   2.982  10.170
  146SAPE   H2R16060  -0.029   2.905  10.139
  146SAPE   H2S16061  -0.185   2.937  10.230
  146SAPE    C316062   0.322   3.117  10.342
  146SAPE    HX16063   0.347   3.027  10.402
  146SAPE    HY16064   0.366   3.212  10.380
  146SAPE   O3116065   0.338   3.098  10.204
  146SAPE   C3116066   0.446   3.031  10.170
  146SAPE   O3216067   0.526   2.979  10.248
  146SAPE   C3216068   0.448   3.027  10.015
  146SAPE   H2X16069   0.410   3.126   9.981
  146SAPE   H2Y16070   0.369   2.955   9.984
  146SAPE   C2316071  -0.174   3.058  10.057
  146SAPE   H3R16072  -0.216   3.158  10.077
  146SAPE   H3S16073  -0.275   3.014  10.043
  146SAPE   C2416074  -0.104   3.056   9.919
  146SAPE   H4R16075  -0.161   3.096   9.833
  146SAPE   H4S16076  -0.088   2.950   9.888
  146SAPE   C2516077   0.031   3.119   9.924
  146SAPE   H5R16078   0.066   3.170  10.015
  146SAPE   C2616079   0.123   3.113   9.824
  146SAPE   H6R16080   0.226   3.130   9.857
  146SAPE   C2716081   0.113   3.034   9.695
  146SAPE   H7R16082   0.188   3.076   9.624
  146SAPE   H7S16083   0.024   3.056   9.632
  146SAPE   C2816084   0.136   2.887   9.710
  146SAPE   H8R16085   0.079   2.843   9.793
  146SAPE   C2916086   0.218   2.806   9.636
  146SAPE   H9R16087   0.220   2.701   9.670
  146SAPE  C21016088   0.305   2.848   9.516
  146SAPE  H10R16089   0.318   2.959   9.511
  146SAPE  H10S16090   0.258   2.818   9.420
  146SAPE  C21116091   0.436   2.779   9.525
  146SAPE  H11R16092   0.481   2.777   9.626
  146SAPE  C21216093   0.510   2.747   9.420
  146SAPE  H12R16094   0.609   2.714   9.454
  146SAPE  C21316095   0.471   2.776   9.278
  146SAPE  H13R16096   0.455   2.884   9.255
  146SAPE  H13S16097   0.382   2.713   9.255
  146SAPE  C21416098   0.572   2.720   9.178
  146SAPE  H14R16099   0.649   2.652   9.217
  146SAPE  C21516100   0.576   2.747   9.051
  146SAPE  H15R16101   0.653   2.702   8.986
  146SAPE  C21616102   0.485   2.839   8.968
  146SAPE  H16R16103   0.418   2.900   9.031
  146SAPE  H16S16104   0.415   2.781   8.904
  146SAPE  C21716105   0.574   2.924   8.881
  146SAPE  H17R16106   0.661   2.968   8.936
  146SAPE  H17S16107   0.525   3.015   8.841
  146SAPE  C21816108   0.639   2.854   8.757
  146SAPE  H18R16109   0.709   2.773   8.788
  146SAPE  H18S16110   0.707   2.930   8.713
  146SAPE  C21916111   0.532   2.803   8.663
  146SAPE  H19R16112   0.449   2.875   8.648
  146SAPE  H19S16113   0.485   2.711   8.703
  146SAPE  C22016114   0.594   2.775   8.524
  146SAPE  H20R16115   0.626   2.874   8.484
  146SAPE  H20S16116   0.513   2.728   8.464
  146SAPE  H20T16117   0.685   2.712   8.529
  146SAPE   C3316118   0.588   2.993   9.958
  146SAPE   H3X16119   0.590   2.882   9.949
  146SAPE   H3Y16120   0.668   3.019  10.030
  146SAPE   C3416121   0.610   3.055   9.821
  146SAPE   H4X16122   0.539   3.012   9.747
  146SAPE   H4Y16123   0.713   3.023   9.793
  146SAPE   C3516124   0.617   3.210   9.816
  146SAPE   H5X16125   0.679   3.245   9.902
  146SAPE   H5Y16126   0.519   3.260   9.835
  146SAPE   C3616127   0.672   3.262   9.681
  146SAPE   H6X16128   0.777   3.230   9.663
  146SAPE   H6Y16129   0.667   3.373   9.692
  146SAPE   C3716130   0.599   3.223   9.553
  146SAPE   H7X16131   0.489   3.238   9.562
  146SAPE   H7Y16132   0.626   3.116   9.537
  146SAPE   C3816133   0.651   3.308   9.440
  146SAPE   H8X16134   0.758   3.278   9.429
  146SAPE   H8Y16135   0.659   3.413   9.475
  146SAPE   C3916136   0.572   3.283   9.315
  146SAPE   H9X16137   0.465   3.303   9.336
  146SAPE   H9Y16138   0.561   3.180   9.276
  146SAPE  C31016139   0.589   3.374   9.188
  146SAPE  H10X16140   0.697   3.380   9.162
  146SAPE  H10Y16141   0.557   3.475   9.219
  146SAPE  C31116142   0.526   3.316   9.059
  146SAPE  H11X16143   0.418   3.319   9.082
  146SAPE  H11Y16144   0.564   3.214   9.034
  146SAPE  C31216145   0.538   3.418   8.943
  146SAPE  H12X16146   0.500   3.521   8.963
  146SAPE  H12Y16147   0.473   3.379   8.861
  146SAPE  C31316148   0.677   3.420   8.880
  146SAPE  H13X16149   0.705   3.313   8.870
  146SAPE  H13Y16150   0.750   3.473   8.944
  146SAPE  C31416151   0.679   3.467   8.735
  146SAPE  H14X16152   0.651   3.573   8.721
  146SAPE  H14Y16153   0.589   3.418   8.692
  146SAPE  C31516154   0.802   3.417   8.656
  146SAPE  H15X16155   0.754   3.405   8.557
  146SAPE  H15Y16156   0.835   3.320   8.699
  146SAPE  C31616157   0.917   3.514   8.657
  146SAPE  H16X16158   0.956   3.525   8.760
  146SAPE  H16Y16159   0.868   3.612   8.641
  146SAPE  C31716160   1.028   3.494   8.555
  146SAPE  H17X16161   0.982   3.468   8.457
  146SAPE  H17Y16162   1.087   3.402   8.573
  146SAPE  C31816163   1.112   3.619   8.541
  146SAPE  H18X16164   1.188   3.609   8.461
  146SAPE  H18Y16165   1.166   3.629   8.637
  146SAPE  H18Z16166   1.053   3.709   8.515
  147SAPE     N16167   1.724   5.823  11.071
  147SAPE   HN116168   1.623   5.837  11.094
  147SAPE   HN216169   1.753   5.735  11.118
  147SAPE   HN316170   1.774   5.904  11.111
  147SAPE   C1216171   1.743   5.838  10.921
  147SAPE  H12A16172   1.703   5.746  10.873
  147SAPE  H12B16173   1.851   5.846  10.895
  147SAPE   C1116174   1.671   5.961  10.864
  147SAPE  H11A16175   1.671   5.958  10.753
  147SAPE  H11B16176   1.731   6.054  10.876
  147SAPE     P16177   1.440   6.059  10.842
  147SAPE   O1316178   1.317   6.076  10.923
  147SAPE   O1416179   1.519   6.175  10.799
  147SAPE   O1216180   1.535   5.964  10.915
  147SAPE   O1116181   1.407   5.977  10.716
  147SAPE    C116182   1.328   5.858  10.724
  147SAPE    HA16183   1.283   5.841  10.824
  147SAPE    HB16184   1.239   5.866  10.657
  147SAPE    C216185   1.416   5.739  10.681
  147SAPE    HS16186   1.471   5.702  10.770
  147SAPE   O2116187   1.500   5.785  10.572
  147SAPE   C2116188   1.624   5.734  10.570
  147SAPE   O2216189   1.680   5.666  10.649
  147SAPE   C2216190   1.685   5.770  10.432
  147SAPE   H2R16191   1.634   5.702  10.360
  147SAPE   H2S16192   1.656   5.873  10.404
  147SAPE    C316193   1.327   5.617  10.637
  147SAPE    HX16194   1.273   5.660  10.550
  147SAPE    HY16195   1.249   5.585  10.709
  147SAPE   O3116196   1.406   5.501  10.595
  147SAPE   C3116197   1.468   5.441  10.695
  147SAPE   O3216198   1.456   5.464  10.809
  147SAPE   C3216199   1.559   5.328  10.635
  147SAPE   H2X16200   1.663   5.351  10.666
  147SAPE   H2Y16201   1.554   5.348  10.525
  147SAPE   C2316202   1.844   5.773  10.425
  147SAPE   H3R16203   1.882   5.668  10.423
  147SAPE   H3S16204   1.876   5.802  10.527
  147SAPE   C2416205   1.915   5.848  10.313
  147SAPE   H4R16206   2.026   5.849  10.321
  147SAPE   H4S16207   1.885   5.952  10.338
  147SAPE   C2516208   1.855   5.813  10.173
  147SAPE   H5R16209   1.755   5.766  10.165
  147SAPE   C2616210   1.904   5.829  10.051
  147SAPE   H6R16211   1.851   5.789   9.964
  147SAPE   C2716212   2.042   5.900  10.038
  147SAPE   H7R16213   2.083   5.892  10.141
  147SAPE   H7S16214   2.022   6.008  10.026
  147SAPE   C2816215   2.138   5.842   9.939
  147SAPE   H8R16216   2.223   5.789   9.986
  147SAPE   C2916217   2.127   5.834   9.806
  147SAPE   H9R16218   2.205   5.787   9.744
  147SAPE  C21016219   2.026   5.892   9.716
  147SAPE  H10R16220   2.050   5.988   9.665
  147SAPE  H10S16221   1.936   5.918   9.775
  147SAPE  C21116222   1.979   5.787   9.618
  147SAPE  H11R16223   1.889   5.735   9.651
  147SAPE  C21216224   2.033   5.757   9.500
  147SAPE  H12R16225   1.995   5.669   9.446
  147SAPE  C21316226   2.153   5.821   9.430
  147SAPE  H13R16227   2.240   5.824   9.498
  147SAPE  H13S16228   2.125   5.924   9.397
  147SAPE  C21416229   2.198   5.747   9.306
  147SAPE  H14R16230   2.279   5.675   9.325
  147SAPE  C21516231   2.140   5.767   9.178
  147SAPE  H15R16232   2.191   5.706   9.102
  147SAPE  C21616233   2.020   5.846   9.140
  147SAPE  H16R16234   2.040   5.896   9.043
  147SAPE  H16S16235   2.019   5.926   9.218
  147SAPE  C21716236   1.896   5.753   9.138
  147SAPE  H17R16237   1.807   5.815   9.114
  147SAPE  H17S16238   1.875   5.703   9.236
  147SAPE  C21816239   1.904   5.642   9.035
  147SAPE  H18R16240   1.816   5.574   9.043
  147SAPE  H18S16241   1.989   5.577   9.067
  147SAPE  C21916242   1.908   5.688   8.889
  147SAPE  H19R16243   1.998   5.751   8.872
  147SAPE  H19S16244   1.819   5.751   8.870
  147SAPE  C22016245   1.909   5.564   8.790
  147SAPE  H20R16246   1.899   5.591   8.683
  147SAPE  H20S16247   1.820   5.501   8.808
  147SAPE  H20T16248   1.998   5.498   8.800
  147SAPE   C3316249   1.513   5.186  10.666
  147SAPE   H3X16250   1.405   5.177  10.644
  147SAPE   H3Y16251   1.522   5.173  10.776
  147SAPE   C3416252   1.595   5.077  10.588
  147SAPE   H4X16253   1.599   4.979  10.641
  147SAPE   H4Y16254   1.701   5.106  10.576
  147SAPE   C3516255   1.544   5.056  10.441
  147SAPE   H5X16256   1.553   5.158  10.397
  147SAPE   H5Y16257   1.435   5.035  10.440
  147SAPE   C3616258   1.606   4.941  10.373
  147SAPE   H6X16259   1.596   4.845  10.428
  147SAPE   H6Y16260   1.715   4.961  10.372
  147SAPE   C3716261   1.564   4.912  10.226
  147SAPE   H7X16262   1.454   4.916  10.211
  147SAPE   H7Y16263   1.589   4.807  10.200
  147SAPE   C3816264   1.638   4.992  10.115
  147SAPE   H8X16265   1.748   4.974  10.120
  147SAPE   H8Y16266   1.629   5.099  10.145
  147SAPE   C3916267   1.565   4.962   9.981
  147SAPE   H9X16268   1.594   5.038   9.905
  147SAPE   H9Y16269   1.456   4.973   9.995
  147SAPE  C31016270   1.600   4.825   9.920
  147SAPE  H10X16271   1.564   4.742   9.984
  147SAPE  H10Y16272   1.710   4.812   9.924
  147SAPE  C31116273   1.547   4.826   9.778
  147SAPE  H11X16274   1.610   4.883   9.706
  147SAPE  H11Y16275   1.448   4.873   9.763
  147SAPE  C31216276   1.523   4.687   9.715
  147SAPE  H12X16277   1.452   4.631   9.779
  147SAPE  H12Y16278   1.620   4.634   9.711
  147SAPE  C31316279   1.479   4.690   9.563
  147SAPE  H13X16280   1.380   4.739   9.556
  147SAPE  H13Y16281   1.463   4.585   9.528
  147SAPE  C31416282   1.584   4.749   9.466
  147SAPE  H14X16283   1.676   4.689   9.481
  147SAPE  H14Y16284   1.610   4.854   9.489
  147SAPE  C31516285   1.527   4.757   9.325
  147SAPE  H15X16286   1.605   4.806   9.263
  147SAPE  H15Y16287   1.435   4.820   9.322
  147SAPE  C31616288   1.475   4.637   9.262
  147SAPE  H16X16289   1.380   4.619   9.317
  147SAPE  H16Y16290   1.544   4.552   9.281
  147SAPE  C31716291   1.435   4.650   9.115
  147SAPE  H17X16292   1.463   4.555   9.065
  147SAPE  H17Y16293   1.504   4.718   9.061
  147SAPE  C31816294   1.286   4.679   9.091
  147SAPE  H18X16295   1.251   4.766   9.150
  147SAPE  H18Y16296   1.228   4.586   9.110
  147SAPE  H18Z16297   1.273   4.704   8.983
  148SAPE     N16298   3.194   1.598  10.766
  148SAPE   HN116299   3.132   1.528  10.723
  148SAPE   HN216300   3.154   1.614  10.860
  148SAPE   HN316301   3.186   1.676  10.697
  148SAPE   C1216302   3.337   1.558  10.765
  148SAPE  H12A16303   3.356   1.474  10.835
  148SAPE  H12B16304   3.396   1.646  10.799
  148SAPE   C1116305   3.380   1.531  10.620
  148SAPE  H11A16306   3.478   1.479  10.619
  148SAPE  H11B16307   3.392   1.627  10.565
  148SAPE     P16308   3.199   1.494  10.434
  148SAPE   O1316309   3.080   1.562  10.495
  148SAPE   O1416310   3.284   1.572  10.332
  148SAPE   O1216311   3.301   1.443  10.544
  148SAPE   O1116312   3.146   1.365  10.356
  148SAPE    C116313   3.015   1.314  10.386
  148SAPE    HA16314   2.996   1.282  10.491
  148SAPE    HB16315   2.933   1.382  10.357
  148SAPE    C216316   2.990   1.186  10.299
  148SAPE    HS16317   3.053   1.107  10.346
  148SAPE   O2116318   3.031   1.211  10.169
  148SAPE   C2116319   3.087   1.110  10.105
  148SAPE   O2216320   3.115   1.001  10.151
  148SAPE   C2216321   3.125   1.156   9.960
  148SAPE   H2R16322   3.030   1.137   9.904
  148SAPE   H2S16323   3.139   1.265   9.973
  148SAPE    C316324   2.842   1.131  10.304
  148SAPE    HX16325   2.776   1.213  10.270
  148SAPE    HY16326   2.816   1.114  10.411
  148SAPE   O3116327   2.825   1.013  10.228
  148SAPE   C3116328   2.832   0.897  10.298
  148SAPE   O3216329   2.878   0.874  10.404
  148SAPE   C3216330   2.769   0.785  10.216
  148SAPE   H2X16331   2.701   0.722  10.276
  148SAPE   H2Y16332   2.863   0.731  10.195
  148SAPE   C2316333   3.246   1.089   9.895
  148SAPE   H3R16334   3.255   0.990   9.944
  148SAPE   H3S16335   3.341   1.146   9.912
  148SAPE   C2416336   3.229   1.080   9.741
  148SAPE   H4R16337   3.150   1.004   9.726
  148SAPE   H4S16338   3.320   1.029   9.702
  148SAPE   C2516339   3.206   1.213   9.672
  148SAPE   H5R16340   3.214   1.304   9.733
  148SAPE   C2616341   3.195   1.237   9.539
  148SAPE   H6R16342   3.156   1.335   9.509
  148SAPE   C2716343   3.194   1.131   9.427
  148SAPE   H7R16344   3.109   1.061   9.435
  148SAPE   H7S16345   3.283   1.065   9.431
  148SAPE   C2816346   3.188   1.198   9.294
  148SAPE   H8R16347   3.103   1.268   9.297
  148SAPE   C2916348   3.259   1.186   9.183
  148SAPE   H9R16349   3.226   1.246   9.097
  148SAPE  C21016350   3.374   1.087   9.169
  148SAPE  H10R16351   3.341   0.981   9.166
  148SAPE  H10S16352   3.434   1.100   9.262
  148SAPE  C21116353   3.470   1.130   9.064
  148SAPE  H11R16354   3.515   1.230   9.064
  148SAPE  C21216355   3.516   1.046   8.968
  148SAPE  H12R16356   3.601   1.079   8.906
  148SAPE  C21316357   3.484   0.900   8.949
  148SAPE  H13R16358   3.460   0.888   8.841
  148SAPE  H13S16359   3.390   0.872   9.000
  148SAPE  C21416360   3.611   0.821   8.994
  148SAPE  H14R16361   3.617   0.828   9.104
  148SAPE  C21516362   3.698   0.757   8.917
  148SAPE  H15R16363   3.787   0.720   8.970
  148SAPE  C21616364   3.700   0.749   8.765
  148SAPE  H16R16365   3.757   0.837   8.727
  148SAPE  H16S16366   3.598   0.773   8.727
  148SAPE  C21716367   3.760   0.626   8.703
  148SAPE  H17R16368   3.866   0.600   8.726
  148SAPE  H17S16369   3.756   0.643   8.593
  148SAPE  C21816370   3.673   0.505   8.744
  148SAPE  H18R16371   3.567   0.537   8.758
  148SAPE  H18S16372   3.719   0.476   8.840
  148SAPE  C21916373   3.680   0.398   8.636
  148SAPE  H19R16374   3.787   0.372   8.616
  148SAPE  H19S16375   3.647   0.432   8.536
  148SAPE  C22016376   3.606   0.269   8.681
  148SAPE  H20R16377   3.498   0.295   8.687
  148SAPE  H20S16378   3.636   0.231   8.781
  148SAPE  H20T16379   3.614   0.197   8.596
  148SAPE   C3316380   2.710   0.836  10.073
  148SAPE   H3X16381   2.646   0.927  10.078
  148SAPE   H3Y16382   2.645   0.761  10.023
  148SAPE   C3416383   2.807   0.869   9.959
  148SAPE   H4X16384   2.869   0.780   9.935
  148SAPE   H4Y16385   2.878   0.953   9.974
  148SAPE   C3516386   2.734   0.904   9.826
  148SAPE   H5X16387   2.701   1.009   9.821
  148SAPE   H5Y16388   2.648   0.835   9.814
  148SAPE   C3616389   2.818   0.875   9.701
  148SAPE   H6X16390   2.848   0.769   9.690
  148SAPE   H6Y16391   2.914   0.930   9.711
  148SAPE   C3716392   2.740   0.903   9.568
  148SAPE   H7X16393   2.696   1.005   9.579
  148SAPE   H7Y16394   2.662   0.827   9.547
  148SAPE   C3816395   2.837   0.900   9.453
  148SAPE   H8X16396   2.898   0.808   9.460
  148SAPE   H8Y16397   2.903   0.988   9.471
  148SAPE   C3916398   2.764   0.896   9.310
  148SAPE   H9X16399   2.724   0.997   9.285
  148SAPE   H9Y16400   2.675   0.830   9.320
  148SAPE  C31016401   2.855   0.837   9.202
  148SAPE  H10X16402   2.901   0.747   9.248
  148SAPE  H10Y16403   2.927   0.916   9.171
  148SAPE  C31116404   2.773   0.802   9.073
  148SAPE  H11X16405   2.713   0.881   9.024
  148SAPE  H11Y16406   2.683   0.742   9.101
  148SAPE  C31216407   2.858   0.716   8.969
  148SAPE  H12X16408   2.917   0.644   9.030
  148SAPE  H12Y16409   2.927   0.785   8.916
  148SAPE  C31316410   2.771   0.636   8.876
  148SAPE  H13X16411   2.710   0.569   8.940
  148SAPE  H13Y16412   2.834   0.570   8.813
  148SAPE  C31416413   2.667   0.720   8.802
  148SAPE  H14X16414   2.730   0.798   8.756
  148SAPE  H14Y16415   2.598   0.782   8.864
  148SAPE  C31516416   2.586   0.643   8.694
  148SAPE  H15X16417   2.545   0.548   8.736
  148SAPE  H15Y16418   2.652   0.610   8.611
  148SAPE  C31616419   2.469   0.733   8.644
  148SAPE  H16X16420   2.517   0.832   8.628
  148SAPE  H16Y16421   2.393   0.748   8.724
  148SAPE  C31716422   2.407   0.685   8.515
  148SAPE  H17X16423   2.481   0.680   8.432
  148SAPE  H17Y16424   2.322   0.754   8.494
  148SAPE  C31816425   2.338   0.547   8.527
  148SAPE  H18X16426   2.338   0.511   8.421
  148SAPE  H18Y16427   2.237   0.562   8.571
  148SAPE  H18Z16428   2.404   0.477   8.581
  149SAPE     N16429   5.886   2.279  11.050
  149SAPE   HN116430   5.988   2.270  11.069
  149SAPE   HN216431   5.832   2.220  11.117
  149SAPE   HN316432   5.870   2.252  10.950
  149SAPE   C1216433   5.847   2.417  11.093
  149SAPE  H12A16434   5.895   2.425  11.193
  149SAPE  H12B16435   5.738   2.414  11.114
  149SAPE   C1116436   5.906   2.514  10.993
  149SAPE  H11A16437   5.862   2.485  10.896
  149SAPE  H11B16438   6.015   2.494  10.989
  149SAPE     P16439   5.764   2.745  11.012
  149SAPE   O1316440   5.669   2.697  11.116
  149SAPE   O1416441   5.810   2.885  11.015
  149SAPE   O1216442   5.887   2.648  11.025
  149SAPE   O1116443   5.698   2.723  10.872
  149SAPE    C116444   5.767   2.704  10.751
  149SAPE    HA16445   5.872   2.671  10.765
  149SAPE    HB16446   5.707   2.631  10.693
  149SAPE    C216447   5.753   2.836  10.672
  149SAPE    HS16448   5.791   2.917  10.739
  149SAPE   O2116449   5.616   2.860  10.636
  149SAPE   C2116450   5.573   2.982  10.592
  149SAPE   O2216451   5.652   3.079  10.591
  149SAPE   C2216452   5.427   2.988  10.563
  149SAPE   H2R16453   5.371   3.019  10.654
  149SAPE   H2S16454   5.413   3.070  10.490
  149SAPE    C316455   5.833   2.834  10.538
  149SAPE    HX16456   5.942   2.847  10.558
  149SAPE    HY16457   5.801   2.917  10.472
  149SAPE   O3116458   5.807   2.708  10.472
  149SAPE   C3116459   5.776   2.712  10.341
  149SAPE   O3216460   5.792   2.811  10.269
  149SAPE   C3216461   5.712   2.584  10.294
  149SAPE   H2X16462   5.606   2.598  10.324
  149SAPE   H2Y16463   5.738   2.489  10.345
  149SAPE   C2316464   5.369   2.857  10.489
  149SAPE   H3R16465   5.347   2.788  10.573
  149SAPE   H3S16466   5.452   2.822  10.425
  149SAPE   C2416467   5.249   2.869  10.394
  149SAPE   H4R16468   5.273   2.952  10.324
  149SAPE   H4S16469   5.163   2.887  10.462
  149SAPE   C2516470   5.214   2.734  10.334
  149SAPE   H5R16471   5.176   2.651  10.396
  149SAPE   C2616472   5.205   2.713  10.199
  149SAPE   H6R16473   5.179   2.611  10.166
  149SAPE   C2716474   5.237   2.812  10.092
  149SAPE   H7R16475   5.346   2.827  10.110
  149SAPE   H7S16476   5.190   2.909  10.117
  149SAPE   C2816477   5.210   2.751   9.955
  149SAPE   H8R16478   5.203   2.642   9.937
  149SAPE   C2916479   5.203   2.824   9.844
  149SAPE   H9R16480   5.168   2.768   9.755
  149SAPE  C21016481   5.223   2.971   9.820
  149SAPE  H10R16482   5.229   3.016   9.921
  149SAPE  H10S16483   5.136   3.009   9.763
  149SAPE  C21116484   5.345   2.989   9.733
  149SAPE  H11R16485   5.439   3.025   9.778
  149SAPE  C21216486   5.358   2.968   9.602
  149SAPE  H12R16487   5.460   2.962   9.560
  149SAPE  C21316488   5.251   2.939   9.504
  149SAPE  H13R16489   5.179   2.867   9.550
  149SAPE  H13S16490   5.292   2.889   9.414
  149SAPE  C21416491   5.183   3.061   9.451
  149SAPE  H14R16492   5.105   3.103   9.516
  149SAPE  C21516493   5.204   3.117   9.334
  149SAPE  H15R16494   5.152   3.210   9.307
  149SAPE  C21616495   5.310   3.089   9.237
  149SAPE  H16R16496   5.372   2.999   9.254
  149SAPE  H16S16497   5.369   3.182   9.252
  149SAPE  C21716498   5.264   3.093   9.085
  149SAPE  H17R16499   5.163   3.137   9.069
  149SAPE  H17S16500   5.255   2.988   9.049
  149SAPE  C21816501   5.374   3.144   8.983
  149SAPE  H18R16502   5.355   3.094   8.886
  149SAPE  H18S16503   5.479   3.119   9.012
  149SAPE  C21916504   5.354   3.299   8.976
  149SAPE  H19R16505   5.454   3.335   8.942
  149SAPE  H19S16506   5.341   3.339   9.078
  149SAPE  C22016507   5.250   3.355   8.878
  149SAPE  H20R16508   5.145   3.327   8.901
  149SAPE  H20S16509   5.276   3.307   8.781
  149SAPE  H20T16510   5.253   3.466   8.872
  149SAPE   C3316511   5.724   2.571  10.137
  149SAPE   H3X16512   5.821   2.526  10.107
  149SAPE   H3Y16513   5.702   2.671  10.094
  149SAPE   C3416514   5.615   2.474  10.090
  149SAPE   H4X16515   5.520   2.512  10.134
  149SAPE   H4Y16516   5.633   2.368  10.118
  149SAPE   C3516517   5.589   2.501   9.934
  149SAPE   H5X16518   5.668   2.441   9.883
  149SAPE   H5Y16519   5.609   2.608   9.913
  149SAPE   C3616520   5.455   2.455   9.884
  149SAPE   H6X16521   5.374   2.527   9.904
  149SAPE   H6Y16522   5.433   2.352   9.919
  149SAPE   C3716523   5.448   2.437   9.728
  149SAPE   H7X16524   5.340   2.419   9.712
  149SAPE   H7Y16525   5.510   2.347   9.707
  149SAPE   C3816526   5.514   2.544   9.643
  149SAPE   H8X16527   5.623   2.539   9.661
  149SAPE   H8Y16528   5.486   2.651   9.656
  149SAPE   C3916529   5.473   2.513   9.498
  149SAPE   H9X16530   5.363   2.518   9.486
  149SAPE   H9Y16531   5.492   2.406   9.477
  149SAPE  C31016532   5.551   2.606   9.403
  149SAPE  H10X16533   5.643   2.554   9.366
  149SAPE  H10Y16534   5.577   2.691   9.469
  149SAPE  C31116535   5.459   2.647   9.289
  149SAPE  H11X16536   5.370   2.698   9.332
  149SAPE  H11Y16537   5.413   2.554   9.248
  149SAPE  C31216538   5.518   2.739   9.180
  149SAPE  H12X16539   5.550   2.834   9.227
  149SAPE  H12Y16540   5.439   2.769   9.109
  149SAPE  C31316541   5.637   2.685   9.098
  149SAPE  H13X16542   5.638   2.728   8.996
  149SAPE  H13Y16543   5.623   2.575   9.083
  149SAPE  C31416544   5.775   2.716   9.156
  149SAPE  H14X16545   5.761   2.710   9.266
  149SAPE  H14Y16546   5.790   2.824   9.140
  149SAPE  C31516547   5.880   2.622   9.113
  149SAPE  H15X16548   5.899   2.633   9.004
  149SAPE  H15Y16549   5.848   2.516   9.125
  149SAPE  C31616550   6.018   2.630   9.195
  149SAPE  H16X16551   6.084   2.548   9.160
  149SAPE  H16Y16552   6.007   2.614   9.304
  149SAPE  C31716553   6.088   2.765   9.180
  149SAPE  H17X16554   6.020   2.852   9.185
  149SAPE  H17Y16555   6.132   2.779   9.079
  149SAPE  C31816556   6.199   2.785   9.291
  149SAPE  H18X16557   6.270   2.857   9.244
  149SAPE  H18Y16558   6.244   2.685   9.302
  149SAPE  H18Z16559   6.149   2.828   9.380
  150SAPE     N16560   0.165   2.491  10.719
  150SAPE   HN116561   0.264   2.472  10.744
  150SAPE   HN216562   0.127   2.423  10.650
  150SAPE   HN316563   0.171   2.590  10.687
  150SAPE   C1216564   0.080   2.505  10.843
  150SAPE  H12A16565  -0.005   2.572  10.820
  150SAPE  H12B16566   0.149   2.555  10.914
  150SAPE   C1116567   0.028   2.366  10.898
  150SAPE  H11A16568  -0.048   2.328  10.825
  150SAPE  H11B16569  -0.029   2.390  10.990
  150SAPE     P16570   0.187   2.148  10.853
  150SAPE   O1316571   0.303   2.096  10.931
  150SAPE   O1416572   0.082   2.049  10.818
  150SAPE   O1216573   0.126   2.275  10.933
  150SAPE   O1116574   0.242   2.213  10.719
  150SAPE    C116575   0.362   2.175  10.657
  150SAPE    HA16576   0.451   2.198  10.718
  150SAPE    HB16577   0.359   2.066  10.635
  150SAPE    C216578   0.374   2.247  10.512
  150SAPE    HS16579   0.367   2.357  10.530
  150SAPE   O2116580   0.268   2.200  10.424
  150SAPE   C2116581   0.156   2.268  10.421
  150SAPE   O2216582   0.118   2.352  10.503
  150SAPE   C2216583   0.071   2.213  10.298
  150SAPE   H2R16584   0.065   2.297  10.226
  150SAPE   H2S16585   0.110   2.125  10.243
  150SAPE    C316586   0.506   2.230  10.449
  150SAPE    HX16587   0.539   2.126  10.472
  150SAPE    HY16588   0.568   2.307  10.501
  150SAPE   O3116589   0.493   2.251  10.311
  150SAPE   C3116590   0.610   2.244  10.255
  150SAPE   O3216591   0.714   2.219  10.313
  150SAPE   C3216592   0.595   2.266  10.102
  150SAPE   H2X16593   0.586   2.377  10.092
  150SAPE   H2Y16594   0.500   2.220  10.067
  150SAPE   C2316595  -0.063   2.166  10.351
  150SAPE   H3R16596  -0.132   2.242  10.393
  150SAPE   H3S16597  -0.049   2.088  10.429
  150SAPE   C2416598  -0.144   2.095  10.235
  150SAPE   H4R16599  -0.229   2.044  10.285
  150SAPE   H4S16600  -0.082   2.009  10.202
  150SAPE   C2516601  -0.197   2.195  10.131
  150SAPE   H5R16602  -0.277   2.265  10.159
  150SAPE   C2616603  -0.154   2.191  10.006
  150SAPE   H6R16604  -0.194   2.267   9.937
  150SAPE   C2716605  -0.040   2.102   9.954
  150SAPE   H7R16606  -0.093   2.039   9.880
  150SAPE   H7S16607   0.002   2.025  10.021
  150SAPE   C2816608   0.065   2.184   9.882
  150SAPE   H8R16609   0.128   2.244   9.948
  150SAPE   C2916610   0.097   2.169   9.752
  150SAPE   H9R16611   0.165   2.244   9.711
  150SAPE  C21016612   0.040   2.080   9.646
  150SAPE  H10R16613  -0.037   2.136   9.589
  150SAPE  H10S16614  -0.011   1.988   9.682
  150SAPE  C21116615   0.158   2.039   9.563
  150SAPE  H11R16616   0.252   2.020   9.618
  150SAPE  C21216617   0.154   2.020   9.428
  150SAPE  H12R16618   0.245   1.988   9.374
  150SAPE  C21316619   0.038   2.037   9.332
  150SAPE  H13R16620  -0.045   2.097   9.375
  150SAPE  H13S16621  -0.003   1.935   9.314
  150SAPE  C21416622   0.078   2.080   9.193
  150SAPE  H14R16623   0.060   2.187   9.173
  150SAPE  C21516624   0.101   1.996   9.089
  150SAPE  H15R16625   0.140   2.038   8.995
  150SAPE  C21616626   0.100   1.845   9.093
  150SAPE  H16R16627   0.018   1.800   9.153
  150SAPE  H16S16628   0.195   1.820   9.146
  150SAPE  C21716629   0.097   1.782   8.960
  150SAPE  H17R16630   0.140   1.681   8.974
  150SAPE  H17S16631   0.154   1.843   8.887
  150SAPE  C21816632  -0.052   1.763   8.921
  150SAPE  H18R16633  -0.091   1.867   8.915
  150SAPE  H18S16634  -0.105   1.702   8.998
  150SAPE  C21916635  -0.056   1.694   8.787
  150SAPE  H19R16636   0.000   1.599   8.774
  150SAPE  H19S16637  -0.012   1.756   8.707
  150SAPE  C22016638  -0.201   1.671   8.741
  150SAPE  H20R16639  -0.205   1.647   8.633
  150SAPE  H20S16640  -0.278   1.746   8.768
  150SAPE  H20T16641  -0.239   1.578   8.789
  150SAPE   C3316642   0.722   2.215  10.025
  150SAPE   H3X16643   0.807   2.220  10.096
  150SAPE   H3Y16644   0.737   2.270   9.930
  150SAPE   C3416645   0.706   2.063   9.989
  150SAPE   H4X16646   0.606   2.065   9.940
  150SAPE   H4Y16647   0.701   1.989  10.071
  150SAPE   C3516648   0.812   2.007   9.895
  150SAPE   H5X16649   0.900   2.001   9.963
  150SAPE   H5Y16650   0.845   2.078   9.817
  150SAPE   C3616651   0.772   1.873   9.829
  150SAPE   H6X16652   0.699   1.899   9.749
  150SAPE   H6Y16653   0.706   1.813   9.895
  150SAPE   C3716654   0.892   1.799   9.772
  150SAPE   H7X16655   0.861   1.701   9.731
  150SAPE   H7Y16656   0.964   1.773   9.852
  150SAPE   C3816657   0.974   1.859   9.652
  150SAPE   H8X16658   1.076   1.814   9.655
  150SAPE   H8Y16659   0.985   1.969   9.658
  150SAPE   C3916660   0.914   1.828   9.516
  150SAPE   H9X16661   0.812   1.870   9.519
  150SAPE   H9Y16662   0.905   1.719   9.495
  150SAPE  C31016663   0.982   1.903   9.399
  150SAPE  H10X16664   1.039   1.991   9.434
  150SAPE  H10Y16665   0.904   1.948   9.333
  150SAPE  C31116666   1.079   1.804   9.325
  150SAPE  H11X16667   1.004   1.740   9.273
  150SAPE  H11Y16668   1.138   1.746   9.399
  150SAPE  C31216669   1.154   1.879   9.210
  150SAPE  H12X16670   1.235   1.822   9.160
  150SAPE  H12Y16671   1.214   1.961   9.255
  150SAPE  C31316672   1.081   1.916   9.076
  150SAPE  H13X16673   1.146   1.989   9.022
  150SAPE  H13Y16674   0.988   1.965   9.114
  150SAPE  C31416675   1.051   1.797   8.977
  150SAPE  H14X16676   0.967   1.749   9.034
  150SAPE  H14Y16677   1.141   1.733   8.985
  150SAPE  C31516678   1.012   1.836   8.843
  150SAPE  H15X16679   1.021   1.755   8.766
  150SAPE  H15Y16680   1.075   1.921   8.810
  150SAPE  C31616681   0.872   1.902   8.835
  150SAPE  H16X16682   0.865   1.991   8.902
  150SAPE  H16Y16683   0.796   1.825   8.861
  150SAPE  C31716684   0.839   1.937   8.687
  150SAPE  H17X16685   0.938   1.961   8.642
  150SAPE  H17Y16686   0.769   2.021   8.669
  150SAPE  C31816687   0.791   1.806   8.610
  150SAPE  H18X16688   0.822   1.807   8.503
  150SAPE  H18Y16689   0.681   1.809   8.597
  150SAPE  H18Z16690   0.814   1.709   8.657
  151SAPE     N16691   4.484   5.498  10.368
  151SAPE   HN116692   4.578   5.473  10.405
  151SAPE   HN216693   4.429   5.543  10.444
  151SAPE   HN316694   4.432   5.412  10.339
  151SAPE   C1216695   4.501   5.606  10.266
  151SAPE  H12A16696   4.524   5.550  10.173
  151SAPE  H12B16697   4.597   5.657  10.287
  151SAPE   C1116698   4.377   5.693  10.264
  151SAPE  H11A16699   4.288   5.627  10.258
  151SAPE  H11B16700   4.386   5.765  10.180
  151SAPE     P16701   4.372   5.918  10.386
  151SAPE   O1316702   4.293   5.969  10.497
  151SAPE   O1416703   4.514   5.956  10.383
  151SAPE   O1216704   4.357   5.759  10.386
  151SAPE   O1116705   4.307   5.967  10.250
  151SAPE    C116706   4.284   6.105  10.226
  151SAPE    HA16707   4.221   6.112  10.135
  151SAPE    HB16708   4.232   6.163  10.304
  151SAPE    C216709   4.421   6.181  10.182
  151SAPE    HS16710   4.482   6.188  10.274
  151SAPE   O2116711   4.376   6.298  10.127
  151SAPE   C2116712   4.346   6.396  10.200
  151SAPE   O2216713   4.363   6.414  10.318
  151SAPE   C2216714   4.278   6.502  10.112
  151SAPE   H2R16715   4.333   6.501  10.015
  151SAPE   H2S16716   4.174   6.469  10.090
  151SAPE    C316717   4.511   6.106  10.074
  151SAPE    HX16718   4.447   6.065   9.993
  151SAPE    HY16719   4.554   6.015  10.122
  151SAPE   O3116720   4.626   6.183  10.018
  151SAPE   C3116721   4.700   6.120   9.936
  151SAPE   O3216722   4.696   5.999   9.911
  151SAPE   C3216723   4.803   6.216   9.869
  151SAPE   H2X16724   4.837   6.287   9.947
  151SAPE   H2Y16725   4.765   6.293   9.798
  151SAPE   C2316726   4.270   6.643  10.163
  151SAPE   H3R16727   4.355   6.673  10.228
  151SAPE   H3S16728   4.182   6.644  10.230
  151SAPE   C2416729   4.276   6.751  10.059
  151SAPE   H4R16730   4.362   6.737   9.991
  151SAPE   H4S16731   4.295   6.839  10.123
  151SAPE   C2516732   4.144   6.766   9.989
  151SAPE   H5R16733   4.059   6.797  10.051
  151SAPE   C2616734   4.124   6.738   9.863
  151SAPE   H6R16735   4.021   6.735   9.828
  151SAPE   C2716736   4.233   6.705   9.763
  151SAPE   H7R16737   4.334   6.692   9.806
  151SAPE   H7S16738   4.247   6.790   9.693
  151SAPE   C2816739   4.194   6.586   9.674
  151SAPE   H8R16740   4.141   6.503   9.723
  151SAPE   C2916741   4.206   6.581   9.537
  151SAPE   H9R16742   4.165   6.499   9.476
  151SAPE  C21016743   4.294   6.667   9.448
  151SAPE  H10R16744   4.369   6.729   9.502
  151SAPE  H10S16745   4.221   6.736   9.400
  151SAPE  C21116746   4.361   6.570   9.352
  151SAPE  H11R16747   4.438   6.514   9.408
  151SAPE  C21216748   4.327   6.544   9.225
  151SAPE  H12R16749   4.381   6.473   9.161
  151SAPE  C21316750   4.225   6.626   9.151
  151SAPE  H13R16751   4.150   6.664   9.224
  151SAPE  H13S16752   4.148   6.565   9.100
  151SAPE  C21416753   4.285   6.728   9.060
  151SAPE  H14R16754   4.336   6.803   9.122
  151SAPE  C21516755   4.299   6.727   8.929
  151SAPE  H15R16756   4.344   6.820   8.891
  151SAPE  C21616757   4.250   6.631   8.826
  151SAPE  H16R16758   4.195   6.690   8.750
  151SAPE  H16S16759   4.167   6.579   8.879
  151SAPE  C21716760   4.364   6.541   8.762
  151SAPE  H17R16761   4.426   6.499   8.844
  151SAPE  H17S16762   4.430   6.606   8.700
  151SAPE  C21816763   4.312   6.425   8.675
  151SAPE  H18R16764   4.392   6.358   8.636
  151SAPE  H18S16765   4.253   6.470   8.592
  151SAPE  C21916766   4.219   6.329   8.758
  151SAPE  H19R16767   4.126   6.386   8.778
  151SAPE  H19S16768   4.261   6.297   8.855
  151SAPE  C22016769   4.178   6.196   8.679
  151SAPE  H20R16770   4.267   6.137   8.649
  151SAPE  H20S16771   4.116   6.227   8.591
  151SAPE  H20T16772   4.131   6.127   8.752
  151SAPE   C3316773   4.932   6.152   9.816
  151SAPE   H3X16774   4.960   6.073   9.889
  151SAPE   H3Y16775   5.008   6.233   9.821
  151SAPE   C3416776   4.922   6.083   9.671
  151SAPE   H4X16777   4.824   6.036   9.648
  151SAPE   H4Y16778   5.003   6.008   9.679
  151SAPE   C3516779   4.955   6.184   9.559
  151SAPE   H5X16780   5.062   6.216   9.564
  151SAPE   H5Y16781   4.882   6.266   9.549
  151SAPE   C3616782   4.962   6.101   9.422
  151SAPE   H6X16783   4.858   6.064   9.411
  151SAPE   H6Y16784   5.026   6.012   9.440
  151SAPE   C3716785   4.997   6.184   9.307
  151SAPE   H7X16786   5.105   6.207   9.307
  151SAPE   H7Y16787   4.944   6.281   9.316
  151SAPE   C3816788   4.946   6.122   9.174
  151SAPE   H8X16789   4.835   6.110   9.182
  151SAPE   H8Y16790   4.991   6.021   9.167
  151SAPE   C3916791   4.992   6.203   9.050
  151SAPE   H9X16792   5.099   6.233   9.059
  151SAPE   H9Y16793   4.927   6.293   9.052
  151SAPE  C31016794   4.983   6.137   8.910
  151SAPE  H10X16795   5.010   6.213   8.834
  151SAPE  H10Y16796   4.878   6.108   8.889
  151SAPE  C31116797   5.092   6.035   8.888
  151SAPE  H11X16798   5.068   5.937   8.934
  151SAPE  H11Y16799   5.190   6.070   8.927
  151SAPE  C31216800   5.116   6.000   8.739
  151SAPE  H12X16801   5.025   5.978   8.679
  151SAPE  H12Y16802   5.170   5.903   8.736
  151SAPE  C31316803   5.189   6.111   8.657
  151SAPE  H13X16804   5.297   6.111   8.681
  151SAPE  H13Y16805   5.132   6.205   8.677
  151SAPE  C31416806   5.171   6.111   8.501
  151SAPE  H14X16807   5.061   6.117   8.483
  151SAPE  H14Y16808   5.213   6.015   8.463
  151SAPE  C31516809   5.237   6.236   8.435
  151SAPE  H15X16810   5.344   6.221   8.461
  151SAPE  H15Y16811   5.200   6.327   8.487
  151SAPE  C31616812   5.224   6.239   8.288
  151SAPE  H16X16813   5.136   6.294   8.248
  151SAPE  H16Y16814   5.223   6.132   8.255
  151SAPE  C31716815   5.349   6.302   8.218
  151SAPE  H17X16816   5.436   6.243   8.252
  151SAPE  H17Y16817   5.368   6.403   8.260
  151SAPE  C31816818   5.337   6.299   8.068
  151SAPE  H18X16819   5.264   6.376   8.037
  151SAPE  H18Y16820   5.299   6.200   8.034
  151SAPE  H18Z16821   5.431   6.328   8.016
  152SAPE     N16822   5.601   5.523  11.002
  152SAPE   HN116823   5.537   5.570  11.069
  152SAPE   HN216824   5.548   5.447  10.956
  152SAPE   HN316825   5.678   5.477  11.055
  152SAPE   C1216826   5.656   5.616  10.901
  152SAPE  H12A16827   5.682   5.706  10.961
  152SAPE  H12B16828   5.580   5.638  10.823
  152SAPE   C1116829   5.785   5.572  10.851
  152SAPE  H11A16830   5.865   5.563  10.927
  152SAPE  H11B16831   5.814   5.652  10.780
  152SAPE     P16832   5.740   5.442  10.626
  152SAPE   O1316833   5.692   5.304  10.590
  152SAPE   O1416834   5.647   5.552  10.597
  152SAPE   O1216835   5.765   5.445  10.782
  152SAPE   O1116836   5.880   5.460  10.562
  152SAPE    C116837   5.904   5.592  10.508
  152SAPE    HA16838   5.821   5.663  10.490
  152SAPE    HB16839   5.979   5.651  10.565
  152SAPE    C216840   5.965   5.579  10.363
  152SAPE    HS16841   6.041   5.498  10.370
  152SAPE   O2116842   6.016   5.709  10.317
  152SAPE   C2116843   6.108   5.701  10.214
  152SAPE   O2216844   6.151   5.592  10.173
  152SAPE   C2216845   6.136   5.845  10.167
  152SAPE   H2R16846   6.071   5.915  10.224
  152SAPE   H2S16847   6.240   5.870  10.197
  152SAPE    C316848   5.861   5.525  10.262
  152SAPE    HX16849   5.772   5.592  10.265
  152SAPE    HY16850   5.807   5.433  10.294
  152SAPE   O3116851   5.904   5.509  10.121
  152SAPE   C3116852   5.934   5.391  10.076
  152SAPE   O3216853   5.910   5.285  10.129
  152SAPE   C3216854   5.998   5.406   9.944
  152SAPE   H2X16855   6.103   5.425   9.975
  152SAPE   H2Y16856   5.952   5.493   9.893
  152SAPE   C2316857   6.133   5.863  10.015
  152SAPE   H3R16858   6.045   5.813   9.968
  152SAPE   H3S16859   6.221   5.806   9.979
  152SAPE   C2416860   6.135   6.012   9.972
  152SAPE   H4R16861   6.038   6.054  10.009
  152SAPE   H4S16862   6.142   6.016   9.861
  152SAPE   C2516863   6.247   6.083  10.037
  152SAPE   H5R16864   6.214   6.118  10.136
  152SAPE   C2616865   6.361   6.121   9.976
  152SAPE   H6R16866   6.431   6.181  10.036
  152SAPE   C2716867   6.423   6.088   9.841
  152SAPE   H7R16868   6.357   6.008   9.802
  152SAPE   H7S16869   6.526   6.048   9.849
  152SAPE   C2816870   6.416   6.215   9.756
  152SAPE   H8R16871   6.397   6.307   9.812
  152SAPE   C2916872   6.434   6.211   9.619
  152SAPE   H9R16873   6.422   6.304   9.562
  152SAPE  C21016874   6.479   6.093   9.543
  152SAPE  H10R16875   6.386   6.045   9.505
  152SAPE  H10S16876   6.540   6.018   9.597
  152SAPE  C21116877   6.574   6.142   9.436
  152SAPE  H11R16878   6.643   6.220   9.470
  152SAPE  C21216879   6.582   6.110   9.302
  152SAPE  H12R16880   6.657   6.172   9.251
  152SAPE  C21316881   6.497   6.017   9.222
  152SAPE  H13R16882   6.478   5.933   9.292
  152SAPE  H13S16883   6.553   5.976   9.135
  152SAPE  C21416884   6.359   6.071   9.186
  152SAPE  H14R16885   6.297   6.115   9.266
  152SAPE  C21516886   6.290   6.046   9.074
  152SAPE  H15R16887   6.203   6.112   9.060
  152SAPE  C21616888   6.342   5.977   8.950
  152SAPE  H16R16889   6.265   5.900   8.925
  152SAPE  H16S16890   6.435   5.916   8.961
  152SAPE  C21716891   6.359   6.080   8.842
  152SAPE  H17R16892   6.425   6.165   8.872
  152SAPE  H17S16893   6.259   6.113   8.806
  152SAPE  C21816894   6.429   6.022   8.716
  152SAPE  H18R16895   6.364   5.936   8.689
  152SAPE  H18S16896   6.524   5.979   8.753
  152SAPE  C21916897   6.451   6.130   8.608
  152SAPE  H19R16898   6.490   6.225   8.651
  152SAPE  H19S16899   6.343   6.150   8.586
  152SAPE  C22016900   6.525   6.082   8.485
  152SAPE  H20R16901   6.631   6.070   8.518
  152SAPE  H20S16902   6.524   6.156   8.402
  152SAPE  H20T16903   6.491   5.980   8.459
  152SAPE   C3316904   5.987   5.270   9.859
  152SAPE   H3X16905   5.881   5.240   9.847
  152SAPE   H3Y16906   6.019   5.190   9.929
  152SAPE   C3416907   6.077   5.262   9.736
  152SAPE   H4X16908   6.169   5.310   9.778
  152SAPE   H4Y16909   6.032   5.328   9.659
  152SAPE   C3516910   6.101   5.119   9.692
  152SAPE   H5X16911   6.057   5.051   9.768
  152SAPE   H5Y16912   6.210   5.096   9.683
  152SAPE   C3616913   6.027   5.081   9.553
  152SAPE   H6X16914   5.931   5.136   9.552
  152SAPE   H6Y16915   6.010   4.972   9.539
  152SAPE   C3716916   6.107   5.140   9.437
  152SAPE   H7X16917   6.214   5.112   9.428
  152SAPE   H7Y16918   6.102   5.251   9.445
  152SAPE   C3816919   6.051   5.086   9.305
  152SAPE   H8X16920   5.955   5.141   9.292
  152SAPE   H8Y16921   6.033   4.977   9.313
  152SAPE   C3916922   6.134   5.116   9.175
  152SAPE   H9X16923   6.238   5.078   9.178
  152SAPE   H9Y16924   6.136   5.227   9.167
  152SAPE  C31016925   6.065   5.047   9.045
  152SAPE  H10X16926   6.094   5.114   8.961
  152SAPE  H10Y16927   5.955   5.051   9.057
  152SAPE  C31116928   6.111   4.897   9.024
  152SAPE  H11X16929   6.090   4.854   9.125
  152SAPE  H11Y16930   6.222   4.899   9.020
  152SAPE  C31216931   6.040   4.819   8.920
  152SAPE  H12X16932   5.932   4.842   8.929
  152SAPE  H12Y16933   6.055   4.709   8.914
  152SAPE  C31316934   6.085   4.868   8.779
  152SAPE  H13X16935   6.192   4.846   8.759
  152SAPE  H13Y16936   6.077   4.978   8.764
  152SAPE  C31416937   5.997   4.800   8.674
  152SAPE  H14X16938   5.897   4.848   8.673
  152SAPE  H14Y16939   5.974   4.692   8.689
  152SAPE  C31516940   6.060   4.820   8.530
  152SAPE  H15X16941   6.170   4.822   8.545
  152SAPE  H15Y16942   6.024   4.917   8.490
  152SAPE  C31616943   6.015   4.702   8.438
  152SAPE  H16X16944   6.051   4.607   8.481
  152SAPE  H16Y16945   6.071   4.717   8.343
  152SAPE  C31716946   5.864   4.689   8.429
  152SAPE  H17X16947   5.817   4.782   8.390
  152SAPE  H17Y16948   5.815   4.670   8.526
  152SAPE  C31816949   5.816   4.585   8.327
  152SAPE  H18X16950   5.874   4.493   8.347
  152SAPE  H18Y16951   5.835   4.610   8.220
  152SAPE  H18Z16952   5.707   4.573   8.343
  153SAPE     N16953   5.411   6.724  10.981
  153SAPE   HN116954   5.332   6.766  10.929
  153SAPE   HN216955   5.434   6.638  10.927
  153SAPE   HN316956   5.372   6.707  11.076
  153SAPE   C1216957   5.522   6.828  10.976
  153SAPE  H12A16958   5.615   6.786  11.018
  153SAPE  H12B16959   5.490   6.920  11.030
  153SAPE   C1116960   5.562   6.865  10.830
  153SAPE  H11A16961   5.629   6.796  10.774
  153SAPE  H11B16962   5.631   6.951  10.845
  153SAPE     P16963   5.390   6.824  10.642
  153SAPE   O1316964   5.410   6.677  10.662
  153SAPE   O1416965   5.257   6.866  10.604
  153SAPE   O1216966   5.447   6.905  10.761
  153SAPE   O1116967   5.489   6.869  10.527
  153SAPE    C116968   5.621   6.805  10.513
  153SAPE    HA16969   5.708   6.864  10.547
  153SAPE    HB16970   5.634   6.705  10.558
  153SAPE    C216971   5.645   6.769  10.358
  153SAPE    HS16972   5.747   6.725  10.345
  153SAPE   O2116973   5.627   6.881  10.268
  153SAPE   C2116974   5.707   6.975  10.289
  153SAPE   O2216975   5.812   6.964  10.347
  153SAPE   C2216976   5.677   7.096  10.197
  153SAPE   H2R16977   5.567   7.105  10.196
  153SAPE   H2S16978   5.725   7.190  10.233
  153SAPE    C316979   5.553   6.647  10.322
  153SAPE    HX16980   5.451   6.688  10.339
  153SAPE    HY16981   5.563   6.552  10.379
  153SAPE   O3116982   5.551   6.630  10.179
  153SAPE   C3116983   5.644   6.545  10.141
  153SAPE   O3216984   5.719   6.481  10.211
  153SAPE   C3216985   5.656   6.559   9.987
  153SAPE   H2X16986   5.593   6.480   9.941
  153SAPE   H2Y16987   5.756   6.530   9.948
  153SAPE   C2316988   5.740   7.064  10.058
  153SAPE   H3R16989   5.677   6.989  10.004
  153SAPE   H3S16990   5.844   7.024  10.052
  153SAPE   C2416991   5.744   7.193   9.968
  153SAPE   H4R16992   5.800   7.180   9.874
  153SAPE   H4S16993   5.786   7.278  10.025
  153SAPE   C2516994   5.605   7.230   9.935
  153SAPE   H5R16995   5.536   7.262  10.015
  153SAPE   C2616996   5.552   7.234   9.810
  153SAPE   H6R16997   5.446   7.264   9.799
  153SAPE   C2716998   5.628   7.213   9.673
  153SAPE   H7R16999   5.695   7.125   9.685
  153SAPE   H7S17000   5.687   7.305   9.651
  153SAPE   C2817001   5.530   7.174   9.575
  153SAPE   H8R17002   5.437   7.132   9.614
  153SAPE   C2917003   5.533   7.201   9.446
  153SAPE   H9R17004   5.452   7.167   9.380
  153SAPE  C21017005   5.649   7.247   9.371
  153SAPE  H10R17006   5.647   7.180   9.282
  153SAPE  H10S17007   5.734   7.202   9.426
  153SAPE  C21117008   5.671   7.395   9.344
  153SAPE  H11R17009   5.693   7.462   9.429
  153SAPE  C21217010   5.671   7.447   9.221
  153SAPE  H12R17011   5.679   7.557   9.221
  153SAPE  C21317012   5.656   7.377   9.093
  153SAPE  H13R17013   5.550   7.401   9.067
  153SAPE  H13S17014   5.681   7.269   9.100
  153SAPE  C21417015   5.754   7.435   8.994
  153SAPE  H14R17016   5.850   7.468   9.036
  153SAPE  C21517017   5.723   7.454   8.863
  153SAPE  H15R17018   5.779   7.514   8.790
  153SAPE  C21617019   5.589   7.415   8.789
  153SAPE  H16R17020   5.562   7.499   8.723
  153SAPE  H16S17021   5.510   7.400   8.865
  153SAPE  C21717022   5.603   7.291   8.704
  153SAPE  H17R17023   5.687   7.307   8.633
  153SAPE  H17S17024   5.514   7.274   8.639
  153SAPE  C21817025   5.616   7.158   8.785
  153SAPE  H18R17026   5.538   7.158   8.864
  153SAPE  H18S17027   5.707   7.154   8.848
  153SAPE  C21917028   5.599   7.030   8.706
  153SAPE  H19R17029   5.674   7.043   8.625
  153SAPE  H19S17030   5.496   7.020   8.666
  153SAPE  C22017031   5.619   6.911   8.794
  153SAPE  H20R17032   5.672   6.935   8.890
  153SAPE  H20S17033   5.687   6.839   8.743
  153SAPE  H20T17034   5.524   6.857   8.811
  153SAPE   C3317035   5.631   6.696   9.924
  153SAPE   H3X17036   5.703   6.764   9.975
  153SAPE   H3Y17037   5.527   6.735   9.929
  153SAPE   C3417038   5.651   6.693   9.765
  153SAPE   H4X17039   5.565   6.630   9.735
  153SAPE   H4Y17040   5.752   6.647   9.755
  153SAPE   C3517041   5.633   6.829   9.690
  153SAPE   H5X17042   5.726   6.890   9.699
  153SAPE   H5Y17043   5.540   6.876   9.728
  153SAPE   C3617044   5.617   6.808   9.537
  153SAPE   H6X17045   5.581   6.905   9.495
  153SAPE   H6Y17046   5.536   6.736   9.516
  153SAPE   C3717047   5.744   6.747   9.481
  153SAPE   H7X17048   5.749   6.638   9.501
  153SAPE   H7Y17049   5.833   6.784   9.535
  153SAPE   C3817050   5.755   6.782   9.330
  153SAPE   H8X17051   5.785   6.887   9.311
  153SAPE   H8Y17052   5.658   6.751   9.285
  153SAPE   C3917053   5.875   6.701   9.270
  153SAPE   H9X17054   5.876   6.601   9.318
  153SAPE   H9Y17055   5.963   6.762   9.301
  153SAPE  C31017056   5.858   6.675   9.119
  153SAPE  H10X17057   5.878   6.769   9.062
  153SAPE  H10Y17058   5.756   6.647   9.084
  153SAPE  C31117059   5.952   6.560   9.064
  153SAPE  H11X17060   5.945   6.464   9.120
  153SAPE  H11Y17061   6.060   6.582   9.066
  153SAPE  C31217062   5.906   6.528   8.920
  153SAPE  H12X17063   5.911   6.623   8.863
  153SAPE  H12Y17064   5.802   6.491   8.927
  153SAPE  C31317065   5.985   6.420   8.855
  153SAPE  H13X17066   5.979   6.336   8.929
  153SAPE  H13Y17067   6.091   6.452   8.854
  153SAPE  C31417068   5.944   6.382   8.712
  153SAPE  H14X17069   5.970   6.464   8.642
  153SAPE  H14Y17070   5.834   6.368   8.708
  153SAPE  C31517071   6.012   6.249   8.674
  153SAPE  H15X17072   6.107   6.238   8.731
  153SAPE  H15Y17073   6.014   6.253   8.563
  153SAPE  C31617074   5.919   6.129   8.698
  153SAPE  H16X17075   5.821   6.141   8.646
  153SAPE  H16Y17076   5.891   6.129   8.806
  153SAPE  C31717077   5.989   6.006   8.652
  153SAPE  H17X17078   5.931   5.915   8.682
  153SAPE  H17Y17079   6.092   6.004   8.694
  153SAPE  C31817080   5.998   5.994   8.501
  153SAPE  H18X17081   6.026   5.893   8.467
  153SAPE  H18Y17082   6.076   6.056   8.453
  153SAPE  H18Z17083   5.904   6.020   8.448
  154SAPE     N17084   0.441   6.649  10.792
  154SAPE   HN117085   0.475   6.728  10.734
  154SAPE   HN217086   0.357   6.678  10.845
  154SAPE   HN317087   0.513   6.612  10.857
  154SAPE   C1217088   0.394   6.544  10.691
  154SAPE  H12A17089   0.484   6.511  10.636
  154SAPE  H12B17090   0.331   6.615  10.633
  154SAPE   C1117091   0.329   6.426  10.759
  154SAPE  H11A17092   0.388   6.395  10.847
  154SAPE  H11B17093   0.330   6.338  10.690
  154SAPE     P17094   0.068   6.397  10.747
  154SAPE   O1317095   0.094   6.252  10.720
  154SAPE   O1417096  -0.052   6.423  10.830
  154SAPE   O1217097   0.195   6.455  10.808
  154SAPE   O1117098   0.055   6.480  10.608
  154SAPE    C117099   0.028   6.623  10.609
  154SAPE    HA17100  -0.013   6.657  10.707
  154SAPE    HB17101   0.116   6.689  10.594
  154SAPE    C217102  -0.069   6.666  10.497
  154SAPE    HS17103  -0.167   6.617  10.518
  154SAPE   O2117104  -0.019   6.644  10.365
  154SAPE   C2117105  -0.093   6.571  10.280
  154SAPE   O2217106  -0.206   6.540  10.308
  154SAPE   C2217107  -0.017   6.584  10.151
  154SAPE   H2R17108   0.035   6.681  10.136
  154SAPE   H2S17109   0.064   6.507  10.154
  154SAPE    C317110  -0.109   6.814  10.508
  154SAPE    HX17111  -0.022   6.878  10.484
  154SAPE    HY17112  -0.140   6.834  10.613
  154SAPE   O3117113  -0.224   6.835  10.423
  154SAPE   C3117114  -0.255   6.961  10.406
  154SAPE   O3217115  -0.194   7.054  10.461
  154SAPE   C3217116  -0.378   6.986  10.321
  154SAPE   H2X17117  -0.433   7.066  10.376
  154SAPE   H2Y17118  -0.442   6.898  10.300
  154SAPE   C2317119  -0.112   6.552  10.039
  154SAPE   H3R17120  -0.192   6.628  10.055
  154SAPE   H3S17121  -0.142   6.446  10.047
  154SAPE   C2417122  -0.054   6.593   9.897
  154SAPE   H4R17123  -0.035   6.702   9.897
  154SAPE   H4S17124  -0.145   6.583   9.834
  154SAPE   C2517125   0.055   6.501   9.851
  154SAPE   H5R17126   0.064   6.406   9.905
  154SAPE   C2617127   0.131   6.522   9.742
  154SAPE   H6R17128   0.221   6.462   9.723
  154SAPE   C2717129   0.130   6.658   9.673
  154SAPE   H7R17130   0.147   6.743   9.742
  154SAPE   H7S17131   0.027   6.685   9.640
  154SAPE   C2817132   0.226   6.669   9.562
  154SAPE   H8R17133   0.318   6.717   9.598
  154SAPE   C2917134   0.216   6.612   9.437
  154SAPE   H9R17135   0.310   6.608   9.380
  154SAPE  C21017136   0.099   6.532   9.390
  154SAPE  H10R17137   0.072   6.467   9.477
  154SAPE  H10S17138   0.138   6.464   9.312
  154SAPE  C21117139  -0.013   6.621   9.345
  154SAPE  H11R17140  -0.030   6.720   9.390
  154SAPE  C21217141  -0.096   6.589   9.250
  154SAPE  H12R17142  -0.180   6.657   9.227
  154SAPE  C21317143  -0.090   6.462   9.165
  154SAPE  H13R17144  -0.045   6.380   9.225
  154SAPE  H13S17145  -0.012   6.469   9.087
  154SAPE  C21417146  -0.226   6.425   9.117
  154SAPE  H14R17147  -0.289   6.371   9.190
  154SAPE  C21517148  -0.270   6.435   8.992
  154SAPE  H15R17149  -0.377   6.420   8.973
  154SAPE  C21617150  -0.203   6.498   8.868
  154SAPE  H16R17151  -0.165   6.434   8.786
  154SAPE  H16S17152  -0.113   6.552   8.902
  154SAPE  C21717153  -0.302   6.600   8.799
  154SAPE  H17R17154  -0.229   6.662   8.742
  154SAPE  H17S17155  -0.360   6.656   8.876
  154SAPE  C21817156  -0.403   6.533   8.702
  154SAPE  H18R17157  -0.504   6.537   8.749
  154SAPE  H18S17158  -0.385   6.424   8.695
  154SAPE  C21917159  -0.416   6.596   8.571
  154SAPE  H19R17160  -0.491   6.532   8.519
  154SAPE  H19S17161  -0.322   6.581   8.514
  154SAPE  C22017162  -0.455   6.742   8.580
  154SAPE  H20R17163  -0.543   6.762   8.644
  154SAPE  H20S17164  -0.476   6.781   8.478
  154SAPE  H20T17165  -0.367   6.798   8.618
  154SAPE   C3317166  -0.355   7.056  10.181
  154SAPE   H3X17167  -0.303   7.153  10.196
  154SAPE   H3Y17168  -0.448   7.102  10.140
  154SAPE   C3417169  -0.284   6.969  10.082
  154SAPE   H4X17170  -0.346   6.879  10.060
  154SAPE   H4Y17171  -0.191   6.944  10.138
  154SAPE   C3517172  -0.257   7.044   9.951
  154SAPE   H5X17173  -0.209   7.143   9.967
  154SAPE   H5Y17174  -0.360   7.056   9.911
  154SAPE   C3617175  -0.162   6.973   9.848
  154SAPE   H6X17176  -0.067   6.944   9.898
  154SAPE   H6Y17177  -0.146   7.058   9.778
  154SAPE   C3717178  -0.227   6.859   9.768
  154SAPE   H7X17179  -0.263   6.783   9.841
  154SAPE   H7Y17180  -0.145   6.820   9.704
  154SAPE   C3817181  -0.347   6.894   9.683
  154SAPE   H8X17182  -0.327   6.989   9.629
  154SAPE   H8Y17183  -0.433   6.919   9.748
  154SAPE   C3917184  -0.390   6.772   9.597
  154SAPE   H9X17185  -0.419   6.686   9.660
  154SAPE   H9Y17186  -0.301   6.739   9.540
  154SAPE  C31017187  -0.508   6.791   9.496
  154SAPE  H10X17188  -0.466   6.856   9.416
  154SAPE  H10Y17189  -0.593   6.849   9.536
  154SAPE  C31117190  -0.549   6.662   9.419
  154SAPE  H11X17191  -0.466   6.615   9.362
  154SAPE  H11Y17192  -0.627   6.700   9.349
  154SAPE  C31217193  -0.617   6.562   9.505
  154SAPE  H12X17194  -0.715   6.600   9.541
  154SAPE  H12Y17195  -0.549   6.537   9.589
  154SAPE  C31317196  -0.651   6.433   9.424
  154SAPE  H13X17197  -0.560   6.400   9.371
  154SAPE  H13Y17198  -0.728   6.459   9.348
  154SAPE  C31417199  -0.701   6.314   9.516
  154SAPE  H14X17200  -0.615   6.272   9.572
  154SAPE  H14Y17201  -0.736   6.232   9.451
  154SAPE  C31517202  -0.795   6.362   9.618
  154SAPE  H15X17203  -0.882   6.420   9.581
  154SAPE  H15Y17204  -0.745   6.425   9.695
  154SAPE  C31617205  -0.865   6.248   9.701
  154SAPE  H16X17206  -0.788   6.181   9.744
  154SAPE  H16Y17207  -0.927   6.188   9.631
  154SAPE  C31717208  -0.951   6.313   9.807
  154SAPE  H17X17209  -1.011   6.400   9.771
  154SAPE  H17Y17210  -0.878   6.362   9.875
  154SAPE  C31817211  -1.031   6.209   9.872
  154SAPE  H18X17212  -1.124   6.257   9.910
  154SAPE  H18Y17213  -0.979   6.147   9.947
  154SAPE  H18Z17214  -1.079   6.146   9.794
  155SAPE     N17215   0.684   0.811  10.921
  155SAPE   HN117216   0.738   0.800  10.833
  155SAPE   HN217217   0.652   0.713  10.939
  155SAPE   HN317218   0.601   0.868  10.894
  155SAPE   C1217219   0.745   0.882  11.038
  155SAPE  H12A17220   0.808   0.814  11.099
  155SAPE  H12B17221   0.667   0.921  11.108
  155SAPE   C1117222   0.821   1.008  10.986
  155SAPE  H11A17223   0.908   0.978  10.924
  155SAPE  H11B17224   0.855   1.059  11.079
  155SAPE     P17225   0.776   1.219  10.840
  155SAPE   O1317226   0.658   1.303  10.802
  155SAPE   O1417227   0.894   1.280  10.897
  155SAPE   O1217228   0.726   1.092  10.926
  155SAPE   O1117229   0.824   1.144  10.706
  155SAPE    C117230   0.725   1.066  10.634
  155SAPE    HA17231   0.697   0.981  10.699
  155SAPE    HB17232   0.634   1.125  10.607
  155SAPE    C217233   0.773   1.004  10.506
  155SAPE    HS17234   0.871   0.956  10.528
  155SAPE   O2117235   0.777   1.104  10.399
  155SAPE   C2117236   0.897   1.143  10.359
  155SAPE   O2217237   1.003   1.100  10.403
  155SAPE   C2217238   0.873   1.247  10.251
  155SAPE   H2R17239   0.780   1.299  10.279
  155SAPE   H2S17240   0.954   1.323  10.260
  155SAPE    C317241   0.669   0.894  10.459
  155SAPE    HX17242   0.576   0.950  10.434
  155SAPE    HY17243   0.656   0.815  10.536
  155SAPE   O3117244   0.710   0.810  10.347
  155SAPE   C3117245   0.661   0.854  10.231
  155SAPE   O3217246   0.603   0.958  10.210
  155SAPE   C3217247   0.700   0.757  10.123
  155SAPE   H2X17248   0.669   0.655  10.152
  155SAPE   H2Y17249   0.808   0.775  10.107
  155SAPE   C2317250   0.882   1.186  10.113
  155SAPE   H3R17251   0.841   1.083  10.104
  155SAPE   H3S17252   0.990   1.188  10.084
  155SAPE   C2417253   0.809   1.281  10.021
  155SAPE   H4R17254   0.707   1.312  10.052
  155SAPE   H4S17255   0.791   1.215   9.934
  155SAPE   C2517256   0.877   1.412   9.990
  155SAPE   H5R17257   0.874   1.492  10.065
  155SAPE   C2617258   0.937   1.442   9.876
  155SAPE   H6R17259   0.979   1.542   9.857
  155SAPE   C2717260   0.954   1.348   9.761
  155SAPE   H7R17261   0.962   1.245   9.801
  155SAPE   H7S17262   1.051   1.379   9.717
  155SAPE   C2817263   0.849   1.353   9.648
  155SAPE   H8R17264   0.747   1.331   9.684
  155SAPE   C2917265   0.857   1.373   9.516
  155SAPE   H9R17266   0.761   1.375   9.462
  155SAPE  C21017267   0.976   1.400   9.428
  155SAPE  H10R17268   1.061   1.443   9.484
  155SAPE  H10S17269   0.937   1.486   9.369
  155SAPE  C21117270   1.038   1.292   9.351
  155SAPE  H11R17271   1.073   1.200   9.400
  155SAPE  C21217272   1.054   1.298   9.215
  155SAPE  H12R17273   1.088   1.205   9.167
  155SAPE  C21317274   1.025   1.413   9.118
  155SAPE  H13R17275   1.112   1.427   9.051
  155SAPE  H13S17276   1.023   1.515   9.161
  155SAPE  C21417277   0.895   1.403   9.039
  155SAPE  H14R17278   0.797   1.417   9.088
  155SAPE  C21517279   0.890   1.384   8.904
  155SAPE  H15R17280   0.790   1.375   8.859
  155SAPE  C21617281   1.006   1.365   8.811
  155SAPE  H16R17282   1.030   1.257   8.809
  155SAPE  H16S17283   1.103   1.415   8.833
  155SAPE  C21717284   0.981   1.428   8.670
  155SAPE  H17R17285   0.936   1.530   8.675
  155SAPE  H17S17286   0.915   1.366   8.606
  155SAPE  C21817287   1.110   1.457   8.592
  155SAPE  H18R17288   1.187   1.501   8.658
  155SAPE  H18S17289   1.079   1.526   8.511
  155SAPE  C21917290   1.176   1.342   8.511
  155SAPE  H19R17291   1.092   1.311   8.446
  155SAPE  H19S17292   1.198   1.254   8.575
  155SAPE  C22017293   1.294   1.380   8.421
  155SAPE  H20R17294   1.297   1.331   8.321
  155SAPE  H20S17295   1.390   1.362   8.473
  155SAPE  H20T17296   1.300   1.489   8.405
  155SAPE   C3317297   0.629   0.795   9.988
  155SAPE   H3X17298   0.609   0.902   9.968
  155SAPE   H3Y17299   0.525   0.757   9.991
  155SAPE   C3417300   0.707   0.744   9.862
  155SAPE   H4X17301   0.723   0.634   9.861
  155SAPE   H4Y17302   0.806   0.791   9.875
  155SAPE   C3517303   0.658   0.799   9.724
  155SAPE   H5X17304   0.654   0.910   9.736
  155SAPE   H5Y17305   0.560   0.750   9.707
  155SAPE   C3617306   0.747   0.771   9.604
  155SAPE   H6X17307   0.759   0.665   9.576
  155SAPE   H6Y17308   0.851   0.806   9.624
  155SAPE   C3717309   0.720   0.854   9.480
  155SAPE   H7X17310   0.697   0.956   9.519
  155SAPE   H7Y17311   0.620   0.833   9.435
  155SAPE   C3817312   0.820   0.845   9.365
  155SAPE   H8X17313   0.821   0.741   9.326
  155SAPE   H8Y17314   0.919   0.852   9.414
  155SAPE   C3917315   0.792   0.945   9.248
  155SAPE   H9X17316   0.804   1.052   9.277
  155SAPE   H9Y17317   0.685   0.941   9.218
  155SAPE  C31017318   0.879   0.923   9.121
  155SAPE  H10X17319   0.858   0.822   9.079
  155SAPE  H10Y17320   0.985   0.920   9.154
  155SAPE  C31117321   0.858   1.032   9.009
  155SAPE  H11X17322   0.895   1.131   9.043
  155SAPE  H11Y17323   0.749   1.042   8.990
  155SAPE  C31217324   0.933   0.992   8.876
  155SAPE  H12X17325   0.916   1.066   8.795
  155SAPE  H12Y17326   0.910   0.887   8.847
  155SAPE  C31317327   1.085   0.991   8.896
  155SAPE  H13X17328   1.104   0.918   8.977
  155SAPE  H13Y17329   1.109   1.088   8.944
  155SAPE  C31417330   1.173   0.961   8.766
  155SAPE  H14X17331   1.283   0.969   8.780
  155SAPE  H14Y17332   1.134   1.019   8.680
  155SAPE  C31517333   1.139   0.812   8.728
  155SAPE  H15X17334   1.029   0.793   8.722
  155SAPE  H15Y17335   1.176   0.752   8.814
  155SAPE  C31617336   1.210   0.785   8.594
  155SAPE  H16X17337   1.301   0.849   8.597
  155SAPE  H16Y17338   1.137   0.815   8.516
  155SAPE  C31717339   1.238   0.635   8.578
  155SAPE  H17X17340   1.152   0.565   8.568
  155SAPE  H17Y17341   1.296   0.610   8.670
  155SAPE  C31817342   1.329   0.598   8.454
  155SAPE  H18X17343   1.348   0.488   8.459
  155SAPE  H18Y17344   1.429   0.645   8.459
  155SAPE  H18Z17345   1.271   0.617   8.362
  156SAPE     N17346   5.506   5.719  10.438
  156SAPE   HN117347   5.539   5.766  10.351
  156SAPE   HN217348   5.576   5.668  10.496
  156SAPE   HN317349   5.451   5.644  10.393
  156SAPE   C1217350   5.419   5.816  10.512
  156SAPE  H12A17351   5.477   5.901  10.553
  156SAPE  H12B17352   5.373   5.767  10.601
  156SAPE   C1117353   5.300   5.852  10.423
  156SAPE  H11A17354   5.331   5.905  10.331
  156SAPE  H11B17355   5.237   5.928  10.474
  156SAPE     P17356   5.081   5.706  10.461
  156SAPE   O1317357   5.107   5.638  10.591
  156SAPE   O1417358   4.997   5.827  10.458
  156SAPE   O1217359   5.220   5.734  10.390
  156SAPE   O1117360   5.018   5.602  10.364
  156SAPE    C117361   5.091   5.510  10.290
  156SAPE    HA17362   5.180   5.474  10.345
  156SAPE    HB17363   5.018   5.430  10.265
  156SAPE    C217364   5.144   5.557  10.151
  156SAPE    HS17365   5.236   5.616  10.173
  156SAPE   O2117366   5.046   5.634  10.085
  156SAPE   C2117367   5.096   5.722   9.984
  156SAPE   O2217368   5.209   5.769   9.987
  156SAPE   C2217369   4.992   5.736   9.877
  156SAPE   H2R17370   4.912   5.660   9.889
  156SAPE   H2S17371   4.945   5.835   9.896
  156SAPE    C317372   5.192   5.437  10.065
  156SAPE    HX17373   5.099   5.378  10.050
  156SAPE    HY17374   5.252   5.366  10.125
  156SAPE   O3117375   5.249   5.452   9.938
  156SAPE   C3117376   5.374   5.493   9.940
  156SAPE   O3217377   5.440   5.511  10.042
  156SAPE   C3217378   5.436   5.511   9.797
  156SAPE   H2X17379   5.437   5.620   9.774
  156SAPE   H2Y17380   5.381   5.461   9.715
  156SAPE   C2317381   5.041   5.735   9.726
  156SAPE   H3R17382   5.111   5.650   9.716
  156SAPE   H3S17383   5.106   5.825   9.714
  156SAPE   C2417384   4.928   5.724   9.621
  156SAPE   H4R17385   4.869   5.818   9.627
  156SAPE   H4S17386   4.862   5.637   9.643
  156SAPE   C2517387   4.979   5.715   9.484
  156SAPE   H5R17388   5.088   5.707   9.478
  156SAPE   C2617389   4.909   5.701   9.370
  156SAPE   H6R17390   4.966   5.700   9.276
  156SAPE   C2717391   4.762   5.685   9.343
  156SAPE   H7R17392   4.700   5.686   9.435
  156SAPE   H7S17393   4.748   5.580   9.308
  156SAPE   C2817394   4.713   5.783   9.248
  156SAPE   H8R17395   4.676   5.877   9.290
  156SAPE   C2917396   4.687   5.769   9.118
  156SAPE   H9R17397   4.658   5.862   9.068
  156SAPE  C21017398   4.710   5.644   9.034
  156SAPE  H10R17399   4.653   5.566   9.089
  156SAPE  H10S17400   4.817   5.613   9.038
  156SAPE  C21117401   4.658   5.642   8.896
  156SAPE  H11R17402   4.553   5.611   8.888
  156SAPE  C21217403   4.730   5.681   8.795
  156SAPE  H12R17404   4.700   5.657   8.692
  156SAPE  C21317405   4.872   5.741   8.805
  156SAPE  H13R17406   4.898   5.780   8.906
  156SAPE  H13S17407   4.881   5.831   8.739
  156SAPE  C21417408   4.978   5.636   8.773
  156SAPE  H14R17409   5.035   5.597   8.858
  156SAPE  C21517410   5.018   5.597   8.645
  156SAPE  H15R17411   5.103   5.528   8.633
  156SAPE  C21617412   4.951   5.641   8.519
  156SAPE  H16R17413   4.846   5.676   8.528
  156SAPE  H16S17414   4.951   5.557   8.446
  156SAPE  C21717415   5.033   5.747   8.446
  156SAPE  H17R17416   5.138   5.716   8.432
  156SAPE  H17S17417   5.035   5.841   8.505
  156SAPE  C21817418   4.971   5.787   8.308
  156SAPE  H18R17419   4.970   5.697   8.243
  156SAPE  H18S17420   5.036   5.862   8.256
  156SAPE  C21917421   4.830   5.850   8.336
  156SAPE  H19R17422   4.856   5.927   8.411
  156SAPE  H19S17423   4.767   5.765   8.371
  156SAPE  C22017424   4.767   5.915   8.211
  156SAPE  H20R17425   4.836   5.979   8.152
  156SAPE  H20S17426   4.676   5.974   8.232
  156SAPE  H20T17427   4.726   5.836   8.143
  156SAPE   C3317428   5.578   5.458   9.779
  156SAPE   H3X17429   5.571   5.347   9.776
  156SAPE   H3Y17430   5.648   5.500   9.855
  156SAPE   C3417431   5.635   5.483   9.637
  156SAPE   H4X17432   5.632   5.594   9.632
  156SAPE   H4Y17433   5.556   5.440   9.573
  156SAPE   C3517434   5.770   5.420   9.627
  156SAPE   H5X17435   5.776   5.312   9.652
  156SAPE   H5Y17436   5.833   5.467   9.706
  156SAPE   C3617437   5.821   5.444   9.480
  156SAPE   H6X17438   5.932   5.443   9.489
  156SAPE   H6Y17439   5.784   5.548   9.470
  156SAPE   C3717440   5.756   5.354   9.374
  156SAPE   H7X17441   5.645   5.361   9.376
  156SAPE   H7Y17442   5.783   5.247   9.388
  156SAPE   C3817443   5.795   5.397   9.232
  156SAPE   H8X17444   5.903   5.418   9.219
  156SAPE   H8Y17445   5.746   5.496   9.220
  156SAPE   C3917446   5.747   5.290   9.131
  156SAPE   H9X17447   5.636   5.284   9.130
  156SAPE   H9Y17448   5.793   5.191   9.153
  156SAPE  C31017449   5.794   5.337   8.992
  156SAPE  H10X17450   5.903   5.358   8.995
  156SAPE  H10Y17451   5.736   5.427   8.961
  156SAPE  C31117452   5.757   5.221   8.885
  156SAPE  H11X17453   5.651   5.190   8.897
  156SAPE  H11Y17454   5.812   5.130   8.920
  156SAPE  C31217455   5.793   5.244   8.737
  156SAPE  H12X17456   5.900   5.270   8.726
  156SAPE  H12Y17457   5.730   5.330   8.705
  156SAPE  C31317458   5.753   5.123   8.652
  156SAPE  H13X17459   5.827   5.043   8.675
  156SAPE  H13Y17460   5.770   5.147   8.545
  156SAPE  C31417461   5.603   5.061   8.655
  156SAPE  H14X17462   5.534   5.137   8.611
  156SAPE  H14Y17463   5.576   5.044   8.761
  156SAPE  C31517464   5.576   4.920   8.593
  156SAPE  H15X17465   5.632   4.842   8.648
  156SAPE  H15Y17466   5.618   4.919   8.490
  156SAPE  C31617467   5.424   4.892   8.582
  156SAPE  H16X17468   5.367   4.972   8.528
  156SAPE  H16Y17469   5.384   4.898   8.685
  156SAPE  C31717470   5.398   4.753   8.513
  156SAPE  H17X17471   5.296   4.713   8.529
  156SAPE  H17Y17472   5.469   4.685   8.565
  156SAPE  C31817473   5.424   4.747   8.365
  156SAPE  H18X17474   5.362   4.814   8.302
  156SAPE  H18Y17475   5.381   4.649   8.336
  156SAPE  H18Z17476   5.532   4.742   8.340
  157SAPE     N17477   3.840   5.856  10.635
  157SAPE   HN117478   3.894   5.939  10.602
  157SAPE   HN217479   3.842   5.782  10.562
  157SAPE   HN317480   3.740   5.879  10.653
  157SAPE   C1217481   3.905   5.803  10.758
  157SAPE  H12A17482   3.833   5.729  10.800
  157SAPE  H12B17483   3.943   5.890  10.816
  157SAPE   C1117484   4.039   5.731  10.727
  157SAPE  H11A17485   4.080   5.709  10.828
  157SAPE  H11B17486   4.109   5.806  10.685
  157SAPE     P17487   3.984   5.478  10.699
  157SAPE   O1317488   4.083   5.421  10.787
  157SAPE   O1417489   3.854   5.484  10.765
  157SAPE   O1217490   4.028   5.625  10.638
  157SAPE   O1117491   3.967   5.398  10.566
  157SAPE    C117492   4.055   5.396  10.456
  157SAPE    HA17493   4.089   5.498  10.428
  157SAPE    HB17494   4.144   5.330  10.469
  157SAPE    C217495   3.980   5.348  10.335
  157SAPE    HS17496   4.039   5.271  10.279
  157SAPE   O2117497   3.932   5.458  10.256
  157SAPE   C2117498   3.958   5.463  10.131
  157SAPE   O2217499   4.036   5.398  10.068
  157SAPE   C2217500   3.863   5.569  10.076
  157SAPE   H2R17501   3.785   5.589  10.152
  157SAPE   H2S17502   3.922   5.662  10.057
  157SAPE    C317503   3.856   5.264  10.374
  157SAPE    HX17504   3.777   5.328  10.419
  157SAPE    HY17505   3.886   5.185  10.447
  157SAPE   O3117506   3.806   5.210  10.250
  157SAPE   C3117507   3.825   5.086  10.211
  157SAPE   O3217508   3.902   5.010  10.270
  157SAPE   C3217509   3.750   5.049  10.084
  157SAPE   H2X17510   3.706   5.136  10.032
  157SAPE   H2Y17511   3.674   4.972  10.111
  157SAPE   C2317512   3.813   5.516   9.939
  157SAPE   H3R17513   3.726   5.448   9.935
  157SAPE   H3S17514   3.901   5.470   9.890
  157SAPE   C2417515   3.782   5.636   9.849
  157SAPE   H4R17516   3.757   5.597   9.748
  157SAPE   H4S17517   3.875   5.697   9.840
  157SAPE   C2517518   3.671   5.723   9.892
  157SAPE   H5R17519   3.587   5.657   9.919
  157SAPE   C2617520   3.664   5.858   9.909
  157SAPE   H6R17521   3.570   5.909   9.932
  157SAPE   C2717522   3.776   5.957   9.889
  157SAPE   H7R17523   3.736   6.055   9.857
  157SAPE   H7S17524   3.844   5.920   9.809
  157SAPE   C2817525   3.853   5.987  10.015
  157SAPE   H8R17526   3.811   5.974  10.116
  157SAPE   C2917527   3.978   6.026  10.012
  157SAPE   H9R17528   4.035   6.023  10.106
  157SAPE  C21017529   4.069   6.036   9.893
  157SAPE  H10R17530   4.011   6.043   9.799
  157SAPE  H10S17531   4.127   5.941   9.895
  157SAPE  C21117532   4.161   6.154   9.893
  157SAPE  H11R17533   4.142   6.217   9.981
  157SAPE  C21217534   4.266   6.177   9.820
  157SAPE  H12R17535   4.327   6.266   9.839
  157SAPE  C21317536   4.301   6.103   9.692
  157SAPE  H13R17537   4.288   6.175   9.609
  157SAPE  H13S17538   4.236   6.021   9.654
  157SAPE  C21417539   4.437   6.048   9.684
  157SAPE  H14R17540   4.451   5.961   9.749
  157SAPE  C21517541   4.536   6.099   9.608
  157SAPE  H15R17542   4.640   6.064   9.603
  157SAPE  C21617543   4.521   6.227   9.532
  157SAPE  H16R17544   4.622   6.268   9.511
  157SAPE  H16S17545   4.463   6.309   9.580
  157SAPE  C21717546   4.460   6.199   9.387
  157SAPE  H17R17547   4.412   6.293   9.353
  157SAPE  H17S17548   4.377   6.126   9.385
  157SAPE  C21817549   4.567   6.175   9.276
  157SAPE  H18R17550   4.619   6.078   9.292
  157SAPE  H18S17551   4.644   6.255   9.288
  157SAPE  C21917552   4.530   6.182   9.126
  157SAPE  H19R17553   4.625   6.186   9.069
  157SAPE  H19S17554   4.481   6.281   9.121
  157SAPE  C22017555   4.436   6.072   9.073
  157SAPE  H20R17556   4.413   6.086   8.965
  157SAPE  H20S17557   4.340   6.067   9.129
  157SAPE  H20T17558   4.486   5.973   9.077
  157SAPE   C3317559   3.851   5.007   9.968
  157SAPE   H3X17560   3.803   4.966   9.876
  157SAPE   H3Y17561   3.904   4.920  10.012
  157SAPE   C3417562   3.951   5.116   9.923
  157SAPE   H4X17563   4.015   5.136  10.012
  157SAPE   H4Y17564   3.908   5.216   9.902
  157SAPE   C3517565   4.043   5.069   9.810
  157SAPE   H5X17566   4.055   4.961   9.833
  157SAPE   H5Y17567   4.144   5.115   9.800
  157SAPE   C3617568   3.987   5.079   9.655
  157SAPE   H6X17569   3.905   5.005   9.648
  157SAPE   H6Y17570   4.071   5.052   9.588
  157SAPE   C3717571   3.937   5.219   9.626
  157SAPE   H7X17572   4.001   5.308   9.642
  157SAPE   H7Y17573   3.862   5.237   9.707
  157SAPE   C3817574   3.862   5.242   9.495
  157SAPE   H8X17575   3.796   5.329   9.508
  157SAPE   H8Y17576   3.792   5.157   9.478
  157SAPE   C3917577   3.942   5.262   9.363
  157SAPE   H9X17578   4.012   5.177   9.347
  157SAPE   H9Y17579   3.998   5.358   9.361
  157SAPE  C31017580   3.853   5.273   9.233
  157SAPE  H10X17581   3.796   5.369   9.242
  157SAPE  H10Y17582   3.783   5.187   9.227
  157SAPE  C31117583   3.938   5.270   9.107
  157SAPE  H11X17584   3.991   5.172   9.110
  157SAPE  H11Y17585   4.012   5.353   9.099
  157SAPE  C31217586   3.863   5.278   8.976
  157SAPE  H12X17587   3.806   5.373   8.980
  157SAPE  H12Y17588   3.777   5.206   8.976
  157SAPE  C31317589   3.935   5.267   8.843
  157SAPE  H13X17590   3.984   5.168   8.836
  157SAPE  H13Y17591   4.024   5.333   8.833
  157SAPE  C31417592   3.838   5.293   8.730
  157SAPE  H14X17593   3.812   5.400   8.740
  157SAPE  H14Y17594   3.748   5.227   8.733
  157SAPE  C31517595   3.907   5.275   8.592
  157SAPE  H15X17596   3.916   5.166   8.573
  157SAPE  H15Y17597   4.010   5.307   8.617
  157SAPE  C31617598   3.826   5.321   8.474
  157SAPE  H16X17599   3.863   5.274   8.380
  157SAPE  H16Y17600   3.856   5.427   8.462
  157SAPE  C31717601   3.676   5.297   8.476
  157SAPE  H17X17602   3.630   5.333   8.571
  157SAPE  H17Y17603   3.664   5.187   8.482
  157SAPE  C31817604   3.602   5.359   8.352
  157SAPE  H18X17605   3.613   5.282   8.272
  157SAPE  H18Y17606   3.664   5.448   8.329
  157SAPE  H18Z17607   3.497   5.387   8.375
  158SAPE     N17608   5.198   6.550  10.506
  158SAPE   HN117609   5.179   6.634  10.447
  158SAPE   HN217610   5.107   6.525  10.549
  158SAPE   HN317611   5.270   6.572  10.577
  158SAPE   C1217612   5.239   6.435  10.410
  158SAPE  H12A17613   5.325   6.480  10.356
  158SAPE  H12B17614   5.149   6.412  10.349
  158SAPE   C1117615   5.283   6.311  10.486
  158SAPE  H11A17616   5.299   6.237  10.404
  158SAPE  H11B17617   5.203   6.283  10.558
  158SAPE     P17618   5.501   6.228  10.597
  158SAPE   O1317619   5.617   6.285  10.663
  158SAPE   O1417620   5.420   6.133  10.674
  158SAPE   O1217621   5.404   6.347  10.555
  158SAPE   O1117622   5.540   6.157  10.462
  158SAPE    C117623   5.616   6.223  10.362
  158SAPE    HA17624   5.567   6.319  10.334
  158SAPE    HB17625   5.716   6.243  10.404
  158SAPE    C217626   5.648   6.132  10.240
  158SAPE    HS17627   5.690   6.181  10.150
  158SAPE   O2117628   5.537   6.063  10.188
  158SAPE   C2117629   5.442   6.128  10.120
  158SAPE   O2217630   5.447   6.249  10.108
  158SAPE   C2217631   5.347   6.038  10.043
  158SAPE   H2R17632   5.398   5.940  10.033
  158SAPE   H2S17633   5.262   6.011  10.110
  158SAPE    C317634   5.751   6.018  10.271
  158SAPE    HX17635   5.725   5.957  10.360
  158SAPE    HY17636   5.845   6.075  10.283
  158SAPE   O3117637   5.776   5.936  10.152
  158SAPE   C3117638   5.702   5.827  10.136
  158SAPE   O3217639   5.622   5.787  10.216
  158SAPE   C3217640   5.737   5.760   9.997
  158SAPE   H2X17641   5.652   5.691   9.978
  158SAPE   H2Y17642   5.830   5.699  10.004
  158SAPE   C2317643   5.293   6.105   9.917
  158SAPE   H3R17644   5.277   6.213   9.935
  158SAPE   H3S17645   5.189   6.068   9.901
  158SAPE   C2417646   5.376   6.088   9.784
  158SAPE   H4R17647   5.478   6.129   9.801
  158SAPE   H4S17648   5.325   6.159   9.716
  158SAPE   C2517649   5.396   5.944   9.746
  158SAPE   H5R17650   5.448   5.878   9.816
  158SAPE   C2617651   5.356   5.892   9.625
  158SAPE   H6R17652   5.368   5.783   9.614
  158SAPE   C2717653   5.284   5.964   9.514
  158SAPE   H7R17654   5.221   6.044   9.560
  158SAPE   H7S17655   5.211   5.890   9.477
  158SAPE   C2817656   5.374   6.034   9.415
  158SAPE   H8R17657   5.395   6.140   9.434
  158SAPE   C2917658   5.411   5.975   9.302
  158SAPE   H9R17659   5.494   6.013   9.240
  158SAPE  C21017660   5.382   5.828   9.257
  158SAPE  H10R17661   5.361   5.762   9.344
  158SAPE  H10S17662   5.479   5.796   9.215
  158SAPE  C21117663   5.268   5.809   9.155
  158SAPE  H11R17664   5.182   5.875   9.174
  158SAPE  C21217665   5.255   5.706   9.067
  158SAPE  H12R17666   5.169   5.707   8.998
  158SAPE  C21317667   5.341   5.581   9.042
  158SAPE  H13R17668   5.298   5.494   9.096
  158SAPE  H13S17669   5.440   5.594   9.090
  158SAPE  C21417670   5.336   5.558   8.894
  158SAPE  H14R17671   5.378   5.647   8.844
  158SAPE  C21517672   5.312   5.442   8.827
  158SAPE  H15R17673   5.303   5.442   8.717
  158SAPE  C21617674   5.263   5.317   8.886
  158SAPE  H16R17675   5.178   5.340   8.955
  158SAPE  H16S17676   5.347   5.274   8.945
  158SAPE  C21717677   5.197   5.224   8.782
  158SAPE  H17R17678   5.268   5.181   8.708
  158SAPE  H17S17679   5.121   5.278   8.723
  158SAPE  C21817680   5.121   5.103   8.841
  158SAPE  H18R17681   5.037   5.148   8.898
  158SAPE  H18S17682   5.187   5.049   8.912
  158SAPE  C21917683   5.074   4.999   8.742
  158SAPE  H19R17684   5.162   4.945   8.701
  158SAPE  H19S17685   5.004   5.038   8.665
  158SAPE  C22017686   5.000   4.889   8.823
  158SAPE  H20R17687   5.063   4.859   8.910
  158SAPE  H20S17688   4.981   4.803   8.756
  158SAPE  H20T17689   4.904   4.932   8.857
  158SAPE   C3317690   5.762   5.867   9.888
  158SAPE   H3X17691   5.855   5.925   9.906
  158SAPE   H3Y17692   5.673   5.933   9.878
  158SAPE   C3417693   5.760   5.796   9.749
  158SAPE   H4X17694   5.653   5.788   9.719
  158SAPE   H4Y17695   5.803   5.694   9.756
  158SAPE   C3517696   5.823   5.869   9.625
  158SAPE   H5X17697   5.784   5.973   9.619
  158SAPE   H5Y17698   5.791   5.812   9.535
  158SAPE   C3617699   5.980   5.869   9.628
  158SAPE   H6X17700   6.016   5.926   9.717
  158SAPE   H6Y17701   6.017   5.931   9.543
  158SAPE   C3717702   6.034   5.731   9.630
  158SAPE   H7X17703   5.983   5.655   9.566
  158SAPE   H7Y17704   6.025   5.701   9.737
  158SAPE   C3817705   6.194   5.722   9.605
  158SAPE   H8X17706   6.243   5.638   9.657
  158SAPE   H8Y17707   6.233   5.812   9.657
  158SAPE   C3917708   6.223   5.742   9.454
  158SAPE   H9X17709   6.334   5.737   9.444
  158SAPE   H9Y17710   6.192   5.841   9.415
  158SAPE  C31017711   6.173   5.645   9.349
  158SAPE  H10X17712   6.062   5.647   9.355
  158SAPE  H10Y17713   6.207   5.553   9.402
  158SAPE  C31117714   6.237   5.663   9.212
  158SAPE  H11X17715   6.346   5.678   9.227
  158SAPE  H11Y17716   6.197   5.758   9.172
  158SAPE  C31217717   6.216   5.550   9.109
  158SAPE  H12X17718   6.110   5.525   9.093
  158SAPE  H12Y17719   6.259   5.458   9.154
  158SAPE  C31317720   6.278   5.589   8.975
  158SAPE  H13X17721   6.387   5.599   8.995
  158SAPE  H13Y17722   6.226   5.682   8.942
  158SAPE  C31417723   6.274   5.478   8.867
  158SAPE  H14X17724   6.166   5.475   8.844
  158SAPE  H14Y17725   6.306   5.384   8.918
  158SAPE  C31517726   6.362   5.498   8.738
  158SAPE  H15X17727   6.464   5.509   8.781
  158SAPE  H15Y17728   6.325   5.593   8.693
  158SAPE  C31617729   6.344   5.385   8.636
  158SAPE  H16X17730   6.361   5.284   8.680
  158SAPE  H16Y17731   6.419   5.411   8.559
  158SAPE  C31717732   6.205   5.393   8.569
  158SAPE  H17X17733   6.178   5.494   8.531
  158SAPE  H17Y17734   6.136   5.349   8.644
  158SAPE  C31817735   6.192   5.314   8.435
  158SAPE  H18X17736   6.086   5.307   8.404
  158SAPE  H18Y17737   6.236   5.214   8.458
  158SAPE  H18Z17738   6.255   5.349   8.351
  159SAPE     N17739   4.605   3.496   6.188
  159SAPE   HN117740   4.617   3.488   6.085
  159SAPE   HN217741   4.637   3.403   6.223
  159SAPE   HN317742   4.505   3.506   6.214
  159SAPE   C1217743   4.686   3.606   6.244
  159SAPE  H12A17744   4.646   3.704   6.210
  159SAPE  H12B17745   4.787   3.608   6.198
  159SAPE   C1117746   4.698   3.601   6.396
  159SAPE  H11A17747   4.599   3.607   6.446
  159SAPE  H11B17748   4.752   3.692   6.431
  159SAPE     P17749   4.910   3.496   6.499
  159SAPE   O1317750   4.974   3.368   6.507
  159SAPE   O1417751   4.984   3.587   6.406
  159SAPE   O1217752   4.762   3.480   6.441
  159SAPE   O1117753   4.899   3.563   6.641
  159SAPE    C117754   4.822   3.513   6.748
  159SAPE    HA17755   4.781   3.600   6.803
  159SAPE    HB17756   4.740   3.444   6.717
  159SAPE    C217757   4.907   3.432   6.843
  159SAPE    HS17758   4.951   3.344   6.792
  159SAPE   O2117759   4.834   3.395   6.957
  159SAPE   C2117760   4.734   3.304   6.938
  159SAPE   O2217761   4.718   3.245   6.837
  159SAPE   C2217762   4.659   3.294   7.073
  159SAPE   H2R17763   4.564   3.245   7.043
  159SAPE   H2S17764   4.727   3.229   7.132
  159SAPE    C317765   5.044   3.507   6.891
  159SAPE    HX17766   5.012   3.605   6.931
  159SAPE    HY17767   5.100   3.531   6.798
  159SAPE   O3117768   5.116   3.441   6.999
  159SAPE   C3117769   5.189   3.341   6.961
  159SAPE   O3217770   5.189   3.292   6.849
  159SAPE   C3217771   5.281   3.288   7.074
  159SAPE   H2X17772   5.389   3.302   7.051
  159SAPE   H2Y17773   5.260   3.178   7.075
  159SAPE   C2317774   4.631   3.429   7.139
  159SAPE   H3R17775   4.592   3.503   7.065
  159SAPE   H3S17776   4.728   3.463   7.183
  159SAPE   C2417777   4.516   3.410   7.244
  159SAPE   H4R17778   4.544   3.335   7.321
  159SAPE   H4S17779   4.430   3.366   7.188
  159SAPE   C2517780   4.475   3.544   7.307
  159SAPE   H5R17781   4.436   3.616   7.234
  159SAPE   C2617782   4.486   3.574   7.435
  159SAPE   H6R17783   4.445   3.664   7.482
  159SAPE   C2717784   4.532   3.478   7.544
  159SAPE   H7R17785   4.603   3.406   7.499
  159SAPE   H7S17786   4.448   3.424   7.594
  159SAPE   C2817787   4.623   3.543   7.649
  159SAPE   H8R17788   4.706   3.600   7.604
  159SAPE   C2917789   4.624   3.524   7.785
  159SAPE   H9R17790   4.699   3.572   7.849
  159SAPE  C21017791   4.535   3.426   7.855
  159SAPE  H10R17792   4.578   3.382   7.948
  159SAPE  H10S17793   4.511   3.342   7.787
  159SAPE  C21117794   4.410   3.500   7.907
  159SAPE  H11R17795   4.328   3.511   7.834
  159SAPE  C21217796   4.383   3.548   8.036
  159SAPE  H12R17797   4.293   3.609   8.052
  159SAPE  C21317798   4.482   3.525   8.147
  159SAPE  H13R17799   4.582   3.500   8.106
  159SAPE  H13S17800   4.448   3.438   8.208
  159SAPE  C21417801   4.496   3.646   8.237
  159SAPE  H14R17802   4.397   3.690   8.257
  159SAPE  C21517803   4.604   3.698   8.299
  159SAPE  H15R17804   4.593   3.793   8.353
  159SAPE  C21617805   4.751   3.650   8.285
  159SAPE  H16R17806   4.803   3.747   8.271
  159SAPE  H16S17807   4.770   3.586   8.196
  159SAPE  C21717808   4.789   3.577   8.414
  159SAPE  H17R17809   4.801   3.649   8.498
  159SAPE  H17S17810   4.887   3.529   8.393
  159SAPE  C21817811   4.693   3.459   8.447
  159SAPE  H18R17812   4.675   3.405   8.351
  159SAPE  H18S17813   4.597   3.493   8.490
  159SAPE  C21917814   4.741   3.357   8.556
  159SAPE  H19R17815   4.836   3.312   8.519
  159SAPE  H19S17816   4.673   3.270   8.552
  159SAPE  C22017817   4.760   3.429   8.692
  159SAPE  H20R17818   4.789   3.352   8.767
  159SAPE  H20S17819   4.660   3.470   8.716
  159SAPE  H20T17820   4.827   3.517   8.676
  159SAPE   C3317821   5.237   3.331   7.216
  159SAPE   H3X17822   5.126   3.328   7.223
  159SAPE   H3Y17823   5.262   3.438   7.235
  159SAPE   C3417824   5.291   3.244   7.336
  159SAPE   H4X17825   5.298   3.140   7.299
  159SAPE   H4Y17826   5.218   3.258   7.418
  159SAPE   C3517827   5.442   3.292   7.356
  159SAPE   H5X17828   5.430   3.401   7.375
  159SAPE   H5Y17829   5.495   3.272   7.261
  159SAPE   C3617830   5.495   3.220   7.475
  159SAPE   H6X17831   5.604   3.243   7.476
  159SAPE   H6Y17832   5.492   3.109   7.469
  159SAPE   C3717833   5.441   3.269   7.608
  159SAPE   H7X17834   5.330   3.275   7.610
  159SAPE   H7Y17835   5.484   3.370   7.626
  159SAPE   C3817836   5.478   3.174   7.718
  159SAPE   H8X17837   5.479   3.069   7.682
  159SAPE   H8Y17838   5.415   3.196   7.807
  159SAPE   C3917839   5.627   3.203   7.765
  159SAPE   H9X17840   5.646   3.312   7.766
  159SAPE   H9Y17841   5.696   3.158   7.690
  159SAPE  C31017842   5.668   3.153   7.902
  159SAPE  H10X17843   5.588   3.182   7.973
  159SAPE  H10Y17844   5.754   3.207   7.947
  159SAPE  C31117845   5.684   3.001   7.912
  159SAPE  H11X17846   5.772   2.968   7.853
  159SAPE  H11Y17847   5.592   2.951   7.876
  159SAPE  C31217848   5.707   2.955   8.061
  159SAPE  H12X17849   5.755   3.034   8.123
  159SAPE  H12Y17850   5.763   2.859   8.051
  159SAPE  C31317851   5.574   2.930   8.137
  159SAPE  H13X17852   5.512   2.860   8.077
  159SAPE  H13Y17853   5.524   3.028   8.150
  159SAPE  C31417854   5.594   2.878   8.282
  159SAPE  H14X17855   5.675   2.936   8.331
  159SAPE  H14Y17856   5.632   2.773   8.283
  159SAPE  C31517857   5.463   2.890   8.359
  159SAPE  H15X17858   5.376   2.833   8.318
  159SAPE  H15Y17859   5.423   2.992   8.375
  159SAPE  C31617860   5.471   2.828   8.502
  159SAPE  H16X17861   5.549   2.883   8.559
  159SAPE  H16Y17862   5.503   2.723   8.485
  159SAPE  C31717863   5.340   2.827   8.577
  159SAPE  H17X17864   5.265   2.767   8.520
  159SAPE  H17Y17865   5.304   2.930   8.596
  159SAPE  C31817866   5.353   2.761   8.715
  159SAPE  H18X17867   5.403   2.662   8.712
  159SAPE  H18Y17868   5.255   2.766   8.767
  159SAPE  H18Z17869   5.413   2.835   8.773
  160SAPE     N17870   3.833   3.931   6.663
  160SAPE   HN117871   3.887   3.896   6.745
  160SAPE   HN217872   3.760   3.861   6.638
  160SAPE   HN317873   3.901   3.914   6.586
  160SAPE   C1217874   3.773   4.070   6.672
  160SAPE  H12A17875   3.847   4.138   6.721
  160SAPE  H12B17876   3.681   4.075   6.734
  160SAPE   C1117877   3.740   4.119   6.531
  160SAPE  H11A17878   3.663   4.046   6.499
  160SAPE  H11B17879   3.833   4.108   6.471
  160SAPE     P17880   3.776   4.374   6.466
  160SAPE   O1317881   3.900   4.374   6.552
  160SAPE   O1417882   3.799   4.355   6.326
  160SAPE   O1217883   3.676   4.257   6.521
  160SAPE   O1117884   3.703   4.509   6.490
  160SAPE    C117885   3.755   4.625   6.544
  160SAPE    HA17886   3.857   4.639   6.501
  160SAPE    HB17887   3.700   4.715   6.509
  160SAPE    C217888   3.755   4.628   6.700
  160SAPE    HS17889   3.832   4.555   6.731
  160SAPE   O2117890   3.631   4.586   6.744
  160SAPE   C2117891   3.618   4.519   6.857
  160SAPE   O2217892   3.716   4.477   6.919
  160SAPE   C2217893   3.469   4.505   6.900
  160SAPE   H2R17894   3.427   4.608   6.906
  160SAPE   H2S17895   3.418   4.442   6.824
  160SAPE    C317896   3.798   4.764   6.743
  160SAPE    HX17897   3.730   4.841   6.700
  160SAPE    HY17898   3.890   4.811   6.702
  160SAPE   O3117899   3.791   4.770   6.891
  160SAPE   C3117900   3.904   4.737   6.948
  160SAPE   O3217901   4.008   4.716   6.894
  160SAPE   C3217902   3.873   4.740   7.098
  160SAPE   H2X17903   3.785   4.673   7.106
  160SAPE   H2Y17904   3.837   4.842   7.123
  160SAPE   C2317905   3.459   4.426   7.035
  160SAPE   H3R17906   3.533   4.468   7.106
  160SAPE   H3S17907   3.500   4.323   7.026
  160SAPE   C2417908   3.312   4.436   7.088
  160SAPE   H4R17909   3.235   4.387   7.025
  160SAPE   H4S17910   3.277   4.542   7.088
  160SAPE   C2517911   3.289   4.376   7.225
  160SAPE   H5R17912   3.262   4.269   7.226
  160SAPE   C2617913   3.322   4.437   7.342
  160SAPE   H6R17914   3.313   4.383   7.438
  160SAPE   C2717915   3.376   4.574   7.362
  160SAPE   H7R17916   3.296   4.607   7.432
  160SAPE   H7S17917   3.377   4.634   7.269
  160SAPE   C2817918   3.516   4.575   7.413
  160SAPE   H8R17919   3.592   4.566   7.335
  160SAPE   C2917920   3.555   4.571   7.541
  160SAPE   H9R17921   3.659   4.543   7.568
  160SAPE  C21017922   3.459   4.590   7.660
  160SAPE  H10R17923   3.389   4.671   7.631
  160SAPE  H10S17924   3.517   4.629   7.746
  160SAPE  C21117925   3.388   4.481   7.725
  160SAPE  H11R17926   3.399   4.383   7.677
  160SAPE  C21217927   3.334   4.487   7.849
  160SAPE  H12R17928   3.285   4.400   7.894
  160SAPE  C21317929   3.316   4.603   7.945
  160SAPE  H13R17930   3.208   4.602   7.971
  160SAPE  H13S17931   3.316   4.699   7.890
  160SAPE  C21417932   3.417   4.607   8.061
  160SAPE  H14R17933   3.513   4.648   8.026
  160SAPE  C21517934   3.397   4.578   8.190
  160SAPE  H15R17935   3.481   4.578   8.260
  160SAPE  C21617936   3.272   4.519   8.250
  160SAPE  H16R17937   3.176   4.552   8.204
  160SAPE  H16S17938   3.245   4.560   8.350
  160SAPE  C21717939   3.272   4.368   8.263
  160SAPE  H17R17940   3.343   4.321   8.335
  160SAPE  H17S17941   3.288   4.339   8.157
  160SAPE  C21817942   3.132   4.311   8.306
  160SAPE  H18R17943   3.138   4.205   8.273
  160SAPE  H18S17944   3.060   4.358   8.237
  160SAPE  C21917945   3.086   4.341   8.454
  160SAPE  H19R17946   3.039   4.441   8.451
  160SAPE  H19S17947   3.163   4.327   8.533
  160SAPE  C22017948   2.965   4.252   8.497
  160SAPE  H20R17949   2.890   4.265   8.416
  160SAPE  H20S17950   2.928   4.276   8.598
  160SAPE  H20T17951   3.007   4.149   8.498
  160SAPE   C3317952   3.995   4.705   7.183
  160SAPE   H3X17953   4.076   4.781   7.169
  160SAPE   H3Y17954   4.036   4.608   7.148
  160SAPE   C3417955   3.959   4.690   7.328
  160SAPE   H4X17956   3.862   4.635   7.337
  160SAPE   H4Y17957   3.937   4.787   7.378
  160SAPE   C3517958   4.064   4.608   7.405
  160SAPE   H5X17959   4.141   4.676   7.447
  160SAPE   H5Y17960   4.116   4.542   7.332
  160SAPE   C3617961   4.003   4.526   7.526
  160SAPE   H6X17962   4.089   4.460   7.551
  160SAPE   H6Y17963   3.910   4.472   7.498
  160SAPE   C3717964   3.979   4.612   7.652
  160SAPE   H7X17965   3.898   4.685   7.632
  160SAPE   H7Y17966   4.072   4.670   7.665
  160SAPE   C3817967   3.949   4.528   7.776
  160SAPE   H8X17968   4.033   4.458   7.795
  160SAPE   H8Y17969   3.856   4.467   7.773
  160SAPE   C3917970   3.932   4.617   7.897
  160SAPE   H9X17971   3.863   4.575   7.973
  160SAPE   H9Y17972   3.882   4.711   7.864
  160SAPE  C31017973   4.070   4.643   7.964
  160SAPE  H10X17974   4.149   4.686   7.898
  160SAPE  H10Y17975   4.102   4.551   8.017
  160SAPE  C31117976   4.041   4.744   8.074
  160SAPE  H11X17977   3.965   4.702   8.144
  160SAPE  H11Y17978   4.011   4.842   8.032
  160SAPE  C31217979   4.162   4.771   8.161
  160SAPE  H12X17980   4.261   4.787   8.114
  160SAPE  H12Y17981   4.176   4.679   8.221
  160SAPE  C31317982   4.135   4.881   8.258
  160SAPE  H13X17983   4.044   4.847   8.313
  160SAPE  H13Y17984   4.119   4.970   8.195
  160SAPE  C31417985   4.244   4.889   8.368
  160SAPE  H14X17986   4.340   4.914   8.317
  160SAPE  H14Y17987   4.269   4.792   8.416
  160SAPE  C31517988   4.213   4.989   8.479
  160SAPE  H15X17989   4.104   4.982   8.499
  160SAPE  H15Y17990   4.230   5.095   8.451
  160SAPE  C31617991   4.290   4.955   8.604
  160SAPE  H16X17992   4.388   5.001   8.581
  160SAPE  H16Y17993   4.307   4.845   8.611
  160SAPE  C31717994   4.236   5.010   8.731
  160SAPE  H17X17995   4.129   4.980   8.734
  160SAPE  H17Y17996   4.230   5.121   8.725
  160SAPE  C31817997   4.298   4.960   8.865
  160SAPE  H18X17998   4.253   5.014   8.950
  160SAPE  H18Y17999   4.409   4.968   8.870
  160SAPE  H18Z18000   4.273   4.852   8.873
  161SAPE     N18001   6.237   3.257   6.305
  161SAPE   HN118002   6.211   3.283   6.402
  161SAPE   HN218003   6.331   3.297   6.285
  161SAPE   HN318004   6.166   3.287   6.235
  161SAPE   C1218005   6.258   3.109   6.302
  161SAPE  H12A18006   6.291   3.080   6.404
  161SAPE  H12B18007   6.352   3.086   6.247
  161SAPE   C1118008   6.132   3.028   6.268
  161SAPE  H11A18009   6.101   3.061   6.167
  161SAPE  H11B18010   6.054   3.067   6.337
  161SAPE     P18011   6.038   2.790   6.311
  161SAPE   O1318012   5.934   2.803   6.206
  161SAPE   O1418013   6.098   2.654   6.341
  161SAPE   O1218014   6.154   2.890   6.274
  161SAPE   O1118015   5.977   2.841   6.443
  161SAPE    C118016   6.046   2.833   6.569
  161SAPE    HA18017   6.156   2.836   6.553
  161SAPE    HB18018   6.025   2.923   6.629
  161SAPE    C218019   6.020   2.699   6.642
  161SAPE    HS18020   6.034   2.607   6.581
  161SAPE   O2118021   5.881   2.709   6.690
  161SAPE   C2118022   5.789   2.679   6.602
  161SAPE   O2218023   5.802   2.616   6.500
  161SAPE   C2218024   5.652   2.742   6.641
  161SAPE   H2R18025   5.671   2.806   6.730
  161SAPE   H2S18026   5.636   2.822   6.566
  161SAPE    C318027   6.110   2.687   6.764
  161SAPE    HX18028   6.111   2.775   6.831
  161SAPE    HY18029   6.211   2.688   6.718
  161SAPE   O3118030   6.080   2.565   6.841
  161SAPE   C3118031   6.186   2.510   6.891
  161SAPE   O3218032   6.297   2.552   6.893
  161SAPE   C3218033   6.139   2.385   6.972
  161SAPE   H2X18034   6.092   2.306   6.910
  161SAPE   H2Y18035   6.063   2.419   7.046
  161SAPE   C2318036   5.538   2.641   6.639
  161SAPE   H3R18037   5.536   2.593   6.539
  161SAPE   H3S18038   5.442   2.695   6.653
  161SAPE   C2418039   5.544   2.525   6.738
  161SAPE   H4R18040   5.640   2.473   6.719
  161SAPE   H4S18041   5.467   2.457   6.697
  161SAPE   C2518042   5.519   2.565   6.886
  161SAPE   H5R18043   5.417   2.599   6.910
  161SAPE   C2618044   5.608   2.562   6.989
  161SAPE   H6R18045   5.568   2.583   7.089
  161SAPE   C2718046   5.756   2.536   6.987
  161SAPE   H7R18047   5.802   2.551   6.886
  161SAPE   H7S18048   5.788   2.433   7.012
  161SAPE   C2818049   5.837   2.625   7.072
  161SAPE   H8R18050   5.863   2.717   7.018
  161SAPE   C2918051   5.895   2.595   7.186
  161SAPE   H9R18052   5.960   2.674   7.227
  161SAPE  C21018053   5.883   2.457   7.243
  161SAPE  H10R18054   5.974   2.444   7.305
  161SAPE  H10S18055   5.902   2.377   7.169
  161SAPE  C21118056   5.749   2.434   7.316
  161SAPE  H11R18057   5.658   2.440   7.254
  161SAPE  C21218058   5.750   2.402   7.449
  161SAPE  H12R18059   5.653   2.377   7.496
  161SAPE  C21318060   5.858   2.378   7.539
  161SAPE  H13R18061   5.827   2.433   7.631
  161SAPE  H13S18062   5.954   2.422   7.504
  161SAPE  C21418063   5.887   2.234   7.559
  161SAPE  H14R18064   5.880   2.167   7.472
  161SAPE  C21518065   5.926   2.179   7.679
  161SAPE  H15R18066   5.933   2.070   7.696
  161SAPE  C21618067   5.934   2.245   7.812
  161SAPE  H16R18068   5.837   2.268   7.861
  161SAPE  H16S18069   5.981   2.345   7.800
  161SAPE  C21718070   6.024   2.162   7.895
  161SAPE  H17R18071   6.122   2.160   7.843
  161SAPE  H17S18072   5.997   2.055   7.887
  161SAPE  C21818073   6.045   2.218   8.039
  161SAPE  H18R18074   5.946   2.227   8.090
  161SAPE  H18S18075   6.099   2.312   8.016
  161SAPE  C21918076   6.120   2.122   8.129
  161SAPE  H19R18077   6.154   2.183   8.216
  161SAPE  H19S18078   6.212   2.090   8.074
  161SAPE  C22018079   6.028   2.011   8.176
  161SAPE  H20R18080   5.990   1.945   8.095
  161SAPE  H20S18081   5.937   2.057   8.221
  161SAPE  H20T18082   6.079   1.961   8.261
  161SAPE   C3318083   6.260   2.311   7.047
  161SAPE   H3X18084   6.354   2.294   6.990
  161SAPE   H3Y18085   6.222   2.211   7.076
  161SAPE   C3418086   6.305   2.390   7.168
  161SAPE   H4X18087   6.211   2.397   7.227
  161SAPE   H4Y18088   6.326   2.494   7.136
  161SAPE   C3518089   6.424   2.341   7.255
  161SAPE   H5X18090   6.518   2.384   7.214
  161SAPE   H5Y18091   6.426   2.230   7.251
  161SAPE   C3618092   6.411   2.383   7.402
  161SAPE   H6X18093   6.412   2.493   7.417
  161SAPE   H6Y18094   6.514   2.372   7.443
  161SAPE   C3718095   6.303   2.308   7.486
  161SAPE   H7X18096   6.314   2.197   7.481
  161SAPE   H7Y18097   6.200   2.324   7.449
  161SAPE   C3818098   6.310   2.325   7.641
  161SAPE   H8X18099   6.249   2.244   7.688
  161SAPE   H8Y18100   6.263   2.423   7.665
  161SAPE   C3918101   6.446   2.320   7.718
  161SAPE   H9X18102   6.524   2.392   7.686
  161SAPE   H9Y18103   6.487   2.217   7.709
  161SAPE  C31018104   6.420   2.330   7.873
  161SAPE  H10X18105   6.365   2.236   7.896
  161SAPE  H10Y18106   6.355   2.417   7.895
  161SAPE  C31118107   6.544   2.325   7.960
  161SAPE  H11X18108   6.617   2.390   7.907
  161SAPE  H11Y18109   6.585   2.223   7.951
  161SAPE  C31218110   6.516   2.383   8.100
  161SAPE  H12X18111   6.532   2.493   8.093
  161SAPE  H12Y18112   6.590   2.346   8.174
  161SAPE  C31318113   6.375   2.366   8.156
  161SAPE  H13X18114   6.347   2.259   8.139
  161SAPE  H13Y18115   6.307   2.434   8.101
  161SAPE  C31418116   6.357   2.386   8.305
  161SAPE  H14X18117   6.249   2.395   8.331
  161SAPE  H14Y18118   6.407   2.482   8.329
  161SAPE  C31518119   6.432   2.272   8.376
  161SAPE  H15X18120   6.540   2.280   8.354
  161SAPE  H15Y18121   6.411   2.169   8.340
  161SAPE  C31618122   6.406   2.273   8.524
  161SAPE  H16X18123   6.411   2.378   8.559
  161SAPE  H16Y18124   6.495   2.239   8.581
  161SAPE  C31718125   6.272   2.209   8.563
  161SAPE  H17X18126   6.285   2.101   8.541
  161SAPE  H17Y18127   6.190   2.248   8.499
  161SAPE  C31818128   6.220   2.225   8.704
  161SAPE  H18X18129   6.115   2.189   8.711
  161SAPE  H18Y18130   6.221   2.330   8.742
  161SAPE  H18Z18131   6.294   2.167   8.764
  162SAPE     N18132   5.224   5.033   6.300
  162SAPE   HN118133   5.156   4.955   6.309
  162SAPE   HN218134   5.217   5.062   6.200
  162SAPE   HN318135   5.316   4.988   6.317
  162SAPE   C1218136   5.190   5.161   6.382
  162SAPE  H12A18137   5.259   5.238   6.341
  162SAPE  H12B18138   5.191   5.142   6.491
  162SAPE   C1118139   5.049   5.220   6.352
  162SAPE  H11A18140   5.021   5.320   6.392
  162SAPE  H11B18141   4.975   5.146   6.390
  162SAPE     P18142   4.883   5.254   6.155
  162SAPE   O1318143   4.889   5.334   6.036
  162SAPE   O1418144   4.816   5.123   6.152
  162SAPE   O1218145   5.038   5.235   6.208
  162SAPE   O1118146   4.814   5.338   6.267
  162SAPE    C118147   4.846   5.471   6.271
  162SAPE    HA18148   4.954   5.498   6.263
  162SAPE    HB18149   4.794   5.518   6.184
  162SAPE    C218150   4.789   5.538   6.397
  162SAPE    HS18151   4.799   5.649   6.392
  162SAPE   O2118152   4.854   5.494   6.512
  162SAPE   C2118153   4.980   5.538   6.544
  162SAPE   O2218154   5.040   5.619   6.476
  162SAPE   C2218155   5.034   5.457   6.656
  162SAPE   H2R18156   5.034   5.353   6.619
  162SAPE   H2S18157   5.135   5.500   6.673
  162SAPE    C318158   4.635   5.507   6.397
  162SAPE    HX18159   4.631   5.397   6.404
  162SAPE    HY18160   4.591   5.536   6.299
  162SAPE   O3118161   4.572   5.562   6.514
  162SAPE   C3118162   4.578   5.493   6.626
  162SAPE   O3218163   4.626   5.379   6.628
  162SAPE   C3218164   4.494   5.558   6.733
  162SAPE   H2X18165   4.403   5.601   6.686
  162SAPE   H2Y18166   4.549   5.640   6.785
  162SAPE   C2318167   4.948   5.466   6.785
  162SAPE   H3R18168   4.858   5.400   6.785
  162SAPE   H3S18169   4.906   5.568   6.796
  162SAPE   C2418170   5.038   5.411   6.896
  162SAPE   H4R18171   5.131   5.471   6.908
  162SAPE   H4S18172   5.068   5.312   6.855
  162SAPE   C2518173   4.946   5.393   7.022
  162SAPE   H5R18174   4.861   5.326   7.001
  162SAPE   C2618175   4.965   5.448   7.148
  162SAPE   H6R18176   4.895   5.424   7.230
  162SAPE   C2718177   5.084   5.534   7.182
  162SAPE   H7R18178   5.043   5.607   7.255
  162SAPE   H7S18179   5.131   5.590   7.098
  162SAPE   C2818180   5.187   5.456   7.258
  162SAPE   H8R18181   5.237   5.389   7.187
  162SAPE   C2918182   5.207   5.439   7.391
  162SAPE   H9R18183   5.285   5.370   7.428
  162SAPE  C21018184   5.125   5.503   7.500
  162SAPE  H10R18185   5.031   5.546   7.462
  162SAPE  H10S18186   5.175   5.598   7.529
  162SAPE  C21118187   5.112   5.422   7.627
  162SAPE  H11R18188   5.038   5.342   7.612
  162SAPE  C21218189   5.161   5.452   7.748
  162SAPE  H12R18190   5.136   5.386   7.833
  162SAPE  C21318191   5.239   5.578   7.790
  162SAPE  H13R18192   5.177   5.644   7.854
  162SAPE  H13S18193   5.274   5.648   7.711
  162SAPE  C21418194   5.364   5.526   7.860
  162SAPE  H14R18195   5.412   5.440   7.812
  162SAPE  C21518196   5.414   5.577   7.975
  162SAPE  H15R18197   5.511   5.544   8.014
  162SAPE  C21618198   5.336   5.668   8.065
  162SAPE  H16R18199   5.226   5.663   8.047
  162SAPE  H16S18200   5.366   5.774   8.051
  162SAPE  C21718201   5.355   5.618   8.212
  162SAPE  H17R18202   5.306   5.701   8.267
  162SAPE  H17S18203   5.464   5.636   8.223
  162SAPE  C21818204   5.312   5.475   8.239
  162SAPE  H18R18205   5.380   5.405   8.187
  162SAPE  H18S18206   5.210   5.458   8.198
  162SAPE  C21918207   5.314   5.451   8.392
  162SAPE  H19R18208   5.232   5.387   8.433
  162SAPE  H19S18209   5.311   5.551   8.439
  162SAPE  C22018210   5.440   5.390   8.444
  162SAPE  H20R18211   5.453   5.404   8.554
  162SAPE  H20S18212   5.536   5.423   8.399
  162SAPE  H20T18213   5.434   5.281   8.424
  162SAPE   C3318214   4.436   5.470   6.845
  162SAPE   H3X18215   4.520   5.415   6.893
  162SAPE   H3Y18216   4.388   5.385   6.791
  162SAPE   C3418217   4.337   5.542   6.931
  162SAPE   H4X18218   4.257   5.573   6.862
  162SAPE   H4Y18219   4.387   5.633   6.972
  162SAPE   C3518220   4.271   5.448   7.035
  162SAPE   H5X18221   4.230   5.361   6.979
  162SAPE   H5Y18222   4.183   5.504   7.074
  162SAPE   C3618223   4.367   5.403   7.147
  162SAPE   H6X18224   4.454   5.354   7.098
  162SAPE   H6Y18225   4.331   5.326   7.219
  162SAPE   C3718226   4.430   5.514   7.238
  162SAPE   H7X18227   4.362   5.543   7.322
  162SAPE   H7Y18228   4.453   5.598   7.169
  162SAPE   C3818229   4.552   5.484   7.332
  162SAPE   H8X18230   4.572   5.560   7.410
  162SAPE   H8Y18231   4.638   5.465   7.264
  162SAPE   C3918232   4.524   5.361   7.418
  162SAPE   H9X18233   4.512   5.272   7.352
  162SAPE   H9Y18234   4.425   5.369   7.468
  162SAPE  C31018235   4.637   5.344   7.515
  162SAPE  H10X18236   4.637   5.412   7.602
  162SAPE  H10Y18237   4.734   5.378   7.471
  162SAPE  C31118238   4.653   5.197   7.573
  162SAPE  H11X18239   4.695   5.136   7.491
  162SAPE  H11Y18240   4.551   5.155   7.587
  162SAPE  C31218241   4.741   5.192   7.699
  162SAPE  H12X18242   4.701   5.250   7.786
  162SAPE  H12Y18243   4.840   5.237   7.677
  162SAPE  C31318244   4.769   5.044   7.744
  162SAPE  H13X18245   4.805   4.988   7.656
  162SAPE  H13Y18246   4.679   4.984   7.771
  162SAPE  C31418247   4.869   5.042   7.869
  162SAPE  H14X18248   4.886   4.946   7.923
  162SAPE  H14Y18249   4.823   5.113   7.940
  162SAPE  C31518250   5.015   5.099   7.835
  162SAPE  H15X18251   5.013   5.209   7.819
  162SAPE  H15Y18252   5.063   5.066   7.740
  162SAPE  C31618253   5.116   5.066   7.945
  162SAPE  H16X18254   5.221   5.090   7.915
  162SAPE  H16Y18255   5.119   4.956   7.959
  162SAPE  C31718256   5.076   5.149   8.070
  162SAPE  H17X18257   4.983   5.100   8.105
  162SAPE  H17Y18258   5.068   5.257   8.046
  162SAPE  C31818259   5.178   5.141   8.176
  162SAPE  H18X18260   5.285   5.152   8.146
  162SAPE  H18Y18261   5.166   5.046   8.233
  162SAPE  H18Z18262   5.159   5.225   8.246
  163SAPE     N18263   3.474   3.301   6.425
  163SAPE   HN118264   3.385   3.355   6.421
  163SAPE   HN218265   3.546   3.357   6.374
  163SAPE   HN318266   3.458   3.213   6.372
  163SAPE   C1218267   3.515   3.284   6.566
  163SAPE  H12A18268   3.625   3.270   6.563
  163SAPE  H12B18269   3.465   3.200   6.619
  163SAPE   C1118270   3.481   3.401   6.653
  163SAPE  H11A18271   3.541   3.378   6.744
  163SAPE  H11B18272   3.373   3.408   6.676
  163SAPE     P18273   3.643   3.602   6.655
  163SAPE   O1318274   3.759   3.509   6.662
  163SAPE   O1418275   3.666   3.735   6.593
  163SAPE   O1218276   3.516   3.531   6.595
  163SAPE   O1118277   3.599   3.635   6.805
  163SAPE    C118278   3.516   3.747   6.830
  163SAPE    HA18279   3.578   3.833   6.866
  163SAPE    HB18280   3.450   3.789   6.751
  163SAPE    C218281   3.423   3.700   6.954
  163SAPE    HS18282   3.349   3.781   6.970
  163SAPE   O2118283   3.501   3.664   7.071
  163SAPE   C2118284   3.554   3.754   7.146
  163SAPE   O2218285   3.525   3.871   7.133
  163SAPE   C2218286   3.632   3.687   7.262
  163SAPE   H2R18287   3.566   3.613   7.312
  163SAPE   H2S18288   3.720   3.632   7.224
  163SAPE    C318289   3.338   3.581   6.920
  163SAPE    HX18290   3.395   3.486   6.918
  163SAPE    HY18291   3.290   3.587   6.820
  163SAPE   O3118292   3.226   3.579   7.010
  163SAPE   C3118293   3.171   3.460   7.034
  163SAPE   O3218294   3.192   3.358   6.971
  163SAPE   C3218295   3.088   3.473   7.157
  163SAPE   H2X18296   3.007   3.398   7.144
  163SAPE   H2Y18297   3.043   3.574   7.169
  163SAPE   C2318298   3.685   3.786   7.372
  163SAPE   H3R18299   3.612   3.867   7.392
  163SAPE   H3S18300   3.772   3.845   7.336
  163SAPE   C2418301   3.739   3.718   7.496
  163SAPE   H4R18302   3.842   3.757   7.510
  163SAPE   H4S18303   3.733   3.612   7.463
  163SAPE   C2518304   3.663   3.745   7.621
  163SAPE   H5R18305   3.556   3.761   7.603
  163SAPE   C2618306   3.704   3.764   7.749
  163SAPE   H6R18307   3.631   3.795   7.825
  163SAPE   C2718308   3.852   3.772   7.788
  163SAPE   H7R18309   3.916   3.825   7.715
  163SAPE   H7S18310   3.890   3.669   7.807
  163SAPE   C2818311   3.871   3.848   7.922
  163SAPE   H8R18312   3.879   3.958   7.926
  163SAPE   C2918313   3.879   3.782   8.046
  163SAPE   H9R18314   3.851   3.837   8.137
  163SAPE  C21018315   3.861   3.631   8.066
  163SAPE  H10R18316   3.811   3.572   7.986
  163SAPE  H10S18317   3.786   3.610   8.145
  163SAPE  C21118318   3.994   3.569   8.103
  163SAPE  H11R18319   4.061   3.550   8.017
  163SAPE  C21218320   4.029   3.521   8.223
  163SAPE  H12R18321   4.124   3.467   8.220
  163SAPE  C21318322   3.944   3.528   8.344
  163SAPE  H13R18323   3.842   3.492   8.320
  163SAPE  H13S18324   3.926   3.632   8.379
  163SAPE  C21418325   3.983   3.451   8.465
  163SAPE  H14R18326   3.923   3.368   8.505
  163SAPE  C21518327   4.105   3.477   8.526
  163SAPE  H15R18328   4.141   3.412   8.607
  163SAPE  C21618329   4.207   3.579   8.501
  163SAPE  H16R18330   4.213   3.608   8.394
  163SAPE  H16S18331   4.310   3.538   8.509
  163SAPE  C21718332   4.202   3.706   8.587
  163SAPE  H17R18333   4.202   3.681   8.695
  163SAPE  H17S18334   4.112   3.764   8.559
  163SAPE  C21818335   4.324   3.803   8.573
  163SAPE  H18R18336   4.336   3.836   8.468
  163SAPE  H18S18337   4.417   3.748   8.601
  163SAPE  C21918338   4.318   3.934   8.653
  163SAPE  H19R18339   4.416   3.985   8.645
  163SAPE  H19S18340   4.315   3.908   8.761
  163SAPE  C22018341   4.199   4.028   8.615
  163SAPE  H20R18342   4.113   3.968   8.578
  163SAPE  H20S18343   4.227   4.106   8.541
  163SAPE  H20T18344   4.177   4.081   8.710
  163SAPE   C3318345   3.161   3.452   7.290
  163SAPE   H3X18346   3.252   3.516   7.287
  163SAPE   H3Y18347   3.194   3.346   7.289
  163SAPE   C3418348   3.075   3.491   7.403
  163SAPE   H4X18349   2.989   3.421   7.391
  163SAPE   H4Y18350   3.047   3.598   7.393
  163SAPE   C3518351   3.137   3.459   7.540
  163SAPE   H5X18352   3.222   3.522   7.573
  163SAPE   H5Y18353   3.167   3.352   7.531
  163SAPE   C3618354   3.042   3.464   7.654
  163SAPE   H6X18355   2.952   3.405   7.627
  163SAPE   H6Y18356   3.010   3.570   7.655
  163SAPE   C3718357   3.105   3.430   7.785
  163SAPE   H7X18358   3.171   3.514   7.816
  163SAPE   H7Y18359   3.162   3.335   7.788
  163SAPE   C3818360   2.996   3.413   7.891
  163SAPE   H8X18361   2.931   3.336   7.844
  163SAPE   H8Y18362   2.941   3.510   7.890
  163SAPE   C3918363   3.053   3.368   8.023
  163SAPE   H9X18364   3.134   3.438   8.049
  163SAPE   H9Y18365   3.111   3.275   8.004
  163SAPE  C31018366   2.957   3.335   8.139
  163SAPE  H10X18367   3.014   3.259   8.196
  163SAPE  H10Y18368   2.864   3.289   8.100
  163SAPE  C31118369   2.926   3.445   8.237
  163SAPE  H11X18370   2.822   3.426   8.272
  163SAPE  H11Y18371   2.929   3.550   8.201
  163SAPE  C31218372   3.014   3.456   8.357
  163SAPE  H12X18373   2.966   3.543   8.407
  163SAPE  H12Y18374   3.117   3.485   8.329
  163SAPE  C31318375   3.014   3.334   8.457
  163SAPE  H13X18376   3.113   3.285   8.441
  163SAPE  H13Y18377   2.928   3.264   8.444
  163SAPE  C31418378   3.022   3.382   8.604
  163SAPE  H14X18379   2.939   3.456   8.614
  163SAPE  H14Y18380   3.117   3.439   8.616
  163SAPE  C31518381   3.021   3.282   8.716
  163SAPE  H15X18382   2.944   3.203   8.703
  163SAPE  H15Y18383   2.995   3.333   8.811
  163SAPE  C31618384   3.161   3.219   8.728
  163SAPE  H16X18385   3.226   3.302   8.765
  163SAPE  H16Y18386   3.190   3.173   8.631
  163SAPE  C31718387   3.166   3.097   8.825
  163SAPE  H17X18388   3.093   3.020   8.793
  163SAPE  H17Y18389   3.129   3.134   8.923
  163SAPE  C31818390   3.306   3.047   8.843
  163SAPE  H18X18391   3.377   3.130   8.862
  163SAPE  H18Y18392   3.326   3.007   8.742
  163SAPE  H18Z18393   3.317   2.965   8.917
  164SAPE     N18394   6.054   0.931   5.609
  164SAPE   HN118395   6.005   0.974   5.690
  164SAPE   HN218396   6.155   0.953   5.609
  164SAPE   HN318397   6.019   0.963   5.517
  164SAPE   C1218398   6.046   0.784   5.628
  164SAPE  H12A18399   6.109   0.737   5.550
  164SAPE  H12B18400   5.943   0.747   5.609
  164SAPE   C1118401   6.093   0.735   5.759
  164SAPE  H11A18402   6.090   0.625   5.770
  164SAPE  H11B18403   6.035   0.773   5.846
  164SAPE     P18404   6.312   0.740   5.905
  164SAPE   O1318405   6.399   0.625   5.861
  164SAPE   O1418406   6.388   0.858   5.959
  164SAPE   O1218407   6.222   0.776   5.782
  164SAPE   O1118408   6.211   0.679   6.018
  164SAPE    C118409   6.118   0.761   6.088
  164SAPE    HA18410   6.114   0.865   6.048
  164SAPE    HB18411   6.013   0.725   6.081
  164SAPE    C218412   6.145   0.772   6.239
  164SAPE    HS18413   6.236   0.829   6.266
  164SAPE   O2118414   6.152   0.640   6.291
  164SAPE   C2118415   6.272   0.593   6.325
  164SAPE   O2218416   6.378   0.644   6.300
  164SAPE   C2218417   6.262   0.464   6.413
  164SAPE   H2R18418   6.157   0.456   6.449
  164SAPE   H2S18419   6.289   0.379   6.348
  164SAPE    C318420   6.025   0.841   6.310
  164SAPE    HX18421   5.933   0.786   6.281
  164SAPE    HY18422   6.010   0.945   6.275
  164SAPE   O3118423   6.039   0.841   6.452
  164SAPE   C3118424   6.127   0.929   6.495
  164SAPE   O3218425   6.196   1.002   6.426
  164SAPE   C3218426   6.124   0.926   6.646
  164SAPE   H2X18427   6.192   1.001   6.691
  164SAPE   H2Y18428   6.158   0.825   6.676
  164SAPE   C2318429   6.360   0.457   6.538
  164SAPE   H3R18430   6.466   0.472   6.506
  164SAPE   H3S18431   6.362   0.358   6.587
  164SAPE   C2418432   6.308   0.568   6.635
  164SAPE   H4R18433   6.324   0.665   6.582
  164SAPE   H4S18434   6.372   0.570   6.726
  164SAPE   C2518435   6.163   0.558   6.683
  164SAPE   H5R18436   6.101   0.628   6.624
  164SAPE   C2618437   6.109   0.480   6.784
  164SAPE   H6R18438   6.006   0.504   6.815
  164SAPE   C2718439   6.188   0.382   6.875
  164SAPE   H7R18440   6.261   0.329   6.809
  164SAPE   H7S18441   6.114   0.303   6.899
  164SAPE   C2818442   6.261   0.453   6.984
  164SAPE   H8R18443   6.190   0.508   7.048
  164SAPE   C2918444   6.388   0.461   7.006
  164SAPE   H9R18445   6.424   0.525   7.089
  164SAPE  C21018446   6.493   0.413   6.906
  164SAPE  H10R18447   6.536   0.504   6.859
  164SAPE  H10S18448   6.452   0.353   6.822
  164SAPE  C21118449   6.609   0.345   6.966
  164SAPE  H11R18450   6.579   0.256   7.022
  164SAPE  C21218451   6.735   0.394   6.979
  164SAPE  H12R18452   6.811   0.328   7.023
  164SAPE  C21318453   6.792   0.520   6.914
  164SAPE  H13R18454   6.808   0.602   6.987
  164SAPE  H13S18455   6.716   0.585   6.866
  164SAPE  C21418456   6.919   0.497   6.839
  164SAPE  H14R18457   6.902   0.472   6.733
  164SAPE  C21518458   7.053   0.497   6.878
  164SAPE  H15R18459   7.137   0.461   6.816
  164SAPE  C21618460   7.096   0.529   7.019
  164SAPE  H16R18461   7.150   0.438   7.053
  164SAPE  H16S18462   7.013   0.530   7.094
  164SAPE  C21718463   7.178   0.660   7.033
  164SAPE  H17R18464   7.268   0.647   6.968
  164SAPE  H17S18465   7.192   0.662   7.143
  164SAPE  C21818466   7.100   0.789   6.996
  164SAPE  H18R18467   6.999   0.785   7.041
  164SAPE  H18S18468   7.084   0.792   6.886
  164SAPE  C21918469   7.178   0.910   7.042
  164SAPE  H19R18470   7.275   0.904   6.988
  164SAPE  H19S18471   7.189   0.899   7.152
  164SAPE  C22018472   7.103   1.039   7.019
  164SAPE  H20R18473   7.002   1.021   7.062
  164SAPE  H20S18474   7.088   1.074   6.915
  164SAPE  H20T18475   7.154   1.114   7.084
  164SAPE   C3318476   5.983   0.944   6.711
  164SAPE   H3X18477   5.915   0.870   6.663
  164SAPE   H3Y18478   5.931   1.042   6.703
  164SAPE   C3418479   5.978   0.923   6.866
  164SAPE   H4X18480   5.877   0.940   6.909
  164SAPE   H4Y18481   6.062   0.973   6.919
  164SAPE   C3518482   5.977   0.775   6.905
  164SAPE   H5X18483   6.079   0.741   6.875
  164SAPE   H5Y18484   5.906   0.730   6.832
  164SAPE   C3618485   5.971   0.725   7.051
  164SAPE   H6X18486   5.975   0.615   7.060
  164SAPE   H6Y18487   5.880   0.766   7.101
  164SAPE   C3718488   6.096   0.762   7.130
  164SAPE   H7X18489   6.102   0.870   7.154
  164SAPE   H7Y18490   6.183   0.742   7.062
  164SAPE   C3818491   6.105   0.686   7.258
  164SAPE   H8X18492   6.103   0.575   7.247
  164SAPE   H8Y18493   6.017   0.715   7.320
  164SAPE   C3918494   6.239   0.706   7.337
  164SAPE   H9X18495   6.266   0.813   7.352
  164SAPE   H9Y18496   6.328   0.663   7.286
  164SAPE  C31018497   6.230   0.644   7.479
  164SAPE  H10X18498   6.333   0.612   7.505
  164SAPE  H10Y18499   6.180   0.545   7.487
  164SAPE  C31118500   6.168   0.741   7.577
  164SAPE  H11X18501   6.087   0.790   7.518
  164SAPE  H11Y18502   6.246   0.817   7.600
  164SAPE  C31218503   6.097   0.696   7.699
  164SAPE  H12X18504   6.011   0.636   7.662
  164SAPE  H12Y18505   6.057   0.786   7.751
  164SAPE  C31318506   6.183   0.616   7.798
  164SAPE  H13X18507   6.286   0.657   7.789
  164SAPE  H13Y18508   6.196   0.511   7.764
  164SAPE  C31418509   6.136   0.616   7.942
  164SAPE  H14X18510   6.039   0.562   7.951
  164SAPE  H14Y18511   6.126   0.723   7.971
  164SAPE  C31518512   6.250   0.556   8.026
  164SAPE  H15X18513   6.333   0.626   8.002
  164SAPE  H15Y18514   6.273   0.452   7.994
  164SAPE  C31618515   6.227   0.529   8.176
  164SAPE  H16X18516   6.136   0.465   8.170
  164SAPE  H16Y18517   6.226   0.631   8.219
  164SAPE  C31718518   6.336   0.439   8.237
  164SAPE  H17X18519   6.430   0.498   8.247
  164SAPE  H17Y18520   6.355   0.343   8.186
  164SAPE  C31818521   6.306   0.390   8.380
  164SAPE  H18X18522   6.237   0.303   8.370
  164SAPE  H18Y18523   6.282   0.476   8.445
  164SAPE  H18Z18524   6.402   0.348   8.419
  165SAPE     N18525   6.042   3.724   6.364
  165SAPE   HN118526   6.043   3.644   6.430
  165SAPE   HN218527   6.099   3.802   6.401
  165SAPE   HN318528   5.949   3.771   6.369
  165SAPE   C1218529   6.072   3.671   6.225
  165SAPE  H12A18530   6.042   3.753   6.156
  165SAPE  H12B18531   6.007   3.582   6.207
  165SAPE   C1118532   6.222   3.642   6.209
  165SAPE  H11A18533   6.263   3.744   6.225
  165SAPE  H11B18534   6.245   3.619   6.102
  165SAPE     P18535   6.432   3.537   6.297
  165SAPE   O1318536   6.467   3.394   6.287
  165SAPE   O1418537   6.495   3.622   6.189
  165SAPE   O1218538   6.270   3.545   6.302
  165SAPE   O1118539   6.475   3.586   6.441
  165SAPE    C118540   6.369   3.585   6.540
  165SAPE    HA18541   6.280   3.643   6.509
  165SAPE    HB18542   6.335   3.483   6.566
  165SAPE    C218543   6.416   3.661   6.665
  165SAPE    HS18544   6.413   3.768   6.636
  165SAPE   O2118545   6.547   3.613   6.710
  165SAPE   C2118546   6.602   3.695   6.798
  165SAPE   O2218547   6.569   3.815   6.818
  165SAPE   C2218548   6.728   3.626   6.849
  165SAPE   H2R18549   6.754   3.534   6.792
  165SAPE   H2S18550   6.809   3.699   6.829
  165SAPE    C318551   6.305   3.646   6.776
  165SAPE    HX18552   6.211   3.669   6.722
  165SAPE    HY18553   6.323   3.714   6.862
  165SAPE   O3118554   6.301   3.505   6.824
  165SAPE   C3118555   6.216   3.483   6.927
  165SAPE   O3218556   6.140   3.567   6.977
  165SAPE   C3218557   6.245   3.353   6.989
  165SAPE   H2X18558   6.339   3.379   7.041
  165SAPE   H2Y18559   6.255   3.282   6.904
  165SAPE   C2318560   6.719   3.603   6.995
  165SAPE   H3R18561   6.718   3.700   7.049
  165SAPE   H3S18562   6.819   3.562   7.020
  165SAPE   C2418563   6.613   3.498   7.041
  165SAPE   H4R18564   6.516   3.510   6.987
  165SAPE   H4S18565   6.598   3.523   7.148
  165SAPE   C2518566   6.665   3.364   7.015
  165SAPE   H5R18567   6.692   3.343   6.910
  165SAPE   C2618568   6.677   3.264   7.103
  165SAPE   H6R18569   6.722   3.173   7.061
  165SAPE   C2718570   6.633   3.262   7.248
  165SAPE   H7R18571   6.596   3.162   7.278
  165SAPE   H7S18572   6.548   3.333   7.253
  165SAPE   C2818573   6.742   3.309   7.338
  165SAPE   H8R18574   6.850   3.303   7.318
  165SAPE   C2918575   6.703   3.358   7.457
  165SAPE   H9R18576   6.786   3.407   7.511
  165SAPE  C21018577   6.571   3.377   7.523
  165SAPE  H10R18578   6.498   3.415   7.448
  165SAPE  H10S18579   6.571   3.462   7.593
  165SAPE  C21118580   6.512   3.251   7.580
  165SAPE  H11R18581   6.465   3.183   7.507
  165SAPE  C21218582   6.515   3.220   7.711
  165SAPE  H12R18583   6.456   3.135   7.746
  165SAPE  C21318584   6.588   3.292   7.829
  165SAPE  H13R18585   6.682   3.336   7.789
  165SAPE  H13S18586   6.621   3.210   7.897
  165SAPE  C21418587   6.499   3.393   7.898
  165SAPE  H14R18588   6.463   3.479   7.839
  165SAPE  C21518589   6.448   3.381   8.020
  165SAPE  H15R18590   6.393   3.464   8.067
  165SAPE  C21618591   6.485   3.272   8.123
  165SAPE  H16R18592   6.570   3.207   8.094
  165SAPE  H16S18593   6.394   3.211   8.140
  165SAPE  C21718594   6.538   3.354   8.244
  165SAPE  H17R18595   6.460   3.407   8.302
  165SAPE  H17S18596   6.621   3.425   8.222
  165SAPE  C21818597   6.592   3.272   8.363
  165SAPE  H18R18598   6.646   3.187   8.315
  165SAPE  H18S18599   6.505   3.210   8.392
  165SAPE  C21918600   6.656   3.355   8.473
  165SAPE  H19R18601   6.662   3.303   8.571
  165SAPE  H19S18602   6.606   3.454   8.479
  165SAPE  C22018603   6.800   3.379   8.443
  165SAPE  H20R18604   6.849   3.429   8.529
  165SAPE  H20S18605   6.823   3.439   8.352
  165SAPE  H20T18606   6.849   3.281   8.426
  165SAPE   C3318607   6.143   3.316   7.101
  165SAPE   H3X18608   6.161   3.207   7.104
  165SAPE   H3Y18609   6.040   3.331   7.063
  165SAPE   C3418610   6.153   3.388   7.239
  165SAPE   H4X18611   6.139   3.497   7.220
  165SAPE   H4Y18612   6.257   3.387   7.278
  165SAPE   C3518613   6.072   3.334   7.354
  165SAPE   H5X18614   6.109   3.230   7.372
  165SAPE   H5Y18615   5.967   3.336   7.318
  165SAPE   C3618616   6.093   3.408   7.489
  165SAPE   H6X18617   6.075   3.516   7.472
  165SAPE   H6Y18618   6.192   3.399   7.540
  165SAPE   C3718619   5.993   3.372   7.598
  165SAPE   H7X18620   5.892   3.361   7.552
  165SAPE   H7Y18621   5.997   3.458   7.668
  165SAPE   C3818622   6.033   3.245   7.669
  165SAPE   H8X18623   6.062   3.169   7.593
  165SAPE   H8Y18624   5.941   3.205   7.716
  165SAPE   C3918625   6.139   3.277   7.780
  165SAPE   H9X18626   6.123   3.378   7.824
  165SAPE   H9Y18627   6.234   3.277   7.723
  165SAPE  C31018628   6.147   3.176   7.896
  165SAPE  H10X18629   6.254   3.147   7.910
  165SAPE  H10Y18630   6.111   3.079   7.855
  165SAPE  C31118631   6.068   3.211   8.023
  165SAPE  H11X18632   5.962   3.224   7.993
  165SAPE  H11Y18633   6.105   3.308   8.061
  165SAPE  C31218634   6.083   3.111   8.131
  165SAPE  H12X18635   6.193   3.110   8.148
  165SAPE  H12Y18636   6.060   3.008   8.097
  165SAPE  C31318637   6.015   3.153   8.261
  165SAPE  H13X18638   5.908   3.171   8.238
  165SAPE  H13Y18639   6.068   3.245   8.293
  165SAPE  C31418640   6.033   3.060   8.386
  165SAPE  H14X18641   6.135   3.062   8.429
  165SAPE  H14Y18642   6.031   2.954   8.353
  165SAPE  C31518643   5.932   3.087   8.506
  165SAPE  H15X18644   5.973   3.047   8.602
  165SAPE  H15Y18645   5.836   3.037   8.482
  165SAPE  C31618646   5.909   3.231   8.529
  165SAPE  H16X18647   5.877   3.289   8.440
  165SAPE  H16Y18648   6.006   3.274   8.562
  165SAPE  C31718649   5.796   3.258   8.630
  165SAPE  H17X18650   5.815   3.360   8.670
  165SAPE  H17Y18651   5.803   3.195   8.722
  165SAPE  C31818652   5.653   3.246   8.582
  165SAPE  H18X18653   5.575   3.281   8.652
  165SAPE  H18Y18654   5.627   3.142   8.553
  165SAPE  H18Z18655   5.649   3.298   8.484
  166SAPE     N18656   5.478   6.577   5.625
  166SAPE   HN118657   5.487   6.479   5.658
  166SAPE   HN218658   5.443   6.582   5.527
  166SAPE   HN318659   5.562   6.633   5.648
  166SAPE   C1218660   5.364   6.641   5.711
  166SAPE  H12A18661   5.369   6.591   5.811
  166SAPE  H12B18662   5.266   6.623   5.663
  166SAPE   C1118663   5.357   6.793   5.744
  166SAPE  H11A18664   5.281   6.810   5.824
  166SAPE  H11B18665   5.328   6.849   5.652
  166SAPE     P18666   5.524   6.981   5.853
  166SAPE   O1318667   5.666   6.984   5.894
  166SAPE   O1418668   5.477   7.090   5.761
  166SAPE   O1218669   5.488   6.846   5.782
  166SAPE   O1118670   5.439   6.998   5.982
  166SAPE    C118671   5.418   6.894   6.074
  166SAPE    HA18672   5.309   6.870   6.072
  166SAPE    HB18673   5.484   6.809   6.045
  166SAPE    C218674   5.453   6.944   6.218
  166SAPE    HS18675   5.395   7.036   6.241
  166SAPE   O2118676   5.595   6.969   6.229
  166SAPE   C2118677   5.630   7.099   6.244
  166SAPE   O2218678   5.558   7.193   6.281
  166SAPE   C2218679   5.782   7.124   6.237
  166SAPE   H2R18680   5.803   7.078   6.138
  166SAPE   H2S18681   5.790   7.234   6.249
  166SAPE    C318682   5.408   6.830   6.319
  166SAPE    HX18683   5.406   6.726   6.279
  166SAPE    HY18684   5.301   6.855   6.336
  166SAPE   O3118685   5.460   6.839   6.456
  166SAPE   C3118686   5.564   6.760   6.471
  166SAPE   O3218687   5.611   6.684   6.385
  166SAPE   C3218688   5.611   6.772   6.618
  166SAPE   H2X18689   5.518   6.762   6.677
  166SAPE   H2Y18690   5.676   6.862   6.627
  166SAPE   C2318691   5.860   7.066   6.360
  166SAPE   H3R18692   5.965   7.097   6.345
  166SAPE   H3S18693   5.862   6.956   6.346
  166SAPE   C2418694   5.802   7.103   6.500
  166SAPE   H4R18695   5.857   7.045   6.577
  166SAPE   H4S18696   5.695   7.072   6.497
  166SAPE   C2518697   5.807   7.245   6.541
  166SAPE   H5R18698   5.828   7.314   6.458
  166SAPE   C2618699   5.746   7.306   6.653
  166SAPE   H6R18700   5.770   7.412   6.671
  166SAPE   C2718701   5.676   7.226   6.760
  166SAPE   H7R18702   5.639   7.130   6.719
  166SAPE   H7S18703   5.583   7.280   6.789
  166SAPE   C2818704   5.760   7.203   6.885
  166SAPE   H8R18705   5.849   7.141   6.868
  166SAPE   C2918706   5.738   7.256   7.009
  166SAPE   H9R18707   5.819   7.240   7.082
  166SAPE  C21018708   5.628   7.345   7.054
  166SAPE  H10R18709   5.552   7.355   6.973
  166SAPE  H10S18710   5.671   7.446   7.068
  166SAPE  C21118711   5.570   7.281   7.179
  166SAPE  H11R18712   5.504   7.195   7.158
  166SAPE  C21218713   5.580   7.325   7.307
  166SAPE  H12R18714   5.550   7.270   7.397
  166SAPE  C21318715   5.665   7.438   7.354
  166SAPE  H13R18716   5.596   7.519   7.386
  166SAPE  H13S18717   5.711   7.488   7.266
  166SAPE  C21418718   5.766   7.408   7.459
  166SAPE  H14R18719   5.865   7.378   7.421
  166SAPE  C21518720   5.741   7.408   7.587
  166SAPE  H15R18721   5.819   7.377   7.657
  166SAPE  C21618722   5.619   7.476   7.650
  166SAPE  H16R18723   5.566   7.538   7.574
  166SAPE  H16S18724   5.659   7.536   7.734
  166SAPE  C21718725   5.522   7.377   7.714
  166SAPE  H17R18726   5.477   7.300   7.647
  166SAPE  H17S18727   5.426   7.421   7.749
  166SAPE  C21818728   5.568   7.279   7.830
  166SAPE  H18R18729   5.640   7.341   7.888
  166SAPE  H18S18730   5.615   7.185   7.793
  166SAPE  C21918731   5.456   7.231   7.931
  166SAPE  H19R18732   5.357   7.222   7.881
  166SAPE  H19S18733   5.453   7.312   8.007
  166SAPE  C22018734   5.486   7.096   8.008
  166SAPE  H20R18735   5.388   7.050   8.032
  166SAPE  H20S18736   5.536   7.125   8.103
  166SAPE  H20T18737   5.539   7.034   7.933
  166SAPE   C3318738   5.693   6.655   6.665
  166SAPE   H3X18739   5.790   6.666   6.610
  166SAPE   H3Y18740   5.651   6.554   6.653
  166SAPE   C3418741   5.744   6.664   6.807
  166SAPE   H4X18742   5.759   6.557   6.833
  166SAPE   H4Y18743   5.667   6.689   6.884
  166SAPE   C3518744   5.875   6.753   6.824
  166SAPE   H5X18745   5.845   6.849   6.776
  166SAPE   H5Y18746   5.964   6.718   6.767
  166SAPE   C3618747   5.915   6.793   6.969
  166SAPE   H6X18748   6.004   6.859   6.972
  166SAPE   H6Y18749   5.944   6.703   7.028
  166SAPE   C3718750   5.796   6.859   7.046
  166SAPE   H7X18751   5.723   6.786   7.088
  166SAPE   H7Y18752   5.736   6.924   6.979
  166SAPE   C3818753   5.834   6.967   7.155
  166SAPE   H8X18754   5.743   7.027   7.175
  166SAPE   H8Y18755   5.905   7.041   7.112
  166SAPE   C3918756   5.901   6.901   7.275
  166SAPE   H9X18757   6.000   6.857   7.248
  166SAPE   H9Y18758   5.836   6.818   7.311
  166SAPE  C31018759   5.934   7.008   7.382
  166SAPE  H10X18760   5.837   7.049   7.419
  166SAPE  H10Y18761   5.993   7.094   7.346
  166SAPE  C31118762   6.004   6.956   7.511
  166SAPE  H11X18763   6.096   7.017   7.518
  166SAPE  H11Y18764   6.029   6.849   7.493
  166SAPE  C31218765   5.923   6.963   7.638
  166SAPE  H12X18766   5.835   6.896   7.635
  166SAPE  H12Y18767   5.895   7.070   7.646
  166SAPE  C31318768   6.003   6.934   7.764
  166SAPE  H13X18769   6.108   6.969   7.757
  166SAPE  H13Y18770   5.997   6.828   7.798
  166SAPE  C31418771   5.938   7.001   7.887
  166SAPE  H14X18772   5.830   6.974   7.878
  166SAPE  H14Y18773   5.944   7.110   7.869
  166SAPE  C31518774   6.012   6.958   8.013
  166SAPE  H15X18775   6.117   6.992   8.002
  166SAPE  H15Y18776   6.009   6.849   8.034
  166SAPE  C31618777   5.967   7.017   8.153
  166SAPE  H16X18778   5.968   7.127   8.135
  166SAPE  H16Y18779   6.047   7.001   8.228
  166SAPE  C31718780   5.834   6.963   8.200
  166SAPE  H17X18781   5.838   6.852   8.206
  166SAPE  H17Y18782   5.757   6.981   8.121
  166SAPE  C31818783   5.787   7.013   8.335
  166SAPE  H18X18784   5.846   6.974   8.421
  166SAPE  H18Y18785   5.678   6.996   8.347
  166SAPE  H18Z18786   5.801   7.123   8.338
  167SAPE     N18787   6.594   6.565   6.158
  167SAPE   HN118788   6.598   6.665   6.184
  167SAPE   HN218789   6.664   6.538   6.086
  167SAPE   HN318790   6.502   6.547   6.112
  167SAPE   C1218791   6.611   6.471   6.273
  167SAPE  H12A18792   6.523   6.478   6.340
  167SAPE  H12B18793   6.697   6.500   6.337
  167SAPE   C1118794   6.631   6.323   6.230
  167SAPE  H11A18795   6.533   6.278   6.204
  167SAPE  H11B18796   6.668   6.265   6.317
  167SAPE     P18797   6.881   6.360   6.140
  167SAPE   O1318798   6.973   6.250   6.094
  167SAPE   O1418799   6.899   6.493   6.074
  167SAPE   O1218800   6.727   6.314   6.126
  167SAPE   O1118801   6.903   6.375   6.302
  167SAPE    C118802   6.992   6.288   6.383
  167SAPE    HA18803   7.071   6.248   6.316
  167SAPE    HB18804   7.045   6.350   6.459
  167SAPE    C218805   6.912   6.190   6.468
  167SAPE    HS18806   6.874   6.116   6.395
  167SAPE   O2118807   6.813   6.260   6.536
  167SAPE   C2118808   6.707   6.183   6.566
  167SAPE   O2218809   6.691   6.070   6.520
  167SAPE   C2218810   6.609   6.250   6.670
  167SAPE   H2R18811   6.620   6.361   6.673
  167SAPE   H2S18812   6.507   6.230   6.633
  167SAPE    C318813   7.005   6.105   6.569
  167SAPE    HX18814   7.037   6.178   6.647
  167SAPE    HY18815   7.084   6.049   6.515
  167SAPE   O3118816   6.936   5.998   6.641
  167SAPE   C3118817   7.014   5.939   6.736
  167SAPE   O3218818   7.124   5.974   6.774
  167SAPE   C3218819   6.933   5.825   6.799
  167SAPE   H2X18820   6.858   5.798   6.722
  167SAPE   H2Y18821   6.872   5.868   6.882
  167SAPE   C2318822   6.628   6.199   6.819
  167SAPE   H3R18823   6.661   6.094   6.820
  167SAPE   H3S18824   6.527   6.205   6.866
  167SAPE   C2418825   6.727   6.278   6.906
  167SAPE   H4R18826   6.719   6.220   7.000
  167SAPE   H4S18827   6.681   6.376   6.930
  167SAPE   C2518828   6.871   6.302   6.871
  167SAPE   H5R18829   6.884   6.350   6.772
  167SAPE   C2618830   6.979   6.276   6.950
  167SAPE   H6R18831   7.079   6.285   6.905
  167SAPE   C2718832   6.969   6.211   7.087
  167SAPE   H7R18833   6.896   6.127   7.080
  167SAPE   H7S18834   6.921   6.276   7.162
  167SAPE   C2818835   7.101   6.147   7.131
  167SAPE   H8R18836   7.164   6.113   7.047
  167SAPE   C2918837   7.149   6.135   7.252
  167SAPE   H9R18838   7.240   6.075   7.268
  167SAPE  C21018839   7.082   6.184   7.380
  167SAPE  H10R18840   7.128   6.127   7.464
  167SAPE  H10S18841   6.974   6.158   7.377
  167SAPE  C21118842   7.095   6.336   7.404
  167SAPE  H11R18843   7.112   6.401   7.317
  167SAPE  C21218844   7.076   6.386   7.532
  167SAPE  H12R18845   7.099   6.493   7.541
  167SAPE  C21318846   7.043   6.305   7.652
  167SAPE  H13R18847   7.063   6.198   7.630
  167SAPE  H13S18848   6.932   6.312   7.647
  167SAPE  C21418849   7.093   6.349   7.791
  167SAPE  H14R18850   7.196   6.313   7.806
  167SAPE  C21518851   7.040   6.442   7.877
  167SAPE  H15R18852   7.095   6.477   7.966
  167SAPE  C21618853   6.903   6.502   7.853
  167SAPE  H16R18854   6.826   6.422   7.858
  167SAPE  H16S18855   6.884   6.546   7.753
  167SAPE  C21718856   6.865   6.604   7.964
  167SAPE  H17R18857   6.781   6.666   7.928
  167SAPE  H17S18858   6.958   6.665   7.973
  167SAPE  C21818859   6.842   6.544   8.103
  167SAPE  H18R18860   6.920   6.469   8.130
  167SAPE  H18S18861   6.743   6.493   8.097
  167SAPE  C21918862   6.850   6.658   8.212
  167SAPE  H19R18863   6.778   6.639   8.295
  167SAPE  H19S18864   6.811   6.749   8.159
  167SAPE  C22018865   6.983   6.669   8.279
  167SAPE  H20R18866   7.051   6.734   8.219
  167SAPE  H20S18867   7.029   6.573   8.312
  167SAPE  H20T18868   6.972   6.722   8.376
  167SAPE   C3318869   7.014   5.700   6.846
  167SAPE   H3X18870   7.087   5.661   6.772
  167SAPE   H3Y18871   6.939   5.619   6.853
  167SAPE   C3418872   7.086   5.708   6.982
  167SAPE   H4X18873   7.179   5.764   6.962
  167SAPE   H4Y18874   7.126   5.609   7.015
  167SAPE   C3518875   7.003   5.775   7.089
  167SAPE   H5X18876   6.908   5.718   7.101
  167SAPE   H5Y18877   6.990   5.883   7.066
  167SAPE   C3618878   7.080   5.763   7.218
  167SAPE   H6X18879   7.181   5.809   7.217
  167SAPE   H6Y18880   7.101   5.656   7.236
  167SAPE   C3718881   7.001   5.829   7.330
  167SAPE   H7X18882   6.903   5.780   7.351
  167SAPE   H7Y18883   6.985   5.935   7.299
  167SAPE   C3818884   7.080   5.831   7.465
  167SAPE   H8X18885   7.179   5.882   7.457
  167SAPE   H8Y18886   7.106   5.725   7.486
  167SAPE   C3918887   6.990   5.882   7.577
  167SAPE   H9X18888   6.895   5.827   7.568
  167SAPE   H9Y18889   6.976   5.992   7.569
  167SAPE  C31018890   7.050   5.880   7.715
  167SAPE  H10X18891   7.154   5.916   7.702
  167SAPE  H10Y18892   7.064   5.773   7.745
  167SAPE  C31118893   6.976   5.955   7.820
  167SAPE  H11X18894   6.870   5.925   7.830
  167SAPE  H11Y18895   6.955   6.061   7.791
  167SAPE  C31218896   7.043   5.961   7.956
  167SAPE  H12X18897   7.143   6.006   7.938
  167SAPE  H12Y18898   7.045   5.863   8.009
  167SAPE  C31318899   6.969   6.058   8.048
  167SAPE  H13X18900   6.863   6.034   8.073
  167SAPE  H13Y18901   6.958   6.150   7.985
  167SAPE  C31418902   7.047   6.100   8.174
  167SAPE  H14X18903   6.993   6.180   8.229
  167SAPE  H14Y18904   7.150   6.131   8.148
  167SAPE  C31518905   7.053   5.981   8.276
  167SAPE  H15X18906   7.095   6.016   8.373
  167SAPE  H15Y18907   7.133   5.913   8.240
  167SAPE  C31618908   6.926   5.902   8.303
  167SAPE  H16X18909   6.889   5.852   8.210
  167SAPE  H16Y18910   6.853   5.980   8.333
  167SAPE  C31718911   6.942   5.798   8.411
  167SAPE  H17X18912   7.013   5.720   8.377
  167SAPE  H17Y18913   6.850   5.737   8.407
  167SAPE  C31818914   6.959   5.845   8.556
  167SAPE  H18X18915   6.952   5.761   8.629
  167SAPE  H18Y18916   6.884   5.920   8.590
  167SAPE  H18Z18917   7.054   5.898   8.575
  168SAPE     N18918   1.254   0.993   6.436
  168SAPE   HN118919   1.153   0.968   6.442
  168SAPE   HN218920   1.271   1.048   6.350
  168SAPE   HN318921   1.296   0.899   6.425
  168SAPE   C1218922   1.303   1.067   6.554
  168SAPE  H12A18923   1.264   1.011   6.642
  168SAPE  H12B18924   1.255   1.167   6.547
  168SAPE   C1118925   1.456   1.074   6.567
  168SAPE  H11A18926   1.501   0.972   6.571
  168SAPE  H11B18927   1.480   1.133   6.657
  168SAPE     P18928   1.607   1.240   6.422
  168SAPE   O1318929   1.706   1.185   6.328
  168SAPE   O1418930   1.553   1.368   6.383
  168SAPE   O1218931   1.508   1.125   6.443
  168SAPE   O1118932   1.685   1.253   6.559
  168SAPE    C118933   1.771   1.147   6.601
  168SAPE    HA18934   1.714   1.051   6.606
  168SAPE    HB18935   1.859   1.132   6.535
  168SAPE    C218936   1.830   1.176   6.738
  168SAPE    HS18937   1.884   1.088   6.779
  168SAPE   O2118938   1.746   1.218   6.841
  168SAPE   C2118939   1.646   1.140   6.871
  168SAPE   O2218940   1.627   1.029   6.823
  168SAPE   C2218941   1.567   1.209   6.980
  168SAPE   H2R18942   1.638   1.266   7.044
  168SAPE   H2S18943   1.500   1.283   6.933
  168SAPE    C318944   1.937   1.284   6.723
  168SAPE    HX18945   1.909   1.371   6.659
  168SAPE    HY18946   2.016   1.235   6.662
  168SAPE   O3118947   1.983   1.347   6.852
  168SAPE   C3118948   2.073   1.274   6.929
  168SAPE   O3218949   2.120   1.170   6.891
  168SAPE   C3218950   2.086   1.335   7.065
  168SAPE   H2X18951   2.063   1.443   7.054
  168SAPE   H2Y18952   2.188   1.324   7.108
  168SAPE   C2318953   1.487   1.116   7.066
  168SAPE   H3R18954   1.412   1.059   7.009
  168SAPE   H3S18955   1.428   1.176   7.139
  168SAPE   C2418956   1.579   1.023   7.146
  168SAPE   H4R18957   1.669   1.068   7.194
  168SAPE   H4S18958   1.623   0.961   7.064
  168SAPE   C2518959   1.501   0.937   7.243
  168SAPE   H5R18960   1.449   0.851   7.198
  168SAPE   C2618961   1.499   0.963   7.374
  168SAPE   H6R18962   1.441   0.901   7.444
  168SAPE   C2718963   1.573   1.077   7.447
  168SAPE   H7R18964   1.610   1.156   7.379
  168SAPE   H7S18965   1.657   1.026   7.499
  168SAPE   C2818966   1.480   1.137   7.548
  168SAPE   H8R18967   1.431   1.228   7.511
  168SAPE   C2918968   1.438   1.087   7.665
  168SAPE   H9R18969   1.371   1.136   7.738
  168SAPE  C21018970   1.500   0.957   7.716
  168SAPE  H10R18971   1.490   0.967   7.826
  168SAPE  H10S18972   1.611   0.955   7.710
  168SAPE  C21118973   1.447   0.819   7.690
  168SAPE  H11R18974   1.526   0.751   7.655
  168SAPE  C21218975   1.327   0.759   7.709
  168SAPE  H12R18976   1.322   0.653   7.681
  168SAPE  C21318977   1.200   0.814   7.764
  168SAPE  H13R18978   1.202   0.925   7.778
  168SAPE  H13S18979   1.178   0.785   7.869
  168SAPE  C21418980   1.089   0.776   7.673
  168SAPE  H14R18981   1.113   0.795   7.568
  168SAPE  C21518982   0.964   0.735   7.697
  168SAPE  H15R18983   0.893   0.708   7.617
  168SAPE  C21618984   0.917   0.695   7.834
  168SAPE  H16R18985   0.849   0.774   7.872
  168SAPE  H16S18986   1.001   0.675   7.903
  168SAPE  C21718987   0.828   0.569   7.817
  168SAPE  H17R18988   0.871   0.484   7.759
  168SAPE  H17S18989   0.735   0.592   7.761
  168SAPE  C21818990   0.776   0.523   7.954
  168SAPE  H18R18991   0.751   0.616   8.008
  168SAPE  H18S18992   0.860   0.482   8.016
  168SAPE  C21918993   0.659   0.425   7.942
  168SAPE  H19R18994   0.696   0.361   7.859
  168SAPE  H19S18995   0.573   0.483   7.902
  168SAPE  C22018996   0.623   0.352   8.065
  168SAPE  H20R18997   0.690   0.264   8.077
  168SAPE  H20S18998   0.518   0.316   8.067
  168SAPE  H20T18999   0.635   0.419   8.153
  168SAPE   C3319000   1.983   1.278   7.166
  168SAPE   H3X19001   1.961   1.171   7.146
  168SAPE   H3Y19002   1.892   1.341   7.165
  168SAPE   C3419003   2.030   1.298   7.317
  168SAPE   H4X19004   2.036   1.408   7.333
  168SAPE   H4Y19005   2.132   1.258   7.336
  168SAPE   C3519006   1.920   1.254   7.419
  168SAPE   H5X19007   1.908   1.143   7.422
  168SAPE   H5Y19008   1.817   1.290   7.399
  168SAPE   C3619009   1.956   1.278   7.570
  168SAPE   H6X19010   1.876   1.247   7.640
  168SAPE   H6Y19011   1.969   1.387   7.579
  168SAPE   C3719012   2.098   1.220   7.608
  168SAPE   H7X19013   2.171   1.283   7.554
  168SAPE   H7Y19014   2.100   1.111   7.586
  168SAPE   C3819015   2.131   1.240   7.763
  168SAPE   H8X19016   2.126   1.348   7.792
  168SAPE   H8Y19017   2.237   1.211   7.777
  168SAPE   C3919018   2.040   1.164   7.855
  168SAPE   H9X19019   2.051   1.056   7.832
  168SAPE   H9Y19020   1.936   1.180   7.821
  168SAPE  C31019021   2.067   1.190   8.000
  168SAPE  H10X19022   2.172   1.185   8.035
  168SAPE  H10Y19023   1.992   1.125   8.050
  168SAPE  C31119024   2.040   1.334   8.063
  168SAPE  H11X19025   1.930   1.351   8.064
  168SAPE  H11Y19026   2.092   1.408   7.999
  168SAPE  C31219027   2.082   1.351   8.202
  168SAPE  H12X19028   2.050   1.448   8.246
  168SAPE  H12Y19029   2.190   1.342   8.228
  168SAPE  C31319030   2.023   1.239   8.299
  168SAPE  H13X19031   2.060   1.137   8.275
  168SAPE  H13Y19032   1.915   1.240   8.275
  168SAPE  C31419033   2.049   1.280   8.443
  168SAPE  H14X19034   2.005   1.378   8.470
  168SAPE  H14Y19035   2.158   1.287   8.461
  168SAPE  C31519036   1.989   1.178   8.548
  168SAPE  H15X19037   1.883   1.169   8.519
  168SAPE  H15Y19038   1.993   1.216   8.652
  168SAPE  C31619039   2.066   1.045   8.555
  168SAPE  H16X19040   2.172   1.061   8.583
  168SAPE  H16Y19041   2.076   1.012   8.450
  168SAPE  C31719042   2.010   0.941   8.644
  168SAPE  H17X19043   1.917   0.908   8.593
  168SAPE  H17Y19044   1.986   0.982   8.745
  168SAPE  C31819045   2.103   0.819   8.664
  168SAPE  H18X19046   2.195   0.853   8.717
  168SAPE  H18Y19047   2.123   0.782   8.561
  168SAPE  H18Z19048   2.045   0.735   8.708
  169SAPE     N19049   1.287   3.218   6.022
  169SAPE   HN119050   1.371   3.278   6.010
  169SAPE   HN219051   1.291   3.210   6.126
  169SAPE   HN319052   1.304   3.130   5.970
  169SAPE   C1219053   1.153   3.282   5.991
  169SAPE  H12A19054   1.141   3.309   5.884
  169SAPE  H12B19055   1.159   3.374   6.053
  169SAPE   C1119056   1.031   3.208   6.044
  169SAPE  H11A19057   1.024   3.128   5.967
  169SAPE  H11B19058   0.937   3.267   6.038
  169SAPE     P19059   1.003   3.252   6.308
  169SAPE   O1319060   1.072   3.204   6.430
  169SAPE   O1419061   1.013   3.395   6.274
  169SAPE   O1219062   1.042   3.160   6.182
  169SAPE   O1119063   0.848   3.214   6.302
  169SAPE    C119064   0.789   3.099   6.359
  169SAPE    HA19065   0.745   3.045   6.273
  169SAPE    HB19066   0.868   3.028   6.392
  169SAPE    C219067   0.681   3.118   6.465
  169SAPE    HS19068   0.612   3.193   6.420
  169SAPE   O2119069   0.755   3.176   6.573
  169SAPE   C2119070   0.688   3.239   6.671
  169SAPE   O2219071   0.568   3.259   6.677
  169SAPE   C2219072   0.796   3.280   6.779
  169SAPE   H2R19073   0.725   3.309   6.860
  169SAPE   H2S19074   0.862   3.196   6.809
  169SAPE    C319075   0.617   2.977   6.486
  169SAPE    HX19076   0.699   2.903   6.485
  169SAPE    HY19077   0.555   2.952   6.396
  169SAPE   O3119078   0.538   2.984   6.605
  169SAPE   C3119079   0.483   2.869   6.644
  169SAPE   O3219080   0.481   2.767   6.582
  169SAPE   C3219081   0.435   2.892   6.783
  169SAPE   H2X19082   0.328   2.863   6.782
  169SAPE   H2Y19083   0.444   3.001   6.803
  169SAPE   C2319084   0.870   3.405   6.739
  169SAPE   H3R19085   0.809   3.473   6.676
  169SAPE   H3S19086   0.963   3.374   6.686
  169SAPE   C2419087   0.912   3.485   6.871
  169SAPE   H4R19088   0.826   3.533   6.922
  169SAPE   H4S19089   0.980   3.568   6.842
  169SAPE   C2519090   0.980   3.396   6.966
  169SAPE   H5R19091   1.055   3.325   6.929
  169SAPE   C2619092   0.956   3.388   7.101
  169SAPE   H6R19093   1.018   3.324   7.165
  169SAPE   C2719094   0.867   3.461   7.196
  169SAPE   H7R19095   0.792   3.526   7.147
  169SAPE   H7S19096   0.935   3.522   7.260
  169SAPE   C2819097   0.789   3.360   7.282
  169SAPE   H8R19098   0.695   3.326   7.237
  169SAPE   C2919099   0.824   3.314   7.404
  169SAPE   H9R19100   0.760   3.237   7.450
  169SAPE  C21019101   0.957   3.331   7.475
  169SAPE  H10R19102   1.042   3.328   7.403
  169SAPE  H10S19103   0.973   3.243   7.541
  169SAPE  C21119104   0.960   3.466   7.548
  169SAPE  H11R19105   1.029   3.543   7.513
  169SAPE  C21219106   0.892   3.484   7.665
  169SAPE  H12R19107   0.886   3.588   7.699
  169SAPE  C21319108   0.805   3.379   7.743
  169SAPE  H13R19109   0.845   3.333   7.836
  169SAPE  H13S19110   0.789   3.286   7.684
  169SAPE  C21419111   0.675   3.448   7.750
  169SAPE  H14R19112   0.601   3.411   7.677
  169SAPE  C21519113   0.630   3.521   7.853
  169SAPE  H15R19114   0.523   3.548   7.855
  169SAPE  C21619115   0.702   3.549   7.987
  169SAPE  H16R19116   0.802   3.501   7.980
  169SAPE  H16S19117   0.637   3.502   8.064
  169SAPE  C21719118   0.729   3.700   8.011
  169SAPE  H17R19119   0.732   3.716   8.121
  169SAPE  H17S19120   0.643   3.754   7.967
  169SAPE  C21819121   0.862   3.738   7.952
  169SAPE  H18R19122   0.879   3.701   7.849
  169SAPE  H18S19123   0.944   3.687   8.007
  169SAPE  C21919124   0.895   3.888   7.967
  169SAPE  H19R19125   0.999   3.892   7.929
  169SAPE  H19S19126   0.886   3.924   8.072
  169SAPE  C22019127   0.802   3.974   7.875
  169SAPE  H20R19128   0.827   3.944   7.771
  169SAPE  H20S19129   0.837   4.077   7.896
  169SAPE  H20T19130   0.693   3.959   7.893
  169SAPE   C3319131   0.509   2.812   6.897
  169SAPE   H3X19132   0.492   2.703   6.880
  169SAPE   H3Y19133   0.452   2.817   6.993
  169SAPE   C3419134   0.661   2.831   6.917
  169SAPE   H4X19135   0.716   2.817   6.822
  169SAPE   H4Y19136   0.708   2.762   6.991
  169SAPE   C3519137   0.688   2.979   6.954
  169SAPE   H5X19138   0.653   3.050   6.876
  169SAPE   H5Y19139   0.798   2.997   6.957
  169SAPE   C3619140   0.619   3.020   7.088
  169SAPE   H6X19141   0.509   3.010   7.083
  169SAPE   H6Y19142   0.642   3.129   7.096
  169SAPE   C3719143   0.675   2.956   7.215
  169SAPE   H7X19144   0.780   2.985   7.234
  169SAPE   H7Y19145   0.658   2.846   7.204
  169SAPE   C3819146   0.600   3.012   7.333
  169SAPE   H8X19147   0.492   2.985   7.337
  169SAPE   H8Y19148   0.601   3.122   7.321
  169SAPE   C3919149   0.664   2.971   7.471
  169SAPE   H9X19150   0.774   2.976   7.461
  169SAPE   H9Y19151   0.650   2.861   7.467
  169SAPE  C31019152   0.604   3.041   7.589
  169SAPE  H10X19153   0.501   3.005   7.609
  169SAPE  H10Y19154   0.596   3.149   7.565
  169SAPE  C31119155   0.699   3.021   7.710
  169SAPE  H11X19156   0.798   3.066   7.687
  169SAPE  H11Y19157   0.733   2.915   7.717
  169SAPE  C31219158   0.643   3.069   7.839
  169SAPE  H12X19159   0.540   3.031   7.858
  169SAPE  H12Y19160   0.639   3.179   7.848
  169SAPE  C31319161   0.719   3.016   7.968
  169SAPE  H13X19162   0.818   3.066   7.975
  169SAPE  H13Y19163   0.722   2.905   7.957
  169SAPE  C31419164   0.634   3.054   8.089
  169SAPE  H14X19165   0.673   2.995   8.176
  169SAPE  H14Y19166   0.525   3.036   8.074
  169SAPE  C31519167   0.646   3.199   8.123
  169SAPE  H15X19168   0.562   3.250   8.071
  169SAPE  H15Y19169   0.747   3.242   8.102
  169SAPE  C31619170   0.637   3.227   8.274
  169SAPE  H16X19171   0.643   3.337   8.288
  169SAPE  H16Y19172   0.730   3.187   8.319
  169SAPE  C31719173   0.514   3.174   8.347
  169SAPE  H17X19174   0.517   3.068   8.381
  169SAPE  H17Y19175   0.423   3.176   8.285
  169SAPE  C31819176   0.491   3.260   8.472
  169SAPE  H18X19177   0.493   3.368   8.449
  169SAPE  H18Y19178   0.574   3.244   8.544
  169SAPE  H18Z19179   0.393   3.230   8.516
  170SAPE     N19180   2.117   0.160   5.977
  170SAPE   HN119181   2.201   0.211   6.012
  170SAPE   HN219182   2.133   0.132   5.878
  170SAPE   HN319183   2.040   0.230   5.981
  170SAPE   C1219184   2.088   0.044   6.072
  170SAPE  H12A19185   2.182  -0.007   6.103
  170SAPE  H12B19186   2.039  -0.029   6.004
  170SAPE   C1119187   2.005   0.097   6.187
  170SAPE  H11A19188   2.070   0.162   6.250
  170SAPE  H11B19189   1.968   0.001   6.230
  170SAPE     P19190   1.872   0.322   6.161
  170SAPE   O1319191   1.961   0.397   6.065
  170SAPE   O1419192   1.727   0.343   6.157
  170SAPE   O1219193   1.896   0.173   6.139
  170SAPE   O1119194   1.936   0.343   6.299
  170SAPE    C119195   1.874   0.323   6.428
  170SAPE    HA19196   1.837   0.219   6.432
  170SAPE    HB19197   1.955   0.341   6.502
  170SAPE    C219198   1.764   0.427   6.458
  170SAPE    HS19199   1.689   0.424   6.376
  170SAPE   O2119200   1.828   0.555   6.457
  170SAPE   C2119201   1.750   0.655   6.496
  170SAPE   O2219202   1.625   0.656   6.501
  170SAPE   C2219203   1.838   0.772   6.550
  170SAPE   H2R19204   1.880   0.826   6.462
  170SAPE   H2S19205   1.774   0.844   6.606
  170SAPE    C319206   1.688   0.383   6.591
  170SAPE    HX19207   1.600   0.448   6.610
  170SAPE    HY19208   1.755   0.402   6.677
  170SAPE   O3119209   1.643   0.247   6.590
  170SAPE   C3119210   1.529   0.231   6.536
  170SAPE   O3219211   1.447   0.319   6.513
  170SAPE   C3219212   1.509   0.083   6.496
  170SAPE   H2X19213   1.599   0.058   6.436
  170SAPE   H2Y19214   1.419   0.091   6.432
  170SAPE   C2319215   1.954   0.720   6.633
  170SAPE   H3R19216   2.031   0.801   6.626
  170SAPE   H3S19217   2.004   0.636   6.581
  170SAPE   C2419218   1.927   0.665   6.774
  170SAPE   H4R19219   2.028   0.639   6.812
  170SAPE   H4S19220   1.859   0.577   6.767
  170SAPE   C2519221   1.873   0.765   6.869
  170SAPE   H5R19222   1.769   0.798   6.852
  170SAPE   C2619223   1.923   0.798   6.989
  170SAPE   H6R19224   1.869   0.866   7.056
  170SAPE   C2719225   2.055   0.751   7.052
  170SAPE   H7R19226   2.116   0.683   6.989
  170SAPE   H7S19227   2.034   0.700   7.148
  170SAPE   C2819228   2.136   0.874   7.073
  170SAPE   H8R19229   2.188   0.915   6.985
  170SAPE   C2919230   2.165   0.935   7.187
  170SAPE   H9R19231   2.247   1.008   7.199
  170SAPE  C21019232   2.110   0.893   7.319
  170SAPE  H10R19233   2.000   0.881   7.310
  170SAPE  H10S19234   2.123   0.975   7.393
  170SAPE  C21119235   2.175   0.771   7.377
  170SAPE  H11R19236   2.166   0.691   7.302
  170SAPE  C21219237   2.204   0.740   7.506
  170SAPE  H12R19238   2.247   0.641   7.527
  170SAPE  C21319239   2.200   0.829   7.626
  170SAPE  H13R19240   2.157   0.773   7.711
  170SAPE  H13S19241   2.126   0.911   7.615
  170SAPE  C21419242   2.324   0.911   7.661
  170SAPE  H14R19243   2.391   0.945   7.581
  170SAPE  C21519244   2.374   0.928   7.788
  170SAPE  H15R19245   2.467   0.983   7.808
  170SAPE  C21619246   2.317   0.886   7.921
  170SAPE  H16R19247   2.352   0.782   7.937
  170SAPE  H16S19248   2.206   0.894   7.925
  170SAPE  C21719249   2.388   0.959   8.037
  170SAPE  H17R19250   2.374   1.069   8.039
  170SAPE  H17S19251   2.497   0.940   8.048
  170SAPE  C21819252   2.325   0.910   8.173
  170SAPE  H18R19253   2.336   0.802   8.198
  170SAPE  H18S19254   2.215   0.927   8.170
  170SAPE  C21919255   2.390   0.979   8.293
  170SAPE  H19R19256   2.500   0.962   8.292
  170SAPE  H19S19257   2.349   0.937   8.387
  170SAPE  C22019258   2.375   1.128   8.293
  170SAPE  H20R19259   2.271   1.139   8.255
  170SAPE  H20S19260   2.448   1.175   8.223
  170SAPE  H20T19261   2.385   1.182   8.390
  170SAPE   C3319262   1.485   0.005   6.627
  170SAPE   H3X19263   1.566   0.027   6.700
  170SAPE   H3Y19264   1.484  -0.106   6.619
  170SAPE   C3419265   1.352   0.041   6.690
  170SAPE   H4X19266   1.269  -0.008   6.634
  170SAPE   H4Y19267   1.329   0.149   6.691
  170SAPE   C3519268   1.346   0.013   6.837
  170SAPE   H5X19269   1.418   0.084   6.884
  170SAPE   H5Y19270   1.389  -0.087   6.861
  170SAPE   C3619271   1.216   0.021   6.906
  170SAPE   H6X19272   1.158   0.111   6.877
  170SAPE   H6Y19273   1.233   0.049   7.012
  170SAPE   C3719274   1.133  -0.112   6.918
  170SAPE   H7X19275   1.196  -0.203   6.909
  170SAPE   H7Y19276   1.068  -0.123   6.829
  170SAPE   C3819277   1.046  -0.109   7.044
  170SAPE   H8X19278   0.950  -0.163   7.040
  170SAPE   H8Y19279   1.000  -0.008   7.037
  170SAPE   C3919280   1.120  -0.146   7.171
  170SAPE   H9X19281   1.200  -0.070   7.185
  170SAPE   H9Y19282   1.192  -0.230   7.160
  170SAPE  C31019283   1.031  -0.164   7.290
  170SAPE  H10X19284   0.961  -0.246   7.264
  170SAPE  H10Y19285   0.968  -0.074   7.306
  170SAPE  C31119286   1.101  -0.182   7.418
  170SAPE  H11X19287   1.168  -0.269   7.404
  170SAPE  H11Y19288   1.016  -0.211   7.483
  170SAPE  C31219289   1.190  -0.068   7.468
  170SAPE  H12X19290   1.121   0.017   7.488
  170SAPE  H12Y19291   1.259  -0.042   7.385
  170SAPE  C31319292   1.273  -0.105   7.593
  170SAPE  H13X19293   1.333  -0.017   7.627
  170SAPE  H13Y19294   1.348  -0.179   7.559
  170SAPE  C31419295   1.193  -0.155   7.719
  170SAPE  H14X19296   1.115  -0.226   7.683
  170SAPE  H14Y19297   1.138  -0.066   7.756
  170SAPE  C31519298   1.284  -0.217   7.831
  170SAPE  H15X19299   1.374  -0.153   7.845
  170SAPE  H15Y19300   1.312  -0.316   7.791
  170SAPE  C31619301   1.223  -0.214   7.971
  170SAPE  H16X19302   1.132  -0.278   7.969
  170SAPE  H16Y19303   1.189  -0.114   8.006
  170SAPE  C31719304   1.320  -0.264   8.081
  170SAPE  H17X19305   1.425  -0.235   8.056
  170SAPE  H17Y19306   1.318  -0.375   8.076
  170SAPE  C31819307   1.268  -0.220   8.221
  170SAPE  H18X19308   1.157  -0.213   8.224
  170SAPE  H18Y19309   1.313  -0.124   8.253
  170SAPE  H18Z19310   1.304  -0.298   8.291
  171SAPE     N19311   2.797   1.196   6.038
  171SAPE   HN119312   2.735   1.247   6.105
  171SAPE   HN219313   2.861   1.270   6.001
  171SAPE   HN319314   2.742   1.149   5.964
  171SAPE   C1219315   2.853   1.084   6.123
  171SAPE  H12A19316   2.931   1.036   6.059
  171SAPE  H12B19317   2.774   1.008   6.143
  171SAPE   C1119318   2.922   1.133   6.247
  171SAPE  H11A19319   2.975   1.050   6.298
  171SAPE  H11B19320   2.850   1.156   6.329
  171SAPE     P19321   3.132   1.273   6.308
  171SAPE   O1319322   3.226   1.167   6.297
  171SAPE   O1419323   3.194   1.406   6.262
  171SAPE   O1219324   3.005   1.244   6.228
  171SAPE   O1119325   3.073   1.282   6.456
  171SAPE    C119326   3.162   1.302   6.560
  171SAPE    HA19327   3.261   1.259   6.535
  171SAPE    HB19328   3.182   1.410   6.576
  171SAPE    C219329   3.109   1.257   6.700
  171SAPE    HS19330   3.005   1.291   6.682
  171SAPE   O2119331   3.174   1.329   6.801
  171SAPE   C2119332   3.101   1.346   6.915
  171SAPE   O2219333   2.985   1.309   6.933
  171SAPE   C2219334   3.186   1.422   7.019
  171SAPE   H2R19335   3.285   1.442   6.972
  171SAPE   H2S19336   3.130   1.516   7.039
  171SAPE    C319337   3.138   1.101   6.713
  171SAPE    HX19338   3.242   1.080   6.677
  171SAPE    HY19339   3.070   1.047   6.644
  171SAPE   O3119340   3.134   1.062   6.852
  171SAPE   C3119341   3.023   1.008   6.894
  171SAPE   O3219342   2.922   0.990   6.830
  171SAPE   C3219343   3.031   0.998   7.048
  171SAPE   H2X19344   3.013   1.099   7.090
  171SAPE   H2Y19345   3.133   0.965   7.075
  171SAPE   C2319346   3.232   1.355   7.149
  171SAPE   H3R19347   3.326   1.399   7.188
  171SAPE   H3S19348   3.263   1.254   7.113
  171SAPE   C2419349   3.130   1.358   7.266
  171SAPE   H4R19350   3.040   1.301   7.236
  171SAPE   H4S19351   3.097   1.464   7.270
  171SAPE   C2519352   3.183   1.297   7.393
  171SAPE   H5R19353   3.164   1.190   7.408
  171SAPE   C2619354   3.236   1.368   7.501
  171SAPE   H6R19355   3.278   1.310   7.585
  171SAPE   C2719356   3.255   1.520   7.505
  171SAPE   H7R19357   3.214   1.561   7.409
  171SAPE   H7S19358   3.360   1.553   7.497
  171SAPE   C2819359   3.178   1.579   7.623
  171SAPE   H8R19360   3.070   1.592   7.611
  171SAPE   C2919361   3.230   1.631   7.732
  171SAPE   H9R19362   3.172   1.692   7.803
  171SAPE  C21019363   3.375   1.637   7.770
  171SAPE  H10R19364   3.444   1.617   7.686
  171SAPE  H10S19365   3.393   1.544   7.829
  171SAPE  C21119366   3.403   1.764   7.854
  171SAPE  H11R19367   3.454   1.846   7.801
  171SAPE  C21219368   3.381   1.784   7.989
  171SAPE  H12R19369   3.401   1.882   8.033
  171SAPE  C21319370   3.326   1.685   8.085
  171SAPE  H13R19371   3.226   1.649   8.055
  171SAPE  H13S19372   3.311   1.734   8.184
  171SAPE  C21419373   3.424   1.566   8.104
  171SAPE  H14R19374   3.427   1.490   8.024
  171SAPE  C21519375   3.489   1.534   8.214
  171SAPE  H15R19376   3.539   1.436   8.217
  171SAPE  C21619377   3.491   1.604   8.349
  171SAPE  H16R19378   3.514   1.540   8.437
  171SAPE  H16S19379   3.391   1.650   8.370
  171SAPE  C21719380   3.609   1.706   8.354
  171SAPE  H17R19381   3.585   1.783   8.278
  171SAPE  H17S19382   3.709   1.663   8.329
  171SAPE  C21819383   3.622   1.771   8.488
  171SAPE  H18R19384   3.685   1.708   8.554
  171SAPE  H18S19385   3.528   1.784   8.545
  171SAPE  C21919386   3.697   1.909   8.478
  171SAPE  H19R19387   3.634   1.988   8.430
  171SAPE  H19S19388   3.796   1.911   8.427
  171SAPE  C22019389   3.724   1.968   8.623
  171SAPE  H20R19390   3.779   1.904   8.695
  171SAPE  H20S19391   3.628   1.994   8.672
  171SAPE  H20T19392   3.782   2.062   8.613
  171SAPE   C3319393   2.934   0.885   7.102
  171SAPE   H3X19394   2.986   0.787   7.107
  171SAPE   H3Y19395   2.844   0.887   7.037
  171SAPE   C3419396   2.885   0.915   7.238
  171SAPE   H4X19397   2.831   0.825   7.273
  171SAPE   H4Y19398   2.811   0.996   7.222
  171SAPE   C3519399   2.984   0.964   7.348
  171SAPE   H5X19400   2.928   0.989   7.440
  171SAPE   H5Y19401   3.039   1.050   7.304
  171SAPE   C3619402   3.078   0.850   7.396
  171SAPE   H6X19403   3.133   0.816   7.306
  171SAPE   H6Y19404   3.012   0.765   7.425
  171SAPE   C3719405   3.166   0.879   7.510
  171SAPE   H7X19406   3.242   0.954   7.478
  171SAPE   H7Y19407   3.227   0.786   7.521
  171SAPE   C3819408   3.087   0.900   7.637
  171SAPE   H8X19409   3.015   0.816   7.648
  171SAPE   H8Y19410   3.048   1.002   7.619
  171SAPE   C3919411   3.165   0.896   7.766
  171SAPE   H9X19412   3.231   0.985   7.755
  171SAPE   H9Y19413   3.243   0.816   7.760
  171SAPE  C31019414   3.079   0.896   7.892
  171SAPE  H10X19415   2.987   0.834   7.892
  171SAPE  H10Y19416   3.043   1.001   7.891
  171SAPE  C31119417   3.164   0.888   8.016
  171SAPE  H11X19418   3.093   0.920   8.094
  171SAPE  H11Y19419   3.252   0.956   8.013
  171SAPE  C31219420   3.209   0.746   8.028
  171SAPE  H12X19421   3.261   0.716   7.934
  171SAPE  H12Y19422   3.114   0.689   8.039
  171SAPE  C31319423   3.301   0.723   8.151
  171SAPE  H13X19424   3.245   0.743   8.245
  171SAPE  H13Y19425   3.391   0.787   8.134
  171SAPE  C31419426   3.345   0.573   8.154
  171SAPE  H14X19427   3.381   0.538   8.055
  171SAPE  H14Y19428   3.252   0.517   8.177
  171SAPE  C31519429   3.454   0.538   8.256
  171SAPE  H15X19430   3.477   0.430   8.248
  171SAPE  H15Y19431   3.420   0.541   8.362
  171SAPE  C31619432   3.580   0.620   8.237
  171SAPE  H16X19433   3.644   0.593   8.323
  171SAPE  H16Y19434   3.560   0.729   8.243
  171SAPE  C31719435   3.661   0.567   8.121
  171SAPE  H17X19436   3.585   0.561   8.041
  171SAPE  H17Y19437   3.699   0.463   8.133
  171SAPE  C31819438   3.770   0.656   8.068
  171SAPE  H18X19439   3.730   0.756   8.043
  171SAPE  H18Y19440   3.812   0.608   7.976
  171SAPE  H18Z19441   3.856   0.664   8.138
  172SAPE     N19442   2.280   6.406   6.048
  172SAPE   HN119443   2.258   6.381   5.950
  172SAPE   HN219444   2.192   6.391   6.102
  172SAPE   HN319445   2.319   6.501   6.034
  172SAPE   C1219446   2.385   6.330   6.116
  172SAPE  H12A19447   2.464   6.315   6.039
  172SAPE  H12B19448   2.326   6.238   6.139
  172SAPE   C1119449   2.447   6.391   6.241
  172SAPE  H11A19450   2.504   6.324   6.309
  172SAPE  H11B19451   2.362   6.427   6.302
  172SAPE     P19452   2.680   6.521   6.223
  172SAPE   O1319453   2.754   6.398   6.188
  172SAPE   O1419454   2.719   6.646   6.153
  172SAPE   O1219455   2.531   6.496   6.197
  172SAPE   O1119456   2.682   6.534   6.379
  172SAPE    C119457   2.653   6.665   6.444
  172SAPE    HA19458   2.750   6.716   6.464
  172SAPE    HB19459   2.602   6.739   6.379
  172SAPE    C219460   2.576   6.634   6.580
  172SAPE    HS19461   2.559   6.731   6.631
  172SAPE   O2119462   2.648   6.537   6.661
  172SAPE   C2119463   2.756   6.587   6.721
  172SAPE   O2219464   2.795   6.702   6.705
  172SAPE   C2219465   2.814   6.480   6.820
  172SAPE   H2R19466   2.735   6.474   6.897
  172SAPE   H2S19467   2.831   6.380   6.776
  172SAPE    C319468   2.432   6.573   6.562
  172SAPE    HX19469   2.446   6.484   6.496
  172SAPE    HY19470   2.381   6.653   6.505
  172SAPE   O3119471   2.363   6.534   6.687
  172SAPE   C3119472   2.229   6.523   6.668
  172SAPE   O3219473   2.169   6.540   6.567
  172SAPE   C3219474   2.161   6.509   6.803
  172SAPE   H2X19475   2.185   6.406   6.838
  172SAPE   H2Y19476   2.052   6.519   6.788
  172SAPE   C2319477   2.945   6.519   6.888
  172SAPE   H3R19478   2.935   6.614   6.945
  172SAPE   H3S19479   3.022   6.544   6.812
  172SAPE   C2419480   2.995   6.405   6.986
  172SAPE   H4R19481   2.995   6.313   6.924
  172SAPE   H4S19482   2.916   6.392   7.064
  172SAPE   C2519483   3.127   6.428   7.050
  172SAPE   H5R19484   3.215   6.419   6.985
  172SAPE   C2619485   3.159   6.454   7.182
  172SAPE   H6R19486   3.263   6.443   7.215
  172SAPE   C2719487   3.060   6.478   7.294
  172SAPE   H7R19488   3.014   6.382   7.324
  172SAPE   H7S19489   2.979   6.545   7.257
  172SAPE   C2819490   3.120   6.549   7.419
  172SAPE   H8R19491   3.148   6.655   7.408
  172SAPE   C2919492   3.159   6.485   7.524
  172SAPE   H9R19493   3.184   6.545   7.613
  172SAPE  C21019494   3.145   6.334   7.557
  172SAPE  H10R19495   3.128   6.279   7.462
  172SAPE  H10S19496   3.058   6.311   7.622
  172SAPE  C21119497   3.276   6.295   7.615
  172SAPE  H11R19498   3.345   6.249   7.543
  172SAPE  C21219499   3.301   6.285   7.749
  172SAPE  H12R19500   3.399   6.240   7.772
  172SAPE  C21319501   3.227   6.326   7.870
  172SAPE  H13R19502   3.120   6.296   7.865
  172SAPE  H13S19503   3.219   6.437   7.873
  172SAPE  C21419504   3.277   6.278   8.003
  172SAPE  H14R19505   3.331   6.356   8.059
  172SAPE  C21519506   3.272   6.155   8.056
  172SAPE  H15R19507   3.308   6.125   8.155
  172SAPE  C21619508   3.172   6.051   8.008
  172SAPE  H16R19509   3.211   5.947   8.008
  172SAPE  H16S19510   3.153   6.058   7.899
  172SAPE  C21719511   3.052   6.059   8.105
  172SAPE  H17R19512   3.078   6.054   8.212
  172SAPE  H17S19513   2.987   5.972   8.084
  172SAPE  C21819514   2.957   6.183   8.077
  172SAPE  H18R19515   2.942   6.172   7.967
  172SAPE  H18S19516   3.023   6.271   8.091
  172SAPE  C21919517   2.820   6.201   8.149
  172SAPE  H19R19518   2.760   6.110   8.126
  172SAPE  H19S19519   2.763   6.289   8.112
  172SAPE  C22019520   2.841   6.212   8.301
  172SAPE  H20R19521   2.748   6.207   8.362
  172SAPE  H20S19522   2.901   6.305   8.312
  172SAPE  H20T19523   2.905   6.129   8.338
  172SAPE   C3319524   2.206   6.593   6.919
  172SAPE   H3X19525   2.181   6.699   6.900
  172SAPE   H3Y19526   2.313   6.575   6.946
  172SAPE   C3419527   2.119   6.562   7.049
  172SAPE   H4X19528   2.099   6.453   7.064
  172SAPE   H4Y19529   2.021   6.606   7.021
  172SAPE   C3519530   2.192   6.611   7.174
  172SAPE   H5X19531   2.253   6.701   7.149
  172SAPE   H5Y19532   2.269   6.537   7.205
  172SAPE   C3619533   2.099   6.638   7.289
  172SAPE   H6X19534   2.038   6.547   7.310
  172SAPE   H6Y19535   2.017   6.705   7.252
  172SAPE   C3719536   2.178   6.684   7.408
  172SAPE   H7X19537   2.114   6.735   7.483
  172SAPE   H7Y19538   2.247   6.758   7.361
  172SAPE   C3819539   2.261   6.575   7.477
  172SAPE   H8X19540   2.337   6.524   7.415
  172SAPE   H8Y19541   2.195   6.490   7.504
  172SAPE   C3919542   2.321   6.639   7.608
  172SAPE   H9X19543   2.339   6.747   7.590
  172SAPE   H9Y19544   2.425   6.600   7.619
  172SAPE  C31019545   2.229   6.623   7.725
  172SAPE  H10X19546   2.230   6.522   7.770
  172SAPE  H10Y19547   2.124   6.637   7.692
  172SAPE  C31119548   2.251   6.724   7.843
  172SAPE  H11X19549   2.239   6.833   7.825
  172SAPE  H11Y19550   2.353   6.702   7.881
  172SAPE  C31219551   2.152   6.696   7.961
  172SAPE  H12X19552   2.162   6.591   7.995
  172SAPE  H12Y19553   2.051   6.716   7.920
  172SAPE  C31319554   2.182   6.786   8.076
  172SAPE  H13X19555   2.142   6.884   8.044
  172SAPE  H13Y19556   2.291   6.795   8.094
  172SAPE  C31419557   2.097   6.761   8.205
  172SAPE  H14X19558   1.988   6.771   8.182
  172SAPE  H14Y19559   2.121   6.842   8.276
  172SAPE  C31519560   2.130   6.634   8.277
  172SAPE  H15X19561   2.237   6.636   8.306
  172SAPE  H15Y19562   2.116   6.547   8.210
  172SAPE  C31619563   2.038   6.604   8.400
  172SAPE  H16X19564   2.064   6.501   8.432
  172SAPE  H16Y19565   1.931   6.615   8.371
  172SAPE  C31719566   2.069   6.700   8.519
  172SAPE  H17X19567   2.018   6.650   8.604
  172SAPE  H17Y19568   2.013   6.794   8.502
  172SAPE  C31819569   2.207   6.727   8.573
  172SAPE  H18X19570   2.255   6.788   8.493
  172SAPE  H18Y19571   2.265   6.637   8.604
  172SAPE  H18Z19572   2.205   6.795   8.661
  173SOPE     N19573   2.963   3.970  11.088
  173SOPE   HN119574   2.876   3.985  11.144
  173SOPE   HN219575   3.025   3.908  11.143
  173SOPE   HN319576   3.021   4.056  11.079
  173SOPE   C1219577   2.935   3.931  10.939
  173SOPE  H12A19578   2.859   3.997  10.893
  173SOPE  H12B19579   2.894   3.827  10.938
  173SOPE   C1119580   3.068   3.937  10.865
  173SOPE  H11A19581   3.093   4.045  10.870
  173SOPE  H11B19582   3.059   3.916  10.757
  173SOPE     P19583   3.202   3.715  10.926
  173SOPE   O1319584   3.069   3.653  10.950
  173SOPE   O1419585   3.305   3.669  11.020
  173SOPE   O1219586   3.176   3.868  10.935
  173SOPE   O1119587   3.261   3.693  10.779
  173SOPE    C119588   3.338   3.783  10.703
  173SOPE    HA19589   3.432   3.815  10.753
  173SOPE    HB19590   3.283   3.878  10.688
  173SOPE    C219591   3.355   3.724  10.560
  173SOPE    HS19592   3.423   3.790  10.503
  173SOPE   O2119593   3.236   3.701  10.481
  173SOPE   C2119594   3.171   3.811  10.444
  173SOPE   O2219595   3.201   3.922  10.482
  173SOPE   C2219596   3.070   3.777  10.329
  173SOPE   H2R19597   2.966   3.778  10.368
  173SOPE   H2S19598   3.092   3.671  10.304
  173SOPE    C319599   3.437   3.593  10.564
  173SOPE    HX19600   3.404   3.526  10.645
  173SOPE    HY19601   3.534   3.622  10.610
  173SOPE   O3119602   3.450   3.535  10.429
  173SOPE   C3119603   3.360   3.439  10.410
  173SOPE   O3219604   3.274   3.395  10.480
  173SOPE   C3219605   3.384   3.388  10.262
  173SOPE   H2X19606   3.375   3.277  10.264
  173SOPE   H2Y19607   3.480   3.427  10.222
  173SOPE   C2319608   3.071   3.855  10.201
  173SOPE   H3R19609   3.100   3.960  10.226
  173SOPE   H3S19610   2.978   3.857  10.141
  173SOPE   C2419611   3.173   3.792  10.102
  173SOPE   H4R19612   3.274   3.784  10.149
  173SOPE   H4S19613   3.127   3.691  10.093
  173SOPE   C2519614   3.159   3.860   9.962
  173SOPE   H5R19615   3.219   3.802   9.889
  173SOPE   H5S19616   3.056   3.848   9.922
  173SOPE   C2619617   3.202   4.004   9.950
  173SOPE   H6R19618   3.136   4.073  10.007
  173SOPE   H6S19619   3.297   4.020  10.006
  173SOPE   C2719620   3.214   4.049   9.797
  173SOPE   H7R19621   3.286   3.974   9.760
  173SOPE   H7S19622   3.115   4.030   9.750
  173SOPE   C2819623   3.250   4.196   9.786
  173SOPE   H8R19624   3.339   4.216   9.849
  173SOPE   H8S19625   3.301   4.209   9.688
  173SOPE   C2919626   3.129   4.282   9.820
  173SOPE   H9119627   3.088   4.287   9.922
  173SOPE  C21019628   3.073   4.362   9.725
  173SOPE  H10119629   2.990   4.428   9.755
  173SOPE  C21119630   3.113   4.354   9.579
  173SOPE  H11R19631   3.103   4.249   9.544
  173SOPE  H11S19632   3.219   4.387   9.566
  173SOPE  C21219633   3.018   4.449   9.502
  173SOPE  H12R19634   3.002   4.553   9.539
  173SOPE  H12S19635   2.922   4.393   9.507
  173SOPE  C21319636   3.064   4.473   9.359
  173SOPE  H13R19637   3.087   4.369   9.329
  173SOPE  H13S19638   3.161   4.527   9.357
  173SOPE  C21419639   2.966   4.537   9.266
  173SOPE  H14R19640   3.021   4.568   9.174
  173SOPE  H14S19641   2.915   4.628   9.303
  173SOPE  C21519642   2.855   4.441   9.223
  173SOPE  H15R19643   2.807   4.385   9.306
  173SOPE  H15S19644   2.910   4.364   9.166
  173SOPE  C21619645   2.756   4.517   9.129
  173SOPE  H16R19646   2.802   4.591   9.061
  173SOPE  H16S19647   2.692   4.574   9.200
  173SOPE  C21719648   2.650   4.437   9.053
  173SOPE  H17R19649   2.591   4.388   9.133
  173SOPE  H17S19650   2.690   4.354   8.992
  173SOPE  C21819651   2.569   4.531   8.965
  173SOPE  H18R19652   2.517   4.471   8.887
  173SOPE  H18S19653   2.639   4.610   8.931
  173SOPE  H18T19654   2.489   4.569   9.032
  173SOPE   C3319655   3.257   3.424  10.177
  173SOPE   H3X19656   3.270   3.533  10.157
  173SOPE   H3Y19657   3.157   3.436  10.224
  173SOPE   C3419658   3.229   3.347  10.046
  173SOPE   H4X19659   3.188   3.247  10.072
  173SOPE   H4Y19660   3.325   3.320   9.996
  173SOPE   C3519661   3.144   3.415   9.945
  173SOPE   H5X19662   3.171   3.381   9.843
  173SOPE   H5Y19663   3.172   3.522   9.956
  173SOPE   C3619664   2.998   3.387   9.979
  173SOPE   H6X19665   2.962   3.469  10.045
  173SOPE   H6Y19666   2.980   3.295  10.038
  173SOPE   C3719667   2.899   3.392   9.851
  173SOPE   H7X19668   2.939   3.471   9.784
  173SOPE   H7Y19669   2.797   3.418   9.887
  173SOPE   C3819670   2.889   3.256   9.782
  173SOPE   H8X19671   2.865   3.181   9.860
  173SOPE   H8Y19672   2.988   3.237   9.736
  173SOPE   C3919673   2.797   3.252   9.660
  173SOPE   H9X19674   2.810   3.342   9.596
  173SOPE   H9Y19675   2.692   3.247   9.696
  173SOPE  C31019676   2.840   3.136   9.565
  173SOPE  H10X19677   2.796   3.048   9.616
  173SOPE  H10Y19678   2.951   3.141   9.558
  173SOPE  C31119679   2.778   3.160   9.426
  173SOPE  H11X19680   2.808   3.250   9.368
  173SOPE  H11Y19681   2.667   3.168   9.434
  173SOPE  C31219682   2.800   3.038   9.329
  173SOPE  H12X19683   2.734   2.959   9.368
  173SOPE  H12Y19684   2.905   3.005   9.341
  173SOPE  C31319685   2.763   3.072   9.187
  173SOPE  H13X19686   2.819   3.165   9.164
  173SOPE  H13Y19687   2.657   3.100   9.165
  173SOPE  C31419688   2.808   2.964   9.086
  173SOPE  H14X19689   2.774   2.860   9.106
  173SOPE  H14Y19690   2.917   2.948   9.095
  173SOPE  C31519691   2.775   2.999   8.934
  173SOPE  H15X19692   2.805   3.100   8.897
  173SOPE  H15Y19693   2.665   2.991   8.938
  173SOPE  C31619694   2.830   2.907   8.825
  173SOPE  H16X19695   2.796   2.805   8.854
  173SOPE  H16Y19696   2.941   2.901   8.818
  173SOPE  C31719697   2.768   2.936   8.687
  173SOPE  H17X19698   2.754   3.045   8.673
  173SOPE  H17Y19699   2.666   2.894   8.685
  173SOPE  C31819700   2.838   2.862   8.572
  173SOPE  H18X19701   2.788   2.878   8.474
  173SOPE  H18Y19702   2.825   2.755   8.601
  173SOPE  H18Z19703   2.943   2.894   8.558
  174SOPE     N19704   2.669   3.355  10.903
  174SOPE   HN119705   2.771   3.343  10.890
  174SOPE   HN219706   2.633   3.440  10.951
  174SOPE   HN319707   2.629   3.267  10.941
  174SOPE   C1219708   2.606   3.376  10.775
  174SOPE  H12A19709   2.645   3.473  10.736
  174SOPE  H12B19710   2.499   3.398  10.795
  174SOPE   C1119711   2.615   3.266  10.671
  174SOPE  H11A19712   2.564   3.308  10.582
  174SOPE  H11B19713   2.567   3.174  10.712
  174SOPE     P19714   2.833   3.125  10.691
  174SOPE   O1319715   2.747   3.011  10.719
  174SOPE   O1419716   2.899   3.179  10.817
  174SOPE   O1219717   2.750   3.240  10.623
  174SOPE   O1119718   2.937   3.078  10.587
  174SOPE    C119719   3.021   3.177  10.526
  174SOPE    HA19720   3.124   3.179  10.565
  174SOPE    HB19721   2.989   3.281  10.549
  174SOPE    C219722   3.025   3.166  10.368
  174SOPE    HS19723   3.106   3.236  10.337
  174SOPE   O2119724   2.901   3.187  10.298
  174SOPE   C2119725   2.836   3.294  10.330
  174SOPE   O2219726   2.887   3.400  10.374
  174SOPE   C2219727   2.694   3.282  10.294
  174SOPE   H2R19728   2.644   3.381  10.284
  174SOPE   H2S19729   2.644   3.231  10.380
  174SOPE    C319730   3.086   3.038  10.338
  174SOPE    HX19731   3.025   2.952  10.373
  174SOPE    HY19732   3.176   3.020  10.400
  174SOPE   O3119733   3.127   3.029  10.198
  174SOPE   C3119734   3.062   2.940  10.123
  174SOPE   O3219735   2.980   2.856  10.156
  174SOPE   C3219736   3.124   2.948   9.988
  174SOPE   H2X19737   3.218   2.889   9.997
  174SOPE   H2Y19738   3.146   3.055   9.971
  174SOPE   C2319739   2.668   3.207  10.157
  174SOPE   H3R19740   2.695   3.099  10.156
  174SOPE   H3S19741   2.731   3.252  10.077
  174SOPE   C2419742   2.518   3.210  10.112
  174SOPE   H4R19743   2.469   3.136  10.178
  174SOPE   H4S19744   2.484   3.315  10.126
  174SOPE   C2519745   2.512   3.159   9.966
  174SOPE   H5R19746   2.549   3.238   9.897
  174SOPE   H5S19747   2.580   3.072   9.963
  174SOPE   C2619748   2.375   3.113   9.920
  174SOPE   H6R19749   2.349   3.034   9.994
  174SOPE   H6S19750   2.299   3.194   9.927
  174SOPE   C2719751   2.373   3.045   9.782
  174SOPE   H7R19752   2.455   3.082   9.717
  174SOPE   H7S19753   2.394   2.936   9.788
  174SOPE   C2819754   2.240   3.064   9.708
  174SOPE   H8R19755   2.156   3.054   9.780
  174SOPE   H8S19756   2.244   3.168   9.671
  174SOPE   C2919757   2.241   2.968   9.594
  174SOPE   H9119758   2.202   2.869   9.623
  174SOPE  C21019759   2.265   2.994   9.458
  174SOPE  H10119760   2.260   2.920   9.377
  174SOPE  C21119761   2.320   3.127   9.403
  174SOPE  H11R19762   2.382   3.180   9.479
  174SOPE  H11S19763   2.235   3.193   9.376
  174SOPE  C21219764   2.410   3.097   9.282
  174SOPE  H12R19765   2.464   3.002   9.302
  174SOPE  H12S19766   2.482   3.181   9.276
  174SOPE  C21319767   2.324   3.082   9.158
  174SOPE  H13R19768   2.275   3.181   9.141
  174SOPE  H13S19769   2.242   3.010   9.177
  174SOPE  C21419770   2.403   3.041   9.033
  174SOPE  H14R19771   2.456   2.947   9.060
  174SOPE  H14S19772   2.484   3.115   9.011
  174SOPE  C21519773   2.316   2.999   8.912
  174SOPE  H15R19774   2.247   3.081   8.885
  174SOPE  H15S19775   2.262   2.905   8.938
  174SOPE  C21619776   2.414   2.973   8.790
  174SOPE  H16R19777   2.485   2.895   8.824
  174SOPE  H16S19778   2.470   3.068   8.774
  174SOPE  C21719779   2.331   2.941   8.661
  174SOPE  H17R19780   2.258   3.020   8.634
  174SOPE  H17S19781   2.270   2.848   8.667
  174SOPE  C21819782   2.419   2.925   8.541
  174SOPE  H18R19783   2.376   2.908   8.439
  174SOPE  H18S19784   2.479   2.834   8.560
  174SOPE  H18T19785   2.493   3.007   8.541
  174SOPE   C3319786   3.040   2.878   9.875
  174SOPE   H3X19787   2.943   2.931   9.859
  174SOPE   H3Y19788   3.000   2.782   9.914
  174SOPE   C3419789   3.121   2.850   9.746
  174SOPE   H4X19790   3.200   2.775   9.768
  174SOPE   H4Y19791   3.165   2.948   9.720
  174SOPE   C3519792   3.028   2.795   9.634
  174SOPE   H5X19793   2.938   2.860   9.631
  174SOPE   H5Y19794   3.005   2.688   9.655
  174SOPE   C3619795   3.103   2.812   9.501
  174SOPE   H6X19796   3.209   2.783   9.512
  174SOPE   H6Y19797   3.098   2.915   9.461
  174SOPE   C3719798   3.046   2.718   9.394
  174SOPE   H7X19799   2.935   2.725   9.390
  174SOPE   H7Y19800   3.072   2.615   9.425
  174SOPE   C3819801   3.116   2.738   9.259
  174SOPE   H8X19802   3.218   2.697   9.269
  174SOPE   H8Y19803   3.112   2.843   9.223
  174SOPE   C3919804   3.050   2.649   9.157
  174SOPE   H9X19805   2.942   2.675   9.155
  174SOPE   H9Y19806   3.060   2.544   9.192
  174SOPE  C31019807   3.114   2.662   9.014
  174SOPE  H10X19808   3.223   2.648   9.030
  174SOPE  H10Y19809   3.090   2.760   8.967
  174SOPE  C31119810   3.066   2.549   8.924
  174SOPE  H11X19811   2.957   2.562   8.911
  174SOPE  H11Y19812   3.093   2.450   8.965
  174SOPE  C31219813   3.139   2.551   8.787
  174SOPE  H12X19814   3.242   2.591   8.796
  174SOPE  H12Y19815   3.081   2.618   8.720
  174SOPE  C31319816   3.140   2.413   8.722
  174SOPE  H13X19817   3.039   2.370   8.742
  174SOPE  H13Y19818   3.216   2.350   8.772
  174SOPE  C31419819   3.164   2.415   8.566
  174SOPE  H14X19820   3.162   2.310   8.531
  174SOPE  H14Y19821   3.265   2.451   8.537
  174SOPE  C31519822   3.064   2.505   8.488
  174SOPE  H15X19823   3.096   2.611   8.499
  174SOPE  H15Y19824   2.965   2.499   8.537
  174SOPE  C31619825   3.047   2.465   8.342
  174SOPE  H16X19826   3.022   2.357   8.332
  174SOPE  H16Y19827   3.145   2.480   8.291
  174SOPE  C31719828   2.953   2.554   8.258
  174SOPE  H17X19829   2.954   2.517   8.154
  174SOPE  H17Y19830   2.980   2.661   8.247
  174SOPE  C31819831   2.800   2.549   8.285
  174SOPE  H18X19832   2.769   2.443   8.293
  174SOPE  H18Y19833   2.734   2.589   8.206
  174SOPE  H18Z19834   2.779   2.602   8.381
  175SOPE     N19835   4.955   5.438  10.709
  175SOPE   HN119836   4.911   5.512  10.769
  175SOPE   HN219837   5.012   5.371  10.765
  175SOPE   HN319838   5.017   5.499  10.653
  175SOPE   C1219839   4.857   5.362  10.628
  175SOPE  H12A19840   4.790   5.439  10.583
  175SOPE  H12B19841   4.792   5.314  10.704
  175SOPE   C1119842   4.917   5.259  10.533
  175SOPE  H11A19843   4.978   5.315  10.459
  175SOPE  H11B19844   4.834   5.207  10.480
  175SOPE     P19845   5.120   5.076  10.554
  175SOPE   O1319846   5.151   4.975  10.657
  175SOPE   O1419847   5.231   5.167  10.510
  175SOPE   O1219848   4.996   5.156  10.595
  175SOPE   O1119849   5.077   4.995  10.424
  175SOPE    C119850   4.947   4.925  10.414
  175SOPE    HA19851   4.894   4.934  10.511
  175SOPE    HB19852   4.959   4.816  10.400
  175SOPE    C219853   4.856   4.977  10.299
  175SOPE    HS19854   4.791   5.059  10.337
  175SOPE   O2119855   4.764   4.876  10.245
  175SOPE   C2119856   4.670   4.848  10.326
  175SOPE   O2219857   4.655   4.890  10.439
  175SOPE   C2219858   4.569   4.763  10.250
  175SOPE   H2R19859   4.508   4.727  10.336
  175SOPE   H2S19860   4.609   4.667  10.213
  175SOPE    C319861   4.942   5.023  10.186
  175SOPE    HX19862   5.006   4.941  10.146
  175SOPE    HY19863   5.014   5.101  10.216
  175SOPE   O3119864   4.857   5.067  10.074
  175SOPE   C3119865   4.836   5.199  10.063
  175SOPE   O3219866   4.888   5.285  10.127
  175SOPE   C3219867   4.730   5.233   9.950
  175SOPE   H2X19868   4.641   5.280   9.996
  175SOPE   H2Y19869   4.702   5.139   9.897
  175SOPE   C2319870   4.484   4.841  10.156
  175SOPE   H3R19871   4.432   4.930  10.196
  175SOPE   H3S19872   4.399   4.774  10.131
  175SOPE   C2419873   4.552   4.877  10.031
  175SOPE   H4R19874   4.636   4.949  10.037
  175SOPE   H4S19875   4.579   4.778   9.988
  175SOPE   C2519876   4.449   4.939   9.932
  175SOPE   H5R19877   4.360   4.875   9.944
  175SOPE   H5S19878   4.422   5.041   9.967
  175SOPE   C2619879   4.506   4.941   9.788
  175SOPE   H6R19880   4.562   5.037   9.789
  175SOPE   H6S19881   4.582   4.860   9.783
  175SOPE   C2719882   4.402   4.938   9.672
  175SOPE   H7R19883   4.368   4.832   9.671
  175SOPE   H7S19884   4.316   5.004   9.694
  175SOPE   C2819885   4.468   4.979   9.540
  175SOPE   H8R19886   4.508   5.079   9.568
  175SOPE   H8S19887   4.553   4.913   9.514
  175SOPE   C2919888   4.375   4.999   9.421
  175SOPE   H9119889   4.273   5.024   9.453
  175SOPE  C21019890   4.386   4.958   9.294
  175SOPE  H10119891   4.302   4.990   9.231
  175SOPE  C21119892   4.503   4.893   9.219
  175SOPE  H11R19893   4.589   4.881   9.289
  175SOPE  H11S19894   4.529   4.965   9.139
  175SOPE  C21219895   4.462   4.760   9.157
  175SOPE  H12R19896   4.375   4.787   9.094
  175SOPE  H12S19897   4.432   4.692   9.239
  175SOPE  C21319898   4.569   4.686   9.071
  175SOPE  H13R19899   4.521   4.597   9.026
  175SOPE  H13S19900   4.645   4.660   9.148
  175SOPE  C21419901   4.639   4.773   8.958
  175SOPE  H14R19902   4.704   4.851   9.003
  175SOPE  H14S19903   4.568   4.846   8.913
  175SOPE  C21519904   4.721   4.699   8.856
  175SOPE  H15R19905   4.816   4.663   8.901
  175SOPE  H15S19906   4.749   4.778   8.784
  175SOPE  C21619907   4.653   4.584   8.784
  175SOPE  H16R19908   4.625   4.498   8.848
  175SOPE  H16S19909   4.721   4.545   8.705
  175SOPE  C21719910   4.526   4.622   8.712
  175SOPE  H17R19911   4.541   4.690   8.625
  175SOPE  H17S19912   4.458   4.680   8.779
  175SOPE  C21819913   4.448   4.502   8.658
  175SOPE  H18R19914   4.511   4.421   8.616
  175SOPE  H18S19915   4.371   4.528   8.582
  175SOPE  H18T19916   4.405   4.445   8.743
  175SOPE   C3319917   4.796   5.334   9.854
  175SOPE   H3X19918   4.820   5.429   9.906
  175SOPE   H3Y19919   4.730   5.372   9.773
  175SOPE   C3419920   4.913   5.272   9.781
  175SOPE   H4X19921   4.872   5.178   9.739
  175SOPE   H4Y19922   5.004   5.272   9.845
  175SOPE   C3519923   4.946   5.360   9.660
  175SOPE   H5X19924   4.980   5.464   9.679
  175SOPE   H5Y19925   4.849   5.364   9.606
  175SOPE   C3619926   5.053   5.287   9.573
  175SOPE   H6X19927   5.015   5.186   9.548
  175SOPE   H6Y19928   5.147   5.277   9.631
  175SOPE   C3719929   5.069   5.366   9.438
  175SOPE   H7X19930   5.146   5.310   9.381
  175SOPE   H7Y19931   5.102   5.472   9.447
  175SOPE   C3819932   4.949   5.351   9.349
  175SOPE   H8X19933   4.970   5.394   9.249
  175SOPE   H8Y19934   4.862   5.403   9.395
  175SOPE   C3919935   4.892   5.203   9.336
  175SOPE   H9X19936   4.845   5.170   9.431
  175SOPE   H9Y19937   4.979   5.138   9.311
  175SOPE  C31019938   4.786   5.180   9.224
  175SOPE  H10X19939   4.694   5.231   9.260
  175SOPE  H10Y19940   4.768   5.072   9.211
  175SOPE  C31119941   4.820   5.230   9.090
  175SOPE  H11X19942   4.920   5.203   9.052
  175SOPE  H11Y19943   4.817   5.341   9.083
  175SOPE  C31219944   4.723   5.182   8.983
  175SOPE  H12X19945   4.623   5.217   9.015
  175SOPE  H12Y19946   4.715   5.072   8.968
  175SOPE  C31319947   4.748   5.249   8.847
  175SOPE  H13X19948   4.839   5.209   8.798
  175SOPE  H13Y19949   4.755   5.359   8.861
  175SOPE  C31419950   4.634   5.211   8.745
  175SOPE  H14X19951   4.537   5.232   8.794
  175SOPE  H14Y19952   4.628   5.101   8.730
  175SOPE  C31519953   4.645   5.296   8.614
  175SOPE  H15X19954   4.744   5.279   8.567
  175SOPE  H15Y19955   4.643   5.404   8.637
  175SOPE  C31619956   4.536   5.251   8.514
  175SOPE  H16X19957   4.445   5.261   8.578
  175SOPE  H16Y19958   4.554   5.145   8.487
  175SOPE  C31719959   4.524   5.337   8.384
  175SOPE  H17X19960   4.460   5.274   8.319
  175SOPE  H17Y19961   4.626   5.330   8.340
  175SOPE  C31819962   4.471   5.477   8.405
  175SOPE  H18X19963   4.544   5.540   8.461
  175SOPE  H18Y19964   4.378   5.476   8.467
  175SOPE  H18Z19965   4.443   5.526   8.309
  176SOPE     N19966   4.719   4.448  11.014
  176SOPE   HN119967   4.784   4.502  10.954
  176SOPE   HN219968   4.665   4.513  11.075
  176SOPE   HN319969   4.777   4.400  11.086
  176SOPE   C1219970   4.631   4.352  10.932
  176SOPE  H12A19971   4.636   4.248  10.971
  176SOPE  H12B19972   4.668   4.353  10.827
  176SOPE   C1119973   4.482   4.401  10.926
  176SOPE  H11A19974   4.434   4.413  11.026
  176SOPE  H11B19975   4.429   4.322  10.869
  176SOPE     P19976   4.337   4.598  10.826
  176SOPE   O1319977   4.348   4.704  10.719
  176SOPE   O1419978   4.284   4.651  10.958
  176SOPE   O1219979   4.478   4.527  10.858
  176SOPE   O1119980   4.246   4.476  10.774
  176SOPE    C119981   4.211   4.450  10.641
  176SOPE    HA19982   4.226   4.541  10.578
  176SOPE    HB19983   4.104   4.427  10.620
  176SOPE    C219984   4.300   4.331  10.581
  176SOPE    HS19985   4.390   4.315  10.644
  176SOPE   O2119986   4.332   4.365  10.445
  176SOPE   C2119987   4.425   4.297  10.389
  176SOPE   O2219988   4.489   4.208  10.443
  176SOPE   C2219989   4.442   4.335  10.241
  176SOPE   H2R19990   4.446   4.239  10.186
  176SOPE   H2S19991   4.536   4.389  10.216
  176SOPE    C319992   4.233   4.195  10.588
  176SOPE    HX19993   4.210   4.185  10.696
  176SOPE    HY19994   4.298   4.112  10.553
  176SOPE   O3119995   4.104   4.200  10.519
  176SOPE   C3119996   4.034   4.080  10.516
  176SOPE   O3219997   4.068   3.987  10.581
  176SOPE   C3219998   3.906   4.068  10.427
  176SOPE   H2X19999   3.930   4.105  10.325
  176SOPE   H2Y20000   3.817   4.126  10.459
  176SOPE   C2320001   4.342   4.423  10.172
  176SOPE   H3R20002   4.309   4.506  10.237
  176SOPE   H3S20003   4.265   4.346  10.151
  176SOPE   C2420004   4.397   4.479  10.040
  176SOPE   H4R20005   4.312   4.530   9.989
  176SOPE   H4S20006   4.488   4.542  10.048
  176SOPE   C2520007   4.429   4.360   9.938
  176SOPE   H5R20008   4.517   4.300   9.971
  176SOPE   H5S20009   4.343   4.291   9.953
  176SOPE   C2620010   4.462   4.414   9.799
  176SOPE   H6R20011   4.530   4.502   9.809
  176SOPE   H6S20012   4.521   4.330   9.756
  176SOPE   C2720013   4.335   4.430   9.711
  176SOPE   H7R20014   4.279   4.334   9.718
  176SOPE   H7S20015   4.277   4.515   9.754
  176SOPE   C2820016   4.362   4.471   9.566
  176SOPE   H8R20017   4.260   4.496   9.532
  176SOPE   H8S20018   4.419   4.566   9.565
  176SOPE   C2920019   4.424   4.354   9.495
  176SOPE   H9120020   4.363   4.263   9.500
  176SOPE  C21020021   4.547   4.342   9.444
  176SOPE  H10120022   4.572   4.237   9.421
  176SOPE  C21120023   4.654   4.445   9.438
  176SOPE  H11R20024   4.615   4.543   9.473
  176SOPE  H11S20025   4.699   4.457   9.337
  176SOPE  C21220026   4.772   4.411   9.539
  176SOPE  H12R20027   4.733   4.404   9.643
  176SOPE  H12S20028   4.846   4.491   9.520
  176SOPE  C21320029   4.835   4.270   9.507
  176SOPE  H13R20030   4.881   4.270   9.406
  176SOPE  H13S20031   4.761   4.187   9.499
  176SOPE  C21420032   4.945   4.231   9.604
  176SOPE  H14R20033   4.901   4.226   9.706
  176SOPE  H14S20034   5.029   4.303   9.602
  176SOPE  C21520035   4.998   4.095   9.576
  176SOPE  H15R20036   4.998   4.083   9.466
  176SOPE  H15S20037   4.935   4.015   9.621
  176SOPE  C21620038   5.145   4.068   9.632
  176SOPE  H16R20039   5.192   4.152   9.577
  176SOPE  H16S20040   5.171   3.966   9.595
  176SOPE  C21720041   5.177   4.079   9.779
  176SOPE  H17R20042   5.154   4.182   9.812
  176SOPE  H17S20043   5.287   4.064   9.793
  176SOPE  C21820044   5.087   3.982   9.863
  176SOPE  H18R20045   5.076   3.882   9.816
  176SOPE  H18S20046   4.981   4.016   9.872
  176SOPE  H18T20047   5.135   3.968   9.962
  176SOPE   C3320048   3.871   3.915  10.410
  176SOPE   H3X20049   3.873   3.867  10.511
  176SOPE   H3Y20050   3.944   3.883  10.333
  176SOPE   C3420051   3.729   3.891  10.359
  176SOPE   H4X20052   3.726   3.943  10.260
  176SOPE   H4Y20053   3.646   3.932  10.420
  176SOPE   C3520054   3.723   3.743  10.317
  176SOPE   H5X20055   3.677   3.709  10.412
  176SOPE   H5Y20056   3.819   3.690  10.301
  176SOPE   C3620057   3.629   3.717  10.194
  176SOPE   H6X20058   3.534   3.764  10.226
  176SOPE   H6Y20059   3.599   3.611  10.183
  176SOPE   C3720060   3.683   3.772  10.063
  176SOPE   H7X20061   3.761   3.697  10.036
  176SOPE   H7Y20062   3.729   3.873  10.070
  176SOPE   C3820063   3.568   3.770   9.956
  176SOPE   H8X20064   3.539   3.877   9.964
  176SOPE   H8Y20065   3.489   3.701   9.992
  176SOPE   C3920066   3.619   3.730   9.817
  176SOPE   H9X20067   3.657   3.626   9.824
  176SOPE   H9Y20068   3.709   3.789   9.788
  176SOPE  C31020069   3.506   3.727   9.715
  176SOPE  H10X20070   3.460   3.828   9.706
  176SOPE  H10Y20071   3.422   3.660   9.744
  176SOPE  C31120072   3.561   3.693   9.576
  176SOPE  H11X20073   3.482   3.673   9.500
  176SOPE  H11Y20074   3.614   3.596   9.584
  176SOPE  C31220075   3.658   3.795   9.518
  176SOPE  H12X20076   3.763   3.775   9.550
  176SOPE  H12Y20077   3.624   3.892   9.560
  176SOPE  C31320078   3.665   3.793   9.369
  176SOPE  H13X20079   3.563   3.780   9.327
  176SOPE  H13Y20080   3.704   3.692   9.344
  176SOPE  C31420081   3.725   3.911   9.303
  176SOPE  H14X20082   3.833   3.925   9.324
  176SOPE  H14Y20083   3.680   4.007   9.339
  176SOPE  C31520084   3.714   3.912   9.145
  176SOPE  H15X20085   3.730   4.016   9.109
  176SOPE  H15Y20086   3.606   3.896   9.125
  176SOPE  C31620087   3.819   3.822   9.092
  176SOPE  H16X20088   3.798   3.714   9.104
  176SOPE  H16Y20089   3.919   3.853   9.127
  176SOPE  C31720090   3.824   3.818   8.940
  176SOPE  H17X20091   3.882   3.908   8.908
  176SOPE  H17Y20092   3.720   3.829   8.904
  176SOPE  C31820093   3.896   3.696   8.887
  176SOPE  H18X20094   3.921   3.697   8.779
  176SOPE  H18Y20095   3.839   3.602   8.904
  176SOPE  H18Z20096   3.992   3.678   8.939
  177SOPE     N20097   3.623   2.448  11.424
  177SOPE   HN120098   3.555   2.524  11.443
  177SOPE   HN220099   3.570   2.361  11.404
  177SOPE   HN320100   3.686   2.431  11.505
  177SOPE   C1220101   3.708   2.485  11.302
  177SOPE  H12A20102   3.792   2.545  11.343
  177SOPE  H12B20103   3.649   2.546  11.230
  177SOPE   C1120104   3.751   2.355  11.226
  177SOPE  H11A20105   3.824   2.313  11.298
  177SOPE  H11B20106   3.810   2.384  11.137
  177SOPE     P20107   3.568   2.250  11.071
  177SOPE   O1320108   3.487   2.376  11.061
  177SOPE   O1420109   3.499   2.123  11.037
  177SOPE   O1220110   3.641   2.256  11.209
  177SOPE   O1120111   3.676   2.278  10.969
  177SOPE    C120112   3.777   2.184  10.922
  177SOPE    HA20113   3.760   2.086  10.972
  177SOPE    HB20114   3.879   2.211  10.957
  177SOPE    C220115   3.781   2.173  10.768
  177SOPE    HS20116   3.862   2.102  10.739
  177SOPE   O2120117   3.805   2.307  10.720
  177SOPE   C2120118   3.881   2.322  10.617
  177SOPE   O2220119   3.944   2.235  10.556
  177SOPE   C2220120   3.905   2.470  10.587
  177SOPE   H2R20121   4.015   2.476  10.601
  177SOPE   H2S20122   3.856   2.534  10.663
  177SOPE    C320123   3.641   2.115  10.726
  177SOPE    HX20124   3.561   2.192  10.735
  177SOPE    HY20125   3.609   2.035  10.795
  177SOPE   O3120126   3.643   2.049  10.594
  177SOPE   C3120127   3.618   2.135  10.490
  177SOPE   O3220128   3.590   2.255  10.504
  177SOPE   C3220129   3.634   2.059  10.365
  177SOPE   H2X20130   3.551   2.071  10.292
  177SOPE   H2Y20131   3.619   1.950  10.378
  177SOPE   C2320132   3.859   2.521  10.449
  177SOPE   H3R20133   3.753   2.497  10.425
  177SOPE   H3S20134   3.933   2.483  10.375
  177SOPE   C2420135   3.878   2.672  10.438
  177SOPE   H4R20136   3.813   2.734  10.503
  177SOPE   H4S20137   3.984   2.686  10.469
  177SOPE   C2520138   3.848   2.732  10.299
  177SOPE   H5R20139   3.738   2.724  10.285
  177SOPE   H5S20140   3.865   2.841  10.289
  177SOPE   C2620141   3.903   2.664  10.173
  177SOPE   H6R20142   4.009   2.642  10.194
  177SOPE   H6S20143   3.851   2.565  10.169
  177SOPE   C2720144   3.878   2.740  10.040
  177SOPE   H7R20145   3.769   2.755  10.028
  177SOPE   H7S20146   3.923   2.838  10.065
  177SOPE   C2820147   3.950   2.681   9.925
  177SOPE   H8R20148   3.947   2.762   9.849
  177SOPE   H8S20149   4.055   2.651   9.944
  177SOPE   C2920150   3.881   2.565   9.865
  177SOPE   H9120151   3.862   2.486   9.939
  177SOPE  C21020152   3.823   2.551   9.742
  177SOPE  H10120153   3.778   2.457   9.708
  177SOPE  C21120154   3.830   2.650   9.625
  177SOPE  H11R20155   3.866   2.750   9.658
  177SOPE  H11S20156   3.734   2.655   9.569
  177SOPE  C21220157   3.932   2.609   9.513
  177SOPE  H12R20158   4.034   2.631   9.552
  177SOPE  H12S20159   3.909   2.688   9.439
  177SOPE  C21320160   3.912   2.476   9.444
  177SOPE  H13R20161   3.819   2.503   9.389
  177SOPE  H13S20162   3.881   2.399   9.518
  177SOPE  C21420163   4.008   2.434   9.341
  177SOPE  H14R20164   3.976   2.332   9.308
  177SOPE  H14S20165   4.096   2.411   9.405
  177SOPE  C21520166   4.032   2.535   9.224
  177SOPE  H15R20167   4.092   2.625   9.249
  177SOPE  H15S20168   3.931   2.570   9.192
  177SOPE  C21620169   4.086   2.458   9.101
  177SOPE  H16R20170   4.004   2.386   9.078
  177SOPE  H16S20171   4.178   2.398   9.117
  177SOPE  C21720172   4.106   2.561   8.989
  177SOPE  H17R20173   4.168   2.638   9.040
  177SOPE  H17S20174   4.011   2.610   8.961
  177SOPE  C21820175   4.169   2.502   8.869
  177SOPE  H18R20176   4.122   2.403   8.850
  177SOPE  H18S20177   4.278   2.483   8.873
  177SOPE  H18T20178   4.153   2.567   8.780
  177SOPE   C3320179   3.769   2.081  10.287
  177SOPE   H3X20180   3.757   2.021  10.194
  177SOPE   H3Y20181   3.853   2.028  10.336
  177SOPE   C3420182   3.788   2.231  10.255
  177SOPE   H4X20183   3.895   2.254  10.235
  177SOPE   H4Y20184   3.766   2.297  10.341
  177SOPE   C3520185   3.704   2.277  10.132
  177SOPE   H5X20186   3.717   2.388  10.127
  177SOPE   H5Y20187   3.597   2.247  10.137
  177SOPE   C3620188   3.768   2.215  10.005
  177SOPE   H6X20189   3.757   2.104  10.001
  177SOPE   H6Y20190   3.874   2.248   9.992
  177SOPE   C3720191   3.685   2.251   9.877
  177SOPE   H7X20192   3.697   2.361   9.867
  177SOPE   H7Y20193   3.579   2.229   9.903
  177SOPE   C3820194   3.719   2.171   9.746
  177SOPE   H8X20195   3.700   2.063   9.768
  177SOPE   H8Y20196   3.829   2.172   9.727
  177SOPE   C3920197   3.651   2.230   9.620
  177SOPE   H9X20198   3.677   2.338   9.614
  177SOPE   H9Y20199   3.540   2.225   9.621
  177SOPE  C31020200   3.694   2.158   9.487
  177SOPE  H10X20201   3.707   2.050   9.513
  177SOPE  H10Y20202   3.789   2.194   9.441
  177SOPE  C31120203   3.593   2.170   9.376
  177SOPE  H11X20204   3.523   2.255   9.388
  177SOPE  H11Y20205   3.535   2.075   9.374
  177SOPE  C31220206   3.659   2.177   9.240
  177SOPE  H12X20207   3.741   2.102   9.240
  177SOPE  H12Y20208   3.703   2.279   9.236
  177SOPE  C31320209   3.560   2.160   9.116
  177SOPE  H13X20210   3.487   2.244   9.109
  177SOPE  H13Y20211   3.505   2.067   9.142
  177SOPE  C31420212   3.624   2.138   8.974
  177SOPE  H14X20213   3.551   2.072   8.923
  177SOPE  H14Y20214   3.699   2.059   8.994
  177SOPE  C31520215   3.671   2.258   8.892
  177SOPE  H15X20216   3.700   2.225   8.791
  177SOPE  H15Y20217   3.767   2.292   8.938
  177SOPE  C31620218   3.580   2.381   8.890
  177SOPE  H16X20219   3.567   2.429   8.989
  177SOPE  H16Y20220   3.477   2.351   8.861
  177SOPE  C31720221   3.620   2.490   8.792
  177SOPE  H17X20222   3.545   2.571   8.804
  177SOPE  H17Y20223   3.621   2.469   8.683
  177SOPE  C31820224   3.757   2.544   8.837
  177SOPE  H18X20225   3.770   2.637   8.777
  177SOPE  H18Y20226   3.833   2.470   8.805
  177SOPE  H18Z20227   3.766   2.566   8.945
  178SOPE     N20228   1.106   1.118  10.653
  178SOPE   HN120229   1.065   1.085  10.564
  178SOPE   HN220230   1.030   1.115  10.724
  178SOPE   HN320231   1.134   1.216  10.631
  178SOPE   C1220232   1.229   1.027  10.688
  178SOPE  H12A20233   1.219   1.016  10.798
  178SOPE  H12B20234   1.323   1.080  10.661
  178SOPE   C1120235   1.202   0.888  10.617
  178SOPE  H11A20236   1.270   0.807  10.648
  178SOPE  H11B20237   1.222   0.915  10.511
  178SOPE     P20238   1.009   0.728  10.701
  178SOPE   O1320239   0.870   0.738  10.739
  178SOPE   O1420240   1.096   0.672  10.808
  178SOPE   O1220241   1.062   0.857  10.630
  178SOPE   O1120242   1.015   0.619  10.587
  178SOPE    C120243   0.977   0.648  10.454
  178SOPE    HA20244   0.989   0.757  10.435
  178SOPE    HB20245   0.870   0.628  10.431
  178SOPE    C220246   1.064   0.570  10.351
  178SOPE    HS20247   1.054   0.461  10.371
  178SOPE   O2120248   1.197   0.618  10.353
  178SOPE   C2120249   1.289   0.523  10.377
  178SOPE   O2220250   1.263   0.404  10.383
  178SOPE   C2220251   1.431   0.580  10.371
  178SOPE   H2R20252   1.474   0.540  10.466
  178SOPE   H2S20253   1.430   0.691  10.374
  178SOPE    C320254   0.991   0.575  10.209
  178SOPE    HX20255   0.961   0.680  10.186
  178SOPE    HY20256   0.894   0.521  10.206
  178SOPE   O3120257   1.068   0.516  10.105
  178SOPE   C3120258   1.061   0.576   9.980
  178SOPE   O3220259   1.010   0.683   9.962
  178SOPE   C3220260   1.122   0.485   9.876
  178SOPE   H2X20261   1.084   0.381   9.887
  178SOPE   H2Y20262   1.229   0.484   9.905
  178SOPE   C2320263   1.525   0.544  10.251
  178SOPE   H3R20264   1.546   0.437  10.234
  178SOPE   H3S20265   1.623   0.593  10.268
  178SOPE   C2420266   1.474   0.603  10.121
  178SOPE   H4R20267   1.377   0.562  10.086
  178SOPE   H4S20268   1.458   0.709  10.149
  178SOPE   C2520269   1.576   0.615  10.005
  178SOPE   H5R20270   1.574   0.719   9.966
  178SOPE   H5S20271   1.680   0.595  10.037
  178SOPE   C2620272   1.547   0.514   9.894
  178SOPE   H6R20273   1.549   0.410   9.932
  178SOPE   H6S20274   1.445   0.531   9.855
  178SOPE   C2720275   1.659   0.509   9.792
  178SOPE   H7R20276   1.679   0.614   9.763
  178SOPE   H7S20277   1.758   0.470   9.822
  178SOPE   C2820278   1.609   0.436   9.659
  178SOPE   H8R20279   1.608   0.330   9.692
  178SOPE   H8S20280   1.504   0.469   9.644
  178SOPE   C2920281   1.701   0.457   9.536
  178SOPE   H9120282   1.800   0.408   9.537
  178SOPE  C21020283   1.673   0.516   9.424
  178SOPE  H10120284   1.761   0.539   9.362
  178SOPE  C21120285   1.539   0.586   9.398
  178SOPE  H11R20286   1.546   0.694   9.425
  178SOPE  H11S20287   1.466   0.548   9.472
  178SOPE  C21220288   1.483   0.572   9.256
  178SOPE  H12R20289   1.394   0.637   9.248
  178SOPE  H12S20290   1.447   0.471   9.226
  178SOPE  C21320291   1.579   0.632   9.145
  178SOPE  H13R20292   1.643   0.711   9.189
  178SOPE  H13S20293   1.518   0.677   9.064
  178SOPE  C21420294   1.662   0.529   9.071
  178SOPE  H14R20295   1.619   0.429   9.051
  178SOPE  H14S20296   1.751   0.520   9.137
  178SOPE  C21520297   1.716   0.584   8.936
  178SOPE  H15R20298   1.800   0.514   8.921
  178SOPE  H15S20299   1.756   0.688   8.940
  178SOPE  C21620300   1.623   0.558   8.821
  178SOPE  H16R20301   1.539   0.630   8.832
  178SOPE  H16S20302   1.588   0.453   8.836
  178SOPE  C21720303   1.684   0.561   8.680
  178SOPE  H17R20304   1.597   0.525   8.620
  178SOPE  H17S20305   1.765   0.486   8.666
  178SOPE  C21820306   1.722   0.703   8.630
  178SOPE  H18R20307   1.630   0.766   8.620
  178SOPE  H18S20308   1.752   0.706   8.523
  178SOPE  H18T20309   1.795   0.769   8.683
  178SOPE   C3320310   1.122   0.534   9.728
  178SOPE   H3X20311   1.161   0.638   9.733
  178SOPE   H3Y20312   1.016   0.527   9.694
  178SOPE   C3420313   1.207   0.445   9.631
  178SOPE   H4X20314   1.170   0.341   9.626
  178SOPE   H4Y20315   1.308   0.439   9.678
  178SOPE   C3520316   1.214   0.501   9.485
  178SOPE   H5X20317   1.283   0.442   9.421
  178SOPE   H5Y20318   1.265   0.600   9.492
  178SOPE   C3620319   1.086   0.499   9.404
  178SOPE   H6X20320   1.003   0.536   9.468
  178SOPE   H6Y20321   1.061   0.392   9.388
  178SOPE   C3720322   1.103   0.565   9.262
  178SOPE   H7X20323   1.187   0.636   9.263
  178SOPE   H7Y20324   1.012   0.625   9.241
  178SOPE   C3820325   1.132   0.455   9.157
  178SOPE   H8X20326   1.042   0.389   9.150
  178SOPE   H8Y20327   1.217   0.401   9.204
  178SOPE   C3920328   1.165   0.519   9.024
  178SOPE   H9X20329   1.248   0.593   9.032
  178SOPE   H9Y20330   1.084   0.586   8.990
  178SOPE  C31020331   1.178   0.413   8.916
  178SOPE  H10X20332   1.153   0.459   8.818
  178SOPE  H10Y20333   1.092   0.345   8.933
  178SOPE  C31120334   1.313   0.341   8.908
  178SOPE  H11X20335   1.325   0.263   8.986
  178SOPE  H11Y20336   1.399   0.412   8.905
  178SOPE  C31220337   1.301   0.267   8.772
  178SOPE  H12X20338   1.326   0.352   8.705
  178SOPE  H12Y20339   1.196   0.246   8.744
  178SOPE  C31320340   1.403   0.157   8.745
  178SOPE  H13X20341   1.382   0.064   8.802
  178SOPE  H13Y20342   1.498   0.200   8.784
  178SOPE  C31420343   1.413   0.126   8.596
  178SOPE  H14X20344   1.391   0.222   8.545
  178SOPE  H14Y20345   1.323   0.075   8.556
  178SOPE  C31520346   1.537   0.061   8.549
  178SOPE  H15X20347   1.627   0.105   8.597
  178SOPE  H15Y20348   1.548   0.057   8.438
  178SOPE  C31620349   1.527  -0.099   8.577
  178SOPE  H16X20350   1.489  -0.152   8.487
  178SOPE  H16Y20351   1.450  -0.107   8.657
  178SOPE  C31720352   1.657  -0.167   8.633
  178SOPE  H17X20353   1.705  -0.108   8.714
  178SOPE  H17Y20354   1.735  -0.158   8.554
  178SOPE  C31820355   1.652  -0.314   8.662
  178SOPE  H18X20356   1.669  -0.324   8.771
  178SOPE  H18Y20357   1.740  -0.361   8.613
  178SOPE  H18Z20358   1.558  -0.371   8.646
  179SOPE     N20359   0.155   1.569   6.571
  179SOPE   HN120360   0.258   1.586   6.579
  179SOPE   HN220361   0.138   1.469   6.547
  179SOPE   HN320362   0.115   1.632   6.499
  179SOPE   C1220363   0.076   1.595   6.691
  179SOPE  H12A20364   0.122   1.547   6.780
  179SOPE  H12B20365  -0.030   1.564   6.683
  179SOPE   C1120366   0.089   1.749   6.717
  179SOPE  H11A20367   0.198   1.758   6.736
  179SOPE  H11B20368   0.046   1.771   6.817
  179SOPE     P20369  -0.117   1.854   6.593
  179SOPE   O1320370  -0.175   1.722   6.591
  179SOPE   O1420371  -0.152   1.947   6.480
  179SOPE   O1220372   0.045   1.838   6.611
  179SOPE   O1120373  -0.148   1.917   6.726
  179SOPE    C120374  -0.121   2.051   6.769
  179SOPE    HA20375  -0.202   2.084   6.839
  179SOPE    HB20376  -0.112   2.121   6.684
  179SOPE    C220377   0.017   2.069   6.851
  179SOPE    HS20378   0.093   2.027   6.781
  179SOPE   O2120379   0.012   2.005   6.975
  179SOPE   C2120380   0.130   1.951   7.020
  179SOPE   O2220381   0.231   1.951   6.950
  179SOPE   C2220382   0.117   1.904   7.158
  179SOPE   H2R20383   0.051   1.815   7.169
  179SOPE   H2S20384   0.087   1.992   7.219
  179SOPE    C320385   0.034   2.227   6.865
  179SOPE    HX20386  -0.065   2.261   6.900
  179SOPE    HY20387   0.072   2.263   6.767
  179SOPE   O3120388   0.136   2.252   6.966
  179SOPE   C3120389   0.102   2.297   7.081
  179SOPE   O3220390  -0.014   2.314   7.126
  179SOPE   C3220391   0.227   2.317   7.171
  179SOPE   H2X20392   0.239   2.427   7.167
  179SOPE   H2Y20393   0.310   2.262   7.122
  179SOPE   C2320394   0.256   1.876   7.223
  179SOPE   H3R20395   0.326   1.945   7.171
  179SOPE   H3S20396   0.285   1.770   7.208
  179SOPE   C2420397   0.261   1.912   7.379
  179SOPE   H4R20398   0.359   1.892   7.427
  179SOPE   H4S20399   0.244   2.022   7.375
  179SOPE   C2520400   0.156   1.838   7.467
  179SOPE   H5R20401   0.052   1.874   7.448
  179SOPE   H5S20402   0.166   1.728   7.452
  179SOPE   C2620403   0.184   1.861   7.620
  179SOPE   H6R20404   0.289   1.842   7.651
  179SOPE   H6S20405   0.183   1.970   7.641
  179SOPE   C2720406   0.081   1.793   7.712
  179SOPE   H7R20407  -0.017   1.843   7.700
  179SOPE   H7S20408   0.070   1.683   7.702
  179SOPE   C2820409   0.110   1.806   7.864
  179SOPE   H8R20410   0.217   1.785   7.888
  179SOPE   H8S20411   0.102   1.912   7.893
  179SOPE   C2920412   0.024   1.737   7.971
  179SOPE   H9120413   0.044   1.630   7.987
  179SOPE  C21020414  -0.052   1.798   8.057
  179SOPE  H10120415  -0.104   1.748   8.140
  179SOPE  C21120416  -0.078   1.951   8.070
  179SOPE  H11R20417  -0.185   1.964   8.093
  179SOPE  H11S20418  -0.055   2.009   7.978
  179SOPE  C21220419   0.000   2.009   8.193
  179SOPE  H12R20420  -0.012   2.119   8.192
  179SOPE  H12S20421   0.105   1.979   8.172
  179SOPE  C21320422  -0.044   1.944   8.318
  179SOPE  H13R20423  -0.019   1.836   8.311
  179SOPE  H13S20424  -0.152   1.970   8.323
  179SOPE  C21420425   0.022   2.011   8.445
  179SOPE  H14R20426  -0.036   1.955   8.521
  179SOPE  H14S20427   0.001   2.120   8.457
  179SOPE  C21520428   0.172   1.975   8.453
  179SOPE  H15R20429   0.213   2.024   8.362
  179SOPE  H15S20430   0.187   1.867   8.433
  179SOPE  C21620431   0.213   2.019   8.589
  179SOPE  H16R20432   0.195   1.936   8.661
  179SOPE  H16S20433   0.155   2.110   8.619
  179SOPE  C21720434   0.362   2.065   8.589
  179SOPE  H17R20435   0.359   2.159   8.529
  179SOPE  H17S20436   0.412   1.994   8.520
  179SOPE  C21820437   0.432   2.078   8.718
  179SOPE  H18R20438   0.374   2.066   8.812
  179SOPE  H18S20439   0.459   2.186   8.721
  179SOPE  H18T20440   0.527   2.020   8.715
  179SOPE   C3320441   0.186   2.288   7.318
  179SOPE   H3X20442   0.146   2.186   7.329
  179SOPE   H3Y20443   0.109   2.360   7.354
  179SOPE   C3420444   0.307   2.299   7.417
  179SOPE   H4X20445   0.336   2.406   7.426
  179SOPE   H4Y20446   0.397   2.246   7.380
  179SOPE   C3520447   0.292   2.259   7.567
  179SOPE   H5X20448   0.394   2.263   7.611
  179SOPE   H5Y20449   0.263   2.152   7.572
  179SOPE   C3620450   0.178   2.343   7.631
  179SOPE   H6X20451   0.085   2.342   7.570
  179SOPE   H6Y20452   0.213   2.448   7.627
  179SOPE   C3720453   0.155   2.311   7.778
  179SOPE   H7X20454   0.140   2.201   7.779
  179SOPE   H7Y20455   0.063   2.347   7.827
  179SOPE   C3820456   0.275   2.353   7.875
  179SOPE   H8X20457   0.283   2.464   7.862
  179SOPE   H8Y20458   0.371   2.316   7.834
  179SOPE   C3920459   0.266   2.336   8.027
  179SOPE   H9X20460   0.358   2.361   8.083
  179SOPE   H9Y20461   0.241   2.229   8.043
  179SOPE  C31020462   0.162   2.424   8.101
  179SOPE  H10X20463   0.059   2.432   8.061
  179SOPE  H10Y20464   0.198   2.527   8.122
  179SOPE  C31120465   0.144   2.386   8.251
  179SOPE  H11X20466   0.234   2.406   8.312
  179SOPE  H11Y20467   0.118   2.278   8.258
  179SOPE  C31220468   0.039   2.472   8.322
  179SOPE  H12X20469  -0.061   2.441   8.284
  179SOPE  H12Y20470   0.054   2.575   8.283
  179SOPE  C31320471   0.047   2.472   8.475
  179SOPE  H13X20472   0.128   2.544   8.500
  179SOPE  H13Y20473   0.076   2.375   8.521
  179SOPE  C31420474  -0.077   2.526   8.534
  179SOPE  H14X20475  -0.159   2.451   8.537
  179SOPE  H14Y20476  -0.107   2.620   8.483
  179SOPE  C31520477  -0.066   2.577   8.681
  179SOPE  H15X20478   0.007   2.657   8.702
  179SOPE  H15Y20479  -0.049   2.489   8.747
  179SOPE  C31620480  -0.204   2.623   8.729
  179SOPE  H16X20481  -0.273   2.540   8.754
  179SOPE  H16Y20482  -0.253   2.688   8.654
  179SOPE  C31720483  -0.207   2.711   8.857
  179SOPE  H17X20484  -0.144   2.802   8.843
  179SOPE  H17Y20485  -0.166   2.655   8.943
  179SOPE  C31820486  -0.346   2.744   8.910
  179SOPE  H18X20487  -0.353   2.801   9.005
  179SOPE  H18Y20488  -0.412   2.656   8.926
  179SOPE  H18Z20489  -0.384   2.801   8.822
  180SOPE     N20490   5.908   1.867   6.061
  180SOPE   HN120491   5.874   1.773   6.090
  180SOPE   HN220492   5.894   1.935   6.137
  180SOPE   HN320493   5.872   1.907   5.971
  180SOPE   C1220494   6.059   1.861   6.046
  180SOPE  H12A20495   6.079   1.786   5.966
  180SOPE  H12B20496   6.098   1.817   6.140
  180SOPE   C1120497   6.119   2.004   6.029
  180SOPE  H11A20498   6.098   2.040   5.926
  180SOPE  H11B20499   6.229   1.988   6.039
  180SOPE     P20500   6.129   2.125   6.259
  180SOPE   O1320501   6.174   2.264   6.264
  180SOPE   O1420502   6.238   2.021   6.272
  180SOPE   O1220503   6.060   2.101   6.117
  180SOPE   O1120504   6.009   2.094   6.354
  180SOPE    C120505   5.947   2.196   6.436
  180SOPE    HA20506   5.838   2.189   6.421
  180SOPE    HB20507   5.983   2.300   6.423
  180SOPE    C220508   5.969   2.177   6.585
  180SOPE    HS20509   6.071   2.213   6.612
  180SOPE   O2120510   5.929   2.042   6.622
  180SOPE   C2120511   6.006   1.980   6.714
  180SOPE   O2220512   6.107   2.021   6.762
  180SOPE   C2220513   5.937   1.845   6.747
  180SOPE   H2R20514   5.924   1.788   6.652
  180SOPE   H2S20515   5.830   1.869   6.760
  180SOPE    C320516   5.888   2.283   6.664
  180SOPE    HX20517   5.796   2.322   6.615
  180SOPE    HY20518   5.952   2.374   6.658
  180SOPE   O3120519   5.873   2.251   6.807
  180SOPE   C3120520   5.754   2.206   6.844
  180SOPE   O3220521   5.653   2.203   6.774
  180SOPE   C3220522   5.767   2.155   6.987
  180SOPE   H2X20523   5.850   2.209   7.037
  180SOPE   H2Y20524   5.787   2.047   6.971
  180SOPE   C2320525   6.008   1.765   6.864
  180SOPE   H3R20526   6.097   1.823   6.897
  180SOPE   H3S20527   6.036   1.669   6.816
  180SOPE   C2420528   5.907   1.753   6.979
  180SOPE   H4R20529   5.891   1.858   7.011
  180SOPE   H4S20530   5.814   1.702   6.946
  180SOPE   C2520531   5.968   1.680   7.092
  180SOPE   H5R20532   5.995   1.576   7.065
  180SOPE   H5S20533   6.068   1.722   7.115
  180SOPE   C2620534   5.884   1.686   7.220
  180SOPE   H6R20535   5.873   1.794   7.243
  180SOPE   H6S20536   5.782   1.645   7.202
  180SOPE   C2720537   5.950   1.616   7.344
  180SOPE   H7R20538   5.950   1.508   7.317
  180SOPE   H7S20539   6.056   1.650   7.337
  180SOPE   C2820540   5.898   1.638   7.490
  180SOPE   H8R20541   5.898   1.748   7.503
  180SOPE   H8S20542   5.791   1.610   7.496
  180SOPE   C2920543   5.990   1.572   7.590
  180SOPE   H9120544   6.096   1.576   7.559
  180SOPE  C21020545   5.954   1.523   7.711
  180SOPE  H10120546   6.023   1.457   7.765
  180SOPE  C21120547   5.814   1.520   7.760
  180SOPE  H11R20548   5.753   1.435   7.723
  180SOPE  H11S20549   5.760   1.608   7.719
  180SOPE  C21220550   5.813   1.527   7.919
  180SOPE  H12R20551   5.873   1.448   7.967
  180SOPE  H12S20552   5.711   1.491   7.943
  180SOPE  C21320553   5.817   1.669   7.977
  180SOPE  H13R20554   5.733   1.727   7.933
  180SOPE  H13S20555   5.914   1.719   7.960
  180SOPE  C21420556   5.809   1.662   8.127
  180SOPE  H14R20557   5.717   1.602   8.144
  180SOPE  H14S20558   5.798   1.767   8.164
  180SOPE  C21520559   5.927   1.607   8.200
  180SOPE  H15R20560   6.014   1.659   8.156
  180SOPE  H15S20561   5.944   1.497   8.195
  180SOPE  C21620562   5.914   1.649   8.344
  180SOPE  H16R20563   5.867   1.749   8.358
  180SOPE  H16S20564   6.009   1.650   8.402
  180SOPE  C21720565   5.821   1.553   8.422
  180SOPE  H17R20566   5.873   1.457   8.401
  180SOPE  H17S20567   5.714   1.556   8.390
  180SOPE  C21820568   5.815   1.574   8.573
  180SOPE  H18R20569   5.918   1.554   8.611
  180SOPE  H18S20570   5.746   1.502   8.623
  180SOPE  H18T20571   5.792   1.680   8.595
  180SOPE   C3320572   5.631   2.188   7.057
  180SOPE   H3X20573   5.551   2.142   6.995
  180SOPE   H3Y20574   5.600   2.295   7.052
  180SOPE   C3420575   5.631   2.134   7.203
  180SOPE   H4X20576   5.548   2.186   7.255
  180SOPE   H4Y20577   5.735   2.134   7.243
  180SOPE   C3520578   5.590   1.984   7.206
  180SOPE   H5X20579   5.655   1.921   7.141
  180SOPE   H5Y20580   5.482   1.977   7.181
  180SOPE   C3620581   5.608   1.923   7.345
  180SOPE   H6X20582   5.713   1.922   7.379
  180SOPE   H6Y20583   5.581   1.816   7.334
  180SOPE   C3720584   5.521   2.001   7.447
  180SOPE   H7X20585   5.417   2.008   7.409
  180SOPE   H7Y20586   5.573   2.099   7.445
  180SOPE   C3820587   5.530   1.949   7.591
  180SOPE   H8X20588   5.635   1.948   7.626
  180SOPE   H8Y20589   5.504   1.842   7.575
  180SOPE   C3920590   5.433   2.008   7.693
  180SOPE   H9X20591   5.329   1.995   7.658
  180SOPE   H9Y20592   5.460   2.115   7.681
  180SOPE  C31020593   5.448   1.962   7.839
  180SOPE  H10X20594   5.376   2.021   7.900
  180SOPE  H10Y20595   5.552   1.989   7.865
  180SOPE  C31120596   5.422   1.818   7.875
  180SOPE  H11X20597   5.504   1.748   7.850
  180SOPE  H11Y20598   5.332   1.782   7.821
  180SOPE  C31220599   5.401   1.796   8.029
  180SOPE  H12X20600   5.308   1.850   8.055
  180SOPE  H12Y20601   5.490   1.842   8.078
  180SOPE  C31320602   5.409   1.648   8.066
  180SOPE  H13X20603   5.400   1.648   8.177
  180SOPE  H13Y20604   5.508   1.602   8.043
  180SOPE  C31420605   5.293   1.560   8.006
  180SOPE  H14X20606   5.314   1.569   7.897
  180SOPE  H14Y20607   5.197   1.610   8.032
  180SOPE  C31520608   5.301   1.416   8.051
  180SOPE  H15X20609   5.314   1.406   8.161
  180SOPE  H15Y20610   5.402   1.380   8.024
  180SOPE  C31620611   5.188   1.323   8.003
  180SOPE  H16X20612   5.184   1.326   7.892
  180SOPE  H16Y20613   5.097   1.375   8.037
  180SOPE  C31720614   5.187   1.183   8.061
  180SOPE  H17X20615   5.278   1.135   8.019
  180SOPE  H17Y20616   5.097   1.127   8.028
  180SOPE  C31820617   5.201   1.181   8.211
  180SOPE  H18X20618   5.189   1.081   8.258
  180SOPE  H18Y20619   5.127   1.247   8.261
  180SOPE  H18Z20620   5.304   1.213   8.240
  181SOPE     N20621   5.526   5.785   5.862
  181SOPE   HN120622   5.456   5.709   5.858
  181SOPE   HN220623   5.601   5.746   5.801
  181SOPE   HN320624   5.577   5.796   5.953
  181SOPE   C1220625   5.470   5.917   5.816
  181SOPE  H12A20626   5.379   5.934   5.876
  181SOPE  H12B20627   5.442   5.898   5.710
  181SOPE   C1120628   5.582   6.026   5.836
  181SOPE  H11A20629   5.539   6.119   5.793
  181SOPE  H11B20630   5.675   6.015   5.776
  181SOPE     P20631   5.605   6.161   6.060
  181SOPE   O1320632   5.622   6.278   5.978
  181SOPE   O1420633   5.698   6.141   6.168
  181SOPE   O1220634   5.623   6.035   5.972
  181SOPE   O1120635   5.454   6.139   6.114
  181SOPE    C120636   5.417   6.028   6.197
  181SOPE    HA20637   5.506   5.965   6.218
  181SOPE    HB20638   5.352   5.959   6.141
  181SOPE    C220639   5.358   6.087   6.330
  181SOPE    HS20640   5.334   5.998   6.392
  181SOPE   O2120641   5.243   6.168   6.309
  181SOPE   C2120642   5.122   6.101   6.320
  181SOPE   O2220643   5.119   5.981   6.344
  181SOPE   C2220644   5.006   6.200   6.304
  181SOPE   H2R20645   4.925   6.163   6.370
  181SOPE   H2S20646   4.972   6.176   6.201
  181SOPE    C320647   5.464   6.165   6.420
  181SOPE    HX20648   5.496   6.250   6.357
  181SOPE    HY20649   5.555   6.101   6.423
  181SOPE   O3120650   5.411   6.212   6.547
  181SOPE   C3120651   5.514   6.264   6.617
  181SOPE   O3220652   5.626   6.288   6.566
  181SOPE   C3220653   5.475   6.290   6.760
  181SOPE   H2X20654   5.387   6.226   6.785
  181SOPE   H2Y20655   5.441   6.394   6.780
  181SOPE   C2320656   5.033   6.349   6.314
  181SOPE   H3R20657   4.936   6.398   6.288
  181SOPE   H3S20658   5.106   6.377   6.235
  181SOPE   C2420659   5.080   6.404   6.447
  181SOPE   H4R20660   5.000   6.388   6.522
  181SOPE   H4S20661   5.178   6.356   6.470
  181SOPE   C2520662   5.097   6.561   6.462
  181SOPE   H5R20663   5.145   6.602   6.371
  181SOPE   H5S20664   4.998   6.611   6.469
  181SOPE   C2620665   5.187   6.614   6.580
  181SOPE   H6R20666   5.275   6.550   6.558
  181SOPE   H6S20667   5.206   6.722   6.559
  181SOPE   C2720668   5.127   6.592   6.719
  181SOPE   H7R20669   5.027   6.640   6.729
  181SOPE   H7S20670   5.103   6.485   6.735
  181SOPE   C2820671   5.220   6.643   6.833
  181SOPE   H8R20672   5.316   6.586   6.831
  181SOPE   H8S20673   5.245   6.748   6.807
  181SOPE   C2920674   5.159   6.639   6.971
  181SOPE   H9120675   5.071   6.572   6.970
  181SOPE  C21020676   5.209   6.668   7.088
  181SOPE  H10120677   5.141   6.668   7.175
  181SOPE  C21120678   5.346   6.721   7.116
  181SOPE  H11R20679   5.389   6.782   7.033
  181SOPE  H11S20680   5.414   6.634   7.130
  181SOPE  C21220681   5.363   6.797   7.242
  181SOPE  H12R20682   5.329   6.742   7.333
  181SOPE  H12S20683   5.306   6.892   7.243
  181SOPE  C21320684   5.506   6.831   7.273
  181SOPE  H13R20685   5.544   6.897   7.193
  181SOPE  H13S20686   5.584   6.753   7.255
  181SOPE  C21420687   5.531   6.898   7.412
  181SOPE  H14R20688   5.440   6.959   7.431
  181SOPE  H14S20689   5.612   6.970   7.388
  181SOPE  C21520690   5.576   6.789   7.510
  181SOPE  H15R20691   5.684   6.764   7.502
  181SOPE  H15S20692   5.525   6.692   7.490
  181SOPE  C21620693   5.535   6.823   7.654
  181SOPE  H16R20694   5.560   6.928   7.680
  181SOPE  H16S20695   5.587   6.759   7.729
  181SOPE  C21720696   5.386   6.791   7.667
  181SOPE  H17R20697   5.364   6.686   7.637
  181SOPE  H17S20698   5.335   6.855   7.592
  181SOPE  C21820699   5.317   6.803   7.800
  181SOPE  H18R20700   5.315   6.904   7.847
  181SOPE  H18S20701   5.370   6.725   7.857
  181SOPE  H18T20702   5.209   6.780   7.787
  181SOPE   C3320703   5.596   6.262   6.858
  181SOPE   H3X20704   5.684   6.325   6.834
  181SOPE   H3Y20705   5.620   6.154   6.847
  181SOPE   C3420706   5.561   6.274   7.009
  181SOPE   H4X20707   5.505   6.188   7.051
  181SOPE   H4Y20708   5.500   6.366   7.016
  181SOPE   C3520709   5.687   6.294   7.086
  181SOPE   H5X20710   5.732   6.387   7.046
  181SOPE   H5Y20711   5.752   6.204   7.084
  181SOPE   C3620712   5.661   6.323   7.238
  181SOPE   H6X20713   5.584   6.404   7.245
  181SOPE   H6Y20714   5.756   6.361   7.280
  181SOPE   C3720715   5.625   6.198   7.317
  181SOPE   H7X20716   5.668   6.108   7.269
  181SOPE   H7Y20717   5.517   6.174   7.323
  181SOPE   C3820718   5.674   6.217   7.459
  181SOPE   H8X20719   5.599   6.282   7.509
  181SOPE   H8Y20720   5.779   6.254   7.462
  181SOPE   C3920721   5.685   6.087   7.545
  181SOPE   H9X20722   5.755   6.011   7.505
  181SOPE   H9Y20723   5.588   6.034   7.536
  181SOPE  C31020724   5.730   6.120   7.682
  181SOPE  H10X20725   5.693   6.217   7.722
  181SOPE  H10Y20726   5.840   6.119   7.693
  181SOPE  C31120727   5.672   6.022   7.793
  181SOPE  H11X20728   5.705   5.918   7.773
  181SOPE  H11Y20729   5.562   6.017   7.784
  181SOPE  C31220730   5.715   6.063   7.935
  181SOPE  H12X20731   5.705   6.172   7.953
  181SOPE  H12Y20732   5.823   6.038   7.951
  181SOPE  C31320733   5.622   5.990   8.035
  181SOPE  H13X20734   5.622   5.880   8.023
  181SOPE  H13Y20735   5.515   6.012   8.014
  181SOPE  C31420736   5.657   6.005   8.187
  181SOPE  H14X20737   5.651   6.114   8.205
  181SOPE  H14Y20738   5.765   5.986   8.201
  181SOPE  C31520739   5.582   5.896   8.269
  181SOPE  H15X20740   5.622   5.795   8.245
  181SOPE  H15Y20741   5.475   5.904   8.240
  181SOPE  C31620742   5.600   5.903   8.421
  181SOPE  H16X20743   5.589   6.010   8.449
  181SOPE  H16Y20744   5.702   5.868   8.447
  181SOPE  C31720745   5.495   5.820   8.495
  181SOPE  H17X20746   5.505   5.713   8.468
  181SOPE  H17Y20747   5.397   5.866   8.470
  181SOPE  C31820748   5.515   5.823   8.650
  181SOPE  H18X20749   5.441   5.892   8.696
  181SOPE  H18Y20750   5.620   5.849   8.673
  181SOPE  H18Z20751   5.498   5.723   8.695
  182SOPE     N20752   6.349   1.656   6.553
  182SOPE   HN120753   6.437   1.697   6.591
  182SOPE   HN220754   6.295   1.606   6.626
  182SOPE   HN320755   6.371   1.592   6.474
  182SOPE   C1220756   6.265   1.768   6.485
  182SOPE  H12A20757   6.331   1.810   6.406
  182SOPE  H12B20758   6.245   1.839   6.567
  182SOPE   C1120759   6.140   1.715   6.416
  182SOPE  H11A20760   6.106   1.806   6.362
  182SOPE  H11B20761   6.063   1.672   6.483
  182SOPE     P20762   6.067   1.520   6.252
  182SOPE   O1320763   6.139   1.424   6.165
  182SOPE   O1420764   5.962   1.603   6.196
  182SOPE   O1220765   6.173   1.619   6.317
  182SOPE   O1120766   5.996   1.446   6.376
  182SOPE    C120767   6.051   1.338   6.449
  182SOPE    HA20768   6.160   1.352   6.462
  182SOPE    HB20769   6.024   1.241   6.402
  182SOPE    C220770   5.970   1.340   6.580
  182SOPE    HS20771   5.960   1.449   6.602
  182SOPE   O2120772   6.041   1.281   6.691
  182SOPE   C2120773   6.142   1.353   6.750
  182SOPE   O2220774   6.187   1.457   6.709
  182SOPE   C2220775   6.189   1.273   6.873
  182SOPE   H2R20776   6.254   1.187   6.845
  182SOPE   H2S20777   6.090   1.238   6.907
  182SOPE    C320778   5.823   1.300   6.558
  182SOPE    HX20779   5.833   1.199   6.513
  182SOPE    HY20780   5.774   1.374   6.491
  182SOPE   O3120781   5.748   1.296   6.683
  182SOPE   C3120782   5.725   1.413   6.740
  182SOPE   O3220783   5.762   1.521   6.692
  182SOPE   C3220784   5.666   1.401   6.881
  182SOPE   H2X20785   5.574   1.341   6.861
  182SOPE   H2Y20786   5.650   1.506   6.912
  182SOPE   C2320787   6.252   1.358   6.982
  182SOPE   H3R20788   6.231   1.467   6.988
  182SOPE   H3S20789   6.362   1.349   6.972
  182SOPE   C2420790   6.212   1.306   7.121
  182SOPE   H4R20791   6.105   1.331   7.139
  182SOPE   H4S20792   6.230   1.198   7.137
  182SOPE   C2520793   6.286   1.374   7.231
  182SOPE   H5R20794   6.392   1.340   7.230
  182SOPE   H5S20795   6.287   1.482   7.206
  182SOPE   C2620796   6.222   1.351   7.374
  182SOPE   H6R20797   6.245   1.446   7.427
  182SOPE   H6S20798   6.112   1.358   7.362
  182SOPE   C2720799   6.260   1.224   7.448
  182SOPE   H7R20800   6.233   1.138   7.382
  182SOPE   H7S20801   6.370   1.226   7.462
  182SOPE   C2820802   6.192   1.215   7.583
  182SOPE   H8R20803   6.094   1.265   7.599
  182SOPE   H8S20804   6.176   1.110   7.615
  182SOPE   C2920805   6.272   1.281   7.694
  182SOPE   H9120806   6.293   1.388   7.685
  182SOPE  C21020807   6.336   1.222   7.797
  182SOPE  H10120808   6.395   1.293   7.857
  182SOPE  C21120809   6.331   1.073   7.823
  182SOPE  H11R20810   6.431   1.032   7.845
  182SOPE  H11S20811   6.295   1.020   7.732
  182SOPE  C21220812   6.242   1.029   7.941
  182SOPE  H12R20813   6.233   0.919   7.924
  182SOPE  H12S20814   6.139   1.067   7.925
  182SOPE  C21320815   6.295   1.070   8.079
  182SOPE  H13R20816   6.292   1.178   8.103
  182SOPE  H13S20817   6.401   1.036   8.087
  182SOPE  C21420818   6.213   1.015   8.208
  182SOPE  H14R20819   6.266   1.043   8.302
  182SOPE  H14S20820   6.191   0.907   8.200
  182SOPE  C21520821   6.071   1.076   8.218
  182SOPE  H15R20822   6.022   1.063   8.120
  182SOPE  H15S20823   6.099   1.182   8.235
  182SOPE  C21620824   5.982   1.019   8.331
  182SOPE  H16R20825   6.044   0.990   8.418
  182SOPE  H16S20826   5.923   0.931   8.297
  182SOPE  C21720827   5.887   1.130   8.393
  182SOPE  H17R20828   5.852   1.189   8.306
  182SOPE  H17S20829   5.944   1.200   8.457
  182SOPE  C21820830   5.769   1.072   8.467
  182SOPE  H18R20831   5.679   1.135   8.449
  182SOPE  H18S20832   5.800   1.089   8.573
  182SOPE  H18T20833   5.752   0.965   8.441
  182SOPE   C3320834   5.772   1.330   6.971
  182SOPE   H3X20835   5.867   1.386   6.960
  182SOPE   H3Y20836   5.796   1.230   6.928
  182SOPE   C3420837   5.723   1.336   7.115
  182SOPE   H4X20838   5.620   1.296   7.128
  182SOPE   H4Y20839   5.705   1.443   7.140
  182SOPE   C3520840   5.808   1.264   7.215
  182SOPE   H5X20841   5.774   1.297   7.316
  182SOPE   H5Y20842   5.914   1.291   7.195
  182SOPE   C3620843   5.791   1.104   7.210
  182SOPE   H6X20844   5.810   1.065   7.108
  182SOPE   H6Y20845   5.687   1.075   7.238
  182SOPE   C3720846   5.893   1.016   7.293
  182SOPE   H7X20847   5.990   1.016   7.240
  182SOPE   H7Y20848   5.841   0.918   7.281
  182SOPE   C3820849   5.917   1.061   7.436
  182SOPE   H8X20850   5.960   1.164   7.440
  182SOPE   H8Y20851   5.990   0.980   7.457
  182SOPE   C3920852   5.803   1.043   7.533
  182SOPE   H9X20853   5.730   0.963   7.510
  182SOPE   H9Y20854   5.743   1.136   7.542
  182SOPE  C31020855   5.860   1.007   7.671
  182SOPE  H10X20856   5.956   1.062   7.685
  182SOPE  H10Y20857   5.891   0.903   7.695
  182SOPE  C31120858   5.759   1.040   7.782
  182SOPE  H11X20859   5.674   0.973   7.759
  182SOPE  H11Y20860   5.733   1.147   7.765
  182SOPE  C31220861   5.810   1.024   7.928
  182SOPE  H12X20862   5.893   1.094   7.954
  182SOPE  H12Y20863   5.836   0.919   7.952
  182SOPE  C31320864   5.694   1.060   8.024
  182SOPE  H13X20865   5.665   1.165   8.004
  182SOPE  H13Y20866   5.719   1.055   8.133
  182SOPE  C31420867   5.558   0.990   8.006
  182SOPE  H14X20868   5.515   0.991   7.903
  182SOPE  H14Y20869   5.478   1.047   8.057
  182SOPE  C31520870   5.550   0.847   8.056
  182SOPE  H15X20871   5.617   0.782   7.996
  182SOPE  H15Y20872   5.446   0.821   8.029
  182SOPE  C31620873   5.580   0.817   8.204
  182SOPE  H16X20874   5.499   0.860   8.267
  182SOPE  H16Y20875   5.669   0.877   8.234
  182SOPE  C31720876   5.607   0.673   8.239
  182SOPE  H17X20877   5.683   0.622   8.176
  182SOPE  H17Y20878   5.520   0.616   8.202
  182SOPE  C31820879   5.643   0.648   8.380
  182SOPE  H18X20880   5.559   0.637   8.451
  182SOPE  H18Y20881   5.709   0.729   8.416
  182SOPE  H18Z20882   5.690   0.548   8.397
  183SOPE     N20883   1.086   5.671   6.273
  183SOPE   HN120884   0.990   5.633   6.258
  183SOPE   HN220885   1.112   5.731   6.192
  183SOPE   HN320886   1.156   5.595   6.282
  183SOPE   C1220887   1.099   5.746   6.400
  183SOPE  H12A20888   1.058   5.696   6.490
  183SOPE  H12B20889   1.044   5.841   6.381
  183SOPE   C1120890   1.254   5.784   6.428
  183SOPE  H11A20891   1.307   5.687   6.431
  183SOPE  H11B20892   1.253   5.823   6.532
  183SOPE     P20893   1.452   5.908   6.309
  183SOPE   O1320894   1.459   6.042   6.242
  183SOPE   O1420895   1.503   5.785   6.243
  183SOPE   O1220896   1.304   5.884   6.341
  183SOPE   O1120897   1.498   5.924   6.457
  183SOPE    C120898   1.465   6.030   6.547
  183SOPE    HA20899   1.355   6.050   6.550
  183SOPE    HB20900   1.498   6.127   6.504
  183SOPE    C220901   1.522   6.000   6.689
  183SOPE    HS20902   1.485   6.077   6.759
  183SOPE   O2120903   1.665   5.994   6.682
  183SOPE   C2120904   1.724   6.102   6.719
  183SOPE   O2220905   1.669   6.211   6.739
  183SOPE   C2220906   1.868   6.079   6.693
  183SOPE   H2R20907   1.900   6.127   6.598
  183SOPE   H2S20908   1.894   5.971   6.692
  183SOPE    C320909   1.469   5.861   6.745
  183SOPE    HX20910   1.516   5.785   6.678
  183SOPE    HY20911   1.359   5.858   6.732
  183SOPE   O3120912   1.497   5.853   6.882
  183SOPE   C3120913   1.592   5.766   6.914
  183SOPE   O3220914   1.664   5.708   6.834
  183SOPE   C3220915   1.601   5.748   7.061
  183SOPE   H2X20916   1.674   5.668   7.086
  183SOPE   H2Y20917   1.499   5.712   7.084
  183SOPE   C2320918   1.944   6.150   6.801
  183SOPE   H3R20919   1.927   6.259   6.798
  183SOPE   H3S20920   2.051   6.131   6.776
  183SOPE   C2420921   1.929   6.084   6.942
  183SOPE   H4R20922   1.824   6.082   6.976
  183SOPE   H4S20923   1.968   5.979   6.941
  183SOPE   C2520924   2.013   6.145   7.052
  183SOPE   H5R20925   2.119   6.122   7.030
  183SOPE   H5S20926   2.013   6.256   7.064
  183SOPE   C2620927   2.004   6.091   7.196
  183SOPE   H6R20928   1.903   6.067   7.235
  183SOPE   H6S20929   2.040   5.986   7.194
  183SOPE   C2720930   2.085   6.171   7.302
  183SOPE   H7R20931   2.190   6.203   7.288
  183SOPE   H7S20932   2.023   6.263   7.318
  183SOPE   C2820933   2.058   6.092   7.439
  183SOPE   H8R20934   1.950   6.078   7.460
  183SOPE   H8S20935   2.095   5.990   7.415
  183SOPE   C2920936   2.141   6.134   7.564
  183SOPE   H9120937   2.234   6.078   7.581
  183SOPE  C21020938   2.102   6.225   7.660
  183SOPE  H10120939   2.175   6.248   7.738
  183SOPE  C21120940   1.981   6.307   7.670
  183SOPE  H11R20941   1.913   6.280   7.586
  183SOPE  H11S20942   2.014   6.413   7.659
  183SOPE  C21220943   1.895   6.302   7.803
  183SOPE  H12R20944   1.853   6.199   7.805
  183SOPE  H12S20945   1.806   6.367   7.789
  183SOPE  C21320946   1.967   6.318   7.936
  183SOPE  H13R20947   2.040   6.402   7.946
  183SOPE  H13S20948   2.039   6.235   7.947
  183SOPE  C21420949   1.877   6.319   8.057
  183SOPE  H14R20950   1.795   6.390   8.032
  183SOPE  H14S20951   1.927   6.366   8.145
  183SOPE  C21520952   1.823   6.182   8.092
  183SOPE  H15R20953   1.908   6.116   8.118
  183SOPE  H15S20954   1.767   6.137   8.007
  183SOPE  C21620955   1.720   6.177   8.209
  183SOPE  H16R20956   1.752   6.238   8.296
  183SOPE  H16S20957   1.715   6.069   8.232
  183SOPE  C21720958   1.582   6.232   8.163
  183SOPE  H17R20959   1.543   6.200   8.064
  183SOPE  H17S20960   1.587   6.342   8.145
  183SOPE  C21820961   1.469   6.213   8.274
  183SOPE  H18R20962   1.465   6.106   8.304
  183SOPE  H18S20963   1.372   6.252   8.237
  183SOPE  H18T20964   1.499   6.277   8.361
  183SOPE   C3320965   1.623   5.875   7.147
  183SOPE   H3X20966   1.535   5.940   7.133
  183SOPE   H3Y20967   1.710   5.935   7.113
  183SOPE   C3420968   1.643   5.835   7.293
  183SOPE   H4X20969   1.735   5.774   7.285
  183SOPE   H4Y20970   1.558   5.776   7.334
  183SOPE   C3520971   1.656   5.951   7.388
  183SOPE   H5X20972   1.563   6.011   7.389
  183SOPE   H5Y20973   1.735   6.019   7.350
  183SOPE   C3620974   1.688   5.902   7.531
  183SOPE   H6X20975   1.794   5.872   7.515
  183SOPE   H6Y20976   1.629   5.810   7.555
  183SOPE   C3720977   1.680   6.007   7.640
  183SOPE   H7X20978   1.580   6.056   7.634
  183SOPE   H7Y20979   1.748   6.094   7.628
  183SOPE   C3820980   1.708   5.949   7.779
  183SOPE   H8X20981   1.626   5.877   7.796
  183SOPE   H8Y20982   1.698   6.036   7.848
  183SOPE   C3920983   1.845   5.878   7.796
  183SOPE   H9X20984   1.935   5.929   7.757
  183SOPE   H9Y20985   1.843   5.776   7.751
  183SOPE  C31020986   1.880   5.845   7.951
  183SOPE  H10X20987   1.856   5.930   8.018
  183SOPE  H10Y20988   1.991   5.835   7.955
  183SOPE  C31120989   1.812   5.732   8.016
  183SOPE  H11X20990   1.816   5.632   7.967
  183SOPE  H11Y20991   1.706   5.766   8.009
  183SOPE  C31220992   1.864   5.694   8.159
  183SOPE  H12X20993   1.965   5.651   8.143
  183SOPE  H12Y20994   1.803   5.607   8.191
  183SOPE  C31320995   1.844   5.799   8.263
  183SOPE  H13X20996   1.741   5.839   8.252
  183SOPE  H13Y20997   1.903   5.890   8.243
  183SOPE  C31420998   1.859   5.752   8.412
  183SOPE  H14X20999   1.967   5.746   8.440
  183SOPE  H14Y21000   1.815   5.651   8.419
  183SOPE  C31521001   1.799   5.845   8.517
  183SOPE  H15X21002   1.837   5.947   8.496
  183SOPE  H15Y21003   1.840   5.829   8.619
  183SOPE  C31621004   1.646   5.857   8.513
  183SOPE  H16X21005   1.586   5.778   8.562
  183SOPE  H16Y21006   1.617   5.873   8.407
  183SOPE  C31721007   1.596   5.986   8.588
  183SOPE  H17X21008   1.636   6.073   8.531
  183SOPE  H17Y21009   1.639   5.997   8.690
  183SOPE  C31821010   1.451   6.010   8.605
  183SOPE  H18X21011   1.402   5.960   8.519
  183SOPE  H18Y21012   1.417   6.115   8.600
  183SOPE  H18Z21013   1.417   5.974   8.705
  184SOPE     N21014   1.322   6.268   6.188
  184SOPE   HN121015   1.382   6.185   6.206
  184SOPE   HN221016   1.242   6.239   6.128
  184SOPE   HN321017   1.388   6.343   6.160
  184SOPE   C1221018   1.252   6.291   6.318
  184SOPE  H12A21019   1.233   6.401   6.322
  184SOPE  H12B21020   1.324   6.263   6.398
  184SOPE   C1121021   1.127   6.207   6.332
  184SOPE  H11A21022   1.080   6.223   6.431
  184SOPE  H11B21023   1.158   6.100   6.337
  184SOPE     P21024   0.965   6.144   6.141
  184SOPE   O1321025   1.056   6.086   6.039
  184SOPE   O1421026   0.845   6.220   6.097
  184SOPE   O1221027   1.044   6.246   6.226
  184SOPE   O1121028   0.928   6.032   6.245
  184SOPE    C121029   0.796   6.015   6.292
  184SOPE    HA21030   0.778   5.906   6.307
  184SOPE    HB21031   0.725   6.042   6.211
  184SOPE    C221032   0.765   6.077   6.423
  184SOPE    HS21033   0.798   6.183   6.415
  184SOPE   O2121034   0.830   5.999   6.524
  184SOPE   C2121035   0.904   6.060   6.606
  184SOPE   O2221036   0.912   6.184   6.625
  184SOPE   C2221037   1.009   5.963   6.661
  184SOPE   H2R21038   1.081   5.951   6.578
  184SOPE   H2S21039   0.959   5.868   6.692
  184SOPE    C321040   0.609   6.088   6.446
  184SOPE    HX21041   0.574   5.982   6.444
  184SOPE    HY21042   0.563   6.130   6.354
  184SOPE   O3121043   0.575   6.150   6.568
  184SOPE   C3121044   0.584   6.279   6.567
  184SOPE   O3221045   0.633   6.348   6.481
  184SOPE   C3221046   0.539   6.334   6.701
  184SOPE   H2X21047   0.429   6.328   6.712
  184SOPE   H2Y21048   0.579   6.436   6.718
  184SOPE   C2321049   1.087   6.018   6.783
  184SOPE   H3R21050   1.121   6.119   6.752
  184SOPE   H3S21051   1.168   5.947   6.808
  184SOPE   C2421052   1.009   6.054   6.908
  184SOPE   H4R21053   0.907   6.087   6.881
  184SOPE   H4S21054   0.983   5.958   6.958
  184SOPE   C2521055   1.092   6.142   7.002
  184SOPE   H5R21056   1.200   6.134   6.979
  184SOPE   H5S21057   1.065   6.250   6.993
  184SOPE   C2621058   1.080   6.095   7.148
  184SOPE   H6R21059   0.978   6.120   7.184
  184SOPE   H6S21060   1.084   5.984   7.140
  184SOPE   C2721061   1.188   6.147   7.241
  184SOPE   H7R21062   1.281   6.092   7.218
  184SOPE   H7S21063   1.200   6.257   7.227
  184SOPE   C2821064   1.165   6.119   7.387
  184SOPE   H8R21065   1.078   6.174   7.429
  184SOPE   H8S21066   1.155   6.009   7.398
  184SOPE   C2921067   1.292   6.168   7.468
  184SOPE   H9121068   1.381   6.162   7.405
  184SOPE  C21021069   1.296   6.205   7.597
  184SOPE  H10121070   1.399   6.224   7.632
  184SOPE  C21121071   1.170   6.200   7.688
  184SOPE  H11R21072   1.076   6.221   7.633
  184SOPE  H11S21073   1.179   6.273   7.771
  184SOPE  C21221074   1.150   6.064   7.755
  184SOPE  H12R21075   1.163   5.986   7.678
  184SOPE  H12S21076   1.043   6.058   7.784
  184SOPE  C21321077   1.246   6.043   7.868
  184SOPE  H13R21078   1.243   6.134   7.932
  184SOPE  H13S21079   1.348   6.042   7.824
  184SOPE  C21421080   1.219   5.916   7.946
  184SOPE  H14R21081   1.241   5.830   7.880
  184SOPE  H14S21082   1.112   5.921   7.973
  184SOPE  C21521083   1.315   5.903   8.066
  184SOPE  H15R21084   1.274   5.967   8.147
  184SOPE  H15S21085   1.416   5.942   8.041
  184SOPE  C21621086   1.316   5.751   8.117
  184SOPE  H16R21087   1.338   5.679   8.035
  184SOPE  H16S21088   1.214   5.742   8.159
  184SOPE  C21721089   1.399   5.734   8.253
  184SOPE  H17R21090   1.373   5.816   8.323
  184SOPE  H17S21091   1.505   5.752   8.222
  184SOPE  C21821092   1.376   5.602   8.324
  184SOPE  H18R21093   1.428   5.614   8.421
  184SOPE  H18S21094   1.404   5.518   8.257
  184SOPE  H18T21095   1.271   5.579   8.352
  184SOPE   C3321096   0.599   6.258   6.824
  184SOPE   H3X21097   0.692   6.209   6.791
  184SOPE   H3Y21098   0.532   6.172   6.845
  184SOPE   C3421099   0.626   6.345   6.944
  184SOPE   H4X21100   0.530   6.387   6.980
  184SOPE   H4Y21101   0.712   6.411   6.922
  184SOPE   C3521102   0.680   6.262   7.058
  184SOPE   H5X21103   0.772   6.204   7.035
  184SOPE   H5Y21104   0.603   6.185   7.083
  184SOPE   C3621105   0.704   6.349   7.185
  184SOPE   H6X21106   0.621   6.422   7.190
  184SOPE   H6Y21107   0.798   6.409   7.184
  184SOPE   C3721108   0.718   6.265   7.320
  184SOPE   H7X21109   0.806   6.201   7.299
  184SOPE   H7Y21110   0.632   6.197   7.335
  184SOPE   C3821111   0.740   6.358   7.445
  184SOPE   H8X21112   0.644   6.414   7.455
  184SOPE   H8Y21113   0.819   6.433   7.424
  184SOPE   C3921114   0.754   6.273   7.569
  184SOPE   H9X21115   0.838   6.204   7.546
  184SOPE   H9Y21116   0.666   6.212   7.598
  184SOPE  C31021117   0.805   6.351   7.697
  184SOPE  H10X21118   0.710   6.404   7.719
  184SOPE  H10Y21119   0.895   6.413   7.682
  184SOPE  C31121120   0.833   6.252   7.814
  184SOPE  H11X21121   0.923   6.193   7.790
  184SOPE  H11Y21122   0.757   6.172   7.830
  184SOPE  C31221123   0.863   6.334   7.938
  184SOPE  H12X21124   0.770   6.369   7.988
  184SOPE  H12Y21125   0.937   6.415   7.919
  184SOPE  C31321126   0.919   6.237   8.047
  184SOPE  H13X21127   1.006   6.203   7.986
  184SOPE  H13Y21128   0.864   6.143   8.069
  184SOPE  C31421129   0.983   6.304   8.171
  184SOPE  H14X21130   0.902   6.341   8.237
  184SOPE  H14Y21131   1.054   6.388   8.155
  184SOPE  C31521132   1.047   6.193   8.260
  184SOPE  H15X21133   1.157   6.187   8.246
  184SOPE  H15Y21134   1.010   6.089   8.247
  184SOPE  C31621135   1.027   6.217   8.411
  184SOPE  H16X21136   0.999   6.120   8.458
  184SOPE  H16Y21137   0.945   6.291   8.413
  184SOPE  C31721138   1.159   6.273   8.469
  184SOPE  H17X21139   1.171   6.378   8.436
  184SOPE  H17Y21140   1.247   6.215   8.433
  184SOPE  C31821141   1.165   6.262   8.623
  184SOPE  H18X21142   1.260   6.301   8.663
  184SOPE  H18Y21143   1.165   6.154   8.649
  184SOPE  H18Z21144   1.081   6.312   8.677
  185SAPI   C1221145   4.085   3.310  11.238
  185SAPI    H221146   4.093   3.389  11.159
  185SAPI    O221147   4.216   3.249  11.252
  185SAPI   HO221148   4.234   3.202  11.171
  185SAPI   C1321149   4.035   3.367  11.365
  185SAPI    H321150   3.935   3.412  11.349
  185SAPI    O321151   4.119   3.471  11.412
  185SAPI   HO321152   4.084   3.558  11.389
  185SAPI   C1421153   4.021   3.255  11.467
  185SAPI    H421154   4.120   3.244  11.515
  185SAPI    O421155   3.928   3.295  11.569
  185SAPI   HO421156   3.837   3.301  11.539
  185SAPI   C1521157   3.988   3.112  11.409
  185SAPI    H521158   3.878   3.118  11.426
  185SAPI    O521159   4.030   3.002  11.490
  185SAPI   HO521160   4.116   2.971  11.461
  185SAPI   C1621161   3.976   3.091  11.256
  185SAPI    H621162   4.075   3.045  11.236
  185SAPI    O621163   3.867   3.008  11.208
  185SAPI   HO621164   3.843   3.045  11.123
  185SAPI   C1121165   3.974   3.222  11.176
  185SAPI    H121166   3.874   3.270  11.188
  185SAPI     P21167   3.920   3.246  10.917
  185SAPI   O1321168   3.949   3.391  10.894
  185SAPI   O1421169   3.783   3.209  10.943
  185SAPI   O1221170   4.017   3.200  11.042
  185SAPI   O1121171   3.969   3.163  10.795
  185SAPI    C121172   3.938   3.026  10.769
  185SAPI    HA21173   4.028   2.967  10.795
  185SAPI    HB21174   3.853   2.986  10.828
  185SAPI    C221175   3.898   2.989  10.621
  185SAPI    HS21176   3.889   2.878  10.621
  185SAPI   O2121177   3.997   3.041  10.528
  185SAPI   C2121178   4.108   2.977  10.513
  185SAPI   O2221179   4.144   2.878  10.579
  185SAPI   C2221180   4.189   3.033  10.396
  185SAPI   H2R21181   4.137   3.119  10.350
  185SAPI   H2S21182   4.283   3.071  10.443
  185SAPI    C321183   3.766   3.049  10.590
  185SAPI    HX21184   3.784   3.159  10.594
  185SAPI    HY21185   3.692   3.013  10.664
  185SAPI   O3121186   3.727   3.007  10.457
  185SAPI   C3121187   3.611   3.067  10.416
  185SAPI   O3221188   3.558   3.163  10.472
  185SAPI   C3221189   3.552   2.995  10.292
  185SAPI   H2X21190   3.444   2.981  10.310
  185SAPI   H2Y21191   3.603   2.896  10.294
  185SAPI   C2321192   4.221   2.926  10.291
  185SAPI   H3R21193   4.148   2.842  10.284
  185SAPI   H3S21194   4.316   2.877  10.320
  185SAPI   C2421195   4.254   2.982  10.154
  185SAPI   H4R21196   4.315   2.906  10.101
  185SAPI   H4S21197   4.317   3.073  10.158
  185SAPI   C2521198   4.129   3.007  10.076
  185SAPI   H5R21199   4.037   3.018  10.135
  185SAPI   C2621200   4.120   3.034   9.941
  185SAPI   H6R21201   4.029   3.081   9.902
  185SAPI   C2721202   4.241   3.026   9.847
  185SAPI   H7R21203   4.335   3.006   9.902
  185SAPI   H7S21204   4.273   3.121   9.799
  185SAPI   C2821205   4.218   2.931   9.735
  185SAPI   H8R21206   4.255   2.830   9.760
  185SAPI   C2921207   4.175   2.936   9.606
  185SAPI   H9R21208   4.174   2.846   9.543
  185SAPI  C21021209   4.101   3.057   9.555
  185SAPI  H10R21210   4.164   3.133   9.504
  185SAPI  H10S21211   4.066   3.118   9.642
  185SAPI  C21121212   4.000   3.009   9.460
  185SAPI  H11R21213   3.911   2.961   9.504
  185SAPI  C21221214   4.016   2.997   9.326
  185SAPI  H12R21215   3.959   2.928   9.262
  185SAPI  C21321216   4.139   3.053   9.256
  185SAPI  H13R21217   4.189   3.137   9.308
  185SAPI  H13S21218   4.104   3.100   9.161
  185SAPI  C21421219   4.247   2.957   9.226
  185SAPI  H14R21220   4.260   2.882   9.306
  185SAPI  C21521221   4.338   2.951   9.129
  185SAPI  H15R21222   4.402   2.862   9.125
  185SAPI  C21621223   4.349   3.029   8.999
  185SAPI  H16R21224   4.447   3.080   8.984
  185SAPI  H16S21225   4.270   3.106   8.996
  185SAPI  C21721226   4.330   2.938   8.877
  185SAPI  H17R21227   4.339   3.008   8.791
  185SAPI  H17S21228   4.234   2.883   8.878
  185SAPI  C21821229   4.433   2.827   8.855
  185SAPI  H18R21230   4.382   2.763   8.781
  185SAPI  H18S21231   4.435   2.752   8.937
  185SAPI  C21921232   4.569   2.877   8.816
  185SAPI  H19R21233   4.622   2.910   8.908
  185SAPI  H19S21234   4.560   2.962   8.745
  185SAPI  C22021235   4.650   2.772   8.744
  185SAPI  H20R21236   4.751   2.816   8.727
  185SAPI  H20S21237   4.615   2.759   8.639
  185SAPI  H20T21238   4.653   2.672   8.792
  185SAPI   C3321239   3.571   3.075  10.163
  185SAPI   H3X21240   3.677   3.068  10.133
  185SAPI   H3Y21241   3.559   3.184  10.181
  185SAPI   C3421242   3.487   3.034  10.046
  185SAPI   H4X21243   3.379   3.054  10.065
  185SAPI   H4Y21244   3.494   2.925  10.027
  185SAPI   C3521245   3.531   3.099   9.917
  185SAPI   H5X21246   3.627   3.052   9.886
  185SAPI   H5Y21247   3.533   3.209   9.932
  185SAPI   C3621248   3.430   3.094   9.801
  185SAPI   H6X21249   3.331   3.137   9.829
  185SAPI   H6Y21250   3.420   2.984   9.788
  185SAPI   C3721251   3.481   3.153   9.668
  185SAPI   H7X21252   3.583   3.114   9.649
  185SAPI   H7Y21253   3.483   3.264   9.672
  185SAPI   C3821254   3.400   3.109   9.537
  185SAPI   H8X21255   3.396   2.998   9.544
  185SAPI   H8Y21256   3.449   3.122   9.438
  185SAPI   C3921257   3.257   3.161   9.515
  185SAPI   H9X21258   3.192   3.127   9.598
  185SAPI   H9Y21259   3.219   3.118   9.420
  185SAPI  C31021260   3.247   3.315   9.499
  185SAPI  H10X21261   3.330   3.342   9.430
  185SAPI  H10Y21262   3.274   3.368   9.593
  185SAPI  C31121263   3.116   3.371   9.444
  185SAPI  H11X21264   3.033   3.343   9.512
  185SAPI  H11Y21265   3.096   3.328   9.344
  185SAPI  C31221266   3.124   3.524   9.429
  185SAPI  H12X21267   3.202   3.547   9.353
  185SAPI  H12Y21268   3.159   3.570   9.523
  185SAPI  C31321269   2.989   3.590   9.394
  185SAPI  H13X21270   2.919   3.561   9.475
  185SAPI  H13Y21271   2.947   3.553   9.297
  185SAPI  C31421272   2.993   3.741   9.396
  185SAPI  H14X21273   3.031   3.769   9.497
  185SAPI  H14Y21274   2.892   3.786   9.382
  185SAPI  C31521275   3.083   3.782   9.289
  185SAPI  H15X21276   3.043   3.733   9.198
  185SAPI  H15Y21277   3.184   3.743   9.314
  185SAPI  C31621278   3.062   3.930   9.258
  185SAPI  H16X21279   3.079   3.996   9.346
  185SAPI  H16Y21280   2.957   3.927   9.224
  185SAPI  C31721281   3.145   3.979   9.142
  185SAPI  H17X21282   3.103   4.074   9.103
  185SAPI  H17Y21283   3.147   3.894   9.071
  185SAPI  C31821284   3.289   4.006   9.180
  185SAPI  H18X21285   3.331   3.913   9.226
  185SAPI  H18Y21286   3.294   4.092   9.250
  185SAPI  H18Z21287   3.343   4.021   9.084
  186SAPI   C1221288   4.181   1.010  10.498
  186SAPI    H221289   4.274   1.031  10.442
  186SAPI    O221290   4.126   1.135  10.548
  186SAPI   HO221291   4.201   1.180  10.588
  186SAPI   C1321292   4.088   0.950  10.398
  186SAPI    H321293   4.145   0.862  10.361
  186SAPI    O321294   4.067   1.036  10.289
  186SAPI   HO321295   4.038   1.119  10.329
  186SAPI   C1421296   3.952   0.909  10.456
  186SAPI    H421297   3.906   1.002  10.495
  186SAPI    O421298   3.864   0.851  10.359
  186SAPI   HO421299   3.847   0.917  10.292
  186SAPI   C1521300   3.958   0.826  10.585
  186SAPI    H521301   3.961   0.718  10.558
  186SAPI    O521302   3.840   0.844  10.663
  186SAPI   HO521303   3.814   0.936  10.658
  186SAPI   C1621304   4.084   0.845  10.665
  186SAPI    H621305   4.051   0.906  10.752
  186SAPI    O621306   4.126   0.725  10.729
  186SAPI   HO621307   4.146   0.660  10.661
  186SAPI   C1121308   4.207   0.922  10.610
  186SAPI    H121309   4.263   0.837  10.566
  186SAPI     P21310   4.440   1.010  10.725
  186SAPI   O1321311   4.523   0.891  10.712
  186SAPI   O1421312   4.464   1.109  10.836
  186SAPI   O1221313   4.278   0.976  10.724
  186SAPI   O1121314   4.459   1.090  10.592
  186SAPI    C121315   4.582   1.111  10.521
  186SAPI    HA21316   4.609   1.219  10.524
  186SAPI    HB21317   4.671   1.064  10.568
  186SAPI    C221318   4.577   1.076  10.369
  186SAPI    HS21319   4.676   1.092  10.321
  186SAPI   O2121320   4.465   1.142  10.302
  186SAPI   C2121321   4.478   1.274  10.289
  186SAPI   O2221322   4.574   1.342  10.325
  186SAPI   C2221323   4.349   1.333  10.218
  186SAPI   H2R21324   4.265   1.348  10.288
  186SAPI   H2S21325   4.373   1.436  10.186
  186SAPI    C321326   4.561   0.924  10.345
  186SAPI    HX21327   4.461   0.904  10.390
  186SAPI    HY21328   4.623   0.870  10.419
  186SAPI   O3121329   4.586   0.877  10.213
  186SAPI   C3121330   4.705   0.842  10.181
  186SAPI   O3221331   4.806   0.840  10.252
  186SAPI   C3221332   4.708   0.801  10.033
  186SAPI   H2X21333   4.665   0.889   9.979
  186SAPI   H2Y21334   4.642   0.713  10.019
  186SAPI   C2321335   4.288   1.250  10.104
  186SAPI   H3R21336   4.194   1.299  10.070
  186SAPI   H3S21337   4.273   1.150  10.150
  186SAPI   C2421338   4.373   1.213   9.984
  186SAPI   H4R21339   4.315   1.152   9.911
  186SAPI   H4S21340   4.461   1.153  10.015
  186SAPI   C2521341   4.435   1.328   9.915
  186SAPI   H5R21342   4.495   1.391   9.982
  186SAPI   C2621343   4.445   1.352   9.783
  186SAPI   H6R21344   4.479   1.450   9.748
  186SAPI   C2721345   4.375   1.263   9.678
  186SAPI   H7R21346   4.363   1.159   9.714
  186SAPI   H7S21347   4.443   1.255   9.590
  186SAPI   C2821348   4.234   1.302   9.644
  186SAPI   H8R21349   4.160   1.296   9.726
  186SAPI   C2921350   4.190   1.335   9.518
  186SAPI   H9R21351   4.083   1.358   9.512
  186SAPI  C21021352   4.280   1.337   9.392
  186SAPI  H10R21353   4.359   1.260   9.406
  186SAPI  H10S21354   4.334   1.433   9.412
  186SAPI  C21121355   4.219   1.339   9.257
  186SAPI  H11R21356   4.117   1.298   9.253
  186SAPI  C21221357   4.275   1.384   9.146
  186SAPI  H12R21358   4.210   1.375   9.058
  186SAPI  C21321359   4.423   1.421   9.132
  186SAPI  H13R21360   4.460   1.455   9.231
  186SAPI  H13S21361   4.430   1.515   9.073
  186SAPI  C21421362   4.521   1.314   9.071
  186SAPI  H14R21363   4.606   1.283   9.134
  186SAPI  C21521364   4.509   1.268   8.952
  186SAPI  H15R21365   4.560   1.174   8.926
  186SAPI  C21621366   4.413   1.314   8.845
  186SAPI  H16R21367   4.377   1.419   8.849
  186SAPI  H16S21368   4.317   1.258   8.852
  186SAPI  C21721369   4.468   1.298   8.705
  186SAPI  H17R21370   4.492   1.192   8.686
  186SAPI  H17S21371   4.557   1.363   8.698
  186SAPI  C21821372   4.388   1.373   8.605
  186SAPI  H18R21373   4.378   1.479   8.635
  186SAPI  H18S21374   4.285   1.332   8.599
  186SAPI  C21921375   4.445   1.362   8.456
  186SAPI  H19R21376   4.542   1.415   8.453
  186SAPI  H19S21377   4.375   1.413   8.386
  186SAPI  C22021378   4.451   1.216   8.394
  186SAPI  H20R21379   4.365   1.148   8.411
  186SAPI  H20S21380   4.523   1.155   8.454
  186SAPI  H20T21381   4.487   1.211   8.289
  186SAPI   C3321382   4.852   0.764   9.989
  186SAPI   H3X21383   4.887   0.671  10.037
  186SAPI   H3Y21384   4.927   0.840  10.020
  186SAPI   C3421385   4.864   0.754   9.837
  186SAPI   H4X21386   4.851   0.858   9.801
  186SAPI   H4Y21387   4.792   0.684   9.790
  186SAPI   C3521388   5.011   0.720   9.793
  186SAPI   H5X21389   5.037   0.618   9.828
  186SAPI   H5Y21390   5.080   0.787   9.848
  186SAPI   C3621391   5.050   0.733   9.647
  186SAPI   H6X21392   5.158   0.714   9.629
  186SAPI   H6Y21393   5.034   0.842   9.631
  186SAPI   C3721394   4.960   0.647   9.560
  186SAPI   H7X21395   4.853   0.670   9.579
  186SAPI   H7Y21396   4.970   0.546   9.606
  186SAPI   C3821397   5.005   0.630   9.414
  186SAPI   H8X21398   4.933   0.560   9.367
  186SAPI   H8Y21399   5.104   0.580   9.408
  186SAPI   C3921400   5.007   0.763   9.323
  186SAPI   H9X21401   5.099   0.821   9.345
  186SAPI   H9Y21402   4.923   0.833   9.339
  186SAPI  C31021403   4.994   0.721   9.179
  186SAPI  H10X21404   4.900   0.670   9.150
  186SAPI  H10Y21405   5.069   0.639   9.171
  186SAPI  C31121406   5.041   0.819   9.062
  186SAPI  H11X21407   5.138   0.858   9.098
  186SAPI  H11Y21408   4.971   0.905   9.048
  186SAPI  C31221409   5.066   0.750   8.926
  186SAPI  H12X21410   5.130   0.820   8.869
  186SAPI  H12Y21411   4.968   0.729   8.879
  186SAPI  C31321412   5.137   0.611   8.923
  186SAPI  H13X21413   5.061   0.547   8.972
  186SAPI  H13Y21414   5.235   0.601   8.975
  186SAPI  C31421415   5.161   0.559   8.774
  186SAPI  H14X21416   5.230   0.634   8.730
  186SAPI  H14Y21417   5.073   0.568   8.708
  186SAPI  C31521418   5.220   0.419   8.758
  186SAPI  H15X21419   5.295   0.391   8.835
  186SAPI  H15Y21420   5.273   0.417   8.660
  186SAPI  C31621421   5.114   0.311   8.758
  186SAPI  H16X21422   5.019   0.353   8.721
  186SAPI  H16Y21423   5.087   0.272   8.858
  186SAPI  C31721424   5.152   0.189   8.669
  186SAPI  H17X21425   5.253   0.153   8.698
  186SAPI  H17Y21426   5.154   0.239   8.570
  186SAPI  C31821427   5.053   0.072   8.677
  186SAPI  H18X21428   5.086  -0.011   8.610
  186SAPI  H18Y21429   4.952   0.093   8.638
  186SAPI  H18Z21430   5.052   0.030   8.780
  187SAPI   C1221431   1.456   2.544   6.163
  187SAPI    H221432   1.352   2.581   6.150
  187SAPI    O221433   1.464   2.432   6.072
  187SAPI   HO221434   1.495   2.358   6.125
  187SAPI   C1321435   1.549   2.663   6.135
  187SAPI    H321436   1.539   2.742   6.212
  187SAPI    O321437   1.516   2.732   6.014
  187SAPI   HO321438   1.510   2.664   5.946
  187SAPI   C1421439   1.689   2.614   6.136
  187SAPI    H421440   1.688   2.542   6.052
  187SAPI    O421441   1.787   2.713   6.106
  187SAPI   HO421442   1.873   2.693   6.144
  187SAPI   C1521443   1.730   2.529   6.258
  187SAPI    H521444   1.773   2.599   6.333
  187SAPI    O521445   1.839   2.440   6.232
  187SAPI   HO521446   1.865   2.406   6.318
  187SAPI   C1621447   1.617   2.440   6.322
  187SAPI    H621448   1.620   2.342   6.270
  187SAPI    O621449   1.642   2.413   6.459
  187SAPI   HO621450   1.657   2.492   6.512
  187SAPI   C1121451   1.477   2.506   6.302
  187SAPI    H121452   1.486   2.596   6.368
  187SAPI     P21453   1.233   2.479   6.412
  187SAPI   O1321454   1.135   2.374   6.395
  187SAPI   O1421455   1.206   2.607   6.345
  187SAPI   O1221456   1.374   2.419   6.354
  187SAPI   O1121457   1.261   2.510   6.560
  187SAPI    C121458   1.274   2.644   6.618
  187SAPI    HA21459   1.379   2.676   6.601
  187SAPI    HB21460   1.214   2.718   6.562
  187SAPI    C221461   1.248   2.642   6.776
  187SAPI    HS21462   1.257   2.742   6.823
  187SAPI   O2121463   1.344   2.552   6.836
  187SAPI   C2121464   1.460   2.592   6.861
  187SAPI   O2221465   1.502   2.703   6.822
  187SAPI   C2221466   1.541   2.492   6.943
  187SAPI   H2R21467   1.509   2.392   6.906
  187SAPI   H2S21468   1.650   2.509   6.935
  187SAPI    C321469   1.106   2.587   6.806
  187SAPI    HX21470   1.104   2.489   6.754
  187SAPI    HY21471   1.039   2.654   6.748
  187SAPI   O3121472   1.082   2.587   6.947
  187SAPI   C3121473   1.106   2.471   7.010
  187SAPI   O3221474   1.128   2.364   6.954
  187SAPI   C3221475   1.081   2.488   7.158
  187SAPI   H2X21476   1.000   2.559   7.185
  187SAPI   H2Y21477   1.181   2.529   7.186
  187SAPI   C2321478   1.504   2.485   7.101
  187SAPI   H3R21479   1.585   2.420   7.141
  187SAPI   H3S21480   1.402   2.443   7.113
  187SAPI   C2421481   1.513   2.615   7.172
  187SAPI   H4R21482   1.463   2.599   7.270
  187SAPI   H4S21483   1.451   2.692   7.122
  187SAPI   C2521484   1.653   2.669   7.187
  187SAPI   H5R21485   1.696   2.717   7.097
  187SAPI   C2621486   1.712   2.682   7.308
  187SAPI   H6R21487   1.808   2.736   7.304
  187SAPI   C2721488   1.662   2.640   7.445
  187SAPI   H7R21489   1.561   2.682   7.461
  187SAPI   H7S21490   1.716   2.708   7.515
  187SAPI   C2821491   1.661   2.493   7.476
  187SAPI   H8R21492   1.716   2.436   7.400
  187SAPI   C2921493   1.609   2.437   7.585
  187SAPI   H9R21494   1.613   2.330   7.610
  187SAPI  C21021495   1.533   2.506   7.695
  187SAPI  H10R21496   1.562   2.612   7.710
  187SAPI  H10S21497   1.582   2.466   7.786
  187SAPI  C21121498   1.383   2.503   7.675
  187SAPI  H11R21499   1.354   2.556   7.583
  187SAPI  C21221500   1.297   2.434   7.748
  187SAPI  H12R21501   1.190   2.443   7.721
  187SAPI  C21321502   1.333   2.366   7.881
  187SAPI  H13R21503   1.434   2.320   7.886
  187SAPI  H13S21504   1.271   2.274   7.885
  187SAPI  C21421505   1.324   2.455   8.001
  187SAPI  H14R21506   1.358   2.559   7.989
  187SAPI  C21521507   1.260   2.435   8.119
  187SAPI  H15R21508   1.245   2.516   8.192
  187SAPI  C21621509   1.189   2.312   8.170
  187SAPI  H16R21510   1.216   2.284   8.274
  187SAPI  H16S21511   1.228   2.233   8.101
  187SAPI  C21721512   1.039   2.321   8.178
  187SAPI  H17R21513   0.986   2.340   8.082
  187SAPI  H17S21514   1.013   2.411   8.238
  187SAPI  C21821515   0.984   2.202   8.253
  187SAPI  H18R21516   1.043   2.181   8.344
  187SAPI  H18S21517   0.979   2.111   8.190
  187SAPI  C21921518   0.845   2.217   8.306
  187SAPI  H19R21519   0.804   2.117   8.334
  187SAPI  H19S21520   0.780   2.253   8.223
  187SAPI  C22021521   0.830   2.323   8.415
  187SAPI  H20R21522   0.729   2.322   8.463
  187SAPI  H20S21523   0.853   2.427   8.384
  187SAPI  H20T21524   0.889   2.294   8.505
  187SAPI   C3321525   1.056   2.354   7.229
  187SAPI   H3X21526   0.986   2.286   7.175
  187SAPI   H3Y21527   1.013   2.378   7.329
  187SAPI   C3421528   1.183   2.266   7.246
  187SAPI   H4X21529   1.259   2.326   7.300
  187SAPI   H4Y21530   1.234   2.245   7.150
  187SAPI   C3521531   1.159   2.135   7.327
  187SAPI   H5X21532   1.259   2.087   7.330
  187SAPI   H5Y21533   1.087   2.067   7.276
  187SAPI   C3621534   1.113   2.149   7.476
  187SAPI   H6X21535   1.013   2.197   7.483
  187SAPI   H6Y21536   1.184   2.221   7.522
  187SAPI   C3721537   1.115   2.018   7.551
  187SAPI   H7X21538   1.216   1.970   7.558
  187SAPI   H7Y21539   1.056   1.952   7.484
  187SAPI   C3821540   1.062   2.037   7.699
  187SAPI   H8X21541   0.955   2.064   7.691
  187SAPI   H8Y21542   1.124   2.109   7.757
  187SAPI   C3921543   1.065   1.901   7.770
  187SAPI   H9X21544   1.170   1.874   7.794
  187SAPI   H9Y21545   1.021   1.828   7.699
  187SAPI  C31021546   0.983   1.907   7.904
  187SAPI  H10X21547   0.879   1.942   7.885
  187SAPI  H10Y21548   1.029   1.985   7.969
  187SAPI  C31121549   0.981   1.775   7.979
  187SAPI  H11X21550   1.082   1.734   8.002
  187SAPI  H11Y21551   0.925   1.701   7.917
  187SAPI  C31221552   0.899   1.795   8.109
  187SAPI  H12X21553   0.793   1.804   8.077
  187SAPI  H12Y21554   0.929   1.892   8.155
  187SAPI  C31321555   0.931   1.691   8.219
  187SAPI  H13X21556   0.905   1.733   8.319
  187SAPI  H13Y21557   1.042   1.685   8.217
  187SAPI  C31421558   0.874   1.555   8.195
  187SAPI  H14X21559   0.954   1.478   8.205
  187SAPI  H14Y21560   0.837   1.544   8.091
  187SAPI  C31521561   0.766   1.530   8.301
  187SAPI  H15X21562   0.683   1.600   8.283
  187SAPI  H15Y21563   0.801   1.553   8.404
  187SAPI  C31621564   0.708   1.385   8.307
  187SAPI  H16X21565   0.797   1.319   8.314
  187SAPI  H16Y21566   0.647   1.356   8.220
  187SAPI  C31721567   0.620   1.353   8.430
  187SAPI  H17X21568   0.534   1.423   8.426
  187SAPI  H17Y21569   0.678   1.370   8.522
  187SAPI  C31821570   0.568   1.210   8.417
  187SAPI  H18X21571   0.520   1.177   8.512
  187SAPI  H18Y21572   0.643   1.133   8.390
  187SAPI  H18Z21573   0.489   1.213   8.338
  188SAPI   C1221574   2.666   5.992   6.526
  188SAPI    H221575   2.640   5.925   6.611
  188SAPI    O221576   2.549   6.033   6.461
  188SAPI   HO221577   2.524   5.958   6.406
  188SAPI   C1321578   2.753   6.109   6.579
  188SAPI    H321579   2.843   6.067   6.628
  188SAPI    O321580   2.686   6.181   6.683
  188SAPI   HO321581   2.648   6.252   6.631
  188SAPI   C1421582   2.797   6.196   6.464
  188SAPI    H421583   2.709   6.227   6.404
  188SAPI    O421584   2.855   6.321   6.499
  188SAPI   HO421585   2.812   6.398   6.460
  188SAPI   C1521586   2.878   6.117   6.362
  188SAPI    H521587   2.974   6.087   6.410
  188SAPI    O521588   2.915   6.185   6.240
  188SAPI   HO521589   2.878   6.273   6.231
  188SAPI   C1621590   2.816   5.983   6.321
  188SAPI    H621591   2.738   5.993   6.241
  188SAPI    O621592   2.910   5.896   6.257
  188SAPI   HO621593   2.940   5.836   6.326
  188SAPI   C1121594   2.754   5.903   6.434
  188SAPI    H121595   2.833   5.878   6.507
  188SAPI     P21596   2.714   5.637   6.428
  188SAPI   O1321597   2.858   5.610   6.400
  188SAPI   O1421598   2.619   5.550   6.360
  188SAPI   O1221599   2.682   5.793   6.389
  188SAPI   O1121600   2.691   5.626   6.584
  188SAPI    C121601   2.558   5.637   6.643
  188SAPI    HA21602   2.538   5.733   6.695
  188SAPI    HB21603   2.480   5.635   6.563
  188SAPI    C221604   2.546   5.517   6.746
  188SAPI    HS21605   2.440   5.517   6.779
  188SAPI   O2121606   2.639   5.545   6.853
  188SAPI   C2121607   2.593   5.633   6.945
  188SAPI   O2221608   2.479   5.674   6.954
  188SAPI   C2221609   2.708   5.668   7.038
  188SAPI   H2R21610   2.741   5.576   7.092
  188SAPI   H2S21611   2.788   5.717   6.979
  188SAPI    C321612   2.567   5.381   6.678
  188SAPI    HX21613   2.665   5.367   6.627
  188SAPI    HY21614   2.488   5.373   6.601
  188SAPI   O3121615   2.548   5.275   6.778
  188SAPI   C3121616   2.661   5.220   6.823
  188SAPI   O3221617   2.776   5.246   6.785
  188SAPI   C3221618   2.631   5.128   6.942
  188SAPI   H2X21619   2.655   5.028   6.900
  188SAPI   H2Y21620   2.524   5.152   6.962
  188SAPI   C2321621   2.665   5.767   7.154
  188SAPI   H3R21622   2.617   5.846   7.093
  188SAPI   H3S21623   2.762   5.798   7.198
  188SAPI   C2421624   2.574   5.712   7.262
  188SAPI   H4R21625   2.624   5.620   7.301
  188SAPI   H4S21626   2.480   5.669   7.220
  188SAPI   C2521627   2.549   5.819   7.374
  188SAPI   H5R21628   2.458   5.880   7.366
  188SAPI   C2621629   2.616   5.828   7.490
  188SAPI   H6R21630   2.578   5.896   7.567
  188SAPI   C2721631   2.726   5.744   7.542
  188SAPI   H7R21632   2.749   5.666   7.467
  188SAPI   H7S21633   2.693   5.698   7.638
  188SAPI   C2821634   2.843   5.842   7.568
  188SAPI   H8R21635   2.851   5.922   7.493
  188SAPI   C2921636   2.932   5.829   7.670
  188SAPI   H9R21637   3.006   5.906   7.694
  188SAPI  C21021638   2.903   5.743   7.787
  188SAPI  H10R21639   2.995   5.696   7.828
  188SAPI  H10S21640   2.842   5.658   7.749
  188SAPI  C21121641   2.823   5.817   7.894
  188SAPI  H11R21642   2.788   5.917   7.865
  188SAPI  C21221643   2.774   5.764   8.008
  188SAPI  H12R21644   2.723   5.829   8.081
  188SAPI  C21321645   2.792   5.616   8.050
  188SAPI  H13R21646   2.855   5.560   7.978
  188SAPI  H13S21647   2.703   5.550   8.062
  188SAPI  C21421648   2.857   5.606   8.189
  188SAPI  H14R21649   2.786   5.623   8.271
  188SAPI  C21521650   2.979   5.566   8.224
  188SAPI  H15R21651   3.013   5.569   8.328
  188SAPI  C21621652   3.091   5.554   8.127
  188SAPI  H16R21653   3.055   5.565   8.022
  188SAPI  H16S21654   3.127   5.449   8.129
  188SAPI  C21721655   3.202   5.658   8.155
  188SAPI  H17R21656   3.153   5.757   8.139
  188SAPI  H17S21657   3.278   5.655   8.074
  188SAPI  C21821658   3.263   5.652   8.293
  188SAPI  H18R21659   3.237   5.553   8.337
  188SAPI  H18S21660   3.210   5.720   8.362
  188SAPI  C21921661   3.419   5.674   8.297
  188SAPI  H19R21662   3.451   5.765   8.241
  188SAPI  H19S21663   3.470   5.584   8.257
  188SAPI  C22021664   3.481   5.689   8.435
  188SAPI  H20R21665   3.471   5.596   8.494
  188SAPI  H20S21666   3.454   5.778   8.495
  188SAPI  H20T21667   3.591   5.705   8.428
  188SAPI   C3321668   2.704   5.185   7.060
  188SAPI   H3X21669   2.671   5.287   7.090
  188SAPI   H3Y21670   2.813   5.200   7.045
  188SAPI   C3421671   2.689   5.099   7.182
  188SAPI   H4X21672   2.709   4.995   7.149
  188SAPI   H4Y21673   2.580   5.096   7.206
  188SAPI   C3521674   2.761   5.144   7.305
  188SAPI   H5X21675   2.757   5.255   7.316
  188SAPI   H5Y21676   2.869   5.118   7.309
  188SAPI   C3621677   2.690   5.090   7.426
  188SAPI   H6X21678   2.676   4.980   7.425
  188SAPI   H6Y21679   2.592   5.141   7.433
  188SAPI   C3721680   2.773   5.125   7.551
  188SAPI   H7X21681   2.773   5.235   7.568
  188SAPI   H7Y21682   2.879   5.090   7.549
  188SAPI   C3821683   2.698   5.073   7.675
  188SAPI   H8X21684   2.714   4.963   7.672
  188SAPI   H8Y21685   2.591   5.103   7.678
  188SAPI   C3921686   2.760   5.138   7.797
  188SAPI   H9X21687   2.758   5.249   7.797
  188SAPI   H9Y21688   2.866   5.105   7.801
  188SAPI  C31021689   2.684   5.089   7.917
  188SAPI  H10X21690   2.671   4.979   7.904
  188SAPI  H10Y21691   2.587   5.142   7.912
  188SAPI  C31121692   2.751   5.119   8.060
  188SAPI  H11X21693   2.752   5.230   8.064
  188SAPI  H11Y21694   2.853   5.078   8.077
  188SAPI  C31221695   2.659   5.073   8.184
  188SAPI  H12X21696   2.664   4.962   8.190
  188SAPI  H12Y21697   2.555   5.093   8.149
  188SAPI  C31321698   2.682   5.136   8.324
  188SAPI  H13X21699   2.787   5.165   8.350
  188SAPI  H13Y21700   2.646   5.080   8.413
  188SAPI  C31421701   2.613   5.272   8.348
  188SAPI  H14X21702   2.510   5.264   8.307
  188SAPI  H14Y21703   2.671   5.350   8.294
  188SAPI  C31521704   2.595   5.307   8.494
  188SAPI  H15X21705   2.571   5.221   8.560
  188SAPI  H15Y21706   2.507   5.373   8.505
  188SAPI  C31621707   2.726   5.369   8.543
  188SAPI  H16X21708   2.769   5.436   8.466
  188SAPI  H16Y21709   2.804   5.292   8.560
  188SAPI  C31721710   2.705   5.437   8.683
  188SAPI  H17X21711   2.611   5.496   8.672
  188SAPI  H17Y21712   2.797   5.498   8.695
  188SAPI  C31821713   2.668   5.343   8.800
  188SAPI  H18X21714   2.679   5.385   8.902
  188SAPI  H18Y21715   2.738   5.260   8.777
  188SAPI  H18Z21716   2.567   5.302   8.780
  189POPC     N21717   3.009   6.722  11.019
  189POPC   C1221718   2.957   6.746  11.159
  189POPC  H12A21719   2.999   6.841  11.187
  189POPC  H12B21720   2.996   6.667  11.220
  189POPC   C1321721   2.934   6.613  10.943
  189POPC  H13A21722   2.831   6.642  10.928
  189POPC  H13B21723   2.981   6.606  10.846
  189POPC  H13C21724   2.943   6.515  10.989
  189POPC   C1421725   3.001   6.851  10.938
  189POPC  H14A21726   3.015   6.833  10.832
  189POPC  H14B21727   2.907   6.902  10.951
  189POPC  H14C21728   3.075   6.920  10.976
  189POPC   C1521729   3.156   6.690  11.035
  189POPC  H15A21730   3.181   6.591  11.070
  189POPC  H15B21731   3.200   6.760  11.104
  189POPC  H15C21732   3.206   6.702  10.940
  189POPC   C1121733   2.802   6.760  11.178
  189POPC  H11A21734   2.790   6.763  11.289
  189POPC  H11B21735   2.748   6.671  11.138
  189POPC     P21736   2.640   6.874  11.012
  189POPC   O1321737   2.618   7.002  10.944
  189POPC   O1421738   2.525   6.810  11.080
  189POPC   O1221739   2.751   6.879  11.121
  189POPC   O1121740   2.693   6.776  10.903
  189POPC    C121741   2.606   6.707  10.808
  189POPC    HA21742   2.500   6.711  10.841
  189POPC    HB21743   2.634   6.600  10.820
  189POPC    C221744   2.637   6.771  10.670
  189POPC    HS21745   2.611   6.879  10.671
  189POPC   O2121746   2.546   6.701  10.575
  189POPC   C2121747   2.500   6.770  10.478
  189POPC   O2221748   2.527   6.887  10.457
  189POPC   C2221749   2.404   6.683  10.404
  189POPC   H2R21750   2.311   6.685  10.464
  189POPC   H2S21751   2.449   6.582  10.413
  189POPC    C321752   2.784   6.751  10.635
  189POPC    HX21753   2.807   6.644  10.652
  189POPC    HY21754   2.851   6.808  10.703
  189POPC   O3121755   2.819   6.765  10.493
  189POPC   C3121756   2.879   6.880  10.458
  189POPC   O3221757   2.883   6.973  10.534
  189POPC   C3221758   2.920   6.887  10.311
  189POPC   H2X21759   3.030   6.872  10.316
  189POPC   H2Y21760   2.899   6.990  10.276
  189POPC   C2321761   2.378   6.719  10.258
  189POPC   H3R21762   2.432   6.809  10.222
  189POPC   H3S21763   2.271   6.748  10.253
  189POPC   C2421764   2.400   6.606  10.160
  189POPC   H4R21765   2.364   6.512  10.208
  189POPC   H4S21766   2.509   6.582  10.158
  189POPC   C2521767   2.354   6.616  10.012
  189POPC   H5R21768   2.403   6.702   9.962
  189POPC   H5S21769   2.247   6.647  10.008
  189POPC   C2621770   2.388   6.484   9.937
  189POPC   H6R21771   2.335   6.394   9.975
  189POPC   H6S21772   2.496   6.472   9.962
  189POPC   C2721773   2.361   6.488   9.780
  189POPC   H7R21774   2.398   6.591   9.758
  189POPC   H7S21775   2.255   6.482   9.749
  189POPC   C2821776   2.443   6.377   9.704
  189POPC   H8R21777   2.540   6.376   9.757
  189POPC   H8S21778   2.444   6.413   9.599
  189POPC   C2921779   2.377   6.239   9.713
  189POPC   H9121780   2.356   6.216   9.818
  189POPC  C21021781   2.317   6.178   9.609
  189POPC  H10121782   2.265   6.082   9.624
  189POPC  C21121783   2.331   6.205   9.459
  189POPC  H11R21784   2.319   6.313   9.437
  189POPC  H11S21785   2.239   6.167   9.409
  189POPC  C21221786   2.458   6.144   9.407
  189POPC  H12R21787   2.454   6.035   9.428
  189POPC  H12S21788   2.547   6.193   9.451
  189POPC  C21321789   2.476   6.150   9.257
  189POPC  H13R21790   2.584   6.133   9.237
  189POPC  H13S21791   2.450   6.254   9.227
  189POPC  C21421792   2.390   6.038   9.182
  189POPC  H14R21793   2.285   6.062   9.211
  189POPC  H14S21794   2.426   5.940   9.219
  189POPC  C21521795   2.418   6.030   9.030
  189POPC  H15R21796   2.408   6.130   8.983
  189POPC  H15S21797   2.339   5.970   8.982
  189POPC  C21621798   2.546   5.967   8.983
  189POPC  H16R21799   2.635   6.020   9.023
  189POPC  H16S21800   2.552   5.974   8.872
  189POPC  C21721801   2.565   5.820   9.015
  189POPC  H17R21802   2.534   5.805   9.121
  189POPC  H17S21803   2.670   5.785   9.006
  189POPC  C21821804   2.481   5.743   8.917
  189POPC  H18R21805   2.494   5.779   8.813
  189POPC  H18S21806   2.375   5.739   8.951
  189POPC  H18T21807   2.513   5.637   8.900
  189POPC   C3321808   2.839   6.788  10.227
  189POPC   H3X21809   2.731   6.804  10.244
  189POPC   H3Y21810   2.865   6.689  10.271
  189POPC   C3421811   2.872   6.797  10.080
  189POPC   H4X21812   2.979   6.771  10.066
  189POPC   H4Y21813   2.867   6.905  10.054
  189POPC   C3521814   2.799   6.702   9.984
  189POPC   H5X21815   2.701   6.747   9.956
  189POPC   H5Y21816   2.792   6.600  10.026
  189POPC   C3621817   2.883   6.676   9.854
  189POPC   H6X21818   2.983   6.638   9.881
  189POPC   H6Y21819   2.895   6.771   9.796
  189POPC   C3721820   2.801   6.576   9.761
  189POPC   H7X21821   2.718   6.626   9.707
  189POPC   H7Y21822   2.756   6.487   9.811
  189POPC   C3821823   2.889   6.529   9.645
  189POPC   H8X21824   2.968   6.464   9.688
  189POPC   H8Y21825   2.935   6.615   9.591
  189POPC   C3921826   2.810   6.454   9.530
  189POPC   H9X21827   2.701   6.466   9.518
  189POPC   H9Y21828   2.810   6.345   9.551
  189POPC  C31021829   2.882   6.471   9.388
  189POPC  H10X21830   2.990   6.448   9.394
  189POPC  H10Y21831   2.883   6.578   9.358
  189POPC  C31121832   2.828   6.390   9.262
  189POPC  H11X21833   2.717   6.403   9.258
  189POPC  H11Y21834   2.849   6.281   9.264
  189POPC  C31221835   2.887   6.449   9.128
  189POPC  H12X21836   2.995   6.422   9.133
  189POPC  H12Y21837   2.878   6.559   9.127
  189POPC  C31321838   2.827   6.381   9.000
  189POPC  H13X21839   2.718   6.360   9.007
  189POPC  H13Y21840   2.873   6.280   8.994
  189POPC  C31421841   2.861   6.454   8.864
  189POPC  H14X21842   2.969   6.482   8.864
  189POPC  H14Y21843   2.818   6.556   8.861
  189POPC  C31521844   2.819   6.369   8.744
  189POPC  H15X21845   2.812   6.425   8.647
  189POPC  H15Y21846   2.715   6.334   8.759
  189POPC  C31621847   2.904   6.248   8.711
  189POPC  H16X21848   3.008   6.279   8.690
  189POPC  H16Y21849   2.873   6.207   8.612
  189POPC  H16Z21850   2.909   6.161   8.780
  190POPC     N21851   4.555   3.455  11.316
  190POPC   C1221852   4.571   3.425  11.166
  190POPC  H12A21853   4.600   3.509  11.104
  190POPC  H12B21854   4.473   3.411  11.124
  190POPC   C1321855   4.539   3.323  11.395
  190POPC  H13A21856   4.619   3.255  11.369
  190POPC  H13B21857   4.536   3.351  11.499
  190POPC  H13C21858   4.452   3.266  11.366
  190POPC   C1421859   4.661   3.547  11.363
  190POPC  H14A21860   4.650   3.646  11.321
  190POPC  H14B21861   4.660   3.555  11.471
  190POPC  H14C21862   4.751   3.495  11.333
  190POPC   C1521863   4.417   3.523  11.339
  190POPC  H15A21864   4.394   3.540  11.443
  190POPC  H15B21865   4.342   3.454  11.304
  190POPC  H15C21866   4.405   3.611  11.278
  190POPC   C1121867   4.651   3.297  11.118
  190POPC  H11A21868   4.747   3.306  11.173
  190POPC  H11B21869   4.663   3.303  11.008
  190POPC     P21870   4.496   3.080  11.076
  190POPC   O1321871   4.373   3.146  11.035
  190POPC   O1421872   4.472   2.959  11.152
  190POPC   O1221873   4.591   3.172  11.157
  190POPC   O1121874   4.567   3.029  10.944
  190POPC    C121875   4.709   3.006  10.934
  190POPC    HA21876   4.718   2.898  10.913
  190POPC    HB21877   4.766   3.021  11.027
  190POPC    C221878   4.762   3.088  10.813
  190POPC    HS21879   4.768   3.192  10.854
  190POPC   O2121880   4.673   3.074  10.700
  190POPC   C2121881   4.705   3.155  10.596
  190POPC   O2221882   4.788   3.244  10.608
  190POPC   C2221883   4.631   3.106  10.474
  190POPC   H2R21884   4.566   3.016  10.485
  190POPC   H2S21885   4.706   3.075  10.398
  190POPC    C321886   4.914   3.048  10.788
  190POPC    HX21887   4.978   3.076  10.874
  190POPC    HY21888   4.960   3.118  10.716
  190POPC   O3121889   4.934   2.908  10.758
  190POPC   C3121890   4.902   2.879  10.627
  190POPC   O3221891   4.894   2.963  10.537
  190POPC   C3221892   4.889   2.728  10.599
  190POPC   H2X21893   4.924   2.670  10.687
  190POPC   H2Y21894   4.963   2.698  10.522
  190POPC   C2321895   4.550   3.215  10.400
  190POPC   H3R21896   4.588   3.318  10.416
  190POPC   H3S21897   4.449   3.213  10.448
  190POPC   C2421898   4.546   3.204  10.253
  190POPC   H4R21899   4.508   3.107  10.213
  190POPC   H4S21900   4.650   3.210  10.215
  190POPC   C2521901   4.473   3.317  10.185
  190POPC   H5R21902   4.524   3.411  10.215
  190POPC   H5S21903   4.372   3.336  10.227
  190POPC   C2621904   4.491   3.319  10.028
  190POPC   H6R21905   4.457   3.221   9.988
  190POPC   H6S21906   4.599   3.316  10.004
  190POPC   C2721907   4.423   3.428   9.953
  190POPC   H7R21908   4.459   3.409   9.850
  190POPC   H7S21909   4.470   3.517  10.001
  190POPC   C2821910   4.270   3.441   9.949
  190POPC   H8R21911   4.234   3.456  10.053
  190POPC   H8S21912   4.226   3.346   9.913
  190POPC   C2921913   4.232   3.549   9.848
  190POPC   H9121914   4.209   3.649   9.887
  190POPC  C21021915   4.216   3.531   9.718
  190POPC  H10121916   4.172   3.612   9.658
  190POPC  C21121917   4.240   3.410   9.642
  190POPC  H11R21918   4.161   3.333   9.659
  190POPC  H11S21919   4.342   3.375   9.669
  190POPC  C21221920   4.239   3.433   9.492
  190POPC  H12R21921   4.134   3.440   9.457
  190POPC  H12S21922   4.297   3.350   9.447
  190POPC  C21321923   4.318   3.559   9.449
  190POPC  H13R21924   4.413   3.568   9.506
  190POPC  H13S21925   4.266   3.656   9.466
  190POPC  C21421926   4.367   3.555   9.306
  190POPC  H14R21927   4.435   3.468   9.292
  190POPC  H14S21928   4.432   3.643   9.292
  190POPC  C21521929   4.254   3.555   9.195
  190POPC  H15R21930   4.212   3.657   9.181
  190POPC  H15S21931   4.179   3.486   9.239
  190POPC  C21621932   4.301   3.504   9.066
  190POPC  H16R21933   4.221   3.474   8.995
  190POPC  H16S21934   4.356   3.408   9.079
  190POPC  C21721935   4.387   3.607   8.982
  190POPC  H17R21936   4.462   3.655   9.049
  190POPC  H17S21937   4.310   3.678   8.945
  190POPC  C21821938   4.462   3.548   8.864
  190POPC  H18R21939   4.391   3.520   8.783
  190POPC  H18S21940   4.512   3.457   8.901
  190POPC  H18T21941   4.546   3.610   8.824
  190POPC   C3321942   4.747   2.673  10.552
  190POPC   H3X21943   4.670   2.680  10.633
  190POPC   H3Y21944   4.769   2.564  10.555
  190POPC   C3421945   4.689   2.731  10.423
  190POPC   H4X21946   4.677   2.841  10.436
  190POPC   H4Y21947   4.583   2.701  10.413
  190POPC   C3521948   4.763   2.698  10.292
  190POPC   H5X21949   4.780   2.588  10.293
  190POPC   H5Y21950   4.861   2.746  10.312
  190POPC   C3621951   4.692   2.773  10.183
  190POPC   H6X21952   4.680   2.881  10.204
  190POPC   H6Y21953   4.588   2.740  10.165
  190POPC   C3721954   4.760   2.765  10.048
  190POPC   H7X21955   4.747   2.661  10.013
  190POPC   H7Y21956   4.868   2.783  10.061
  190POPC   C3821957   4.693   2.860   9.954
  190POPC   H8X21958   4.741   2.959   9.964
  190POPC   H8Y21959   4.587   2.874   9.985
  190POPC   C3921960   4.692   2.811   9.806
  190POPC   H9X21961   4.633   2.890   9.755
  190POPC   H9Y21962   4.650   2.709   9.797
  190POPC  C31021963   4.833   2.811   9.741
  190POPC  H10X21964   4.896   2.731   9.786
  190POPC  H10Y21965   4.883   2.909   9.754
  190POPC  C31121966   4.818   2.785   9.589
  190POPC  H11X21967   4.754   2.695   9.579
  190POPC  H11Y21968   4.920   2.771   9.547
  190POPC  C31221969   4.778   2.913   9.506
  190POPC  H12X21970   4.876   2.962   9.489
  190POPC  H12Y21971   4.719   2.982   9.570
  190POPC  C31321972   4.721   2.865   9.380
  190POPC  H13X21973   4.697   2.958   9.323
  190POPC  H13Y21974   4.630   2.804   9.396
  190POPC  C31421975   4.821   2.783   9.290
  190POPC  H14X21976   4.772   2.768   9.192
  190POPC  H14Y21977   4.838   2.690   9.349
  190POPC  C31521978   4.962   2.843   9.263
  190POPC  H15X21979   5.006   2.867   9.363
  190POPC  H15Y21980   4.949   2.943   9.215
  190POPC  C31621981   5.064   2.753   9.190
  190POPC  H16X21982   5.159   2.809   9.189
  190POPC  H16Y21983   5.044   2.730   9.083
  190POPC  H16Z21984   5.076   2.661   9.251
  191POPC     N21985   5.506   4.280   6.179
  191POPC   C1221986   5.478   4.351   6.315
  191POPC  H12A21987   5.471   4.456   6.292
  191POPC  H12B21988   5.569   4.335   6.371
  191POPC   C1321989   5.516   4.129   6.195
  191POPC  H13A21990   5.430   4.093   6.249
  191POPC  H13B21991   5.519   4.088   6.095
  191POPC  H13C21992   5.601   4.097   6.255
  191POPC   C1421993   5.393   4.312   6.093
  191POPC  H14A21994   5.397   4.269   5.994
  191POPC  H14B21995   5.294   4.293   6.131
  191POPC  H14C21996   5.394   4.418   6.071
  191POPC   C1521997   5.629   4.339   6.121
  191POPC  H15A21998   5.715   4.338   6.186
  191POPC  H15B21999   5.615   4.441   6.088
  191POPC  H15C22000   5.659   4.279   6.036
  191POPC   C1122001   5.363   4.297   6.399
  191POPC  H11A22002   5.358   4.341   6.501
  191POPC  H11B22003   5.372   4.187   6.408
  191POPC     P22004   5.157   4.454   6.336
  191POPC   O1322005   5.039   4.448   6.251
  191POPC   O1422006   5.254   4.566   6.314
  191POPC   O1222007   5.232   4.319   6.334
  191POPC   O1122008   5.109   4.443   6.491
  191POPC    C122009   5.001   4.349   6.520
  191POPC    HA22010   5.008   4.260   6.454
  191POPC    HB22011   4.903   4.399   6.511
  191POPC    C222012   5.011   4.278   6.661
  191POPC    HS22013   4.931   4.202   6.670
  191POPC   O2122014   5.009   4.376   6.769
  191POPC   C2122015   4.895   4.431   6.797
  191POPC   O2222016   4.786   4.421   6.735
  191POPC   C2222017   4.916   4.525   6.917
  191POPC   H2R22018   4.987   4.605   6.887
  191POPC   H2S22019   4.973   4.474   6.998
  191POPC    C322020   5.141   4.192   6.677
  191POPC    HX22021   5.225   4.264   6.688
  191POPC    HY22022   5.162   4.148   6.577
  191POPC   O3122023   5.132   4.094   6.787
  191POPC   C3122024   5.229   4.004   6.789
  191POPC   O3222025   5.325   4.007   6.716
  191POPC   C3222026   5.206   3.897   6.899
  191POPC   H2X22027   5.102   3.861   6.909
  191POPC   H2Y22028   5.212   3.963   6.988
  191POPC   C2322029   4.798   4.594   6.992
  191POPC   H3R22030   4.713   4.537   7.034
  191POPC   H3S22031   4.756   4.683   6.940
  191POPC   C2422032   4.842   4.667   7.122
  191POPC   H4R22033   4.788   4.758   7.157
  191POPC   H4S22034   4.943   4.703   7.092
  191POPC   C2522035   4.860   4.572   7.246
  191POPC   H5R22036   4.905   4.477   7.209
  191POPC   H5S22037   4.764   4.541   7.294
  191POPC   C2622038   4.952   4.641   7.339
  191POPC   H6R22039   4.920   4.745   7.364
  191POPC   H6S22040   5.052   4.660   7.293
  191POPC   C2722041   4.976   4.561   7.472
  191POPC   H7R22042   5.006   4.463   7.429
  191POPC   H7S22043   4.883   4.552   7.532
  191POPC   C2822044   5.089   4.624   7.555
  191POPC   H8R22045   5.073   4.724   7.599
  191POPC   H8S22046   5.168   4.644   7.479
  191POPC   C2922047   5.151   4.533   7.654
  191POPC   H9122048   5.232   4.469   7.615
  191POPC  C21022049   5.093   4.505   7.776
  191POPC  H10122050   5.118   4.413   7.829
  191POPC  C21122051   4.971   4.583   7.837
  191POPC  H11R22052   4.876   4.527   7.850
  191POPC  H11S22053   4.961   4.682   7.786
  191POPC  C21222054   5.007   4.625   7.982
  191POPC  H12R22055   4.927   4.697   8.010
  191POPC  H12S22056   5.112   4.661   7.977
  191POPC  C21322057   5.004   4.517   8.100
  191POPC  H13R22058   5.059   4.427   8.067
  191POPC  H13S22059   4.897   4.486   8.105
  191POPC  C21422060   5.052   4.565   8.237
  191POPC  H14R22061   5.011   4.663   8.267
  191POPC  H14S22062   5.161   4.580   8.221
  191POPC  C21522063   5.044   4.466   8.354
  191POPC  H15R22064   5.089   4.368   8.326
  191POPC  H15S22065   4.938   4.452   8.385
  191POPC  C21622066   5.125   4.501   8.483
  191POPC  H16R22067   5.106   4.608   8.503
  191POPC  H16S22068   5.232   4.475   8.471
  191POPC  C21722069   5.073   4.423   8.611
  191POPC  H17R22070   5.091   4.314   8.601
  191POPC  H17S22071   4.965   4.449   8.612
  191POPC  C21822072   5.133   4.474   8.744
  191POPC  H18R22073   5.085   4.434   8.835
  191POPC  H18S22074   5.110   4.582   8.739
  191POPC  H18T22075   5.243   4.457   8.753
  191POPC   C3322076   5.301   3.767   6.904
  191POPC   H3X22077   5.408   3.786   6.882
  191POPC   H3Y22078   5.266   3.693   6.830
  191POPC   C3422079   5.311   3.708   7.047
  191POPC   H4X22080   5.369   3.614   7.044
  191POPC   H4Y22081   5.211   3.675   7.082
  191POPC   C3522082   5.382   3.797   7.150
  191POPC   H5X22083   5.329   3.894   7.158
  191POPC   H5Y22084   5.480   3.812   7.101
  191POPC   C3622085   5.396   3.732   7.290
  191POPC   H6X22086   5.449   3.800   7.358
  191POPC   H6Y22087   5.462   3.644   7.273
  191POPC   C3722088   5.259   3.703   7.354
  191POPC   H7X22089   5.195   3.638   7.291
  191POPC   H7Y22090   5.211   3.803   7.357
  191POPC   C3822091   5.277   3.649   7.495
  191POPC   H8X22092   5.335   3.719   7.559
  191POPC   H8Y22093   5.343   3.560   7.485
  191POPC   C3922094   5.142   3.622   7.564
  191POPC   H9X22095   5.088   3.551   7.498
  191POPC   H9Y22096   5.090   3.719   7.580
  191POPC  C31022097   5.143   3.570   7.703
  191POPC  H10X22098   5.187   3.640   7.777
  191POPC  H10Y22099   5.202   3.476   7.711
  191POPC  C31122100   4.998   3.539   7.752
  191POPC  H11X22101   4.945   3.465   7.688
  191POPC  H11Y22102   4.931   3.625   7.729
  191POPC  C31222103   4.977   3.511   7.892
  191POPC  H12X22104   4.929   3.591   7.953
  191POPC  H12Y22105   5.075   3.524   7.943
  191POPC  C31322106   4.927   3.372   7.919
  191POPC  H13X22107   4.992   3.300   7.866
  191POPC  H13Y22108   4.820   3.357   7.894
  191POPC  C31422109   4.939   3.332   8.066
  191POPC  H14X22110   4.914   3.423   8.125
  191POPC  H14Y22111   5.045   3.317   8.096
  191POPC  C31522112   4.838   3.227   8.112
  191POPC  H15X22113   4.844   3.142   8.041
  191POPC  H15Y22114   4.733   3.265   8.119
  191POPC  C31622115   4.860   3.177   8.255
  191POPC  H16X22116   4.944   3.106   8.261
  191POPC  H16Y22117   4.768   3.129   8.296
  191POPC  H16Z22118   4.886   3.270   8.309
  192POPC     N22119   3.791   6.619   6.104
  192POPC   C1222120   3.902   6.667   6.197
  192POPC  H12A22121   3.952   6.751   6.150
  192POPC  H12B22122   3.966   6.582   6.217
  192POPC   C1322123   3.851   6.538   5.992
  192POPC  H13A22124   3.930   6.475   6.031
  192POPC  H13B22125   3.780   6.480   5.934
  192POPC  H13C22126   3.900   6.605   5.923
  192POPC   C1422127   3.715   6.514   6.183
  192POPC  H14A22128   3.775   6.425   6.188
  192POPC  H14B22129   3.698   6.551   6.283
  192POPC  H14C22130   3.614   6.498   6.147
  192POPC   C1522131   3.706   6.729   6.055
  192POPC  H15A22132   3.774   6.805   6.020
  192POPC  H15B22133   3.643   6.769   6.133
  192POPC  H15C22134   3.636   6.689   5.983
  192POPC   C1122135   3.858   6.729   6.337
  192POPC  H11A22136   3.940   6.750   6.408
  192POPC  H11B22137   3.791   6.653   6.384
  192POPC     P22138   3.848   6.981   6.252
  192POPC   O1322139   3.730   7.068   6.213
  192POPC   O1422140   3.953   6.941   6.154
  192POPC   O1222141   3.784   6.852   6.314
  192POPC   O1122142   3.928   7.039   6.366
  192POPC    C122143   3.863   7.048   6.496
  192POPC    HA22144   3.832   6.948   6.533
  192POPC    HB22145   3.774   7.115   6.496
  192POPC    C222146   3.965   7.092   6.603
  192POPC    HS22147   4.004   7.190   6.568
  192POPC   O2122148   4.072   6.992   6.628
  192POPC   C2122149   4.193   7.045   6.652
  192POPC   O2222150   4.219   7.162   6.650
  192POPC   C2222151   4.287   6.931   6.667
  192POPC   H2R22152   4.359   6.940   6.583
  192POPC   H2S22153   4.242   6.830   6.652
  192POPC    C322154   3.888   7.124   6.738
  192POPC    HX22155   3.814   7.206   6.723
  192POPC    HY22156   3.977   7.158   6.796
  192POPC   O3122157   3.824   7.002   6.804
  192POPC   C3122158   3.864   6.978   6.930
  192POPC   O3222159   3.940   7.050   6.994
  192POPC   C3222160   3.814   6.845   6.977
  192POPC   H2X22161   3.841   6.769   6.900
  192POPC   H2Y22162   3.704   6.844   6.990
  192POPC   C2322163   4.371   6.932   6.799
  192POPC   H3R22164   4.427   7.028   6.799
  192POPC   H3S22165   4.448   6.851   6.800
  192POPC   C2422166   4.289   6.920   6.930
  192POPC   H4R22167   4.229   6.827   6.933
  192POPC   H4S22168   4.224   7.009   6.922
  192POPC   C2522169   4.364   6.932   7.062
  192POPC   H5R22170   4.439   7.014   7.056
  192POPC   H5S22171   4.438   6.849   7.066
  192POPC   C2622172   4.277   6.933   7.188
  192POPC   H6R22173   4.193   6.863   7.168
  192POPC   H6S22174   4.242   7.037   7.204
  192POPC   C2722175   4.356   6.889   7.315
  192POPC   H7R22176   4.440   6.957   7.341
  192POPC   H7S22177   4.411   6.797   7.288
  192POPC   C2822178   4.255   6.858   7.429
  192POPC   H8R22179   4.309   6.809   7.514
  192POPC   H8S22180   4.183   6.780   7.395
  192POPC   C2922181   4.200   6.993   7.466
  192POPC   H9122182   4.127   7.027   7.392
  192POPC  C21022183   4.237   7.069   7.563
  192POPC  H10122184   4.174   7.158   7.579
  192POPC  C21122185   4.331   7.027   7.676
  192POPC  H11R22186   4.330   7.107   7.753
  192POPC  H11S22187   4.437   7.024   7.642
  192POPC  C21222188   4.302   6.899   7.756
  192POPC  H12R22189   4.224   6.842   7.701
  192POPC  H12S22190   4.250   6.923   7.851
  192POPC  C21322191   4.422   6.810   7.792
  192POPC  H13R22192   4.491   6.807   7.705
  192POPC  H13S22193   4.394   6.703   7.800
  192POPC  C21422194   4.493   6.850   7.922
  192POPC  H14R22195   4.503   6.961   7.915
  192POPC  H14S22196   4.593   6.802   7.926
  192POPC  C21522197   4.406   6.806   8.041
  192POPC  H15R22198   4.359   6.709   8.015
  192POPC  H15S22199   4.326   6.880   8.061
  192POPC  C21622200   4.479   6.795   8.179
  192POPC  H16R22201   4.490   6.900   8.215
  192POPC  H16S22202   4.577   6.743   8.175
  192POPC  C21722203   4.399   6.721   8.290
  192POPC  H17R22204   4.453   6.750   8.383
  192POPC  H17S22205   4.391   6.611   8.274
  192POPC  C21822206   4.253   6.771   8.305
  192POPC  H18R22207   4.193   6.714   8.379
  192POPC  H18S22208   4.193   6.779   8.212
  192POPC  H18T22209   4.261   6.871   8.351
  192POPC   C3322210   3.887   6.819   7.107
  192POPC   H3X22211   3.860   6.893   7.186
  192POPC   H3Y22212   3.997   6.827   7.094
  192POPC   C3422213   3.867   6.679   7.164
  192POPC   H4X22214   3.871   6.611   7.076
  192POPC   H4Y22215   3.764   6.678   7.204
  192POPC   C3522216   3.973   6.632   7.265
  192POPC   H5X22217   4.075   6.653   7.226
  192POPC   H5Y22218   3.962   6.522   7.277
  192POPC   C3622219   3.928   6.690   7.406
  192POPC   H6X22220   3.818   6.676   7.416
  192POPC   H6Y22221   3.953   6.798   7.403
  192POPC   C3722222   3.991   6.614   7.520
  192POPC   H7X22223   4.102   6.627   7.522
  192POPC   H7Y22224   3.988   6.503   7.508
  192POPC   C3822225   3.929   6.655   7.655
  192POPC   H8X22226   3.820   6.670   7.641
  192POPC   H8Y22227   3.954   6.760   7.682
  192POPC   C3922228   3.973   6.566   7.770
  192POPC   H9X22229   4.077   6.602   7.780
  192POPC   H9Y22230   3.982   6.460   7.740
  192POPC  C31022231   3.896   6.588   7.903
  192POPC  H10X22232   3.808   6.520   7.893
  192POPC  H10Y22233   3.855   6.691   7.916
  192POPC  C31122234   3.982   6.566   8.027
  192POPC  H11X22235   3.918   6.567   8.118
  192POPC  H11Y22236   4.055   6.649   8.032
  192POPC  C31222237   4.055   6.436   8.031
  192POPC  H12X22238   4.125   6.423   7.946
  192POPC  H12Y22239   3.982   6.354   8.016
  192POPC  C31322240   4.142   6.417   8.155
  192POPC  H13X22241   4.082   6.440   8.246
  192POPC  H13Y22242   4.224   6.492   8.160
  192POPC  C31422243   4.186   6.276   8.179
  192POPC  H14X22244   4.237   6.236   8.088
  192POPC  H14Y22245   4.090   6.222   8.192
  192POPC  C31522246   4.283   6.262   8.293
  192POPC  H15X22247   4.219   6.266   8.384
  192POPC  H15Y22248   4.347   6.352   8.307
  192POPC  C31622249   4.377   6.140   8.291
  192POPC  H16X22250   4.445   6.130   8.204
  192POPC  H16Y22251   4.320   6.046   8.308
  192POPC  H16Z22252   4.450   6.151   8.374
  193SOD    SOD22253   0.585   1.015   1.342
  194SOD    SOD22254   2.506   5.353   3.505
  195SOD    SOD22255   5.371   4.877  15.010
  196SOD    SOD22256   6.231   3.366  12.660
  197SOD    SOD22257   3.673   6.489   3.744
  198SOD    SOD22258   0.411   6.188  11.450
  199SOD    SOD22259   4.980   3.643   5.090
  200SOD    SOD22260   3.056   6.357   0.709
  201SOD    SOD22261   3.176   3.234  14.679
  202SOD    SOD22262   2.838   5.962  11.321
  203SOD    SOD22263   4.672   4.608   6.612
  204SOD    SOD22264   2.142   2.546   4.374
  205SOD    SOD22265   5.944   4.928  10.375
  206SOD    SOD22266   1.186   0.414  16.410
  207SOD    SOD22267   1.572   3.232   4.549
  208SOD    SOD22268   3.546   1.467  15.956
  209SOD    SOD22269   4.296   2.922  15.249
  210SOD    SOD22270   0.252   2.877  16.680
  211SOD    SOD22271   3.760   2.524   1.953
  212SOD    SOD22272   1.023   3.913   2.299
  213SOD    SOD22273   1.324   6.118  14.163
  214SOD    SOD22274   1.772   0.786   3.434
  215SOD    SOD22275   4.525   4.841   2.875
  216SOD    SOD22276   6.333   0.775  16.770
  217SOD    SOD22277   0.095   0.449   2.808
  218SOD    SOD22278   4.476   2.688  13.581
  219SOD    SOD22279   2.937   1.930  10.770
  220SOD    SOD22280   0.543   1.841  13.622
  221SOD    SOD22281   2.800   2.102   1.776
  222SOD    SOD22282   4.640   2.500  11.925
  223SOD    SOD22283   5.032   1.059   5.583
  224SOD    SOD22284   1.027   5.023   5.761
  225SOD    SOD22285   0.065   1.100  10.958
  226SOD    SOD22286   5.434   2.353   1.240
  227SOD    SOD22287   3.178   2.124   6.091
  228SOD    SOD22288   3.925   5.809  13.832
  229SOD    SOD22289   2.387   4.671   0.413
  230SOD    SOD22290   1.909   0.462  11.627
  231SOD    SOD22291   2.447   5.119  12.563
  232SOD    SOD22292   6.732   4.999  13.798
  233SOD    SOD22293   2.807   1.553  11.493
  234SOD    SOD22294   4.115   3.552   2.362
  235SOD    SOD22295   2.350   3.419  12.038
  236SOD    SOD22296   5.487   2.947  12.339
  237SOD    SOD22297   0.045   3.674   1.209
  238SOD    SOD22298   4.456   5.129  11.983
  239SOD    SOD22299   1.350   2.409   4.236
  240SOD    SOD22300   4.638   0.421   0.629
  241SOD    SOD22301   3.286   2.885   0.758
  242SOD    SOD22302   0.132   0.130   5.968
  243SOD    SOD22303   2.934   0.613  12.236
  244SOD    SOD22304   1.631   2.469   1.720
  245SOD    SOD22305   4.589   2.008   0.971
  246SOD    SOD22306   4.483   2.131   5.868
  247SOD    SOD22307   1.003   3.641   3.525
  248SOD    SOD22308   2.450   5.640   2.250
  249SOD    SOD22309   3.342   1.340   3.440
  250SOD    SOD22310   6.489   4.055   3.776
  251SOD    SOD22311   1.551   1.714   5.488
  252SOD    SOD22312   0.831   0.669   1.332
  253SOD    SOD22313   3.511   2.577  15.061
  254SOD    SOD22314   4.510   0.568   1.923
  255SOD    SOD22315   2.886   0.266  13.417
  256SOD    SOD22316   6.769   5.858   5.923
  257SOD    SOD22317   5.392   0.590   1.262
  258SOD    SOD22318   0.523   3.329  10.791
  259SOD    SOD22319   2.642   2.591  10.773
  260SOD    SOD22320   4.039   0.246  11.416
  261SOD    SOD22321   3.802   1.424  14.177
  262SOD    SOD22322   5.072   0.384   2.112
  263SOD    SOD22323   6.420   3.547  10.432
  264SOD    SOD22324   3.948   2.568   5.519
  265SOD    SOD22325   3.394   1.798   6.165
  266SOD    SOD22326   1.094   6.679  11.597
  267SOD    SOD22327   5.886   2.265  16.791
  268SOD    SOD22328   2.618   2.766  16.754
  269SOD    SOD22329   5.785   0.651  12.543
  270CLA    CLA22330   0.419   0.424  14.156
  271CLA    CLA22331   2.306   6.432  15.688
  272CLA    CLA22332   5.329   6.717   5.362
  273CLA    CLA22333   1.956   5.323  13.113
  274CLA    CLA22334   3.509   2.738  14.837
  275CLA    CLA22335   0.278   5.516   4.218
  276CLA    CLA22336   0.553   5.588  13.384
  277CLA    CLA22337   6.112   3.616  17.027
  278CLA    CLA22338   4.283   4.574   5.174
  279CLA    CLA22339   2.375   2.603  11.799
  280CLA    CLA22340   2.907   2.566  14.604
  281CLA    CLA22341   5.346   1.396  13.787
  282CLA    CLA22342   0.778   0.919   1.804
  283CLA    CLA22343   3.641   0.879   1.753
  284CLA    CLA22344   4.572   1.254  13.893
  285CLA    CLA22345   5.104   0.869   2.437
  286CLA    CLA22346   2.744   1.286   4.312
  287CLA    CLA22347   4.247   0.473  16.077
  288CLA    CLA22348   0.197   1.021   1.580
  289CLA    CLA22349   1.855   0.255   3.957
  290CLA    CLA22350   4.837   0.518   0.798
  291CLA    CLA22351   2.504   2.175   3.564
  292CLA    CLA22352   5.207   0.933   1.639
  293CLA    CLA22353   2.952   3.978   1.298
  294CLA    CLA22354   4.924   6.209   3.999
  295CLA    CLA22355   6.395   4.253  13.477
  296CLA    CLA22356   1.594   1.301   0.608
  297CLA    CLA22357   5.714   6.325  14.003
  298CLA    CLA22358   0.578   1.938   1.664
  299CLA    CLA22359   5.976   3.322   0.852
  300CLA    CLA22360   1.381   5.961   1.863
  301CLA    CLA22361   2.043   6.719  12.008
  302CLA    CLA22362   4.213   4.626  14.407
  303CLA    CLA22363   4.798   0.742   0.328
  304CLA    CLA22364   1.085   5.496  12.181
  305CLA    CLA22365   6.482   5.229  16.259
  306CLA    CLA22366   5.864   0.745   3.334
  307CLA    CLA22367   0.176   3.527  15.017
  308CLA    CLA22368   2.379   0.449   3.045
  309CLA    CLA22369   2.424   3.403   2.782
  310CLA    CLA22370   6.570   3.839  14.990
  311CLA    CLA22371   4.796   2.142  14.330
  312CLA    CLA22372   3.022   2.862  16.799
  313CLA    CLA22373   3.085   6.200  14.306
  314CLA    CLA22374   5.654   6.374   1.455
  315CLA    CLA22375   5.675   1.829  17.049
  316CLA    CLA22376   1.810   1.456   0.090
  317CLA    CLA22377   4.128   2.853   2.566
  318CLA    CLA22378   3.220   1.887   0.874
  319CLA    CLA22379   5.705   3.194   4.073
  320CLA    CLA22380   3.174   0.612  13.913
  321CLA    CLA22381   2.174   5.042  15.521
  322CLA    CLA22382   6.201   2.485  16.110
  323TIP3   OH222383   0.837   2.497   4.571
  323TIP3    H122384   0.783   2.575   4.558
  323TIP3    H222385   0.885   2.516   4.652
  324TIP3   OH222386   2.863   1.275   1.088
  324TIP3    H122387   2.858   1.358   1.040
  324TIP3    H222388   2.786   1.276   1.146
  325TIP3   OH222389   5.649   6.037  15.910
  325TIP3    H122390   5.612   6.068  15.993
  325TIP3    H222391   5.740   6.067  15.911
  326TIP3   OH222392   2.821   1.301  14.275
  326TIP3    H122393   2.883   1.374  14.274
  326TIP3    H222394   2.819   1.270  14.184
  327TIP3   OH222395   5.446   3.838  13.202
  327TIP3    H122396   5.426   3.925  13.167
  327TIP3    H222397   5.487   3.791  13.129
  328TIP3   OH222398   5.451   3.013  15.782
  328TIP3    H122399   5.465   3.037  15.874
  328TIP3    H222400   5.436   2.919  15.784
  329TIP3   OH222401   0.680   2.757  15.567
  329TIP3    H122402   0.761   2.807  15.554
  329TIP3    H222403   0.670   2.707  15.487
  330TIP3   OH222404   5.114   6.227   4.490
  330TIP3    H122405   5.057   6.151   4.477
  330TIP3    H222406   5.121   6.267   4.403
  331TIP3   OH222407   2.590   5.646  14.400
  331TIP3    H122408   2.646   5.712  14.359
  331TIP3    H222409   2.565   5.588  14.327
  332TIP3   OH222410   0.435   4.686  14.418
  332TIP3    H122411   0.367   4.698  14.484
  332TIP3    H222412   0.517   4.683  14.468
  333TIP3   OH222413   0.673   4.313   2.252
  333TIP3    H122414   0.676   4.357   2.167
  333TIP3    H222415   0.675   4.385   2.316
  334TIP3   OH222416   5.564   2.690  14.910
  334TIP3    H122417   5.489   2.675  14.853
  334TIP3    H222418   5.526   2.717  14.994
  335TIP3   OH222419   0.427   1.219   6.647
  335TIP3    H122420   0.458   1.292   6.594
  335TIP3    H222421   0.350   1.186   6.600
  336TIP3   OH222422   1.433   0.784  14.805
  336TIP3    H122423   1.465   0.772  14.894
  336TIP3    H222424   1.364   0.850  14.813
  337TIP3   OH222425   3.637   1.187   0.329
  337TIP3    H122426   3.661   1.123   0.262
  337TIP3    H222427   3.662   1.272   0.291
  338TIP3   OH222428   1.834   1.558  14.419
  338TIP3    H122429   1.831   1.638  14.471
  338TIP3    H222430   1.910   1.510  14.453
  339TIP3   OH222431   1.824   4.913  11.421
  339TIP3    H122432   1.748   4.959  11.387
  339TIP3    H222433   1.893   4.979  11.423
  340TIP3   OH222434   0.034   3.919  15.157
  340TIP3    H122435   0.047   3.826  15.175
  340TIP3    H222436  -0.059   3.926  15.137
  341TIP3   OH222437   2.822   0.990  12.086
  341TIP3    H122438   2.802   1.026  12.173
  341TIP3    H222439   2.800   1.061  12.026
  342TIP3   OH222440   4.553   6.320   2.632
  342TIP3    H122441   4.516   6.238   2.667
  342TIP3    H222442   4.478   6.362   2.589
  343TIP3   OH222443   5.861   0.463   3.217
  343TIP3    H122444   5.846   0.555   3.241
  343TIP3    H222445   5.809   0.413   3.280
  344TIP3   OH222446   4.070   1.849   1.103
  344TIP3    H122447   4.089   1.787   1.173
  344TIP3    H222448   4.095   1.803   1.023
  345TIP3   OH222449   1.050   2.546   0.101
  345TIP3    H122450   1.094   2.631   0.104
  345TIP3    H222451   1.119   2.482   0.117
  346TIP3   OH222452   3.614   3.525  11.305
  346TIP3    H122453   3.693   3.528  11.252
  346TIP3    H222454   3.644   3.542  11.394
  347TIP3   OH222455   1.850   3.039  14.927
  347TIP3    H122456   1.862   2.962  14.983
  347TIP3    H222457   1.770   3.020  14.877
  348TIP3   OH222458   5.271   4.266   3.268
  348TIP3    H122459   5.290   4.296   3.179
  348TIP3    H222460   5.243   4.344   3.314
  349TIP3   OH222461   2.293   2.130  15.556
  349TIP3    H122462   2.199   2.147  15.560
  349TIP3    H222463   2.331   2.184  15.625
  350TIP3   OH222464   5.094   4.039  15.650
  350TIP3    H122465   5.168   4.008  15.703
  350TIP3    H222466   5.118   4.130  15.628
  351TIP3   OH222467   4.663   2.717  12.765
  351TIP3    H122468   4.606   2.692  12.693
  351TIP3    H222469   4.621   2.680  12.843
  352TIP3   OH222470   1.378   2.641  13.096
  352TIP3    H122471   1.437   2.653  13.170
  352TIP3    H222472   1.404   2.710  13.034
  353TIP3   OH222473   4.780   4.982   3.729
  353TIP3    H122474   4.691   4.947   3.738
  353TIP3    H222475   4.820   4.969   3.815
  354TIP3   OH222476   0.189   1.300   3.846
  354TIP3    H122477   0.220   1.384   3.811
  354TIP3    H222478   0.260   1.270   3.903
  355TIP3   OH222479   5.819   4.082   2.471
  355TIP3    H122480   5.885   4.054   2.535
  355TIP3    H222481   5.745   4.024   2.487
  356TIP3   OH222482   2.865   1.538  13.431
  356TIP3    H122483   2.826   1.467  13.482
  356TIP3    H222484   2.791   1.579  13.386
  357TIP3   OH222485   6.687   5.193   6.487
  357TIP3    H122486   6.734   5.112   6.507
  357TIP3    H222487   6.756   5.259   6.475
  358TIP3   OH222488   4.342   2.859   2.807
  358TIP3    H122489   4.290   2.848   2.886
  358TIP3    H222490   4.281   2.840   2.735
  359TIP3   OH222491   3.009   2.397  12.008
  359TIP3    H122492   3.026   2.312  12.049
  359TIP3    H222493   3.095   2.429  11.984
  360TIP3   OH222494   4.532   1.678  10.912
  360TIP3    H122495   4.550   1.664  11.005
  360TIP3    H222496   4.463   1.615  10.891
  361TIP3   OH222497   3.958   5.568   4.346
  361TIP3    H122498   3.985   5.591   4.257
  361TIP3    H222499   3.912   5.646   4.378
  362TIP3   OH222500   5.106   2.789  15.827
  362TIP3    H122501   5.191   2.754  15.799
  362TIP3    H222502   5.056   2.799  15.746
  363TIP3   OH222503   6.114   2.868  16.337
  363TIP3    H122504   6.183   2.808  16.309
  363TIP3    H222505   6.045   2.859  16.271
  364TIP3   OH222506   5.287   5.339  13.569
  364TIP3    H122507   5.312   5.429  13.551
  364TIP3    H222508   5.335   5.317  13.649
  365TIP3   OH222509   3.731   4.104   2.355
  365TIP3    H122510   3.660   4.158   2.321
  365TIP3    H222511   3.715   4.098   2.449
  366TIP3   OH222512   5.860   0.397   5.819
  366TIP3    H122513   5.921   0.410   5.891
  366TIP3    H222514   5.802   0.327   5.848
  367TIP3   OH222515   5.313   1.747   2.957
  367TIP3    H122516   5.260   1.676   2.995
  367TIP3    H222517   5.309   1.817   3.022
  368TIP3   OH222518   3.984   3.473  16.139
  368TIP3    H122519   3.991   3.398  16.198
  368TIP3    H222520   3.898   3.512  16.158
  369TIP3   OH222521   3.517   4.542   0.267
  369TIP3    H122522   3.502   4.600   0.342
  369TIP3    H222523   3.435   4.545   0.218
  370TIP3   OH222524   0.999   2.153  13.507
  370TIP3    H122525   1.055   2.078  13.492
  370TIP3    H222526   0.955   2.168  13.423
  371TIP3   OH222527   3.651   1.894  14.173
  371TIP3    H122528   3.599   1.970  14.147
  371TIP3    H222529   3.593   1.820  14.160
  372TIP3   OH222530   2.253   0.348  15.593
  372TIP3    H122531   2.161   0.344  15.567
  372TIP3    H222532   2.283   0.257  15.591
  373TIP3   OH222533   4.285   5.498   3.185
  373TIP3    H122534   4.346   5.481   3.257
  373TIP3    H222535   4.242   5.414   3.170
  374TIP3   OH222536   3.872   3.943  11.398
  374TIP3    H122537   3.964   3.944  11.422
  374TIP3    H222538   3.860   3.860  11.352
  375TIP3   OH222539   5.020   3.425  16.463
  375TIP3    H122540   4.933   3.401  16.493
  375TIP3    H222541   5.010   3.438  16.369
  376TIP3   OH222542   5.139   5.706   4.202
  376TIP3    H122543   5.054   5.735   4.234
  376TIP3    H222544   5.120   5.652   4.126
  377TIP3   OH222545   5.521   1.934  11.332
  377TIP3    H122546   5.477   1.950  11.249
  377TIP3    H222547   5.517   1.839  11.343
  378TIP3   OH222548   4.001   5.079   3.312
  378TIP3    H122549   4.049   5.100   3.392
  378TIP3    H222550   3.992   4.984   3.314
  379TIP3   OH222551   4.957   4.609   3.682
  379TIP3    H122552   5.016   4.653   3.743
  379TIP3    H222553   5.008   4.536   3.648
  380TIP3   OH222554   2.608   0.318  16.051
  380TIP3    H122555   2.633   0.254  15.986
  380TIP3    H222556   2.598   0.268  16.132
  381TIP3   OH222557   6.075   0.678  15.234
  381TIP3    H122558   6.021   0.608  15.271
  381TIP3    H222559   6.027   0.759  15.255
  382TIP3   OH222560   0.212   6.698   5.054
  382TIP3    H122561   0.239   6.620   5.101
  382TIP3    H222562   0.159   6.665   4.981
  383TIP3   OH222563   4.756   3.928   0.079
  383TIP3    H122564   4.696   3.853   0.079
  383TIP3    H222565   4.773   3.945  -0.014
  384TIP3   OH222566   4.254   1.367   6.437
  384TIP3    H122567   4.324   1.411   6.486
  384TIP3    H222568   4.187   1.350   6.503
  385TIP3   OH222569   0.577   3.214  14.241
  385TIP3    H122570   0.596   3.289  14.186
  385TIP3    H222571   0.642   3.218  14.311
  386TIP3   OH222572   0.260   2.640  12.043
  386TIP3    H122573   0.253   2.572  11.977
  386TIP3    H222574   0.239   2.596  12.125
  387TIP3   OH222575   3.828   4.866  12.948
  387TIP3    H122576   3.861   4.822  12.869
  387TIP3    H222577   3.888   4.939  12.962
  388TIP3   OH222578   5.086   0.450   5.150
  388TIP3    H122579   5.054   0.360   5.138
  388TIP3    H222580   5.160   0.441   5.210
  389TIP3   OH222581   0.137   2.967   1.563
  389TIP3    H122582   0.141   2.914   1.643
  389TIP3    H222583   0.227   2.965   1.529
  390TIP3   OH222584   5.428   1.007  16.907
  390TIP3    H122585   5.412   0.923  16.951
  390TIP3    H222586   5.343   1.031  16.871
  391TIP3   OH222587   6.675   6.782   3.495
  391TIP3    H122588   6.733   6.708   3.474
  391TIP3    H222589   6.732   6.859   3.492
  392TIP3   OH222590   2.514   5.261  14.564
  392TIP3    H122591   2.470   5.296  14.486
  392TIP3    H222592   2.576   5.329  14.589
  393TIP3   OH222593   6.221   2.989   0.690
  393TIP3    H122594   6.227   2.901   0.652
  393TIP3    H222595   6.265   2.981   0.775
  394TIP3   OH222596   6.529   0.329  16.040
  394TIP3    H122597   6.523   0.298  15.949
  394TIP3    H222598   6.587   0.404  16.036
  395TIP3   OH222599   5.562   0.921   2.115
  395TIP3    H122600   5.491   0.974   2.153
  395TIP3    H222601   5.532   0.830   2.126
  396TIP3   OH222602   6.408   6.540  14.364
  396TIP3    H122603   6.419   6.633  14.386
  396TIP3    H222604   6.371   6.500  14.443
  397TIP3   OH222605   4.828   5.537  14.168
  397TIP3    H122606   4.835   5.627  14.136
  397TIP3    H222607   4.801   5.486  14.092
  398TIP3   OH222608   2.841   4.774   0.459
  398TIP3    H122609   2.883   4.828   0.392
  398TIP3    H222610   2.907   4.710   0.484
  399TIP3   OH222611   2.834   4.257   0.046
  399TIP3    H122612   2.884   4.331   0.080
  399TIP3    H222613   2.814   4.204   0.124
  400TIP3   OH222614   3.521   5.091   3.409
  400TIP3    H122615   3.609   5.115   3.381
  400TIP3    H222616   3.507   5.002   3.375
  401TIP3   OH222617   1.742   0.693  14.186
  401TIP3    H122618   1.744   0.669  14.279
  401TIP3    H222619   1.802   0.631  14.144
  402TIP3   OH222620   5.221   2.970   6.458
  402TIP3    H122621   5.191   3.048   6.505
  402TIP3    H222622   5.142   2.916   6.450
  403TIP3   OH222623   2.396   6.454  16.955
  403TIP3    H122624   2.445   6.488  17.029
  403TIP3    H222625   2.363   6.532  16.910
  404TIP3   OH222626   1.500   6.581  11.905
  404TIP3    H122627   1.426   6.523  11.922
  404TIP3    H222628   1.542   6.544  11.827
  405TIP3   OH222629   2.416   0.807  11.537
  405TIP3    H122630   2.391   0.798  11.629
  405TIP3    H222631   2.334   0.799  11.488
  406TIP3   OH222632   4.476   4.033   6.260
  406TIP3    H122633   4.447   4.026   6.170
  406TIP3    H222634   4.455   4.122   6.286
  407TIP3   OH222635   1.021   3.465   5.175
  407TIP3    H122636   1.009   3.541   5.232
  407TIP3    H222637   1.050   3.502   5.092
  408TIP3   OH222638   1.090   1.969  16.235
  408TIP3    H122639   1.003   1.935  16.212
  408TIP3    H222640   1.075   2.062  16.252
  409TIP3   OH222641   3.399   6.268  13.792
  409TIP3    H122642   3.366   6.254  13.880
  409TIP3    H222643   3.460   6.341  13.800
  410TIP3   OH222644   5.659   6.029  14.067
  410TIP3    H122645   5.666   6.124  14.054
  410TIP3    H222646   5.593   6.019  14.135
  411TIP3   OH222647   4.144   4.010   0.985
  411TIP3    H122648   4.209   4.002   1.055
  411TIP3    H222649   4.121   3.920   0.963
  412TIP3   OH222650   4.885   6.303  14.537
  412TIP3    H122651   4.928   6.375  14.492
  412TIP3    H222652   4.931   6.225  14.507
  413TIP3   OH222653   0.897   4.564   0.877
  413TIP3    H122654   0.921   4.502   0.946
  413TIP3    H222655   0.972   4.564   0.818
  414TIP3   OH222656   5.845   2.747   2.840
  414TIP3    H122657   5.869   2.746   2.933
  414TIP3    H222658   5.761   2.701   2.837
  415TIP3   OH222659   2.584   5.096   6.016
  415TIP3    H122660   2.662   5.074   5.965
  415TIP3    H222661   2.578   5.027   6.082
  416TIP3   OH222662   3.453   3.797  13.275
  416TIP3    H122663   3.530   3.742  13.291
  416TIP3    H222664   3.485   3.868  13.220
  417TIP3   OH222665   4.383   4.833  11.561
  417TIP3    H122666   4.347   4.897  11.623
  417TIP3    H222667   4.307   4.804  11.510
  418TIP3   OH222668   5.815   5.075   4.152
  418TIP3    H122669   5.824   5.023   4.232
  418TIP3    H222670   5.827   5.166   4.181
  419TIP3   OH222671   4.148   0.394   5.881
  419TIP3    H122672   4.196   0.347   5.949
  419TIP3    H222673   4.198   0.475   5.867
  420TIP3   OH222674   1.607   4.698   0.037
  420TIP3    H122675   1.517   4.674   0.057
  420TIP3    H222676   1.660   4.630   0.078
  421TIP3   OH222677   2.577   5.452   2.246
  421TIP3    H122678   2.526   5.374   2.226
  421TIP3    H222679   2.661   5.439   2.202
  422TIP3   OH222680   5.092   6.730   0.189
  422TIP3    H122681   5.000   6.710   0.173
  422TIP3    H222682   5.099   6.824   0.172
  423TIP3   OH222683   6.296   5.946   4.817
  423TIP3    H122684   6.361   5.879   4.839
  423TIP3    H222685   6.224   5.931   4.878
  424TIP3   OH222686   0.528   5.292   0.556
  424TIP3    H122687   0.538   5.197   0.546
  424TIP3    H222688   0.529   5.306   0.651
  425TIP3   OH222689   1.308   5.214   1.079
  425TIP3    H122690   1.213   5.217   1.094
  425TIP3    H222691   1.321   5.136   1.024
  426TIP3   OH222692   0.946   1.271   3.336
  426TIP3    H122693   0.971   1.230   3.419
  426TIP3    H222694   0.852   1.290   3.347
  427TIP3   OH222695   0.436   2.751  16.195
  427TIP3    H122696   0.462   2.738  16.104
  427TIP3    H222697   0.434   2.846  16.205
  428TIP3   OH222698   5.823   6.628  15.077
  428TIP3    H122699   5.848   6.643  15.168
  428TIP3    H222700   5.765   6.552  15.080
  429TIP3   OH222701   2.728   2.868   3.328
  429TIP3    H122702   2.674   2.941   3.359
  429TIP3    H222703   2.812   2.881   3.372
  430TIP3   OH222704   4.049   5.674  14.501
  430TIP3    H122705   4.091   5.676  14.587
  430TIP3    H222706   4.121   5.663  14.439
  431TIP3   OH222707   3.482   0.885  15.387
  431TIP3    H122708   3.420   0.877  15.315
  431TIP3    H222709   3.567   0.865  15.349
  432TIP3   OH222710   3.379   2.689   4.494
  432TIP3    H122711   3.342   2.773   4.521
  432TIP3    H222712   3.430   2.659   4.569
  433TIP3   OH222713   5.821   2.479  15.779
  433TIP3    H122714   5.807   2.421  15.853
  433TIP3    H222715   5.830   2.566  15.817
  434TIP3   OH222716   3.383   2.108   1.307
  434TIP3    H122717   3.437   2.125   1.230
  434TIP3    H222718   3.425   2.033   1.349
  435TIP3   OH222719   1.430   2.552  15.353
  435TIP3    H122720   1.359   2.488  15.349
  435TIP3    H222721   1.388   2.636  15.369
  436TIP3   OH222722   6.334   2.679   5.417
  436TIP3    H122723   6.393   2.623   5.366
  436TIP3    H222724   6.328   2.760   5.366
  437TIP3   OH222725   1.831   1.725   0.953
  437TIP3    H122726   1.795   1.703   0.867
  437TIP3    H222727   1.781   1.802   0.980
  438TIP3   OH222728   2.915   5.675   2.450
  438TIP3    H122729   2.876   5.589   2.438
  438TIP3    H222730   2.876   5.708   2.532
  439TIP3   OH222731   5.427   2.470  16.282
  439TIP3    H122732   5.359   2.507  16.338
  439TIP3    H222733   5.408   2.376  16.280
  440TIP3   OH222734   5.061   1.611   0.660
  440TIP3    H122735   5.103   1.633   0.743
  440TIP3    H222736   5.065   1.692   0.609
  441TIP3   OH222737   1.203   4.154   3.111
  441TIP3    H122738   1.270   4.169   3.046
  441TIP3    H222739   1.126   4.125   3.061
  442TIP3   OH222740   1.401   6.412   3.055
  442TIP3    H122741   1.412   6.371   2.969
  442TIP3    H222742   1.310   6.395   3.078
  443TIP3   OH222743   5.263   4.134  15.991
  443TIP3    H122744   5.295   4.050  15.958
  443TIP3    H222745   5.171   4.118  16.012
  444TIP3   OH222746   6.587   5.143  13.696
  444TIP3    H122747   6.540   5.158  13.614
  444TIP3    H222748   6.534   5.185  13.763
  445TIP3   OH222749   4.232   3.993  12.842
  445TIP3    H122750   4.164   4.059  12.854
  445TIP3    H222751   4.244   3.954  12.929
  446TIP3   OH222752   2.960   2.042   6.011
  446TIP3    H122753   2.912   2.011   6.087
  446TIP3    H222754   2.909   2.116   5.979
  447TIP3   OH222755   3.264   5.398   5.873
  447TIP3    H122756   3.328   5.390   5.803
  447TIP3    H222757   3.269   5.314   5.919
  448TIP3   OH222758   4.724   3.711   2.635
  448TIP3    H122759   4.753   3.729   2.545
  448TIP3    H222760   4.693   3.620   2.633
  449TIP3   OH222761   0.700   1.003   2.425
  449TIP3    H122762   0.789   1.032   2.446
  449TIP3    H222763   0.668   1.066   2.360
  450TIP3   OH222764   0.593   3.229  11.373
  450TIP3    H122765   0.568   3.307  11.423
  450TIP3    H222766   0.583   3.156  11.435
  451TIP3   OH222767   5.383   2.002  16.117
  451TIP3    H122768   5.298   2.025  16.079
  451TIP3    H222769   5.409   1.922  16.072
  452TIP3   OH222770   3.989   5.423  16.824
  452TIP3    H122771   3.930   5.483  16.869
  452TIP3    H222772   3.939   5.394  16.747
  453TIP3   OH222773   1.285   0.608   1.541
  453TIP3    H122774   1.222   0.602   1.613
  453TIP3    H222775   1.340   0.530   1.551
  454TIP3   OH222776   6.341   4.154  16.868
  454TIP3    H122777   6.353   4.229  16.926
  454TIP3    H222778   6.426   4.109  16.868
  455TIP3   OH222779   0.838   5.945   3.383
  455TIP3    H122780   0.901   6.011   3.355
  455TIP3    H222781   0.776   5.939   3.311
  456TIP3   OH222782   6.513   2.243  13.401
  456TIP3    H122783   6.500   2.166  13.345
  456TIP3    H222784   6.527   2.315  13.339
  457TIP3   OH222785   5.799   5.740  16.130
  457TIP3    H122786   5.724   5.725  16.073
  457TIP3    H222787   5.845   5.657  16.132
  458TIP3   OH222788   6.745   2.102   1.527
  458TIP3    H122789   6.702   2.181   1.495
  458TIP3    H222790   6.799   2.073   1.454
  459TIP3   OH222791   5.647   3.882   4.348
  459TIP3    H122792   5.560   3.852   4.376
  459TIP3    H222793   5.706   3.814   4.380
  460TIP3   OH222794   6.359   5.395  15.704
  460TIP3    H122795   6.359   5.407  15.799
  460TIP3    H222796   6.285   5.338  15.687
  461TIP3   OH222797   0.769   0.982  12.878
  461TIP3    H122798   0.765   0.974  12.974
  461TIP3    H222799   0.863   0.986  12.859
  462TIP3   OH222800   5.886   6.400  12.252
  462TIP3    H122801   5.888   6.308  12.277
  462TIP3    H222802   5.871   6.447  12.334
  463TIP3   OH222803   4.196   5.848  16.733
  463TIP3    H122804   4.200   5.943  16.721
  463TIP3    H222805   4.108   5.824  16.705
  464TIP3   OH222806   3.927   5.414   3.327
  464TIP3    H122807   3.946   5.334   3.278
  464TIP3    H222808   3.894   5.383   3.412
  465TIP3   OH222809   5.501   0.925  15.359
  465TIP3    H122810   5.446   0.994  15.322
  465TIP3    H222811   5.587   0.941  15.321
  466TIP3   OH222812   4.849   6.606   2.300
  466TIP3    H122813   4.850   6.695   2.263
  466TIP3    H222814   4.899   6.613   2.381
  467TIP3   OH222815   4.305   4.823  14.861
  467TIP3    H122816   4.399   4.806  14.854
  467TIP3    H222817   4.268   4.793  14.778
  468TIP3   OH222818   1.016   1.493  14.446
  468TIP3    H122819   1.079   1.422  14.449
  468TIP3    H222820   1.024   1.537  14.531
  469TIP3   OH222821   3.707   0.625   3.729
  469TIP3    H122822   3.713   0.716   3.699
  469TIP3    H222823   3.703   0.574   3.649
  470TIP3   OH222824   6.539   5.457   6.650
  470TIP3    H122825   6.555   5.423   6.738
  470TIP3    H222826   6.621   5.499   6.624
  471TIP3   OH222827   4.349   0.322   0.896
  471TIP3    H122828   4.265   0.276   0.888
  471TIP3    H222829   4.391   0.282   0.972
  472TIP3   OH222830   3.308   4.263   5.392
  472TIP3    H122831   3.306   4.351   5.430
  472TIP3    H222832   3.331   4.276   5.300
  473TIP3   OH222833   2.225   0.458   4.934
  473TIP3    H122834   2.183   0.422   5.012
  473TIP3    H222835   2.283   0.526   4.968
  474TIP3   OH222836   4.764   2.942   3.224
  474TIP3    H122837   4.671   2.929   3.205
  474TIP3    H222838   4.766   3.021   3.279
  475TIP3   OH222839   4.575   2.938   6.603
  475TIP3    H122840   4.549   2.847   6.612
  475TIP3    H222841   4.669   2.938   6.621
  476TIP3   OH222842   5.012   1.534  13.800
  476TIP3    H122843   5.000   1.542  13.895
  476TIP3    H222844   5.106   1.535  13.787
  477TIP3   OH222845   2.103   1.869  16.908
  477TIP3    H122846   2.101   1.804  16.837
  477TIP3    H222847   2.190   1.908  16.901
  478TIP3   OH222848   0.148   0.496  12.506
  478TIP3    H122849   0.237   0.489  12.470
  478TIP3    H222850   0.135   0.590  12.519
  479TIP3   OH222851   4.213   1.085  11.720
  479TIP3    H122852   4.138   1.054  11.670
  479TIP3    H222853   4.184   1.169  11.757
  480TIP3   OH222854   1.605   3.106   0.113
  480TIP3    H122855   1.514   3.119   0.139
  480TIP3    H222856   1.629   3.187   0.069
  481TIP3   OH222857   6.459   3.262   1.821
  481TIP3    H122858   6.462   3.169   1.841
  481TIP3    H222859   6.525   3.274   1.753
  482TIP3   OH222860   5.345   0.748  16.971
  482TIP3    H122861   5.265   0.778  17.014
  482TIP3    H222862   5.316   0.676  16.914
  483TIP3   OH222863   1.527   2.203  12.094
  483TIP3    H122864   1.457   2.257  12.057
  483TIP3    H222865   1.489   2.115  12.098
  484TIP3   OH222866   2.265   6.589   1.739
  484TIP3    H122867   2.207   6.528   1.693
  484TIP3    H222868   2.273   6.552   1.827
  485TIP3   OH222869   1.987   6.751  12.376
  485TIP3    H122870   1.978   6.811  12.301
  485TIP3    H222871   1.953   6.667  12.343
  486TIP3   OH222872   2.038   3.359  14.579
  486TIP3    H122873   2.080   3.439  14.611
  486TIP3    H222874   2.058   3.358  14.485
  487TIP3   OH222875   4.863   1.796  11.057
  487TIP3    H122876   4.832   1.707  11.047
  487TIP3    H222877   4.935   1.789  11.120
  488TIP3   OH222878   1.238   3.011   5.778
  488TIP3    H122879   1.164   2.998   5.718
  488TIP3    H222880   1.315   2.991   5.726
  489TIP3   OH222881   6.254   4.280  16.273
  489TIP3    H122882   6.345   4.255  16.259
  489TIP3    H222883   6.253   4.323  16.359
  490TIP3   OH222884   3.772   2.651   2.382
  490TIP3    H122885   3.759   2.671   2.475
  490TIP3    H222886   3.852   2.699   2.359
  491TIP3   OH222887   0.710   4.348   1.768
  491TIP3    H122888   0.685   4.409   1.699
  491TIP3    H222889   0.691   4.394   1.849
  492TIP3   OH222890   4.925   0.081  10.243
  492TIP3    H122891   4.836   0.112  10.227
  492TIP3    H222892   4.920  -0.014  10.235
  493TIP3   OH222893   2.869   6.298  11.014
  493TIP3    H122894   2.913   6.228  10.965
  493TIP3    H222895   2.777   6.292  10.989
  494TIP3   OH222896   3.086   0.515  11.892
  494TIP3    H122897   3.004   0.503  11.941
  494TIP3    H222898   3.092   0.609  11.878
  495TIP3   OH222899   3.176   1.367   0.628
  495TIP3    H122900   3.167   1.274   0.647
  495TIP3    H222901   3.106   1.386   0.566
  496TIP3   OH222902   3.174   1.967  11.965
  496TIP3    H122903   3.192   1.973  11.872
  496TIP3    H222904   3.092   2.016  11.977
  497TIP3   OH222905   5.932   4.834   3.575
  497TIP3    H122906   5.987   4.867   3.646
  497TIP3    H222907   5.991   4.778   3.524
  498TIP3   OH222908   2.175   5.092  12.221
  498TIP3    H122909   2.177   5.175  12.173
  498TIP3    H222910   2.250   5.042  12.186
  499TIP3   OH222911   4.594   0.499  12.784
  499TIP3    H122912   4.572   0.410  12.755
  499TIP3    H222913   4.515   0.530  12.829
  500TIP3   OH222914   0.581   6.334  11.362
  500TIP3    H122915   0.575   6.419  11.405
  500TIP3    H222916   0.674   6.313  11.363
  501TIP3   OH222917   4.800   0.766   3.207
  501TIP3    H122918   4.720   0.816   3.192
  501TIP3    H222919   4.866   0.809   3.153
  502TIP3   OH222920   3.597   1.721   4.646
  502TIP3    H122921   3.670   1.695   4.591
  502TIP3    H222922   3.638   1.760   4.724
  503TIP3   OH222923   2.808   4.047   0.248
  503TIP3    H122924   2.769   3.976   0.197
  503TIP3    H222925   2.897   4.018   0.266
  504TIP3   OH222926   1.042   5.463  13.167
  504TIP3    H122927   1.035   5.389  13.107
  504TIP3    H222928   0.952   5.478  13.197
  505TIP3   OH222929   1.338   3.215   3.130
  505TIP3    H122930   1.286   3.286   3.169
  505TIP3    H222931   1.372   3.252   3.049
  506TIP3   OH222932   1.539   5.231  15.577
  506TIP3    H122933   1.601   5.263  15.511
  506TIP3    H222934   1.538   5.136  15.565
  507TIP3   OH222935   2.815   6.670  12.447
  507TIP3    H122936   2.887   6.611  12.472
  507TIP3    H222937   2.736   6.624  12.475
  508TIP3   OH222938   6.764   5.586   6.571
  508TIP3    H122939   6.855   5.568   6.548
  508TIP3    H222940   6.745   5.670   6.528
  509TIP3   OH222941   1.129   1.068   5.412
  509TIP3    H122942   1.140   1.083   5.318
  509TIP3    H222943   1.181   1.136   5.454
  510TIP3   OH222944   4.947   1.842   1.243
  510TIP3    H122945   4.884   1.845   1.315
  510TIP3    H222946   4.955   1.749   1.222
  511TIP3   OH222947   6.342   5.363   4.379
  511TIP3    H122948   6.304   5.327   4.299
  511TIP3    H222949   6.418   5.306   4.396
  512TIP3   OH222950   2.072   3.916   1.983
  512TIP3    H122951   2.110   3.958   1.906
  512TIP3    H222952   2.067   3.986   2.049
  513TIP3   OH222953   1.005   3.438   0.632
  513TIP3    H122954   0.910   3.448   0.642
  513TIP3    H222955   1.017   3.407   0.543
  514TIP3   OH222956   5.344   1.268  12.098
  514TIP3    H122957   5.378   1.346  12.054
  514TIP3    H222958   5.329   1.206  12.027
  515TIP3   OH222959   4.265   3.381  13.702
  515TIP3    H122960   4.352   3.360  13.669
  515TIP3    H222961   4.206   3.326  13.650
  516TIP3   OH222962   5.072   2.513   6.236
  516TIP3    H122963   5.033   2.490   6.320
  516TIP3    H222964   5.161   2.479   6.240
  517TIP3   OH222965   4.382   5.390  13.876
  517TIP3    H122966   4.452   5.340  13.833
  517TIP3    H222967   4.416   5.479  13.880
  518TIP3   OH222968   4.444   0.974  12.463
  518TIP3    H122969   4.390   0.981  12.541
  518TIP3    H222970   4.459   0.880  12.452
  519TIP3   OH222971   1.894   6.309   4.833
  519TIP3    H122972   1.967   6.323   4.774
  519TIP3    H222973   1.934   6.291   4.918
  520TIP3   OH222974   1.179   1.588   5.134
  520TIP3    H122975   1.126   1.509   5.136
  520TIP3    H222976   1.268   1.557   5.118
  521TIP3   OH222977   1.970   4.325   6.105
  521TIP3    H122978   2.000   4.236   6.122
  521TIP3    H222979   2.044   4.381   6.126
  522TIP3   OH222980   4.854   0.687   2.617
  522TIP3    H122981   4.867   0.764   2.561
  522TIP3    H222982   4.931   0.687   2.674
  523TIP3   OH222983   3.995   3.636   5.280
  523TIP3    H122984   4.079   3.652   5.238
  523TIP3    H222985   3.971   3.547   5.253
  524TIP3   OH222986   5.767   2.890   2.400
  524TIP3    H122987   5.803   2.803   2.384
  524TIP3    H222988   5.698   2.900   2.334
  525TIP3   OH222989   4.554   1.910  15.058
  525TIP3    H122990   4.513   1.931  14.974
  525TIP3    H222991   4.562   1.995  15.102
  526TIP3   OH222992   3.175   4.349   1.350
  526TIP3    H122993   3.174   4.303   1.433
  526TIP3    H222994   3.242   4.416   1.360
  527TIP3   OH222995   2.805   2.759  12.851
  527TIP3    H122996   2.853   2.676  12.840
  527TIP3    H222997   2.715   2.732  12.865
  528TIP3   OH222998   1.574   3.406  13.600
  528TIP3    H122999   1.553   3.319  13.566
  528TIP3    H223000   1.666   3.418  13.578
  529TIP3   OH223001   4.525   0.875   4.001
  529TIP3    H123002   4.484   0.962   4.006
  529TIP3    H223003   4.458   0.815   4.033
  530TIP3   OH223004   5.938   2.955  13.755
  530TIP3    H123005   5.843   2.944  13.751
  530TIP3    H223006   5.951   3.047  13.778
  531TIP3   OH223007   0.770   2.287   3.797
  531TIP3    H123008   0.829   2.332   3.737
  531TIP3    H223009   0.685   2.326   3.781
  532TIP3   OH223010   1.665   6.525   5.545
  532TIP3    H123011   1.585   6.485   5.511
  532TIP3    H223012   1.637   6.569   5.625
  533TIP3   OH223013   2.476   0.931  14.038
  533TIP3    H123014   2.543   0.950  13.972
  533TIP3    H223015   2.475   1.009  14.093
  534TIP3   OH223016   4.740   3.358  16.451
  534TIP3    H123017   4.675   3.370  16.520
  534TIP3    H223018   4.691   3.370  16.370
  535TIP3   OH223019   5.438   4.056   3.792
  535TIP3    H123020   5.494   3.982   3.771
  535TIP3    H223021   5.499   4.127   3.814
  536TIP3   OH223022   3.608   3.210  11.155
  536TIP3    H123023   3.600   3.301  11.125
  536TIP3    H223024   3.652   3.165  11.083
  537TIP3   OH223025   6.446   1.822   5.987
  537TIP3    H123026   6.471   1.889   6.051
  537TIP3    H223027   6.485   1.741   6.021
  538TIP3   OH223028   5.439   2.961   5.530
  538TIP3    H123029   5.387   2.973   5.450
  538TIP3    H223030   5.385   2.905   5.585
  539TIP3   OH223031   3.957   4.124  11.194
  539TIP3    H123032   3.880   4.068  11.205
  539TIP3    H223033   3.987   4.105  11.105
  540TIP3   OH223034   6.444   1.190  12.050
  540TIP3    H123035   6.417   1.133  11.978
  540TIP3    H223036   6.509   1.140  12.099
  541TIP3   OH223037   5.075   6.099  15.020
  541TIP3    H123038   5.032   6.183  15.037
  541TIP3    H223039   5.080   6.093  14.924
  542TIP3   OH223040   5.806   2.507  13.733
  542TIP3    H123041   5.817   2.569  13.805
  542TIP3    H223042   5.886   2.455  13.732
  543TIP3   OH223043   4.730   4.513  13.895
  543TIP3    H123044   4.755   4.500  13.987
  543TIP3    H223045   4.764   4.600  13.873
  544TIP3   OH223046   1.680   3.365   3.682
  544TIP3    H123047   1.736   3.291   3.706
  544TIP3    H223048   1.658   3.350   3.590
  545TIP3   OH223049   6.568   4.533   6.271
  545TIP3    H123050   6.501   4.466   6.262
  545TIP3    H223051   6.636   4.493   6.325
  546TIP3   OH223052   4.380   1.405  11.702
  546TIP3    H123053   4.430   1.374  11.777
  546TIP3    H223054   4.345   1.490  11.729
  547TIP3   OH223055   2.991   5.141   0.799
  547TIP3    H123056   2.910   5.175   0.835
  547TIP3    H223057   2.965   5.067   0.745
  548TIP3   OH223058   3.988   2.288  15.499
  548TIP3    H123059   4.035   2.243  15.428
  548TIP3    H223060   4.054   2.304  15.566
  549TIP3   OH223061   5.893   1.864  16.691
  549TIP3    H123062   5.943   1.944  16.706
  549TIP3    H223063   5.863   1.871  16.600
  550TIP3   OH223064   6.185   4.565   0.559
  550TIP3    H123065   6.176   4.470   0.561
  550TIP3    H223066   6.171   4.588   0.467
  551TIP3   OH223067   0.215   0.851   0.541
  551TIP3    H123068   0.250   0.764   0.525
  551TIP3    H223069   0.129   0.851   0.499
  552TIP3   OH223070   4.143   0.813   3.453
  552TIP3    H123071   4.127   0.826   3.546
  552TIP3    H223072   4.208   0.743   3.449
  553TIP3   OH223073   1.276   3.455   5.654
  553TIP3    H123074   1.303   3.458   5.746
  553TIP3    H223075   1.344   3.403   5.612
  554TIP3   OH223076   3.624   1.773   5.154
  554TIP3    H123077   3.647   1.780   5.246
  554TIP3    H223078   3.685   1.709   5.118
  555TIP3   OH223079   3.869   1.558  12.232
  555TIP3    H123080   3.899   1.493  12.295
  555TIP3    H223081   3.892   1.522  12.147
  556TIP3   OH223082   3.089   0.304  16.191
  556TIP3    H123083   3.009   0.258  16.216
  556TIP3    H223084   3.061   0.371  16.129
  557TIP3   OH223085   4.545   5.348  12.091
  557TIP3    H123086   4.615   5.407  12.118
  557TIP3    H223087   4.496   5.330  12.171
  558TIP3   OH223088   4.002   0.139  13.534
  558TIP3    H123089   3.912   0.156  13.508
  558TIP3    H223090   4.044   0.225  13.534
  559TIP3   OH223091   0.018   4.269  15.313
  559TIP3    H123092   0.082   4.314  15.257
  559TIP3    H223093   0.037   4.300  15.401
  560TIP3   OH223094   6.350   5.142   2.496
  560TIP3    H123095   6.383   5.142   2.586
  560TIP3    H223096   6.258   5.118   2.503
  561TIP3   OH223097   5.908   3.317  11.299
  561TIP3    H123098   6.002   3.298  11.288
  561TIP3    H223099   5.864   3.245  11.254
  562TIP3   OH223100   6.555   4.395   4.546
  562TIP3    H123101   6.542   4.490   4.544
  562TIP3    H223102   6.567   4.374   4.639
  563TIP3   OH223103   0.109   6.414  12.311
  563TIP3    H123104   0.146   6.350  12.372
  563TIP3    H223105   0.051   6.468  12.366
  564TIP3   OH223106   4.232   2.031   2.575
  564TIP3    H123107   4.189   1.952   2.542
  564TIP3    H223108   4.175   2.062   2.646
  565TIP3   OH223109   1.108   4.364  17.212
  565TIP3    H123110   1.183   4.375  17.269
  565TIP3    H223111   1.131   4.291  17.155
  566TIP3   OH223112   1.620   0.308  13.710
  566TIP3    H123113   1.582   0.393  13.733
  566TIP3    H223114   1.546   0.253  13.688
  567TIP3   OH223115   0.162   5.969   3.032
  567TIP3    H123116   0.196   5.913   3.101
  567TIP3    H223117   0.160   6.057   3.070
  568TIP3   OH223118   0.545   3.489  17.111
  568TIP3    H123119   0.543   3.451  17.199
  568TIP3    H223120   0.474   3.553  17.110
  569TIP3   OH223121   4.773   0.174  14.344
  569TIP3    H123122   4.708   0.106  14.329
  569TIP3    H223123   4.833   0.136  14.408
  570TIP3   OH223124   5.646   0.705  13.169
  570TIP3    H123125   5.615   0.796  13.176
  570TIP3    H223126   5.678   0.684  13.257
  571TIP3   OH223127   2.214   0.332   4.193
  571TIP3    H123128   2.180   0.249   4.158
  571TIP3    H223129   2.252   0.376   4.116
  572TIP3   OH223130   5.543   3.714  13.966
  572TIP3    H123131   5.512   3.760  14.043
  572TIP3    H223132   5.573   3.783  13.907
  573TIP3   OH223133   6.264   6.601  11.934
  573TIP3    H123134   6.315   6.672  11.973
  573TIP3    H223135   6.200   6.577  12.001
  574TIP3   OH223136   4.440   1.932   4.765
  574TIP3    H123137   4.525   1.892   4.746
  574TIP3    H223138   4.417   1.979   4.685
  575TIP3   OH223139   2.052   1.999   1.499
  575TIP3    H123140   2.050   2.076   1.442
  575TIP3    H223141   2.144   1.971   1.498
  576TIP3   OH223142   5.837   6.680   1.615
  576TIP3    H123143   5.904   6.696   1.548
  576TIP3    H223144   5.872   6.722   1.694
  577TIP3   OH223145   0.435   1.128   3.943
  577TIP3    H123146   0.478   1.200   3.896
  577TIP3    H223147   0.507   1.075   3.977
  578TIP3   OH223148   5.697   1.566  12.707
  578TIP3    H123149   5.779   1.592  12.750
  578TIP3    H223150   5.635   1.636  12.731
  579TIP3   OH223151   2.574   1.394   4.545
  579TIP3    H123152   2.641   1.360   4.485
  579TIP3    H223153   2.615   1.390   4.631
  580TIP3   OH223154   0.862   3.211  14.347
  580TIP3    H123155   0.906   3.144  14.399
  580TIP3    H223156   0.917   3.221  14.269
  581TIP3   OH223157   4.906   5.578   0.672
  581TIP3    H123158   4.956   5.556   0.750
  581TIP3    H223159   4.835   5.634   0.705
  582TIP3   OH223160   3.393   2.759   2.966
  582TIP3    H123161   3.299   2.741   2.975
  582TIP3    H223162   3.419   2.796   3.050
  583TIP3   OH223163   5.478   5.242  15.373
  583TIP3    H123164   5.535   5.306  15.330
  583TIP3    H223165   5.499   5.159  15.330
  584TIP3   OH223166   3.177   3.750  12.660
  584TIP3    H123167   3.236   3.807  12.612
  584TIP3    H223168   3.089   3.779  12.634
  585TIP3   OH223169   2.328   0.841   3.653
  585TIP3    H123170   2.356   0.814   3.740
  585TIP3    H223171   2.391   0.800   3.594
  586TIP3   OH223172   5.392   4.084  14.781
  586TIP3    H123173   5.383   4.084  14.877
  586TIP3    H223174   5.456   4.014  14.764
  587TIP3   OH223175   2.658   0.246  13.350
  587TIP3    H123176   2.580   0.196  13.328
  587TIP3    H223177   2.647   0.330  13.306
  588TIP3   OH223178   2.532   4.961   3.812
  588TIP3    H123179   2.625   4.942   3.824
  588TIP3    H223180   2.497   4.970   3.901
  589TIP3   OH223181   6.457   1.947   0.190
  589TIP3    H123182   6.397   1.898   0.247
  589TIP3    H223183   6.435   2.039   0.206
  590TIP3   OH223184   2.768   1.028   3.287
  590TIP3    H123185   2.687   0.981   3.303
  590TIP3    H223186   2.781   1.082   3.365
  591TIP3   OH223187   5.519   4.456   4.027
  591TIP3    H123188   5.460   4.381   4.038
  591TIP3    H223189   5.479   4.526   4.078
  592TIP3   OH223190   4.975   4.566  12.553
  592TIP3    H123191   5.044   4.616  12.509
  592TIP3    H223192   4.989   4.476  12.524
  593TIP3   OH223193   5.687   3.836   2.518
  593TIP3    H123194   5.643   3.851   2.434
  593TIP3    H223195   5.729   3.751   2.508
  594TIP3   OH223196   6.766   0.159   0.186
  594TIP3    H123197   6.845   0.118   0.222
  594TIP3    H223198   6.746   0.109   0.107
  595TIP3   OH223199   5.539   5.877  16.450
  595TIP3    H123200   5.613   5.825  16.420
  595TIP3    H223201   5.476   5.873  16.378
  596TIP3   OH223202   4.091   6.537   1.052
  596TIP3    H123203   4.015   6.593   1.038
  596TIP3    H223204   4.114   6.504   0.965
  597TIP3   OH223205   0.267   3.461  14.705
  597TIP3    H123206   0.256   3.502  14.791
  597TIP3    H223207   0.347   3.409  14.714
  598TIP3   OH223208   5.539   3.109   5.709
  598TIP3    H123209   5.530   3.063   5.625
  598TIP3    H223210   5.520   3.042   5.775
  599TIP3   OH223211   3.008   0.965  13.806
  599TIP3    H123212   3.000   0.923  13.891
  599TIP3    H223213   2.919   0.996  13.786
  600TIP3   OH223214   0.194   6.020   1.659
  600TIP3    H123215   0.135   5.946   1.674
  600TIP3    H223216   0.281   5.985   1.675
  601TIP3   OH223217   0.913   2.450   4.323
  601TIP3    H123218   0.918   2.544   4.306
  601TIP3    H223219   0.868   2.444   4.408
  602TIP3   OH223220   0.094   1.560   0.263
  602TIP3    H123221   0.062   1.648   0.283
  602TIP3    H223222   0.149   1.536   0.338
  603TIP3   OH223223   5.903   2.306  11.659
  603TIP3    H123224   5.852   2.304  11.740
  603TIP3    H223225   5.921   2.214  11.640
  604TIP3   OH223226   1.649   5.073  11.282
  604TIP3    H123227   1.653   5.015  11.206
  604TIP3    H223228   1.678   5.158  11.250
  605TIP3   OH223229   2.569   2.120  12.125
  605TIP3    H123230   2.576   2.086  12.036
  605TIP3    H223231   2.476   2.139  12.136
  606TIP3   OH223232   2.054   4.874  12.537
  606TIP3    H123233   1.972   4.922  12.523
  606TIP3    H223234   2.036   4.816  12.611
  607TIP3   OH223235   4.938   4.384   4.839
  607TIP3    H123236   4.847   4.361   4.823
  607TIP3    H223237   4.957   4.452   4.775
  608TIP3   OH223238   4.521   5.408  14.209
  608TIP3    H123239   4.501   5.318  14.185
  608TIP3    H223240   4.485   5.418  14.297
  609TIP3   OH223241   0.738   4.003   3.962
  609TIP3    H123242   0.730   4.058   4.040
  609TIP3    H223243   0.650   3.968   3.948
  610TIP3   OH223244   0.362   5.219  13.623
  610TIP3    H123245   0.313   5.197  13.544
  610TIP3    H223246   0.422   5.145  13.635
  611TIP3   OH223247   1.746   1.132   1.165
  611TIP3    H123248   1.754   1.176   1.080
  611TIP3    H223249   1.694   1.053   1.146
  612TIP3   OH223250   4.354   3.813  14.780
  612TIP3    H123251   4.273   3.865  14.783
  612TIP3    H223252   4.338   3.749  14.711
  613TIP3   OH223253   4.135   4.937  17.134
  613TIP3    H123254   4.048   4.952  17.170
  613TIP3    H223255   4.158   5.019  17.090
  614TIP3   OH223256   0.616   0.522   5.742
  614TIP3    H123257   0.687   0.459   5.728
  614TIP3    H223258   0.584   0.542   5.654
  615TIP3   OH223259   1.888   5.059   2.326
  615TIP3    H123260   1.870   5.093   2.238
  615TIP3    H223261   1.828   5.107   2.383
  616TIP3   OH223262   2.424   0.274   4.953
  616TIP3    H123263   2.352   0.333   4.973
  616TIP3    H223264   2.444   0.291   4.861
  617TIP3   OH223265   5.995   5.041  17.192
  617TIP3    H123266   6.089   5.055  17.207
  617TIP3    H223267   5.954   5.058  17.277
  618TIP3   OH223268   6.437   4.068  15.917
  618TIP3    H123269   6.479   4.086  16.001
  618TIP3    H223270   6.343   4.063  15.938
  619TIP3   OH223271   4.649   3.950   4.545
  619TIP3    H123272   4.724   3.982   4.494
  619TIP3    H223273   4.593   4.027   4.556
  620TIP3   OH223274   4.689   0.002  16.059
  620TIP3    H123275   4.694   0.032  16.150
  620TIP3    H223276   4.597   0.014  16.036
  621TIP3   OH223277   0.317   1.431  12.487
  621TIP3    H123278   0.369   1.488  12.429
  621TIP3    H223279   0.377   1.408  12.558
  622TIP3   OH223280   3.224   0.416  15.380
  622TIP3    H123281   3.152   0.353  15.380
  622TIP3    H223282   3.303   0.361  15.383
  623TIP3   OH223283   5.419   4.321   1.806
  623TIP3    H123284   5.336   4.369   1.812
  623TIP3    H223285   5.460   4.335   1.891
  624TIP3   OH223286   1.387   4.045   3.878
  624TIP3    H123287   1.330   3.992   3.821
  624TIP3    H223288   1.475   4.013   3.860
  625TIP3   OH223289   1.035   0.496   0.969
  625TIP3    H123290   1.081   0.448   0.901
  625TIP3    H223291   1.028   0.585   0.935
  626TIP3   OH223292   4.228   0.984  12.630
  626TIP3    H123293   4.216   1.079  12.621
  626TIP3    H223294   4.150   0.954  12.677
  627TIP3   OH223295   3.472   2.842   2.088
  627TIP3    H123296   3.483   2.937   2.086
  627TIP3    H223297   3.382   2.828   2.058
  628TIP3   OH223298   4.023   6.272   3.806
  628TIP3    H123299   4.010   6.299   3.897
  628TIP3    H223300   4.076   6.192   3.812
  629TIP3   OH223301   1.183   3.741  14.835
  629TIP3    H123302   1.191   3.831  14.803
  629TIP3    H223303   1.219   3.744  14.923
  630TIP3   OH223304   1.367   3.087   1.564
  630TIP3    H123305   1.296   3.150   1.551
  630TIP3    H223306   1.326   3.014   1.611
  631TIP3   OH223307   5.536   6.684  15.010
  631TIP3    H123308   5.563   6.668  15.100
  631TIP3    H223309   5.444   6.706  15.016
  632TIP3   OH223310   2.591   0.562  13.554
  632TIP3    H123311   2.559   0.508  13.626
  632TIP3    H223312   2.538   0.642  13.559
  633TIP3   OH223313   0.023   4.831  14.287
  633TIP3    H123314  -0.047   4.778  14.325
  633TIP3    H223315   0.016   4.816  14.193
  634TIP3   OH223316   0.651   3.694   4.396
  634TIP3    H123317   0.727   3.660   4.350
  634TIP3    H223318   0.641   3.784   4.364
  635TIP3   OH223319   0.245   1.817   1.483
  635TIP3    H123320   0.261   1.749   1.549
  635TIP3    H223321   0.275   1.898   1.523
  636TIP3   OH223322   5.029   2.636   4.135
  636TIP3    H123323   4.954   2.696   4.132
  636TIP3    H223324   4.989   2.550   4.149
  637TIP3   OH223325   3.419   4.351  16.462
  637TIP3    H123326   3.482   4.324  16.529
  637TIP3    H223327   3.445   4.441  16.441
  638TIP3   OH223328   0.062   1.334  12.430
  638TIP3    H123329   0.150   1.370  12.442
  638TIP3    H223330   0.012   1.405  12.390
  639TIP3   OH223331   5.407   3.857  11.788
  639TIP3    H123332   5.497   3.879  11.814
  639TIP3    H223333   5.359   3.939  11.795
  640TIP3   OH223334   1.990   1.689  12.802
  640TIP3    H123335   2.025   1.647  12.881
  640TIP3    H223336   2.001   1.625  12.733
  641TIP3   OH223337   6.105   4.720   5.775
  641TIP3    H123338   6.016   4.704   5.742
  641TIP3    H223339   6.117   4.814   5.767
  642TIP3   OH223340   5.549   1.381  11.446
  642TIP3    H123341   5.587   1.320  11.383
  642TIP3    H223342   5.484   1.329  11.493
  643TIP3   OH223343   1.890   2.733   5.700
  643TIP3    H123344   1.842   2.670   5.646
  643TIP3    H223345   1.909   2.806   5.641
  644TIP3   OH223346   3.428   5.370  12.371
  644TIP3    H123347   3.390   5.284  12.387
  644TIP3    H223348   3.414   5.419  12.452
  645TIP3   OH223349   2.907   2.613  12.518
  645TIP3    H123350   2.826   2.579  12.556
  645TIP3    H223351   2.878   2.659  12.439
  646TIP3   OH223352   5.751   4.151  13.880
  646TIP3    H123353   5.781   4.104  13.802
  646TIP3    H223354   5.679   4.205  13.848
  647TIP3   OH223355   4.840   4.064   4.377
  647TIP3    H123356   4.902   3.991   4.387
  647TIP3    H223357   4.882   4.138   4.421
  648TIP3   OH223358   2.058   2.163   4.088
  648TIP3    H123359   2.123   2.176   4.158
  648TIP3    H223360   2.019   2.078   4.107
  649TIP3   OH223361   2.210   1.240  15.892
  649TIP3    H123362   2.260   1.308  15.937
  649TIP3    H223363   2.274   1.196  15.837
  650TIP3   OH223364   1.103   2.128  12.778
  650TIP3    H123365   1.044   2.201  12.796
  650TIP3    H223366   1.180   2.145  12.832
  651TIP3   OH223367   2.468   5.545  17.229
  651TIP3    H123368   2.420   5.484  17.173
  651TIP3    H223369   2.554   5.503  17.242
  652TIP3   OH223370   4.468   0.099  11.829
  652TIP3    H123371   4.466   0.175  11.886
  652TIP3    H223372   4.453   0.134  11.741
  653TIP3   OH223373   4.871   3.999  11.638
  653TIP3    H123374   4.799   4.061  11.628
  653TIP3    H223375   4.828   3.916  11.659
  654TIP3   OH223376   2.700   0.638   0.728
  654TIP3    H123377   2.638   0.642   0.656
  654TIP3    H223378   2.663   0.576   0.790
  655TIP3   OH223379   0.045   6.100   5.359
  655TIP3    H123380   0.068   6.060   5.275
  655TIP3    H223381   0.126   6.100   5.409
  656TIP3   OH223382   4.982   0.302   3.012
  656TIP3    H123383   5.025   0.370   3.064
  656TIP3    H223384   4.964   0.343   2.927
  657TIP3   OH223385   6.670   1.742   0.115
  657TIP3    H123386   6.716   1.806   0.169
  657TIP3    H223387   6.670   1.780   0.028
  658TIP3   OH223388   0.849   5.365   0.695
  658TIP3    H123389   0.942   5.352   0.712
  658TIP3    H223390   0.823   5.287   0.647
  659TIP3   OH223391   2.863   2.613  16.736
  659TIP3    H123392   2.905   2.615  16.650
  659TIP3    H223393   2.897   2.691  16.781
  660TIP3   OH223394   4.528   4.732   2.500
  660TIP3    H123395   4.588   4.692   2.438
  660TIP3    H223396   4.582   4.794   2.549
  661TIP3   OH223397   0.841   0.349  10.454
  661TIP3    H123398   0.754   0.374  10.421
  661TIP3    H223399   0.868   0.277  10.397
  662TIP3   OH223400   2.874   2.145  13.333
  662TIP3    H123401   2.895   2.166  13.242
  662TIP3    H223402   2.845   2.054  13.332
  663TIP3   OH223403   2.677   4.477  16.706
  663TIP3    H123404   2.756   4.423  16.699
  663TIP3    H223405   2.627   4.439  16.778
  664TIP3   OH223406   6.775   2.789  14.355
  664TIP3    H123407   6.804   2.749  14.437
  664TIP3    H223408   6.856   2.819  14.314
  665TIP3   OH223409   4.651   0.846   2.709
  665TIP3    H123410   4.718   0.778   2.707
  665TIP3    H223411   4.690   0.921   2.664
  666TIP3   OH223412   4.541   0.392   3.642
  666TIP3    H123413   4.463   0.374   3.695
  666TIP3    H223414   4.535   0.486   3.622
  667TIP3   OH223415   3.356   5.962   1.612
  667TIP3    H123416   3.357   5.867   1.623
  667TIP3    H223417   3.318   5.996   1.693
  668TIP3   OH223418   4.716   4.252   3.196
  668TIP3    H123419   4.755   4.301   3.123
  668TIP3    H223420   4.776   4.179   3.211
  669TIP3   OH223421   5.796   5.206   1.169
  669TIP3    H123422   5.828   5.120   1.196
  669TIP3    H223423   5.761   5.245   1.249
  670TIP3   OH223424   1.684   3.330   5.023
  670TIP3    H123425   1.766   3.324   5.071
  670TIP3    H223426   1.616   3.325   5.091
  671TIP3   OH223427   5.639   0.470  16.598
  671TIP3    H123428   5.544   0.461  16.594
  671TIP3    H223429   5.670   0.452  16.509
  672TIP3   OH223430   4.436   3.645  12.212
  672TIP3    H123431   4.529   3.621  12.209
  672TIP3    H223432   4.436   3.733  12.252
  673TIP3   OH223433   3.606   0.205   1.491
  673TIP3    H123434   3.591   0.161   1.575
  673TIP3    H223435   3.604   0.298   1.512
  674TIP3   OH223436   6.751   2.122  13.867
  674TIP3    H123437   6.795   2.110  13.783
  674TIP3    H223438   6.660   2.095  13.851
  675TIP3   OH223439   6.701   1.086  12.092
  675TIP3    H123440   6.764   1.014  12.080
  675TIP3    H223441   6.700   1.100  12.186
  676TIP3   OH223442   4.179   3.534  14.135
  676TIP3    H123443   4.103   3.500  14.087
  676TIP3    H223444   4.146   3.611  14.181
  677TIP3   OH223445   5.934   6.301   2.832
  677TIP3    H123446   6.011   6.251   2.859
  677TIP3    H223447   5.874   6.294   2.906
  678TIP3   OH223448   3.759   1.497   4.369
  678TIP3    H123449   3.723   1.534   4.288
  678TIP3    H223450   3.683   1.461   4.415
  679TIP3   OH223451   2.300   0.049  12.080
  679TIP3    H123452   2.216   0.015  12.051
  679TIP3    H223453   2.296   0.143  12.061
  680TIP3   OH223454   4.670   3.987  15.050
  680TIP3    H123455   4.683   3.937  15.131
  680TIP3    H223456   4.743   3.961  14.994
  681TIP3   OH223457   6.708   0.582  11.224
  681TIP3    H123458   6.651   0.519  11.178
  681TIP3    H223459   6.651   0.658  11.239
  682TIP3   OH223460   2.757   0.237   0.773
  682TIP3    H123461   2.818   0.304   0.740
  682TIP3    H223462   2.684   0.288   0.810
  683TIP3   OH223463   4.145   4.004   2.576
  683TIP3    H123464   4.099   4.026   2.494
  683TIP3    H223465   4.190   3.922   2.556
  684TIP3   OH223466   0.621   6.116   4.740
  684TIP3    H123467   0.685   6.178   4.705
  684TIP3    H223468   0.675   6.044   4.774
  685TIP3   OH223469   0.615   2.872  14.771
  685TIP3    H123470   0.665   2.791  14.786
  685TIP3    H223471   0.524   2.844  14.778
  686TIP3   OH223472   6.006   0.477  17.210
  686TIP3    H123473   6.040   0.435  17.131
  686TIP3    H223474   5.912   0.459  17.208
  687TIP3   OH223475   5.120   5.545   1.626
  687TIP3    H123476   5.137   5.573   1.536
  687TIP3    H223477   5.200   5.499   1.651
  688TIP3   OH223478   6.605   1.466   0.075
  688TIP3    H123479   6.637   1.551   0.107
  688TIP3    H223480   6.518   1.457   0.114
  689TIP3   OH223481   5.801   4.924   0.322
  689TIP3    H123482   5.741   4.929   0.397
  689TIP3    H223483   5.767   4.851   0.270
  690TIP3   OH223484   0.266   1.739   4.807
  690TIP3    H123485   0.335   1.739   4.873
  690TIP3    H223486   0.257   1.647   4.781
  691TIP3   OH223487   1.557   5.775  16.076
  691TIP3    H123488   1.488   5.841  16.070
  691TIP3    H223489   1.515   5.698  16.113
  692TIP3   OH223490   2.717   2.949  11.087
  692TIP3    H123491   2.791   2.926  11.031
  692TIP3    H223492   2.662   3.005  11.033
  693TIP3   OH223493   5.362   5.277   1.232
  693TIP3    H123494   5.387   5.286   1.140
  693TIP3    H223495   5.359   5.183   1.247
  694TIP3   OH223496   6.400   5.925  11.566
  694TIP3    H123497   6.357   5.985  11.505
  694TIP3    H223498   6.405   5.974  11.648
  695TIP3   OH223499   5.425   0.900  12.340
  695TIP3    H123500   5.414   0.841  12.265
  695TIP3    H223501   5.344   0.891  12.390
  696TIP3   OH223502   4.836   4.026   2.038
  696TIP3    H123503   4.851   4.043   2.130
  696TIP3    H223504   4.914   3.979   2.009
  697TIP3   OH223505   4.748   4.157   6.485
  697TIP3    H123506   4.703   4.073   6.475
  697TIP3    H223507   4.710   4.195   6.565
  698TIP3   OH223508   2.358   2.470   4.021
  698TIP3    H123509   2.392   2.486   3.933
  698TIP3    H223510   2.385   2.380   4.041
  699TIP3   OH223511   5.525   2.102   0.912
  699TIP3    H123512   5.525   2.134   0.822
  699TIP3    H223513   5.617   2.109   0.940
  700TIP3   OH223514   1.456   0.051  13.681
  700TIP3    H123515   1.384   0.042  13.743
  700TIP3    H223516   1.423   0.014  13.600
  701TIP3   OH223517   5.212   0.654   1.133
  701TIP3    H123518   5.246   0.655   1.044
  701TIP3    H223519   5.119   0.633   1.123
  702TIP3   OH223520   1.345   3.387  10.612
  702TIP3    H123521   1.308   3.394  10.524
  702TIP3    H223522   1.305   3.309  10.649
  703TIP3   OH223523   2.998   0.450   4.783
  703TIP3    H123524   2.958   0.363   4.787
  703TIP3    H223525   2.964   0.496   4.860
  704TIP3   OH223526   1.409   4.937   5.049
  704TIP3    H123527   1.327   4.888   5.055
  704TIP3    H223528   1.400   4.988   4.969
  705TIP3   OH223529   6.321   6.250   2.947
  705TIP3    H123530   6.365   6.177   2.989
  705TIP3    H223531   6.250   6.210   2.896
  706TIP3   OH223532   0.104   3.227  11.531
  706TIP3    H123533   0.167   3.265  11.592
  706TIP3    H223534   0.018   3.250  11.566
  707TIP3   OH223535   3.446   0.859   0.313
  707TIP3    H123536   3.404   0.895   0.392
  707TIP3    H223537   3.478   0.774   0.340
  708TIP3   OH223538   2.466   4.223  12.795
  708TIP3    H123539   2.480   4.249  12.886
  708TIP3    H223540   2.377   4.189  12.793
  709TIP3   OH223541   4.239   6.650  12.853
  709TIP3    H123542   4.222   6.607  12.937
  709TIP3    H223543   4.314   6.708  12.870
  710TIP3   OH223544   2.934   4.268  15.899
  710TIP3    H123545   2.843   4.276  15.869
  710TIP3    H223546   2.984   4.251  15.819
  711TIP3   OH223547   5.423   4.166   0.916
  711TIP3    H123548   5.475   4.110   0.974
  711TIP3    H223549   5.455   4.255   0.934
  712TIP3   OH223550   5.739   6.124   4.983
  712TIP3    H123551   5.681   6.198   4.967
  712TIP3    H223552   5.771   6.099   4.896
  713TIP3   OH223553   5.094   5.059   0.490
  713TIP3    H123554   5.055   5.141   0.521
  713TIP3    H223555   5.039   5.033   0.416
  714TIP3   OH223556   0.291   5.120  12.028
  714TIP3    H123557   0.329   5.034  12.048
  714TIP3    H223558   0.235   5.140  12.103
  715TIP3   OH223559   1.071   6.297  14.966
  715TIP3    H123560   1.095   6.348  14.888
  715TIP3    H223561   1.090   6.356  15.039
  716TIP3   OH223562   5.295   1.218   5.889
  716TIP3    H123563   5.314   1.232   5.982
  716TIP3    H223564   5.257   1.130   5.886
  717TIP3   OH223565   6.208   6.415  15.225
  717TIP3    H123566   6.140   6.477  15.251
  717TIP3    H223567   6.208   6.349  15.295
  718TIP3   OH223568   4.462   2.794  12.036
  718TIP3    H123569   4.548   2.832  12.052
  718TIP3    H223570   4.420   2.855  11.975
  719TIP3   OH223571   6.635   1.762  12.701
  719TIP3    H123572   6.590   1.803  12.774
  719TIP3    H223573   6.717   1.728  12.739
  720TIP3   OH223574   6.647   2.807  11.548
  720TIP3    H123575   6.585   2.835  11.615
  720TIP3    H223576   6.715   2.875  11.548
  721TIP3   OH223577   5.409   5.956  12.750
  721TIP3    H123578   5.367   5.954  12.664
  721TIP3    H223579   5.502   5.967  12.730
  722TIP3   OH223580   4.504   4.243  13.490
  722TIP3    H123581   4.511   4.212  13.580
  722TIP3    H223582   4.411   4.234  13.469
  723TIP3   OH223583   6.023   5.690   2.142
  723TIP3    H123584   6.081   5.615   2.133
  723TIP3    H223585   6.042   5.724   2.230
  724TIP3   OH223586   6.086   6.341  11.876
  724TIP3    H123587   6.141   6.419  11.883
  724TIP3    H223588   6.073   6.329  11.782
  725TIP3   OH223589   0.983   1.102   6.563
  725TIP3    H123590   0.973   1.105   6.659
  725TIP3    H223591   0.987   1.008   6.543
  726TIP3   OH223592   4.621   1.012  15.124
  726TIP3    H123593   4.702   1.059  15.146
  726TIP3    H223594   4.573   1.008  15.207
  727TIP3   OH223595   5.781   3.572  13.579
  727TIP3    H123596   5.845   3.624  13.529
  727TIP3    H223597   5.831   3.539  13.654
  728TIP3   OH223598   2.601   4.737   4.866
  728TIP3    H123599   2.602   4.661   4.923
  728TIP3    H223600   2.625   4.810   4.922
  729TIP3   OH223601   4.002   0.666   3.894
  729TIP3    H123602   3.991   0.571   3.886
  729TIP3    H223603   3.984   0.685   3.986
  730TIP3   OH223604   0.532   4.929  14.369
  730TIP3    H123605   0.488   4.846  14.384
  730TIP3    H223606   0.469   4.995  14.396
  731TIP3   OH223607   5.900   1.054  15.619
  731TIP3    H123608   5.838   1.102  15.565
  731TIP3    H223609   5.975   1.036  15.562
  732TIP3   OH223610   0.205   5.997  16.880
  732TIP3    H123611   0.128   6.018  16.827
  732TIP3    H223612   0.253   5.932  16.828
  733TIP3   OH223613   0.991   4.804  11.693
  733TIP3    H123614   1.017   4.884  11.648
  733TIP3    H223615   0.995   4.826  11.786
  734TIP3   OH223616   5.549   6.161   4.407
  734TIP3    H123617   5.545   6.068   4.382
  734TIP3    H223618   5.486   6.168   4.479
  735TIP3   OH223619   5.765   4.818  12.567
  735TIP3    H123620   5.740   4.730  12.542
  735TIP3    H223621   5.861   4.815  12.573
  736TIP3   OH223622   5.055   4.757  12.366
  736TIP3    H123623   4.991   4.827  12.361
  736TIP3    H223624   5.071   4.733  12.275
  737TIP3   OH223625   1.514   0.386  12.017
  737TIP3    H123626   1.512   0.298  11.981
  737TIP3    H223627   1.535   0.374  12.110
  738TIP3   OH223628   2.064   1.423  15.746
  738TIP3    H123629   1.975   1.414  15.780
  738TIP3    H223630   2.111   1.347  15.780
  739TIP3   OH223631   5.083   2.499  11.749
  739TIP3    H123632   5.025   2.501  11.672
  739TIP3    H223633   5.097   2.406  11.766
  740TIP3   OH223634   6.611   4.614   5.351
  740TIP3    H123635   6.579   4.527   5.374
  740TIP3    H223636   6.630   4.656   5.435
  741TIP3   OH223637   2.898   2.795   0.625
  741TIP3    H123638   2.861   2.753   0.547
  741TIP3    H223639   2.903   2.888   0.602
  742TIP3   OH223640   4.418   5.727   1.439
  742TIP3    H123641   4.357   5.785   1.393
  742TIP3    H223642   4.369   5.696   1.515
  743TIP3   OH223643   6.127   1.264   4.987
  743TIP3    H123644   6.075   1.194   5.028
  743TIP3    H223645   6.201   1.275   5.047
  744TIP3   OH223646   3.058   2.201   5.092
  744TIP3    H123647   3.139   2.173   5.051
  744TIP3    H223648   3.026   2.123   5.138
  745TIP3   OH223649   6.298   1.819   4.710
  745TIP3    H123650   6.390   1.840   4.698
  745TIP3    H223651   6.292   1.725   4.692
  746TIP3   OH223652   3.717   1.087   4.260
  746TIP3    H123653   3.642   1.073   4.318
  746TIP3    H223654   3.681   1.133   4.185
  747TIP3   OH223655   4.988   4.172  12.121
  747TIP3    H123656   4.980   4.158  12.027
  747TIP3    H223657   4.922   4.238  12.141
  748TIP3   OH223658   5.824   5.887  11.781
  748TIP3    H123659   5.738   5.915  11.748
  748TIP3    H223660   5.814   5.887  11.876
  749TIP3   OH223661   0.615   0.180  14.122
  749TIP3    H123662   0.573   0.116  14.181
  749TIP3    H223663   0.565   0.260  14.135
  750TIP3   OH223664   0.062   4.209   5.069
  750TIP3    H123665   0.035   4.291   5.110
  750TIP3    H223666   0.127   4.172   5.129
  751TIP3   OH223667   3.517   5.971  14.376
  751TIP3    H123668   3.565   6.054  14.371
  751TIP3    H223669   3.475   5.973  14.462
  752TIP3   OH223670   0.950   5.221  12.077
  752TIP3    H123671   0.994   5.220  11.992
  752TIP3    H223672   0.996   5.288  12.128
  753TIP3   OH223673   2.866   5.629  15.688
  753TIP3    H123674   2.847   5.720  15.711
  753TIP3    H223675   2.786   5.597  15.645
  754TIP3   OH223676   2.906   1.435  14.994
  754TIP3    H123677   2.940   1.359  14.947
  754TIP3    H223678   2.815   1.414  15.011
  755TIP3   OH223679   3.981   5.042   5.357
  755TIP3    H123680   3.976   5.003   5.270
  755TIP3    H223681   4.061   5.094   5.355
  756TIP3   OH223682   2.533   4.974  12.736
  756TIP3    H123683   2.601   4.988  12.801
  756TIP3    H223684   2.553   4.888  12.699
  757TIP3   OH223685   4.901   1.519  12.502
  757TIP3    H123686   4.948   1.462  12.440
  757TIP3    H223687   4.968   1.546  12.565
  758TIP3   OH223688   2.841   0.067  15.295
  758TIP3    H123689   2.876   0.146  15.336
  758TIP3    H223690   2.829   0.006  15.367
  759TIP3   OH223691   3.983   2.793   3.540
  759TIP3    H123692   4.024   2.867   3.495
  759TIP3    H223693   3.954   2.735   3.470
  760TIP3   OH223694   1.421   2.302   0.310
  760TIP3    H123695   1.506   2.280   0.348
  760TIP3    H223696   1.441   2.342   0.226
  761TIP3   OH223697   1.300   6.269  14.579
  761TIP3    H123698   1.241   6.196  14.562
  761TIP3    H223699   1.244   6.346  14.577
  762TIP3   OH223700   5.580   1.460   1.770
  762TIP3    H123701   5.650   1.398   1.790
  762TIP3    H223702   5.608   1.542   1.812
  763TIP3   OH223703   2.687   2.876   0.064
  763TIP3    H123704   2.631   2.816   0.113
  763TIP3    H223705   2.630   2.912  -0.004
  764TIP3   OH223706   1.986   0.213  10.725
  764TIP3    H123707   2.052   0.149  10.700
  764TIP3    H223708   2.009   0.291  10.675
  765TIP3   OH223709   5.070   3.139  14.060
  765TIP3    H123710   5.097   3.051  14.087
  765TIP3    H223711   5.135   3.166  13.996
  766TIP3   OH223712   1.782   6.663   2.023
  766TIP3    H123713   1.708   6.722   2.033
  766TIP3    H223714   1.833   6.675   2.103
  767TIP3   OH223715   5.803   3.194  16.879
  767TIP3    H123716   5.818   3.247  16.957
  767TIP3    H223717   5.727   3.234  16.837
  768TIP3   OH223718   3.246   3.620  14.661
  768TIP3    H123719   3.254   3.580  14.574
  768TIP3    H223720   3.166   3.672  14.655
  769TIP3   OH223721   0.800   4.028   0.476
  769TIP3    H123722   0.879   4.030   0.423
  769TIP3    H223723   0.816   4.091   0.546
  770TIP3   OH223724   5.759   5.761   1.662
  770TIP3    H123725   5.826   5.785   1.726
  770TIP3    H223726   5.693   5.714   1.713
  771TIP3   OH223727   0.792   4.778  17.061
  771TIP3    H123728   0.759   4.789  16.972
  771TIP3    H223729   0.880   4.815  17.059
  772TIP3   OH223730   5.943   2.646  14.669
  772TIP3    H123731   5.946   2.654  14.764
  772TIP3    H223732   5.889   2.568  14.653
  773TIP3   OH223733   0.753   3.889   5.947
  773TIP3    H123734   0.671   3.930   5.973
  773TIP3    H223735   0.728   3.820   5.885
  774TIP3   OH223736   3.199   3.064   1.051
  774TIP3    H123737   3.280   3.034   1.010
  774TIP3    H223738   3.135   3.065   0.979
  775TIP3   OH223739   2.812   0.302   5.571
  775TIP3    H123740   2.843   0.250   5.645
  775TIP3    H223741   2.782   0.384   5.611
  776TIP3   OH223742   1.405   1.152   1.081
  776TIP3    H123743   1.432   1.061   1.081
  776TIP3    H223744   1.403   1.177   0.989
  777TIP3   OH223745   2.389   3.264  12.775
  777TIP3    H123746   2.346   3.347  12.795
  777TIP3    H223747   2.369   3.208  12.850
  778TIP3   OH223748   4.598   5.539  13.119
  778TIP3    H123749   4.693   5.529  13.125
  778TIP3    H223750   4.578   5.617  13.171
  779TIP3   OH223751   4.119   1.918  13.380
  779TIP3    H123752   4.150   1.911  13.471
  779TIP3    H223753   4.120   2.011  13.361
  780TIP3   OH223754   0.865   3.811  13.135
  780TIP3    H123755   0.862   3.881  13.200
  780TIP3    H223756   0.828   3.735  13.180
  781TIP3   OH223757   5.892   2.840  16.196
  781TIP3    H123758   5.866   2.776  16.129
  781TIP3    H223759   5.868   2.798  16.279
  782TIP3   OH223760   3.889   6.282   3.325
  782TIP3    H123761   3.955   6.250   3.386
  782TIP3    H223762   3.806   6.270   3.371
  783TIP3   OH223763   5.134   0.090   2.763
  783TIP3    H123764   5.056   0.093   2.707
  783TIP3    H223765   5.207   0.079   2.702
  784TIP3   OH223766   1.644   5.350  15.329
  784TIP3    H123767   1.688   5.370  15.247
  784TIP3    H223768   1.574   5.289  15.306
  785TIP3   OH223769   3.130   4.606   2.060
  785TIP3    H123770   3.212   4.651   2.081
  785TIP3    H223771   3.074   4.675   2.024
  786TIP3   OH223772   1.593   3.369   0.009
  786TIP3    H123773   1.557   3.450  -0.026
  786TIP3    H223774   1.593   3.382   0.104
  787TIP3   OH223775   6.022   3.797   1.693
  787TIP3    H123776   6.058   3.859   1.756
  787TIP3    H223777   6.098   3.767   1.643
  788TIP3   OH223778   4.738   5.141   2.594
  788TIP3    H123779   4.740   5.174   2.684
  788TIP3    H223780   4.647   5.150   2.567
  789TIP3   OH223781   1.862   4.732  13.903
  789TIP3    H123782   1.806   4.809  13.914
  789TIP3    H223783   1.935   4.762  13.850
  790TIP3   OH223784   2.240   1.173  11.351
  790TIP3    H123785   2.190   1.145  11.274
  790TIP3    H223786   2.322   1.125  11.345
  791TIP3   OH223787   0.011   0.728   1.574
  791TIP3    H123788   0.017   0.680   1.492
  791TIP3    H223789   0.061   0.808   1.558
  792TIP3   OH223790   5.346   5.067   2.231
  792TIP3    H123791   5.441   5.068   2.239
  792TIP3    H223792   5.329   5.115   2.150
  793TIP3   OH223793   0.741   2.213   2.867
  793TIP3    H123794   0.783   2.294   2.896
  793TIP3    H223795   0.720   2.228   2.775
  794TIP3   OH223796   5.681   0.029  11.734
  794TIP3    H123797   5.633  -0.004  11.658
  794TIP3    H223798   5.724  -0.049  11.771
  795TIP3   OH223799   4.584   1.023  15.462
  795TIP3    H123800   4.507   1.070  15.431
  795TIP3    H223801   4.571   0.933  15.431
  796TIP3   OH223802   5.581   2.339   4.306
  796TIP3    H123803   5.666   2.378   4.326
  796TIP3    H223804   5.578   2.260   4.359
  797TIP3   OH223805   0.179   5.676   3.668
  797TIP3    H123806   0.262   5.703   3.630
  797TIP3    H223807   0.202   5.631   3.749
  798TIP3   OH223808   0.304   1.468   4.753
  798TIP3    H123809   0.310   1.446   4.846
  798TIP3    H223810   0.289   1.384   4.709
  799TIP3   OH223811   6.600   1.488  12.733
  799TIP3    H123812   6.695   1.479  12.720
  799TIP3    H223813   6.585   1.582  12.734
  800TIP3   OH223814   2.275   2.090  12.316
  800TIP3    H123815   2.250   2.036  12.391
  800TIP3    H223816   2.218   2.166  12.320
  801TIP3   OH223817   3.292   6.053   2.755
  801TIP3    H123818   3.309   5.969   2.797
  801TIP3    H223819   3.301   6.034   2.661
  802TIP3   OH223820   2.409   4.446   2.279
  802TIP3    H123821   2.455   4.380   2.228
  802TIP3    H223822   2.476   4.483   2.337
  803TIP3   OH223823   0.670   0.359   4.434
  803TIP3    H123824   0.718   0.276   4.442
  803TIP3    H223825   0.585   0.334   4.399
  804TIP3   OH223826   3.873   1.939  15.198
  804TIP3    H123827   3.899   1.934  15.106
  804TIP3    H223828   3.936   1.999  15.238
  805TIP3   OH223829   0.740   4.239   2.544
  805TIP3    H123830   0.649   4.222   2.521
  805TIP3    H223831   0.750   4.334   2.536
  806TIP3   OH223832   1.317   0.433   3.856
  806TIP3    H123833   1.280   0.411   3.770
  806TIP3    H223834   1.249   0.406   3.918
  807TIP3   OH223835   1.049   2.147   1.778
  807TIP3    H123836   1.121   2.173   1.720
  807TIP3    H223837   0.992   2.094   1.722
  808TIP3   OH223838   3.663   3.719   1.935
  808TIP3    H123839   3.613   3.641   1.911
  808TIP3    H223840   3.738   3.686   1.984
  809TIP3   OH223841   4.277   0.047  13.495
  809TIP3    H123842   4.317   0.032  13.580
  809TIP3    H223843   4.258   0.140  13.493
  810TIP3   OH223844   0.697   5.719  13.141
  810TIP3    H123845   0.721   5.651  13.078
  810TIP3    H223846   0.676   5.671  13.222
  811TIP3   OH223847   5.780   3.644  15.814
  811TIP3    H123848   5.755   3.669  15.903
  811TIP3    H223849   5.825   3.560  15.826
  812TIP3   OH223850   3.614   5.930   0.479
  812TIP3    H123851   3.706   5.921   0.454
  812TIP3    H223852   3.576   5.844   0.463
  813TIP3   OH223853   1.752   5.245  14.650
  813TIP3    H123854   1.809   5.296  14.706
  813TIP3    H223855   1.665   5.282  14.663
  814TIP3   OH223856   0.398   5.737  11.153
  814TIP3    H123857   0.435   5.764  11.069
  814TIP3    H223858   0.332   5.803  11.173
  815TIP3   OH223859   4.897   1.709  14.488
  815TIP3    H123860   4.886   1.650  14.563
  815TIP3    H223861   4.905   1.650  14.413
  816TIP3   OH223862   0.020   6.413   3.412
  816TIP3    H123863   0.050   6.440   3.499
  816TIP3    H223864  -0.071   6.441   3.408
  817TIP3   OH223865   4.985   3.168  11.824
  817TIP3    H123866   4.955   3.204  11.741
  817TIP3    H223867   5.063   3.117  11.802
  818TIP3   OH223868   2.466   4.808  16.122
  818TIP3    H123869   2.542   4.760  16.154
  818TIP3    H223870   2.449   4.772  16.035
  819TIP3   OH223871   3.560   4.862  15.875
  819TIP3    H123872   3.529   4.932  15.933
  819TIP3    H223873   3.547   4.897  15.787
  820TIP3   OH223874   1.982   5.276  15.030
  820TIP3    H123875   1.966   5.318  15.115
  820TIP3    H223876   1.935   5.331  14.967
  821TIP3   OH223877   6.635   1.221   1.591
  821TIP3    H123878   6.726   1.223   1.620
  821TIP3    H223879   6.640   1.215   1.495
  822TIP3   OH223880   2.087   3.655   0.678
  822TIP3    H123881   2.073   3.712   0.754
  822TIP3    H223882   2.024   3.686   0.613
  823TIP3   OH223883   6.412   0.384  16.526
  823TIP3    H123884   6.373   0.396  16.439
  823TIP3    H223885   6.478   0.454  16.532
  824TIP3   OH223886   5.632   0.974  16.218
  824TIP3    H123887   5.664   1.041  16.279
  824TIP3    H223888   5.606   0.901  16.273
  825TIP3   OH223889   5.731   6.520  14.492
  825TIP3    H123890   5.723   6.515  14.397
  825TIP3    H223891   5.646   6.491  14.525
  826TIP3   OH223892   6.389   2.905  16.796
  826TIP3    H123893   6.338   2.986  16.803
  826TIP3    H223894   6.475   2.928  16.830
  827TIP3   OH223895   2.536   5.286  15.436
  827TIP3    H123896   2.471   5.355  15.426
  827TIP3    H223897   2.620   5.330  15.419
  828TIP3   OH223898   4.770   5.403  16.856
  828TIP3    H123899   4.754   5.309  16.867
  828TIP3    H223900   4.842   5.422  16.917
  829TIP3   OH223901   6.280   6.568  14.969
  829TIP3    H123902   6.255   6.502  15.034
  829TIP3    H223903   6.351   6.527  14.920
  830TIP3   OH223904   1.003   0.382  13.048
  830TIP3    H123905   0.911   0.389  13.022
  830TIP3    H223906   1.051   0.425  12.977
  831TIP3   OH223907   4.770   1.085  16.879
  831TIP3    H123908   4.699   1.023  16.891
  831TIP3    H223909   4.828   1.044  16.815
  832TIP3   OH223910   6.640   0.929   4.497
  832TIP3    H123911   6.652   0.994   4.566
  832TIP3    H223912   6.656   0.845   4.540
  833TIP3   OH223913   1.070   6.625   3.861
  833TIP3    H123914   0.994   6.684   3.863
  833TIP3    H223915   1.053   6.566   3.788
  834TIP3   OH223916   2.654   1.110  15.535
  834TIP3    H123917   2.671   1.016  15.540
  834TIP3    H223918   2.735   1.148  15.500
  835TIP3   OH223919   0.506   3.276   4.495
  835TIP3    H123920   0.530   3.369   4.498
  835TIP3    H223921   0.411   3.276   4.505
  836TIP3   OH223922   3.948   4.129  12.184
  836TIP3    H123923   3.958   4.216  12.145
  836TIP3    H223924   3.856   4.106  12.168
  837TIP3   OH223925   5.256   4.539   2.820
  837TIP3    H123926   5.289   4.540   2.730
  837TIP3    H223927   5.162   4.525   2.810
  838TIP3   OH223928   2.043   4.001   4.198
  838TIP3    H123929   2.105   4.073   4.206
  838TIP3    H223930   2.002   3.994   4.284
  839TIP3   OH223931   5.745   1.241   0.913
  839TIP3    H123932   5.762   1.333   0.895
  839TIP3    H223933   5.701   1.208   0.835
  840TIP3   OH223934   5.180   5.370   4.924
  840TIP3    H123935   5.152   5.381   5.016
  840TIP3    H223936   5.243   5.298   4.927
  841TIP3   OH223937   2.445   6.517   0.395
  841TIP3    H123938   2.407   6.454   0.456
  841TIP3    H223939   2.512   6.467   0.348
  842TIP3   OH223940   3.454   4.732   0.493
  842TIP3    H123941   3.371   4.762   0.531
  842TIP3    H223942   3.521   4.767   0.552
  843TIP3   OH223943   5.959   3.917   6.733
  843TIP3    H123944   5.984   3.910   6.641
  843TIP3    H223945   5.960   3.827   6.765
  844TIP3   OH223946   3.715   5.753  15.367
  844TIP3    H123947   3.738   5.844  15.388
  844TIP3    H223948   3.690   5.755  15.275
  845TIP3   OH223949   0.041   1.772  12.899
  845TIP3    H123950  -0.015   1.810  12.966
  845TIP3    H223951   0.055   1.681  12.928
  846TIP3   OH223952   5.463   1.112  14.246
  846TIP3    H123953   5.513   1.067  14.314
  846TIP3    H223954   5.457   1.050  14.174
  847TIP3   OH223955   5.107   3.687  16.573
  847TIP3    H123956   5.121   3.670  16.666
  847TIP3    H223957   5.119   3.602  16.530
  848TIP3   OH223958   3.021   3.929   4.019
  848TIP3    H123959   3.064   3.875   3.953
  848TIP3    H223960   3.088   3.992   4.047
  849TIP3   OH223961   5.180   6.229  12.621
  849TIP3    H123962   5.177   6.133  12.614
  849TIP3    H223963   5.092   6.254  12.649
  850TIP3   OH223964   5.055   5.409  12.259
  850TIP3    H123965   5.145   5.440  12.259
  850TIP3    H223966   5.060   5.319  12.227
  851TIP3   OH223967   4.518   0.901  16.829
  851TIP3    H123968   4.469   0.820  16.843
  851TIP3    H223969   4.458   0.958  16.782
  852TIP3   OH223970   1.302   5.906   2.575
  852TIP3    H123971   1.307   5.923   2.481
  852TIP3    H223972   1.346   5.822   2.587
  853TIP3   OH223973   5.666   1.459   0.561
  853TIP3    H123974   5.732   1.398   0.528
  853TIP3    H223975   5.699   1.546   0.536
  854TIP3   OH223976   0.805   0.655   0.675
  854TIP3    H123977   0.861   0.585   0.642
  854TIP3    H223978   0.863   0.712   0.724
  855TIP3   OH223979   5.595   2.540   2.772
  855TIP3    H123980   5.681   2.515   2.739
  855TIP3    H223981   5.534   2.506   2.707
  856TIP3   OH223982   6.731   1.873   1.833
  856TIP3    H123983   6.704   1.797   1.782
  856TIP3    H223984   6.818   1.895   1.800
  857TIP3   OH223985   6.024   2.735   1.680
  857TIP3    H123986   5.962   2.698   1.743
  857TIP3    H223987   6.078   2.661   1.653
  858TIP3   OH223988   5.577   4.189  16.439
  858TIP3    H123989   5.576   4.119  16.374
  858TIP3    H223990   5.587   4.269  16.387
  859TIP3   OH223991   2.562   2.200  13.332
  859TIP3    H123992   2.615   2.161  13.262
  859TIP3    H223993   2.543   2.289  13.302
  860TIP3   OH223994   2.664   3.872  14.509
  860TIP3    H123995   2.738   3.925  14.480
  860TIP3    H223996   2.587   3.923  14.485
  861TIP3   OH223997   5.903   6.351   1.039
  861TIP3    H123998   5.819   6.397   1.045
  861TIP3    H223999   5.967   6.416   1.067
  862TIP3   OH224000   2.160   0.901   2.522
  862TIP3    H124001   2.081   0.848   2.508
  862TIP3    H224002   2.232   0.841   2.502
  863TIP3   OH224003   1.395   3.406  13.057
  863TIP3    H124004   1.333   3.337  13.035
  863TIP3    H224005   1.412   3.393  13.151
  864TIP3   OH224006   4.623   6.039  13.991
  864TIP3    H124007   4.581   5.982  13.927
  864TIP3    H224008   4.610   6.127  13.956
  865TIP3   OH224009   6.061   6.248   3.211
  865TIP3    H124010   6.141   6.196   3.213
  865TIP3    H224011   5.991   6.183   3.223
  866TIP3   OH224012   4.562   6.524  13.841
  866TIP3    H124013   4.593   6.469  13.914
  866TIP3    H224014   4.605   6.608  13.854
  867TIP3   OH224015   1.719   3.533  10.844
  867TIP3    H124016   1.700   3.626  10.833
  867TIP3    H224017   1.788   3.515  10.780
  868TIP3   OH224018   6.527   5.148   4.381
  868TIP3    H124019   6.484   5.068   4.351
  868TIP3    H224020   6.545   5.131   4.474
  869TIP3   OH224021   0.359   4.692   5.686
  869TIP3    H124022   0.309   4.620   5.646
  869TIP3    H224023   0.343   4.683   5.780
  870TIP3   OH224024   3.991   5.310   1.701
  870TIP3    H124025   3.952   5.257   1.771
  870TIP3    H224026   4.077   5.335   1.736
  871TIP3   OH224027   1.094   6.056   5.265
  871TIP3    H124028   1.182   6.088   5.282
  871TIP3    H224029   1.103   5.961   5.262
  872TIP3   OH224030   5.531   4.109   3.177
  872TIP3    H124031   5.521   4.147   3.265
  872TIP3    H224032   5.549   4.185   3.121
  873TIP3   OH224033   2.400   6.359   5.755
  873TIP3    H124034   2.406   6.305   5.677
  873TIP3    H224035   2.475   6.418   5.749
  874TIP3   OH224036   3.924   0.104  10.384
  874TIP3    H124037   3.995   0.158  10.348
  874TIP3    H224038   3.846   0.158  10.374
  875TIP3   OH224039   3.896   1.339   2.076
  875TIP3    H124040   3.806   1.331   2.106
  875TIP3    H224041   3.890   1.330   1.980
  876TIP3   OH224042   2.199   5.164   0.195
  876TIP3    H124043   2.193   5.182   0.101
  876TIP3    H224044   2.112   5.130   0.218
  877TIP3   OH224045   1.881   2.059   0.869
  877TIP3    H124046   1.812   2.026   0.927
  877TIP3    H224047   1.962   2.024   0.906
  878TIP3   OH224048   4.630   5.785   3.897
  878TIP3    H124049   4.665   5.863   3.940
  878TIP3    H224050   4.594   5.818   3.814
  879TIP3   OH224051   0.026   6.330  13.003
  879TIP3    H124052   0.042   6.394  13.073
  879TIP3    H224053   0.111   6.292  12.984
  880TIP3   OH224054   4.714   5.710   2.752
  880TIP3    H124055   4.699   5.785   2.695
  880TIP3    H224056   4.781   5.740   2.814
  881TIP3   OH224057   6.133   4.344  12.435
  881TIP3    H124058   6.187   4.383  12.504
  881TIP3    H224059   6.187   4.346  12.357
  882TIP3   OH224060   6.194   4.120  12.914
  882TIP3    H124061   6.289   4.133  12.915
  882TIP3    H224062   6.157   4.208  12.925
  883TIP3   OH224063   3.725   5.917  13.750
  883TIP3    H124064   3.708   5.956  13.665
  883TIP3    H224065   3.648   5.939  13.803
  884TIP3   OH224066   4.002   6.726   3.674
  884TIP3    H124067   3.957   6.713   3.591
  884TIP3    H224068   4.084   6.678   3.665
  885TIP3   OH224069   0.430   1.268  13.554
  885TIP3    H124070   0.469   1.215  13.485
  885TIP3    H224071   0.410   1.205  13.624
  886TIP3   OH224072   0.863   6.314  11.364
  886TIP3    H124073   0.931   6.353  11.310
  886TIP3    H224074   0.898   6.228  11.390
  887TIP3   OH224075   3.216   1.617  12.706
  887TIP3    H124076   3.244   1.660  12.786
  887TIP3    H224077   3.290   1.626  12.647
  888TIP3   OH224078   2.982   6.166  12.943
  888TIP3    H124079   3.031   6.125  12.872
  888TIP3    H224080   2.998   6.110  13.018
  889TIP3   OH224081   4.683   5.940   2.586
  889TIP3    H124082   4.610   5.937   2.524
  889TIP3    H224083   4.757   5.903   2.538
  890TIP3   OH224084   5.265   4.874  14.152
  890TIP3    H124085   5.322   4.928  14.098
  890TIP3    H224086   5.316   4.857  14.232
  891TIP3   OH224087   1.535   5.556  15.550
  891TIP3    H124088   1.614   5.509  15.577
  891TIP3    H224089   1.568   5.639  15.515
  892TIP3   OH224090   1.035   0.358   4.131
  892TIP3    H124091   1.028   0.299   4.056
  892TIP3    H224092   0.948   0.358   4.171
  893TIP3   OH224093   4.258   1.374  13.755
  893TIP3    H124094   4.303   1.445  13.710
  893TIP3    H224095   4.306   1.363  13.837
  894TIP3   OH224096   0.675   5.603  14.032
  894TIP3    H124097   0.582   5.617  14.048
  894TIP3    H224098   0.691   5.514  14.064
  895TIP3   OH224099   2.134   0.805  14.893
  895TIP3    H124100   2.151   0.818  14.800
  895TIP3    H224101   2.220   0.815  14.935
  896TIP3   OH224102   1.495   1.934   1.687
  896TIP3    H124103   1.531   1.949   1.599
  896TIP3    H224104   1.537   2.000   1.742
  897TIP3   OH224105   1.185   5.316  15.216
  897TIP3    H124106   1.163   5.223  15.216
  897TIP3    H224107   1.230   5.329  15.300
  898TIP3   OH224108   4.184   5.957  10.922
  898TIP3    H124109   4.210   6.044  10.892
  898TIP3    H224110   4.248   5.898  10.883
  899TIP3   OH224111   3.839   4.768  11.772
  899TIP3    H124112   3.849   4.705  11.844
  899TIP3    H224113   3.859   4.717  11.694
  900TIP3   OH224114   6.443   2.012   0.649
  900TIP3    H124115   6.530   1.972   0.654
  900TIP3    H224116   6.446   2.083   0.713
  901TIP3   OH224117   4.609   5.908  13.714
  901TIP3    H124118   4.573   5.950  13.636
  901TIP3    H224119   4.578   5.818  13.710
  902TIP3   OH224120   4.201   0.303   0.532
  902TIP3    H124121   4.157   0.362   0.594
  902TIP3    H224122   4.134   0.281   0.468
  903TIP3   OH224123   6.042   3.218   4.497
  903TIP3    H124124   5.996   3.140   4.528
  903TIP3    H224125   6.135   3.197   4.507
  904TIP3   OH224126   4.288   3.478   1.745
  904TIP3    H124127   4.224   3.549   1.754
  904TIP3    H224128   4.348   3.509   1.676
  905TIP3   OH224129   0.487   3.509   4.760
  905TIP3    H124130   0.467   3.520   4.667
  905TIP3    H224131   0.552   3.577   4.778
  906TIP3   OH224132   4.854   6.721  12.689
  906TIP3    H124133   4.940   6.703  12.650
  906TIP3    H224134   4.817   6.634  12.706
  907TIP3   OH224135   3.756   0.506   0.406
  907TIP3    H124136   3.699   0.449   0.458
  907TIP3    H224137   3.809   0.552   0.470
  908TIP3   OH224138   0.742   4.007   6.367
  908TIP3    H124139   0.741   3.912   6.377
  908TIP3    H224140   0.820   4.025   6.315
  909TIP3   OH224141   3.553   5.059  13.152
  909TIP3    H124142   3.462   5.086  13.140
  909TIP3    H224143   3.570   5.072  13.245
  910TIP3   OH224144   0.501   3.947  13.690
  910TIP3    H124145   0.545   4.002  13.754
  910TIP3    H224146   0.412   3.938  13.724
  911TIP3   OH224147   1.188   4.601   1.464
  911TIP3    H124148   1.242   4.571   1.390
  911TIP3    H224149   1.236   4.676   1.498
  912TIP3   OH224150   3.902   4.834   3.221
  912TIP3    H124151   3.873   4.760   3.274
  912TIP3    H224152   3.837   4.841   3.151
  913TIP3   OH224153   2.912   2.421   2.869
  913TIP3    H124154   3.001   2.395   2.846
  913TIP3    H224155   2.872   2.449   2.787
  914TIP3   OH224156   6.257   4.996  16.875
  914TIP3    H124157   6.165   5.004  16.852
  914TIP3    H224158   6.275   5.072  16.930
  915TIP3   OH224159   1.641   0.696   0.324
  915TIP3    H124160   1.634   0.715   0.418
  915TIP3    H224161   1.730   0.664   0.313
  916TIP3   OH224162   3.673   5.889  16.296
  916TIP3    H124163   3.623   5.812  16.271
  916TIP3    H224164   3.761   5.855  16.316
  917TIP3   OH224165   1.464   0.977  12.033
  917TIP3    H124166   1.557   0.998  12.031
  917TIP3    H224167   1.457   0.894  11.986
  918TIP3   OH224168   5.633   6.634   4.128
  918TIP3    H124169   5.708   6.662   4.075
  918TIP3    H224170   5.627   6.540   4.112
  919TIP3   OH224171   0.114   5.963   3.990
  919TIP3    H124172   0.056   5.922   4.054
  919TIP3    H224173   0.142   6.044   4.032
  920TIP3   OH224174   1.946   2.622  12.138
  920TIP3    H124175   1.869   2.565  12.147
  920TIP3    H224176   2.003   2.575  12.077
  921TIP3   OH224177   0.037   4.352   3.429
  921TIP3    H124178   0.122   4.348   3.385
  921TIP3    H224179  -0.025   4.315   3.366
  922TIP3   OH224180   2.252   2.679  17.187
  922TIP3    H124181   2.291   2.658  17.102
  922TIP3    H224182   2.301   2.626  17.250
  923TIP3   OH224183   1.135   0.340  11.764
  923TIP3    H124184   1.191   0.415  11.782
  923TIP3    H224185   1.193   0.276  11.724
  924TIP3   OH224186   2.909   3.371   2.375
  924TIP3    H124187   2.838   3.397   2.315
  924TIP3    H224188   2.863   3.334   2.450
  925TIP3   OH224189   6.629   5.316   4.194
  925TIP3    H124190   6.587   5.268   4.265
  925TIP3    H224191   6.686   5.379   4.238
  926TIP3   OH224192   3.048   1.488   5.133
  926TIP3    H124193   3.114   1.443   5.081
  926TIP3    H224194   2.966   1.473   5.086
  927TIP3   OH224195   5.220   4.781   4.735
  927TIP3    H124196   5.167   4.794   4.813
  927TIP3    H224197   5.286   4.716   4.761
  928TIP3   OH224198   5.337   2.888   1.722
  928TIP3    H124199   5.336   2.983   1.729
  928TIP3    H224200   5.298   2.858   1.804
  929TIP3   OH224201   4.858   5.993   0.712
  929TIP3    H124202   4.768   5.997   0.680
  929TIP3    H224203   4.856   5.927   0.781
  930TIP3   OH224204   6.474   3.304  13.948
  930TIP3    H124205   6.453   3.340  13.862
  930TIP3    H224206   6.456   3.375  14.009
  931TIP3   OH224207   4.861   1.010  14.703
  931TIP3    H124208   4.832   1.074  14.768
  931TIP3    H224209   4.842   0.925  14.742
  932TIP3   OH224210   6.491   5.560  11.781
  932TIP3    H124211   6.570   5.613  11.773
  932TIP3    H224212   6.450   5.588  11.862
  933TIP3   OH224213   0.512   3.347  13.733
  933TIP3    H124214   0.594   3.338  13.685
  933TIP3    H224215   0.506   3.440  13.755
  934TIP3   OH224216   5.045   3.390  12.133
  934TIP3    H124217   5.066   3.480  12.159
  934TIP3    H224218   5.090   3.335  12.196
  935TIP3   OH224219   3.875   3.883   2.846
  935TIP3    H124220   3.794   3.904   2.893
  935TIP3    H224221   3.851   3.810   2.788
  936TIP3   OH224222   5.979   2.388   0.928
  936TIP3    H124223   6.053   2.338   0.892
  936TIP3    H224224   6.015   2.432   1.004
  937TIP3   OH224225   1.422   1.536  17.192
  937TIP3    H124226   1.424   1.500  17.281
  937TIP3    H224227   1.411   1.460  17.135
  938TIP3   OH224228   5.517   3.936   6.510
  938TIP3    H124229   5.467   3.975   6.582
  938TIP3    H224230   5.451   3.892   6.456
  939TIP3   OH224231   4.159   0.385  14.649
  939TIP3    H124232   4.066   0.406  14.634
  939TIP3    H224233   4.180   0.431  14.730
  940TIP3   OH224234   0.992   0.362   5.532
  940TIP3    H124235   0.935   0.331   5.603
  940TIP3    H224236   0.931   0.393   5.465
  941TIP3   OH224237   0.636   1.120   4.772
  941TIP3    H124238   0.731   1.106   4.770
  941TIP3    H224239   0.625   1.215   4.777
  942TIP3   OH224240   1.089   2.873  13.913
  942TIP3    H124241   1.123   2.887  13.825
  942TIP3    H224242   0.994   2.879  13.904
  943TIP3   OH224243   3.923   4.391   1.879
  943TIP3    H124244   4.007   4.437   1.886
  943TIP3    H224245   3.942   4.312   1.829
  944TIP3   OH224246   5.885   1.980   5.276
  944TIP3    H124247   5.979   1.992   5.269
  944TIP3    H224248   5.849   2.069   5.276
  945TIP3   OH224249   0.595   1.227   3.714
  945TIP3    H124250   0.582   1.303   3.770
  945TIP3    H224251   0.642   1.164   3.769
  946TIP3   OH224252   3.890   1.789  10.760
  946TIP3    H124253   3.895   1.695  10.742
  946TIP3    H224254   3.934   1.830  10.686
  947TIP3   OH224255   6.263   5.466  11.243
  947TIP3    H124256   6.239   5.402  11.310
  947TIP3    H224257   6.181   5.510  11.222
  948TIP3   OH224258   6.562   5.185  16.567
  948TIP3    H124259   6.579   5.091  16.560
  948TIP3    H224260   6.550   5.214  16.476
  949TIP3   OH224261   4.516   2.898   1.722
  949TIP3    H124262   4.552   2.815   1.752
  949TIP3    H224263   4.431   2.875   1.684
  950TIP3   OH224264   4.845   4.082  14.335
  950TIP3    H124265   4.856   4.030  14.415
  950TIP3    H224266   4.839   4.017  14.265
  951TIP3   OH224267   0.405   0.816   3.311
  951TIP3    H124268   0.405   0.908   3.285
  951TIP3    H224269   0.312   0.792   3.313
  952TIP3   OH224270   5.913   6.350  13.499
  952TIP3    H124271   5.930   6.346  13.593
  952TIP3    H224272   5.850   6.280  13.483
  953TIP3   OH224273   3.668   0.230  16.495
  953TIP3    H124274   3.656   0.281  16.415
  953TIP3    H224275   3.594   0.255  16.550
  954TIP3   OH224276   2.662   6.175   1.635
  954TIP3    H124277   2.614   6.257   1.622
  954TIP3    H224278   2.717   6.191   1.712
  955TIP3   OH224279   4.391   5.682   2.455
  955TIP3    H124280   4.312   5.628   2.445
  955TIP3    H224281   4.434   5.677   2.369
  956TIP3   OH224282   1.580   3.896   1.113
  956TIP3    H124283   1.507   3.947   1.146
  956TIP3    H224284   1.540   3.815   1.080
  957TIP3   OH224285   2.334   2.003   0.070
  957TIP3    H124286   2.307   1.912   0.064
  957TIP3    H224287   2.373   2.011   0.157
  958TIP3   OH224288   5.350   5.032  12.028
  958TIP3    H124289   5.341   5.022  11.933
  958TIP3    H224290   5.435   5.074  12.039
  959TIP3   OH224291   2.253   0.539   3.322
  959TIP3    H124292   2.195   0.464   3.327
  959TIP3    H224293   2.308   0.522   3.246
  960TIP3   OH224294   6.748   3.916   5.277
  960TIP3    H124295   6.685   3.875   5.337
  960TIP3    H224296   6.712   4.004   5.262
  961TIP3   OH224297   2.394   2.333  16.298
  961TIP3    H124298   2.430   2.375  16.220
  961TIP3    H224299   2.428   2.244  16.294
  962TIP3   OH224300   4.987   2.305   6.385
  962TIP3    H124301   4.902   2.263   6.370
  962TIP3    H224302   5.021   2.262   6.463
  963TIP3   OH224303   2.806   1.473   3.346
  963TIP3    H124304   2.749   1.433   3.412
  963TIP3    H224305   2.871   1.521   3.397
  964TIP3   OH224306   6.486   1.914  12.432
  964TIP3    H124307   6.420   1.854  12.466
  964TIP3    H224308   6.504   1.883  12.343
  965TIP3   OH224309   6.624   3.814  11.347
  965TIP3    H124310   6.616   3.908  11.331
  965TIP3    H224311   6.708   3.803  11.390
  966TIP3   OH224312   1.048   6.459   5.776
  966TIP3    H124313   1.096   6.529   5.732
  966TIP3    H224314   1.101   6.380   5.759
  967TIP3   OH224315   3.218   1.527  11.382
  967TIP3    H124316   3.302   1.501  11.345
  967TIP3    H224317   3.188   1.450  11.430
  968TIP3   OH224318   0.333   5.056   5.518
  968TIP3    H124319   0.353   5.131   5.574
  968TIP3    H224320   0.397   4.990   5.543
  969TIP3   OH224321   3.842   4.145  15.091
  969TIP3    H124322   3.763   4.098  15.117
  969TIP3    H224323   3.831   4.163  14.998
  970TIP3   OH224324   2.051   6.435   1.639
  970TIP3    H124325   2.043   6.341   1.656
  970TIP3    H224326   1.966   6.471   1.664
  971TIP3   OH224327   4.720   2.493  14.162
  971TIP3    H124328   4.739   2.411  14.208
  971TIP3    H224329   4.790   2.502  14.098
  972TIP3   OH224330   0.467   0.695  13.141
  972TIP3    H124331   0.406   0.637  13.187
  972TIP3    H224332   0.476   0.656  13.054
  973TIP3   OH224333   1.234   2.963   0.567
  973TIP3    H124334   1.218   3.037   0.509
  973TIP3    H224335   1.182   2.982   0.645
  974TIP3   OH224336   2.463   1.147   3.651
  974TIP3    H124337   2.426   1.084   3.588
  974TIP3    H224338   2.477   1.096   3.731
  975TIP3   OH224339   2.172   4.330   0.504
  975TIP3    H124340   2.174   4.269   0.578
  975TIP3    H224341   2.249   4.306   0.452
  976TIP3   OH224342   1.997   5.185   3.602
  976TIP3    H124343   2.089   5.172   3.625
  976TIP3    H224344   1.969   5.102   3.565
  977TIP3   OH224345   1.701   2.987   2.749
  977TIP3    H124346   1.634   2.971   2.682
  977TIP3    H224347   1.769   2.922   2.731
  978TIP3   OH224348   3.149   0.062   0.861
  978TIP3    H124349   3.156   0.068   0.956
  978TIP3    H224350   3.055   0.067   0.844
  979TIP3   OH224351   4.933   4.284  10.669
  979TIP3    H124352   4.850   4.241  10.690
  979TIP3    H224353   5.000   4.223  10.698
  980TIP3   OH224354   4.970   0.813   5.097
  980TIP3    H124355   4.941   0.737   5.147
  980TIP3    H224356   4.890   0.865   5.084
  981TIP3   OH224357   5.953   1.016   2.798
  981TIP3    H124358   6.037   1.013   2.752
  981TIP3    H224359   5.899   1.075   2.745
  982TIP3   OH224360   6.212   1.454   5.542
  982TIP3    H124361   6.239   1.544   5.523
  982TIP3    H224362   6.285   1.418   5.592
  983TIP3   OH224363   0.740   2.035  14.817
  983TIP3    H124364   0.783   1.982  14.884
  983TIP3    H224365   0.770   1.998  14.734
  984TIP3   OH224366   2.245   3.871   1.092
  984TIP3    H124367   2.167   3.923   1.071
  984TIP3    H224368   2.284   3.849   1.008
  985TIP3   OH224369   5.352   2.211   1.407
  985TIP3    H124370   5.354   2.121   1.373
  985TIP3    H224371   5.288   2.208   1.478
  986TIP3   OH224372   0.408   3.811   2.018
  986TIP3    H124373   0.395   3.791   2.111
  986TIP3    H224374   0.454   3.734   1.983
  987TIP3   OH224375   4.811   4.057  15.781
  987TIP3    H124376   4.765   3.978  15.751
  987TIP3    H224377   4.900   4.047  15.746
  988TIP3   OH224378   1.803   5.918   3.807
  988TIP3    H124379   1.894   5.932   3.833
  988TIP3    H224380   1.759   6.001   3.825
  989TIP3   OH224381   3.771   3.218   3.302
  989TIP3    H124382   3.703   3.267   3.257
  989TIP3    H224383   3.773   3.255   3.390
  990TIP3   OH224384   1.934   0.545   3.085
  990TIP3    H124385   1.916   0.452   3.078
  990TIP3    H224386   1.881   0.585   3.015
  991TIP3   OH224387   0.179   6.415   3.069
  991TIP3    H124388   0.171   6.462   3.152
  991TIP3    H224389   0.088   6.393   3.046
  992TIP3   OH224390   0.362   5.250  12.715
  992TIP3    H124391   0.358   5.281  12.625
  992TIP3    H224392   0.306   5.310  12.764
  993TIP3   OH224393   1.114   1.586   0.954
  993TIP3    H124394   1.200   1.546   0.967
  993TIP3    H224395   1.064   1.561   1.032
  994TIP3   OH224396   5.495   2.086   3.642
  994TIP3    H124397   5.498   2.149   3.714
  994TIP3    H224398   5.435   2.018   3.672
  995TIP3   OH224399   5.766   1.232   4.876
  995TIP3    H124400   5.817   1.255   4.798
  995TIP3    H224401   5.709   1.160   4.847
  996TIP3   OH224402   0.195   0.454   5.672
  996TIP3    H124403   0.205   0.480   5.764
  996TIP3    H224404   0.123   0.508   5.640
  997TIP3   OH224405   2.817   3.373  16.756
  997TIP3    H124406   2.871   3.372  16.835
  997TIP3    H224407   2.870   3.419  16.691
  998TIP3   OH224408   3.675   4.102   1.612
  998TIP3    H124409   3.663   4.109   1.707
  998TIP3    H224410   3.650   4.012   1.592
  999TIP3   OH224411   0.919   1.650  12.331
  999TIP3    H124412   1.007   1.663  12.295
  999TIP3    H224413   0.864   1.715  12.288
 1000TIP3   OH224414   1.821   2.579  13.973
 1000TIP3    H124415   1.815   2.577  13.878
 1000TIP3    H224416   1.884   2.649  13.991
 1001TIP3   OH224417   1.754   2.071   2.555
 1001TIP3    H124418   1.784   1.983   2.576
 1001TIP3    H224419   1.812   2.129   2.604
 1002TIP3   OH224420   1.599   4.165   4.122
 1002TIP3    H124421   1.581   4.101   4.191
 1002TIP3    H224422   1.588   4.250   4.165
 1003TIP3   OH224423   6.486   6.159   4.411
 1003TIP3    H124424   6.477   6.249   4.443
 1003TIP3    H224425   6.573   6.157   4.371
 1004TIP3   OH224426   1.031   1.782   4.527
 1004TIP3    H124427   1.033   1.730   4.607
 1004TIP3    H224428   1.014   1.719   4.457
 1005TIP3   OH224429   3.643   6.150  16.268
 1005TIP3    H124430   3.702   6.202  16.322
 1005TIP3    H224431   3.665   6.059  16.289
 1006TIP3   OH224432   1.645   4.351   0.056
 1006TIP3    H124433   1.716   4.403   0.096
 1006TIP3    H224434   1.649   4.267   0.100
 1007TIP3   OH224435   5.592   4.879  16.117
 1007TIP3    H124436   5.626   4.966  16.137
 1007TIP3    H224437   5.497   4.890  16.117
 1008TIP3   OH224438   5.724   0.566  16.836
 1008TIP3    H124439   5.681   0.536  16.756
 1008TIP3    H224440   5.803   0.611  16.805
 1009TIP3   OH224441   1.035   2.343   3.560
 1009TIP3    H124442   1.093   2.365   3.488
 1009TIP3    H224443   0.961   2.298   3.519
 1010TIP3   OH224444   0.535   4.977  14.082
 1010TIP3    H124445   0.628   4.965  14.102
 1010TIP3    H224446   0.500   5.020  14.160
 1011TIP3   OH224447   4.978   4.908   0.302
 1011TIP3    H124448   4.886   4.887   0.318
 1011TIP3    H224449   4.988   4.904   0.207
 1012TIP3   OH224450   3.703   5.304  13.721
 1012TIP3    H124451   3.653   5.265  13.793
 1012TIP3    H224452   3.778   5.345  13.763
 1013TIP3   OH224453   5.769   1.956  13.359
 1013TIP3    H124454   5.817   1.877  13.335
 1013TIP3    H224455   5.826   2.028  13.332
 1014TIP3   OH224456   1.080   0.138   4.467
 1014TIP3    H124457   1.133   0.078   4.520
 1014TIP3    H224458   1.135   0.159   4.392
 1015TIP3   OH224459   3.175   6.528  17.008
 1015TIP3    H124460   3.166   6.559  16.918
 1015TIP3    H224461   3.252   6.574  17.042
 1016TIP3   OH224462   5.909   4.066  11.955
 1016TIP3    H124463   5.902   4.109  11.870
 1016TIP3    H224464   6.003   4.051  11.967
 1017TIP3   OH224465   6.351   4.069  14.118
 1017TIP3    H124466   6.309   4.086  14.034
 1017TIP3    H224467   6.346   3.974  14.128
 1018TIP3   OH224468   1.618   4.413   4.265
 1018TIP3    H124469   1.649   4.475   4.331
 1018TIP3    H224470   1.526   4.397   4.288
 1019TIP3   OH224471   0.539   5.047   0.967
 1019TIP3    H124472   0.550   5.139   0.943
 1019TIP3    H224473   0.452   5.025   0.933
 1020TIP3   OH224474   6.493   5.426  17.045
 1020TIP3    H124475   6.539   5.447  17.126
 1020TIP3    H224476   6.561   5.388  16.988
 1021TIP3   OH224477   4.517   0.804   5.313
 1021TIP3    H124478   4.525   0.802   5.409
 1021TIP3    H224479   4.467   0.883   5.295
 1022TIP3   OH224480   4.496   4.228  14.071
 1022TIP3    H124481   4.405   4.197  14.077
 1022TIP3    H224482   4.492   4.319  14.103
 1023TIP3   OH224483   6.738   5.977  12.195
 1023TIP3    H124484   6.832   5.969  12.210
 1023TIP3    H224485   6.702   5.892  12.223
 1024TIP3   OH224486   5.145   5.512   0.085
 1024TIP3    H124487   5.072   5.502   0.146
 1024TIP3    H224488   5.215   5.458   0.122
 1025TIP3   OH224489   0.378   3.787  11.286
 1025TIP3    H124490   0.313   3.855  11.266
 1025TIP3    H224491   0.459   3.835  11.302
 1026TIP3   OH224492   1.086   4.013   2.892
 1026TIP3    H124493   1.160   4.005   2.832
 1026TIP3    H224494   1.010   4.029   2.835
 1027TIP3   OH224495   3.741   5.630   1.641
 1027TIP3    H124496   3.728   5.535   1.643
 1027TIP3    H224497   3.779   5.647   1.555
 1028TIP3   OH224498   2.955   5.556  15.030
 1028TIP3    H124499   2.915   5.480  14.988
 1028TIP3    H224500   2.892   5.627  15.015
 1029TIP3   OH224501   2.564   2.717   5.031
 1029TIP3    H124502   2.609   2.757   5.105
 1029TIP3    H224503   2.472   2.711   5.058
 1030TIP3   OH224504   2.523   4.554   0.567
 1030TIP3    H124505   2.606   4.509   0.551
 1030TIP3    H224506   2.503   4.533   0.658
 1031TIP3   OH224507   1.334   0.962   3.213
 1031TIP3    H124508   1.263   1.015   3.177
 1031TIP3    H224509   1.305   0.939   3.301
 1032TIP3   OH224510   5.026   2.168  15.914
 1032TIP3    H124511   5.104   2.224  15.907
 1032TIP3    H224512   4.953   2.226  15.890
 1033TIP3   OH224513   0.117   5.147  13.783
 1033TIP3    H124514   0.178   5.146  13.857
 1033TIP3    H224515   0.170   5.178  13.709
 1034TIP3   OH224516   2.318   0.775  11.805
 1034TIP3    H124517   2.293   0.720  11.879
 1034TIP3    H224518   2.351   0.856  11.846
 1035TIP3   OH224519   3.477   5.330  11.640
 1035TIP3    H124520   3.537   5.271  11.686
 1035TIP3    H224521   3.534   5.385  11.587
 1036TIP3   OH224522   0.192   0.652  15.145
 1036TIP3    H124523   0.145   0.714  15.202
 1036TIP3    H224524   0.268   0.701  15.115
 1037TIP3   OH224525   6.524   3.622  10.658
 1037TIP3    H124526   6.604   3.577  10.686
 1037TIP3    H224527   6.500   3.676  10.734
 1038TIP3   OH224528   0.214   2.675   1.505
 1038TIP3    H124529   0.185   2.594   1.545
 1038TIP3    H224530   0.137   2.710   1.460
 1039TIP3   OH224531   2.566   2.083  17.046
 1039TIP3    H124532   2.662   2.078  17.037
 1039TIP3    H224533   2.549   2.036  17.128
 1040TIP3   OH224534   2.900   6.418  11.344
 1040TIP3    H124535   2.907   6.369  11.262
 1040TIP3    H224536   2.970   6.482  11.340
 1041TIP3   OH224537   1.850   4.132   3.630
 1041TIP3    H124538   1.817   4.175   3.551
 1041TIP3    H224539   1.880   4.046   3.600
 1042TIP3   OH224540   4.064   5.952   3.489
 1042TIP3    H124541   4.146   5.904   3.480
 1042TIP3    H224542   3.999   5.896   3.446
 1043TIP3   OH224543   2.670   3.590   6.205
 1043TIP3    H124544   2.661   3.598   6.110
 1043TIP3    H224545   2.669   3.495   6.221
 1044TIP3   OH224546   2.431   5.823  15.471
 1044TIP3    H124547   2.481   5.796  15.548
 1044TIP3    H224548   2.390   5.743  15.439
 1045TIP3   OH224549   4.468   1.964   1.168
 1045TIP3    H124550   4.535   1.937   1.231
 1045TIP3    H224551   4.385   1.947   1.213
 1046TIP3   OH224552   5.822   4.690   2.618
 1046TIP3    H124553   5.863   4.660   2.537
 1046TIP3    H224554   5.867   4.642   2.687
 1047TIP3   OH224555   1.389   1.234  17.173
 1047TIP3    H124556   1.378   1.159  17.114
 1047TIP3    H224557   1.478   1.264  17.157
 1048TIP3   OH224558   1.306   0.083  14.970
 1048TIP3    H124559   1.392   0.108  14.938
 1048TIP3    H224560   1.260   0.166  14.982
 1049TIP3   OH224561   6.057   1.062  17.059
 1049TIP3    H124562   6.137   1.075  17.008
 1049TIP3    H224563   6.051   0.968  17.072
 1050TIP3   OH224564   2.874   2.215  14.799
 1050TIP3    H124565   2.810   2.229  14.730
 1050TIP3    H224566   2.952   2.184  14.754
 1051TIP3   OH224567   3.609   4.841   1.216
 1051TIP3    H124568   3.674   4.904   1.246
 1051TIP3    H224569   3.615   4.769   1.279
 1052TIP3   OH224570   0.729   3.633   4.666
 1052TIP3    H124571   0.797   3.698   4.683
 1052TIP3    H224572   0.683   3.666   4.589
 1053TIP3   OH224573   5.346   3.377  13.391
 1053TIP3    H124574   5.292   3.449  13.422
 1053TIP3    H224575   5.379   3.405  13.306
 1054TIP3   OH224576   3.594   0.519  16.079
 1054TIP3    H124577   3.556   0.518  15.992
 1054TIP3    H224578   3.686   0.497  16.065
 1055TIP3   OH224579   3.912   0.495  16.992
 1055TIP3    H124580   3.932   0.534  16.907
 1055TIP3    H224581   3.837   0.437  16.975
 1056TIP3   OH224582   2.020   0.876  16.327
 1056TIP3    H124583   2.100   0.915  16.293
 1056TIP3    H224584   1.998   0.929  16.404
 1057TIP3   OH224585   4.125   4.756   3.956
 1057TIP3    H124586   4.210   4.780   3.917
 1057TIP3    H224587   4.135   4.776   4.049
 1058TIP3   OH224588   2.158   4.535  16.353
 1058TIP3    H124589   2.135   4.581  16.433
 1058TIP3    H224590   2.239   4.490  16.373
 1059TIP3   OH224591   3.748   3.319  16.358
 1059TIP3    H124592   3.661   3.283  16.342
 1059TIP3    H224593   3.756   3.391  16.296
 1060TIP3   OH224594   3.103   5.588   2.263
 1060TIP3    H124595   3.129   5.660   2.206
 1060TIP3    H224596   3.055   5.631   2.335
 1061TIP3   OH224597   2.887   4.539   1.354
 1061TIP3    H124598   2.834   4.460   1.351
 1061TIP3    H224599   2.972   4.510   1.387
 1062TIP3   OH224600   3.067   5.480  13.098
 1062TIP3    H124601   3.046   5.573  13.108
 1062TIP3    H224602   3.005   5.435  13.156
 1063TIP3   OH224603   4.600   0.760   1.977
 1063TIP3    H124604   4.549   0.841   1.988
 1063TIP3    H224605   4.686   0.780   2.013
 1064TIP3   OH224606   5.110   1.063   1.360
 1064TIP3    H124607   5.163   1.009   1.301
 1064TIP3    H224608   5.122   1.023   1.446
 1065TIP3   OH224609   2.226   4.303  15.540
 1065TIP3    H124610   2.209   4.296  15.446
 1065TIP3    H224611   2.284   4.229  15.559
 1066TIP3   OH224612   1.856   5.507  17.105
 1066TIP3    H124613   1.765   5.536  17.095
 1066TIP3    H224614   1.903   5.551  17.034
 1067TIP3   OH224615   5.013   4.865  13.966
 1067TIP3    H124616   5.075   4.932  13.994
 1067TIP3    H224617   5.049   4.831  13.884
 1068TIP3   OH224618   3.747   0.915  11.130
 1068TIP3    H124619   3.783   0.882  11.212
 1068TIP3    H224620   3.710   1.001  11.153
 1069TIP3   OH224621   0.706   0.816  15.166
 1069TIP3    H124622   0.753   0.813  15.249
 1069TIP3    H224623   0.720   0.905  15.133
 1070TIP3   OH224624   0.518   3.448   1.323
 1070TIP3    H124625   0.517   3.433   1.228
 1070TIP3    H224626   0.591   3.508   1.338
 1071TIP3   OH224627   4.674   4.790   1.491
 1071TIP3    H124628   4.613   4.800   1.564
 1071TIP3    H224629   4.626   4.823   1.415
 1072TIP3   OH224630   3.181   1.737  13.644
 1072TIP3    H124631   3.218   1.811  13.693
 1072TIP3    H224632   3.108   1.776  13.595
 1073TIP3   OH224633   1.798   6.009  16.344
 1073TIP3    H124634   1.752   5.938  16.388
 1073TIP3    H224635   1.850   5.966  16.276
 1074TIP3   OH224636   2.551   2.359  12.886
 1074TIP3    H124637   2.463   2.393  12.871
 1074TIP3    H224638   2.576   2.393  12.972
 1075TIP3   OH224639   3.574   0.697  11.044
 1075TIP3    H124640   3.625   0.773  11.073
 1075TIP3    H224641   3.568   0.641  11.122
 1076TIP3   OH224642   4.159   5.409  14.003
 1076TIP3    H124643   4.126   5.321  14.016
 1076TIP3    H224644   4.243   5.397  13.959
 1077TIP3   OH224645   3.940   6.605   1.875
 1077TIP3    H124646   3.861   6.594   1.928
 1077TIP3    H224647   3.943   6.527   1.819
 1078TIP3   OH224648   6.128   1.272   5.325
 1078TIP3    H124649   6.150   1.341   5.388
 1078TIP3    H224650   6.203   1.270   5.265
 1079TIP3   OH224651   5.789   5.486   4.339
 1079TIP3    H124652   5.763   5.407   4.386
 1079TIP3    H224653   5.779   5.464   4.246
 1080TIP3   OH224654   3.198   5.116  17.025
 1080TIP3    H124655   3.228   5.060  17.096
 1080TIP3    H224656   3.188   5.203  17.065
 1081TIP3   OH224657   0.445   0.674  11.223
 1081TIP3    H124658   0.521   0.615  11.219
 1081TIP3    H224659   0.392   0.639  11.295
 1082TIP3   OH224660   1.875   3.499   4.329
 1082TIP3    H124661   1.898   3.477   4.239
 1082TIP3    H224662   1.919   3.582   4.346
 1083TIP3   OH224663   1.467   0.799   1.483
 1083TIP3    H124664   1.402   0.736   1.514
 1083TIP3    H224665   1.455   0.876   1.539
 1084TIP3   OH224666   6.271   0.717   2.682
 1084TIP3    H124667   6.178   0.739   2.679
 1084TIP3    H224668   6.295   0.725   2.775
 1085TIP3   OH224669   2.524   1.190  13.356
 1085TIP3    H124670   2.590   1.253  13.328
 1085TIP3    H224671   2.447   1.244  13.376
 1086TIP3   OH224672   1.411   1.121  14.147
 1086TIP3    H124673   1.394   1.186  14.079
 1086TIP3    H224674   1.470   1.058  14.106
 1087TIP3   OH224675   3.392   5.064  10.482
 1087TIP3    H124676   3.351   4.978  10.485
 1087TIP3    H224677   3.341   5.113  10.418
 1088TIP3   OH224678   2.940   4.062   0.999
 1088TIP3    H124679   3.027   4.042   0.964
 1088TIP3    H224680   2.943   4.031   1.090
 1089TIP3   OH224681   3.176   3.476  11.456
 1089TIP3    H124682   3.221   3.400  11.492
 1089TIP3    H224683   3.239   3.515  11.396
 1090TIP3   OH224684   6.168   1.217  13.728
 1090TIP3    H124685   6.201   1.175  13.648
 1090TIP3    H224686   6.228   1.189  13.797
 1091TIP3   OH224687   3.223   2.139  16.194
 1091TIP3    H124688   3.305   2.189  16.189
 1091TIP3    H224689   3.196   2.130  16.103
 1092TIP3   OH224690   4.795   4.434   0.671
 1092TIP3    H124691   4.746   4.358   0.638
 1092TIP3    H224692   4.886   4.415   0.648
 1093TIP3   OH224693   1.821   6.469   3.762
 1093TIP3    H124694   1.881   6.532   3.801
 1093TIP3    H224695   1.735   6.495   3.795
 1094TIP3   OH224696   6.692   5.733  12.900
 1094TIP3    H124697   6.693   5.803  12.835
 1094TIP3    H224698   6.784   5.719  12.922
 1095TIP3   OH224699   1.067   0.121  12.515
 1095TIP3    H124700   1.118   0.124  12.434
 1095TIP3    H224701   1.093   0.199  12.563
 1096TIP3   OH224702   6.475   3.249  16.214
 1096TIP3    H124703   6.458   3.155  16.219
 1096TIP3    H224704   6.502   3.274  16.302
 1097TIP3   OH224705   0.020   4.302  16.159
 1097TIP3    H124706   0.083   4.232  16.142
 1097TIP3    H224707   0.059   4.353  16.230
 1098TIP3   OH224708   4.969   1.663  16.307
 1098TIP3    H124709   4.973   1.740  16.251
 1098TIP3    H224710   4.877   1.637  16.306
 1099TIP3   OH224711   0.456   1.021  14.716
 1099TIP3    H124712   0.442   1.104  14.670
 1099TIP3    H224713   0.526   0.978  14.668
 1100TIP3   OH224714   5.802   2.015  16.241
 1100TIP3    H124715   5.822   1.922  16.235
 1100TIP3    H224716   5.729   2.021  16.303
 1101TIP3   OH224717   3.834   4.003  15.711
 1101TIP3    H124718   3.816   4.093  15.683
 1101TIP3    H224719   3.902   3.972  15.651
 1102TIP3   OH224720   5.541   2.776   1.936
 1102TIP3    H124721   5.457   2.822   1.946
 1102TIP3    H224722   5.528   2.720   1.859
 1103TIP3   OH224723   4.295   1.420  15.424
 1103TIP3    H124724   4.366   1.372  15.467
 1103TIP3    H224725   4.287   1.380  15.338
 1104TIP3   OH224726   4.031   5.076   4.825
 1104TIP3    H124727   4.081   5.096   4.745
 1104TIP3    H224728   3.943   5.109   4.806
 1105TIP3   OH224729   1.051   3.243  12.377
 1105TIP3    H124730   1.096   3.306  12.434
 1105TIP3    H224731   0.960   3.274  12.375
 1106TIP3   OH224732   4.066   2.301  14.078
 1106TIP3    H124733   4.041   2.216  14.113
 1106TIP3    H224734   3.984   2.341  14.050
 1107TIP3   OH224735   0.932   6.325  14.306
 1107TIP3    H124736   0.999   6.370  14.356
 1107TIP3    H224737   0.849   6.364  14.334
 1108TIP3   OH224738   5.309   5.704   0.197
 1108TIP3    H124739   5.375   5.716   0.129
 1108TIP3    H224740   5.248   5.639   0.161
 1109TIP3   OH224741   2.212   0.434   2.413
 1109TIP3    H124742   2.142   0.463   2.472
 1109TIP3    H224743   2.212   0.339   2.420
 1110TIP3   OH224744   4.989   2.814  15.570
 1110TIP3    H124745   5.010   2.735  15.519
 1110TIP3    H224746   4.896   2.831  15.550
 1111TIP3   OH224747   3.755   5.680  13.930
 1111TIP3    H124748   3.770   5.663  14.023
 1111TIP3    H224749   3.675   5.732  13.928
 1112TIP3   OH224750   6.617   2.676  12.552
 1112TIP3    H124751   6.700   2.637  12.527
 1112TIP3    H224752   6.600   2.742  12.484
 1113TIP3   OH224753   5.560   2.115  11.529
 1113TIP3    H124754   5.480   2.164  11.510
 1113TIP3    H224755   5.558   2.041  11.468
 1114TIP3   OH224756   1.764   5.706   4.027
 1114TIP3    H124757   1.824   5.670   4.093
 1114TIP3    H224758   1.814   5.778   3.987
 1115TIP3   OH224759   4.807   0.860  14.983
 1115TIP3    H124760   4.719   0.823  14.979
 1115TIP3    H224761   4.811   0.904  15.068
 1116TIP3   OH224762   1.322   3.395  16.604
 1116TIP3    H124763   1.377   3.317  16.598
 1116TIP3    H224764   1.382   3.464  16.632
 1117TIP3   OH224765   3.220   4.105   1.199
 1117TIP3    H124766   3.212   4.191   1.240
 1117TIP3    H224767   3.139   4.059   1.224
 1118TIP3   OH224768   4.945   2.545   5.423
 1118TIP3    H124769   4.862   2.593   5.430
 1118TIP3    H224770   4.990   2.563   5.505
 1119TIP3   OH224771   3.637   1.595  16.669
 1119TIP3    H124772   3.558   1.624  16.623
 1119TIP3    H224773   3.627   1.500  16.675
 1120TIP3   OH224774   5.387   5.043  12.303
 1120TIP3    H124775   5.483   5.052  12.300
 1120TIP3    H224776   5.363   5.018  12.214
 1121TIP3   OH224777   5.746   0.940  16.910
 1121TIP3    H124778   5.775   1.007  16.848
 1121TIP3    H224779   5.800   0.863  16.890
 1122TIP3   OH224780   0.778   0.797   3.860
 1122TIP3    H124781   0.787   0.740   3.784
 1122TIP3    H224782   0.745   0.740   3.929
 1123TIP3   OH224783   6.342   3.475  13.694
 1123TIP3    H124784   6.272   3.517  13.644
 1123TIP3    H224785   6.423   3.507  13.653
 1124TIP3   OH224786   1.450   0.402   1.579
 1124TIP3    H124787   1.499   0.388   1.660
 1124TIP3    H224788   1.381   0.335   1.581
 1125TIP3   OH224789   0.119   4.912   3.845
 1125TIP3    H124790   0.077   4.881   3.764
 1125TIP3    H224791   0.209   4.882   3.837
 1126TIP3   OH224792   6.011   3.246  12.574
 1126TIP3    H124793   5.996   3.174  12.512
 1126TIP3    H224794   5.950   3.314  12.548
 1127TIP3   OH224795   6.386   2.158  11.824
 1127TIP3    H124796   6.330   2.171  11.748
 1127TIP3    H224797   6.327   2.126  11.892
 1128TIP3   OH224798   1.982   2.917   0.020
 1128TIP3    H124799   2.019   2.885   0.102
 1128TIP3    H224800   1.921   2.849  -0.007
 1129TIP3   OH224801   3.654   3.316  12.624
 1129TIP3    H124802   3.568   3.343  12.656
 1129TIP3    H224803   3.716   3.345  12.691
 1130TIP3   OH224804   6.270   3.818  14.173
 1130TIP3    H124805   6.208   3.808  14.102
 1130TIP3    H224806   6.248   3.748  14.234
 1131TIP3   OH224807   1.441   5.062  13.491
 1131TIP3    H124808   1.533   5.034  13.494
 1131TIP3    H224809   1.426   5.103  13.576
 1132TIP3   OH224810   0.398   4.438   0.453
 1132TIP3    H124811   0.315   4.486   0.442
 1132TIP3    H224812   0.452   4.467   0.380
 1133TIP3   OH224813   3.043   3.415   0.300
 1133TIP3    H124814   3.110   3.457   0.355
 1133TIP3    H224815   2.963   3.418   0.353
 1134TIP3   OH224816   5.274   1.095   0.380
 1134TIP3    H124817   5.340   1.135   0.437
 1134TIP3    H224818   5.257   1.010   0.420
 1135TIP3   OH224819   0.226   2.975   4.294
 1135TIP3    H124820   0.144   2.987   4.247
 1135TIP3    H224821   0.202   2.934   4.377
 1136TIP3   OH224822   2.435   5.478   5.769
 1136TIP3    H124823   2.382   5.557   5.776
 1136TIP3    H224824   2.495   5.481   5.844
 1137TIP3   OH224825   1.933   1.959  16.160
 1137TIP3    H124826   1.882   1.900  16.216
 1137TIP3    H224827   1.871   2.026  16.132
 1138TIP3   OH224828   3.929   6.311   5.718
 1138TIP3    H124829   3.933   6.290   5.624
 1138TIP3    H224830   3.837   6.300   5.741
 1139TIP3   OH224831   3.184   1.425  15.462
 1139TIP3    H124832   3.119   1.438  15.392
 1139TIP3    H224833   3.251   1.491  15.444
 1140TIP3   OH224834   4.582   5.319  15.860
 1140TIP3    H124835   4.570   5.345  15.769
 1140TIP3    H224836   4.498   5.280  15.884
 1141TIP3   OH224837   1.847   3.093   0.403
 1141TIP3    H124838   1.777   3.044   0.359
 1141TIP3    H224839   1.825   3.184   0.387
 1142TIP3   OH224840   3.776   1.572  16.213
 1142TIP3    H124841   3.837   1.509  16.174
 1142TIP3    H224842   3.743   1.529  16.292
 1143TIP3   OH224843   1.230   4.324  13.534
 1143TIP3    H124844   1.303   4.375  13.568
 1143TIP3    H224845   1.267   4.237  13.518
 1144TIP3   OH224846   4.778   0.908   3.657
 1144TIP3    H124847   4.682   0.914   3.649
 1144TIP3    H224848   4.792   0.847   3.729
 1145TIP3   OH224849   2.187   2.385   5.422
 1145TIP3    H124850   2.187   2.403   5.517
 1145TIP3    H224851   2.206   2.470   5.382
 1146TIP3   OH224852   3.896   2.967  14.368
 1146TIP3    H124853   3.825   2.907  14.348
 1146TIP3    H224854   3.857   3.054  14.361
 1147TIP3   OH224855   3.020   0.250  15.074
 1147TIP3    H124856   2.927   0.273  15.071
 1147TIP3    H224857   3.023   0.157  15.049
 1148TIP3   OH224858   2.605   2.024   5.447
 1148TIP3    H124859   2.549   2.097   5.421
 1148TIP3    H224860   2.632   1.984   5.364
 1149TIP3   OH224861   2.465   5.722  14.021
 1149TIP3    H124862   2.517   5.787  13.974
 1149TIP3    H224863   2.528   5.655  14.047
 1150TIP3   OH224864   6.129   4.039   1.409
 1150TIP3    H124865   6.200   4.090   1.448
 1150TIP3    H224866   6.066   4.028   1.480
 1151TIP3   OH224867   4.779   4.970   5.903
 1151TIP3    H124868   4.831   5.028   5.959
 1151TIP3    H224869   4.827   4.887   5.903
 1152TIP3   OH224870   4.503   4.685  15.363
 1152TIP3    H124871   4.586   4.700  15.317
 1152TIP3    H224872   4.437   4.728  15.308
 1153TIP3   OH224873   2.369   4.041   1.727
 1153TIP3    H124874   2.357   4.108   1.660
 1153TIP3    H224875   2.464   4.038   1.742
 1154TIP3   OH224876   6.156   5.052  12.204
 1154TIP3    H124877   6.084   4.999  12.238
 1154TIP3    H224878   6.115   5.112  12.142
 1155TIP3   OH224879   0.405   5.282  17.163
 1155TIP3    H124880   0.351   5.345  17.115
 1155TIP3    H224881   0.483   5.332  17.189
 1156TIP3   OH224882   0.706   1.060  14.387
 1156TIP3    H124883   0.673   1.055  14.298
 1156TIP3    H224884   0.802   1.058  14.378
 1157TIP3   OH224885   6.169   1.838   3.948
 1157TIP3    H124886   6.144   1.817   4.038
 1157TIP3    H224887   6.099   1.801   3.894
 1158TIP3   OH224888   6.106   3.270  15.716
 1158TIP3    H124889   6.125   3.281  15.623
 1158TIP3    H224890   6.175   3.320  15.760
 1159TIP3   OH224891   1.176   5.426  11.687
 1159TIP3    H124892   1.272   5.418  11.681
 1159TIP3    H224893   1.163   5.513  11.725
 1160TIP3   OH224894   1.774   2.873  11.305
 1160TIP3    H124895   1.785   2.956  11.257
 1160TIP3    H224896   1.681   2.854  11.297
 1161TIP3   OH224897   6.162   5.820   3.814
 1161TIP3    H124898   6.070   5.849   3.815
 1161TIP3    H224899   6.174   5.784   3.727
 1162TIP3   OH224900   1.912   4.351   1.632
 1162TIP3    H124901   1.948   4.374   1.547
 1162TIP3    H224902   1.824   4.318   1.613
 1163TIP3   OH224903   0.447   6.298   1.527
 1163TIP3    H124904   0.452   6.225   1.589
 1163TIP3    H224905   0.506   6.273   1.456
 1164TIP3   OH224906   3.081   2.780  13.038
 1164TIP3    H124907   3.059   2.837  12.964
 1164TIP3    H224908   3.053   2.831  13.115
 1165TIP3   OH224909   2.006   1.743   5.495
 1165TIP3    H124910   2.004   1.811   5.561
 1165TIP3    H224911   2.091   1.754   5.451
 1166TIP3   OH224912   2.012   0.778   1.161
 1166TIP3    H124913   1.979   0.688   1.158
 1166TIP3    H224914   1.965   0.824   1.091
 1167TIP3   OH224915   5.745   3.427  14.874
 1167TIP3    H124916   5.807   3.355  14.881
 1167TIP3    H224917   5.749   3.471  14.959
 1168TIP3   OH224918   5.078   3.753  11.686
 1168TIP3    H124919   5.056   3.712  11.770
 1168TIP3    H224920   5.086   3.847  11.707
 1169TIP3   OH224921   4.674   3.538  11.902
 1169TIP3    H124922   4.717   3.455  11.923
 1169TIP3    H224923   4.723   3.571  11.826
 1170TIP3   OH224924   5.860   5.099   3.736
 1170TIP3    H124925   5.905   5.033   3.685
 1170TIP3    H224926   5.923   5.125   3.804
 1171TIP3   OH224927   0.115   5.138  14.590
 1171TIP3    H124928   0.056   5.209  14.564
 1171TIP3    H224929   0.060   5.077  14.639
 1172TIP3   OH224930   1.282   0.886  11.450
 1172TIP3    H124931   1.361   0.849  11.411
 1172TIP3    H224932   1.210   0.841  11.407
 1173TIP3   OH224933   0.372   5.632  14.523
 1173TIP3    H124934   0.420   5.549  14.518
 1173TIP3    H224935   0.420   5.684  14.587
 1174TIP3   OH224936   4.192   5.000  11.757
 1174TIP3    H124937   4.248   5.071  11.727
 1174TIP3    H224938   4.106   5.019  11.721
 1175TIP3   OH224939   3.198   2.602  15.486
 1175TIP3    H124940   3.187   2.667  15.417
 1175TIP3    H224941   3.186   2.518  15.442
 1176TIP3   OH224942   1.878   3.352   0.358
 1176TIP3    H124943   1.919   3.428   0.316
 1176TIP3    H224944   1.795   3.385   0.391
 1177TIP3   OH224945   0.068   4.268  14.025
 1177TIP3    H124946  -0.024   4.292  14.037
 1177TIP3    H224947   0.069   4.173  14.032
 1178TIP3   OH224948   6.069   4.604  14.743
 1178TIP3    H124949   6.158   4.568  14.740
 1178TIP3    H224950   6.080   4.690  14.786
 1179TIP3   OH224951   3.424   5.290   2.410
 1179TIP3    H124952   3.469   5.369   2.379
 1179TIP3    H224953   3.334   5.300   2.380
 1180TIP3   OH224954   2.756   5.785  12.542
 1180TIP3    H124955   2.818   5.800  12.471
 1180TIP3    H224956   2.671   5.812  12.505
 1181TIP3   OH224957   0.809   5.305  15.931
 1181TIP3    H124958   0.901   5.282  15.921
 1181TIP3    H224959   0.761   5.226  15.906
 1182TIP3   OH224960   2.653   6.649  13.307
 1182TIP3    H124961   2.682   6.564  13.276
 1182TIP3    H224962   2.600   6.630  13.385
 1183TIP3   OH224963   0.516   0.162  12.062
 1183TIP3    H124964   0.429   0.159  12.020
 1183TIP3    H224965   0.511   0.098  12.132
 1184TIP3   OH224966   5.834   1.281   2.941
 1184TIP3    H124967   5.903   1.337   2.905
 1184TIP3    H224968   5.872   1.242   3.019
 1185TIP3   OH224969   1.211   2.687   1.447
 1185TIP3    H124970   1.177   2.776   1.435
 1185TIP3    H224971   1.195   2.644   1.363
 1186TIP3   OH224972   3.407   1.166  15.359
 1186TIP3    H124973   3.382   1.095  15.300
 1186TIP3    H224974   3.334   1.175  15.420
 1187TIP3   OH224975   6.499   3.814   2.273
 1187TIP3    H124976   6.524   3.743   2.332
 1187TIP3    H224977   6.404   3.805   2.265
 1188TIP3   OH224978   5.942   3.639   6.806
 1188TIP3    H124979   5.952   3.567   6.744
 1188TIP3    H224980   6.002   3.618   6.877
 1189TIP3   OH224981   1.248   6.647   5.264
 1189TIP3    H124982   1.251   6.697   5.183
 1189TIP3    H224983   1.193   6.699   5.323
 1190TIP3   OH224984   5.599   3.467   2.218
 1190TIP3    H124985   5.665   3.405   2.248
 1190TIP3    H224986   5.574   3.436   2.131
 1191TIP3   OH224987   2.589   6.559   1.851
 1191TIP3    H124988   2.606   6.520   1.766
 1191TIP3    H224989   2.575   6.484   1.909
 1192TIP3   OH224990   5.997   5.612   0.601
 1192TIP3    H124991   6.062   5.648   0.662
 1192TIP3    H224992   5.945   5.688   0.573
 1193TIP3   OH224993   5.368   4.687   0.557
 1193TIP3    H124994   5.453   4.705   0.517
 1193TIP3    H224995   5.304   4.721   0.494
 1194TIP3   OH224996   4.978   3.325   1.243
 1194TIP3    H124997   5.071   3.320   1.264
 1194TIP3    H224998   4.938   3.256   1.297
 1195TIP3   OH224999   1.985   4.032  14.006
 1195TIP3    H125000   2.004   4.041  14.099
 1195TIP3    H225001   2.061   4.070  13.962
 1196TIP3   OH225002   2.848   1.775  12.130
 1196TIP3    H125003   2.782   1.792  12.063
 1196TIP3    H225004   2.919   1.731  12.084
 1197TIP3   OH225005   1.307   5.824   1.036
 1197TIP3    H125006   1.288   5.732   1.016
 1197TIP3    H225007   1.350   5.857   0.957
 1198TIP3   OH225008   1.001   1.687  16.914
 1198TIP3    H125009   0.997   1.694  16.819
 1198TIP3    H225010   0.910   1.672  16.940
 1199TIP3   OH225011   5.180   0.957   3.570
 1199TIP3    H125012   5.166   0.918   3.657
 1199TIP3    H225013   5.174   0.884   3.509
 1200TIP3   OH225014   1.978   0.016  11.114
 1200TIP3    H125015   1.917   0.073  11.161
 1200TIP3    H225016   2.045   0.076  11.080
 1201TIP3   OH225017   6.216   5.709   2.408
 1201TIP3    H125018   6.150   5.643   2.427
 1201TIP3    H225019   6.264   5.676   2.332
 1202TIP3   OH225020   5.260   0.298   4.765
 1202TIP3    H125021   5.283   0.269   4.853
 1202TIP3    H225022   5.217   0.222   4.725
 1203TIP3   OH225023   3.177   3.830   1.954
 1203TIP3    H125024   3.116   3.894   1.991
 1203TIP3    H225025   3.148   3.819   1.863
 1204TIP3   OH225026   1.602   6.177   1.177
 1204TIP3    H125027   1.577   6.115   1.246
 1204TIP3    H225028   1.639   6.121   1.108
 1205TIP3   OH225029   0.922   4.093   2.672
 1205TIP3    H125030   0.999   4.090   2.615
 1205TIP3    H225031   0.855   4.137   2.620
 1206TIP3   OH225032   6.690   4.586  14.403
 1206TIP3    H125033   6.607   4.540  14.396
 1206TIP3    H225034   6.744   4.550  14.333
 1207TIP3   OH225035   4.739   5.363  11.754
 1207TIP3    H125036   4.727   5.314  11.835
 1207TIP3    H225037   4.676   5.325  11.693
 1208TIP3   OH225038   4.399   5.577   1.740
 1208TIP3    H125039   4.479   5.600   1.693
 1208TIP3    H225040   4.409   5.618   1.826
 1209TIP3   OH225041   1.077   1.350   5.202
 1209TIP3    H125042   1.069   1.259   5.174
 1209TIP3    H225043   1.085   1.345   5.297
 1210TIP3   OH225044   5.185   6.156  10.812
 1210TIP3    H125045   5.177   6.074  10.860
 1210TIP3    H225046   5.275   6.156  10.779
 1211TIP3   OH225047   0.046   4.114  16.363
 1211TIP3    H125048  -0.000   4.137  16.444
 1211TIP3    H225049  -0.013   4.054  16.318
 1212TIP3   OH225050   1.174   4.687   5.444
 1212TIP3    H125051   1.258   4.650   5.419
 1212TIP3    H225052   1.112   4.614   5.437
 1213TIP3   OH225053   6.520   5.532  14.696
 1213TIP3    H125054   6.507   5.439  14.715
 1213TIP3    H225055   6.564   5.533  14.611
 1214TIP3   OH225056   4.314   2.485  15.283
 1214TIP3    H125057   4.301   2.416  15.348
 1214TIP3    H225058   4.406   2.476  15.258
 1215TIP3   OH225059   0.748   5.991   5.093
 1215TIP3    H125060   0.677   5.938   5.128
 1215TIP3    H225061   0.807   5.929   5.050
 1216TIP3   OH225062   3.825   3.666   2.652
 1216TIP3    H125063   3.730   3.678   2.647
 1216TIP3    H225064   3.845   3.605   2.582
 1217TIP3   OH225065   5.965   6.374  10.284
 1217TIP3    H125066   5.892   6.423  10.246
 1217TIP3    H225067   6.009   6.437  10.340
 1218TIP3   OH225068   0.342   6.417  13.991
 1218TIP3    H125069   0.406   6.461  13.936
 1218TIP3    H225070   0.292   6.488  14.031
 1219TIP3   OH225071   6.338   5.456  12.683
 1219TIP3    H125072   6.283   5.385  12.715
 1219TIP3    H225073   6.327   5.454  12.588
 1220TIP3   OH225074   4.903   5.137  12.279
 1220TIP3    H125075   4.944   5.156  12.195
 1220TIP3    H225076   4.976   5.110  12.335
 1221TIP3   OH225077   0.560   5.571  16.494
 1221TIP3    H125078   0.628   5.628  16.529
 1221TIP3    H225079   0.482   5.591  16.545
 1222TIP3   OH225080   0.029   3.884   3.682
 1222TIP3    H125081   0.066   3.840   3.758
 1222TIP3    H225082   0.104   3.926   3.640
 1223TIP3   OH225083   0.599   3.060  15.857
 1223TIP3    H125084   0.514   3.097  15.881
 1223TIP3    H225085   0.622   3.105  15.776
 1224TIP3   OH225086   3.016   6.575   4.687
 1224TIP3    H125087   2.955   6.523   4.634
 1224TIP3    H225088   2.960   6.632   4.739
 1225TIP3   OH225089   6.254   2.409  16.965
 1225TIP3    H125090   6.160   2.396  16.975
 1225TIP3    H225091   6.265   2.504  16.969
 1226TIP3   OH225092   6.258   6.138  10.794
 1226TIP3    H125093   6.350   6.157  10.781
 1226TIP3    H225094   6.212   6.199  10.736
 1227TIP3   OH225095   2.023   5.289  16.871
 1227TIP3    H125096   2.107   5.334  16.863
 1227TIP3    H225097   2.045   5.199  16.893
 1228TIP3   OH225098   6.543   4.709  14.134
 1228TIP3    H125099   6.492   4.754  14.201
 1228TIP3    H225100   6.492   4.632  14.112
 1229TIP3   OH225101   5.448   5.057   5.224
 1229TIP3    H125102   5.543   5.046   5.226
 1229TIP3    H225103   5.417   4.997   5.292
 1230TIP3   OH225104   6.725   4.602   1.862
 1230TIP3    H125105   6.661   4.539   1.895
 1230TIP3    H225106   6.728   4.585   1.767
 1231TIP3   OH225107   6.322   0.404   3.904
 1231TIP3    H125108   6.384   0.465   3.945
 1231TIP3    H225109   6.245   0.458   3.886
 1232TIP3   OH225110   4.926   4.330  13.781
 1232TIP3    H125111   4.874   4.410  13.778
 1232TIP3    H225112   4.867   4.262  13.748
 1233TIP3   OH225113   0.094   2.858   0.985
 1233TIP3    H125114   0.006   2.894   0.991
 1233TIP3    H225115   0.123   2.879   0.896
 1234TIP3   OH225116   3.601   4.664   4.933
 1234TIP3    H125117   3.580   4.757   4.944
 1234TIP3    H225118   3.695   4.659   4.946
 1235TIP3   OH225119   3.616   5.987  17.135
 1235TIP3    H125120   3.645   5.936  17.211
 1235TIP3    H225121   3.651   6.075  17.150
 1236TIP3   OH225122   0.809   4.839   3.655
 1236TIP3    H125123   0.823   4.793   3.572
 1236TIP3    H225124   0.716   4.859   3.657
 1237TIP3   OH225125   2.057   2.125  12.752
 1237TIP3    H125126   2.072   2.218  12.770
 1237TIP3    H225127   1.962   2.117  12.746
 1238TIP3   OH225128   0.564   3.327  11.016
 1238TIP3    H125129   0.602   3.323  11.104
 1238TIP3    H225130   0.547   3.420  11.002
 1239TIP3   OH225131   2.298   1.245  16.892
 1239TIP3    H125132   2.339   1.302  16.957
 1239TIP3    H225133   2.292   1.298  16.813
 1240TIP3   OH225134   3.677   5.267  11.830
 1240TIP3    H125135   3.733   5.334  11.870
 1240TIP3    H225136   3.724   5.185  11.844
 1241TIP3   OH225137   0.508   5.639   3.886
 1241TIP3    H125138   0.464   5.711   3.932
 1241TIP3    H225139   0.500   5.564   3.945
 1242TIP3   OH225140   4.884   0.720  12.396
 1242TIP3    H125141   4.847   0.695  12.480
 1242TIP3    H225142   4.811   0.716  12.335
 1243TIP3   OH225143   4.539   0.802   6.041
 1243TIP3    H125144   4.560   0.868   6.106
 1243TIP3    H225145   4.537   0.719   6.089
 1244TIP3   OH225146   4.497   3.973  15.567
 1244TIP3    H125147   4.460   3.972  15.656
 1244TIP3    H225148   4.476   3.886  15.533
 1245TIP3   OH225149   5.246   3.008  14.919
 1245TIP3    H125150   5.206   2.941  14.864
 1245TIP3    H225151   5.245   3.087  14.866
 1246TIP3   OH225152   3.938   4.582   4.087
 1246TIP3    H125153   3.974   4.586   4.176
 1246TIP3    H225154   3.980   4.654   4.041
 1247TIP3   OH225155   0.497   4.654   6.416
 1247TIP3    H125156   0.581   4.699   6.428
 1247TIP3    H225157   0.466   4.635   6.504
 1248TIP3   OH225158   1.888   2.562  12.402
 1248TIP3    H125159   1.932   2.477  12.409
 1248TIP3    H225160   1.932   2.606  12.329
 1249TIP3   OH225161   6.751   5.925  16.358
 1249TIP3    H125162   6.697   5.982  16.413
 1249TIP3    H225163   6.704   5.919  16.275
 1250TIP3   OH225164   5.786   5.732  16.403
 1250TIP3    H125165   5.763   5.730  16.310
 1250TIP3    H225166   5.852   5.800  16.409
 1251TIP3   OH225167   4.791   6.295   1.662
 1251TIP3    H125168   4.882   6.264   1.665
 1251TIP3    H225169   4.760   6.289   1.752
 1252TIP3   OH225170   4.303   1.644   4.417
 1252TIP3    H125171   4.309   1.557   4.457
 1252TIP3    H225172   4.265   1.699   4.485
 1253TIP3   OH225173   6.567   6.369   0.189
 1253TIP3    H125174   6.473   6.384   0.176
 1253TIP3    H225175   6.597   6.445   0.238
 1254TIP3   OH225176   3.324   4.454   2.729
 1254TIP3    H125177   3.271   4.530   2.705
 1254TIP3    H225178   3.415   4.484   2.718
 1255TIP3   OH225179   4.036   0.653  13.635
 1255TIP3    H125180   3.991   0.583  13.587
 1255TIP3    H225181   3.988   0.733  13.611
 1256TIP3   OH225182   3.401   1.939  13.827
 1256TIP3    H125183   3.418   1.912  13.736
 1256TIP3    H225184   3.483   1.980  13.855
 1257TIP3   OH225185   5.009   6.403   4.708
 1257TIP3    H125186   5.035   6.329   4.653
 1257TIP3    H225187   5.083   6.463   4.706
 1258TIP3   OH225188   6.163   5.837   1.856
 1258TIP3    H125189   6.177   5.896   1.930
 1258TIP3    H225190   6.068   5.830   1.849
 1259TIP3   OH225191   4.068   6.558   4.010
 1259TIP3    H125192   4.002   6.491   4.026
 1259TIP3    H225193   4.152   6.513   4.019
 1260TIP3   OH225194   1.671   4.549  15.575
 1260TIP3    H125195   1.679   4.469  15.627
 1260TIP3    H225196   1.614   4.606  15.626
 1261TIP3   OH225197   4.645   4.540  14.495
 1261TIP3    H125198   4.678   4.627  14.514
 1261TIP3    H225199   4.663   4.489  14.574
 1262TIP3   OH225200   3.805   5.614   5.029
 1262TIP3    H125201   3.858   5.692   5.020
 1262TIP3    H225202   3.777   5.592   4.940
 1263TIP3   OH225203   4.670   2.225   6.335
 1263TIP3    H125204   4.670   2.309   6.382
 1263TIP3    H225205   4.578   2.199   6.333
 1264TIP3   OH225206   2.016   4.580   1.681
 1264TIP3    H125207   2.099   4.567   1.637
 1264TIP3    H225208   1.967   4.499   1.664
 1265TIP3   OH225209   5.444   6.232  11.170
 1265TIP3    H125210   5.359   6.189  11.174
 1265TIP3    H225211   5.463   6.258  11.260
 1266TIP3   OH225212   1.493   3.187  15.382
 1266TIP3    H125213   1.547   3.140  15.447
 1266TIP3    H225214   1.408   3.196  15.424
 1267TIP3   OH225215   6.212   0.656  16.621
 1267TIP3    H125216   6.262   0.655  16.539
 1267TIP3    H225217   6.121   0.647  16.593
 1268TIP3   OH225218   4.610   4.095   2.232
 1268TIP3    H125219   4.579   4.164   2.174
 1268TIP3    H225220   4.575   4.119   2.318
 1269TIP3   OH225221   0.954   0.085   0.321
 1269TIP3    H125222   0.894   0.032   0.269
 1269TIP3    H225223   0.901   0.158   0.352
 1270TIP3   OH225224   3.738   2.942  13.904
 1270TIP3    H125225   3.763   2.872  13.964
 1270TIP3    H225226   3.675   2.902  13.845
 1271TIP3   OH225227   2.991   1.634   1.434
 1271TIP3    H125228   3.046   1.560   1.411
 1271TIP3    H225229   2.901   1.604   1.417
 1272TIP3   OH225230   2.912   3.222  12.152
 1272TIP3    H125231   2.892   3.154  12.087
 1272TIP3    H225232   2.958   3.290  12.102
 1273TIP3   OH225233   2.188   4.240   4.142
 1273TIP3    H125234   2.280   4.235   4.114
 1273TIP3    H225235   2.189   4.299   4.217
 1274TIP3   OH225236   0.088   3.514   1.038
 1274TIP3    H125237   0.026   3.472   0.978
 1274TIP3    H225238   0.171   3.513   0.991
 1275TIP3   OH225239   0.154   5.974   6.011
 1275TIP3    H125240   0.168   5.916   6.085
 1275TIP3    H225241   0.163   6.062   6.047
 1276TIP3   OH225242   0.157   2.594   0.648
 1276TIP3    H125243   0.120   2.588   0.736
 1276TIP3    H225244   0.179   2.504   0.625
 1277TIP3   OH225245   5.926   0.581  16.549
 1277TIP3    H125246   5.859   0.514  16.568
 1277TIP3    H225247   5.883   0.663  16.571
 1278TIP3   OH225248   6.556   5.308   5.747
 1278TIP3    H125249   6.578   5.341   5.659
 1278TIP3    H225250   6.519   5.384   5.792
 1279TIP3   OH225251   0.253   3.986  12.981
 1279TIP3    H125252   0.225   4.026  13.063
 1279TIP3    H225253   0.280   3.898  13.006
 1280TIP3   OH225254   2.934   4.560   2.745
 1280TIP3    H125255   3.007   4.567   2.683
 1280TIP3    H225256   2.964   4.608   2.822
 1281TIP3   OH225257   3.598   2.090  16.776
 1281TIP3    H125258   3.643   2.030  16.836
 1281TIP3    H225259   3.578   2.035  16.700
 1282TIP3   OH225260   3.229   0.420  13.644
 1282TIP3    H125261   3.236   0.467  13.727
 1282TIP3    H225262   3.231   0.488  13.577
 1283TIP3   OH225263   1.974   2.171   6.568
 1283TIP3    H125264   1.941   2.115   6.497
 1283TIP3    H225265   2.026   2.112   6.622
 1284TIP3   OH225266   2.029   3.122  17.053
 1284TIP3    H125267   2.081   3.181  17.108
 1284TIP3    H225268   2.008   3.049  17.110
 1285TIP3   OH225269   3.646   0.610  12.321
 1285TIP3    H125270   3.573   0.561  12.285
 1285TIP3    H225271   3.670   0.562  12.401
 1286TIP3   OH225272   1.796   1.381   4.032
 1286TIP3    H125273   1.847   1.381   4.114
 1286TIP3    H225274   1.705   1.373   4.061
 1287TIP3   OH225275   6.600   5.026   1.062
 1287TIP3    H125276   6.678   5.080   1.053
 1287TIP3    H225277   6.541   5.077   1.117
 1288TIP3   OH225278   2.802   4.676  12.361
 1288TIP3    H125279   2.782   4.748  12.421
 1288TIP3    H225280   2.718   4.631  12.349
 1289TIP3   OH225281   6.621   4.548  16.979
 1289TIP3    H125282   6.535   4.589  16.974
 1289TIP3    H225283   6.678   4.607  16.928
 1290TIP3   OH225284   4.444   2.199   1.364
 1290TIP3    H125285   4.372   2.163   1.416
 1290TIP3    H225286   4.445   2.146   1.284
 1291TIP3   OH225287   3.228   2.868  12.174
 1291TIP3    H125288   3.238   2.954  12.216
 1291TIP3    H225289   3.134   2.853  12.173
 1292TIP3   OH225290   1.813   5.682  15.985
 1292TIP3    H125291   1.795   5.721  15.899
 1292TIP3    H225292   1.742   5.712  16.041
 1293TIP3   OH225293   6.412   4.560   0.353
 1293TIP3    H125294   6.421   4.549   0.448
 1293TIP3    H225295   6.320   4.586   0.341
 1294TIP3   OH225296   5.144   0.384  12.800
 1294TIP3    H125297   5.177   0.296  12.819
 1294TIP3    H225298   5.053   0.383  12.831
 1295TIP3   OH225299   1.064   6.432   3.655
 1295TIP3    H125300   1.000   6.362   3.652
 1295TIP3    H225301   1.145   6.389   3.683
 1296TIP3   OH225302   4.566   3.353  12.136
 1296TIP3    H125303   4.649   3.318  12.103
 1296TIP3    H225304   4.568   3.335  12.230
 1297TIP3   OH225305   2.662   1.058  13.864
 1297TIP3    H125306   2.610   1.118  13.811
 1297TIP3    H225307   2.703   0.999  13.800
 1298TIP3   OH225308   2.310   3.137   4.648
 1298TIP3    H125309   2.221   3.145   4.682
 1298TIP3    H225310   2.301   3.090   4.565
 1299TIP3   OH225311   6.114   0.170   3.298
 1299TIP3    H125312   6.031   0.147   3.256
 1299TIP3    H225313   6.089   0.197   3.387
 1300TIP3   OH225314   2.669   1.909  16.358
 1300TIP3    H125315   2.756   1.926  16.321
 1300TIP3    H225316   2.676   1.821  16.395
 1301TIP3   OH225317   6.627   3.112   0.403
 1301TIP3    H125318   6.637   3.111   0.308
 1301TIP3    H225319   6.604   3.022   0.426
 1302TIP3   OH225320   3.394   5.782  14.669
 1302TIP3    H125321   3.346   5.859  14.638
 1302TIP3    H225322   3.434   5.811  14.751
 1303TIP3   OH225323   0.547   5.338   5.020
 1303TIP3    H125324   0.462   5.331   4.976
 1303TIP3    H225325   0.565   5.249   5.052
 1304TIP3   OH225326   3.539   5.672  16.137
 1304TIP3    H125327   3.622   5.689  16.092
 1304TIP3    H225328   3.472   5.709  16.080
 1305TIP3   OH225329   2.818   3.477  16.188
 1305TIP3    H125330   2.766   3.421  16.247
 1305TIP3    H225331   2.837   3.421  16.112
 1306TIP3   OH225332   2.718   6.764   2.111
 1306TIP3    H125333   2.680   6.785   2.025
 1306TIP3    H225334   2.652   6.794   2.174
 1307TIP3   OH225335   1.763   2.561  12.904
 1307TIP3    H125336   1.679   2.520  12.881
 1307TIP3    H225337   1.798   2.593  12.821
 1308TIP3   OH225338   3.328   3.692   1.252
 1308TIP3    H125339   3.236   3.673   1.269
 1308TIP3    H225340   3.336   3.692   1.157
 1309TIP3   OH225341   5.692   0.174  16.706
 1309TIP3    H125342   5.733   0.212  16.784
 1309TIP3    H225343   5.755   0.108  16.675
 1310TIP3   OH225344   5.804   4.989  15.095
 1310TIP3    H125345   5.813   5.043  15.174
 1310TIP3    H225346   5.893   4.958  15.077
 1311TIP3   OH225347   0.058   2.298  12.062
 1311TIP3    H125348   0.022   2.250  11.987
 1311TIP3    H225349   0.128   2.351  12.023
 1312TIP3   OH225350   5.752   5.449   2.057
 1312TIP3    H125351   5.760   5.399   2.138
 1312TIP3    H225352   5.838   5.442   2.016
 1313TIP3   OH225353   5.144   6.602   1.375
 1313TIP3    H125354   5.072   6.541   1.362
 1313TIP3    H225355   5.168   6.630   1.287
 1314TIP3   OH225356   6.199   0.604   4.275
 1314TIP3    H125357   6.128   0.651   4.230
 1314TIP3    H225358   6.202   0.518   4.232
 1315TIP3   OH225359   0.689   5.165  13.335
 1315TIP3    H125360   0.740   5.172  13.416
 1315TIP3    H225361   0.614   5.111  13.359
 1316TIP3   OH225362   5.020   4.913  16.016
 1316TIP3    H125363   4.947   4.975  16.015
 1316TIP3    H225364   4.995   4.848  16.081
 1317TIP3   OH225365   0.342   2.742   0.878
 1317TIP3    H125366   0.290   2.777   0.806
 1317TIP3    H225367   0.283   2.744   0.954
 1318TIP3   OH225368   5.285   2.868   2.020
 1318TIP3    H125369   5.274   2.951   2.066
 1318TIP3    H225370   5.206   2.818   2.040
 1319TIP3   OH225371   1.492   1.081  15.029
 1319TIP3    H125372   1.479   0.988  15.046
 1319TIP3    H225373   1.415   1.123  15.068
 1320TIP3   OH225374   0.253   4.119   6.813
 1320TIP3    H125375   0.327   4.087   6.864
 1320TIP3    H225376   0.202   4.041   6.792
 1321TIP3   OH225377   0.930   2.306   0.441
 1321TIP3    H125378   0.992   2.259   0.386
 1321TIP3    H225379   0.846   2.264   0.424
 1322TIP3   OH225380   3.494   5.554   5.374
 1322TIP3    H125381   3.551   5.607   5.318
 1322TIP3    H225382   3.463   5.616   5.441
 1323TIP3   OH225383   3.296   1.965  15.409
 1323TIP3    H125384   3.300   2.056  15.437
 1323TIP3    H225385   3.280   1.916  15.490
 1324TIP3   OH225386   3.044   3.017  15.064
 1324TIP3    H125387   2.967   3.050  15.110
 1324TIP3    H225388   3.009   2.953  15.002
 1325TIP3   OH225389   2.130   3.112  16.019
 1325TIP3    H125390   2.049   3.162  16.011
 1325TIP3    H225391   2.199   3.175  16.001
 1326TIP3   OH225392   5.506   4.118  14.343
 1326TIP3    H125393   5.570   4.168  14.393
 1326TIP3    H225394   5.488   4.173  14.266
 1327TIP3   OH225395   0.649   1.443  14.715
 1327TIP3    H125396   0.675   1.529  14.748
 1327TIP3    H225397   0.613   1.461  14.628
 1328TIP3   OH225398   6.687   2.307  12.782
 1328TIP3    H125399   6.703   2.215  12.761
 1328TIP3    H225400   6.623   2.336  12.717
 1329TIP3   OH225401   3.100   6.056   1.255
 1329TIP3    H125402   3.101   6.118   1.183
 1329TIP3    H225403   3.186   6.064   1.296
 1330TIP3   OH225404   0.205   3.475  13.356
 1330TIP3    H125405   0.275   3.418  13.389
 1330TIP3    H225406   0.210   3.554  13.409
 1331TIP3   OH225407   5.016   5.781  12.510
 1331TIP3    H125408   4.982   5.793  12.422
 1331TIP3    H225409   5.030   5.687  12.518
 1332TIP3   OH225410   6.719   3.449   0.269
 1332TIP3    H125411   6.650   3.493   0.319
 1332TIP3    H225412   6.673   3.381   0.220
 1333TIP3   OH225413   5.047   3.693   3.766
 1333TIP3    H125414   5.133   3.706   3.806
 1333TIP3    H225415   5.064   3.692   3.672
 1334TIP3   OH225416   0.906   3.621   1.345
 1334TIP3    H125417   0.990   3.666   1.352
 1334TIP3    H225418   0.916   3.563   1.270
 1335TIP3   OH225419   1.049   5.693   3.048
 1335TIP3    H125420   1.090   5.752   3.111
 1335TIP3    H225421   1.016   5.751   2.979
 1336TIP3   OH225422   1.614   0.161  11.897
 1336TIP3    H125423   1.603   0.086  11.838
 1336TIP3    H225424   1.655   0.124  11.975
 1337TIP3   OH225425   5.193   2.369   2.836
 1337TIP3    H125426   5.157   2.371   2.925
 1337TIP3    H225427   5.118   2.388   2.779
 1338TIP3   OH225428   6.684   1.593   0.904
 1338TIP3    H125429   6.710   1.638   0.824
 1338TIP3    H225430   6.737   1.634   0.973
 1339TIP3   OH225431   2.123   4.257   2.987
 1339TIP3    H125432   2.202   4.265   2.934
 1339TIP3    H225433   2.151   4.210   3.065
 1340TIP3   OH225434   4.639   3.942   3.546
 1340TIP3    H125435   4.665   4.033   3.532
 1340TIP3    H225436   4.661   3.924   3.637
 1341TIP3   OH225437   5.205   4.070  11.700
 1341TIP3    H125438   5.136   4.104  11.757
 1341TIP3    H225439   5.200   4.125  11.621
 1342TIP3   OH225440   1.023   0.853   5.551
 1342TIP3    H125441   1.031   0.913   5.477
 1342TIP3    H225442   1.108   0.809   5.555
 1343TIP3   OH225443   5.990   3.142  11.895
 1343TIP3    H125444   5.991   3.086  11.818
 1343TIP3    H225445   5.942   3.092  11.961
 1344TIP3   OH225446   0.114   3.396   0.055
 1344TIP3    H125447   0.059   3.410   0.133
 1344TIP3    H225448   0.196   3.440   0.076
 1345TIP3   OH225449   4.843   0.881  16.337
 1345TIP3    H125450   4.774   0.861  16.401
 1345TIP3    H225451   4.923   0.890  16.389
 1346TIP3   OH225452   1.466   5.896  11.398
 1346TIP3    H125453   1.481   5.852  11.314
 1346TIP3    H225454   1.552   5.898  11.440
 1347TIP3   OH225455   4.520   4.830  16.498
 1347TIP3    H125456   4.520   4.735  16.513
 1347TIP3    H225457   4.575   4.842  16.421
 1348TIP3   OH225458   4.360   3.152   1.923
 1348TIP3    H125459   4.348   3.096   1.846
 1348TIP3    H225460   4.361   3.092   1.997
 1349TIP3   OH225461   3.098   1.069  11.972
 1349TIP3    H125462   3.128   0.979  11.963
 1349TIP3    H225463   3.063   1.092  11.886
 1350TIP3   OH225464   1.722   4.532  12.017
 1350TIP3    H125465   1.789   4.593  12.050
 1350TIP3    H225466   1.663   4.518  12.091
 1351TIP3   OH225467   2.968   1.533  14.264
 1351TIP3    H125468   3.006   1.587  14.194
 1351TIP3    H225469   2.922   1.595  14.320
 1352TIP3   OH225470   5.921   3.105  15.841
 1352TIP3    H125471   5.921   3.030  15.782
 1352TIP3    H225472   5.978   3.169  15.798
 1353TIP3   OH225473   3.933   4.491  16.120
 1353TIP3    H125474   3.882   4.427  16.071
 1353TIP3    H225475   4.006   4.513  16.062
 1354TIP3   OH225476   1.878   3.570  11.134
 1354TIP3    H125477   1.916   3.595  11.050
 1354TIP3    H225478   1.946   3.589  11.198
 1355TIP3   OH225479   6.588   4.556  12.536
 1355TIP3    H125480   6.621   4.501  12.607
 1355TIP3    H225481   6.626   4.642  12.552
 1356TIP3   OH225482   0.650   4.429  12.442
 1356TIP3    H125483   0.706   4.411  12.367
 1356TIP3    H225484   0.632   4.342  12.480
 1357TIP3   OH225485   4.858   6.553   5.426
 1357TIP3    H125486   4.775   6.556   5.474
 1357TIP3    H225487   4.834   6.519   5.340
 1358TIP3   OH225488   0.343   5.309  14.628
 1358TIP3    H125489   0.331   5.355  14.710
 1358TIP3    H225490   0.266   5.251  14.622
 1359TIP3   OH225491   6.203   0.905   2.964
 1359TIP3    H125492   6.171   0.821   2.997
 1359TIP3    H225493   6.125   0.946   2.925
 1360TIP3   OH225494   5.581   2.963   0.512
 1360TIP3    H125495   5.630   3.033   0.556
 1360TIP3    H225496   5.497   2.960   0.559
 1361TIP3   OH225497   2.390   2.946   4.810
 1361TIP3    H125498   2.355   3.014   4.753
 1361TIP3    H225499   2.420   2.992   4.888
 1362TIP3   OH225500   2.599   0.348  14.300
 1362TIP3    H125501   2.685   0.330  14.338
 1362TIP3    H225502   2.603   0.440  14.272
 1363TIP3   OH225503   3.782   3.805  10.806
 1363TIP3    H125504   3.755   3.885  10.760
 1363TIP3    H225505   3.750   3.734  10.751
 1364TIP3   OH225506   5.096   0.469  13.248
 1364TIP3    H125507   5.104   0.539  13.183
 1364TIP3    H225508   5.003   0.448  13.250
 1365TIP3   OH225509   4.500   4.037  16.523
 1365TIP3    H125510   4.478   3.968  16.585
 1365TIP3    H225511   4.557   4.097  16.571
 1366TIP3   OH225512   6.438   1.994   2.975
 1366TIP3    H125513   6.399   1.938   3.042
 1366TIP3    H225514   6.434   1.942   2.895
 1367TIP3   OH225515   1.227   2.989  15.135
 1367TIP3    H125516   1.302   2.932  15.123
 1367TIP3    H225517   1.253   3.072  15.095
 1368TIP3   OH225518   0.369   2.004  16.918
 1368TIP3    H125519   0.408   1.952  16.988
 1368TIP3    H225520   0.357   2.091  16.956
 1369TIP3   OH225521   0.222   6.373  11.390
 1369TIP3    H125522   0.136   6.336  11.410
 1369TIP3    H225523   0.212   6.408  11.302
 1370TIP3   OH225524   3.976   4.823   4.758
 1370TIP3    H125525   4.003   4.900   4.808
 1370TIP3    H225526   4.041   4.756   4.781
 1371TIP3   OH225527   1.914   4.440  11.722
 1371TIP3    H125528   1.849   4.509  11.711
 1371TIP3    H225529   1.901   4.381  11.648
 1372TIP3   OH225530   3.847   6.534  13.757
 1372TIP3    H125531   3.819   6.624  13.742
 1372TIP3    H225532   3.926   6.525  13.703
 1373TIP3   OH225533   0.019   2.328  11.252
 1373TIP3    H125534  -0.043   2.262  11.283
 1373TIP3    H225535  -0.021   2.412  11.276
 1374TIP3   OH225536   0.002   0.973  16.875
 1374TIP3    H125537   0.070   0.989  16.810
 1374TIP3    H225538   0.030   1.022  16.952
 1375TIP3   OH225539   4.287   5.220   2.167
 1375TIP3    H125540   4.246   5.177   2.243
 1375TIP3    H225541   4.368   5.171   2.153
 1376TIP3   OH225542   3.804   5.346   4.416
 1376TIP3    H125543   3.838   5.435   4.429
 1376TIP3    H225544   3.709   5.355   4.429
 1377TIP3   OH225545   5.561   0.958  13.146
 1377TIP3    H125546   5.553   1.021  13.218
 1377TIP3    H225547   5.616   1.002  13.081
 1378TIP3   OH225548   3.064   4.018   2.596
 1378TIP3    H125549   3.099   4.065   2.672
 1378TIP3    H225550   2.988   3.970   2.631
 1379TIP3   OH225551   3.417   6.770  11.174
 1379TIP3    H125552   3.461   6.722  11.244
 1379TIP3    H225553   3.485   6.788  11.110
 1380TIP3   OH225554   4.317   2.316  12.460
 1380TIP3    H125555   4.340   2.306  12.368
 1380TIP3    H225556   4.229   2.277  12.466
 1381TIP3   OH225557   4.128   5.691  13.929
 1381TIP3    H125558   4.201   5.693  13.867
 1381TIP3    H225559   4.137   5.607  13.974
 1382TIP3   OH225560   5.961   0.995  13.003
 1382TIP3    H125561   6.056   0.987  12.991
 1382TIP3    H225562   5.946   0.979  13.096
 1383TIP3   OH225563   4.067   2.399  11.196
 1383TIP3    H125564   4.119   2.329  11.156
 1383TIP3    H225565   4.014   2.434  11.124
 1384TIP3   OH225566   0.845   1.598  13.262
 1384TIP3    H125567   0.927   1.567  13.300
 1384TIP3    H225568   0.811   1.523  13.214
 1385TIP3   OH225569   1.720   2.592   4.838
 1385TIP3    H125570   1.688   2.520   4.893
 1385TIP3    H225571   1.727   2.667   4.898
 1386TIP3   OH225572   6.365   4.899   1.697
 1386TIP3    H125573   6.420   4.824   1.721
 1386TIP3    H225574   6.426   4.965   1.665
 1387TIP3   OH225575   1.537   1.169   2.407
 1387TIP3    H125576   1.630   1.180   2.427
 1387TIP3    H225577   1.495   1.168   2.493
 1388TIP3   OH225578   5.431   4.258   2.466
 1388TIP3    H125579   5.360   4.321   2.453
 1388TIP3    H225580   5.508   4.311   2.485
 1389TIP3   OH225581   5.941   3.676   3.359
 1389TIP3    H125582   5.929   3.607   3.424
 1389TIP3    H225583   5.978   3.631   3.283
 1390TIP3   OH225584   0.087   0.872  15.751
 1390TIP3    H125585   0.075   0.875  15.846
 1390TIP3    H225586   0.075   0.963  15.722
 1391TIP3   OH225587   6.712   1.325   0.979
 1391TIP3    H125588   6.618   1.310   0.970
 1391TIP3    H225589   6.726   1.414   0.945
 1392TIP3   OH225590   6.130   0.843  16.151
 1392TIP3    H125591   6.175   0.874  16.229
 1392TIP3    H225592   6.039   0.832  16.178
 1393TIP3   OH225593   1.662   2.247   3.968
 1393TIP3    H125594   1.651   2.153   3.976
 1393TIP3    H225595   1.745   2.258   3.922
 1394TIP3   OH225596   5.114   5.164  12.123
 1394TIP3    H125597   5.074   5.187  12.039
 1394TIP3    H225598   5.182   5.100  12.101
 1395TIP3   OH225599   2.948   4.700   1.856
 1395TIP3    H125600   2.886   4.628   1.855
 1395TIP3    H225601   2.921   4.756   1.783
 1396TIP3   OH225602   3.418   0.702  16.996
 1396TIP3    H125603   3.340   0.754  17.015
 1396TIP3    H225604   3.403   0.618  17.040
 1397TIP3   OH225605   1.444   4.293   5.243
 1397TIP3    H125606   1.370   4.315   5.186
 1397TIP3    H225607   1.405   4.239   5.313
 1398TIP3   OH225608   2.734   3.057  16.425
 1398TIP3    H125609   2.741   3.152  16.416
 1398TIP3    H225610   2.640   3.040  16.430
 1399TIP3   OH225611   3.324   6.407  12.331
 1399TIP3    H125612   3.317   6.339  12.264
 1399TIP3    H225613   3.415   6.436  12.326
 1400TIP3   OH225614   4.059   2.532  13.778
 1400TIP3    H125615   4.053   2.599  13.846
 1400TIP3    H225616   4.123   2.469  13.811
 1401TIP3   OH225617   4.346   3.306  13.983
 1401TIP3    H125618   4.294   3.322  13.904
 1401TIP3    H225619   4.302   3.356  14.052
 1402TIP3   OH225620   0.188   3.645  11.750
 1402TIP3    H125621   0.132   3.603  11.816
 1402TIP3    H225622   0.227   3.719  11.796
 1403TIP3   OH225623   1.897   1.834   5.231
 1403TIP3    H125624   1.850   1.915   5.248
 1403TIP3    H225625   1.917   1.800   5.319
 1404TIP3   OH225626   4.024   0.997   1.919
 1404TIP3    H125627   3.933   1.021   1.936
 1404TIP3    H225628   4.068   1.009   2.003
 1405TIP3   OH225629   2.038   2.451   2.126
 1405TIP3    H125630   2.021   2.419   2.214
 1405TIP3    H225631   2.041   2.546   2.135
 1406TIP3   OH225632   2.205   0.577  12.427
 1406TIP3    H125633   2.240   0.555  12.514
 1406TIP3    H225634   2.148   0.503  12.405
 1407TIP3   OH225635   2.592   4.730  15.719
 1407TIP3    H125636   2.587   4.786  15.641
 1407TIP3    H225637   2.643   4.780  15.782
 1408TIP3   OH225638   3.936   2.251   0.536
 1408TIP3    H125639   3.888   2.203   0.468
 1408TIP3    H225640   4.011   2.289   0.490
 1409TIP3   OH225641   5.600   1.392  12.219
 1409TIP3    H125642   5.572   1.301  12.210
 1409TIP3    H225643   5.695   1.388  12.209
 1410TIP3   OH225644   2.874   2.648   3.050
 1410TIP3    H125645   2.876   2.608   3.136
 1410TIP3    H225646   2.858   2.576   2.990
 1411TIP3   OH225647   6.462   1.277  16.160
 1411TIP3    H125648   6.531   1.280  16.227
 1411TIP3    H225649   6.408   1.354  16.177
 1412TIP3   OH225650   3.668   6.206  13.209
 1412TIP3    H125651   3.601   6.173  13.148
 1412TIP3    H225652   3.620   6.221  13.290
 1413TIP3   OH225653   2.643   4.156   4.429
 1413TIP3    H125654   2.609   4.088   4.370
 1413TIP3    H225655   2.568   4.212   4.449
 1414TIP3   OH225656   3.361   1.012   6.438
 1414TIP3    H125657   3.427   1.072   6.473
 1414TIP3    H225658   3.312   1.065   6.375
 1415TIP3   OH225659   4.380   3.593  12.500
 1415TIP3    H125660   4.401   3.684  12.523
 1415TIP3    H225661   4.325   3.562  12.571
 1416TIP3   OH225662   5.849   3.592  14.614
 1416TIP3    H125663   5.797   3.531  14.667
 1416TIP3    H225664   5.929   3.544  14.595
 1417TIP3   OH225665   4.513   5.035   1.868
 1417TIP3    H125666   4.432   5.074   1.900
 1417TIP3    H225667   4.579   5.105   1.876
 1418TIP3   OH225668   4.580   3.144  14.049
 1418TIP3    H125669   4.509   3.206  14.063
 1418TIP3    H225670   4.569   3.079  14.119
 1419TIP3   OH225671   1.363   0.501   2.407
 1419TIP3    H125672   1.453   0.500   2.376
 1419TIP3    H225673   1.349   0.592   2.435
 1420TIP3   OH225674   3.146   3.046  15.983
 1420TIP3    H125675   3.089   3.024  15.909
 1420TIP3    H225676   3.086   3.074  16.052
 1421TIP3   OH225677   5.753   0.415  12.460
 1421TIP3    H125678   5.811   0.339  12.468
 1421TIP3    H225679   5.718   0.408  12.372
 1422TIP3   OH225680   1.429   3.704  11.274
 1422TIP3    H125681   1.520   3.713  11.246
 1422TIP3    H225682   1.393   3.792  11.269
 1423TIP3   OH225683   1.492   2.409   4.911
 1423TIP3    H125684   1.528   2.405   4.999
 1423TIP3    H225685   1.415   2.352   4.914
 1424TIP3   OH225686   4.815   1.114  15.257
 1424TIP3    H125687   4.814   1.134  15.351
 1424TIP3    H225688   4.891   1.056  15.246
 1425TIP3   OH225689   1.070   2.583  13.971
 1425TIP3    H125690   1.159   2.552  13.954
 1425TIP3    H225691   1.079   2.677  13.982
 1426TIP3   OH225692   1.280   0.418   0.238
 1426TIP3    H125693   1.274   0.385   0.148
 1426TIP3    H225694   1.228   0.355   0.290
 1427TIP3   OH225695   4.460   6.554  15.736
 1427TIP3    H125696   4.376   6.567  15.781
 1427TIP3    H225697   4.522   6.539  15.807
 1428TIP3   OH225698   1.509   0.744   3.102
 1428TIP3    H125699   1.451   0.681   3.060
 1428TIP3    H225700   1.451   0.813   3.135
 1429TIP3   OH225701   2.570   3.738  13.687
 1429TIP3    H125702   2.616   3.654  13.694
 1429TIP3    H225703   2.628   3.801  13.731
 1430TIP3   OH225704   2.592   1.324   6.198
 1430TIP3    H125705   2.590   1.322   6.293
 1430TIP3    H225706   2.524   1.262   6.171
 1431TIP3   OH225707   2.903   0.824   0.638
 1431TIP3    H125708   2.832   0.763   0.656
 1431TIP3    H225709   2.882   0.901   0.691
 1432TIP3   OH225710   1.771   4.475   5.643
 1432TIP3    H125711   1.823   4.487   5.723
 1432TIP3    H225712   1.791   4.386   5.614
 1433TIP3   OH225713   0.536   0.663   4.379
 1433TIP3    H125714   0.448   0.628   4.366
 1433TIP3    H225715   0.579   0.599   4.435
 1434TIP3   OH225716   5.063   5.182  13.410
 1434TIP3    H125717   5.105   5.254  13.457
 1434TIP3    H225718   5.090   5.104  13.458
 1435TIP3   OH225719   1.621   5.674   2.872
 1435TIP3    H125720   1.657   5.712   2.952
 1435TIP3    H225721   1.688   5.689   2.806
 1436TIP3   OH225722   5.226   3.204  11.330
 1436TIP3    H125723   5.181   3.287  11.314
 1436TIP3    H225724   5.304   3.207  11.273
 1437TIP3   OH225725   2.200   0.436  16.375
 1437TIP3    H125726   2.195   0.373  16.446
 1437TIP3    H225727   2.128   0.497  16.392
 1438TIP3   OH225728   3.413   5.914   5.740
 1438TIP3    H125729   3.381   5.896   5.828
 1438TIP3    H225730   3.336   5.907   5.684
 1439TIP3   OH225731   3.285   2.417  13.650
 1439TIP3    H125732   3.373   2.391  13.626
 1439TIP3    H225733   3.251   2.463  13.573
 1440TIP3   OH225734   5.060   3.803  16.046
 1440TIP3    H125735   5.059   3.898  16.034
 1440TIP3    H225736   5.040   3.768  15.959
 1441TIP3   OH225737   4.838   6.634   4.680
 1441TIP3    H125738   4.897   6.560   4.692
 1441TIP3    H225739   4.761   6.598   4.636
 1442TIP3   OH225740   1.626   6.246  16.325
 1442TIP3    H125741   1.669   6.163  16.347
 1442TIP3    H225742   1.684   6.287  16.261
 1443TIP3   OH225743   0.079   5.916   4.725
 1443TIP3    H125744   0.166   5.918   4.686
 1443TIP3    H225745   0.065   5.825   4.750
 1444TIP3   OH225746   5.464   5.040   1.637
 1444TIP3    H125747   5.536   5.070   1.581
 1444TIP3    H225748   5.444   4.952   1.606
 1445TIP3   OH225749   2.704   2.538   2.713
 1445TIP3    H125750   2.645   2.576   2.778
 1445TIP3    H225751   2.734   2.612   2.661
 1446TIP3   OH225752   0.514   1.078   6.170
 1446TIP3    H125753   0.539   1.170   6.158
 1446TIP3    H225754   0.442   1.065   6.108
 1447TIP3   OH225755   6.325   0.909   4.359
 1447TIP3    H125756   6.342   0.927   4.451
 1447TIP3    H225757   6.264   0.835   4.359
 1448TIP3   OH225758   1.560   1.946   0.226
 1448TIP3    H125759   1.559   1.880   0.295
 1448TIP3    H225760   1.586   1.899   0.147
 1449TIP3   OH225761   0.490   4.653   0.000
 1449TIP3    H125762   0.407   4.632  -0.041
 1449TIP3    H225763   0.475   4.738   0.042
 1450TIP3   OH225764   5.760   5.196  17.126
 1450TIP3    H125765   5.818   5.142  17.181
 1450TIP3    H225766   5.688   5.137  17.102
 1451TIP3   OH225767   0.887   4.596  12.243
 1451TIP3    H125768   0.965   4.553  12.276
 1451TIP3    H225769   0.851   4.641  12.320
 1452TIP3   OH225770   0.259   5.181  16.589
 1452TIP3    H125771   0.265   5.103  16.534
 1452TIP3    H225772   0.312   5.161  16.666
 1453TIP3   OH225773   2.550   1.580   2.403
 1453TIP3    H125774   2.482   1.591   2.469
 1453TIP3    H225775   2.523   1.639   2.332
 1454TIP3   OH225776   2.872   1.403   0.388
 1454TIP3    H125777   2.949   1.379   0.338
 1454TIP3    H225778   2.827   1.320   0.405
 1455TIP3   OH225779   1.617   1.405  13.224
 1455TIP3    H125780   1.640   1.498  13.219
 1455TIP3    H225781   1.535   1.405  13.273
 1456TIP3   OH225782   4.867   1.751  16.905
 1456TIP3    H125783   4.864   1.704  16.988
 1456TIP3    H225784   4.905   1.689  16.843
 1457TIP3   OH225785   2.161   2.326  15.301
 1457TIP3    H125786   2.166   2.248  15.245
 1457TIP3    H225787   2.129   2.293  15.385
 1458TIP3   OH225788   3.847   4.389   2.573
 1458TIP3    H125789   3.797   4.379   2.654
 1458TIP3    H225790   3.936   4.408   2.602
 1459TIP3   OH225791   1.405   5.796  15.757
 1459TIP3    H125792   1.478   5.759  15.807
 1459TIP3    H225793   1.446   5.831  15.677
 1460TIP3   OH225794   0.193   0.612   5.891
 1460TIP3    H125795   0.144   0.693   5.878
 1460TIP3    H225796   0.221   0.615   5.983
 1461TIP3   OH225797   6.696   2.868   4.554
 1461TIP3    H125798   6.619   2.817   4.527
 1461TIP3    H225799   6.770   2.809   4.539
 1462TIP3   OH225800   6.269   4.534  17.129
 1462TIP3    H125801   6.348   4.486  17.105
 1462TIP3    H225802   6.221   4.544  17.047
 1463TIP3   OH225803   2.776   5.312   5.204
 1463TIP3    H125804   2.791   5.294   5.297
 1463TIP3    H225805   2.864   5.323   5.168
 1464TIP3   OH225806   3.219   2.506  14.421
 1464TIP3    H125807   3.195   2.536  14.508
 1464TIP3    H225808   3.307   2.539  14.407
 1465TIP3   OH225809   1.582   1.039  14.564
 1465TIP3    H125810   1.526   0.963  14.552
 1465TIP3    H225811   1.653   1.027  14.501
 1466TIP3   OH225812   5.690   0.403  14.838
 1466TIP3    H125813   5.723   0.377  14.752
 1466TIP3    H225814   5.684   0.320  14.887
 1467TIP3   OH225815   1.453   0.765   5.050
 1467TIP3    H125816   1.432   0.714   5.128
 1467TIP3    H225817   1.543   0.795   5.065
 1468TIP3   OH225818   0.530   0.978   6.737
 1468TIP3    H125819   0.513   1.068   6.709
 1468TIP3    H225820   0.474   0.965   6.813
 1469TIP3   OH225821   4.979   5.421   4.402
 1469TIP3    H125822   5.017   5.474   4.472
 1469TIP3    H225823   5.006   5.332   4.421
 1470TIP3   OH225824   1.820   0.032   5.927
 1470TIP3    H125825   1.825   0.104   5.864
 1470TIP3    H225826   1.815   0.075   6.012
 1471TIP3   OH225827   6.744   5.344   2.214
 1471TIP3    H125828   6.813   5.397   2.253
 1471TIP3    H225829   6.673   5.345   2.279
 1472TIP3   OH225830   4.538   3.346   6.453
 1472TIP3    H125831   4.471   3.412   6.468
 1472TIP3    H225832   4.621   3.394   6.456
 1473TIP3   OH225833   1.363   2.330  12.450
 1473TIP3    H125834   1.357   2.251  12.505
 1473TIP3    H225835   1.273   2.356  12.435
 1474TIP3   OH225836   5.973   2.866  15.066
 1474TIP3    H125837   6.003   2.851  15.155
 1474TIP3    H225838   5.896   2.810  15.057
 1475TIP3   OH225839   0.603   0.635   1.854
 1475TIP3    H125840   0.538   0.656   1.921
 1475TIP3    H225841   0.619   0.718   1.809
 1476TIP3   OH225842   6.355   5.640  12.889
 1476TIP3    H125843   6.346   5.586  12.810
 1476TIP3    H225844   6.423   5.596  12.940
 1477TIP3   OH225845   6.578   4.938   6.372
 1477TIP3    H125846   6.606   4.933   6.463
 1477TIP3    H225847   6.539   5.025   6.364
 1478TIP3   OH225848   2.885   6.400   0.216
 1478TIP3    H125849   2.825   6.346   0.163
 1478TIP3    H225850   2.966   6.348   0.220
 1479TIP3   OH225851   4.242   0.636   1.304
 1479TIP3    H125852   4.207   0.680   1.381
 1479TIP3    H225853   4.268   0.549   1.336
 1480TIP3   OH225854   3.529   5.339   6.507
 1480TIP3    H125855   3.456   5.386   6.548
 1480TIP3    H225856   3.520   5.356   6.414
 1481TIP3   OH225857   2.244   5.253  13.551
 1481TIP3    H125858   2.320   5.279  13.603
 1481TIP3    H225859   2.281   5.224  13.467
 1482TIP3   OH225860   3.236   3.978  12.902
 1482TIP3    H125861   3.260   4.039  12.972
 1482TIP3    H225862   3.308   3.916  12.899
 1483TIP3   OH225863   3.910   1.628   2.049
 1483TIP3    H125864   3.832   1.653   2.098
 1483TIP3    H225865   3.898   1.535   2.029
 1484TIP3   OH225866   4.974   0.014   3.119
 1484TIP3    H125867   4.956   0.102   3.084
 1484TIP3    H225868   5.016  -0.033   3.047
 1485TIP3   OH225869   3.080   1.275  10.853
 1485TIP3    H125870   3.018   1.284  10.781
 1485TIP3    H225871   3.034   1.221  10.917
 1486TIP3   OH225872   1.242   0.314   2.259
 1486TIP3    H125873   1.295   0.354   2.328
 1486TIP3    H225874   1.246   0.377   2.187
 1487TIP3   OH225875   2.734   5.810   3.074
 1487TIP3    H125876   2.651   5.784   3.114
 1487TIP3    H225877   2.742   5.754   2.997
 1488TIP3   OH225878   5.488   0.994   1.835
 1488TIP3    H125879   5.570   1.043   1.846
 1488TIP3    H225880   5.476   0.988   1.740
 1489TIP3   OH225881   0.621   2.910  14.174
 1489TIP3    H125882   0.567   2.987  14.190
 1489TIP3    H225883   0.559   2.840  14.153
 1490TIP3   OH225884   2.969   3.187   5.236
 1490TIP3    H125885   3.051   3.139   5.227
 1490TIP3    H225886   2.901   3.124   5.213
 1491TIP3   OH225887   0.365   3.935  15.673
 1491TIP3    H125888   0.331   3.927  15.762
 1491TIP3    H225889   0.303   3.885  15.620
 1492TIP3   OH225890   1.516   2.016   5.931
 1492TIP3    H125891   1.508   2.059   6.015
 1492TIP3    H225892   1.551   1.929   5.952
 1493TIP3   OH225893   0.642   2.430   2.685
 1493TIP3    H125894   0.717   2.453   2.740
 1493TIP3    H225895   0.638   2.499   2.619
 1494TIP3   OH225896   4.456   3.520  14.603
 1494TIP3    H125897   4.384   3.577  14.577
 1494TIP3    H225898   4.474   3.467  14.525
 1495TIP3   OH225899   6.178   2.298  14.752
 1495TIP3    H125900   6.087   2.315  14.779
 1495TIP3    H225901   6.211   2.238  14.819
 1496TIP3   OH225902   2.737   5.455  12.457
 1496TIP3    H125903   2.785   5.382  12.419
 1496TIP3    H225904   2.804   5.519  12.479
 1497TIP3   OH225905   6.765   2.623   0.089
 1497TIP3    H125906   6.706   2.686   0.130
 1497TIP3    H225907   6.709   2.547   0.071
 1498TIP3   OH225908   1.043   1.095  14.086
 1498TIP3    H125909   1.016   1.117  14.175
 1498TIP3    H225910   0.962   1.095  14.036
 1499TIP3   OH225911   3.885   1.572   1.252
 1499TIP3    H125912   3.967   1.528   1.230
 1499TIP3    H225913   3.841   1.585   1.168
 1500TIP3   OH225914   1.014   2.022   1.377
 1500TIP3    H125915   1.034   2.029   1.471
 1500TIP3    H225916   1.017   2.112   1.345
 1501TIP3   OH225917   5.115   1.035  12.754
 1501TIP3    H125918   5.135   0.981  12.830
 1501TIP3    H225919   5.045   0.989  12.708
 1502TIP3   OH225920   3.479   4.524   5.440
 1502TIP3    H125921   3.466   4.579   5.518
 1502TIP3    H225922   3.573   4.510   5.436
 1503TIP3   OH225923   5.199   2.045  16.797
 1503TIP3    H125924   5.280   2.039  16.849
 1503TIP3    H225925   5.217   1.994  16.718
 1504TIP3   OH225926   1.263   5.373   5.493
 1504TIP3    H125927   1.327   5.416   5.436
 1504TIP3    H225928   1.242   5.438   5.560
 1505TIP3   OH225929   6.579   4.240   3.701
 1505TIP3    H125930   6.527   4.314   3.669
 1505TIP3    H225931   6.656   4.281   3.741
 1506TIP3   OH225932   4.640   0.330   2.351
 1506TIP3    H125933   4.586   0.269   2.402
 1506TIP3    H225934   4.678   0.388   2.416
 1507TIP3   OH225935   2.914   0.214   1.522
 1507TIP3    H125936   2.956   0.226   1.437
 1507TIP3    H225937   2.986   0.188   1.580
 1508TIP3   OH225938   4.972   1.828   3.378
 1508TIP3    H125939   4.927   1.775   3.443
 1508TIP3    H225940   5.007   1.766   3.315
 1509TIP3   OH225941   3.436   1.921  11.257
 1509TIP3    H125942   3.470   1.984  11.193
 1509TIP3    H225943   3.513   1.891  11.305
 1510TIP3   OH225944   5.703   4.935  15.725
 1510TIP3    H125945   5.641   4.896  15.786
 1510TIP3    H225946   5.788   4.898  15.749
 1511TIP3   OH225947   4.745   5.495   4.935
 1511TIP3    H125948   4.828   5.502   4.888
 1511TIP3    H225949   4.725   5.401   4.933
 1512TIP3   OH225950   0.096   2.399   2.953
 1512TIP3    H125951   0.159   2.372   2.886
 1512TIP3    H225952   0.121   2.349   3.031
 1513TIP3   OH225953   3.464   4.986  14.212
 1513TIP3    H125954   3.476   5.080  14.208
 1513TIP3    H225955   3.385   4.974  14.264
 1514TIP3   OH225956   5.431   0.536  15.175
 1514TIP3    H125957   5.519   0.551  15.141
 1514TIP3    H225958   5.445   0.480  15.252
 1515TIP3   OH225959   1.930   2.579  11.687
 1515TIP3    H125960   1.848   2.600  11.641
 1515TIP3    H225961   1.995   2.636  11.648
 1516TIP3   OH225962   1.123   3.999  15.441
 1516TIP3    H125963   1.050   4.061  15.431
 1516TIP3    H225964   1.119   3.973  15.533
 1517TIP3   OH225965   4.489   2.547   6.179
 1517TIP3    H125966   4.493   2.633   6.222
 1517TIP3    H225967   4.441   2.562   6.098
 1518TIP3   OH225968   2.035   6.347  16.611
 1518TIP3    H125969   2.085   6.337  16.691
 1518TIP3    H225970   1.994   6.261  16.597
 1519TIP3   OH225971   3.929   1.867   5.061
 1519TIP3    H125972   3.937   1.797   5.126
 1519TIP3    H225973   3.951   1.947   5.109
 1520TIP3   OH225974   4.665   5.560   1.931
 1520TIP3    H125975   4.663   5.650   1.962
 1520TIP3    H225976   4.651   5.507   2.009
 1521TIP3   OH225977   6.202   0.132  16.348
 1521TIP3    H125978   6.175   0.041  16.335
 1521TIP3    H225979   6.186   0.174  16.263
 1522TIP3   OH225980   1.701   5.671  16.829
 1522TIP3    H125981   1.623   5.649  16.779
 1522TIP3    H225982   1.738   5.587  16.856
 1523TIP3   OH225983   2.754   1.222   4.706
 1523TIP3    H125984   2.792   1.206   4.792
 1523TIP3    H225985   2.821   1.190   4.644
 1524TIP3   OH225986   0.945   6.166   1.574
 1524TIP3    H125987   1.039   6.159   1.587
 1524TIP3    H225988   0.929   6.113   1.495
 1525TIP3   OH225989   4.866   5.776   2.996
 1525TIP3    H125990   4.936   5.746   3.054
 1525TIP3    H225991   4.834   5.856   3.037
 1526TIP3   OH225992   4.127   3.155   2.367
 1526TIP3    H125993   4.150   3.182   2.455
 1526TIP3    H225994   4.210   3.130   2.326
 1527TIP3   OH225995   2.616   6.106  14.181
 1527TIP3    H125996   2.596   6.199  14.169
 1527TIP3    H225997   2.711   6.100  14.168
 1528TIP3   OH225998   0.989   2.275   0.726
 1528TIP3    H125999   0.980   2.332   0.650
 1528TIP3    H226000   0.976   2.186   0.691
 1529TIP3   OH226001   3.864   1.925  14.519
 1529TIP3    H126002   3.800   1.929  14.448
 1529TIP3    H226003   3.849   2.005  14.569
 1530TIP3   OH226004   6.130   3.232   4.863
 1530TIP3    H126005   6.081   3.151   4.877
 1530TIP3    H226006   6.069   3.290   4.818
 1531TIP3   OH226007   2.386   0.008   5.317
 1531TIP3    H126008   2.422   0.065   5.385
 1531TIP3    H226009   2.379  -0.078   5.358
 1532TIP3   OH226010   6.316   1.502   3.051
 1532TIP3    H126011   6.324   1.553   3.132
 1532TIP3    H226012   6.239   1.539   3.006
 1533TIP3   OH226013   2.750   1.998  10.995
 1533TIP3    H126014   2.741   2.021  11.087
 1533TIP3    H226015   2.661   1.981  10.966
 1534TIP3   OH226016   1.934   6.604   4.216
 1534TIP3    H126017   1.933   6.514   4.182
 1534TIP3    H226018   1.876   6.653   4.158
 1535TIP3   OH226019   1.786   2.029  10.400
 1535TIP3    H126020   1.694   2.053  10.412
 1535TIP3    H226021   1.787   1.976  10.321
 1536TIP3   OH226022   4.772   3.410   0.151
 1536TIP3    H126023   4.694   3.449   0.191
 1536TIP3    H226024   4.840   3.477   0.160
 1537TIP3   OH226025   1.531   3.853  12.755
 1537TIP3    H126026   1.493   3.794  12.820
 1537TIP3    H226027   1.540   3.800  12.676
 1538TIP3   OH226028   3.069   0.735  14.414
 1538TIP3    H126029   3.062   0.674  14.340
 1538TIP3    H226030   2.997   0.711  14.472
 1539TIP3   OH226031   0.964   0.259   1.327
 1539TIP3    H126032   0.932   0.243   1.415
 1539TIP3    H226033   0.933   0.348   1.306
 1540TIP3   OH226034   4.873   2.481  13.039
 1540TIP3    H126035   4.816   2.419  12.994
 1540TIP3    H226036   4.924   2.428  13.100
 1541TIP3   OH226037   3.320   0.150  14.989
 1541TIP3    H126038   3.401   0.187  15.025
 1541TIP3    H226039   3.256   0.221  14.997
 1542TIP3   OH226040   4.348   4.249  15.999
 1542TIP3    H126041   4.355   4.342  16.023
 1542TIP3    H226042   4.257   4.239  15.970
 1543TIP3   OH226043   4.526   1.820   5.367
 1543TIP3    H126044   4.583   1.894   5.386
 1543TIP3    H226045   4.545   1.798   5.276
 1544TIP3   OH226046   2.770   2.425   3.696
 1544TIP3    H126047   2.770   2.484   3.621
 1544TIP3    H226048   2.827   2.353   3.669
 1545TIP3   OH226049   6.606   2.060  16.898
 1545TIP3    H126050   6.575   2.086  16.984
 1545TIP3    H226051   6.614   1.965  16.904
 1546TIP3   OH226052   0.825   2.502   0.960
 1546TIP3    H126053   0.810   2.552   1.041
 1546TIP3    H226054   0.880   2.559   0.907
 1547TIP3   OH226055   6.152   3.815  15.337
 1547TIP3    H126056   6.084   3.752  15.312
 1547TIP3    H226057   6.229   3.788  15.287
 1548TIP3   OH226058   3.083   2.533   4.126
 1548TIP3    H126059   3.010   2.540   4.064
 1548TIP3    H226060   3.050   2.479   4.197
 1549TIP3   OH226061   3.321   0.736  14.522
 1549TIP3    H126062   3.322   0.669  14.590
 1549TIP3    H226063   3.238   0.721  14.475
 1550TIP3   OH226064   0.727   3.871   0.099
 1550TIP3    H126065   0.724   3.788   0.050
 1550TIP3    H226066   0.792   3.923   0.052
 1551TIP3   OH226067   2.304   5.534  13.876
 1551TIP3    H126068   2.258   5.476  13.936
 1551TIP3    H226069   2.348   5.598  13.932
 1552TIP3   OH226070   0.265   0.317  15.741
 1552TIP3    H126071   0.260   0.407  15.775
 1552TIP3    H226072   0.353   0.311  15.704
 1553TIP3   OH226073   1.484   2.842   0.567
 1553TIP3    H126074   1.537   2.833   0.487
 1553TIP3    H226075   1.394   2.847   0.536
 1554TIP3   OH226076   6.537   6.462   3.656
 1554TIP3    H126077   6.605   6.526   3.675
 1554TIP3    H226078   6.546   6.396   3.724
 1555TIP3   OH226079   3.326   1.124  11.583
 1555TIP3    H126080   3.279   1.189  11.636
 1555TIP3    H226081   3.260   1.092  11.521
 1556TIP3   OH226082   1.955   5.677   5.419
 1556TIP3    H126083   1.980   5.740   5.486
 1556TIP3    H226084   1.919   5.602   5.468
 1557TIP3   OH226085   5.999   0.632   5.003
 1557TIP3    H126086   5.943   0.554   5.008
 1557TIP3    H226087   5.942   0.699   4.966
 1558TIP3   OH226088   2.504   5.605   5.406
 1558TIP3    H126089   2.539   5.674   5.463
 1558TIP3    H226090   2.418   5.637   5.381
 1559TIP3   OH226091   5.003   2.745   1.672
 1559TIP3    H126092   4.997   2.700   1.588
 1559TIP3    H226093   4.932   2.708   1.725
 1560TIP3   OH226094   1.697   6.455  16.488
 1560TIP3    H126095   1.684   6.477  16.396
 1560TIP3    H226096   1.693   6.359  16.491
 1561TIP3   OH226097   3.469   3.983   5.719
 1561TIP3    H126098   3.426   3.902   5.746
 1561TIP3    H226099   3.478   4.034   5.799
 1562TIP3   OH226100   6.702   6.689   4.292
 1562TIP3    H126101   6.725   6.710   4.382
 1562TIP3    H226102   6.784   6.699   4.243
 1563TIP3   OH226103   3.983   0.023  17.184
 1563TIP3    H126104   4.012   0.050  17.271
 1563TIP3    H226105   4.036   0.074  17.123
 1564TIP3   OH226106   1.729   2.420  13.152
 1564TIP3    H126107   1.771   2.338  13.126
 1564TIP3    H226108   1.726   2.472  13.071
 1565TIP3   OH226109   5.113   4.443   0.851
 1565TIP3    H126110   5.105   4.408   0.762
 1565TIP3    H226111   5.107   4.538   0.840
 1566TIP3   OH226112   3.281   2.249   3.761
 1566TIP3    H126113   3.254   2.324   3.814
 1566TIP3    H226114   3.352   2.282   3.706
 1567TIP3   OH226115   2.157   0.256   1.852
 1567TIP3    H126116   2.131   0.320   1.786
 1567TIP3    H226117   2.102   0.179   1.834
 1568TIP3   OH226118   2.064   4.105   3.274
 1568TIP3    H126119   2.147   4.148   3.297
 1568TIP3    H226120   2.054   4.037   3.340
 1569TIP3   OH226121   3.549   4.247  12.984
 1569TIP3    H126122   3.538   4.280  13.073
 1569TIP3    H226123   3.637   4.210  12.983
 1570TIP3   OH226124   4.293   2.731  12.967
 1570TIP3    H126125   4.235   2.759  12.896
 1570TIP3    H226126   4.292   2.804  13.029
 1571TIP3   OH226127   6.606   4.025   4.161
 1571TIP3    H126128   6.577   4.076   4.085
 1571TIP3    H226129   6.541   4.045   4.229
 1572TIP3   OH226130   2.555   4.147  16.541
 1572TIP3    H126131   2.571   4.073  16.482
 1572TIP3    H226132   2.638   4.196  16.540
 1573TIP3   OH226133   4.385   5.757  16.220
 1573TIP3    H126134   4.373   5.673  16.264
 1573TIP3    H226135   4.478   5.760  16.197
 1574TIP3   OH226136   6.772   5.714  13.399
 1574TIP3    H126137   6.814   5.791  13.436
 1574TIP3    H226138   6.805   5.640  13.450
 1575TIP3   OH226139   0.342   2.597   2.257
 1575TIP3    H126140   0.274   2.609   2.191
 1575TIP3    H226141   0.378   2.685   2.270
 1576TIP3   OH226142   1.978   6.762  16.352
 1576TIP3    H126143   2.048   6.827  16.344
 1576TIP3    H226144   2.023   6.679  16.361
 1577TIP3   OH226145   3.914   2.565   3.720
 1577TIP3    H126146   3.949   2.614   3.645
 1577TIP3    H226147   3.972   2.587   3.793
 1578TIP3   OH226148   1.580   3.153  12.803
 1578TIP3    H126149   1.565   3.247  12.790
 1578TIP3    H226150   1.643   3.130  12.734
 1579TIP3   OH226151   4.546   4.857   3.796
 1579TIP3    H126152   4.512   4.814   3.718
 1579TIP3    H226153   4.615   4.798   3.828
 1580TIP3   OH226154   1.390   3.953  11.143
 1580TIP3    H126155   1.442   3.964  11.063
 1580TIP3    H226156   1.386   4.040  11.181
 1581TIP3   OH226157   6.591   1.187  15.143
 1581TIP3    H126158   6.605   1.151  15.055
 1581TIP3    H226159   6.556   1.113  15.193
 1582TIP3   OH226160   6.154   6.271   5.060
 1582TIP3    H126161   6.080   6.325   5.086
 1582TIP3    H226162   6.117   6.206   5.000
 1583TIP3   OH226163   2.269   1.186   4.470
 1583TIP3    H126164   2.249   1.228   4.386
 1583TIP3    H226165   2.238   1.096   4.461
 1584TIP3   OH226166   3.522   0.543  10.638
 1584TIP3    H126167   3.617   0.546  10.652
 1584TIP3    H226168   3.505   0.613  10.576
 1585TIP3   OH226169   3.483   3.815  14.242
 1585TIP3    H126170   3.514   3.784  14.327
 1585TIP3    H226171   3.558   3.862  14.205
 1586TIP3   OH226172   1.403   6.739  13.113
 1586TIP3    H126173   1.330   6.688  13.079
 1586TIP3    H226174   1.414   6.709  13.203
 1587TIP3   OH226175   0.064   5.849   2.178
 1587TIP3    H126176   0.057   5.793   2.101
 1587TIP3    H226177   0.032   5.934   2.149
 1588TIP3   OH226178   3.200   2.505   2.253
 1588TIP3    H126179   3.279   2.497   2.200
 1588TIP3    H226180   3.180   2.599   2.251
 1589TIP3   OH226181   5.275   3.836   3.836
 1589TIP3    H126182   5.311   3.911   3.788
 1589TIP3    H226183   5.346   3.772   3.838
 1590TIP3   OH226184   6.724   5.611   4.009
 1590TIP3    H126185   6.725   5.636   3.917
 1590TIP3    H226186   6.798   5.551   4.019
 1591TIP3   OH226187   3.712   0.795  15.274
 1591TIP3    H126188   3.708   0.740  15.196
 1591TIP3    H226189   3.804   0.794  15.300
 1592TIP3   OH226190   5.455   4.568   3.499
 1592TIP3    H126191   5.476   4.594   3.589
 1592TIP3    H226192   5.468   4.473   3.497
 1593TIP3   OH226193   1.255   1.465  13.657
 1593TIP3    H126194   1.256   1.418  13.740
 1593TIP3    H226195   1.294   1.550  13.678
 1594TIP3   OH226196   1.994   0.428   0.882
 1594TIP3    H126197   1.987   0.382   0.966
 1594TIP3    H226198   1.925   0.389   0.828
 1595TIP3   OH226199   1.428   5.714   3.657
 1595TIP3    H126200   1.504   5.737   3.603
 1595TIP3    H226201   1.450   5.746   3.745
 1596TIP3   OH226202   3.427   4.114  13.790
 1596TIP3    H126203   3.512   4.105  13.833
 1596TIP3    H226204   3.388   4.192  13.830
 1597TIP3   OH226205   6.724   6.681  15.044
 1597TIP3    H126206   6.772   6.715  14.968
 1597TIP3    H226207   6.672   6.756  15.074
 1598TIP3   OH226208   4.453   6.299  11.506
 1598TIP3    H126209   4.543   6.325  11.523
 1598TIP3    H226210   4.458   6.206  11.485
 1599TIP3   OH226211   3.945   0.649   3.611
 1599TIP3    H126212   3.906   0.644   3.698
 1599TIP3    H226213   3.890   0.712   3.564
 1600TIP3   OH226214   5.490   5.474  12.037
 1600TIP3    H126215   5.427   5.470  11.965
 1600TIP3    H226216   5.542   5.552  12.018
 1601TIP3   OH226217   5.971   2.880  16.597
 1601TIP3    H126218   6.003   2.909  16.511
 1601TIP3    H226219   5.937   2.792  16.581
 1602TIP3   OH226220   5.256   3.414   1.801
 1602TIP3    H126221   5.332   3.453   1.757
 1602TIP3    H226222   5.203   3.378   1.730
 1603TIP3   OH226223   0.548   6.397   6.238
 1603TIP3    H126224   0.596   6.477   6.218
 1603TIP3    H226225   0.579   6.372   6.325
 1604TIP3   OH226226   6.097   2.770   3.048
 1604TIP3    H126227   6.134   2.768   3.137
 1604TIP3    H226228   6.003   2.778   3.061
 1605TIP3   OH226229   0.252   2.622   2.717
 1605TIP3    H126230   0.224   2.613   2.808
 1605TIP3    H226231   0.343   2.651   2.723
 1606TIP3   OH226232   0.817   1.125  13.925
 1606TIP3    H126233   0.724   1.146  13.922
 1606TIP3    H226234   0.860   1.205  13.895
 1607TIP3   OH226235   6.066   1.357  16.460
 1607TIP3    H126236   6.058   1.386  16.370
 1607TIP3    H226237   6.159   1.336  16.471
 1608TIP3   OH226238   3.113   4.556   2.354
 1608TIP3    H126239   3.116   4.559   2.258
 1608TIP3    H226240   3.204   4.569   2.382
 1609TIP3   OH226241   6.719   6.324  12.747
 1609TIP3    H126242   6.727   6.343  12.840
 1609TIP3    H226243   6.809   6.315  12.716
 1610TIP3   OH226244   6.672   5.693  15.934
 1610TIP3    H126245   6.637   5.610  15.967
 1610TIP3    H226246   6.764   5.676  15.918
 1611TIP3   OH226247   1.282   5.814   0.174
 1611TIP3    H126248   1.371   5.794   0.202
 1611TIP3    H226249   1.250   5.733   0.135
 1612TIP3   OH226250   5.670   1.961  10.715
 1612TIP3    H126251   5.582   1.988  10.741
 1612TIP3    H226252   5.666   1.865  10.714
 1613TIP3   OH226253   5.681   3.129  15.303
 1613TIP3    H126254   5.604   3.074  15.317
 1613TIP3    H226255   5.662   3.210  15.350
 1614TIP3   OH226256   2.665   2.490  13.591
 1614TIP3    H126257   2.667   2.394  13.594
 1614TIP3    H226258   2.624   2.516  13.673
 1615TIP3   OH226259   1.402   2.472  12.108
 1615TIP3    H126260   1.426   2.509  12.193
 1615TIP3    H226261   1.340   2.535  12.071
 1616TIP3   OH226262   1.295   1.605  13.973
 1616TIP3    H126263   1.263   1.520  14.006
 1616TIP3    H226264   1.329   1.649  14.050
 1617TIP3   OH226265   5.206   3.094  14.314
 1617TIP3    H126266   5.224   3.187  14.306
 1617TIP3    H226267   5.269   3.052  14.255
 1618TIP3   OH226268   4.525   0.763  15.387
 1618TIP3    H126269   4.593   0.747  15.322
 1618TIP3    H226270   4.543   0.700  15.457
 1619TIP3   OH226271   0.396   3.026   1.502
 1619TIP3    H126272   0.371   3.115   1.477
 1619TIP3    H226273   0.474   3.036   1.555
 1620TIP3   OH226274   2.900   4.645   1.015
 1620TIP3    H126275   2.877   4.660   1.107
 1620TIP3    H226276   2.987   4.605   1.019
 1621TIP3   OH226277   6.499   1.960   1.566
 1621TIP3    H126278   6.566   2.028   1.576
 1621TIP3    H226279   6.542   1.890   1.519
 1622TIP3   OH226280   0.545   1.585   0.574
 1622TIP3    H126281   0.559   1.565   0.666
 1622TIP3    H226282   0.632   1.607   0.541
 1623TIP3   OH226283   5.782   3.779   4.942
 1623TIP3    H126284   5.849   3.844   4.959
 1623TIP3    H226285   5.728   3.779   5.021
 1624TIP3   OH226286   4.939   2.426  12.698
 1624TIP3    H126287   4.844   2.437  12.708
 1624TIP3    H226288   4.954   2.440  12.604
 1625TIP3   OH226289   3.430   2.603  15.598
 1625TIP3    H126290   3.351   2.608  15.546
 1625TIP3    H226291   3.418   2.669  15.667
 1626TIP3   OH226292   5.244   0.902  10.753
 1626TIP3    H126293   5.309   0.972  10.744
 1626TIP3    H226294   5.282   0.828  10.706
 1627TIP3   OH226295   5.561   1.386   5.027
 1627TIP3    H126296   5.647   1.351   5.006
 1627TIP3    H226297   5.523   1.408   4.942
 1628TIP3   OH226298   0.314   3.720  16.190
 1628TIP3    H126299   0.363   3.650  16.233
 1628TIP3    H226300   0.235   3.730  16.244
 1629TIP3   OH226301   1.265   1.324   3.442
 1629TIP3    H126302   1.176   1.288   3.435
 1629TIP3    H226303   1.278   1.370   3.359
 1630TIP3   OH226304   1.938   0.023   1.742
 1630TIP3    H126305   1.982   0.029   1.657
 1630TIP3    H226306   1.904  -0.066   1.746
 1631TIP3   OH226307   3.739   0.679  15.037
 1631TIP3    H126308   3.817   0.714  14.994
 1631TIP3    H226309   3.691   0.635  14.966
 1632TIP3   OH226310   3.684   4.292  11.707
 1632TIP3    H126311   3.701   4.219  11.648
 1632TIP3    H226312   3.748   4.282  11.777
 1633TIP3   OH226313   1.460   6.128  17.199
 1633TIP3    H126314   1.488   6.218  17.217
 1633TIP3    H226315   1.398   6.137  17.126
 1634TIP3   OH226316   3.711   5.936  13.125
 1634TIP3    H126317   3.690   6.001  13.192
 1634TIP3    H226318   3.768   5.982  13.064
 1635TIP3   OH226319   3.274   0.771   6.320
 1635TIP3    H126320   3.320   0.853   6.339
 1635TIP3    H226321   3.273   0.725   6.404
 1636TIP3   OH226322   4.191   6.523   2.334
 1636TIP3    H126323   4.256   6.556   2.272
 1636TIP3    H226324   4.182   6.594   2.398
 1637TIP3   OH226325   2.116   0.575  11.523
 1637TIP3    H126326   2.200   0.543  11.556
 1637TIP3    H226327   2.138   0.655  11.475
 1638TIP3   OH226328   0.811   5.030  16.569
 1638TIP3    H126329   0.740   5.063  16.514
 1638TIP3    H226330   0.798   5.071  16.654
 1639TIP3   OH226331   1.348   0.795   0.019
 1639TIP3    H126332   1.342   0.781   0.113
 1639TIP3    H226333   1.357   0.706  -0.018
 1640TIP3   OH226334   0.056   2.860  17.084
 1640TIP3    H126335   0.049   2.856  17.180
 1640TIP3    H226336   0.144   2.825  17.066
 1641TIP3   OH226337   5.825   3.863   6.472
 1641TIP3    H126338   5.747   3.823   6.434
 1641TIP3    H226339   5.798   3.953   6.492
 1642TIP3   OH226340   5.841   6.234   2.571
 1642TIP3    H126341   5.916   6.181   2.545
 1642TIP3    H226342   5.867   6.273   2.655
 1643TIP3   OH226343   5.785   5.746   0.975
 1643TIP3    H126344   5.761   5.683   0.907
 1643TIP3    H226345   5.772   5.831   0.934
 1644TIP3   OH226346   1.702   0.970   4.222
 1644TIP3    H126347   1.750   0.891   4.245
 1644TIP3    H226348   1.761   1.017   4.162
 1645TIP3   OH226349   3.162   5.904   5.614
 1645TIP3    H126350   3.093   5.862   5.665
 1645TIP3    H226351   3.117   5.942   5.539
 1646TIP3   OH226352   3.578   4.821   1.583
 1646TIP3    H126353   3.568   4.749   1.645
 1646TIP3    H226354   3.613   4.780   1.504
 1647TIP3   OH226355   1.068   0.096  17.051
 1647TIP3    H126356   1.043   0.050  17.131
 1647TIP3    H226357   1.006   0.170  17.046
 1648TIP3   OH226358   4.592   4.184  11.433
 1648TIP3    H126359   4.498   4.183  11.416
 1648TIP3    H226360   4.632   4.153  11.352
 1649TIP3   OH226361   1.205   1.540  15.389
 1649TIP3    H126362   1.215   1.472  15.457
 1649TIP3    H226363   1.111   1.545  15.374
 1650TIP3   OH226364   0.008   3.207   5.775
 1650TIP3    H126365  -0.018   3.143   5.708
 1650TIP3    H226366  -0.066   3.267   5.779
 1651TIP3   OH226367   6.221   2.461   0.570
 1651TIP3    H126368   6.266   2.496   0.493
 1651TIP3    H226369   6.152   2.406   0.535
 1652TIP3   OH226370   6.749   0.647  15.642
 1652TIP3    H126371   6.827   0.687  15.679
 1652TIP3    H226372   6.692   0.631  15.717
 1653TIP3   OH226373   3.813   0.400  12.874
 1653TIP3    H126374   3.873   0.325  12.868
 1653TIP3    H226375   3.813   0.436  12.785
 1654TIP3   OH226376   0.777   4.503   2.430
 1654TIP3    H126377   0.831   4.581   2.418
 1654TIP3    H226378   0.688   4.537   2.443
 1655TIP3   OH226379   5.513   2.432  12.903
 1655TIP3    H126380   5.473   2.501  12.956
 1655TIP3    H226381   5.535   2.474  12.821
 1656TIP3   OH226382   2.432   4.256   6.602
 1656TIP3    H126383   2.514   4.253   6.651
 1656TIP3    H226384   2.403   4.165   6.599
 1657TIP3   OH226385   1.183   6.596  11.387
 1657TIP3    H126386   1.251   6.544  11.344
 1657TIP3    H226387   1.110   6.596  11.324
 1658TIP3   OH226388   0.306   5.901   2.540
 1658TIP3    H126389   0.297   5.827   2.601
 1658TIP3    H226390   0.341   5.972   2.594
 1659TIP3   OH226391   4.706   3.031  12.456
 1659TIP3    H126392   4.672   3.037  12.545
 1659TIP3    H226393   4.633   2.997  12.404
 1660TIP3   OH226394   0.286   2.119  11.274
 1660TIP3    H126395   0.313   2.208  11.248
 1660TIP3    H226396   0.251   2.081  11.193
 1661TIP3   OH226397   5.276   1.223   0.127
 1661TIP3    H126398   5.349   1.166   0.101
 1661TIP3    H226399   5.249   1.188   0.212
 1662TIP3   OH226400   5.204   0.185  12.234
 1662TIP3    H126401   5.285   0.139  12.254
 1662TIP3    H226402   5.150   0.119  12.190
 1663TIP3   OH226403   3.505   1.125  13.042
 1663TIP3    H126404   3.463   1.130  13.128
 1663TIP3    H226405   3.549   1.040  13.041
 1664TIP3   OH226406   5.437   4.892   5.789
 1664TIP3    H126407   5.431   4.862   5.880
 1664TIP3    H226408   5.501   4.963   5.791
 1665TIP3   OH226409   5.830   1.955   0.282
 1665TIP3    H126410   5.747   1.952   0.234
 1665TIP3    H226411   5.885   2.013   0.230
 1666TIP3   OH226412   2.199   6.627   6.303
 1666TIP3    H126413   2.244   6.709   6.324
 1666TIP3    H226414   2.166   6.595   6.387
 1667TIP3   OH226415   2.719   5.706  16.503
 1667TIP3    H126416   2.642   5.715  16.559
 1667TIP3    H226417   2.714   5.615  16.471
 1668TIP3   OH226418   1.801   3.814  12.474
 1668TIP3    H126419   1.873   3.875  12.487
 1668TIP3    H226420   1.730   3.867  12.439
 1669TIP3   OH226421   4.465   2.973   5.797
 1669TIP3    H126422   4.538   2.937   5.848
 1669TIP3    H226423   4.407   3.012   5.863
 1670TIP3   OH226424   5.377   3.589  11.614
 1670TIP3    H126425   5.351   3.513  11.666
 1670TIP3    H226426   5.351   3.664  11.666
 1671TIP3   OH226427   5.529   5.689   0.033
 1671TIP3    H126428   5.490   5.645  -0.043
 1671TIP3    H226429   5.597   5.629   0.063
 1672TIP3   OH226430   2.588   0.298   4.617
 1672TIP3    H126431   2.644   0.330   4.545
 1672TIP3    H226432   2.590   0.369   4.681
 1673TIP3   OH226433   4.842   3.449   1.805
 1673TIP3    H126434   4.914   3.402   1.764
 1673TIP3    H226435   4.883   3.499   1.876
 1674TIP3   OH226436   0.813   5.155  13.577
 1674TIP3    H126437   0.762   5.134  13.656
 1674TIP3    H226438   0.825   5.249  13.581
 1675TIP3   OH226439   3.509   1.089   3.197
 1675TIP3    H126440   3.581   1.147   3.221
 1675TIP3    H226441   3.543   1.038   3.124
 1676TIP3   OH226442   0.868   6.265  12.907
 1676TIP3    H126443   0.794   6.224  12.952
 1676TIP3    H226444   0.927   6.291  12.977
 1677TIP3   OH226445   0.932   3.997   5.700
 1677TIP3    H126446   0.881   3.990   5.780
 1677TIP3    H226447   0.904   3.922   5.647
 1678TIP3   OH226448   3.380   6.186   3.498
 1678TIP3    H126449   3.359   6.238   3.421
 1678TIP3    H226450   3.301   6.190   3.552
 1679TIP3   OH226451   0.177   1.853  11.324
 1679TIP3    H126452   0.224   1.936  11.313
 1679TIP3    H226453   0.202   1.801  11.247
 1680TIP3   OH226454   1.324   0.419   6.167
 1680TIP3    H126455   1.340   0.395   6.258
 1680TIP3    H226456   1.309   0.336   6.122
 1681TIP3   OH226457   5.550   3.087  12.154
 1681TIP3    H126458   5.586   3.167  12.116
 1681TIP3    H226459   5.467   3.073  12.108
 1682TIP3   OH226460   1.928   2.504   1.297
 1682TIP3    H126461   1.858   2.568   1.311
 1682TIP3    H226462   1.950   2.472   1.385
 1683TIP3   OH226463   4.108   1.241   5.927
 1683TIP3    H126464   4.030   1.296   5.933
 1683TIP3    H226465   4.156   1.260   6.007
 1684TIP3   OH226466   2.206   0.685  16.130
 1684TIP3    H126467   2.285   0.632  16.120
 1684TIP3    H226468   2.235   0.761  16.182
 1685TIP3   OH226469   5.088   2.996  13.751
 1685TIP3    H126470   5.179   3.027  13.751
 1685TIP3    H226471   5.093   2.908  13.788
 1686TIP3   OH226472   2.143   2.136   2.632
 1686TIP3    H126473   2.078   2.204   2.652
 1686TIP3    H226474   2.220   2.184   2.602
 1687TIP3   OH226475   0.130   2.526  13.876
 1687TIP3    H126476   0.199   2.544  13.813
 1687TIP3    H226477   0.156   2.574  13.955
 1688TIP3   OH226478   6.694   4.998   3.035
 1688TIP3    H126479   6.771   4.999   2.978
 1688TIP3    H226480   6.700   5.079   3.085
 1689TIP3   OH226481   0.848   2.975   3.008
 1689TIP3    H126482   0.826   2.950   3.098
 1689TIP3    H226483   0.836   3.070   3.006
 1690TIP3   OH226484   6.506   0.176  12.546
 1690TIP3    H126485   6.455   0.202  12.623
 1690TIP3    H226486   6.558   0.253  12.524
 1691TIP3   OH226487   1.432   3.629  13.483
 1691TIP3    H126488   1.359   3.686  13.508
 1691TIP3    H226489   1.442   3.570  13.558
 1692TIP3   OH226490   6.483   2.883  14.974
 1692TIP3    H126491   6.432   2.867  15.053
 1692TIP3    H226492   6.528   2.801  14.957
 1693TIP3   OH226493   3.965   0.629  13.110
 1693TIP3    H126494   3.979   0.713  13.154
 1693TIP3    H226495   3.875   0.605  13.132
 1694TIP3   OH226496   5.675   4.669   0.252
 1694TIP3    H126497   5.597   4.627   0.288
 1694TIP3    H226498   5.659   4.674   0.158
 1695TIP3   OH226499   2.059   5.558   5.198
 1695TIP3    H126500   2.098   5.481   5.238
 1695TIP3    H226501   2.002   5.594   5.266
 1696TIP3   OH226502   2.300   6.637  13.712
 1696TIP3    H126503   2.277   6.666  13.801
 1696TIP3    H226504   2.345   6.712  13.673
 1697TIP3   OH226505   1.516   3.217   2.860
 1697TIP3    H126506   1.561   3.270   2.794
 1697TIP3    H226507   1.562   3.133   2.859
 1698TIP3   OH226508   3.836   6.387   4.526
 1698TIP3    H126509   3.842   6.292   4.536
 1698TIP3    H226510   3.790   6.417   4.604
 1699TIP3   OH226511   1.199   4.633   3.238
 1699TIP3    H126512   1.238   4.546   3.229
 1699TIP3    H226513   1.117   4.618   3.285
 1700TIP3   OH226514   6.136   0.610  10.946
 1700TIP3    H126515   6.188   0.660  10.884
 1700TIP3    H226516   6.053   0.594  10.900
 1701TIP3   OH226517   5.547   5.388  15.087
 1701TIP3    H126518   5.579   5.324  15.024
 1701TIP3    H226519   5.469   5.348  15.125
 1702TIP3   OH226520   2.884   4.964  13.245
 1702TIP3    H126521   2.863   4.975  13.338
 1702TIP3    H226522   2.920   4.876  13.239
 1703TIP3   OH226523   6.193   6.635  14.173
 1703TIP3    H126524   6.268   6.649  14.116
 1703TIP3    H226525   6.226   6.575  14.240
 1704TIP3   OH226526   4.781   6.511   3.677
 1704TIP3    H126527   4.813   6.522   3.587
 1704TIP3    H226528   4.698   6.463   3.667
 1705TIP3   OH226529   5.964   6.476   1.434
 1705TIP3    H126530   5.959   6.570   1.452
 1705TIP3    H226531   5.874   6.445   1.443
 1706TIP3   OH226532   2.086   4.732  11.468
 1706TIP3    H126533   2.046   4.758  11.551
 1706TIP3    H226534   2.061   4.801  11.406
 1707TIP3   OH226535   5.456   1.168  16.595
 1707TIP3    H126536   5.360   1.161  16.595
 1707TIP3    H226537   5.478   1.199  16.682
 1708TIP3   OH226538   2.682   4.663   3.716
 1708TIP3    H126539   2.742   4.706   3.777
 1708TIP3    H226540   2.706   4.570   3.721
 1709TIP3   OH226541   3.670   2.174   4.927
 1709TIP3    H126542   3.635   2.123   4.853
 1709TIP3    H226543   3.634   2.131   5.005
 1710TIP3   OH226544   1.932   4.971   5.043
 1710TIP3    H126545   1.848   4.926   5.050
 1710TIP3    H226546   1.990   4.907   5.000
 1711TIP3   OH226547   5.589   2.632  11.723
 1711TIP3    H126548   5.677   2.594  11.723
 1711TIP3    H226549   5.585   2.683  11.642
 1712TIP3   OH226550   5.525   6.784  11.512
 1712TIP3    H126551   5.437   6.767  11.546
 1712TIP3    H226552   5.517   6.770  11.418
 1713TIP3   OH226553   0.461   6.510   2.232
 1713TIP3    H126554   0.437   6.456   2.158
 1713TIP3    H226555   0.383   6.563   2.250
 1714TIP3   OH226556   5.566   4.922   4.979
 1714TIP3    H126557   5.492   4.920   5.040
 1714TIP3    H226558   5.619   4.996   5.007
 1715TIP3   OH226559   1.427   0.317   1.023
 1715TIP3    H126560   1.492   0.372   0.980
 1715TIP3    H226561   1.408   0.247   0.960
 1716TIP3   OH226562   4.303   1.833  16.979
 1716TIP3    H126563   4.309   1.832  16.883
 1716TIP3    H226564   4.380   1.881  17.007
 1717TIP3   OH226565   4.018   0.394   3.889
 1717TIP3    H126566   4.059   0.318   3.847
 1717TIP3    H226567   4.059   0.398   3.976
 1718TIP3   OH226568   3.802   4.283  10.852
 1718TIP3    H126569   3.731   4.339  10.881
 1718TIP3    H226570   3.881   4.333  10.867
 1719TIP3   OH226571   6.418   4.574  13.754
 1719TIP3    H126572   6.323   4.588  13.762
 1719TIP3    H226573   6.452   4.656  13.718
 1720TIP3   OH226574   1.047   2.253  10.972
 1720TIP3    H126575   1.077   2.264  10.882
 1720TIP3    H226576   1.005   2.167  10.973
 1721TIP3   OH226577   2.193   5.129  13.132
 1721TIP3    H126578   2.229   5.100  13.048
 1721TIP3    H226579   2.118   5.182  13.108
 1722TIP3   OH226580   2.892   5.079   3.402
 1722TIP3    H126581   2.964   5.105   3.344
 1722TIP3    H226582   2.899   4.984   3.409
 1723TIP3   OH226583   4.098   0.531  11.923
 1723TIP3    H126584   4.089   0.624  11.940
 1723TIP3    H226585   4.175   0.524  11.867
 1724TIP3   OH226586   3.657   4.830   3.096
 1724TIP3    H126587   3.665   4.754   3.153
 1724TIP3    H226588   3.594   4.803   3.029
 1725TIP3   OH226589   1.182   3.513  12.202
 1725TIP3    H126590   1.162   3.556  12.285
 1725TIP3    H226591   1.100   3.518  12.152
 1726TIP3   OH226592   0.459   6.780  12.819
 1726TIP3    H126593   0.408   6.808  12.743
 1726TIP3    H226594   0.538   6.834  12.816
 1727TIP3   OH226595   3.473   2.451  15.251
 1727TIP3    H126596   3.518   2.367  15.263
 1727TIP3    H226597   3.396   2.445  15.308
 1728TIP3   OH226598   3.099   1.890  14.552
 1728TIP3    H126599   3.163   1.819  14.546
 1728TIP3    H226600   3.129   1.956  14.489
 1729TIP3   OH226601   0.373   4.023  12.613
 1729TIP3    H126602   0.332   3.941  12.641
 1729TIP3    H226603   0.412   4.059  12.693
 1730TIP3   OH226604   2.136   3.854  12.537
 1730TIP3    H126605   2.172   3.784  12.482
 1730TIP3    H226606   2.186   3.932  12.511
 1731TIP3   OH226607   4.884   2.647  16.748
 1731TIP3    H126608   4.915   2.655  16.657
 1731TIP3    H226609   4.842   2.731  16.766
 1732TIP3   OH226610   2.645   6.068   4.431
 1732TIP3    H126611   2.627   5.974   4.437
 1732TIP3    H226612   2.558   6.109   4.430
 1733TIP3   OH226613   2.427   3.266   3.660
 1733TIP3    H126614   2.482   3.307   3.726
 1733TIP3    H226615   2.462   3.177   3.652
 1734TIP3   OH226616   0.301   0.110   4.782
 1734TIP3    H126617   0.360   0.148   4.717
 1734TIP3    H226618   0.353   0.043   4.826
 1735TIP3   OH226619   5.281   3.160  11.769
 1735TIP3    H126620   5.301   3.080  11.817
 1735TIP3    H226621   5.364   3.206  11.762
 1736TIP3   OH226622   4.859   0.637  14.587
 1736TIP3    H126623   4.872   0.722  14.546
 1736TIP3    H226624   4.936   0.586  14.562
 1737TIP3   OH226625   4.234   5.809  13.072
 1737TIP3    H126626   4.158   5.777  13.120
 1737TIP3    H226627   4.249   5.897  13.106
 1738TIP3   OH226628   5.009   5.807  11.998
 1738TIP3    H126629   4.979   5.861  11.925
 1738TIP3    H226630   5.104   5.799  11.984
 1739TIP3   OH226631   0.588   3.436   0.168
 1739TIP3    H126632   0.547   3.463   0.251
 1739TIP3    H226633   0.615   3.346   0.183
 1740TIP3   OH226634   1.559   1.819   1.230
 1740TIP3    H126635   1.487   1.776   1.277
 1740TIP3    H226636   1.638   1.792   1.277
 1741TIP3   OH226637   1.895   3.666  16.791
 1741TIP3    H126638   1.846   3.622  16.721
 1741TIP3    H226639   1.950   3.730  16.746
 1742TIP3   OH226640   3.324   1.238   2.290
 1742TIP3    H126641   3.300   1.258   2.381
 1742TIP3    H226642   3.243   1.203   2.252
 1743TIP3   OH226643   3.705   2.899  12.742
 1743TIP3    H126644   3.780   2.896  12.682
 1743TIP3    H226645   3.679   2.807  12.752
 1744TIP3   OH226646   2.110   3.540   3.780
 1744TIP3    H126647   2.157   3.562   3.860
 1744TIP3    H226648   2.064   3.459   3.800
 1745TIP3   OH226649   1.684   3.693  14.754
 1745TIP3    H126650   1.688   3.705  14.659
 1745TIP3    H226651   1.662   3.780  14.788
 1746TIP3   OH226652   4.290   6.754  14.366
 1746TIP3    H126653   4.261   6.684  14.425
 1746TIP3    H226654   4.238   6.740  14.286
 1747TIP3   OH226655   2.243   3.203  17.230
 1747TIP3    H126656   2.256   3.119  17.273
 1747TIP3    H226657   2.318   3.214  17.173
 1748TIP3   OH226658   3.311   3.325   1.497
 1748TIP3    H126659   3.247   3.325   1.426
 1748TIP3    H226660   3.390   3.287   1.458
 1749TIP3   OH226661   4.433   1.355   1.543
 1749TIP3    H126662   4.382   1.274   1.545
 1749TIP3    H226663   4.429   1.383   1.451
 1750TIP3   OH226664   4.518   3.501   5.363
 1750TIP3    H126665   4.598   3.545   5.393
 1750TIP3    H226666   4.513   3.523   5.270
 1751TIP3   OH226667   3.818   5.417   3.566
 1751TIP3    H126668   3.768   5.337   3.581
 1751TIP3    H226669   3.863   5.433   3.649
 1752TIP3   OH226670   0.158   4.146   1.492
 1752TIP3    H126671   0.094   4.207   1.454
 1752TIP3    H226672   0.209   4.199   1.553
 1753TIP3   OH226673   6.643   1.132  13.110
 1753TIP3    H126674   6.692   1.210  13.137
 1753TIP3    H226675   6.635   1.140  13.015
 1754TIP3   OH226676   1.319   1.504  10.857
 1754TIP3    H126677   1.243   1.503  10.798
 1754TIP3    H226678   1.393   1.524  10.799
 1755TIP3   OH226679   5.730   5.844   1.376
 1755TIP3    H126680   5.797   5.912   1.362
 1755TIP3    H226681   5.727   5.832   1.471
 1756TIP3   OH226682   6.657   6.410   1.959
 1756TIP3    H126683   6.650   6.399   1.864
 1756TIP3    H226684   6.615   6.495   1.977
 1757TIP3   OH226685   3.745   2.832   0.395
 1757TIP3    H126686   3.651   2.815   0.405
 1757TIP3    H226687   3.751   2.927   0.386
 1758TIP3   OH226688   3.783   1.183  16.891
 1758TIP3    H126689   3.800   1.209  16.981
 1758TIP3    H226690   3.688   1.186  16.883
 1759TIP3   OH226691   5.092   3.506  13.809
 1759TIP3    H126692   5.159   3.500  13.878
 1759TIP3    H226693   5.009   3.511  13.857
 1760TIP3   OH226694   2.614   3.356   3.251
 1760TIP3    H126695   2.685   3.405   3.291
 1760TIP3    H226696   2.534   3.388   3.293
 1761TIP3   OH226697   1.270   1.585   4.098
 1761TIP3    H126698   1.316   1.545   4.024
 1761TIP3    H226699   1.184   1.543   4.098
 1762TIP3   OH226700   0.895   3.635  14.882
 1762TIP3    H126701   0.870   3.696  14.951
 1762TIP3    H226702   0.977   3.672  14.846
 1763TIP3   OH226703   4.534   0.547   2.733
 1763TIP3    H126704   4.529   0.621   2.673
 1763TIP3    H226705   4.547   0.471   2.676
 1764TIP3   OH226706   5.844   5.498  16.553
 1764TIP3    H126707   5.933   5.505  16.587
 1764TIP3    H226708   5.846   5.544  16.469
 1765TIP3   OH226709   6.065   5.002   0.393
 1765TIP3    H126710   6.107   4.980   0.310
 1765TIP3    H226711   5.971   4.990   0.376
 1766TIP3   OH226712   0.906   1.395  12.059
 1766TIP3    H126713   0.995   1.413  12.030
 1766TIP3    H226714   0.913   1.391  12.154
 1767TIP3   OH226715   5.025   0.557   1.928
 1767TIP3    H126716   5.060   0.636   1.969
 1767TIP3    H226717   5.014   0.581   1.836
 1768TIP3   OH226718   5.154   5.147  11.221
 1768TIP3    H126719   5.226   5.138  11.158
 1768TIP3    H226720   5.084   5.093  11.185
 1769TIP3   OH226721   1.917   4.418  11.406
 1769TIP3    H126722   1.998   4.417  11.355
 1769TIP3    H226723   1.889   4.510  11.405
 1770TIP3   OH226724   1.514   1.500   1.579
 1770TIP3    H126725   1.596   1.490   1.626
 1770TIP3    H226726   1.446   1.485   1.645
 1771TIP3   OH226727   1.239   4.514  15.309
 1771TIP3    H126728   1.295   4.528  15.233
 1771TIP3    H226729   1.214   4.421  15.303
 1772TIP3   OH226730   5.476   6.552  15.737
 1772TIP3    H126731   5.548   6.489  15.738
 1772TIP3    H226732   5.509   6.625  15.684
 1773TIP3   OH226733   2.468   3.137   3.124
 1773TIP3    H126734   2.423   3.124   3.207
 1773TIP3    H226735   2.545   3.190   3.147
 1774TIP3   OH226736   4.149   1.200  15.953
 1774TIP3    H126737   4.170   1.293  15.948
 1774TIP3    H226738   4.201   1.160  15.884
 1775TIP3   OH226739   4.828   1.782   1.846
 1775TIP3    H126740   4.806   1.768   1.939
 1775TIP3    H226741   4.760   1.842   1.815
 1776TIP3   OH226742   2.919   2.276  14.451
 1776TIP3    H126743   2.850   2.332  14.485
 1776TIP3    H226744   2.999   2.329  14.457
 1777TIP3   OH226745   4.136   5.957   0.312
 1777TIP3    H126746   4.196   5.940   0.240
 1777TIP3    H226747   4.146   5.881   0.370
 1778TIP3   OH226748   1.369   5.396   6.181
 1778TIP3    H126749   1.381   5.489   6.165
 1778TIP3    H226750   1.312   5.393   6.259
 1779TIP3   OH226751   3.284   1.764   5.763
 1779TIP3    H126752   3.356   1.781   5.702
 1779TIP3    H226753   3.214   1.728   5.708
 1780TIP3   OH226754   3.091   4.360   4.416
 1780TIP3    H126755   3.124   4.394   4.499
 1780TIP3    H226756   3.093   4.265   4.427
 1781TIP3   OH226757   3.037   4.603  12.247
 1781TIP3    H126758   2.957   4.619  12.298
 1781TIP3    H226759   3.020   4.643  12.162
 1782TIP3   OH226760   3.150   5.909  12.025
 1782TIP3    H126761   3.221   5.849  12.002
 1782TIP3    H226762   3.071   5.865  11.995
 1783TIP3   OH226763   6.330   6.027  12.140
 1783TIP3    H126764   6.342   6.041  12.234
 1783TIP3    H226765   6.412   6.057  12.101
 1784TIP3   OH226766   5.097   5.943  15.576
 1784TIP3    H126767   5.173   5.918  15.523
 1784TIP3    H226768   5.128   5.933  15.666
 1785TIP3   OH226769   3.064   3.140  16.647
 1785TIP3    H126770   3.059   3.059  16.697
 1785TIP3    H226771   3.140   3.185  16.682
 1786TIP3   OH226772   5.573   0.154   3.901
 1786TIP3    H126773   5.649   0.107   3.866
 1786TIP3    H226774   5.505   0.143   3.834
 1787TIP3   OH226775   6.775   4.581   2.479
 1787TIP3    H126776   6.771   4.498   2.431
 1787TIP3    H226777   6.737   4.645   2.419
 1788TIP3   OH226778   6.634   5.097   1.759
 1788TIP3    H126779   6.626   5.091   1.855
 1788TIP3    H226780   6.649   5.007   1.730
 1789TIP3   OH226781   0.270   1.980   2.369
 1789TIP3    H126782   0.232   2.066   2.354
 1789TIP3    H226783   0.247   1.958   2.460
 1790TIP3   OH226784   4.403   2.964  12.623
 1790TIP3    H126785   4.456   3.007  12.690
 1790TIP3    H226786   4.456   2.970  12.544
 1791TIP3   OH226787   3.527   4.197   5.562
 1791TIP3    H126788   3.460   4.202   5.493
 1791TIP3    H226789   3.506   4.118   5.610
 1792TIP3   OH226790   2.302   2.844  12.988
 1792TIP3    H126791   2.327   2.751  12.989
 1792TIP3    H226792   2.231   2.850  13.051
 1793TIP3   OH226793   2.992   2.103  13.679
 1793TIP3    H126794   3.035   2.044  13.618
 1793TIP3    H226795   3.064   2.142  13.730
 1794TIP3   OH226796   6.585   3.236   5.454
 1794TIP3    H126797   6.571   3.160   5.511
 1794TIP3    H226798   6.564   3.205   5.366
 1795TIP3   OH226799   0.639   5.982   3.212
 1795TIP3    H126800   0.658   6.008   3.122
 1795TIP3    H226801   0.568   6.040   3.239
 1796TIP3   OH226802   0.778   6.072  14.409
 1796TIP3    H126803   0.734   6.035  14.332
 1796TIP3    H226804   0.825   6.149  14.376
 1797TIP3   OH226805   2.370   1.983  15.969
 1797TIP3    H126806   2.312   1.975  16.045
 1797TIP3    H226807   2.451   1.940  15.997
 1798TIP3   OH226808   5.614   5.616  13.357
 1798TIP3    H126809   5.680   5.657  13.301
 1798TIP3    H226810   5.549   5.685  13.372
 1799TIP3   OH226811   5.484   4.662   1.067
 1799TIP3    H126812   5.507   4.610   1.144
 1799TIP3    H226813   5.502   4.605   0.992
 1800TIP3   OH226814   0.616   3.622   3.475
 1800TIP3    H126815   0.686   3.586   3.529
 1800TIP3    H226816   0.626   3.580   3.390
 1801TIP3   OH226817   0.541   6.098  15.899
 1801TIP3    H126818   0.606   6.104  15.969
 1801TIP3    H226819   0.552   6.180  15.850
 1802TIP3   OH226820   5.117   0.928  11.527
 1802TIP3    H126821   5.084   0.891  11.609
 1802TIP3    H226822   5.109   0.856  11.464
 1803TIP3   OH226823   0.655   1.079  14.980
 1803TIP3    H126824   0.592   1.057  15.049
 1803TIP3    H226825   0.621   1.036  14.902
 1804TIP3   OH226826   6.370   4.266  15.671
 1804TIP3    H126827   6.439   4.203  15.648
 1804TIP3    H226828   6.357   4.317  15.591
 1805TIP3   OH226829   5.470   0.653  13.488
 1805TIP3    H126830   5.423   0.615  13.414
 1805TIP3    H226831   5.562   0.636  13.470
 1806TIP3   OH226832   5.796   5.653   3.757
 1806TIP3    H126833   5.794   5.736   3.710
 1806TIP3    H226834   5.782   5.677   3.849
 1807TIP3   OH226835   4.627   5.712  16.348
 1807TIP3    H126836   4.638   5.678  16.437
 1807TIP3    H226837   4.650   5.805  16.355
 1808TIP3   OH226838   0.851   2.378  14.615
 1808TIP3    H126839   0.942   2.357  14.633
 1808TIP3    H226840   0.805   2.295  14.624
 1809TIP3   OH226841   5.732   0.115  13.452
 1809TIP3    H126842   5.780   0.076  13.380
 1809TIP3    H226843   5.750   0.059  13.527
 1810TIP3   OH226844   4.419   4.062  10.812
 1810TIP3    H126845   4.437   3.986  10.866
 1810TIP3    H226846   4.367   4.120  10.868
 1811TIP3   OH226847   0.217   1.671  16.367
 1811TIP3    H126848   0.176   1.755  16.347
 1811TIP3    H226849   0.147   1.607  16.352
 1812TIP3   OH226850   3.356   1.456  17.138
 1812TIP3    H126851   3.357   1.436  17.232
 1812TIP3    H226852   3.334   1.549  17.134
 1813TIP3   OH226853   3.805   5.753   4.556
 1813TIP3    H126854   3.728   5.741   4.611
 1813TIP3    H226855   3.877   5.716   4.607
 1814TIP3   OH226856   4.321   5.542   4.275
 1814TIP3    H126857   4.396   5.531   4.217
 1814TIP3    H226858   4.299   5.635   4.269
 1815TIP3   OH226859   6.531   3.063   4.709
 1815TIP3    H126860   6.579   3.139   4.740
 1815TIP3    H226861   6.598   3.005   4.674
 1816TIP3   OH226862   6.516   4.675   5.718
 1816TIP3    H126863   6.435   4.637   5.684
 1816TIP3    H226864   6.498   4.768   5.724
 1817TIP3   OH226865   0.601   6.621   4.364
 1817TIP3    H126866   0.648   6.560   4.422
 1817TIP3    H226867   0.514   6.628   4.403
 1818TIP3   OH226868   6.196   1.241   0.392
 1818TIP3    H126869   6.132   1.174   0.418
 1818TIP3    H226870   6.209   1.293   0.471
 1819TIP3   OH226871   5.605   1.840  16.685
 1819TIP3    H126872   5.630   1.750  16.664
 1819TIP3    H226873   5.673   1.871  16.744
 1820TIP3   OH226874   4.937   1.314   4.796
 1820TIP3    H126875   5.030   1.289   4.797
 1820TIP3    H226876   4.899   1.259   4.726
 1821TIP3   OH226877   3.596   6.124  12.863
 1821TIP3    H126878   3.541   6.197  12.834
 1821TIP3    H226879   3.535   6.051  12.875
 1822TIP3   OH226880   3.334   1.106   4.164
 1822TIP3    H126881   3.255   1.144   4.203
 1822TIP3    H226882   3.301   1.041   4.103
 1823TIP3   OH226883   4.214   6.552  12.541
 1823TIP3    H126884   4.235   6.602  12.620
 1823TIP3    H226885   4.244   6.463  12.560
 1824TIP3   OH226886   5.236   3.060  12.656
 1824TIP3    H126887   5.273   3.141  12.620
 1824TIP3    H226888   5.149   3.086  12.687
 1825TIP3   OH226889   3.723   3.203   1.163
 1825TIP3    H126890   3.778   3.125   1.168
 1825TIP3    H226891   3.720   3.236   1.253
 1826TIP3   OH226892   4.941   3.896  10.781
 1826TIP3    H126893   4.957   3.844  10.702
 1826TIP3    H226894   4.848   3.882  10.800
 1827TIP3   OH226895   5.646   2.881  16.029
 1827TIP3    H126896   5.584   2.954  16.027
 1827TIP3    H226897   5.630   2.836  16.112
 1828TIP3   OH226898   2.635   2.636   0.759
 1828TIP3    H126899   2.704   2.701   0.740
 1828TIP3    H226900   2.624   2.641   0.854
 1829TIP3   OH226901   5.092   0.386   0.962
 1829TIP3    H126902   5.019   0.428   0.916
 1829TIP3    H226903   5.163   0.383   0.897
 1830TIP3   OH226904   2.636   1.727  13.873
 1830TIP3    H126905   2.692   1.792  13.916
 1830TIP3    H226906   2.655   1.736  13.780
 1831TIP3   OH226907   2.754   4.460   0.807
 1831TIP3    H126908   2.838   4.416   0.801
 1831TIP3    H226909   2.767   4.528   0.874
 1832TIP3   OH226910   4.341   1.754  15.822
 1832TIP3    H126911   4.270   1.810  15.852
 1832TIP3    H226912   4.323   1.740  15.729
 1833TIP3   OH226913   0.568   2.197   1.871
 1833TIP3    H126914   0.590   2.118   1.822
 1833TIP3    H226915   0.525   2.166   1.950
 1834TIP3   OH226916   5.949   4.615   2.381
 1834TIP3    H126917   5.986   4.684   2.326
 1834TIP3    H226918   5.906   4.556   2.319
 1835TIP3   OH226919   2.196   4.402  15.794
 1835TIP3    H126920   2.191   4.351  15.713
 1835TIP3    H226921   2.177   4.492  15.768
 1836TIP3   OH226922   3.987   0.886  11.010
 1836TIP3    H126923   3.977   0.862  10.918
 1836TIP3    H226924   3.898   0.886  11.044
 1837TIP3   OH226925   2.160   6.306  15.438
 1837TIP3    H126926   2.228   6.278  15.377
 1837TIP3    H226927   2.208   6.354  15.506
 1838TIP3   OH226928   4.033   1.748  11.828
 1838TIP3    H126929   4.020   1.745  11.733
 1838TIP3    H226930   4.105   1.809  11.840
 1839TIP3   OH226931   2.555   2.223  13.799
 1839TIP3    H126932   2.606   2.188  13.726
 1839TIP3    H226933   2.464   2.218  13.769
 1840TIP3   OH226934   3.094   1.592   0.101
 1840TIP3    H126935   3.064   1.624   0.186
 1840TIP3    H226936   3.136   1.667   0.060
 1841TIP3   OH226937   0.971   6.264  13.756
 1841TIP3    H126938   1.032   6.320  13.804
 1841TIP3    H226939   0.895   6.320  13.738
 1842TIP3   OH226940   6.405   0.158  14.758
 1842TIP3    H126941   6.328   0.208  14.786
 1842TIP3    H226942   6.458   0.150  14.837
 1843TIP3   OH226943   0.062   4.062  11.737
 1843TIP3    H126944   0.136   4.031  11.685
 1843TIP3    H226945  -0.007   4.082  11.673
 1844TIP3   OH226946   2.879   0.037  13.346
 1844TIP3    H126947   2.953  -0.016  13.315
 1844TIP3    H226948   2.804  -0.021  13.338
 1845TIP3   OH226949   6.577   0.404   0.460
 1845TIP3    H126950   6.539   0.400   0.373
 1845TIP3    H226951   6.620   0.319   0.471
 1846TIP3   OH226952   1.948   1.404  13.805
 1846TIP3    H126953   1.879   1.343  13.832
 1846TIP3    H226954   1.919   1.489  13.838
 1847TIP3   OH226955   2.129   6.322  13.155
 1847TIP3    H126956   2.221   6.314  13.131
 1847TIP3    H226957   2.116   6.416  13.167
 1848TIP3   OH226958   0.723   4.816  14.840
 1848TIP3    H126959   0.680   4.865  14.771
 1848TIP3    H226960   0.652   4.792  14.900
 1849TIP3   OH226961   0.944   3.461   3.332
 1849TIP3    H126962   0.931   3.368   3.352
 1849TIP3    H226963   0.865   3.486   3.284
 1850TIP3   OH226964   4.879   1.310  13.737
 1850TIP3    H126965   4.923   1.387  13.771
 1850TIP3    H226966   4.796   1.306  13.785
 1851TIP3   OH226967   3.832   4.812  15.758
 1851TIP3    H126968   3.832   4.901  15.722
 1851TIP3    H226969   3.754   4.809  15.813
 1852TIP3   OH226970   6.196   0.358  15.595
 1852TIP3    H126971   6.125   0.294  15.599
 1852TIP3    H226972   6.170   0.427  15.655
 1853TIP3   OH226973   0.085   5.587   1.700
 1853TIP3    H126974   0.008   5.624   1.743
 1853TIP3    H226975   0.051   5.540   1.624
 1854TIP3   OH226976   2.028   0.853  11.780
 1854TIP3    H126977   2.113   0.813  11.761
 1854TIP3    H226978   1.964   0.789  11.749
 1855TIP3   OH226979   1.308   1.066   2.018
 1855TIP3    H126980   1.308   1.054   2.113
 1855TIP3    H226981   1.222   1.037   1.990
 1856TIP3   OH226982   6.613   4.238   2.952
 1856TIP3    H126983   6.563   4.292   2.890
 1856TIP3    H226984   6.704   4.249   2.924
 1857TIP3   OH226985   1.183   5.919   4.632
 1857TIP3    H126986   1.158   5.859   4.561
 1857TIP3    H226987   1.278   5.931   4.621
 1858TIP3   OH226988   3.170   3.077   1.840
 1858TIP3    H126989   3.148   3.170   1.829
 1858TIP3    H226990   3.199   3.071   1.932
 1859TIP3   OH226991   4.300   2.946  13.176
 1859TIP3    H126992   4.228   3.004  13.201
 1859TIP3    H226993   4.375   3.004  13.164
 1860TIP3   OH226994   1.868   4.980  16.691
 1860TIP3    H126995   1.822   5.060  16.665
 1860TIP3    H226996   1.798   4.918  16.712
 1861TIP3   OH226997   5.623   0.626  12.688
 1861TIP3    H126998   5.601   0.718  12.700
 1861TIP3    H226999   5.598   0.584  12.771
 1862TIP3   OH227000   6.246   1.195   1.510
 1862TIP3    H127001   6.157   1.220   1.485
 1862TIP3    H227002   6.302   1.251   1.456
 1863TIP3   OH227003   5.726   0.486  14.331
 1863TIP3    H127004   5.750   0.572  14.296
 1863TIP3    H227005   5.804   0.458  14.380
 1864TIP3   OH227006   5.287   1.501  11.729
 1864TIP3    H127007   5.318   1.424  11.682
 1864TIP3    H227008   5.328   1.494  11.816
 1865TIP3   OH227009   4.391   5.506   4.539
 1865TIP3    H127010   4.370   5.547   4.456
 1865TIP3    H227011   4.442   5.572   4.587
 1866TIP3   OH227012   2.106   3.078   0.287
 1866TIP3    H127013   2.021   3.096   0.328
 1866TIP3    H227014   2.153   3.161   0.292
 1867TIP3   OH227015   2.655   1.595  15.113
 1867TIP3    H127016   2.632   1.620  15.024
 1867TIP3    H227017   2.685   1.676  15.154
 1868TIP3   OH227018   2.819   0.441   1.048
 1868TIP3    H127019   2.779   0.522   1.081
 1868TIP3    H227020   2.749   0.400   0.996
 1869TIP3   OH227021   0.362   0.288   0.504
 1869TIP3    H127022   0.316   0.222   0.556
 1869TIP3    H227023   0.438   0.312   0.557
 1870TIP3   OH227024   2.934   3.929   0.635
 1870TIP3    H127025   2.911   3.964   0.549
 1870TIP3    H227026   3.001   3.989   0.668
 1871TIP3   OH227027   3.499   5.007   3.895
 1871TIP3    H127028   3.529   5.095   3.870
 1871TIP3    H227029   3.442   4.980   3.823
 1872TIP3   OH227030   1.022   2.021   0.260
 1872TIP3    H127031   0.976   1.946   0.223
 1872TIP3    H227032   1.113   1.993   0.268
 1873TIP3   OH227033   5.793   5.015  14.702
 1873TIP3    H127034   5.786   4.919  14.700
 1873TIP3    H227035   5.712   5.046  14.662
 1874TIP3   OH227036   3.925   3.380   0.005
 1874TIP3    H127037   3.936   3.466  -0.037
 1874TIP3    H227038   4.008   3.366   0.051
 1875TIP3   OH227039   6.332   2.749  16.221
 1875TIP3    H127040   6.354   2.793  16.140
 1875TIP3    H227041   6.287   2.669  16.193
 1876TIP3   OH227042   4.062   5.213  13.539
 1876TIP3    H127043   4.136   5.274  13.535
 1876TIP3    H227044   3.984   5.268  13.536
 1877TIP3   OH227045   2.465   0.924  12.285
 1877TIP3    H127046   2.398   0.976  12.240
 1877TIP3    H227047   2.417   0.850  12.322
 1878TIP3   OH227048   6.463   1.614  15.739
 1878TIP3    H127049   6.458   1.696  15.691
 1878TIP3    H227050   6.377   1.573  15.727
 1879TIP3   OH227051   0.656   3.616  12.108
 1879TIP3    H127052   0.608   3.547  12.155
 1879TIP3    H227053   0.598   3.692  12.113
 1880TIP3   OH227054   6.504   4.966  10.888
 1880TIP3    H127055   6.455   4.909  10.830
 1880TIP3    H227056   6.497   4.926  10.975
 1881TIP3   OH227057   5.532   0.975   5.332
 1881TIP3    H127058   5.488   0.905   5.380
 1881TIP3    H227059   5.603   0.931   5.286
 1882TIP3   OH227060   0.895   2.876  14.244
 1882TIP3    H127061   0.907   2.830  14.328
 1882TIP3    H227062   0.801   2.872  14.227
 1883TIP3   OH227063   0.477   3.485   0.489
 1883TIP3    H127064   0.457   3.555   0.427
 1883TIP3    H227065   0.393   3.445   0.509
 1884TIP3   OH227066   2.518   2.997  11.328
 1884TIP3    H127067   2.481   2.911  11.351
 1884TIP3    H227068   2.607   2.978  11.300
 1885TIP3   OH227069   5.653   0.512  11.632
 1885TIP3    H127070   5.638   0.419  11.616
 1885TIP3    H227071   5.703   0.515  11.714
 1886TIP3   OH227072   4.936   2.735  16.166
 1886TIP3    H127073   4.951   2.821  16.203
 1886TIP3    H227074   5.021   2.708  16.130
 1887TIP3   OH227075   3.560   3.811  11.519
 1887TIP3    H127076   3.550   3.764  11.602
 1887TIP3    H227077   3.636   3.770  11.477
 1888TIP3   OH227078   3.991   3.217  15.716
 1888TIP3    H127079   4.011   3.295  15.664
 1888TIP3    H227080   3.949   3.250  15.795
 1889TIP3   OH227081   4.808   2.625  11.484
 1889TIP3    H127082   4.845   2.537  11.493
 1889TIP3    H227083   4.754   2.620  11.405
 1890TIP3   OH227084   3.733   3.709   4.303
 1890TIP3    H127085   3.719   3.620   4.334
 1890TIP3    H227086   3.673   3.718   4.229
 1891TIP3   OH227087   1.701   1.569   5.376
 1891TIP3    H127088   1.715   1.565   5.281
 1891TIP3    H227089   1.789   1.574   5.413
 1892TIP3   OH227090   1.624   3.094   3.128
 1892TIP3    H127091   1.651   3.182   3.156
 1892TIP3    H227092   1.701   3.057   3.086
 1893TIP3   OH227093   1.046   3.985   0.802
 1893TIP3    H127094   1.086   3.905   0.836
 1893TIP3    H227095   1.108   4.055   0.825
 1894TIP3   OH227096   3.790   4.559  15.708
 1894TIP3    H127097   3.824   4.631  15.761
 1894TIP3    H227098   3.703   4.590  15.680
 1895TIP3   OH227099   6.178   6.744  13.618
 1895TIP3    H127100   6.161   6.708  13.531
 1895TIP3    H227101   6.202   6.835  13.603
 1896TIP3   OH227102   1.468   2.746  14.658
 1896TIP3    H127103   1.543   2.707  14.613
 1896TIP3    H227104   1.418   2.671  14.691
 1897TIP3   OH227105   6.181   5.225  12.576
 1897TIP3    H127106   6.189   5.203  12.484
 1897TIP3    H227107   6.243   5.167  12.621
 1898TIP3   OH227108   3.405   5.361   1.991
 1898TIP3    H127109   3.372   5.445   2.022
 1898TIP3    H227110   3.499   5.376   1.977
 1899TIP3   OH227111   3.438   2.961  12.683
 1899TIP3    H127112   3.382   2.986  12.756
 1899TIP3    H227113   3.525   2.951  12.722
 1900TIP3   OH227114   0.361   3.926   1.458
 1900TIP3    H127115   0.302   4.001   1.467
 1900TIP3    H227116   0.394   3.931   1.368
 1901TIP3   OH227117   2.660   6.719  14.035
 1901TIP3    H127118   2.611   6.709  14.116
 1901TIP3    H227119   2.604   6.678  13.969
 1902TIP3   OH227120   1.566   4.989  12.387
 1902TIP3    H127121   1.640   4.954  12.438
 1902TIP3    H227122   1.490   4.977  12.444
 1903TIP3   OH227123   0.708   1.049   3.918
 1903TIP3    H127124   0.784   1.095   3.954
 1903TIP3    H227125   0.743   0.969   3.879
 1904TIP3   OH227126   5.375   2.177   4.966
 1904TIP3    H127127   5.432   2.220   5.030
 1904TIP3    H227128   5.410   2.089   4.957
 1905TIP3   OH227129   0.578   2.181  13.018
 1905TIP3    H127130   0.667   2.144  13.017
 1905TIP3    H227131   0.523   2.112  13.054
 1906TIP3   OH227132   2.330   2.681   4.746
 1906TIP3    H127133   2.389   2.659   4.819
 1906TIP3    H227134   2.324   2.776   4.749
 1907TIP3   OH227135   4.950   3.832   4.011
 1907TIP3    H127136   4.996   3.813   3.929
 1907TIP3    H227137   4.861   3.856   3.983
 1908TIP3   OH227138   1.752   1.153  15.101
 1908TIP3    H127139   1.804   1.142  15.021
 1908TIP3    H227140   1.665   1.119  15.078
 1909TIP3   OH227141   0.443   0.863   1.415
 1909TIP3    H127142   0.435   0.769   1.401
 1909TIP3    H227143   0.374   0.884   1.477
 1910TIP3   OH227144   2.980   2.341  15.918
 1910TIP3    H127145   2.926   2.347  15.997
 1910TIP3    H227146   2.949   2.261  15.874
 1911TIP3   OH227147   5.271   5.384   4.204
 1911TIP3    H127148   5.189   5.430   4.221
 1911TIP3    H227149   5.329   5.410   4.275
 1912TIP3   OH227150   3.930   1.804   0.352
 1912TIP3    H127151   3.903   1.795   0.260
 1912TIP3    H227152   3.970   1.891   0.357
 1913TIP3   OH227153   2.372   6.583   4.458
 1913TIP3    H127154   2.278   6.603   4.461
 1913TIP3    H227155   2.410   6.642   4.523
 1914TIP3   OH227156   3.034   5.170   1.595
 1914TIP3    H127157   2.939   5.175   1.602
 1914TIP3    H227158   3.061   5.259   1.573
 1915TIP3   OH227159   5.422   6.631   2.240
 1915TIP3    H127160   5.450   6.711   2.195
 1915TIP3    H227161   5.463   6.636   2.326
 1916TIP3   OH227162   6.643   6.326   3.863
 1916TIP3    H127163   6.694   6.256   3.822
 1916TIP3    H227164   6.592   6.281   3.930
 1917TIP3   OH227165   1.671   0.787   0.578
 1917TIP3    H127166   1.686   0.782   0.672
 1917TIP3    H227167   1.693   0.878   0.555
 1918TIP3   OH227168   5.030   1.383   3.904
 1918TIP3    H127169   4.957   1.403   3.962
 1918TIP3    H227170   5.032   1.455   3.841
 1919TIP3   OH227171   6.586   1.792  16.590
 1919TIP3    H127172   6.592   1.857  16.520
 1919TIP3    H227173   6.677   1.775  16.615
 1920TIP3   OH227174   2.431   5.863   1.869
 1920TIP3    H127175   2.489   5.913   1.926
 1920TIP3    H227176   2.475   5.863   1.784
 1921TIP3   OH227177   3.108   4.676   1.485
 1921TIP3    H127178   3.177   4.699   1.423
 1921TIP3    H227179   3.153   4.629   1.556
 1922TIP3   OH227180   0.050   3.533  14.275
 1922TIP3    H127181   0.071   3.561  14.364
 1922TIP3    H227182  -0.033   3.576  14.255
 1923TIP3   OH227183   3.180   4.245  16.501
 1923TIP3    H127184   3.275   4.257  16.510
 1923TIP3    H227185   3.171   4.155  16.469
 1924TIP3   OH227186   5.104   6.637   1.111
 1924TIP3    H127187   5.147   6.584   1.043
 1924TIP3    H227188   5.019   6.595   1.124
 1925TIP3   OH227189   5.541   1.645  11.385
 1925TIP3    H127190   5.522   1.636  11.291
 1925TIP3    H227191   5.525   1.558  11.421
 1926TIP3   OH227192   6.210   5.676  11.496
 1926TIP3    H127193   6.260   5.746  11.535
 1926TIP3    H227194   6.210   5.695  11.402
 1927TIP3   OH227195   4.656   0.047   4.539
 1927TIP3    H127196   4.718   0.083   4.601
 1927TIP3    H227197   4.572   0.086   4.563
 1928TIP3   OH227198   3.624   4.959  14.624
 1928TIP3    H127199   3.574   5.024  14.673
 1928TIP3    H227200   3.559   4.896  14.592
 1929TIP3   OH227201   3.143   5.298  12.895
 1929TIP3    H127202   3.125   5.205  12.912
 1929TIP3    H227203   3.143   5.338  12.982
 1930TIP3   OH227204   3.427   0.051  16.805
 1930TIP3    H127205   3.484  -0.024  16.820
 1930TIP3    H227206   3.487   0.122  16.781
 1931TIP3   OH227207   0.711   6.495   2.343
 1931TIP3    H127208   0.710   6.558   2.414
 1931TIP3    H227209   0.625   6.505   2.301
 1932TIP3   OH227210   6.004   0.425  14.121
 1932TIP3    H127211   6.072   0.491  14.107
 1932TIP3    H227212   6.048   0.355  14.170
 1933TIP3   OH227213   4.784   1.582  15.228
 1933TIP3    H127214   4.815   1.624  15.147
 1933TIP3    H227215   4.862   1.537  15.262
 1934TIP3   OH227216   1.963   5.049   1.173
 1934TIP3    H127217   2.052   5.082   1.158
 1934TIP3    H227218   1.931   5.025   1.086
 1935TIP3   OH227219   0.078   4.965  11.672
 1935TIP3    H127220   0.164   5.003  11.688
 1935TIP3    H227221   0.019   5.014  11.730
 1936TIP3   OH227222   0.083   3.093  16.222
 1936TIP3    H127223   0.031   3.066  16.146
 1936TIP3    H227224   0.070   3.187  16.228
 1937TIP3   OH227225   1.111   1.599  14.703
 1937TIP3    H127226   1.138   1.520  14.751
 1937TIP3    H227227   1.193   1.646  14.687
 1938TIP3   OH227228   0.023   0.499  14.995
 1938TIP3    H127229   0.056   0.538  14.914
 1938TIP3    H227230   0.064   0.552  15.065
 1939TIP3   OH227231   1.004   1.362   4.515
 1939TIP3    H127232   0.970   1.343   4.603
 1939TIP3    H227233   0.990   1.456   4.504
 1940TIP3   OH227234   6.595   4.548   5.948
 1940TIP3    H127235   6.578   4.609   5.877
 1940TIP3    H227236   6.521   4.560   6.008
 1941TIP3   OH227237   6.353   3.364   4.974
 1941TIP3    H127238   6.294   3.295   4.944
 1941TIP3    H227239   6.380   3.409   4.894
 1942TIP3   OH227240   0.016   2.035  11.687
 1942TIP3    H127241  -0.029   2.049  11.770
 1942TIP3    H227242   0.096   1.987  11.710
 1943TIP3   OH227243   6.565   6.432   5.915
 1943TIP3    H127244   6.480   6.389   5.919
 1943TIP3    H227245   6.610   6.390   5.842
 1944TIP3   OH227246   6.686   3.308   4.708
 1944TIP3    H127247   6.740   3.237   4.743
 1944TIP3    H227248   6.733   3.388   4.733
 1945TIP3   OH227249   4.811   0.471  15.076
 1945TIP3    H127250   4.795   0.467  14.981
 1945TIP3    H227251   4.790   0.382  15.107
 1946TIP3   OH227252   2.092   4.011  14.926
 1946TIP3    H127253   2.180   3.976  14.913
 1946TIP3    H227254   2.104   4.081  14.990
 1947TIP3   OH227255   2.614   1.721  11.129
 1947TIP3    H127256   2.545   1.664  11.095
 1947TIP3    H227257   2.591   1.808  11.096
 1948TIP3   OH227258   6.121   4.498  15.245
 1948TIP3    H127259   6.176   4.422  15.266
 1948TIP3    H227260   6.077   4.474  15.164
 1949TIP3   OH227261   5.229   5.944  14.468
 1949TIP3    H127262   5.195   6.032  14.452
 1949TIP3    H227263   5.175   5.911  14.540
 1950TIP3   OH227264   4.681   5.450   2.933
 1950TIP3    H127265   4.722   5.537   2.938
 1950TIP3    H227266   4.605   5.463   2.876
 1951TIP3   OH227267   0.595   6.294  12.693
 1951TIP3    H127268   0.591   6.267  12.785
 1951TIP3    H227269   0.654   6.369  12.693
 1952TIP3   OH227270   6.155   5.603   1.715
 1952TIP3    H127271   6.140   5.673   1.779
 1952TIP3    H227272   6.131   5.641   1.631
 1953TIP3   OH227273   3.167   5.327   3.982
 1953TIP3    H127274   3.179   5.359   3.892
 1953TIP3    H227275   3.072   5.331   3.997
 1954TIP3   OH227276   2.755   4.251   4.133
 1954TIP3    H127277   2.674   4.302   4.134
 1954TIP3    H227278   2.817   4.306   4.085
 1955TIP3   OH227279   4.858   2.150   2.529
 1955TIP3    H127280   4.871   2.059   2.557
 1955TIP3    H227281   4.894   2.153   2.440
 1956TIP3   OH227282   3.131   4.184   1.742
 1956TIP3    H127283   3.057   4.135   1.708
 1956TIP3    H227284   3.107   4.206   1.832
 1957TIP3   OH227285   5.212   1.139  13.038
 1957TIP3    H127286   5.236   1.107  12.951
 1957TIP3    H227287   5.207   1.060  13.092
 1958TIP3   OH227288   1.022   4.251  15.790
 1958TIP3    H127289   1.050   4.275  15.879
 1958TIP3    H227290   1.102   4.256  15.738
 1959TIP3   OH227291   3.543   5.439   4.390
 1959TIP3    H127292   3.525   5.429   4.297
 1959TIP3    H227293   3.458   5.460   4.429
 1960TIP3   OH227294   0.715   3.987   1.211
 1960TIP3    H127295   0.799   3.978   1.167
 1960TIP3    H227296   0.737   3.997   1.304
 1961TIP3   OH227297   3.055   3.676   0.806
 1961TIP3    H127298   3.037   3.765   0.775
 1961TIP3    H227299   2.976   3.651   0.854
 1962TIP3   OH227300   5.324   0.507  16.261
 1962TIP3    H127301   5.278   0.563  16.324
 1962TIP3    H227302   5.349   0.429  16.312
 1963TIP3   OH227303   6.230   3.090   0.321
 1963TIP3    H127304   6.298   3.149   0.352
 1963TIP3    H227305   6.156   3.105   0.380
 1964TIP3   OH227306   2.982   6.054  12.506
 1964TIP3    H127307   3.064   6.103  12.494
 1964TIP3    H227308   2.947   6.044  12.418
 1965TIP3   OH227309   0.572   0.087  13.880
 1965TIP3    H127310   0.612   0.100  13.966
 1965TIP3    H227311   0.550   0.176  13.850
 1966TIP3   OH227312   6.562   0.654  15.839
 1966TIP3    H127313   6.560   0.746  15.865
 1966TIP3    H227314   6.579   0.607  15.920
 1967TIP3   OH227315   0.941   5.413  13.833
 1967TIP3    H127316   0.861   5.405  13.885
 1967TIP3    H227317   0.910   5.424  13.743
 1968TIP3   OH227318   2.831   2.151  16.944
 1968TIP3    H127319   2.816   2.058  16.929
 1968TIP3    H227320   2.892   2.177  16.875
 1969TIP3   OH227321   0.672   6.706  15.806
 1969TIP3    H127322   0.658   6.620  15.845
 1969TIP3    H227323   0.754   6.737  15.846
 1970TIP3   OH227324   6.363   3.588  12.027
 1970TIP3    H127325   6.324   3.544  11.952
 1970TIP3    H227326   6.391   3.673  11.993
 1971TIP3   OH227327   1.383   4.691   2.368
 1971TIP3    H127328   1.360   4.660   2.281
 1971TIP3    H227329   1.319   4.760   2.387
 1972TIP3   OH227330   1.427   3.090  11.583
 1972TIP3    H127331   1.431   3.096  11.488
 1972TIP3    H227332   1.451   3.177  11.614
 1973TIP3   OH227333   1.274   6.710   1.057
 1973TIP3    H127334   1.207   6.761   1.103
 1973TIP3    H227335   1.238   6.697   0.969
 1974TIP3   OH227336   4.566   5.786  11.015
 1974TIP3    H127337   4.612   5.762  11.096
 1974TIP3    H227338   4.632   5.830  10.962
 1975TIP3   OH227339   0.065   0.877  15.239
 1975TIP3    H127340  -0.001   0.889  15.171
 1975TIP3    H227341   0.024   0.911  15.318
 1976TIP3   OH227342   3.190   2.324  15.773
 1976TIP3    H127343   3.099   2.341  15.799
 1976TIP3    H227344   3.243   2.363  15.842
 1977TIP3   OH227345   3.938   6.243  14.190
 1977TIP3    H127346   4.022   6.197  14.200
 1977TIP3    H227347   3.948   6.293  14.109
 1978TIP3   OH227348   6.596   6.679   1.848
 1978TIP3    H127349   6.577   6.756   1.901
 1978TIP3    H227350   6.521   6.670   1.790
 1979TIP3   OH227351   4.205   5.943   1.104
 1979TIP3    H127352   4.213   6.002   1.029
 1979TIP3    H227353   4.211   5.855   1.066
 1980TIP3   OH227354   0.047   6.141   4.924
 1980TIP3    H127355   0.050   6.049   4.897
 1980TIP3    H227356   0.138   6.170   4.919
 1981TIP3   OH227357   1.800   5.931   4.840
 1981TIP3    H127358   1.830   5.996   4.903
 1981TIP3    H227359   1.806   5.974   4.755
 1982TIP3   OH227360   3.810   2.815  13.549
 1982TIP3    H127361   3.820   2.727  13.512
 1982TIP3    H227362   3.734   2.808  13.607
 1983TIP3   OH227363   4.746   0.446   0.434
 1983TIP3    H127364   4.774   0.384   0.368
 1983TIP3    H227365   4.758   0.532   0.394
 1984TIP3   OH227366   0.577   3.131   0.148
 1984TIP3    H127367   0.537   3.054   0.188
 1984TIP3    H227368   0.512   3.161   0.084
 1985TIP3   OH227369   3.090   6.652   3.104
 1985TIP3    H127370   3.123   6.671   3.192
 1985TIP3    H227371   3.047   6.733   3.076
 1986TIP3   OH227372   6.646   6.180   2.334
 1986TIP3    H127373   6.700   6.237   2.388
 1986TIP3    H227374   6.569   6.232   2.313
 1987TIP3   OH227375   3.863   3.465   2.452
 1987TIP3    H127376   3.836   3.376   2.477
 1987TIP3    H227377   3.887   3.458   2.360
 1988TIP3   OH227378   0.517   4.963  11.311
 1988TIP3    H127379   0.555   4.945  11.397
 1988TIP3    H227380   0.545   5.052  11.290
 1989TIP3   OH227381   4.250   1.289  15.170
 1989TIP3    H127382   4.161   1.312  15.147
 1989TIP3    H227383   4.303   1.320  15.096
 1990TIP3   OH227384   4.241   4.868  16.468
 1990TIP3    H127385   4.336   4.863  16.456
 1990TIP3    H227386   4.205   4.828  16.389
 1991TIP3   OH227387   3.321   0.228  16.089
 1991TIP3    H127388   3.327   0.141  16.050
 1991TIP3    H227389   3.239   0.228  16.137
 1992TIP3   OH227390   5.760   2.293  13.499
 1992TIP3    H127391   5.741   2.387  13.507
 1992TIP3    H227392   5.822   2.275  13.570
 1993TIP3   OH227393   0.203   5.604  17.021
 1993TIP3    H127394   0.130   5.639  16.970
 1993TIP3    H227395   0.245   5.541  16.962
 1994TIP3   OH227396   1.913   1.354   0.674
 1994TIP3    H127397   1.946   1.442   0.694
 1994TIP3    H227398   1.836   1.370   0.620
 1995TIP3   OH227399   2.871   3.991  14.361
 1995TIP3    H127400   2.938   4.015  14.296
 1995TIP3    H227401   2.896   4.039  14.440
 1996TIP3   OH227402   3.211   0.142   2.621
 1996TIP3    H127403   3.268   0.144   2.545
 1996TIP3    H227404   3.264   0.178   2.692
 1997TIP3   OH227405   0.220   1.305   0.505
 1997TIP3    H127406   0.148   1.243   0.522
 1997TIP3    H227407   0.296   1.250   0.487
 1998TIP3   OH227408   2.667   2.252   4.947
 1998TIP3    H127409   2.708   2.217   4.869
 1998TIP3    H227410   2.576   2.268   4.922
 1999TIP3   OH227411   3.775   5.683  15.942
 1999TIP3    H127412   3.833   5.759  15.932
 1999TIP3    H227413   3.751   5.660  15.852
 2000TIP3   OH227414   1.304   3.684  16.430
 2000TIP3    H127415   1.301   3.590  16.416
 2000TIP3    H227416   1.322   3.721  16.343
 2001TIP3   OH227417   0.221   5.922   3.460
 2001TIP3    H127418   0.281   5.847   3.460
 2001TIP3    H227419   0.240   5.968   3.542
 2002TIP3   OH227420   5.111   3.748   5.239
 2002TIP3    H127421   5.132   3.728   5.330
 2002TIP3    H227422   5.141   3.838   5.227
 2003TIP3   OH227423   4.507   4.087   3.008
 2003TIP3    H127424   4.514   4.153   3.077
 2003TIP3    H227425   4.466   4.012   3.051
 2004TIP3   OH227426   5.196   4.954  16.354
 2004TIP3    H127427   5.206   5.041  16.393
 2004TIP3    H227428   5.261   4.899  16.400
 2005TIP3   OH227429   5.905   3.717  15.254
 2005TIP3    H127430   5.883   3.771  15.329
 2005TIP3    H227431   5.913   3.779  15.181
 2006TIP3   OH227432   6.552   0.683  11.957
 2006TIP3    H127433   6.505   0.609  11.919
 2006TIP3    H227434   6.600   0.721  11.883
 2007TIP3   OH227435   0.485   3.867  15.334
 2007TIP3    H127436   0.493   3.783  15.289
 2007TIP3    H227437   0.399   3.864  15.377
 2008TIP3   OH227438   2.050   5.026   0.598
 2008TIP3    H127439   1.959   5.020   0.566
 2008TIP3    H227440   2.042   5.068   0.683
 2009TIP3   OH227441   4.703   5.899  13.125
 2009TIP3    H127442   4.685   5.814  13.166
 2009TIP3    H227443   4.790   5.923  13.158
 2010TIP3   OH227444   5.443   3.560   1.613
 2010TIP3    H127445   5.502   3.587   1.543
 2010TIP3    H227446   5.407   3.642   1.648
 2011TIP3   OH227447   2.253   3.498  17.133
 2011TIP3    H127448   2.228   3.517  17.223
 2011TIP3    H227449   2.173   3.468  17.091
 2012TIP3   OH227450   0.752   5.172   6.192
 2012TIP3    H127451   0.689   5.220   6.139
 2012TIP3    H227452   0.704   5.095   6.222
 2013TIP3   OH227453   4.483   0.489   2.133
 2013TIP3    H127454   4.517   0.428   2.199
 2013TIP3    H227455   4.435   0.554   2.183
 2014TIP3   OH227456   2.598   2.374   3.894
 2014TIP3    H127457   2.563   2.285   3.901
 2014TIP3    H227458   2.673   2.366   3.834
 2015TIP3   OH227459   5.309   4.570   1.624
 2015TIP3    H127460   5.244   4.639   1.612
 2015TIP3    H227461   5.297   4.512   1.548
 2016TIP3   OH227462   6.459   0.002  11.454
 2016TIP3    H127463   6.502  -0.049  11.522
 2016TIP3    H227464   6.459   0.092  11.488
 2017TIP3   OH227465   5.976   6.445  15.740
 2017TIP3    H127466   6.050   6.443  15.679
 2017TIP3    H227467   5.901   6.417  15.687
 2018TIP3   OH227468   2.965   3.060  12.361
 2018TIP3    H127469   2.949   3.129  12.297
 2018TIP3    H227470   2.931   3.096  12.443
 2019TIP3   OH227471   1.941   4.537   4.315
 2019TIP3    H127472   2.014   4.491   4.357
 2019TIP3    H227473   1.934   4.497   4.228
 2020TIP3   OH227474   4.492   6.102   1.579
 2020TIP3    H127475   4.402   6.111   1.547
 2020TIP3    H227476   4.546   6.107   1.500
 2021TIP3   OH227477   5.805   2.229  15.201
 2021TIP3    H127478   5.771   2.241  15.112
 2021TIP3    H227479   5.734   2.259  15.258
 2022TIP3   OH227480   3.526   0.023  13.863
 2022TIP3    H127481   3.605  -0.024  13.834
 2022TIP3    H227482   3.465   0.015  13.790
 2023TIP3   OH227483   0.194   6.588   0.682
 2023TIP3    H127484   0.099   6.585   0.678
 2023TIP3    H227485   0.216   6.548   0.766
 2024TIP3   OH227486   3.765   2.598  16.096
 2024TIP3    H127487   3.728   2.524  16.144
 2024TIP3    H227488   3.824   2.640  16.158
 2025TIP3   OH227489   1.394   4.585  13.916
 2025TIP3    H127490   1.300   4.565  13.908
 2025TIP3    H227491   1.400   4.679  13.898
 2026TIP3   OH227492   4.504   3.021  13.489
 2026TIP3    H127493   4.589   3.031  13.532
 2026TIP3    H227494   4.515   3.064  13.404
 2027TIP3   OH227495   6.567   6.166  12.323
 2027TIP3    H127496   6.540   6.154  12.414
 2027TIP3    H227497   6.631   6.097  12.307
 2028TIP3   OH227498   0.680   3.699   5.754
 2028TIP3    H127499   0.754   3.688   5.695
 2028TIP3    H227500   0.603   3.681   5.700
 2029TIP3   OH227501   0.469   1.872   0.510
 2029TIP3    H127502   0.494   1.924   0.586
 2029TIP3    H227503   0.481   1.781   0.539
 2030TIP3   OH227504   5.875   2.037   2.868
 2030TIP3    H127505   5.968   2.060   2.864
 2030TIP3    H227506   5.874   1.942   2.857
 2031TIP3   OH227507   0.290   5.750  13.448
 2031TIP3    H127508   0.372   5.702  13.433
 2031TIP3    H227509   0.240   5.693  13.507
 2032TIP3   OH227510   0.887   6.427  12.458
 2032TIP3    H127511   0.832   6.499  12.489
 2032TIP3    H227512   0.923   6.389  12.537
 2033TIP3   OH227513   6.659   6.310  15.904
 2033TIP3    H127514   6.662   6.401  15.872
 2033TIP3    H227515   6.737   6.269  15.866
 2034TIP3   OH227516   3.978   3.789  13.737
 2034TIP3    H127517   3.938   3.848  13.801
 2034TIP3    H227518   4.001   3.710  13.786
 2035TIP3   OH227519   3.882   6.362   4.040
 2035TIP3    H127520   3.864   6.368   4.134
 2035TIP3    H227521   3.795   6.361   3.999
 2036TIP3   OH227522   3.190   2.117   3.183
 2036TIP3    H127523   3.185   2.142   3.091
 2036TIP3    H227524   3.263   2.056   3.188
 2037TIP3   OH227525   6.702   1.165  11.390
 2037TIP3    H127526   6.613   1.166  11.356
 2037TIP3    H227527   6.696   1.209  11.475
 2038TIP3   OH227528   0.550   1.967  14.385
 2038TIP3    H127529   0.526   2.058  14.369
 2038TIP3    H227530   0.476   1.932  14.436
 2039TIP3   OH227531   5.242   3.233  14.772
 2039TIP3    H127532   5.321   3.286  14.785
 2039TIP3    H227533   5.204   3.266  14.690
 2040TIP3   OH227534   3.568   5.224  10.606
 2040TIP3    H127535   3.641   5.163  10.600
 2040TIP3    H227536   3.495   5.177  10.565
 2041TIP3   OH227537   0.920   3.191  15.664
 2041TIP3    H127538   0.833   3.173  15.626
 2041TIP3    H227539   0.957   3.260  15.608
 2042TIP3   OH227540   5.500   3.563  13.676
 2042TIP3    H127541   5.524   3.624  13.746
 2042TIP3    H227542   5.578   3.560  13.620
 2043TIP3   OH227543   4.559   6.767   3.154
 2043TIP3    H127544   4.626   6.832   3.172
 2043TIP3    H227545   4.480   6.818   3.135
 2044TIP3   OH227546   2.554   5.500  15.145
 2044TIP3    H127547   2.580   5.476  15.056
 2044TIP3    H227548   2.532   5.593  15.140
 2045TIP3   OH227549   5.419   6.727  12.474
 2045TIP3    H127550   5.425   6.764  12.386
 2045TIP3    H227551   5.359   6.786  12.521
 2046TIP3   OH227552   3.234   0.971   6.113
 2046TIP3    H127553   3.223   0.891   6.164
 2046TIP3    H227554   3.237   1.041   6.179
 2047TIP3   OH227555   5.944   4.533   2.807
 2047TIP3    H127556   5.924   4.593   2.879
 2047TIP3    H227557   6.007   4.471   2.843
 2048TIP3   OH227558   5.889   6.658   3.015
 2048TIP3    H127559   5.927   6.649   3.102
 2048TIP3    H227560   5.829   6.732   3.023
 2049TIP3   OH227561   5.229   3.223   1.302
 2049TIP3    H127562   5.174   3.148   1.325
 2049TIP3    H227563   5.308   3.213   1.355
 2050TIP3   OH227564   3.814   0.635  14.737
 2050TIP3    H127565   3.833   0.545  14.710
 2050TIP3    H227566   3.739   0.660  14.683
 2051TIP3   OH227567   6.769   4.544  16.050
 2051TIP3    H127568   6.677   4.526  16.028
 2051TIP3    H227569   6.793   4.476  16.112
 2052TIP3   OH227570   2.486   4.454   4.459
 2052TIP3    H127571   2.482   4.417   4.547
 2052TIP3    H227572   2.578   4.477   4.447
 2053TIP3   OH227573   1.849   4.627   1.877
 2053TIP3    H127574   1.881   4.637   1.966
 2053TIP3    H227575   1.927   4.604   1.826
 2054TIP3   OH227576   4.461   3.627  13.543
 2054TIP3    H127577   4.416   3.685  13.603
 2054TIP3    H227578   4.475   3.546  13.593
 2055TIP3   OH227579   4.944   0.050  10.565
 2055TIP3    H127580   4.984   0.005  10.491
 2055TIP3    H227581   4.872  -0.007  10.592
 2056TIP3   OH227582   4.305   5.670  14.379
 2056TIP3    H127583   4.332   5.588  14.420
 2056TIP3    H227584   4.377   5.731  14.397
 2057TIP3   OH227585   3.672   2.983   4.486
 2057TIP3    H127586   3.732   3.051   4.455
 2057TIP3    H227587   3.690   2.908   4.429
 2058TIP3   OH227588   6.709   5.305  14.659
 2058TIP3    H127589   6.738   5.396  14.659
 2058TIP3    H227590   6.726   5.274  14.747
 2059TIP3   OH227591   6.638   2.250   1.999
 2059TIP3    H127592   6.694   2.240   1.921
 2059TIP3    H227593   6.617   2.343   2.000
 2060TIP3   OH227594   2.054   0.872  13.510
 2060TIP3    H127595   2.084   0.784  13.534
 2060TIP3    H227596   2.097   0.930  13.573
 2061TIP3   OH227597   2.848   1.915  13.854
 2061TIP3    H127598   2.890   1.991  13.893
 2061TIP3    H227599   2.847   1.933  13.760
 2062TIP3   OH227600   5.708   6.591   3.312
 2062TIP3    H127601   5.737   6.516   3.260
 2062TIP3    H227602   5.612   6.581   3.315
 2063TIP3   OH227603   3.419   3.396   4.034
 2063TIP3    H127604   3.486   3.355   3.978
 2063TIP3    H227605   3.367   3.323   4.067
 2064TIP3   OH227606   0.286   5.464   1.998
 2064TIP3    H127607   0.257   5.445   1.909
 2064TIP3    H227608   0.241   5.399   2.052
 2065TIP3   OH227609   3.341   3.084  14.579
 2065TIP3    H127610   3.415   3.026  14.597
 2065TIP3    H227611   3.295   3.042  14.506
 2066TIP3   OH227612   2.950   5.863  11.744
 2066TIP3    H127613   3.040   5.890  11.725
 2066TIP3    H227614   2.896   5.928  11.699
 2067TIP3   OH227615   1.204   0.384   6.417
 2067TIP3    H127616   1.292   0.366   6.450
 2067TIP3    H227617   1.183   0.471   6.452
 2068TIP3   OH227618   5.048   0.465   1.547
 2068TIP3    H127619   5.040   0.389   1.605
 2068TIP3    H227620   5.042   0.540   1.606
 2069TIP3   OH227621   1.695   3.419  12.919
 2069TIP3    H127622   1.604   3.441  12.936
 2069TIP3    H227623   1.746   3.486  12.963
 2070TIP3   OH227624   4.157   6.442  13.060
 2070TIP3    H127625   4.063   6.422  13.054
 2070TIP3    H227626   4.182   6.416  13.148
 2071TIP3   OH227627   2.437   1.492   1.178
 2071TIP3    H127628   2.412   1.430   1.247
 2071TIP3    H227629   2.355   1.538   1.158
 2072TIP3   OH227630   3.253   4.440  14.589
 2072TIP3    H127631   3.310   4.390  14.647
 2072TIP3    H227632   3.173   4.388  14.584
 2073TIP3   OH227633   6.053   5.848  10.906
 2073TIP3    H127634   6.104   5.848  10.825
 2073TIP3    H227635   5.979   5.906  10.889
 2074TIP3   OH227636   1.004   4.682   4.693
 2074TIP3    H127637   1.007   4.763   4.644
 2074TIP3    H227638   0.949   4.701   4.769
 2075TIP3   OH227639   5.829   3.508  12.972
 2075TIP3    H127640   5.799   3.421  13.000
 2075TIP3    H227641   5.919   3.514  13.007
 2076TIP3   OH227642   1.967   0.356  15.527
 2076TIP3    H127643   1.996   0.320  15.611
 2076TIP3    H227644   1.913   0.287  15.489
 2077TIP3   OH227645   6.069   5.954  14.732
 2077TIP3    H127646   6.064   5.879  14.790
 2077TIP3    H227647   6.160   5.985  14.741
 2078TIP3   OH227648   1.023   3.223   1.796
 2078TIP3    H127649   0.995   3.148   1.743
 2078TIP3    H227650   0.942   3.266   1.822
 2079TIP3   OH227651   6.403   6.526  15.959
 2079TIP3    H127652   6.485   6.529  15.909
 2079TIP3    H227653   6.411   6.450  16.015
 2080TIP3   OH227654   1.474   3.509   1.756
 2080TIP3    H127655   1.539   3.572   1.787
 2080TIP3    H227656   1.520   3.456   1.691
 2081TIP3   OH227657   1.479   5.193   2.651
 2081TIP3    H127658   1.497   5.282   2.680
 2081TIP3    H227659   1.419   5.158   2.716
 2082TIP3   OH227660   2.926   4.922  10.521
 2082TIP3    H127661   2.838   4.914  10.485
 2082TIP3    H227662   2.942   5.017  10.523
 2083TIP3   OH227663   5.208   2.136   5.980
 2083TIP3    H127664   5.292   2.177   6.000
 2083TIP3    H227665   5.148   2.210   5.965
 2084TIP3   OH227666   1.365   5.765  15.100
 2084TIP3    H127667   1.313   5.805  15.169
 2084TIP3    H227668   1.423   5.836  15.071
 2085TIP3   OH227669   1.055   3.231   5.483
 2085TIP3    H127670   0.983   3.172   5.459
 2085TIP3    H227671   1.034   3.313   5.438
 2086TIP3   OH227672   1.183   4.252   3.887
 2086TIP3    H127673   1.219   4.314   3.824
 2086TIP3    H227674   1.253   4.188   3.900
 2087TIP3   OH227675   0.878   4.416   4.639
 2087TIP3    H127676   0.905   4.325   4.648
 2087TIP3    H227677   0.855   4.425   4.546
 2088TIP3   OH227678   2.573   4.680  12.108
 2088TIP3    H127679   2.606   4.756  12.060
 2088TIP3    H227680   2.642   4.614  12.100
 2089TIP3   OH227681   0.579   1.177  14.168
 2089TIP3    H127682   0.496   1.130  14.169
 2089TIP3    H227683   0.561   1.256  14.116
 2090TIP3   OH227684   3.786   0.776   5.792
 2090TIP3    H127685   3.737   0.707   5.747
 2090TIP3    H227686   3.875   0.740   5.801
 2091TIP3   OH227687   6.644   5.527  16.671
 2091TIP3    H127688   6.638   5.581  16.592
 2091TIP3    H227689   6.702   5.455  16.646
 2092TIP3   OH227690   5.462   2.597   0.251
 2092TIP3    H127691   5.532   2.662   0.240
 2092TIP3    H227692   5.399   2.618   0.182
 2093TIP3   OH227693   1.784   3.225  16.685
 2093TIP3    H127694   1.733   3.152  16.651
 2093TIP3    H227695   1.787   3.211  16.780
 2094TIP3   OH227696   6.500   4.121  15.152
 2094TIP3    H127697   6.538   4.126  15.240
 2094TIP3    H227698   6.518   4.031  15.125
 2095TIP3   OH227699   1.623   3.420  10.557
 2095TIP3    H127700   1.528   3.432  10.559
 2095TIP3    H227701   1.658   3.509  10.557
 2096TIP3   OH227702   3.649   6.298   5.933
 2096TIP3    H127703   3.663   6.212   5.894
 2096TIP3    H227704   3.589   6.282   6.006
 2097TIP3   OH227705   0.428   4.214   1.328
 2097TIP3    H127706   0.384   4.222   1.244
 2097TIP3    H227707   0.518   4.242   1.311
 2098TIP3   OH227708   4.272   5.678   0.225
 2098TIP3    H127709   4.212   5.648   0.294
 2098TIP3    H227710   4.241   5.634   0.146
 2099TIP3   OH227711   6.026   1.241   5.656
 2099TIP3    H127712   6.010   1.269   5.746
 2099TIP3    H227713   6.117   1.266   5.638
 2100TIP3   OH227714   6.130   3.774   0.328
 2100TIP3    H127715   6.056   3.821   0.289
 2100TIP3    H227716   6.164   3.720   0.257
 2101TIP3   OH227717   3.765   5.820   1.348
 2101TIP3    H127718   3.762   5.836   1.442
 2101TIP3    H227719   3.726   5.899   1.309
 2102TIP3   OH227720   2.984   5.617   3.505
 2102TIP3    H127721   3.012   5.536   3.548
 2102TIP3    H227722   2.978   5.680   3.577
 2103TIP3   OH227723   1.353   4.793  13.407
 2103TIP3    H127724   1.411   4.866  13.430
 2103TIP3    H227725   1.335   4.750  13.491
 2104TIP3   OH227726   1.814   5.333   5.900
 2104TIP3    H127727   1.747   5.316   5.835
 2104TIP3    H227728   1.887   5.276   5.875
 2105TIP3   OH227729   0.974   0.903   4.493
 2105TIP3    H127730   0.881   0.890   4.471
 2105TIP3    H227731   1.015   0.925   4.409
 2106TIP3   OH227732   2.991   0.267   1.220
 2106TIP3    H127733   2.970   0.309   1.137
 2106TIP3    H227734   3.067   0.315   1.253
 2107TIP3   OH227735   5.441   6.212  15.625
 2107TIP3    H127736   5.390   6.284  15.587
 2107TIP3    H227737   5.488   6.174  15.551
 2108TIP3   OH227738   6.530   0.127  11.200
 2108TIP3    H127739   6.497   0.043  11.232
 2108TIP3    H227740   6.576   0.165  11.275
 2109TIP3   OH227741   4.767   4.187   4.112
 2109TIP3    H127742   4.687   4.138   4.129
 2109TIP3    H227743   4.830   4.153   4.176
 2110TIP3   OH227744   6.402   4.635  15.400
 2110TIP3    H127745   6.424   4.695  15.471
 2110TIP3    H227746   6.309   4.614  15.414
 2111TIP3   OH227747   5.295   5.728  12.001
 2111TIP3    H127748   5.372   5.776  11.973
 2111TIP3    H227749   5.293   5.650  11.945
 2112TIP3   OH227750   1.466   2.792   2.137
 2112TIP3    H127751   1.417   2.821   2.214
 2112TIP3    H227752   1.478   2.698   2.150
 2113TIP3   OH227753   4.669   2.632  15.881
 2113TIP3    H127754   4.734   2.609  15.814
 2113TIP3    H227755   4.604   2.562  15.876
 2114TIP3   OH227756   6.022   3.863  15.074
 2114TIP3    H127757   6.104   3.839  15.031
 2114TIP3    H227758   5.957   3.867  15.004
 2115TIP3   OH227759   0.775   0.345  13.423
 2115TIP3    H127760   0.844   0.366  13.487
 2115TIP3    H227761   0.713   0.417  13.430
 2116TIP3   OH227762   6.361   6.284   1.443
 2116TIP3    H127763   6.426   6.258   1.377
 2116TIP3    H227764   6.282   6.237   1.419
 2117TIP3   OH227765   2.826   1.198  14.028
 2117TIP3    H127766   2.798   1.256  13.957
 2117TIP3    H227767   2.779   1.116  14.012
 2118TIP3   OH227768   0.629   2.950   1.099
 2118TIP3    H127769   0.653   2.890   1.169
 2118TIP3    H227770   0.535   2.935   1.086
 2119TIP3   OH227771   5.112   0.212  13.776
 2119TIP3    H127772   5.171   0.156  13.827
 2119TIP3    H227773   5.138   0.302  13.800
 2120TIP3   OH227774   6.150   2.618  12.652
 2120TIP3    H127775   6.200   2.676  12.708
 2120TIP3    H227776   6.215   2.578  12.593
 2121TIP3   OH227777   3.767   0.179  13.414
 2121TIP3    H127778   3.688   0.169  13.468
 2121TIP3    H227779   3.733   0.190  13.325
 2122TIP3   OH227780   1.208   5.566   0.087
 2122TIP3    H127781   1.240   5.476   0.090
 2122TIP3    H227782   1.116   5.560   0.109
 2123TIP3   OH227783   2.160   2.843  15.591
 2123TIP3    H127784   2.118   2.909  15.535
 2123TIP3    H227785   2.178   2.770  15.532
 2124TIP3   OH227786   3.407   0.199   2.808
 2124TIP3    H127787   3.393   0.137   2.880
 2124TIP3    H227788   3.491   0.174   2.771
 2125TIP3   OH227789   6.153   5.689  14.184
 2125TIP3    H127790   6.214   5.665  14.114
 2125TIP3    H227791   6.137   5.608  14.232
 2126TIP3   OH227792   4.692   2.135   3.212
 2126TIP3    H127793   4.754   2.160   3.281
 2126TIP3    H227794   4.642   2.215   3.194
 2127TIP3   OH227795   6.422   0.572   1.371
 2127TIP3    H127796   6.457   0.652   1.330
 2127TIP3    H227797   6.410   0.511   1.299
 2128TIP3   OH227798   6.348   3.834  11.148
 2128TIP3    H127799   6.437   3.819  11.181
 2128TIP3    H227800   6.352   3.808  11.056
 2129TIP3   OH227801   3.503   2.110  15.914
 2129TIP3    H127802   3.516   2.187  15.859
 2129TIP3    H227803   3.512   2.035  15.855
 2130TIP3   OH227804   1.824   3.488  16.274
 2130TIP3    H127805   1.908   3.533  16.262
 2130TIP3    H227806   1.834   3.406  16.224
 2131TIP3   OH227807   4.307   1.468   2.917
 2131TIP3    H127808   4.272   1.393   2.966
 2131TIP3    H227809   4.280   1.545   2.968
 2132TIP3   OH227810   0.831   3.000  11.504
 2132TIP3    H127811   0.879   3.074  11.541
 2132TIP3    H227812   0.745   3.004  11.547
 2133TIP3   OH227813   5.018   6.132   2.922
 2133TIP3    H127814   5.097   6.134   2.977
 2133TIP3    H227815   5.048   6.093   2.839
 2134TIP3   OH227816   2.627   6.297   0.118
 2134TIP3    H127817   2.665   6.216   0.085
 2134TIP3    H227818   2.540   6.301   0.079
 2135TIP3   OH227819   4.736   3.349  12.828
 2135TIP3    H127820   4.747   3.443  12.821
 2135TIP3    H227821   4.703   3.335  12.918
 2136TIP3   OH227822   0.030   5.560  13.114
 2136TIP3    H127823   0.068   5.495  13.174
 2136TIP3    H227824   0.054   5.644  13.151
 2137TIP3   OH227825   4.326   6.675   6.222
 2137TIP3    H127826   4.267   6.735   6.267
 2137TIP3    H227827   4.407   6.724   6.212
 2138TIP3   OH227828   6.417   6.567   1.364
 2138TIP3    H127829   6.499   6.608   1.392
 2138TIP3    H227830   6.418   6.481   1.406
 2139TIP3   OH227831   1.097   0.192  14.206
 2139TIP3    H127832   1.071   0.266  14.151
 2139TIP3    H227833   1.053   0.117  14.167
 2140TIP3   OH227834   2.810   1.739  15.887
 2140TIP3    H127835   2.715   1.731  15.890
 2140TIP3    H227836   2.842   1.654  15.919
 2141TIP3   OH227837   5.188   4.202  10.776
 2141TIP3    H127838   5.190   4.107  10.787
 2141TIP3    H227839   5.237   4.236  10.851
 2142TIP3   OH227840   0.854   5.153   4.105
 2142TIP3    H127841   0.770   5.194   4.125
 2142TIP3    H227842   0.916   5.225   4.101
 2143TIP3   OH227843   1.592   5.886  16.586
 2143TIP3    H127844   1.667   5.839  16.550
 2143TIP3    H227845   1.572   5.952  16.519
 2144TIP3   OH227846   6.769   1.336   5.505
 2144TIP3    H127847   6.689   1.332   5.452
 2144TIP3    H227848   6.751   1.280   5.580
 2145TIP3   OH227849   4.591   3.359   4.284
 2145TIP3    H127850   4.570   3.428   4.348
 2145TIP3    H227851   4.627   3.407   4.210
 2146TIP3   OH227852   2.638   4.401  14.740
 2146TIP3    H127853   2.656   4.342  14.667
 2146TIP3    H227854   2.543   4.399  14.749
 2147TIP3   OH227855   0.738   6.467  14.805
 2147TIP3    H127856   0.689   6.513  14.873
 2147TIP3    H227857   0.751   6.379  14.839
 2148TIP3   OH227858   3.222   4.900  14.345
 2148TIP3    H127859   3.205   4.814  14.382
 2148TIP3    H227860   3.187   4.961  14.410
 2149TIP3   OH227861   2.578   3.671   2.016
 2149TIP3    H127862   2.513   3.603   2.033
 2149TIP3    H227863   2.571   3.730   2.091
 2150TIP3   OH227864   6.368   2.332   5.067
 2150TIP3    H127865   6.398   2.244   5.044
 2150TIP3    H227866   6.440   2.370   5.116
 2151TIP3   OH227867   3.059   2.228   5.718
 2151TIP3    H127868   3.040   2.276   5.799
 2151TIP3    H227869   2.982   2.172   5.706
 2152TIP3   OH227870   4.467   6.196   4.087
 2152TIP3    H127871   4.402   6.126   4.096
 2152TIP3    H227872   4.527   6.182   4.160
 2153TIP3   OH227873   1.188   1.547   2.811
 2153TIP3    H127874   1.270   1.501   2.828
 2153TIP3    H227875   1.125   1.509   2.873
 2154TIP3   OH227876   6.006   6.152  14.041
 2154TIP3    H127877   5.912   6.152  14.022
 2154TIP3    H227878   6.011   6.147  14.136
 2155TIP3   OH227879   2.867   0.498  14.427
 2155TIP3    H127880   2.781   0.526  14.458
 2155TIP3    H227881   2.864   0.403  14.431
 2156TIP3   OH227882   2.976   6.519   3.907
 2156TIP3    H127883   2.887   6.553   3.895
 2156TIP3    H227884   2.994   6.469   3.827
 2157TIP3   OH227885   3.734   2.273   3.565
 2157TIP3    H127886   3.727   2.178   3.558
 2157TIP3    H227887   3.774   2.288   3.651
 2158TIP3   OH227888   1.020   2.931  16.128
 2158TIP3    H127889   1.004   2.878  16.206
 2158TIP3    H227890   0.983   2.880  16.056
 2159TIP3   OH227891   4.503   0.178  13.957
 2159TIP3    H127892   4.557   0.243  13.912
 2159TIP3    H227893   4.511   0.200  14.050
 2160TIP3   OH227894   1.448   3.745   4.692
 2160TIP3    H127895   1.450   3.710   4.781
 2160TIP3    H227896   1.539   3.749   4.665
 2161TIP3   OH227897   4.104   1.768   4.819
 2161TIP3    H127898   4.022   1.726   4.845
 2161TIP3    H227899   4.150   1.785   4.901
 2162TIP3   OH227900   4.170   2.961   1.205
 2162TIP3    H127901   4.227   3.019   1.255
 2162TIP3    H227902   4.124   3.019   1.144
 2163TIP3   OH227903   5.394   1.868   0.155
 2163TIP3    H127904   5.404   1.783   0.113
 2163TIP3    H227905   5.317   1.906   0.114
 2164TIP3   OH227906   5.280   0.865   3.969
 2164TIP3    H127907   5.190   0.857   3.937
 2164TIP3    H227908   5.281   0.817   4.052
 2165TIP3   OH227909   2.712   3.859   0.081
 2165TIP3    H127910   2.750   3.772   0.071
 2165TIP3    H227911   2.622   3.851   0.049
 2166TIP3   OH227912   0.555   5.128   0.203
 2166TIP3    H127913   0.551   5.066   0.276
 2166TIP3    H227914   0.501   5.088   0.135
 2167TIP3   OH227915   4.766   1.706   4.012
 2167TIP3    H127916   4.761   1.653   4.092
 2167TIP3    H227917   4.800   1.790   4.042
 2168TIP3   OH227918   3.007   3.381   2.885
 2168TIP3    H127919   2.988   3.297   2.927
 2168TIP3    H227920   3.102   3.388   2.887
 2169TIP3   OH227921   4.854   0.839  17.225
 2169TIP3    H127922   4.847   0.748  17.254
 2169TIP3    H227923   4.765   0.875  17.237
 2170TIP3   OH227924   4.703   0.116   6.032
 2170TIP3    H127925   4.709   0.203   5.993
 2170TIP3    H227926   4.665   0.062   5.962
 2171TIP3   OH227927   6.786   3.955   6.691
 2171TIP3    H127928   6.762   3.876   6.641
 2171TIP3    H227929   6.736   3.947   6.772
 2172TIP3   OH227930   0.616   4.162   5.223
 2172TIP3    H127931   0.582   4.075   5.202
 2172TIP3    H227932   0.548   4.222   5.193
 2173TIP3   OH227933   0.875   6.556  15.652
 2173TIP3    H127934   0.829   6.606  15.719
 2173TIP3    H227935   0.854   6.601  15.570
 2174TIP3   OH227936   6.020   1.700  11.953
 2174TIP3    H127937   6.039   1.737  12.039
 2174TIP3    H227938   6.009   1.606  11.969
 2175TIP3   OH227939   6.526   5.928  10.587
 2175TIP3    H127940   6.515   6.023  10.582
 2175TIP3    H227941   6.565   5.913  10.673
 2176TIP3   OH227942   4.987   0.809  13.897
 2176TIP3    H127943   5.008   0.721  13.929
 2176TIP3    H227944   4.917   0.796  13.833
 2177TIP3   OH227945   3.296   0.573   4.429
 2177TIP3    H127946   3.286   0.523   4.349
 2177TIP3    H227947   3.273   0.512   4.499
 2178TIP3   OH227948   4.074   6.087  13.115
 2178TIP3    H127949   4.019   6.165  13.125
 2178TIP3    H227950   4.028   6.033  13.051
 2179TIP3   OH227951   3.717   5.890  11.288
 2179TIP3    H127952   3.797   5.884  11.237
 2179TIP3    H227953   3.651   5.843  11.236
 2180TIP3   OH227954   2.045   2.845  12.540
 2180TIP3    H127955   2.114   2.852  12.474
 2180TIP3    H227956   2.063   2.917  12.601
 2181TIP3   OH227957   3.731   6.722  13.167
 2181TIP3    H127958   3.704   6.683  13.084
 2181TIP3    H227959   3.665   6.789  13.185
 2182TIP3   OH227960   0.998   5.010  10.937
 2182TIP3    H127961   0.975   4.975  10.851
 2182TIP3    H227962   1.071   5.071  10.919
 2183TIP3   OH227963   5.915   6.428  10.868
 2183TIP3    H127964   5.865   6.440  10.949
 2183TIP3    H227965   5.967   6.508  10.860
 2184TIP3   OH227966   1.813   0.286   5.465
 2184TIP3    H127967   1.767   0.334   5.534
 2184TIP3    H227968   1.749   0.224   5.431
 2185TIP3   OH227969   2.141   0.507  13.091
 2185TIP3    H127970   2.129   0.519  12.997
 2185TIP3    H227971   2.096   0.424  13.110
 2186TIP3   OH227972   6.763   0.879  11.400
 2186TIP3    H127973   6.752   0.973  11.388
 2186TIP3    H227974   6.675   0.843  11.391
 2187TIP3   OH227975   3.731   2.487   5.434
 2187TIP3    H127976   3.702   2.568   5.394
 2187TIP3    H227977   3.653   2.451   5.476
 2188TIP3   OH227978   3.834   1.483  13.389
 2188TIP3    H127979   3.888   1.554  13.355
 2188TIP3    H227980   3.890   1.436  13.450
 2189TIP3   OH227981   4.130   1.347   5.582
 2189TIP3    H127982   4.098   1.315   5.498
 2189TIP3    H227983   4.185   1.275   5.615
 2190TIP3   OH227984   3.267   4.732   1.262
 2190TIP3    H127985   3.225   4.684   1.190
 2190TIP3    H227986   3.230   4.820   1.258
 2191TIP3   OH227987   3.009   1.520   3.570
 2191TIP3    H127988   3.037   1.609   3.592
 2191TIP3    H227989   2.966   1.488   3.649
 2192TIP3   OH227990   0.271   0.170  13.353
 2192TIP3    H127991   0.332   0.242  13.371
 2192TIP3    H227992   0.189   0.213  13.328
 2193TIP3   OH227993   5.398   4.934  12.570
 2193TIP3    H127994   5.481   4.963  12.608
 2193TIP3    H227995   5.391   4.984  12.488
 2194TIP3   OH227996   0.030   4.187   4.258
 2194TIP3    H127997  -0.033   4.122   4.228
 2194TIP3    H227998  -0.009   4.271   4.236
 2195TIP3   OH227999   1.774   4.200  13.879
 2195TIP3    H128000   1.826   4.128  13.844
 2195TIP3    H228001   1.820   4.227  13.958
 2196TIP3   OH228002   4.743   5.118  14.581
 2196TIP3    H128003   4.677   5.053  14.604
 2196TIP3    H228004   4.821   5.067  14.557
 2197TIP3   OH228005   1.154   4.426   4.185
 2197TIP3    H128006   1.179   4.441   4.094
 2197TIP3    H228007   1.066   4.390   4.181
 2198TIP3   OH228008   6.265   5.517   2.907
 2198TIP3    H128009   6.240   5.610   2.910
 2198TIP3    H228010   6.184   5.470   2.927
 2199TIP3   OH228011   0.582   2.640   1.169
 2199TIP3    H128012   0.537   2.707   1.222
 2199TIP3    H228013   0.540   2.558   1.194
 2200TIP3   OH228014   0.056   6.276  16.627
 2200TIP3    H128015   0.132   6.279  16.569
 2200TIP3    H228016   0.084   6.323  16.706
 2201TIP3   OH228017   1.106   2.724   4.773
 2201TIP3    H128018   1.081   2.773   4.851
 2201TIP3    H228019   1.045   2.651   4.770
 2202TIP3   OH228020   5.998   2.298   5.032
 2202TIP3    H128021   6.061   2.364   5.003
 2202TIP3    H228022   5.913   2.343   5.030
 2203TIP3   OH228023   1.536   6.685   6.250
 2203TIP3    H128024   1.476   6.676   6.176
 2203TIP3    H228025   1.495   6.634   6.320
 2204TIP3   OH228026   3.040   3.759  14.509
 2204TIP3    H128027   3.003   3.847  14.519
 2204TIP3    H228028   3.109   3.770  14.445
 2205TIP3   OH228029   0.792   3.470  13.124
 2205TIP3    H128030   0.782   3.515  13.040
 2205TIP3    H228031   0.728   3.398  13.119
 2206TIP3   OH228032   2.008   4.051  11.686
 2206TIP3    H128033   2.081   4.078  11.629
 2206TIP3    H228034   2.040   4.068  11.775
 2207TIP3   OH228035   6.574   6.764  14.645
 2207TIP3    H128036   6.568   6.701  14.716
 2207TIP3    H228037   6.501   6.825  14.660
 2208TIP3   OH228038   5.149   3.470  15.925
 2208TIP3    H128039   5.171   3.460  15.833
 2208TIP3    H228040   5.229   3.445  15.972
 2209TIP3   OH228041   5.701   5.149   5.089
 2209TIP3    H128042   5.683   5.243   5.083
 2209TIP3    H228043   5.794   5.143   5.111
 2210TIP3   OH228044   3.597   6.191  14.701
 2210TIP3    H128045   3.586   6.096  14.700
 2210TIP3    H228046   3.688   6.206  14.676
 2211TIP3   OH228047   2.622   3.202  13.836
 2211TIP3    H128048   2.703   3.195  13.885
 2211TIP3    H228049   2.641   3.161  13.752
 2212TIP3   OH228050   2.187   6.199   3.499
 2212TIP3    H128051   2.115   6.186   3.437
 2212TIP3    H228052   2.159   6.154   3.578
 2213TIP3   OH228053   4.890   6.189  15.555
 2213TIP3    H128054   4.828   6.132  15.508
 2213TIP3    H228055   4.965   6.133  15.575
 2214TIP3   OH228056   1.237   5.181   0.577
 2214TIP3    H128057   1.200   5.093   0.580
 2214TIP3    H228058   1.228   5.209   0.486
 2215TIP3   OH228059   1.811   5.881   6.265
 2215TIP3    H128060   1.782   5.834   6.186
 2215TIP3    H228061   1.893   5.838   6.290
 2216TIP3   OH228062   4.978   1.013   4.190
 2216TIP3    H128063   5.013   0.956   4.121
 2216TIP3    H228064   5.033   0.995   4.266
 2217TIP3   OH228065   0.879   3.634  14.236
 2217TIP3    H128066   0.970   3.647  14.265
 2217TIP3    H228067   0.835   3.715  14.263
 2218TIP3   OH228068   4.413   6.563  13.107
 2218TIP3    H128069   4.430   6.641  13.160
 2218TIP3    H228070   4.319   6.550  13.114
 2219TIP3   OH228071   3.765   4.965   2.417
 2219TIP3    H128072   3.736   4.878   2.388
 2219TIP3    H228073   3.687   5.005   2.456
 2220TIP3   OH228074   4.992   4.558   4.632
 2220TIP3    H128075   4.958   4.619   4.566
 2220TIP3    H228076   5.045   4.496   4.581
 2221TIP3   OH228077   3.861   1.596  16.785
 2221TIP3    H128078   3.768   1.615  16.785
 2221TIP3    H228079   3.874   1.538  16.710
 2222TIP3   OH228080   3.575   2.342   1.368
 2222TIP3    H128081   3.575   2.294   1.285
 2222TIP3    H228082   3.519   2.418   1.352
 2223TIP3   OH228083   6.387   2.101  16.162
 2223TIP3    H128084   6.469   2.076  16.206
 2223TIP3    H228085   6.371   2.191  16.193
 2224TIP3   OH228086   4.665   3.660   5.752
 2224TIP3    H128087   4.700   3.638   5.666
 2224TIP3    H228088   4.586   3.712   5.733
 2225TIP3   OH228089   5.436   1.812  15.472
 2225TIP3    H128090   5.434   1.865  15.392
 2225TIP3    H228091   5.503   1.853  15.526
 2226TIP3   OH228092   2.515   1.701   2.019
 2226TIP3    H128093   2.463   1.640   1.966
 2226TIP3    H228094   2.605   1.673   2.007
 2227TIP3   OH228095   3.720   5.016  16.176
 2227TIP3    H128096   3.664   4.973  16.111
 2227TIP3    H228097   3.736   4.950  16.242
 2228TIP3   OH228098   1.542   5.695   1.838
 2228TIP3    H128099   1.498   5.612   1.857
 2228TIP3    H228100   1.471   5.756   1.818
 2229TIP3   OH228101   5.067   6.649  12.930
 2229TIP3    H128102   4.987   6.600  12.910
 2229TIP3    H228103   5.091   6.621  13.019
 2230TIP3   OH228104   5.046   1.847  16.579
 2230TIP3    H128105   5.094   1.911  16.526
 2230TIP3    H228106   5.109   1.778  16.597
 2231TIP3   OH228107   0.730   1.600   3.520
 2231TIP3    H128108   0.647   1.613   3.567
 2231TIP3    H228109   0.724   1.511   3.485
 2232TIP3   OH228110   4.308   5.843  17.006
 2232TIP3    H128111   4.319   5.762  17.057
 2232TIP3    H228112   4.292   5.813  16.917
 2233TIP3   OH228113   1.470   3.259   1.871
 2233TIP3    H128114   1.390   3.244   1.921
 2233TIP3    H228115   1.452   3.339   1.821
 2234TIP3   OH228116   3.809   5.986   2.282
 2234TIP3    H128117   3.790   6.059   2.224
 2234TIP3    H228118   3.898   5.960   2.259
 2235TIP3   OH228119   3.449   5.351   0.383
 2235TIP3    H128120   3.483   5.397   0.307
 2235TIP3    H228121   3.482   5.261   0.373
 2236TIP3   OH228122   4.734   6.229   4.997
 2236TIP3    H128123   4.781   6.148   5.017
 2236TIP3    H228124   4.803   6.295   4.990
 2237TIP3   OH228125   4.694   4.969   0.584
 2237TIP3    H128126   4.653   5.047   0.621
 2237TIP3    H228127   4.724   4.919   0.660
 2238TIP3   OH228128   3.635   4.609  14.407
 2238TIP3    H128129   3.639   4.547  14.479
 2238TIP3    H228130   3.727   4.628  14.387
 2239TIP3   OH228131   2.382   5.406  11.313
 2239TIP3    H128132   2.403   5.342  11.245
 2239TIP3    H228133   2.356   5.485  11.266
 2240TIP3   OH228134   6.041   0.138  15.258
 2240TIP3    H128135   6.115   0.177  15.304
 2240TIP3    H228136   6.010   0.207  15.199
 2241TIP3   OH228137   6.316   6.589  13.168
 2241TIP3    H128138   6.299   6.513  13.224
 2241TIP3    H228139   6.412   6.597  13.167
 2242TIP3   OH228140   4.652   3.934   5.683
 2242TIP3    H128141   4.737   3.913   5.645
 2242TIP3    H228142   4.673   3.973   5.768
 2243TIP3   OH228143   5.483   0.348   2.721
 2243TIP3    H128144   5.530   0.268   2.744
 2243TIP3    H228145   5.541   0.393   2.659
 2244TIP3   OH228146   6.120   2.141   5.228
 2244TIP3    H128147   6.089   2.185   5.148
 2244TIP3    H228148   6.133   2.213   5.290
 2245TIP3   OH228149   6.110   0.014   3.958
 2245TIP3    H128150   6.066  -0.068   3.978
 2245TIP3    H228151   6.062   0.049   3.882
 2246TIP3   OH228152   5.163   6.539   5.995
 2246TIP3    H128153   5.132   6.621   6.032
 2246TIP3    H228154   5.084   6.490   5.974
 2247TIP3   OH228155   4.572   1.566  13.820
 2247TIP3    H128156   4.546   1.629  13.886
 2247TIP3    H228157   4.578   1.483  13.867
 2248TIP3   OH228158   5.113   1.113  15.802
 2248TIP3    H128159   5.048   1.179  15.827
 2248TIP3    H228160   5.197   1.157  15.812
 2249TIP3   OH228161   2.643   1.887  14.096
 2249TIP3    H128162   2.720   1.938  14.119
 2249TIP3    H228163   2.585   1.894  14.172
 2250TIP3   OH228164   4.597   4.906  10.981
 2250TIP3    H128165   4.595   4.844  10.908
 2250TIP3    H228166   4.690   4.919  11.000
 2251TIP3   OH228167   0.225   2.049   5.337
 2251TIP3    H128168   0.222   2.004   5.422
 2251TIP3    H228169   0.246   1.980   5.274
 2252TIP3   OH228170   1.704   6.478   6.628
 2252TIP3    H128171   1.694   6.388   6.661
 2252TIP3    H228172   1.783   6.475   6.574
 2253TIP3   OH228173   4.233   3.147  15.648
 2253TIP3    H128174   4.138   3.139  15.661
 2253TIP3    H228175   4.267   3.168  15.735
 2254TIP3   OH228176   5.657   3.336  14.297
 2254TIP3    H128177   5.676   3.279  14.223
 2254TIP3    H228178   5.666   3.425  14.262
 2255TIP3   OH228179   3.388   3.345  13.772
 2255TIP3    H128180   3.436   3.370  13.852
 2255TIP3    H228181   3.296   3.344  13.799
 2256TIP3   OH228182   3.269   5.240  16.013
 2256TIP3    H128183   3.280   5.240  15.918
 2256TIP3    H228184   3.341   5.295  16.046
 2257TIP3   OH228185   1.794   6.419  14.260
 2257TIP3    H128186   1.812   6.450  14.349
 2257TIP3    H228187   1.875   6.375  14.234
 2258TIP3   OH228188   1.289   5.879  14.111
 2258TIP3    H128189   1.243   5.827  14.176
 2258TIP3    H228190   1.358   5.822  14.079
 2259TIP3   OH228191   0.108   0.070   5.496
 2259TIP3    H128192   0.123  -0.024   5.494
 2259TIP3    H228193   0.113   0.098   5.405
 2260TIP3   OH228194   5.090   2.977   4.280
 2260TIP3    H128195   5.008   2.993   4.326
 2260TIP3    H228196   5.065   2.967   4.188
 2261TIP3   OH228197   0.168   0.359  14.334
 2261TIP3    H128198   0.100   0.308  14.289
 2261TIP3    H228199   0.222   0.394  14.263
 2262TIP3   OH228200   4.334   1.133   2.729
 2262TIP3    H128201   4.299   1.180   2.653
 2262TIP3    H228202   4.423   1.109   2.703
 2263TIP3   OH228203   2.295   5.095  13.787
 2263TIP3    H128204   2.335   5.175  13.753
 2263TIP3    H228205   2.288   5.037  13.711
 2264TIP3   OH228206   6.395   1.625   4.010
 2264TIP3    H128207   6.301   1.638   3.998
 2264TIP3    H228208   6.412   1.538   3.975
 2265TIP3   OH228209   3.821   0.070   0.859
 2265TIP3    H128210   3.847   0.107   0.774
 2265TIP3    H228211   3.882  -0.003   0.872
 2266TIP3   OH228212   1.520   5.407  13.412
 2266TIP3    H128213   1.447   5.354  13.382
 2266TIP3    H228214   1.598   5.363  13.377
 2267TIP3   OH228215   3.054   0.200   4.990
 2267TIP3    H128216   2.997   0.198   4.913
 2267TIP3    H228217   3.140   0.173   4.957
 2268TIP3   OH228218   5.590   1.512   5.449
 2268TIP3    H128219   5.571   1.421   5.469
 2268TIP3    H228220   5.658   1.508   5.381
 2269TIP3   OH228221   3.198   5.242  14.325
 2269TIP3    H128222   3.293   5.249  14.336
 2269TIP3    H228223   3.169   5.185  14.397
 2270TIP3   OH228224   2.203   5.720  15.213
 2270TIP3    H128225   2.295   5.742  15.198
 2270TIP3    H228226   2.165   5.715  15.125
 2271TIP3   OH228227   2.895   2.481   3.317
 2271TIP3    H128228   2.980   2.442   3.337
 2271TIP3    H228229   2.836   2.406   3.307
 2272TIP3   OH228230   4.343   2.095  15.887
 2272TIP3    H128231   4.270   2.151  15.912
 2272TIP3    H228232   4.311   2.048  15.810
 2273TIP3   OH228233   2.931   6.630  14.044
 2273TIP3    H128234   2.851   6.675  14.020
 2273TIP3    H228235   2.902   6.553  14.092
 2274TIP3   OH228236   3.323   2.218   6.594
 2274TIP3    H128237   3.382   2.269   6.539
 2274TIP3    H228238   3.328   2.260   6.680
 2275TIP3   OH228239   5.208   4.791   0.354
 2275TIP3    H128240   5.134   4.849   0.338
 2275TIP3    H228241   5.184   4.708   0.313
 2276TIP3   OH228242   3.150   2.471  14.770
 2276TIP3    H128243   3.059   2.485  14.742
 2276TIP3    H228244   3.163   2.377  14.761
 2277TIP3   OH228245   4.234   2.076   1.475
 2277TIP3    H128246   4.180   2.084   1.396
 2277TIP3    H228247   4.193   2.005   1.524
 2278TIP3   OH228248   3.655   5.781  15.107
 2278TIP3    H128249   3.677   5.836  15.032
 2278TIP3    H228250   3.567   5.748  15.087
 2279TIP3   OH228251   2.049   5.712   3.367
 2279TIP3    H128252   1.959   5.702   3.397
 2279TIP3    H228253   2.094   5.752   3.441
 2280TIP3   OH228254   2.686   1.287   3.513
 2280TIP3    H128255   2.769   1.239   3.512
 2280TIP3    H228256   2.640   1.254   3.590
 2281TIP3   OH228257   5.069   1.893   0.962
 2281TIP3    H128258   5.126   1.818   0.945
 2281TIP3    H228259   5.124   1.954   1.012
 2282TIP3   OH228260   4.327   0.396  13.278
 2282TIP3    H128261   4.245   0.378  13.232
 2282TIP3    H228262   4.326   0.491  13.292
 2283TIP3   OH228263   0.796   4.805   6.064
 2283TIP3    H128264   0.731   4.830   6.130
 2283TIP3    H228265   0.859   4.751   6.111
 2284TIP3   OH228266   6.531   1.606   2.643
 2284TIP3    H128267   6.527   1.561   2.559
 2284TIP3    H228268   6.520   1.536   2.708
 2285TIP3   OH228269   2.140   3.006  11.900
 2285TIP3    H128270   2.065   2.950  11.884
 2285TIP3    H228271   2.177   3.023  11.814
 2286TIP3   OH228272   1.478   3.145   0.426
 2286TIP3    H128273   1.534   3.078   0.387
 2286TIP3    H228274   1.398   3.142   0.374
 2287TIP3   OH228275   1.423   4.085   1.246
 2287TIP3    H128276   1.420   4.181   1.238
 2287TIP3    H228277   1.483   4.070   1.320
 2288TIP3   OH228278   3.558   6.074   2.941
 2288TIP3    H128279   3.568   6.108   2.852
 2288TIP3    H228280   3.533   5.982   2.928
 2289TIP3   OH228281   0.248   4.049  13.522
 2289TIP3    H128282   0.221   4.021  13.609
 2289TIP3    H228283   0.226   3.975  13.465
 2290TIP3   OH228284   5.168   2.817  13.410
 2290TIP3    H128285   5.078   2.823  13.440
 2290TIP3    H228286   5.189   2.906  13.381
 2291TIP3   OH228287   1.948   2.850  13.996
 2291TIP3    H128288   1.950   2.851  14.092
 2291TIP3    H228289   2.037   2.823  13.971
 2292TIP3   OH228290   3.330   0.965  11.796
 2292TIP3    H128291   3.419   0.978  11.829
 2292TIP3    H228292   3.333   0.999  11.707
 2293TIP3   OH228293   4.089   3.482   0.245
 2293TIP3    H128294   4.023   3.545   0.214
 2293TIP3    H228295   4.038   3.411   0.283
 2294TIP3   OH228296   1.337   4.741  15.544
 2294TIP3    H128297   1.252   4.711  15.511
 2294TIP3    H228298   1.348   4.828  15.505
 2295TIP3   OH228299   5.308   0.092  15.033
 2295TIP3    H128300   5.252   0.061  14.962
 2295TIP3    H228301   5.264   0.172  15.065
 2296TIP3   OH228302   6.053   1.564   4.967
 2296TIP3    H128303   6.084   1.478   4.995
 2296TIP3    H228304   5.988   1.589   5.033
 2297TIP3   OH228305   2.529   6.570  12.811
 2297TIP3    H128306   2.525   6.546  12.719
 2297TIP3    H228307   2.611   6.618  12.820
 2298TIP3   OH228308   3.283   1.496   1.261
 2298TIP3    H128309   3.306   1.585   1.285
 2298TIP3    H228310   3.330   1.441   1.324
 2299TIP3   OH228311   5.479   3.404  15.257
 2299TIP3    H128312   5.565   3.408  15.299
 2299TIP3    H228313   5.461   3.494  15.230
 2300TIP3   OH228314   0.711   6.568   1.679
 2300TIP3    H128315   0.708   6.504   1.607
 2300TIP3    H228316   0.680   6.518   1.755
 2301TIP3   OH228317   0.694   4.266   1.332
 2301TIP3    H128318   0.772   4.321   1.321
 2301TIP3    H228319   0.727   4.186   1.375
 2302TIP3   OH228320   0.437   2.717   5.810
 2302TIP3    H128321   0.344   2.728   5.790
 2302TIP3    H228322   0.463   2.637   5.763
 2303TIP3   OH228323   0.403   6.045  14.335
 2303TIP3    H128324   0.344   5.983  14.294
 2303TIP3    H228325   0.489   6.002  14.333
 2304TIP3   OH228326   6.628   3.816  13.312
 2304TIP3    H128327   6.567   3.886  13.288
 2304TIP3    H228328   6.709   3.838  13.267
 2305TIP3   OH228329   6.553   2.563   6.967
 2305TIP3    H128330   6.571   2.501   7.038
 2305TIP3    H228331   6.457   2.563   6.960
 2306TIP3   OH228332   3.449   0.222  10.919
 2306TIP3    H128333   3.500   0.241  10.841
 2306TIP3    H228334   3.414   0.134  10.903
 2307TIP3   OH228335   2.639   3.307  16.349
 2307TIP3    H128336   2.591   3.378  16.393
 2307TIP3    H228337   2.571   3.247  16.320
 2308TIP3   OH228338   3.497   5.841  12.266
 2308TIP3    H128339   3.449   5.785  12.326
 2308TIP3    H228340   3.446   5.922  12.262
 2309TIP3   OH228341   0.182   2.166   4.532
 2309TIP3    H128342   0.149   2.079   4.554
 2309TIP3    H228343   0.267   2.171   4.576
 2310TIP3   OH228344   0.649   2.010  13.520
 2310TIP3    H128345   0.724   1.983  13.467
 2310TIP3    H228346   0.684   2.081  13.575
 2311TIP3   OH228347   0.605   2.967   5.645
 2311TIP3    H128348   0.642   2.896   5.698
 2311TIP3    H228349   0.562   3.024   5.709
 2312TIP3   OH228350   2.201   1.245   6.160
 2312TIP3    H128351   2.200   1.297   6.240
 2312TIP3    H228352   2.273   1.183   6.172
 2313TIP3   OH228353   2.602   0.822   4.290
 2313TIP3    H128354   2.552   0.890   4.336
 2313TIP3    H228355   2.644   0.772   4.359
 2314TIP3   OH228356   6.215   2.462   1.880
 2314TIP3    H128357   6.282   2.396   1.860
 2314TIP3    H228358   6.142   2.440   1.823
 2315TIP3   OH228359   2.476   3.478   4.076
 2315TIP3    H128360   2.400   3.429   4.044
 2315TIP3    H228361   2.522   3.417   4.133
 2316TIP3   OH228362   1.559   1.700  11.533
 2316TIP3    H128363   1.584   1.608  11.545
 2316TIP3    H228364   1.636   1.739  11.492
 2317TIP3   OH228365   1.327   1.404   3.173
 2317TIP3    H128366   1.321   1.442   3.085
 2317TIP3    H228367   1.421   1.393   3.188
 2318TIP3   OH228368   1.610   1.908  15.910
 2318TIP3    H128369   1.584   1.919  16.001
 2318TIP3    H228370   1.565   1.979  15.864
 2319TIP3   OH228371   3.247   2.389  16.405
 2319TIP3    H128372   3.312   2.459  16.398
 2319TIP3    H228373   3.192   2.400  16.328
 2320TIP3   OH228374   1.787   3.752  15.117
 2320TIP3    H128375   1.712   3.695  15.137
 2320TIP3    H228376   1.762   3.796  15.036
 2321TIP3   OH228377   1.634   5.378   4.230
 2321TIP3    H128378   1.706   5.423   4.186
 2321TIP3    H228379   1.649   5.285   4.212
 2322TIP3   OH228380   1.818   4.618   0.897
 2322TIP3    H128381   1.728   4.605   0.927
 2322TIP3    H228382   1.858   4.531   0.904
 2323TIP3   OH228383   0.320   2.753   3.635
 2323TIP3    H128384   0.402   2.801   3.640
 2323TIP3    H228385   0.337   2.683   3.572
 2324TIP3   OH228386   5.122   3.506  13.106
 2324TIP3    H128387   5.119   3.493  13.011
 2324TIP3    H228388   5.214   3.520  13.126
 2325TIP3   OH228389   2.345   0.503  11.657
 2325TIP3    H128390   2.375   0.473  11.743
 2325TIP3    H228391   2.364   0.597  11.658
 2326TIP3   OH228392   2.890   2.230   0.028
 2326TIP3    H128393   2.865   2.300  -0.032
 2326TIP3    H228394   2.962   2.185  -0.016
 2327TIP3   OH228395   0.383   4.758   1.245
 2327TIP3    H128396   0.402   4.682   1.191
 2327TIP3    H228397   0.468   4.800   1.258
 2328TIP3   OH228398   2.911   1.447  14.676
 2328TIP3    H128399   2.988   1.440  14.619
 2328TIP3    H228400   2.874   1.533  14.656
 2329TIP3   OH228401   5.690   3.923  11.396
 2329TIP3    H128402   5.772   3.936  11.444
 2329TIP3    H228403   5.677   3.828  11.395
 2330TIP3   OH228404   5.511   0.369  12.574
 2330TIP3    H128405   5.560   0.344  12.652
 2330TIP3    H228406   5.577   0.380  12.506
 2331TIP3   OH228407   4.979   6.386  15.343
 2331TIP3    H128408   4.995   6.442  15.418
 2331TIP3    H228409   4.929   6.312  15.378
 2332TIP3   OH228410   4.855   3.923   5.358
 2332TIP3    H128411   4.774   3.966   5.333
 2332TIP3    H228412   4.924   3.973   5.313
 2333TIP3   OH228413   2.416   4.315  11.832
 2333TIP3    H128414   2.347   4.375  11.860
 2333TIP3    H228415   2.376   4.263  11.762
 2334TIP3   OH228416   5.382   4.380  11.399
 2334TIP3    H128417   5.296   4.392  11.438
 2334TIP3    H228418   5.397   4.286  11.401
 2335TIP3   OH228419   4.696   6.046  14.463
 2335TIP3    H128420   4.653   6.122  14.502
 2335TIP3    H228421   4.730   6.078  14.379
 2336TIP3   OH228422   1.470   2.777  11.232
 2336TIP3    H128423   1.410   2.841  11.194
 2336TIP3    H228424   1.493   2.720  11.158
 2337TIP3   OH228425   3.309   3.898   3.953
 2337TIP3    H128426   3.402   3.923   3.948
 2337TIP3    H228427   3.287   3.904   4.046
 2338TIP3   OH228428   2.882   5.204  12.385
 2338TIP3    H128429   2.926   5.229  12.466
 2338TIP3    H228430   2.948   5.217  12.317
 2339TIP3   OH228431   0.593   4.630  12.963
 2339TIP3    H128432   0.522   4.581  12.922
 2339TIP3    H228433   0.659   4.564  12.984
 2340TIP3   OH228434   0.662   5.829  17.147
 2340TIP3    H128435   0.686   5.894  17.213
 2340TIP3    H228436   0.745   5.801  17.109
 2341TIP3   OH228437   3.903   2.773  16.862
 2341TIP3    H128438   3.956   2.851  16.879
 2341TIP3    H228439   3.936   2.739  16.779
 2342TIP3   OH228440   3.188   0.039   5.618
 2342TIP3    H128441   3.283   0.048   5.618
 2342TIP3    H228442   3.156   0.127   5.601
 2343TIP3   OH228443   2.801   6.288  16.433
 2343TIP3    H128444   2.755   6.298  16.516
 2343TIP3    H228445   2.752   6.219  16.387
 2344TIP3   OH228446   4.242   6.115  13.889
 2344TIP3    H128447   4.280   6.064  13.960
 2344TIP3    H228448   4.181   6.055  13.846
 2345TIP3   OH228449   1.810   2.586   0.735
 2345TIP3    H128450   1.714   2.585   0.741
 2345TIP3    H228451   1.838   2.512   0.789
 2346TIP3   OH228452   0.015   0.607   2.368
 2346TIP3    H128453   0.046   0.662   2.297
 2346TIP3    H228454  -0.065   0.567   2.334
 2347TIP3   OH228455   3.029   3.751   0.179
 2347TIP3    H128456   3.104   3.699   0.150
 2347TIP3    H228457   3.008   3.716   0.266
 2348TIP3   OH228458   4.610   6.464   3.119
 2348TIP3    H128459   4.558   6.421   3.052
 2348TIP3    H228460   4.589   6.557   3.110
 2349TIP3   OH228461   4.193   0.489  16.717
 2349TIP3    H128462   4.141   0.565  16.743
 2349TIP3    H228463   4.266   0.489  16.778
 2350TIP3   OH228464   6.200   0.886  11.744
 2350TIP3    H128465   6.145   0.813  11.716
 2350TIP3    H228466   6.195   0.950  11.673
 2351TIP3   OH228467   1.770   5.256  13.386
 2351TIP3    H128468   1.801   5.170  13.415
 2351TIP3    H228469   1.831   5.280  13.315
 2352TIP3   OH228470   0.937   2.846   4.985
 2352TIP3    H128471   0.857   2.864   5.036
 2352TIP3    H228472   0.948   2.923   4.930
 2353TIP3   OH228473   2.999   5.563   5.703
 2353TIP3    H128474   2.969   5.482   5.744
 2353TIP3    H228475   3.073   5.536   5.648
 2354TIP3   OH228476   3.052   1.605   0.992
 2354TIP3    H128477   3.114   1.591   1.063
 2354TIP3    H228478   3.076   1.690   0.956
 2355TIP3   OH228479   3.512   4.356  17.083
 2355TIP3    H128480   3.537   4.266  17.060
 2355TIP3    H228481   3.582   4.387  17.139
 2356TIP3   OH228482   1.036   5.673  11.529
 2356TIP3    H128483   1.047   5.689  11.622
 2356TIP3    H228484   1.124   5.656  11.496
 2357TIP3   OH228485   0.551   6.534  13.818
 2357TIP3    H128486   0.568   6.604  13.881
 2357TIP3    H228487   0.481   6.568  13.763
 2358TIP3   OH228488   2.210   1.205  12.262
 2358TIP3    H128489   2.305   1.215  12.258
 2358TIP3    H228490   2.177   1.294  12.261
 2359TIP3   OH228491   3.366   0.906  13.312
 2359TIP3    H128492   3.277   0.886  13.342
 2359TIP3    H228493   3.367   1.002  13.305
 2360TIP3   OH228494   6.000   3.789  14.777
 2360TIP3    H128495   5.930   3.727  14.758
 2360TIP3    H228496   5.985   3.861  14.716
 2361TIP3   OH228497   5.697   4.065   5.364
 2361TIP3    H128498   5.724   3.983   5.404
 2361TIP3    H228499   5.716   4.131   5.430
 2362TIP3   OH228500   5.992   0.269  16.547
 2362TIP3    H128501   6.000   0.322  16.627
 2362TIP3    H228502   6.047   0.315  16.483
 2363TIP3   OH228503   3.300   3.625   0.660
 2363TIP3    H128504   3.215   3.618   0.703
 2363TIP3    H228505   3.299   3.558   0.592
 2364TIP3   OH228506   1.637   2.898  17.171
 2364TIP3    H128507   1.708   2.844  17.207
 2364TIP3    H228508   1.643   2.980  17.220
 2365TIP3   OH228509   1.607   0.485   2.224
 2365TIP3    H128510   1.565   0.559   2.179
 2365TIP3    H228511   1.684   0.465   2.170
 2366TIP3   OH228512   2.330   0.686   2.472
 2366TIP3    H128513   2.321   0.602   2.428
 2366TIP3    H228514   2.306   0.668   2.563
 2367TIP3   OH228515   4.244   1.706  16.413
 2367TIP3    H128516   4.286   1.636  16.463
 2367TIP3    H228517   4.317   1.757  16.378
 2368TIP3   OH228518   6.408   3.896  12.905
 2368TIP3    H128519   6.425   3.990  12.902
 2368TIP3    H228520   6.492   3.856  12.926
 2369TIP3   OH228521   1.496   5.900   0.514
 2369TIP3    H128522   1.401   5.908   0.509
 2369TIP3    H228523   1.528   5.944   0.435
 2370TIP3   OH228524   4.742   0.815   5.857
 2370TIP3    H128525   4.656   0.821   5.897
 2370TIP3    H228526   4.771   0.726   5.877
 2371TIP3   OH228527   3.854   2.668  11.629
 2371TIP3    H128528   3.904   2.590  11.653
 2371TIP3    H228529   3.830   2.708  11.712
 2372TIP3   OH228530   1.333   5.636   5.015
 2372TIP3    H128531   1.371   5.711   4.968
 2372TIP3    H228532   1.278   5.675   5.082
 2373TIP3   OH228533   6.180   0.697   1.031
 2373TIP3    H128534   6.116   0.733   1.093
 2373TIP3    H228535   6.126   0.646   0.970
 2374TIP3   OH228536   0.922   5.568  15.530
 2374TIP3    H128537   0.844   5.584  15.584
 2374TIP3    H228538   0.974   5.506  15.580
 2375TIP3   OH228539   2.359   1.191   1.159
 2375TIP3    H128540   2.366   1.107   1.114
 2375TIP3    H228541   2.285   1.181   1.218
 2376TIP3   OH228542   2.690   0.950  13.381
 2376TIP3    H128543   2.766   0.998  13.346
 2376TIP3    H228544   2.615   1.006  13.360
 2377TIP3   OH228545   3.998   4.175   1.716
 2377TIP3    H128546   4.038   4.100   1.761
 2377TIP3    H228547   3.951   4.136   1.642
 2378TIP3   OH228548   5.668   4.007  12.492
 2378TIP3    H128549   5.746   4.044  12.452
 2378TIP3    H228550   5.610   4.082  12.506
 2379TIP3   OH228551   1.057   0.135  13.817
 2379TIP3    H128552   0.998   0.190  13.868
 2379TIP3    H228553   1.015   0.128  13.731
 2380TIP3   OH228554   0.136   4.555   0.386
 2380TIP3    H128555   0.046   4.583   0.406
 2380TIP3    H228556   0.128   4.505   0.305
 2381TIP3   OH228557   4.664   5.496   5.956
 2381TIP3    H128558   4.650   5.575   6.009
 2381TIP3    H228559   4.758   5.494   5.940
 2382TIP3   OH228560   0.398   4.527   4.559
 2382TIP3    H128561   0.430   4.445   4.523
 2382TIP3    H228562   0.466   4.553   4.623
 2383TIP3   OH228563   3.270   2.358   0.449
 2383TIP3    H128564   3.232   2.274   0.475
 2383TIP3    H228565   3.354   2.336   0.409
 2384TIP3   OH228566   6.036   0.119  15.595
 2384TIP3    H128567   6.020   0.077  15.511
 2384TIP3    H228568   5.994   0.062  15.659
 2385TIP3   OH228569   0.908   0.240  16.471
 2385TIP3    H128570   0.908   0.274  16.561
 2385TIP3    H228571   0.830   0.280  16.431
 2386TIP3   OH228572   2.941   6.134   4.392
 2386TIP3    H128573   2.920   6.211   4.339
 2386TIP3    H228574   2.857   6.090   4.404
 2387TIP3   OH228575   0.349   3.167   5.211
 2387TIP3    H128576   0.441   3.165   5.238
 2387TIP3    H228577   0.343   3.100   5.143
 2388TIP3   OH228578   3.469   1.143   4.969
 2388TIP3    H128579   3.513   1.226   4.951
 2388TIP3    H228580   3.538   1.078   4.961
 2389TIP3   OH228581   1.451   1.142   0.310
 2389TIP3    H128582   1.522   1.194   0.347
 2389TIP3    H228583   1.419   1.089   0.382
 2390TIP3   OH228584   6.688   3.833  12.960
 2390TIP3    H128585   6.737   3.772  13.014
 2390TIP3    H228586   6.717   3.816  12.870
 2391TIP3   OH228587   6.555   6.443   0.626
 2391TIP3    H128588   6.595   6.412   0.707
 2391TIP3    H228589   6.461   6.434   0.641
 2392TIP3   OH228590   3.816   4.490   4.426
 2392TIP3    H128591   3.802   4.530   4.511
 2392TIP3    H228592   3.731   4.454   4.401
 2393TIP3   OH228593   6.453   3.952   2.925
 2393TIP3    H128594   6.507   4.028   2.902
 2393TIP3    H228595   6.486   3.882   2.870
 2394TIP3   OH228596   5.348   2.823   2.475
 2394TIP3    H128597   5.305   2.793   2.396
 2394TIP3    H228598   5.296   2.786   2.547
 2395TIP3   OH228599   6.049   4.943   5.579
 2395TIP3    H128600   6.024   5.007   5.645
 2395TIP3    H228601   5.967   4.922   5.535
 2396TIP3   OH228602   5.761   6.722  13.065
 2396TIP3    H128603   5.811   6.684  13.137
 2396TIP3    H228604   5.680   6.671  13.062
 2397TIP3   OH228605   0.914   6.224   3.064
 2397TIP3    H128606   0.858   6.251   2.991
 2397TIP3    H228607   0.941   6.135   3.042
 2398TIP3   OH228608   5.792   6.311  12.791
 2398TIP3    H128609   5.698   6.318  12.807
 2398TIP3    H228610   5.799   6.256  12.713
 2399TIP3   OH228611   4.399   0.871   4.772
 2399TIP3    H128612   4.328   0.879   4.707
 2399TIP3    H228613   4.373   0.796   4.826
 2400TIP3   OH228614   4.604   3.299   1.759
 2400TIP3    H128615   4.674   3.359   1.784
 2400TIP3    H228616   4.572   3.264   1.842
 2401TIP3   OH228617   3.122   2.429   4.457
 2401TIP3    H128618   3.198   2.387   4.497
 2401TIP3    H228619   3.113   2.512   4.503
 2402TIP3   OH228620   3.811   1.583  11.036
 2402TIP3    H128621   3.862   1.552  10.961
 2402TIP3    H228622   3.876   1.608  11.101
 2403TIP3   OH228623   2.780   4.452   0.508
 2403TIP3    H128624   2.833   4.514   0.557
 2403TIP3    H228625   2.843   4.388   0.474
 2404TIP3   OH228626   2.083   4.208  16.308
 2404TIP3    H128627   2.084   4.197  16.213
 2404TIP3    H228628   2.146   4.277  16.325
 2405TIP3   OH228629   5.094   0.822   2.112
 2405TIP3    H128630   5.083   0.877   2.033
 2405TIP3    H228631   5.110   0.885   2.182
 2406TIP3   OH228632   3.569   4.328   4.068
 2406TIP3    H128633   3.608   4.388   4.005
 2406TIP3    H228634   3.564   4.378   4.149
 2407TIP3   OH228635   3.629   3.046   6.304
 2407TIP3    H128636   3.570   3.005   6.241
 2407TIP3    H228637   3.714   3.005   6.288
 2408TIP3   OH228638   4.000   0.954   3.259
 2408TIP3    H128639   4.059   0.917   3.324
 2408TIP3    H228640   3.927   0.892   3.254
 2409TIP3   OH228641   6.382   3.899  15.491
 2409TIP3    H128642   6.454   3.948  15.452
 2409TIP3    H228643   6.311   3.904  15.428
 2410TIP3   OH228644   0.366   4.441  16.445
 2410TIP3    H128645   0.412   4.424  16.363
 2410TIP3    H228646   0.341   4.354  16.477
 2411TIP3   OH228647   1.666   0.762   5.643
 2411TIP3    H128648   1.601   0.715   5.695
 2411TIP3    H228649   1.637   0.854   5.646
 2412TIP3   OH228650   6.418   4.547  10.962
 2412TIP3    H128651   6.491   4.507  10.915
 2412TIP3    H228652   6.341   4.526  10.909
 2413TIP3   OH228653   1.794   3.238  11.467
 2413TIP3    H128654   1.762   3.189  11.542
 2413TIP3    H228655   1.744   3.203  11.392
 2414TIP3   OH228656   2.943   2.823  12.190
 2414TIP3    H128657   2.955   2.887  12.261
 2414TIP3    H228658   2.877   2.763  12.223
 2415TIP3   OH228659   1.766   6.647   5.099
 2415TIP3    H128660   1.773   6.660   5.193
 2415TIP3    H228661   1.788   6.554   5.086
 2416TIP3   OH228662   4.089   1.320   3.140
 2416TIP3    H128663   4.151   1.265   3.188
 2416TIP3    H228664   4.021   1.260   3.110
 2417TIP3   OH228665   4.498   4.886   5.378
 2417TIP3    H128666   4.451   4.949   5.432
 2417TIP3    H228667   4.503   4.807   5.432
 2418TIP3   OH228668   1.014   5.734   4.451
 2418TIP3    H128669   0.940   5.757   4.396
 2418TIP3    H228670   0.975   5.702   4.533
 2419TIP3   OH228671   2.872   6.610   1.914
 2419TIP3    H128672   2.810   6.683   1.926
 2419TIP3    H228673   2.818   6.531   1.922
 2420TIP3   OH228674   0.824   6.161  15.317
 2420TIP3    H128675   0.757   6.094  15.331
 2420TIP3    H228676   0.843   6.194  15.405
 2421TIP3   OH228677   3.795   3.076  13.660
 2421TIP3    H128678   3.801   2.995  13.609
 2421TIP3    H228679   3.783   3.047  13.750
 2422TIP3   OH228680   6.692   6.437  16.158
 2422TIP3    H128681   6.633   6.395  16.096
 2422TIP3    H228682   6.683   6.530  16.141
 2423TIP3   OH228683   1.761   2.273   1.701
 2423TIP3    H128684   1.826   2.237   1.762
 2423TIP3    H228685   1.761   2.211   1.627
 2424TIP3   OH228686   5.014   2.577   0.521
 2424TIP3    H128687   5.015   2.622   0.437
 2424TIP3    H228688   4.973   2.492   0.503
 2425TIP3   OH228689   5.332   0.641   3.662
 2425TIP3    H128690   5.387   0.640   3.584
 2425TIP3    H228691   5.270   0.570   3.648
 2426TIP3   OH228692   0.569   4.392   5.634
 2426TIP3    H128693   0.611   4.309   5.655
 2426TIP3    H228694   0.573   4.443   5.715
 2427TIP3   OH228695   6.597   2.254   3.053
 2427TIP3    H128696   6.572   2.211   3.135
 2427TIP3    H228697   6.545   2.211   2.986
 2428TIP3   OH228698   3.447   5.138   4.542
 2428TIP3    H128699   3.404   5.145   4.457
 2428TIP3    H228700   3.409   5.061   4.583
 2429TIP3   OH228701   0.858   1.540  15.069
 2429TIP3    H128702   0.822   1.613  15.019
 2429TIP3    H228703   0.817   1.462  15.031
 2430TIP3   OH228704   2.038   5.937   2.904
 2430TIP3    H128705   2.034   5.848   2.869
 2430TIP3    H228706   2.015   5.927   2.997
 2431TIP3   OH228707   4.960   0.715  15.809
 2431TIP3    H128708   4.947   0.707  15.714
 2431TIP3    H228709   4.933   0.631  15.844
 2432TIP3   OH228710   0.196   2.577   0.239
 2432TIP3    H128711   0.124   2.590   0.178
 2432TIP3    H228712   0.162   2.515   0.304
 2433TIP3   OH228713   6.633   2.324  15.966
 2433TIP3    H128714   6.691   2.397  15.943
 2433TIP3    H228715   6.564   2.364  16.019
 2434TIP3   OH228716   1.838   5.419  16.711
 2434TIP3    H128717   1.909   5.395  16.770
 2434TIP3    H228718   1.873   5.403  16.623
 2435TIP3   OH228719   0.535   6.629   5.477
 2435TIP3    H128720   0.556   6.673   5.394
 2435TIP3    H228721   0.557   6.537   5.461
 2436TIP3   OH228722   3.989   1.203  10.783
 2436TIP3    H128723   4.020   1.186  10.694
 2436TIP3    H228724   3.899   1.170  10.784
 2437TIP3   OH228725   3.089   4.645  14.208
 2437TIP3    H128726   2.994   4.632  14.212
 2437TIP3    H228727   3.116   4.654  14.299
 2438TIP3   OH228728   0.296   5.120   4.786
 2438TIP3    H128729   0.371   5.066   4.765
 2438TIP3    H228730   0.302   5.134   4.880
 2439TIP3   OH228731   5.225   2.656  16.350
 2439TIP3    H128732   5.236   2.675  16.257
 2439TIP3    H228733   5.141   2.696  16.373
 2440TIP3   OH228734   2.185   2.468   3.045
 2440TIP3    H128735   2.168   2.374   3.045
 2440TIP3    H228736   2.245   2.482   2.972
 2441TIP3   OH228737   1.625   5.199   5.721
 2441TIP3    H128738   1.586   5.111   5.730
 2441TIP3    H228739   1.650   5.205   5.629
 2442TIP3   OH228740   5.546   0.700   3.390
 2442TIP3    H128741   5.638   0.693   3.416
 2442TIP3    H228742   5.542   0.779   3.337
 2443TIP3   OH228743   0.175   6.493  11.128
 2443TIP3    H128744   0.109   6.425  11.117
 2443TIP3    H228745   0.252   6.459  11.082
 2444TIP3   OH228746   0.347   0.822  15.801
 2444TIP3    H128747   0.258   0.842  15.770
 2444TIP3    H228748   0.404   0.846  15.727
 2445TIP3   OH228749   0.506   5.985  15.632
 2445TIP3    H128750   0.477   5.992  15.723
 2445TIP3    H228751   0.506   6.075  15.599
 2446TIP3   OH228752   0.603   0.530  12.699
 2446TIP3    H128753   0.638   0.611  12.662
 2446TIP3    H228754   0.596   0.470  12.625
 2447TIP3   OH228755   4.683   5.874   1.727
 2447TIP3    H128756   4.734   5.927   1.789
 2447TIP3    H228757   4.592   5.901   1.742
 2448TIP3   OH228758   5.172   4.991   6.002
 2448TIP3    H128759   5.150   4.987   5.909
 2448TIP3    H228760   5.182   4.900   6.029
 2449TIP3   OH228761   4.076   5.786   4.157
 2449TIP3    H128762   4.009   5.768   4.091
 2449TIP3    H228763   4.159   5.787   4.109
 2450TIP3   OH228764   5.381   6.641   0.574
 2450TIP3    H128765   5.338   6.584   0.510
 2450TIP3    H228766   5.343   6.728   0.557
 2451TIP3   OH228767   6.066   4.775  14.334
 2451TIP3    H128768   6.084   4.868  14.320
 2451TIP3    H228769   6.071   4.736  14.247
 2452TIP3   OH228770   3.501   5.253   5.406
 2452TIP3    H128771   3.493   5.347   5.391
 2452TIP3    H228772   3.564   5.224   5.340
 2453TIP3   OH228773   5.647   6.666  16.793
 2453TIP3    H128774   5.552   6.667  16.805
 2453TIP3    H228775   5.682   6.693  16.878
 2454TIP3   OH228776   3.055   4.599   5.626
 2454TIP3    H128777   3.029   4.522   5.677
 2454TIP3    H228778   2.997   4.669   5.656
 2455TIP3   OH228779   1.426   6.207  14.809
 2455TIP3    H128780   1.387   6.206  14.721
 2455TIP3    H228781   1.361   6.165  14.865
 2456TIP3   OH228782   4.133   6.756   0.780
 2456TIP3    H128783   4.122   6.836   0.831
 2456TIP3    H228784   4.202   6.777   0.717
 2457TIP3   OH228785   0.254   0.545  15.889
 2457TIP3    H128786   0.268   0.534  15.983
 2457TIP3    H228787   0.271   0.638  15.873
 2458TIP3   OH228788   3.618   2.184   3.968
 2458TIP3    H128789   3.570   2.225   4.040
 2458TIP3    H228790   3.665   2.257   3.927
 2459TIP3   OH228791   4.274   5.170  15.253
 2459TIP3    H128792   4.212   5.132  15.191
 2459TIP3    H228793   4.358   5.169  15.207
 2460TIP3   OH228794   4.980   6.216   3.228
 2460TIP3    H128795   4.991   6.308   3.204
 2460TIP3    H228796   5.069   6.180   3.228
 2461TIP3   OH228797   0.822   6.762  10.726
 2461TIP3    H128798   0.814   6.777  10.820
 2461TIP3    H228799   0.900   6.811  10.700
 2462TIP3   OH228800   0.019   5.897  17.216
 2462TIP3    H128801   0.093   5.944  17.255
 2462TIP3    H228802   0.005   5.822  17.273
 2463TIP3   OH228803   5.384   0.098   1.843
 2463TIP3    H128804   5.374   0.108   1.748
 2463TIP3    H228805   5.432   0.016   1.854
 2464TIP3   OH228806   3.129   2.791  15.307
 2464TIP3    H128807   3.116   2.776  15.213
 2464TIP3    H228808   3.214   2.835  15.313
 2465TIP3   OH228809   3.583   6.596   1.135
 2465TIP3    H128810   3.584   6.679   1.087
 2465TIP3    H228811   3.543   6.534   1.073
 2466TIP3   OH228812   1.540   5.890   0.795
 2466TIP3    H128813   1.546   5.941   0.715
 2466TIP3    H228814   1.511   5.803   0.766
 2467TIP3   OH228815   2.181   3.470  12.195
 2467TIP3    H128816   2.101   3.482  12.143
 2467TIP3    H228817   2.150   3.446  12.282
 2468TIP3   OH228818   1.637   6.199  16.811
 2468TIP3    H128819   1.722   6.164  16.835
 2468TIP3    H228820   1.631   6.282  16.858
 2469TIP3   OH228821   5.979   0.648  12.415
 2469TIP3    H128822   5.987   0.708  12.340
 2469TIP3    H228823   6.057   0.593  12.410
 2470TIP3   OH228824   0.423   6.282  11.664
 2470TIP3    H128825   0.492   6.302  11.726
 2470TIP3    H228826   0.361   6.355  11.672
 2471TIP3   OH228827   3.824   0.520  12.621
 2471TIP3    H128828   3.768   0.594  12.646
 2471TIP3    H228829   3.912   0.557  12.619
 2472TIP3   OH228830   0.348   4.662  14.813
 2472TIP3    H128831   0.271   4.656  14.870
 2472TIP3    H228832   0.313   4.666  14.724
 2473TIP3   OH228833   5.419   5.833   3.703
 2473TIP3    H128834   5.450   5.923   3.693
 2473TIP3    H228835   5.452   5.805   3.788
 2474TIP3   OH228836   2.301   4.118   2.015
 2474TIP3    H128837   2.301   4.141   1.922
 2474TIP3    H228838   2.220   4.157   2.049
 2475TIP3   OH228839   4.900   0.933  12.603
 2475TIP3    H128840   4.874   0.861  12.546
 2475TIP3    H228841   4.824   0.947  12.660
 2476TIP3   OH228842   6.111   4.336   4.771
 2476TIP3    H128843   6.170   4.353   4.844
 2476TIP3    H228844   6.077   4.422   4.746
 2477TIP3   OH228845   4.890   5.845  12.268
 2477TIP3    H128846   4.902   5.846  12.173
 2477TIP3    H228847   4.808   5.797  12.281
 2478TIP3   OH228848   2.355   6.749   2.313
 2478TIP3    H128849   2.285   6.738   2.249
 2478TIP3    H228850   2.416   6.810   2.271
 2479TIP3   OH228851   4.625   5.194   3.112
 2479TIP3    H128852   4.631   5.214   3.206
 2479TIP3    H228853   4.627   5.280   3.070
 2480TIP3   OH228854   0.314   5.952   1.387
 2480TIP3    H128855   0.386   5.913   1.437
 2480TIP3    H228856   0.291   6.030   1.437
 2481TIP3   OH228857   2.500   1.376   0.939
 2481TIP3    H128858   2.527   1.434   1.010
 2481TIP3    H228859   2.422   1.333   0.972
 2482TIP3   OH228860   0.663   4.559   3.755
 2482TIP3    H128861   0.710   4.484   3.793
 2482TIP3    H228862   0.596   4.580   3.820
 2483TIP3   OH228863   5.559   4.077   5.121
 2483TIP3    H128864   5.603   4.075   5.207
 2483TIP3    H228865   5.627   4.052   5.059
 2484TIP3   OH228866   0.016   5.295  14.907
 2484TIP3    H128867   0.068   5.227  14.950
 2484TIP3    H228868   0.046   5.377  14.946
 2485TIP3   OH228869   0.031   5.814   1.291
 2485TIP3    H128870   0.103   5.838   1.233
 2485TIP3    H228871  -0.048   5.842   1.245
 2486TIP3   OH228872   0.990   0.638  14.706
 2486TIP3    H128873   0.911   0.685  14.731
 2486TIP3    H228874   1.032   0.615  14.789
 2487TIP3   OH228875   3.911   0.087   5.875
 2487TIP3    H128876   3.947   0.153   5.933
 2487TIP3    H228877   3.985   0.030   5.854
 2488TIP3   OH228878   5.090   2.434   5.763
 2488TIP3    H128879   5.067   2.526   5.754
 2488TIP3    H228880   5.069   2.413   5.854
 2489TIP3   OH228881   3.057   3.075  11.389
 2489TIP3    H128882   3.036   3.078  11.482
 2489TIP3    H228883   3.152   3.073  11.385
 2490TIP3   OH228884   1.673   5.496  14.134
 2490TIP3    H128885   1.636   5.576  14.098
 2490TIP3    H228886   1.607   5.429  14.116
 2491TIP3   OH228887   3.306   3.155   3.891
 2491TIP3    H128888   3.299   3.078   3.948
 2491TIP3    H228889   3.364   3.127   3.820
 2492TIP3   OH228890   6.254   4.756  11.033
 2492TIP3    H128891   6.329   4.703  11.006
 2492TIP3    H228892   6.284   4.800  11.113
 2493TIP3   OH228893   1.360   4.076   5.405
 2493TIP3    H128894   1.284   4.105   5.455
 2493TIP3    H228895   1.374   3.986   5.433
 2494TIP3   OH228896   6.679   4.086  13.130
 2494TIP3    H128897   6.588   4.066  13.151
 2494TIP3    H228898   6.708   4.012  13.077
 2495TIP3   OH228899   1.833   5.008   0.897
 2495TIP3    H128900   1.920   5.044   0.879
 2495TIP3    H228901   1.841   4.914   0.880
 2496TIP3   OH228902   2.299   2.782   5.051
 2496TIP3    H128903   2.237   2.765   4.981
 2496TIP3    H228904   2.326   2.873   5.037
 2497TIP3   OH228905   4.418   1.713  10.626
 2497TIP3    H128906   4.336   1.740  10.586
 2497TIP3    H228907   4.395   1.636  10.678
 2498TIP3   OH228908   2.383   1.421   3.600
 2498TIP3    H128909   2.406   1.453   3.513
 2498TIP3    H228910   2.408   1.328   3.599
 2499TIP3   OH228911   5.577   0.232   3.070
 2499TIP3    H128912   5.483   0.212   3.072
 2499TIP3    H228913   5.601   0.248   3.161
 2500TIP3   OH228914   3.489   3.500   0.979
 2500TIP3    H128915   3.414   3.554   0.955
 2500TIP3    H228916   3.558   3.562   1.000
 2501TIP3   OH228917   3.912   6.233  12.284
 2501TIP3    H128918   3.959   6.193  12.210
 2501TIP3    H228919   3.973   6.225  12.357
 2502TIP3   OH228920   0.446   2.993   3.058
 2502TIP3    H128921   0.402   2.947   3.130
 2502TIP3    H228922   0.496   3.062   3.102
 2503TIP3   OH228923   4.606   6.758   4.037
 2503TIP3    H128924   4.615   6.663   4.035
 2503TIP3    H228925   4.674   6.790   3.978
 2504TIP3   OH228926   1.124   6.045  11.739
 2504TIP3    H128927   1.197   6.006  11.690
 2504TIP3    H228928   1.092   5.975  11.795
 2505TIP3   OH228929   5.433   2.813  12.152
 2505TIP3    H128930   5.471   2.748  12.093
 2505TIP3    H228931   5.351   2.839  12.110
 2506TIP3   OH228932   6.137   2.006  16.121
 2506TIP3    H128933   6.113   2.052  16.040
 2506TIP3    H228934   6.227   2.031  16.137
 2507TIP3   OH228935   5.672   1.969   4.024
 2507TIP3    H128936   5.662   1.928   3.939
 2507TIP3    H228937   5.582   1.983   4.055
 2508TIP3   OH228938   1.200   3.714   3.419
 2508TIP3    H128939   1.227   3.776   3.352
 2508TIP3    H228940   1.277   3.707   3.476
 2509TIP3   OH228941   3.914   1.418   5.781
 2509TIP3    H128942   3.843   1.366   5.743
 2509TIP3    H228943   3.993   1.386   5.737
 2510TIP3   OH228944   3.244   1.853   6.010
 2510TIP3    H128945   3.279   1.831   5.924
 2510TIP3    H228946   3.160   1.808   6.015
 2511TIP3   OH228947   6.342   4.904   4.258
 2511TIP3    H128948   6.359   4.815   4.288
 2511TIP3    H228949   6.416   4.925   4.201
 2512TIP3   OH228950   2.023   3.218  13.385
 2512TIP3    H128951   2.021   3.234  13.290
 2512TIP3    H228952   2.111   3.246  13.412
 2513TIP3   OH228953   5.737   3.619  16.714
 2513TIP3    H128954   5.717   3.703  16.673
 2513TIP3    H228955   5.829   3.625  16.737
 2514TIP3   OH228956   2.293   4.018  16.309
 2514TIP3    H128957   2.296   4.021  16.213
 2514TIP3    H228958   2.213   4.066  16.332
 2515TIP3   OH228959   5.767   4.324  10.862
 2515TIP3    H128960   5.730   4.389  10.803
 2515TIP3    H228961   5.786   4.372  10.942
 2516TIP3   OH228962   6.446   6.624  11.151
 2516TIP3    H128963   6.386   6.580  11.092
 2516TIP3    H228964   6.532   6.613  11.111
 2517TIP3   OH228965   4.245   4.482  15.265
 2517TIP3    H128966   4.154   4.487  15.237
 2517TIP3    H228967   4.248   4.529  15.348
 2518TIP3   OH228968   4.555   1.966  10.520
 2518TIP3    H128969   4.491   1.938  10.455
 2518TIP3    H228970   4.592   1.885  10.554
 2519TIP3   OH228971   4.725   6.480  15.831
 2519TIP3    H128972   4.773   6.558  15.802
 2519TIP3    H228973   4.729   6.483  15.926
 2520TIP3   OH228974   4.947   5.183  17.239
 2520TIP3    H128975   4.871   5.131  17.215
 2520TIP3    H228976   4.929   5.210  17.330
 2521TIP3   OH228977   4.692   1.932  12.940
 2521TIP3    H128978   4.678   1.841  12.913
 2521TIP3    H228979   4.742   1.970  12.867
 2522TIP3   OH228980   3.998   0.411  16.373
 2522TIP3    H128981   3.941   0.423  16.448
 2522TIP3    H228982   3.942   0.372  16.306
 2523TIP3   OH228983   5.896   5.509  15.566
 2523TIP3    H128984   5.810   5.547  15.582
 2523TIP3    H228985   5.915   5.458  15.645
 2524TIP3   OH228986   2.395   6.784   3.225
 2524TIP3    H128987   2.456   6.828   3.283
 2524TIP3    H228988   2.450   6.745   3.157
 2525TIP3   OH228989   4.650   0.169  10.256
 2525TIP3    H128990   4.605   0.118  10.324
 2525TIP3    H228991   4.586   0.236  10.231
 2526TIP3   OH228992   6.606   6.045   0.270
 2526TIP3    H128993   6.608   6.128   0.318
 2526TIP3    H228994   6.553   6.064   0.192
 2527TIP3   OH228995   6.549   6.623  12.674
 2527TIP3    H128996   6.506   6.609  12.589
 2527TIP3    H228997   6.500   6.567  12.735
 2528TIP3   OH228998   5.616   2.149   4.763
 2528TIP3    H128999   5.579   2.074   4.809
 2528TIP3    H229000   5.620   2.218   4.829
 2529TIP3   OH229001   4.015   0.477  15.244
 2529TIP3    H129002   4.023   0.559  15.291
 2529TIP3    H229003   3.925   0.447  15.261
 2530TIP3   OH229004   2.014   0.931   2.079
 2530TIP3    H129005   1.920   0.941   2.069
 2530TIP3    H229006   2.041   1.007   2.131
 2531TIP3   OH229007   1.570   0.209  11.433
 2531TIP3    H129008   1.521   0.240  11.509
 2531TIP3    H229009   1.504   0.200  11.364
 2532TIP3   OH229010   1.169   1.670   1.545
 2532TIP3    H129011   1.083   1.645   1.511
 2532TIP3    H229012   1.194   1.597   1.603
 2533TIP3   OH229013   4.005   2.206   3.931
 2533TIP3    H129014   4.045   2.143   3.992
 2533TIP3    H229015   4.018   2.167   3.845
 2534TIP3   OH229016   5.545   6.080  16.147
 2534TIP3    H129017   5.506   5.993  16.152
 2534TIP3    H229018   5.474   6.139  16.171
 2535TIP3   OH229019   6.391   3.759   4.668
 2535TIP3    H129020   6.425   3.672   4.684
 2535TIP3    H229021   6.333   3.777   4.742
 2536TIP3   OH229022   4.823   4.551  12.281
 2536TIP3    H129023   4.885   4.583  12.215
 2536TIP3    H229024   4.839   4.607  12.357
 2537TIP3   OH229025   1.901   1.544   3.158
 2537TIP3    H129026   1.938   1.608   3.218
 2537TIP3    H229027   1.958   1.548   3.081
 2538TIP3   OH229028   0.962   1.527   4.049
 2538TIP3    H129029   0.986   1.550   3.959
 2538TIP3    H229030   0.945   1.433   4.046
 2539TIP3   OH229031   1.394   0.163   4.444
 2539TIP3    H129032   1.437   0.186   4.527
 2539TIP3    H229033   1.381   0.248   4.400
 2540TIP3   OH229034   4.585   4.518  10.603
 2540TIP3    H129035   4.550   4.521  10.692
 2540TIP3    H229036   4.615   4.607  10.586
 2541TIP3   OH229037   0.267   6.115  15.958
 2541TIP3    H129038   0.249   6.047  16.024
 2541TIP3    H229039   0.360   6.104  15.937
 2542TIP3   OH229040   2.887   0.864  12.479
 2542TIP3    H129041   2.956   0.870  12.412
 2542TIP3    H229042   2.924   0.910  12.555
 2543TIP3   OH229043   6.254   5.251  15.378
 2543TIP3    H129044   6.294   5.180  15.428
 2543TIP3    H229045   6.193   5.208  15.319
 2544TIP3   OH229046   6.125   0.434   1.296
 2544TIP3    H129047   6.171   0.409   1.217
 2544TIP3    H229048   6.180   0.501   1.337
 2545TIP3   OH229049   6.079   2.309   1.685
 2545TIP3    H129050   6.010   2.307   1.618
 2545TIP3    H229051   6.122   2.223   1.677
 2546TIP3   OH229052   5.386   5.066   0.151
 2546TIP3    H129053   5.459   5.066   0.089
 2546TIP3    H229054   5.309   5.085   0.098
 2547TIP3   OH229055   5.552   3.602   0.892
 2547TIP3    H129056   5.475   3.547   0.879
 2547TIP3    H229057   5.530   3.656   0.967
 2548TIP3   OH229058   6.018   0.064  11.943
 2548TIP3    H129059   6.067   0.115  12.007
 2548TIP3    H229060   5.973  -0.003  11.994
 2549TIP3   OH229061   5.979   1.486   2.821
 2549TIP3    H129062   6.000   1.551   2.753
 2549TIP3    H229063   6.036   1.509   2.894
 2550TIP3   OH229064   2.494   2.320  11.725
 2550TIP3    H129065   2.589   2.317  11.721
 2550TIP3    H229066   2.474   2.400  11.773
 2551TIP3   OH229067   0.052   1.036   0.869
 2551TIP3    H129068   0.139   1.034   0.828
 2551TIP3    H229069   0.006   0.962   0.829
 2552TIP3   OH229070   0.081   3.389   3.451
 2552TIP3    H129071   0.054   3.306   3.492
 2552TIP3    H229072   0.014   3.405   3.384
 2553TIP3   OH229073   3.354   1.293   1.862
 2553TIP3    H129074   3.274   1.242   1.861
 2553TIP3    H229075   3.334   1.367   1.920
 2554TIP3   OH229076   1.303   5.445  16.432
 2554TIP3    H129077   1.338   5.458  16.520
 2554TIP3    H229078   1.363   5.382  16.391
 2555TIP3   OH229079   3.830   4.911  13.829
 2555TIP3    H129080   3.854   4.944  13.742
 2555TIP3    H229081   3.906   4.861  13.857
 2556TIP3   OH229082   6.023   6.362  16.238
 2556TIP3    H129083   6.046   6.416  16.162
 2556TIP3    H229084   5.941   6.320  16.214
 2557TIP3   OH229085   3.074   3.181   5.809
 2557TIP3    H129086   3.013   3.201   5.737
 2557TIP3    H229087   3.112   3.265   5.833
 2558TIP3   OH229088   4.571   5.631  12.539
 2558TIP3    H129089   4.609   5.646  12.453
 2558TIP3    H229090   4.619   5.555  12.573
 2559TIP3   OH229091   5.264   0.680  14.549
 2559TIP3    H129092   5.258   0.687  14.645
 2559TIP3    H229093   5.329   0.610  14.535
 2560TIP3   OH229094   1.675   0.145   4.640
 2560TIP3    H129095   1.699   0.117   4.551
 2560TIP3    H229096   1.649   0.236   4.630
 2561TIP3   OH229097   3.115   0.626  13.381
 2561TIP3    H129098   3.199   0.588  13.355
 2561TIP3    H229099   3.053   0.596  13.315
 2562TIP3   OH229100   4.887   1.217   1.369
 2562TIP3    H129101   4.934   1.286   1.416
 2562TIP3    H229102   4.954   1.152   1.349
 2563TIP3   OH229103   2.116   0.123   0.468
 2563TIP3    H129104   2.180   0.158   0.531
 2563TIP3    H229105   2.102   0.033   0.496
 2564TIP3   OH229106   1.985   4.644  14.121
 2564TIP3    H129107   1.940   4.661  14.038
 2564TIP3    H229108   2.041   4.720  14.134
 2565TIP3   OH229109   3.180   4.354  13.727
 2565TIP3    H129110   3.095   4.309  13.726
 2565TIP3    H229111   3.161   4.439  13.767
 2566TIP3   OH229112   5.109   0.884  13.511
 2566TIP3    H129113   5.127   0.938  13.589
 2566TIP3    H229114   5.191   0.883  13.463
 2567TIP3   OH229115   1.524   2.469   5.259
 2567TIP3    H129116   1.604   2.447   5.211
 2567TIP3    H229117   1.527   2.414   5.338
 2568TIP3   OH229118   3.882   4.049   3.898
 2568TIP3    H129119   3.817   4.096   3.846
 2568TIP3    H229120   3.916   4.115   3.958
 2569TIP3   OH229121   1.804   2.058   0.143
 2569TIP3    H129122   1.711   2.062   0.164
 2569TIP3    H229123   1.834   1.975   0.181
 2570TIP3   OH229124   2.721   5.452   0.254
 2570TIP3    H129125   2.672   5.509   0.314
 2570TIP3    H229126   2.796   5.421   0.305
 2571TIP3   OH229127   1.889   1.637  15.326
 2571TIP3    H129128   1.971   1.663  15.368
 2571TIP3    H229129   1.866   1.554  15.369
 2572TIP3   OH229130   1.726   0.955  13.792
 2572TIP3    H129131   1.703   0.865  13.769
 2572TIP3    H229132   1.804   0.974  13.740
 2573TIP3   OH229133   4.348   1.818  16.685
 2573TIP3    H129134   4.258   1.788  16.673
 2573TIP3    H229135   4.367   1.869  16.606
 2574TIP3   OH229136   6.232   1.798   0.322
 2574TIP3    H129137   6.166   1.812   0.254
 2574TIP3    H229138   6.271   1.714   0.300
 2575TIP3   OH229139   6.184   0.340   5.051
 2575TIP3    H129140   6.190   0.249   5.078
 2575TIP3    H229141   6.090   0.356   5.043
 2576TIP3   OH229142   6.671   3.568  16.104
 2576TIP3    H129143   6.658   3.663  16.103
 2576TIP3    H229144   6.619   3.536  16.030
 2577TIP3   OH229145   0.779   5.432  13.259
 2577TIP3    H129146   0.719   5.498  13.295
 2577TIP3    H229147   0.732   5.349  13.268
 2578TIP3   OH229148   2.543   2.058   3.883
 2578TIP3    H129149   2.472   2.015   3.930
 2578TIP3    H229150   2.515   2.058   3.792
 2579TIP3   OH229151   2.655   3.728   1.661
 2579TIP3    H129152   2.578   3.734   1.718
 2579TIP3    H229153   2.726   3.764   1.714
 2580TIP3   OH229154   3.111   3.887   4.872
 2580TIP3    H129155   3.131   3.921   4.785
 2580TIP3    H229156   3.195   3.890   4.918
 2581TIP3   OH229157   2.199   3.168  13.954
 2581TIP3    H129158   2.138   3.155  14.026
 2581TIP3    H229159   2.275   3.115  13.977
 2582TIP3   OH229160   3.568   2.837  13.692
 2582TIP3    H129161   3.541   2.928  13.705
 2582TIP3    H229162   3.505   2.802  13.629
 2583TIP3   OH229163   6.336   1.524  16.229
 2583TIP3    H129164   6.344   1.573  16.148
 2583TIP3    H229165   6.316   1.590  16.295
 2584TIP3   OH229166   2.108   1.944  13.528
 2584TIP3    H129167   2.117   1.898  13.612
 2584TIP3    H229168   2.187   1.997  13.521
 2585TIP3   OH229169   4.463   2.511   3.745
 2585TIP3    H129170   4.496   2.519   3.655
 2585TIP3    H229171   4.384   2.458   3.738
 2586TIP3   OH229172   0.427   0.905   4.209
 2586TIP3    H129173   0.476   0.987   4.208
 2586TIP3    H229174   0.477   0.847   4.267
 2587TIP3   OH229175   2.097   1.352   1.622
 2587TIP3    H129176   2.081   1.276   1.566
 2587TIP3    H229177   2.066   1.324   1.708
 2588TIP3   OH229178   6.314   0.696   1.951
 2588TIP3    H129179   6.391   0.752   1.942
 2588TIP3    H229180   6.339   0.614   1.909
 2589TIP3   OH229181   4.699   3.883  13.382
 2589TIP3    H129182   4.710   3.976  13.364
 2589TIP3    H229183   4.655   3.880  13.467
 2590TIP3   OH229184   5.627   6.713   0.735
 2590TIP3    H129185   5.551   6.688   0.683
 2590TIP3    H229186   5.665   6.630   0.764
 2591TIP3   OH229187   0.775   0.082  10.984
 2591TIP3    H129188   0.804   0.108  11.072
 2591TIP3    H229189   0.764   0.164  10.937
 2592TIP3   OH229190   3.031   4.052  13.424
 2592TIP3    H129191   2.989   3.992  13.486
 2592TIP3    H229192   3.106   4.088  13.472
 2593TIP3   OH229193   3.298   3.358  15.486
 2593TIP3    H129194   3.390   3.331  15.477
 2593TIP3    H229195   3.263   3.354  15.398
 2594TIP3   OH229196   1.972   0.501   2.566
 2594TIP3    H129197   1.979   0.577   2.510
 2594TIP3    H229198   1.885   0.466   2.549
 2595TIP3   OH229199   2.521   2.674  11.260
 2595TIP3    H129200   2.608   2.696  11.226
 2595TIP3    H229201   2.488   2.608  11.199
 2596TIP3   OH229202   6.212   2.192   1.170
 2596TIP3    H129203   6.204   2.233   1.084
 2596TIP3    H229204   6.260   2.111   1.154
 2597TIP3   OH229205   0.102   1.917  12.536
 2597TIP3    H129206   0.014   1.880  12.533
 2597TIP3    H229207   0.095   2.001  12.492
 2598TIP3   OH229208   4.553   0.614   1.679
 2598TIP3    H129209   4.528   0.698   1.641
 2598TIP3    H229210   4.622   0.582   1.621
 2599TIP3   OH229211   1.572   1.724  12.959
 2599TIP3    H129212   1.516   1.655  12.997
 2599TIP3    H229213   1.512   1.778  12.908
 2600TIP3   OH229214   2.440   5.763  12.514
 2600TIP3    H129215   2.365   5.707  12.496
 2600TIP3    H229216   2.504   5.740  12.447
 2601TIP3   OH229217   5.593   3.749   0.234
 2601TIP3    H129218   5.535   3.825   0.235
 2601TIP3    H229219   5.615   3.734   0.326
 2602TIP3   OH229220   3.618   6.476  14.404
 2602TIP3    H129221   3.602   6.563  14.368
 2602TIP3    H229222   3.550   6.421  14.366
 2603TIP3   OH229223   3.569   1.320  16.139
 2603TIP3    H129224   3.515   1.279  16.206
 2603TIP3    H229225   3.593   1.249  16.080
 2604TIP3   OH229226   0.574   1.938   5.310
 2604TIP3    H129227   0.610   1.850   5.320
 2604TIP3    H229228   0.482   1.924   5.290
 2605TIP3   OH229229   6.219   2.431  14.179
 2605TIP3    H129230   6.259   2.440  14.265
 2605TIP3    H229231   6.210   2.521  14.147
 2606TIP3   OH229232   0.733   6.270   5.044
 2606TIP3    H129233   0.823   6.297   5.064
 2606TIP3    H229234   0.738   6.175   5.033
 2607TIP3   OH229235   3.318   1.901  12.598
 2607TIP3    H129236   3.256   1.848  12.550
 2607TIP3    H229237   3.399   1.849  12.599
 2608TIP3   OH229238   1.485   0.412   3.314
 2608TIP3    H129239   1.480   0.327   3.357
 2608TIP3    H229240   1.449   0.397   3.226
 2609TIP3   OH229241   3.162   1.561   3.067
 2609TIP3    H129242   3.110   1.640   3.082
 2609TIP3    H229243   3.190   1.568   2.976
 2610TIP3   OH229244   2.903   5.771  12.322
 2610TIP3    H129245   2.987   5.751  12.363
 2610TIP3    H229246   2.925   5.800  12.234
 2611TIP3   OH229247   3.579   2.160  15.223
 2611TIP3    H129248   3.488   2.168  15.195
 2611TIP3    H229249   3.617   2.097  15.161
 2612TIP3   OH229250   4.345   4.056   1.191
 2612TIP3    H129251   4.423   4.112   1.196
 2612TIP3    H229252   4.275   4.109   1.229
 2613TIP3   OH229253   1.019   2.756   4.021
 2613TIP3    H129254   0.985   2.843   4.045
 2613TIP3    H229255   0.983   2.741   3.933
 2614TIP3   OH229256   1.456   6.331   4.041
 2614TIP3    H129257   1.462   6.249   4.090
 2614TIP3    H229258   1.371   6.368   4.066
 2615TIP3   OH229259   1.315   2.402   3.087
 2615TIP3    H129260   1.315   2.463   3.013
 2615TIP3    H229261   1.406   2.401   3.116
 2616TIP3   OH229262   4.717   5.238   1.861
 2616TIP3    H129263   4.742   5.181   1.788
 2616TIP3    H229264   4.721   5.327   1.824
 2617TIP3   OH229265   3.733   4.267   3.803
 2617TIP3    H129266   3.780   4.332   3.750
 2617TIP3    H229267   3.701   4.316   3.878
 2618TIP3   OH229268   0.917   2.841  14.547
 2618TIP3    H129269   0.965   2.920  14.524
 2618TIP3    H229270   0.966   2.802  14.619
 2619TIP3   OH229271   3.387   5.768   0.316
 2619TIP3    H129272   3.445   5.722   0.256
 2619TIP3    H229273   3.299   5.749   0.283
 2620TIP3   OH229274   2.586   1.044   4.938
 2620TIP3    H129275   2.557   1.043   4.846
 2620TIP3    H229276   2.673   1.084   4.935
 2621TIP3   OH229277   2.578   0.835  14.697
 2621TIP3    H129278   2.635   0.911  14.709
 2621TIP3    H229279   2.491   0.871  14.685
 2622TIP3   OH229280   1.248   1.518  15.944
 2622TIP3    H129281   1.178   1.478  15.893
 2622TIP3    H229282   1.210   1.598  15.980
 2623TIP3   OH229283   0.425   4.750  16.302
 2623TIP3    H129284   0.508   4.714  16.273
 2623TIP3    H229285   0.393   4.800  16.227
 2624TIP3   OH229286   4.356   5.173  11.380
 2624TIP3    H129287   4.333   5.144  11.292
 2624TIP3    H229288   4.273   5.197  11.420
 2625TIP3   OH229289   2.722   6.597   5.473
 2625TIP3    H129290   2.774   6.676   5.455
 2625TIP3    H229291   2.643   6.630   5.514
 2626TIP3   OH229292   2.820   2.121  14.231
 2626TIP3    H129293   2.867   2.144  14.150
 2626TIP3    H229294   2.850   2.186  14.294
 2627TIP3   OH229295   4.927   2.222   1.347
 2627TIP3    H129296   4.946   2.306   1.304
 2627TIP3    H229297   4.998   2.165   1.318
 2628TIP3   OH229298   4.032   1.504  12.625
 2628TIP3    H129299   3.971   1.541  12.688
 2628TIP3    H229300   4.101   1.570  12.617
 2629TIP3   OH229301   1.880   0.183   4.828
 2629TIP3    H129302   1.823   0.188   4.751
 2629TIP3    H229303   1.963   0.221   4.799
 2630TIP3   OH229304   2.521   2.956   2.917
 2630TIP3    H129305   2.487   3.023   2.976
 2630TIP3    H229306   2.587   2.910   2.968
 2631TIP3   OH229307   4.889   6.145  14.779
 2631TIP3    H129308   4.902   6.220  14.722
 2631TIP3    H229309   4.794   6.138  14.790
 2632TIP3   OH229310   6.677   4.670  11.393
 2632TIP3    H129311   6.646   4.751  11.435
 2632TIP3    H229312   6.604   4.642  11.338
 2633TIP3   OH229313   2.879   6.025  14.124
 2633TIP3    H129314   2.936   5.980  14.062
 2633TIP3    H229315   2.938   6.065  14.188
 2634TIP3   OH229316   3.199   1.190   3.327
 2634TIP3    H129317   3.242   1.113   3.288
 2634TIP3    H229318   3.119   1.201   3.275
 2635TIP3   OH229319   1.472   2.706   4.756
 2635TIP3    H129320   1.549   2.649   4.746
 2635TIP3    H229321   1.398   2.646   4.752
 2636TIP3   OH229322   3.272   0.149  17.031
 2636TIP3    H129323   3.184   0.143  16.992
 2636TIP3    H229324   3.328   0.100  16.971
 2637TIP3   OH229325   5.486   0.070  16.095
 2637TIP3    H129326   5.430   0.147  16.086
 2637TIP3    H229327   5.432   0.006  16.141
 2638TIP3   OH229328   4.889   5.709  11.491
 2638TIP3    H129329   4.805   5.702  11.536
 2638TIP3    H229330   4.903   5.623  11.453
 2639TIP3   OH229331   3.765   4.649   2.788
 2639TIP3    H129332   3.736   4.630   2.877
 2639TIP3    H229333   3.860   4.634   2.789
 2640TIP3   OH229334   4.016   5.919  12.205
 2640TIP3    H129335   3.921   5.922  12.203
 2640TIP3    H229336   4.037   5.871  12.285
 2641TIP3   OH229337   1.997   2.411  12.946
 2641TIP3    H129338   1.958   2.344  13.003
 2641TIP3    H229339   1.929   2.478  12.938
 2642TIP3   OH229340   3.258   6.287  13.568
 2642TIP3    H129341   3.213   6.367  13.593
 2642TIP3    H229342   3.333   6.282  13.628
 2643TIP3   OH229343   3.279   0.218   1.821
 2643TIP3    H129344   3.361   0.253   1.788
 2643TIP3    H229345   3.249   0.159   1.752
 2644TIP3   OH229346   1.035   3.000  12.941
 2644TIP3    H129347   0.962   2.937  12.941
 2644TIP3    H229348   1.094   2.967  12.873
 2645TIP3   OH229349   1.837   1.332  10.768
 2645TIP3    H129350   1.898   1.406  10.767
 2645TIP3    H229351   1.887   1.259  10.733
 2646TIP3   OH229352   2.417   4.852   0.603
 2646TIP3    H129353   2.406   4.924   0.541
 2646TIP3    H229354   2.341   4.860   0.661
 2647TIP3   OH229355   1.631   2.085   1.887
 2647TIP3    H129356   1.646   2.179   1.874
 2647TIP3    H229357   1.613   2.076   1.980
 2648TIP3   OH229358   2.434   0.728  15.171
 2648TIP3    H129359   2.483   0.770  15.242
 2648TIP3    H229360   2.429   0.795  15.103
 2649TIP3   OH229361   2.749   6.422  13.225
 2649TIP3    H129362   2.784   6.431  13.136
 2649TIP3    H229363   2.660   6.389  13.213
 2650TIP3   OH229364   1.538   1.382   4.140
 2650TIP3    H129365   1.533   1.296   4.099
 2650TIP3    H229366   1.489   1.440   4.082
 2651TIP3   OH229367   6.525   3.417  11.453
 2651TIP3    H129368   6.504   3.456  11.368
 2651TIP3    H229369   6.440   3.392  11.490
 2652TIP3   OH229370   4.479   0.297   0.463
 2652TIP3    H129371   4.397   0.319   0.507
 2652TIP3    H229372   4.465   0.324   0.372
 2653TIP3   OH229373   3.081   2.568  13.918
 2653TIP3    H129374   3.110   2.527  13.836
 2653TIP3    H229375   3.007   2.624  13.891
 2654TIP3   OH229376   3.465   1.656  12.554
 2654TIP3    H129377   3.468   1.698  12.467
 2654TIP3    H229378   3.554   1.665  12.587
 2655TIP3   OH229379   4.076   0.002   2.049
 2655TIP3    H129380   4.005  -0.055   2.021
 2655TIP3    H229381   4.077   0.073   1.984
 2656TIP3   OH229382   3.346   4.873   5.337
 2656TIP3    H129383   3.351   4.778   5.340
 2656TIP3    H229384   3.341   4.900   5.429
 2657TIP3   OH229385   2.213   3.461  12.854
 2657TIP3    H129386   2.158   3.505  12.919
 2657TIP3    H229387   2.199   3.510  12.773
 2658TIP3   OH229388   1.737   3.351  11.044
 2658TIP3    H129389   1.798   3.422  11.064
 2658TIP3    H229390   1.707   3.369  10.955
 2659TIP3   OH229391   3.382   6.431  13.084
 2659TIP3    H129392   3.391   6.523  13.062
 2659TIP3    H229393   3.428   6.422  13.168
 2660TIP3   OH229394   1.625   3.782   0.325
 2660TIP3    H129395   1.575   3.837   0.265
 2660TIP3    H229396   1.673   3.844   0.380
 2661TIP3   OH229397   4.326   0.439  12.609
 2661TIP3    H129398   4.262   0.371  12.631
 2661TIP3    H229399   4.410   0.400  12.633
 2662TIP3   OH229400   1.704   1.096  11.237
 2662TIP3    H129401   1.694   1.008  11.199
 2662TIP3    H229402   1.722   1.153  11.162
 2663TIP3   OH229403   3.146   5.064  11.995
 2663TIP3    H129404   3.072   5.106  12.039
 2663TIP3    H229405   3.222   5.117  12.019
 2664TIP3   OH229406   3.943   4.336   1.145
 2664TIP3    H129407   3.949   4.328   1.241
 2664TIP3    H229408   4.031   4.358   1.117
 2665TIP3   OH229409   5.221   5.955  14.099
 2665TIP3    H129410   5.181   5.966  14.013
 2665TIP3    H229411   5.148   5.953  14.160
 2666TIP3   OH229412   4.590   1.701  16.509
 2666TIP3    H129413   4.608   1.700  16.603
 2666TIP3    H229414   4.565   1.611  16.488
 2667TIP3   OH229415   5.066   0.983  14.213
 2667TIP3    H129416   5.052   0.892  14.188
 2667TIP3    H229417   5.109   0.978  14.299
 2668TIP3   OH229418   5.699   4.684   3.576
 2668TIP3    H129419   5.662   4.644   3.655
 2668TIP3    H229420   5.788   4.708   3.601
 2669TIP3   OH229421   3.004   3.720   1.082
 2669TIP3    H129422   2.973   3.782   1.147
 2669TIP3    H229423   2.981   3.634   1.117
 2670TIP3   OH229424   0.473   5.835  16.886
 2670TIP3    H129425   0.481   5.908  16.948
 2670TIP3    H229426   0.563   5.813  16.864
 2671TIP3   OH229427   3.709   6.047  11.509
 2671TIP3    H129428   3.631   6.102  11.520
 2671TIP3    H229429   3.704   6.014  11.420
 2672TIP3   OH229430   6.273   5.363   6.252
 2672TIP3    H129431   6.294   5.415   6.174
 2672TIP3    H229432   6.214   5.294   6.220
 2673TIP3   OH229433   1.725   3.067  15.270
 2673TIP3    H129434   1.703   3.023  15.353
 2673TIP3    H229435   1.641   3.096  15.235
 2674TIP3   OH229436   6.103   3.555  11.557
 2674TIP3    H129437   6.011   3.580  11.557
 2674TIP3    H229438   6.134   3.576  11.469
 2675TIP3   OH229439   1.768   0.602  16.812
 2675TIP3    H129440   1.785   0.517  16.773
 2675TIP3    H229441   1.854   0.640  16.828
 2676TIP3   OH229442   1.123   6.085  14.780
 2676TIP3    H129443   1.074   6.006  14.803
 2676TIP3    H229444   1.111   6.143  14.855
 2677TIP3   OH229445   5.625   3.966   3.451
 2677TIP3    H129446   5.661   3.946   3.365
 2677TIP3    H229447   5.532   3.945   3.444
 2678TIP3   OH229448   0.300   0.244   5.074
 2678TIP3    H129449   0.298   0.202   4.988
 2678TIP3    H229450   0.393   0.262   5.089
 2679TIP3   OH229451   2.126   5.882   1.421
 2679TIP3    H129452   2.171   5.901   1.338
 2679TIP3    H229453   2.091   5.966   1.449
 2680TIP3   OH229454   6.544   6.074  15.916
 2680TIP3    H129455   6.527   6.066  15.822
 2680TIP3    H229456   6.558   6.168  15.930
 2681TIP3   OH229457   1.000   5.195  14.191
 2681TIP3    H129458   0.971   5.160  14.275
 2681TIP3    H229459   1.093   5.177  14.188
 2682TIP3   OH229460   1.018   5.351  16.674
 2682TIP3    H129461   0.955   5.309  16.733
 2682TIP3    H229462   1.034   5.437  16.712
 2683TIP3   OH229463   0.846   5.155  16.843
 2683TIP3    H129464   0.870   5.062  16.837
 2683TIP3    H229465   0.911   5.192  16.903
 2684TIP3   OH229466   0.112   1.342  16.794
 2684TIP3    H129467   0.201   1.307  16.785
 2684TIP3    H229468   0.108   1.375  16.883
 2685TIP3   OH229469   4.291   5.503  12.620
 2685TIP3    H129470   4.318   5.504  12.712
 2685TIP3    H229471   4.302   5.593  12.590
 2686TIP3   OH229472   3.940   3.115   6.924
 2686TIP3    H129473   3.845   3.106   6.935
 2686TIP3    H229474   3.951   3.203   6.887
 2687TIP3   OH229475   0.216   3.745   1.712
 2687TIP3    H129476   0.187   3.654   1.716
 2687TIP3    H229477   0.136   3.796   1.699
 2688TIP3   OH229478   4.186   6.543   5.306
 2688TIP3    H129479   4.193   6.450   5.328
 2688TIP3    H229480   4.159   6.585   5.388
 2689TIP3   OH229481   4.188   5.006  10.285
 2689TIP3    H129482   4.108   5.023  10.236
 2689TIP3    H229483   4.161   4.954  10.360
 2690TIP3   OH229484   0.824   5.391   1.055
 2690TIP3    H129485   0.875   5.468   1.031
 2690TIP3    H229486   0.890   5.327   1.084
 2691TIP3   OH229487   3.671   3.185  14.133
 2691TIP3    H129488   3.760   3.168  14.101
 2691TIP3    H229489   3.679   3.181  14.228
 2692TIP3   OH229490   5.895   3.900   2.826
 2692TIP3    H129491   5.851   3.822   2.857
 2692TIP3    H229492   5.938   3.872   2.744
 2693TIP3   OH229493   2.076   1.156   5.630
 2693TIP3    H129494   2.102   1.200   5.549
 2693TIP3    H229495   2.039   1.225   5.685
 2694TIP3   OH229496   1.558   2.993  14.866
 2694TIP3    H129497   1.532   2.941  14.942
 2694TIP3    H229498   1.550   2.933  14.792
 2695TIP3   OH229499   1.107   3.807  12.731
 2695TIP3    H129500   1.117   3.816  12.826
 2695TIP3    H229501   1.095   3.713  12.717
 2696TIP3   OH229502   2.539   6.466   3.660
 2696TIP3    H129503   2.472   6.463   3.592
 2696TIP3    H229504   2.503   6.524   3.727
 2697TIP3   OH229505   1.871   4.241  14.307
 2697TIP3    H129506   1.870   4.249  14.403
 2697TIP3    H229507   1.932   4.169  14.290
 2698TIP3   OH229508   0.219   2.382  16.715
 2698TIP3    H129509   0.240   2.329  16.638
 2698TIP3    H229510   0.292   2.369  16.775
 2699TIP3   OH229511   4.686   4.328   4.682
 2699TIP3    H129512   4.642   4.387   4.621
 2699TIP3    H229513   4.621   4.261   4.702
 2700TIP3   OH229514   1.709   5.587   2.198
 2700TIP3    H129515   1.801   5.603   2.174
 2700TIP3    H229516   1.670   5.674   2.202
 2701TIP3   OH229517   6.308   3.567   5.416
 2701TIP3    H129518   6.221   3.596   5.443
 2701TIP3    H229519   6.306   3.472   5.426
 2702TIP3   OH229520   3.441   3.292   1.158
 2702TIP3    H129521   3.525   3.248   1.169
 2702TIP3    H229522   3.461   3.372   1.108
 2703TIP3   OH229523   1.226   4.382   0.453
 2703TIP3    H129524   1.163   4.406   0.385
 2703TIP3    H229525   1.273   4.463   0.471
 2704TIP3   OH229526   3.012   5.569   2.797
 2704TIP3    H129527   2.986   5.642   2.853
 2704TIP3    H229528   3.003   5.491   2.852
 2705TIP3   OH229529   0.700   1.324  15.815
 2705TIP3    H129530   0.732   1.369  15.737
 2705TIP3    H229531   0.629   1.379  15.848
 2706TIP3   OH229532   4.019   1.330  13.021
 2706TIP3    H129533   4.055   1.242  13.034
 2706TIP3    H229534   3.934   1.327  13.064
 2707TIP3   OH229535   1.720   6.021  12.609
 2707TIP3    H129536   1.739   5.939  12.656
 2707TIP3    H229537   1.787   6.025  12.540
 2708TIP3   OH229538   1.310   5.794   3.166
 2708TIP3    H129539   1.287   5.737   3.093
 2708TIP3    H229540   1.370   5.741   3.219
 2709TIP3   OH229541   3.574   5.703   5.805
 2709TIP3    H129542   3.664   5.729   5.784
 2709TIP3    H229543   3.519   5.771   5.766
 2710TIP3   OH229544   3.807   0.514  16.530
 2710TIP3    H129545   3.793   0.556  16.445
 2710TIP3    H229546   3.828   0.587  16.589
 2711TIP3   OH229547   2.614   0.980   4.659
 2711TIP3    H129548   2.667   1.058   4.675
 2711TIP3    H229549   2.586   0.989   4.568
 2712TIP3   OH229550   5.597   2.637  11.994
 2712TIP3    H129551   5.645   2.558  12.019
 2712TIP3    H229552   5.579   2.625  11.901
 2713TIP3   OH229553   4.592   0.680  10.567
 2713TIP3    H129554   4.584   0.605  10.626
 2713TIP3    H229555   4.564   0.755  10.620
 2714TIP3   OH229556   2.525   3.017   4.473
 2714TIP3    H129557   2.525   3.095   4.528
 2714TIP3    H229558   2.601   2.967   4.502
 2715TIP3   OH229559   0.798   0.374   2.825
 2715TIP3    H129560   0.773   0.464   2.848
 2715TIP3    H229561   0.715   0.331   2.806
 2716TIP3   OH229562   2.019   1.676   4.019
 2716TIP3    H129563   2.033   1.750   3.960
 2716TIP3    H229564   2.107   1.647   4.043
 2717TIP3   OH229565   1.625   1.174   5.770
 2717TIP3    H129566   1.691   1.105   5.784
 2717TIP3    H229567   1.675   1.248   5.736
 2718TIP3   OH229568   0.334   4.852  16.956
 2718TIP3    H129569   0.302   4.782  16.900
 2718TIP3    H229570   0.284   4.843  17.037
 2719TIP3   OH229571   0.492   6.364   2.464
 2719TIP3    H129572   0.582   6.330   2.464
 2719TIP3    H229573   0.488   6.422   2.388
 2720TIP3   OH229574   2.894   3.838   1.780
 2720TIP3    H129575   2.921   3.903   1.846
 2720TIP3    H229576   2.977   3.804   1.745
 2721TIP3   OH229577   0.940   1.527  15.349
 2721TIP3    H129578   0.938   1.622  15.361
 2721TIP3    H229579   0.906   1.513  15.261
 2722TIP3   OH229580   2.720   1.380   5.144
 2722TIP3    H129581   2.649   1.428   5.185
 2722TIP3    H229582   2.727   1.416   5.056
 2723TIP3   OH229583   0.659   1.250   0.891
 2723TIP3    H129584   0.723   1.216   0.828
 2723TIP3    H229585   0.588   1.185   0.890
 2724TIP3   OH229586   3.393   4.134   6.748
 2724TIP3    H129587   3.353   4.213   6.714
 2724TIP3    H229588   3.366   4.065   6.687
 2725TIP3   OH229589   3.947   2.735   5.372
 2725TIP3    H129590   4.027   2.701   5.330
 2725TIP3    H229591   3.915   2.801   5.311
 2726TIP3   OH229592   3.769   3.990   4.883
 2726TIP3    H129593   3.837   4.008   4.948
 2726TIP3    H229594   3.765   3.894   4.879
 2727TIP3   OH229595   0.004   3.856  13.562
 2727TIP3    H129596  -0.080   3.845  13.517
 2727TIP3    H229597  -0.018   3.901  13.643
 2728TIP3   OH229598   1.686   3.073  13.381
 2728TIP3    H129599   1.730   3.005  13.328
 2728TIP3    H229600   1.681   3.149  13.323
 2729TIP3   OH229601   2.535   1.145  14.201
 2729TIP3    H129602   2.601   1.208  14.171
 2729TIP3    H229603   2.485   1.194  14.266
 2730TIP3   OH229604   5.714   0.515   5.307
 2730TIP3    H129605   5.626   0.504   5.343
 2730TIP3    H229606   5.767   0.450   5.353
 2731TIP3   OH229607   6.375   0.378   2.099
 2731TIP3    H129608   6.406   0.434   2.028
 2731TIP3    H229609   6.304   0.327   2.061
 2732TIP3   OH229610   4.257   6.059   3.072
 2732TIP3    H129611   4.246   6.058   2.977
 2732TIP3    H229612   4.176   6.020   3.106
 2733TIP3   OH229613   2.903   5.474  12.836
 2733TIP3    H129614   2.863   5.387  12.831
 2733TIP3    H229615   2.925   5.484  12.929
 2734TIP3   OH229616   2.623   0.736  12.519
 2734TIP3    H129617   2.623   0.640  12.525
 2734TIP3    H229618   2.714   0.761  12.533
 2735TIP3   OH229619   1.188   5.845   3.774
 2735TIP3    H129620   1.154   5.923   3.730
 2735TIP3    H229621   1.241   5.800   3.708
 2736TIP3   OH229622   6.594   3.973   1.904
 2736TIP3    H129623   6.595   3.891   1.953
 2736TIP3    H229624   6.683   4.007   1.912
 2737TIP3   OH229625   5.479   5.442   2.881
 2737TIP3    H129626   5.568   5.469   2.900
 2737TIP3    H229627   5.431   5.457   2.962
 2738TIP3   OH229628   4.705   6.096   4.189
 2738TIP3    H129629   4.779   6.122   4.135
 2738TIP3    H229630   4.718   6.141   4.272
 2739TIP3   OH229631   3.777   5.687  12.985
 2739TIP3    H129632   3.753   5.761  13.042
 2739TIP3    H229633   3.740   5.710  12.900
 2740TIP3   OH229634   0.780   2.070   2.404
 2740TIP3    H129635   0.777   1.982   2.366
 2740TIP3    H229636   0.735   2.061   2.488
 2741TIP3   OH229637   1.911   5.576  12.290
 2741TIP3    H129638   1.927   5.529  12.372
 2741TIP3    H229639   1.891   5.507  12.227
 2742TIP3   OH229640   0.281   4.680   2.352
 2742TIP3    H129641   0.241   4.719   2.430
 2742TIP3    H229642   0.257   4.738   2.281
 2743TIP3   OH229643   4.526   0.203   1.515
 2743TIP3    H129644   4.539   0.257   1.436
 2743TIP3    H229645   4.585   0.129   1.503
 2744TIP3   OH229646   2.983   2.145   4.241
 2744TIP3    H129647   2.945   2.204   4.177
 2744TIP3    H229648   2.911   2.124   4.300
 2745TIP3   OH229649   2.226   4.095  12.809
 2745TIP3    H129650   2.202   4.009  12.776
 2745TIP3    H229651   2.182   4.101  12.894
 2746TIP3   OH229652   2.820   1.670  14.426
 2746TIP3    H129653   2.809   1.755  14.469
 2746TIP3    H229654   2.739   1.622  14.445
 2747TIP3   OH229655   0.611   0.288   5.426
 2747TIP3    H129656   0.641   0.208   5.469
 2747TIP3    H229657   0.516   0.288   5.437
 2748TIP3   OH229658   0.622   0.965   5.854
 2748TIP3    H129659   0.575   0.967   5.937
 2748TIP3    H229660   0.661   0.878   5.850
 2749TIP3   OH229661   0.887   1.002  16.748
 2749TIP3    H129662   0.866   1.037  16.834
 2749TIP3    H229663   0.978   0.973  16.755
 2750TIP3   OH229664   1.224   0.866   4.900
 2750TIP3    H129665   1.175   0.785   4.887
 2750TIP3    H229666   1.307   0.839   4.938
 2751TIP3   OH229667   0.810   4.337   3.795
 2751TIP3    H129668   0.844   4.310   3.880
 2751TIP3    H229669   0.863   4.287   3.732
 2752TIP3   OH229670   1.339   3.080   5.328
 2752TIP3    H129671   1.378   2.999   5.293
 2752TIP3    H229672   1.245   3.066   5.321
 2753TIP3   OH229673   3.384   0.942  15.745
 2753TIP3    H129674   3.331   1.021  15.733
 2753TIP3    H229675   3.375   0.894  15.663
 2754TIP3   OH229676   6.241   3.549   0.483
 2754TIP3    H129677   6.196   3.633   0.480
 2754TIP3    H229678   6.313   3.558   0.421
 2755TIP3   OH229679   2.977   4.630   0.653
 2755TIP3    H129680   2.999   4.688   0.726
 2755TIP3    H229681   3.062   4.603   0.618
 2756TIP3   OH229682   5.754   5.684  11.476
 2756TIP3    H129683   5.837   5.655  11.513
 2756TIP3    H229684   5.696   5.694  11.552
 2757TIP3   OH229685   2.623   3.318  15.062
 2757TIP3    H129686   2.537   3.352  15.037
 2757TIP3    H229687   2.683   3.357  14.999
 2758TIP3   OH229688   5.318   3.789   5.643
 2758TIP3    H129689   5.339   3.876   5.676
 2758TIP3    H229690   5.235   3.766   5.685
 2759TIP3   OH229691   3.798   2.048   3.750
 2759TIP3    H129692   3.778   2.019   3.661
 2759TIP3    H229693   3.716   2.087   3.781
 2760TIP3   OH229694   4.826   2.795   3.636
 2760TIP3    H129695   4.795   2.852   3.706
 2760TIP3    H229696   4.921   2.801   3.640
 2761TIP3   OH229697   3.514   6.638  11.423
 2761TIP3    H129698   3.573   6.563  11.422
 2761TIP3    H229699   3.541   6.689  11.499
 2762TIP3   OH229700   3.982   5.486   2.156
 2762TIP3    H129701   3.909   5.512   2.100
 2762TIP3    H229702   3.970   5.392   2.168
 2763TIP3   OH229703   4.196   5.370   0.850
 2763TIP3    H129704   4.135   5.426   0.898
 2763TIP3    H229705   4.148   5.344   0.771
 2764TIP3   OH229706   3.166   0.783  16.114
 2764TIP3    H129707   3.238   0.721  16.131
 2764TIP3    H229708   3.115   0.782  16.195
 2765TIP3   OH229709   0.811   2.717  11.852
 2765TIP3    H129710   0.869   2.644  11.872
 2765TIP3    H229711   0.820   2.730  11.757
 2766TIP3   OH229712   1.201   3.796  13.573
 2766TIP3    H129713   1.167   3.886  13.577
 2766TIP3    H229714   1.153   3.757  13.500
 2767TIP3   OH229715   4.540   1.632   3.533
 2767TIP3    H129716   4.580   1.660   3.615
 2767TIP3    H229717   4.567   1.541   3.522
 2768TIP3   OH229718   2.094   6.681   2.828
 2768TIP3    H129719   2.029   6.637   2.882
 2768TIP3    H229720   2.161   6.711   2.890
 2769TIP3   OH229721   0.493   5.736   0.144
 2769TIP3    H129722   0.404   5.709   0.122
 2769TIP3    H229723   0.544   5.717   0.065
 2770TIP3   OH229724   6.131   3.765  13.924
 2770TIP3    H129725   6.159   3.746  13.834
 2770TIP3    H229726   6.073   3.840  13.916
 2771TIP3   OH229727   6.404   4.064  16.532
 2771TIP3    H129728   6.424   4.121  16.606
 2771TIP3    H229729   6.379   3.980  16.571
 2772TIP3   OH229730   3.464   5.972   6.262
 2772TIP3    H129731   3.467   5.935   6.350
 2772TIP3    H229732   3.468   6.067   6.276
 2773TIP3   OH229733   4.154   0.977  13.526
 2773TIP3    H129734   4.062   0.971  13.501
 2773TIP3    H229735   4.151   1.010  13.617
 2774TIP3   OH229736   5.306   6.557  14.326
 2774TIP3    H129737   5.312   6.491  14.257
 2774TIP3    H229738   5.334   6.638  14.284
 2775TIP3   OH229739   4.533   0.346  10.492
 2775TIP3    H129740   4.555   0.427  10.445
 2775TIP3    H229741   4.614   0.296  10.493
 2776TIP3   OH229742   3.301   2.645   1.623
 2776TIP3    H129743   3.372   2.683   1.571
 2776TIP3    H229744   3.345   2.602   1.696
 2777TIP3   OH229745   4.214   0.655   1.861
 2777TIP3    H129746   4.185   0.612   1.781
 2777TIP3    H229747   4.238   0.744   1.834
 2778TIP3   OH229748   3.993   2.763  15.937
 2778TIP3    H129749   3.913   2.814  15.946
 2778TIP3    H229750   3.966   2.680  15.898
 2779TIP3   OH229751   0.927   5.199  15.548
 2779TIP3    H129752   0.938   5.200  15.453
 2779TIP3    H229753   0.997   5.256  15.581
 2780TIP3   OH229754   4.028   1.267  11.863
 2780TIP3    H129755   4.012   1.359  11.885
 2780TIP3    H229756   4.058   1.228  11.946
 2781TIP3   OH229757   2.079   0.253   5.060
 2781TIP3    H129758   2.032   0.190   5.006
 2781TIP3    H229759   2.102   0.204   5.139
 2782TIP3   OH229760   6.208   2.433   6.448
 2782TIP3    H129761   6.188   2.367   6.381
 2782TIP3    H229762   6.172   2.514   6.413
 2783TIP3   OH229763   5.570   2.893   3.728
 2783TIP3    H129764   5.488   2.942   3.718
 2783TIP3    H229765   5.558   2.843   3.808
 2784TIP3   OH229766   6.726   4.886  13.588
 2784TIP3    H129767   6.633   4.866  13.596
 2784TIP3    H229768   6.768   4.800  13.576
 2785TIP3   OH229769   2.898   3.774  13.310
 2785TIP3    H129770   2.902   3.842  13.243
 2785TIP3    H229771   2.952   3.703  13.275
 2786TIP3   OH229772   6.043   4.184   3.821
 2786TIP3    H129773   6.059   4.267   3.866
 2786TIP3    H229774   6.024   4.208   3.731
 2787TIP3   OH229775   0.137   3.207  12.857
 2787TIP3    H129776   0.202   3.154  12.810
 2787TIP3    H229777   0.084   3.247  12.788
 2788TIP3   OH229778   0.874   4.336   0.084
 2788TIP3    H129779   0.965   4.339   0.056
 2788TIP3    H229780   0.828   4.396   0.025
 2789TIP3   OH229781   6.659   0.079  17.170
 2789TIP3    H129782   6.690   0.103  17.083
 2789TIP3    H229783   6.614   0.157  17.202
 2790TIP3   OH229784   1.173   0.505  11.334
 2790TIP3    H129785   1.184   0.570  11.403
 2790TIP3    H229786   1.136   0.428  11.378
 2791TIP3   OH229787   0.516   4.859  10.767
 2791TIP3    H129788   0.587   4.923  10.765
 2791TIP3    H229789   0.464   4.877  10.689
 2792TIP3   OH229790   0.904   5.748  14.131
 2792TIP3    H129791   0.884   5.834  14.167
 2792TIP3    H229792   0.819   5.708  14.114
 2793TIP3   OH229793   2.884   5.522   4.774
 2793TIP3    H129794   2.903   5.463   4.700
 2793TIP3    H229795   2.811   5.575   4.743
 2794TIP3   OH229796   2.822   6.365   4.979
 2794TIP3    H129797   2.797   6.449   5.019
 2794TIP3    H229798   2.782   6.367   4.892
 2795TIP3   OH229799   2.451   5.210  12.132
 2795TIP3    H129800   2.451   5.124  12.090
 2795TIP3    H229801   2.361   5.240  12.126
 2796TIP3   OH229802   4.328   1.630  11.873
 2796TIP3    H129803   4.407   1.602  11.919
 2796TIP3    H229804   4.256   1.599  11.928
 2797TIP3   OH229805   6.003   0.766   0.765
 2797TIP3    H129806   5.979   0.794   0.853
 2797TIP3    H229807   6.019   0.672   0.774
 2798TIP3   OH229808   3.554   0.680   3.142
 2798TIP3    H129809   3.641   0.711   3.170
 2798TIP3    H229810   3.534   0.733   3.065
 2799TIP3   OH229811   1.478   0.196  14.581
 2799TIP3    H129812   1.545   0.235  14.525
 2799TIP3    H229813   1.396   0.236  14.552
 2800TIP3   OH229814   6.333   3.908  12.221
 2800TIP3    H129815   6.395   3.860  12.276
 2800TIP3    H229816   6.353   3.881  12.132
 2801TIP3   OH229817   0.495   2.956  11.199
 2801TIP3    H129818   0.573   2.907  11.227
 2801TIP3    H229819   0.513   3.046  11.226
 2802TIP3   OH229820   2.234   4.417   4.358
 2802TIP3    H129821   2.215   4.386   4.447
 2802TIP3    H229822   2.330   4.425   4.356
 2803TIP3   OH229823   1.676   1.270   3.720
 2803TIP3    H129824   1.753   1.216   3.700
 2803TIP3    H229825   1.706   1.329   3.789
 2804TIP3   OH229826   0.609   4.687  14.153
 2804TIP3    H129827   0.637   4.666  14.242
 2804TIP3    H229828   0.529   4.739  14.165
 2805TIP3   OH229829   5.392   0.370   3.999
 2805TIP3    H129830   5.482   0.340   4.012
 2805TIP3    H229831   5.358   0.315   3.928
 2806TIP3   OH229832   3.671   6.178  13.864
 2806TIP3    H129833   3.644   6.092  13.831
 2806TIP3    H229834   3.615   6.192  13.941
 2807TIP3   OH229835   3.582   2.665   4.666
 2807TIP3    H129836   3.579   2.729   4.736
 2807TIP3    H229837   3.625   2.711   4.593
 2808TIP3   OH229838   6.206   2.227   0.888
 2808TIP3    H129839   6.185   2.138   0.863
 2808TIP3    H229840   6.274   2.254   0.827
 2809TIP3   OH229841   1.428   3.125  16.619
 2809TIP3    H129842   1.397   3.086  16.701
 2809TIP3    H229843   1.515   3.088  16.606
 2810TIP3   OH229844   1.418   2.113  17.236
 2810TIP3    H129845   1.334   2.069  17.249
 2810TIP3    H229846   1.478   2.070  17.297
 2811TIP3   OH229847   2.284   5.371   5.076
 2811TIP3    H129848   2.204   5.319   5.090
 2811TIP3    H229849   2.354   5.320   5.117
 2812TIP3   OH229850   1.018   3.974  16.393
 2812TIP3    H129851   0.970   4.028  16.455
 2812TIP3    H229852   1.104   4.015  16.386
 2813TIP3   OH229853   4.640   0.751  14.051
 2813TIP3    H129854   4.581   0.675  14.058
 2813TIP3    H229855   4.705   0.737  14.119
 2814TIP3   OH229856   0.872   3.846   2.777
 2814TIP3    H129857   0.836   3.916   2.723
 2814TIP3    H229858   0.940   3.806   2.723
 2815TIP3   OH229859   6.453   3.143   3.313
 2815TIP3    H129860   6.481   3.101   3.232
 2815TIP3    H229861   6.488   3.088   3.383
 2816TIP3   OH229862   5.859   4.519  13.174
 2816TIP3    H129863   5.819   4.575  13.108
 2816TIP3    H229864   5.803   4.442  13.178
 2817TIP3   OH229865   1.833   6.267   2.113
 2817TIP3    H129866   1.864   6.354   2.085
 2817TIP3    H229867   1.913   6.215   2.122
 2818TIP3   OH229868   4.697   5.472   3.434
 2818TIP3    H129869   4.761   5.441   3.498
 2818TIP3    H229870   4.650   5.393   3.408
 2819TIP3   OH229871   1.354   1.699  12.672
 2819TIP3    H129872   1.363   1.636  12.743
 2819TIP3    H229873   1.285   1.758  12.701
 2820TIP3   OH229874   3.242   1.122  13.730
 2820TIP3    H129875   3.174   1.064  13.764
 2820TIP3    H229876   3.194   1.196  13.693
 2821TIP3   OH229877   0.644   2.591  15.328
 2821TIP3    H129878   0.575   2.559  15.269
 2821TIP3    H229879   0.722   2.595  15.274
 2822TIP3   OH229880   1.967   2.751   1.838
 2822TIP3    H129881   2.035   2.770   1.774
 2822TIP3    H229882   1.924   2.835   1.854
 2823TIP3   OH229883   1.170   4.072  14.985
 2823TIP3    H129884   1.264   4.054  14.978
 2823TIP3    H229885   1.133   3.994  15.025
 2824TIP3   OH229886   2.658   5.207  16.228
 2824TIP3    H129887   2.591   5.273  16.246
 2824TIP3    H229888   2.638   5.135  16.287
 2825TIP3   OH229889   4.925   3.103  13.574
 2825TIP3    H129890   4.991   3.075  13.638
 2825TIP3    H229891   4.920   3.198  13.584
 2826TIP3   OH229892   3.025   3.459  12.083
 2826TIP3    H129893   3.009   3.502  11.999
 2826TIP3    H229894   3.119   3.466  12.096
 2827TIP3   OH229895   1.156   3.255  13.030
 2827TIP3    H129896   1.107   3.174  13.045
 2827TIP3    H229897   1.196   3.242  12.944
 2828TIP3   OH229898   0.439   2.841   1.309
 2828TIP3    H129899   0.404   2.901   1.243
 2828TIP3    H229900   0.415   2.880   1.393
 2829TIP3   OH229901   5.517   2.643  12.620
 2829TIP3    H129902   5.555   2.644  12.707
 2829TIP3    H229903   5.472   2.559  12.613
 2830TIP3   OH229904   0.090   4.249   4.529
 2830TIP3    H129905   0.106   4.343   4.538
 2830TIP3    H229906   0.066   4.237   4.437
 2831TIP3   OH229907   5.692   2.242   4.085
 2831TIP3    H129908   5.647   2.279   4.161
 2831TIP3    H229909   5.747   2.173   4.121
 2832TIP3   OH229910   4.988   3.775   2.366
 2832TIP3    H129911   4.923   3.846   2.366
 2832TIP3    H229912   5.002   3.756   2.459
 2833TIP3   OH229913   2.926   4.443  13.117
 2833TIP3    H129914   2.854   4.471  13.060
 2833TIP3    H229915   2.894   4.364  13.160
 2834TIP3   OH229916   5.618   3.463   3.977
 2834TIP3    H129917   5.667   3.529   4.026
 2834TIP3    H229918   5.655   3.379   4.005
 2835TIP3   OH229919   2.223   2.115   0.949
 2835TIP3    H129920   2.300   2.107   1.005
 2835TIP3    H229921   2.205   2.025   0.921
 2836TIP3   OH229922   4.727   0.201   3.170
 2836TIP3    H129923   4.710   0.245   3.253
 2836TIP3    H229924   4.752   0.271   3.110
 2837TIP3   OH229925   0.117   3.185   0.791
 2837TIP3    H129926   0.082   3.188   0.702
 2837TIP3    H229927   0.057   3.239   0.842
 2838TIP3   OH229928   1.102   1.480  13.114
 2838TIP3    H129929   1.091   1.570  13.146
 2838TIP3    H229930   1.116   1.428  13.193
 2839TIP3   OH229931   1.254   2.749  14.413
 2839TIP3    H129932   1.323   2.775  14.474
 2839TIP3    H229933   1.181   2.724  14.468
 2840TIP3   OH229934   5.807   2.680   5.729
 2840TIP3    H129935   5.892   2.638   5.717
 2840TIP3    H229936   5.818   2.735   5.807
 2841TIP3   OH229937   1.852   5.657   4.684
 2841TIP3    H129938   1.766   5.646   4.726
 2841TIP3    H229939   1.913   5.666   4.756
 2842TIP3   OH229940   3.021   1.648  13.141
 2842TIP3    H129941   3.065   1.713  13.195
 2842TIP3    H229942   3.086   1.578  13.130
 2843TIP3   OH229943   6.032   5.894  10.598
 2843TIP3    H129944   6.103   5.833  10.577
 2843TIP3    H229945   6.059   5.977  10.560
 2844TIP3   OH229946   3.205   0.150   3.962
 2844TIP3    H129947   3.142   0.203   4.011
 2844TIP3    H229948   3.198   0.182   3.872
 2845TIP3   OH229949   3.725   1.932  13.782
 2845TIP3    H129950   3.733   1.985  13.702
 2845TIP3    H229951   3.811   1.941  13.824
 2846TIP3   OH229952   0.718   5.460  15.734
 2846TIP3    H129953   0.689   5.549  15.755
 2846TIP3    H229954   0.720   5.415  15.819
 2847TIP3   OH229955   4.734   2.829  12.185
 2847TIP3    H129956   4.811   2.878  12.157
 2847TIP3    H229957   4.697   2.880  12.257
 2848TIP3   OH229958   2.066   4.636   2.239
 2848TIP3    H129959   2.127   4.709   2.248
 2848TIP3    H229960   1.979   4.675   2.252
 2849TIP3   OH229961   2.869   1.062   0.751
 2849TIP3    H129962   2.834   1.151   0.753
 2849TIP3    H229963   2.893   1.043   0.841
 2850TIP3   OH229964   3.143   0.980   3.588
 2850TIP3    H129965   3.197   1.043   3.636
 2850TIP3    H229966   3.070   0.963   3.647
 2851TIP3   OH229967   6.122   2.309   3.432
 2851TIP3    H129968   6.094   2.321   3.523
 2851TIP3    H229969   6.105   2.216   3.414
 2852TIP3   OH229970   4.268   2.384  13.918
 2852TIP3    H129971   4.193   2.368  13.976
 2852TIP3    H229972   4.335   2.324  13.950
 2853TIP3   OH229973   6.434   4.419   3.329
 2853TIP3    H129974   6.380   4.429   3.408
 2853TIP3    H229975   6.435   4.507   3.290
 2854TIP3   OH229976   4.194   1.969  11.873
 2854TIP3    H129977   4.246   2.033  11.824
 2854TIP3    H229978   4.119   2.019  11.906
 2855TIP3   OH229979   6.271   5.604   3.498
 2855TIP3    H129980   6.293   5.521   3.455
 2855TIP3    H229981   6.308   5.671   3.439
 2856TIP3   OH229982   5.445   3.982   2.404
 2856TIP3    H129983   5.391   3.965   2.327
 2856TIP3    H229984   5.422   4.071   2.431
 2857TIP3   OH229985   1.601   4.067  12.925
 2857TIP3    H129986   1.526   4.051  12.982
 2857TIP3    H229987   1.602   3.993  12.864
 2858TIP3   OH229988   5.801   5.892  15.207
 2858TIP3    H129989   5.775   5.903  15.116
 2858TIP3    H229990   5.775   5.802  15.229
 2859TIP3   OH229991   0.516   1.467  10.343
 2859TIP3    H129992   0.585   1.444  10.405
 2859TIP3    H229993   0.488   1.383  10.306
 2860TIP3   OH229994   5.510   5.357   4.717
 2860TIP3    H129995   5.485   5.310   4.796
 2860TIP3    H229996   5.589   5.406   4.743
 2861TIP3   OH229997   4.888   0.577  13.628
 2861TIP3    H129998   4.854   0.599  13.541
 2861TIP3    H229999   4.822   0.609  13.688
 2862TIP3   OH230000   1.637   6.015  15.616
 2862TIP3    H130001   1.717   6.056  15.585
 2862TIP3    H230002   1.586   6.086  15.654
 2863TIP3   OH230003   4.746   1.444   4.490
 2863TIP3    H130004   4.654   1.462   4.471
 2863TIP3    H230005   4.793   1.518   4.453
 2864TIP3   OH230006   4.688   2.252  13.351
 2864TIP3    H130007   4.599   2.286  13.339
 2864TIP3    H230008   4.727   2.256  13.264
 2865TIP3   OH230009   6.043   1.782   0.128
 2865TIP3    H130010   5.964   1.832   0.149
 2865TIP3    H230011   6.055   1.795   0.033
 2866TIP3   OH230012   3.629   6.276   3.419
 2866TIP3    H130013   3.546   6.239   3.449
 2866TIP3    H230014   3.635   6.361   3.462
 2867TIP3   OH230015   5.117   0.960  11.957
 2867TIP3    H130016   5.153   0.874  11.936
 2867TIP3    H230017   5.071   0.948  12.040
 2868TIP3   OH230018   0.488   2.563  16.383
 2868TIP3    H130019   0.478   2.481  16.334
 2868TIP3    H230020   0.464   2.631  16.321
 2869TIP3   OH230021   3.257   2.676   3.793
 2869TIP3    H130022   3.291   2.602   3.844
 2869TIP3    H230023   3.219   2.735   3.859
 2870TIP3   OH230024   3.451   3.178   0.292
 2870TIP3    H130025   3.461   3.207   0.201
 2870TIP3    H230026   3.444   3.259   0.342
 2871TIP3   OH230027   5.835   4.746   1.525
 2871TIP3    H130028   5.931   4.740   1.521
 2871TIP3    H230029   5.804   4.685   1.458
 2872TIP3   OH230030   6.159   3.812  11.648
 2872TIP3    H130031   6.243   3.841  11.612
 2872TIP3    H230032   6.154   3.719  11.625
 2873TIP3   OH230033   5.013   5.062  12.750
 2873TIP3    H130034   5.036   5.026  12.836
 2873TIP3    H230035   4.942   5.007  12.719
 2874TIP3   OH230036   1.317   5.859  17.027
 2874TIP3    H130037   1.380   5.865  16.954
 2874TIP3    H230038   1.368   5.821  17.099
 2875TIP3   OH230039   2.951   0.145   2.539
 2875TIP3    H130040   3.028   0.172   2.589
 2875TIP3    H230041   2.987   0.100   2.463
 2876TIP3   OH230042   2.250   0.333  12.129
 2876TIP3    H130043   2.154   0.335  12.124
 2876TIP3    H230044   2.276   0.425  12.129
 2877TIP3   OH230045   2.704   6.420  14.410
 2877TIP3    H130046   2.735   6.369  14.485
 2877TIP3    H230047   2.649   6.488  14.449
 2878TIP3   OH230048   5.103   1.471   5.280
 2878TIP3    H130049   5.102   1.540   5.346
 2878TIP3    H230050   5.011   1.461   5.256
 2879TIP3   OH230051   0.224   6.503  11.643
 2879TIP3    H130052   0.147   6.549  11.612
 2879TIP3    H230053   0.267   6.470  11.564
 2880TIP3   OH230054   4.096   1.224   5.324
 2880TIP3    H130055   4.186   1.209   5.297
 2880TIP3    H230056   4.043   1.193   5.250
 2881TIP3   OH230057   5.705   4.449  13.825
 2881TIP3    H130058   5.610   4.451  13.809
 2881TIP3    H230059   5.714   4.478  13.916
 2882TIP3   OH230060   6.772   2.108   0.580
 2882TIP3    H130061   6.766   2.104   0.484
 2882TIP3    H230062   6.752   2.199   0.602
 2883TIP3   OH230063   3.089   2.408  11.551
 2883TIP3    H130064   3.099   2.341  11.483
 2883TIP3    H230065   3.091   2.491  11.504
 2884TIP3   OH230066   5.564   6.647   0.327
 2884TIP3    H130067   5.505   6.577   0.301
 2884TIP3    H230068   5.564   6.644   0.423
 2885TIP3   OH230069   4.670   0.603  16.447
 2885TIP3    H130070   4.611   0.533  16.419
 2885TIP3    H230071   4.613   0.679  16.457
 2886TIP3   OH230072   1.403   2.360  13.410
 2886TIP3    H130073   1.427   2.401  13.493
 2886TIP3    H230074   1.307   2.357  13.411
 2887TIP3   OH230075   0.273   2.077  12.715
 2887TIP3    H130076   0.188   2.106  12.750
 2887TIP3    H230077   0.251   2.003  12.659
 2888TIP3   OH230078   4.267   3.064   5.029
 2888TIP3    H130079   4.179   3.084   5.061
 2888TIP3    H230080   4.284   3.131   4.962
 2889TIP3   OH230081   0.898   3.280  16.964
 2889TIP3    H130082   0.848   3.232  17.029
 2889TIP3    H230083   0.980   3.231  16.955
 2890TIP3   OH230084   2.515   3.913   5.532
 2890TIP3    H130085   2.457   3.930   5.458
 2890TIP3    H230086   2.601   3.900   5.494
 2891TIP3   OH230087   3.766   1.565  13.980
 2891TIP3    H130088   3.782   1.640  14.037
 2891TIP3    H230089   3.689   1.589  13.929
 2892TIP3   OH230090   4.460   6.339   5.785
 2892TIP3    H130091   4.408   6.279   5.839
 2892TIP3    H230092   4.396   6.386   5.732
 2893TIP3   OH230093   5.505   6.281   3.183
 2893TIP3    H130094   5.459   6.310   3.262
 2893TIP3    H230095   5.551   6.359   3.152
 2894TIP3   OH230096   5.074   3.084  11.130
 2894TIP3    H130097   5.024   3.008  11.159
 2894TIP3    H230098   5.136   3.100  11.202
 2895TIP3   OH230099   5.605   4.103   0.086
 2895TIP3    H130100   5.638   4.162   0.019
 2895TIP3    H230101   5.673   4.036   0.095
 2896TIP3   OH230102   3.375   3.354  14.710
 2896TIP3    H130103   3.464   3.320  14.700
 2896TIP3    H230104   3.387   3.440  14.751
 2897TIP3   OH230105   6.222   2.817   2.698
 2897TIP3    H130106   6.144   2.865   2.728
 2897TIP3    H230107   6.284   2.886   2.674
 2898TIP3   OH230108   3.314   5.745   1.230
 2898TIP3    H130109   3.396   5.699   1.244
 2898TIP3    H230110   3.291   5.726   1.139
 2899TIP3   OH230111   2.765   2.903  15.320
 2899TIP3    H130112   2.679   2.936  15.348
 2899TIP3    H230113   2.783   2.951  15.239
 2900TIP3   OH230114   2.799   6.059  13.836
 2900TIP3    H130115   2.840   6.037  13.753
 2900TIP3    H230116   2.856   6.126  13.874
 2901TIP3   OH230117   3.461   5.027  16.042
 2901TIP3    H130118   3.444   5.111  16.000
 2901TIP3    H230119   3.467   5.047  16.135
 2902TIP3   OH230120   1.404   2.203  15.733
 2902TIP3    H130121   1.365   2.119  15.756
 2902TIP3    H230122   1.384   2.213  15.640
 2903TIP3   OH230123   4.802   5.572  14.962
 2903TIP3    H130124   4.789   5.534  14.875
 2903TIP3    H230125   4.726   5.543  15.012
 2904TIP3   OH230126   3.195   2.083   0.521
 2904TIP3    H130127   3.145   2.115   0.596
 2904TIP3    H230128   3.147   2.006   0.491
 2905TIP3   OH230129   2.205   2.559  12.221
 2905TIP3    H130130   2.117   2.594  12.208
 2905TIP3    H230131   2.258   2.636  12.243
 2906TIP3   OH230132   3.607   3.398   2.840
 2906TIP3    H130133   3.544   3.346   2.890
 2906TIP3    H230134   3.555   3.469   2.804
 2907TIP3   OH230135   6.618   5.927   4.553
 2907TIP3    H130136   6.705   5.933   4.592
 2907TIP3    H230137   6.559   5.968   4.618
 2908TIP3   OH230138   0.514   3.652   6.018
 2908TIP3    H130139   0.525   3.699   6.100
 2908TIP3    H230140   0.603   3.624   5.995
 2909TIP3   OH230141   2.329   6.428  14.377
 2909TIP3    H130142   2.273   6.451  14.451
 2909TIP3    H230143   2.362   6.341  14.397
 2910TIP3   OH230144   6.137   5.337   1.698
 2910TIP3    H130145   6.067   5.319   1.635
 2910TIP3    H230146   6.153   5.431   1.691
 2911TIP3   OH230147   3.526   5.605  16.506
 2911TIP3    H130148   3.560   5.681  16.553
 2911TIP3    H230149   3.444   5.584  16.552
 2912TIP3   OH230150   0.319   2.187  16.535
 2912TIP3    H130151   0.228   2.198  16.506
 2912TIP3    H230152   0.323   2.099  16.571
 2913TIP3   OH230153   1.507   2.312   2.696
 2913TIP3    H130154   1.476   2.223   2.713
 2913TIP3    H230155   1.436   2.352   2.645
 2914TIP3   OH230156   1.540   1.285   1.289
 2914TIP3    H130157   1.513   1.210   1.236
 2914TIP3    H230158   1.632   1.300   1.267
 2915TIP3   OH230159   3.080   6.307   4.062
 2915TIP3    H130160   3.004   6.331   4.115
 2915TIP3    H230161   3.069   6.354   3.980
 2916TIP3   OH230162   1.727   3.870  16.046
 2916TIP3    H130163   1.636   3.886  16.020
 2916TIP3    H230164   1.776   3.870  15.964
 2917TIP3   OH230165   5.676   0.549  15.053
 2917TIP3    H130166   5.766   0.575  15.035
 2917TIP3    H230167   5.648   0.505  14.972
 2918TIP3   OH230168   4.438   2.088   4.525
 2918TIP3    H130169   4.439   2.087   4.429
 2918TIP3    H230170   4.354   2.127   4.548
 2919TIP3   OH230171   3.174   3.059  14.074
 2919TIP3    H130172   3.268   3.048  14.058
 2919TIP3    H230173   3.141   2.970  14.086
 2920TIP3   OH230174   6.500   0.063   5.085
 2920TIP3    H130175   6.479   0.154   5.106
 2920TIP3    H230176   6.562   0.036   5.153
 2921TIP3   OH230177   4.171   3.322   5.586
 2921TIP3    H130178   4.254   3.359   5.613
 2921TIP3    H230179   4.106   3.365   5.641
 2922TIP3   OH230180   0.556   5.985   3.534
 2922TIP3    H130181   0.558   5.900   3.577
 2922TIP3    H230182   0.644   5.996   3.498
 2923TIP3   OH230183   3.381   6.152  13.118
 2923TIP3    H130184   3.397   6.246  13.119
 2923TIP3    H230185   3.302   6.140  13.171
 2924TIP3   OH230186   5.643   1.567  14.919
 2924TIP3    H130187   5.668   1.584  15.009
 2924TIP3    H230188   5.677   1.479  14.900
 2925TIP3   OH230189   6.485   6.074   1.834
 2925TIP3    H130190   6.444   6.157   1.812
 2925TIP3    H230191   6.527   6.089   1.918
 2926TIP3   OH230192   3.829   2.385   4.292
 2926TIP3    H130193   3.774   2.308   4.302
 2926TIP3    H230194   3.841   2.418   4.382
 2927TIP3   OH230195   1.236   0.973   4.016
 2927TIP3    H130196   1.330   0.955   4.017
 2927TIP3    H230197   1.204   0.924   3.940
 2928TIP3   OH230198   6.500   0.252   2.668
 2928TIP3    H130199   6.458   0.329   2.630
 2928TIP3    H230200   6.427   0.195   2.693
 2929TIP3   OH230201   1.086   2.476   2.142
 2929TIP3    H130202   1.041   2.406   2.096
 2929TIP3    H230203   1.018   2.517   2.195
 2930TIP3   OH230204   6.002   4.776  16.759
 2930TIP3    H130205   5.965   4.711  16.700
 2930TIP3    H230206   5.955   4.857  16.739
 2931TIP3   OH230207   3.484   2.364   4.198
 2931TIP3    H130208   3.514   2.345   4.287
 2931TIP3    H230209   3.491   2.459   4.191
 2932TIP3   OH230210   5.622   3.272  13.908
 2932TIP3    H130211   5.652   3.246  13.821
 2932TIP3    H230212   5.667   3.212  13.968
 2933TIP3   OH230213   1.235   4.192   0.825
 2933TIP3    H130214   1.270   4.182   0.737
 2933TIP3    H230215   1.214   4.285   0.832
 2934TIP3   OH230216   3.021   3.740  15.122
 2934TIP3    H130217   2.956   3.810  15.111
 2934TIP3    H230218   2.968   3.660  15.126
 2935TIP3   OH230219   6.584   5.689  15.442
 2935TIP3    H130220   6.653   5.622  15.444
 2935TIP3    H230221   6.598   5.739  15.522
 2936TIP3   OH230222   1.836   0.988   1.708
 2936TIP3    H130223   1.862   1.062   1.763
 2936TIP3    H230224   1.918   0.958   1.668
 2937TIP3   OH230225   5.814   1.746   2.883
 2937TIP3    H130226   5.863   1.733   2.802
 2937TIP3    H230227   5.723   1.729   2.860
 2938TIP3   OH230228   0.329   3.292   1.428
 2938TIP3    H130229   0.401   3.352   1.408
 2938TIP3    H230230   0.281   3.284   1.346
 2939TIP3   OH230231   6.425   4.921   5.329
 2939TIP3    H130232   6.387   4.835   5.310
 2939TIP3    H230233   6.517   4.903   5.348
 2940TIP3   OH230234   6.376   2.658  14.002
 2940TIP3    H130235   6.431   2.732  14.027
 2940TIP3    H230236   6.418   2.621  13.924
 2941TIP3   OH230237   2.239   1.865  14.214
 2941TIP3    H130238   2.157   1.890  14.257
 2941TIP3    H230239   2.217   1.784  14.167
 2942TIP3   OH230240   5.983   5.205   1.478
 2942TIP3    H130241   6.047   5.181   1.411
 2942TIP3    H230242   5.970   5.299   1.466
 2943TIP3   OH230243   0.408   4.419  12.922
 2943TIP3    H130244   0.363   4.483  12.867
 2943TIP3    H230245   0.337   4.379  12.973
 2944TIP3   OH230246   2.827   2.480   6.070
 2944TIP3    H130247   2.858   2.553   6.017
 2944TIP3    H230248   2.820   2.515   6.159
 2945TIP3   OH230249   3.799   2.412  14.006
 2945TIP3    H130250   3.745   2.457  14.071
 2945TIP3    H230251   3.792   2.466  13.927
 2946TIP3   OH230252   3.694   0.511  13.674
 2946TIP3    H130253   3.634   0.458  13.727
 2946TIP3    H230254   3.708   0.591  13.725
 2947TIP3   OH230255   5.643   2.377  16.735
 2947TIP3    H130256   5.559   2.373  16.691
 2947TIP3    H230257   5.708   2.379  16.664
 2948TIP3   OH230258   4.176   3.179  11.787
 2948TIP3    H130259   4.217   3.193  11.873
 2948TIP3    H230260   4.175   3.265  11.747
 2949TIP3   OH230261   0.905   2.774   5.314
 2949TIP3    H130262   0.842   2.800   5.247
 2949TIP3    H230263   0.851   2.728   5.379
 2950TIP3   OH230264   1.976   3.044  15.553
 2950TIP3    H130265   2.065   3.076  15.564
 2950TIP3    H230266   1.926   3.121  15.525
 2951TIP3   OH230267   0.023   6.634   1.681
 2951TIP3    H130268   0.094   6.684   1.721
 2951TIP3    H230269  -0.056   6.662   1.728
 2952TIP3   OH230270   0.013   3.172  10.899
 2952TIP3    H130271  -0.008   3.087  10.861
 2952TIP3    H230272   0.073   3.213  10.836
 2953TIP3   OH230273   5.331   1.288  17.096
 2953TIP3    H130274   5.308   1.270  17.187
 2953TIP3    H230275   5.254   1.259  17.046
 2954TIP3   OH230276   4.514   2.320   5.504
 2954TIP3    H130277   4.564   2.393   5.467
 2954TIP3    H230278   4.555   2.242   5.467
 2955TIP3   OH230279   2.234   6.146  12.288
 2955TIP3    H130280   2.239   6.140  12.383
 2955TIP3    H230281   2.146   6.116  12.267
 2956TIP3   OH230282   1.291   3.682   5.070
 2956TIP3    H130283   1.321   3.769   5.043
 2956TIP3    H230284   1.346   3.661   5.146
 2957TIP3   OH230285   5.992   3.033  16.837
 2957TIP3    H130286   5.968   2.978  16.762
 2957TIP3    H230287   5.913   3.082  16.857
 2958TIP3   OH230288   5.904   0.562   1.439
 2958TIP3    H130289   5.970   0.519   1.385
 2958TIP3    H230290   5.943   0.563   1.527
 2959TIP3   OH230291   5.698   0.992   0.287
 2959TIP3    H130292   5.736   0.924   0.342
 2959TIP3    H230293   5.771   1.026   0.236
 2960TIP3   OH230294   1.403   4.447   1.908
 2960TIP3    H130295   1.377   4.498   1.984
 2960TIP3    H230296   1.469   4.501   1.865
 2961TIP3   OH230297   0.881   3.158  13.813
 2961TIP3    H130298   0.817   3.211  13.766
 2961TIP3    H230299   0.965   3.202  13.797
 2962TIP3   OH230300   4.754   3.622   5.470
 2962TIP3    H130301   4.799   3.537   5.464
 2962TIP3    H230302   4.805   3.680   5.413
 2963TIP3   OH230303   2.577   2.016   0.894
 2963TIP3    H130304   2.659   2.056   0.923
 2963TIP3    H230305   2.526   2.005   0.974
 2964TIP3   OH230306   4.835   6.743   0.083
 2964TIP3    H130307   4.748   6.728   0.118
 2964TIP3    H230308   4.821   6.768  -0.008
 2965TIP3   OH230309   6.365   1.628   3.597
 2965TIP3    H130310   6.315   1.565   3.650
 2965TIP3    H230311   6.306   1.702   3.586
 2966TIP3   OH230312   3.338   6.201  12.155
 2966TIP3    H130313   3.247   6.171  12.153
 2966TIP3    H230314   3.382   6.148  12.088
 2967TIP3   OH230315   3.940   4.435  16.617
 2967TIP3    H130316   3.902   4.497  16.554
 2967TIP3    H230317   3.982   4.368  16.563
 2968TIP3   OH230318   2.260   0.361   5.381
 2968TIP3    H130319   2.338   0.308   5.369
 2968TIP3    H230320   2.188   0.298   5.387
 2969TIP3   OH230321   5.261   4.796  10.340
 2969TIP3    H130322   5.232   4.704  10.337
 2969TIP3    H230323   5.185   4.844  10.372
 2970TIP3   OH230324   0.621   2.275   1.438
 2970TIP3    H130325   0.577   2.313   1.514
 2970TIP3    H230326   0.714   2.294   1.452
 2971TIP3   OH230327   2.830   5.461  15.322
 2971TIP3    H130328   2.789   5.535  15.366
 2971TIP3    H230329   2.865   5.408  15.394
 2972TIP3   OH230330   2.928   6.664   3.619
 2972TIP3    H130331   2.882   6.649   3.537
 2972TIP3    H230332   2.859   6.662   3.686
 2973TIP3   OH230333   0.344   2.868  11.759
 2973TIP3    H130334   0.265   2.837  11.803
 2973TIP3    H230335   0.414   2.817  11.799
 2974TIP3   OH230336   4.978   3.396  15.049
 2974TIP3    H130337   4.933   3.467  15.095
 2974TIP3    H230338   5.071   3.410  15.068
 2975TIP3   OH230339   4.125   6.105  16.838
 2975TIP3    H130340   4.064   6.173  16.866
 2975TIP3    H230341   4.199   6.114  16.898
 2976TIP3   OH230342   2.070   5.761  14.970
 2976TIP3    H130343   1.987   5.807  14.959
 2976TIP3    H230344   2.136   5.830  14.966
 2977TIP3   OH230345   1.206   3.249  14.721
 2977TIP3    H130346   1.272   3.211  14.779
 2977TIP3    H230347   1.227   3.343  14.720
 2978TIP3   OH230348   0.378   4.736  13.541
 2978TIP3    H130349   0.417   4.709  13.458
 2978TIP3    H230350   0.404   4.669  13.604
 2979TIP3   OH230351   0.991   5.648  16.072
 2979TIP3    H130352   0.942   5.679  16.148
 2979TIP3    H230353   1.029   5.564  16.100
 2980TIP3   OH230354   5.935   6.646   3.478
 2980TIP3    H130355   5.987   6.664   3.400
 2980TIP3    H230356   5.849   6.621   3.445
 2981TIP3   OH230357   0.179   2.151  14.490
 2981TIP3    H130358   0.200   2.187  14.403
 2981TIP3    H230359   0.084   2.142  14.489
 2982TIP3   OH230360   1.219   4.440   2.781
 2982TIP3    H130361   1.282   4.483   2.722
 2982TIP3    H230362   1.272   4.382   2.834
 2983TIP3   OH230363   3.134   1.824   2.879
 2983TIP3    H130364   3.221   1.819   2.838
 2983TIP3    H230365   3.115   1.918   2.883
 2984TIP3   OH230366   5.199   5.898   3.327
 2984TIP3    H130367   5.174   5.957   3.397
 2984TIP3    H230368   5.281   5.934   3.293
 2985TIP3   OH230369   5.574   4.644  14.086
 2985TIP3    H130370   5.519   4.570  14.062
 2985TIP3    H230371   5.535   4.677  14.167
 2986TIP3   OH230372   4.259   4.123  13.582
 2986TIP3    H130373   4.186   4.110  13.521
 2986TIP3    H230374   4.217   4.133  13.667
 2987TIP3   OH230375   0.421   6.089   0.366
 2987TIP3    H130376   0.391   6.019   0.423
 2987TIP3    H230377   0.369   6.080   0.286
 2988TIP3   OH230378   6.604   6.140  11.978
 2988TIP3    H130379   6.659   6.089  12.037
 2988TIP3    H230380   6.652   6.223  11.968
 2989TIP3   OH230381   6.752   2.590  12.911
 2989TIP3    H130382   6.722   2.514  12.862
 2989TIP3    H230383   6.785   2.555  12.993
 2990TIP3   OH230384   1.202   0.954  14.797
 2990TIP3    H130385   1.113   0.953  14.833
 2990TIP3    H230386   1.190   0.931  14.705
 2991TIP3   OH230387   1.238   1.990   4.742
 2991TIP3    H130388   1.148   1.959   4.753
 2991TIP3    H230389   1.231   2.086   4.742
 2992TIP3   OH230390   1.108   1.625   2.305
 2992TIP3    H130391   1.164   1.692   2.265
 2992TIP3    H230392   1.167   1.577   2.363
 2993TIP3   OH230393   4.393   0.699  16.423
 2993TIP3    H130394   4.355   0.752  16.492
 2993TIP3    H230395   4.331   0.627  16.410
 2994TIP3   OH230396   5.085   3.455   2.620
 2994TIP3    H130397   5.169   3.414   2.639
 2994TIP3    H230398   5.025   3.419   2.686
 2995TIP3   OH230399   2.610   2.191   0.101
 2995TIP3    H130400   2.683   2.246   0.074
 2995TIP3    H230401   2.641   2.148   0.181
 2996TIP3   OH230402   5.403   6.411  13.291
 2996TIP3    H130403   5.331   6.428  13.351
 2996TIP3    H230404   5.467   6.362  13.343
 2997TIP3   OH230405   5.352   4.632  15.014
 2997TIP3    H130406   5.339   4.622  14.920
 2997TIP3    H230407   5.297   4.564  15.053
 2998TIP3   OH230408   5.502   2.224   0.411
 2998TIP3    H130409   5.569   2.241   0.344
 2998TIP3    H230410   5.456   2.308   0.420
 2999TIP3   OH230411   6.238   5.043  11.482
 2999TIP3    H130412   6.316   5.067  11.532
 2999TIP3    H230413   6.207   5.125  11.445
 3000TIP3   OH230414   1.766   0.521  12.078
 3000TIP3    H130415   1.692   0.521  12.139
 3000TIP3    H230416   1.802   0.610  12.084
 3001TIP3   OH230417   4.421   4.835  16.218
 3001TIP3    H130418   4.510   4.818  16.250
 3001TIP3    H230419   4.395   4.915  16.262
 3002TIP3   OH230420   1.940   5.330  14.268
 3002TIP3    H130421   1.901   5.363  14.187
 3002TIP3    H230422   1.895   5.379  14.337
 3003TIP3   OH230423   5.557   5.612  16.554
 3003TIP3    H130424   5.506   5.620  16.474
 3003TIP3    H230425   5.648   5.608  16.525
 3004TIP3   OH230426   4.904   3.166  14.681
 3004TIP3    H130427   4.902   3.172  14.776
 3004TIP3    H230428   4.988   3.124  14.661
 3005TIP3   OH230429   0.732   1.708   1.390
 3005TIP3    H130430   0.704   1.790   1.351
 3005TIP3    H230431   0.653   1.653   1.391
 3006TIP3   OH230432   5.347   3.010   5.232
 3006TIP3    H130433   5.396   2.931   5.208
 3006TIP3    H230434   5.414   3.077   5.242
 3007TIP3   OH230435   6.485   2.200   5.695
 3007TIP3    H130436   6.575   2.173   5.675
 3007TIP3    H230437   6.479   2.290   5.661
 3008TIP3   OH230438   0.718   0.706  13.633
 3008TIP3    H130439   0.799   0.757  13.633
 3008TIP3    H230440   0.722   0.656  13.551
 3009TIP3   OH230441   0.806   4.073   1.727
 3009TIP3    H130442   0.894   4.085   1.763
 3009TIP3    H230443   0.754   4.144   1.764
 3010TIP3   OH230444   2.850   5.294  17.236
 3010TIP3    H130445   2.807   5.226  17.184
 3010TIP3    H230446   2.778   5.340  17.280
 3011TIP3   OH230447   5.426   1.160  12.653
 3011TIP3    H130448   5.386   1.141  12.568
 3011TIP3    H230449   5.416   1.255  12.663
 3012TIP3   OH230450   1.395   2.284  16.436
 3012TIP3    H130451   1.470   2.343  16.450
 3012TIP3    H230452   1.318   2.342  16.442
 3013TIP3   OH230453   0.383   3.241   2.829
 3013TIP3    H130454   0.356   3.240   2.737
 3013TIP3    H230455   0.360   3.329   2.860
 3014TIP3   OH230456   1.399   4.592  16.992
 3014TIP3    H130457   1.441   4.608  16.907
 3014TIP3    H230458   1.390   4.497  16.996
 3015TIP3   OH230459   5.803   6.548   0.217
 3015TIP3    H130460   5.722   6.576   0.259
 3015TIP3    H230461   5.866   6.617   0.236
 3016TIP3   OH230462   2.887   1.523   4.438
 3016TIP3    H130463   2.973   1.542   4.400
 3016TIP3    H230464   2.849   1.458   4.380
 3017TIP3   OH230465   2.784   0.476  15.060
 3017TIP3    H130466   2.806   0.557  15.015
 3017TIP3    H230467   2.690   0.465  15.046
 3018TIP3   OH230468   0.330   5.450   3.060
 3018TIP3    H130469   0.308   5.404   2.979
 3018TIP3    H230470   0.246   5.486   3.090
 3019TIP3   OH230471   2.564   3.397  13.077
 3019TIP3    H130472   2.588   3.405  12.985
 3019TIP3    H230473   2.559   3.487  13.109
 3020TIP3   OH230474   5.035   0.253   4.576
 3020TIP3    H130475   4.966   0.291   4.522
 3020TIP3    H230476   5.116   0.281   4.534
 3021TIP3   OH230477   4.114   5.093   3.600
 3021TIP3    H130478   4.082   5.011   3.637
 3021TIP3    H230479   4.133   5.148   3.676
 3022TIP3   OH230480   1.653   4.735  15.078
 3022TIP3    H130481   1.570   4.778  15.099
 3022TIP3    H230482   1.710   4.755  15.153
 3023TIP3   OH230483   1.970   2.965  11.044
 3023TIP3    H130484   2.019   2.976  11.125
 3023TIP3    H230485   1.908   2.894  11.062
 3024TIP3   OH230486   6.114   2.588   3.871
 3024TIP3    H130487   6.164   2.663   3.902
 3024TIP3    H230488   6.053   2.568   3.942
 3025TIP3   OH230489   4.681   2.360  12.907
 3025TIP3    H130490   4.615   2.419  12.871
 3025TIP3    H230491   4.637   2.276  12.916
 3026TIP3   OH230492   6.140   0.672  16.988
 3026TIP3    H130493   6.124   0.744  17.048
 3026TIP3    H230494   6.152   0.595  17.044
 3027TIP3   OH230495   3.622   1.001   3.906
 3027TIP3    H130496   3.676   0.966   3.977
 3027TIP3    H230497   3.595   1.087   3.937
 3028TIP3   OH230498   5.648   0.979   3.286
 3028TIP3    H130499   5.660   1.001   3.378
 3028TIP3    H230500   5.703   0.902   3.272
 3029TIP3   OH230501   3.105   2.440   4.776
 3029TIP3    H130502   3.196   2.452   4.802
 3029TIP3    H230503   3.097   2.345   4.762
 3030TIP3   OH230504   0.681   1.400  13.545
 3030TIP3    H130505   0.716   1.334  13.485
 3030TIP3    H230506   0.598   1.364  13.575
 3031TIP3   OH230507   0.217   5.118  10.851
 3031TIP3    H130508   0.287   5.120  10.916
 3031TIP3    H230509   0.261   5.137  10.768
 3032TIP3   OH230510   0.772   0.909  14.149
 3032TIP3    H130511   0.714   0.837  14.127
 3032TIP3    H230512   0.760   0.972  14.078
 3033TIP3   OH230513   2.543   5.566   0.845
 3033TIP3    H130514   2.455   5.534   0.862
 3033TIP3    H230515   2.601   5.502   0.885
 3034TIP3   OH230516   5.129   2.835  14.740
 3034TIP3    H130517   5.082   2.753  14.723
 3034TIP3    H230518   5.120   2.885  14.659
 3035TIP3   OH230519   4.610   5.215   3.372
 3035TIP3    H130520   4.690   5.172   3.403
 3035TIP3    H230521   4.539   5.160   3.406
 3036TIP3   OH230522   0.621   0.323  12.267
 3036TIP3    H130523   0.692   0.388  12.270
 3036TIP3    H230524   0.578   0.339  12.183
 3037TIP3   OH230525   0.783   6.151  13.158
 3037TIP3    H130526   0.848   6.170  13.226
 3037TIP3    H230527   0.790   6.057  13.144
 3038TIP3   OH230528   0.257   5.217  10.551
 3038TIP3    H130529   0.292   5.299  10.586
 3038TIP3    H230530   0.243   5.236  10.458
 3039TIP3   OH230531   4.221   2.978  16.762
 3039TIP3    H130532   4.158   3.006  16.828
 3039TIP3    H230533   4.298   2.950  16.811
 3040TIP3   OH230534   2.468   6.299  13.680
 3040TIP3    H130535   2.412   6.235  13.724
 3040TIP3    H230536   2.540   6.248  13.644
 3041TIP3   OH230537   3.559   2.098  14.023
 3041TIP3    H130538   3.652   2.081  14.008
 3041TIP3    H230539   3.533   2.155  13.951
 3042TIP3   OH230540   4.933   5.405  14.371
 3042TIP3    H130541   4.886   5.439  14.295
 3042TIP3    H230542   4.939   5.480  14.431
 3043TIP3   OH230543   4.380   0.402  12.215
 3043TIP3    H130544   4.389   0.412  12.310
 3043TIP3    H230545   4.384   0.492  12.181
 3044TIP3   OH230546   1.488   3.621   3.239
 3044TIP3    H130547   1.498   3.569   3.158
 3044TIP3    H230548   1.415   3.579   3.285
 3045TIP3   OH230549   5.187   1.984   6.236
 3045TIP3    H130550   5.105   1.951   6.199
 3045TIP3    H230551   5.200   2.068   6.193
 3046TIP3   OH230552   1.985   5.572   3.135
 3046TIP3    H130553   1.902   5.526   3.148
 3046TIP3    H230554   2.002   5.614   3.219
 3047TIP3   OH230555   4.358   6.215   0.295
 3047TIP3    H130556   4.408   6.140   0.262
 3047TIP3    H230557   4.363   6.206   0.390
 3048TIP3   OH230558   5.317   6.058   5.241
 3048TIP3    H130559   5.263   6.135   5.225
 3048TIP3    H230560   5.336   6.024   5.153
 3049TIP3   OH230561   2.155   2.589   4.159
 3049TIP3    H130562   2.087   2.574   4.093
 3049TIP3    H230563   2.237   2.570   4.113
 3050TIP3   OH230564   4.456   3.175   3.587
 3050TIP3    H130565   4.489   3.210   3.504
 3050TIP3    H230566   4.514   3.102   3.608
 3051TIP3   OH230567   3.486   3.856   0.663
 3051TIP3    H130568   3.412   3.795   0.660
 3051TIP3    H230569   3.542   3.829   0.591
 3052TIP3   OH230570   3.560   0.006   6.462
 3052TIP3    H130571   3.567  -0.077   6.508
 3052TIP3    H230572   3.642   0.014   6.413
 3053TIP3   OH230573   0.832   0.495  12.242
 3053TIP3    H130574   0.882   0.439  12.183
 3053TIP3    H230575   0.840   0.583  12.205
 3054TIP3   OH230576   2.872   2.880   5.447
 3054TIP3    H130577   2.912   2.966   5.456
 3054TIP3    H230578   2.829   2.865   5.531
 3055TIP3   OH230579   0.315   0.312  14.829
 3055TIP3    H130580   0.302   0.323  14.735
 3055TIP3    H230581   0.235   0.269  14.859
 3056TIP3   OH230582   4.572   3.541   4.783
 3056TIP3    H130583   4.586   3.461   4.731
 3056TIP3    H230584   4.565   3.611   4.717
 3057TIP3   OH230585   2.986   1.883  13.521
 3057TIP3    H130586   2.971   1.862  13.429
 3057TIP3    H230587   2.899   1.891  13.560
 3058TIP3   OH230588   3.928   5.777   3.914
 3058TIP3    H130589   3.845   5.740   3.944
 3058TIP3    H230590   3.903   5.850   3.857
 3059TIP3   OH230591   2.614   5.263  13.357
 3059TIP3    H130592   2.542   5.205  13.334
 3059TIP3    H230593   2.582   5.311  13.434
 3060TIP3   OH230594   3.351   4.224   1.576
 3060TIP3    H130595   3.381   4.147   1.528
 3060TIP3    H230596   3.293   4.189   1.644
 3061TIP3   OH230597   2.241   4.866  16.286
 3061TIP3    H130598   2.301   4.845  16.214
 3061TIP3    H230599   2.171   4.917  16.245
 3062TIP3   OH230600   5.740   3.849   1.737
 3062TIP3    H130601   5.706   3.832   1.649
 3062TIP3    H230602   5.829   3.813   1.735
 3063TIP3   OH230603   0.630   0.674  15.667
 3063TIP3    H130604   0.622   0.756  15.620
 3063TIP3    H230605   0.600   0.607  15.605
 3064TIP3   OH230606   6.666   1.683  12.421
 3064TIP3    H130607   6.683   1.618  12.489
 3064TIP3    H230608   6.605   1.745  12.461
 3065TIP3   OH230609   4.609   5.527  16.596
 3065TIP3    H130610   4.526   5.555  16.634
 3065TIP3    H230611   4.633   5.449  16.646
 3066TIP3   OH230612   3.405   5.126  14.994
 3066TIP3    H130613   3.329   5.070  15.011
 3066TIP3    H230614   3.470   5.097  15.058
 3067TIP3   OH230615   3.364   1.805  15.942
 3067TIP3    H130616   3.387   1.833  16.031
 3067TIP3    H230617   3.445   1.767  15.908
 3068TIP3   OH230618   1.879   1.268   3.161
 3068TIP3    H130619   1.904   1.358   3.181
 3068TIP3    H230620   1.951   1.215   3.195
 3069TIP3   OH230621   2.361   1.514  12.822
 3069TIP3    H130622   2.446   1.517  12.779
 3069TIP3    H230623   2.374   1.457  12.898
 3070TIP3   OH230624   0.706   5.984  14.139
 3070TIP3    H130625   0.626   5.932  14.144
 3070TIP3    H230626   0.684   6.054  14.077
 3071TIP3   OH230627   0.416   2.389   3.592
 3071TIP3    H130628   0.382   2.356   3.676
 3071TIP3    H230629   0.342   2.437   3.554
 3072TIP3   OH230630   5.741   3.833  14.965
 3072TIP3    H130631   5.730   3.865  14.876
 3072TIP3    H230632   5.723   3.739  14.960
 3073TIP3   OH230633   5.660   1.988   6.167
 3073TIP3    H130634   5.701   1.968   6.251
 3073TIP3    H230635   5.566   1.982   6.183
 3074TIP3   OH230636   5.693   6.121  12.030
 3074TIP3    H130637   5.745   6.200  12.016
 3074TIP3    H230638   5.610   6.139  11.987
 3075TIP3   OH230639   5.823   0.531  15.283
 3075TIP3    H130640   5.745   0.528  15.228
 3075TIP3    H230641   5.795   0.495  15.367
 3076TIP3   OH230642   3.364   0.993   0.573
 3076TIP3    H130643   3.383   0.944   0.654
 3076TIP3    H230644   3.283   1.039   0.592
 3077TIP3   OH230645   3.970   5.934  14.023
 3077TIP3    H130646   3.932   5.901  14.104
 3077TIP3    H230647   4.007   6.019  14.046
 3078TIP3   OH230648   2.016   1.507  11.843
 3078TIP3    H130649   2.080   1.468  11.784
 3078TIP3    H230650   2.050   1.595  11.860
 3079TIP3   OH230651   2.584   5.514   0.515
 3079TIP3    H130652   2.501   5.472   0.537
 3079TIP3    H230653   2.645   5.484   0.582
 3080TIP3   OH230654   3.172   2.928  12.525
 3080TIP3    H130655   3.132   2.995  12.469
 3080TIP3    H230656   3.253   2.968  12.557
 3081TIP3   OH230657   5.559   4.985   1.935
 3081TIP3    H130658   5.553   5.077   1.960
 3081TIP3    H230659   5.630   4.982   1.871
 3082TIP3   OH230660   3.948   4.969   0.283
 3082TIP3    H130661   3.967   4.892   0.229
 3082TIP3    H230662   3.970   5.043   0.227
 3083TIP3   OH230663   2.522   6.074   6.004
 3083TIP3    H130664   2.476   6.022   6.070
 3083TIP3    H230665   2.492   6.040   5.920
 3084TIP3   OH230666   6.769   4.867   3.619
 3084TIP3    H130667   6.817   4.881   3.538
 3084TIP3    H230668   6.688   4.824   3.592
 3085TIP3   OH230669   6.385   2.052   6.491
 3085TIP3    H130670   6.331   2.064   6.413
 3085TIP3    H230671   6.459   1.998   6.462
 3086TIP3   OH230672   3.007   0.547  16.067
 3086TIP3    H130673   3.038   0.631  16.101
 3086TIP3    H230674   2.912   0.549  16.081
 3087TIP3   OH230675   0.817   4.414   5.990
 3087TIP3    H130676   0.811   4.401   6.085
 3087TIP3    H230677   0.740   4.370   5.954
 3088TIP3   OH230678   0.273   3.178  12.211
 3088TIP3    H130679   0.262   3.216  12.298
 3088TIP3    H230680   0.261   3.084  12.224
 3089TIP3   OH230681   5.802   4.472  11.818
 3089TIP3    H130682   5.751   4.551  11.834
 3089TIP3    H230683   5.850   4.457  11.900
 3090TIP3   OH230684   1.438   0.864  14.372
 3090TIP3    H130685   1.488   0.876  14.291
 3090TIP3    H230686   1.372   0.799  14.351
 3091TIP3   OH230687   0.831   0.352   0.756
 3091TIP3    H130688   0.882   0.400   0.691
 3091TIP3    H230689   0.757   0.316   0.707
 3092TIP3   OH230690   2.656   2.697  11.865
 3092TIP3    H130691   2.570   2.658  11.846
 3092TIP3    H230692   2.664   2.768  11.801
 3093TIP3   OH230693   2.992   4.754   5.116
 3093TIP3    H130694   3.069   4.809   5.129
 3093TIP3    H230695   3.018   4.668   5.148
 3094TIP3   OH230696   2.719   1.791   5.076
 3094TIP3    H130697   2.696   1.876   5.113
 3094TIP3    H230698   2.773   1.813   5.000
 3095TIP3   OH230699   2.062   5.808   0.301
 3095TIP3    H130700   2.110   5.869   0.244
 3095TIP3    H230701   2.005   5.759   0.242
 3096TIP3   OH230702   2.462   3.877  11.498
 3096TIP3    H130703   2.504   3.962  11.512
 3096TIP3    H230704   2.479   3.828  11.578
 3097TIP3   OH230705   2.410   0.713  13.271
 3097TIP3    H130706   2.428   0.792  13.220
 3097TIP3    H230707   2.408   0.743  13.362
 3098TIP3   OH230708   3.567   5.108  11.365
 3098TIP3    H130709   3.486   5.111  11.415
 3098TIP3    H230710   3.539   5.097  11.274
 3099TIP3   OH230711   3.557   4.690   4.584
 3099TIP3    H130712   3.580   4.599   4.603
 3099TIP3    H230713   3.640   4.732   4.562
 3100TIP3   OH230714   2.769   2.825  15.011
 3100TIP3    H130715   2.768   2.745  15.064
 3100TIP3    H230716   2.730   2.891  15.068
 3101TIP3   OH230717   3.623   4.114   2.036
 3101TIP3    H130718   3.589   4.156   2.114
 3101TIP3    H230719   3.551   4.060   2.005
 3102TIP3   OH230720   5.140   2.361   4.041
 3102TIP3    H130721   5.133   2.456   4.032
 3102TIP3    H230722   5.233   2.345   4.056
 3103TIP3   OH230723   5.752   6.475  13.229
 3103TIP3    H130724   5.664   6.438  13.240
 3103TIP3    H230725   5.805   6.433  13.297
 3104TIP3   OH230726   4.444   4.177  12.892
 3104TIP3    H130727   4.361   4.137  12.868
 3104TIP3    H230728   4.477   4.123  12.964
 3105TIP3   OH230729   5.144   4.688   0.745
 3105TIP3    H130730   5.141   4.769   0.797
 3105TIP3    H230731   5.232   4.688   0.707
 3106TIP3   OH230732   6.068   5.140   2.472
 3106TIP3    H130733   6.100   5.118   2.385
 3106TIP3    H230734   5.993   5.083   2.486
 3107TIP3   OH230735   1.533   4.339  15.357
 3107TIP3    H130736   1.504   4.413  15.410
 3107TIP3    H230737   1.595   4.292  15.414
 3108TIP3   OH230738   5.320   3.192  13.932
 3108TIP3    H130739   5.361   3.256  13.990
 3108TIP3    H230740   5.341   3.222  13.844
 3109TIP3   OH230741   4.500   0.921   3.654
 3109TIP3    H130742   4.493   1.016   3.659
 3109TIP3    H230743   4.430   0.888   3.710
 3110TIP3   OH230744   2.485   2.899  16.162
 3110TIP3    H130745   2.428   2.961  16.207
 3110TIP3    H230746   2.489   2.932  16.072
 3111TIP3   OH230747   0.029   1.372  15.178
 3111TIP3    H130748  -0.050   1.318  15.178
 3111TIP3    H230749   0.008   1.445  15.236
 3112TIP3   OH230750   6.515   2.345  14.085
 3112TIP3    H130751   6.468   2.414  14.037
 3112TIP3    H230752   6.607   2.359  14.064
 3113TIP3   OH230753   5.899   2.215  13.281
 3113TIP3    H130754   5.840   2.239  13.352
 3113TIP3    H230755   5.891   2.285  13.217
 3114TIP3   OH230756   0.166   1.658  13.650
 3114TIP3    H130757   0.153   1.729  13.712
 3114TIP3    H230758   0.096   1.669  13.585
 3115TIP3   OH230759   5.282   0.776   0.374
 3115TIP3    H130760   5.263   0.811   0.461
 3115TIP3    H230761   5.200   0.784   0.326
 3116TIP3   OH230762   4.093   5.627   3.301
 3116TIP3    H130763   4.038   5.549   3.288
 3116TIP3    H230764   4.172   5.609   3.249
 3117TIP3   OH230765   0.182   6.685  13.415
 3117TIP3    H130766   0.115   6.704  13.480
 3117TIP3    H230767   0.231   6.768  13.406
 3118TIP3   OH230768   2.063   0.921  12.740
 3118TIP3    H130769   2.072   1.014  12.760
 3118TIP3    H230770   2.105   0.910  12.655
 3119TIP3   OH230771   2.332   4.177  16.701
 3119TIP3    H130772   2.328   4.267  16.668
 3119TIP3    H230773   2.394   4.133  16.644
 3120TIP3   OH230774   4.218   4.229   3.649
 3120TIP3    H130775   4.181   4.279   3.576
 3120TIP3    H230776   4.211   4.137   3.621
 3121TIP3   OH230777   3.121   6.406  14.916
 3121TIP3    H130778   3.146   6.491  14.881
 3121TIP3    H230779   3.199   6.351  14.904
 3122TIP3   OH230780   5.919   4.621  14.518
 3122TIP3    H130781   5.982   4.665  14.461
 3122TIP3    H230782   5.969   4.595  14.595
 3123TIP3   OH230783   1.759   1.723   2.666
 3123TIP3    H130784   1.780   1.654   2.602
 3123TIP3    H230785   1.844   1.759   2.690
 3124TIP3   OH230786   2.574   5.889   2.838
 3124TIP3    H130787   2.486   5.922   2.853
 3124TIP3    H230788   2.630   5.944   2.892
 3125TIP3   OH230789   6.751   2.225   1.768
 3125TIP3    H130790   6.764   2.155   1.705
 3125TIP3    H230791   6.767   2.305   1.719
 3126TIP3   OH230792   5.923   6.335   3.713
 3126TIP3    H130793   5.866   6.399   3.758
 3126TIP3    H230794   6.010   6.375   3.715
 3127TIP3   OH230795   1.567   3.639  12.188
 3127TIP3    H130796   1.512   3.608  12.260
 3127TIP3    H230797   1.592   3.560  12.141
 3128TIP3   OH230798   3.817   1.060   5.462
 3128TIP3    H130799   3.906   1.039   5.490
 3128TIP3    H230800   3.790   0.986   5.408
 3129TIP3   OH230801   0.813   4.767   4.912
 3129TIP3    H130802   0.846   4.856   4.923
 3129TIP3    H230803   0.745   4.758   4.979
 3130TIP3   OH230804   2.093   1.073  16.929
 3130TIP3    H130805   2.017   1.129  16.942
 3130TIP3    H230806   2.168   1.132  16.934
 3131TIP3   OH230807   2.257   0.831  15.739
 3131TIP3    H130808   2.280   0.771  15.810
 3131TIP3    H230809   2.211   0.775  15.676
 3132TIP3   OH230810   6.411   5.221  12.985
 3132TIP3    H130811   6.449   5.309  12.991
 3132TIP3    H230812   6.340   5.221  13.049
 3133TIP3   OH230813   5.693   0.938   2.856
 3133TIP3    H130814   5.699   0.884   2.935
 3133TIP3    H230815   5.773   0.991   2.858
 3134TIP3   OH230816   2.284   2.851  12.305
 3134TIP3    H130817   2.289   2.869  12.211
 3134TIP3    H230818   2.337   2.920  12.346
 3135TIP3   OH230819   2.825   1.292  13.104
 3135TIP3    H130820   2.856   1.225  13.165
 3135TIP3    H230821   2.826   1.373  13.154
 3136TIP3   OH230822   4.803   3.836  12.205
 3136TIP3    H130823   4.777   3.745  12.194
 3136TIP3    H230824   4.820   3.867  12.116
 3137TIP3   OH230825   6.503   0.929   2.180
 3137TIP3    H130826   6.451   1.009   2.181
 3137TIP3    H230827   6.575   0.946   2.242
 3138TIP3   OH230828   6.656   3.428  15.473
 3138TIP3    H130829   6.749   3.443  15.457
 3138TIP3    H230830   6.616   3.515  15.470
 3139TIP3   OH230831   0.053   0.256   0.660
 3139TIP3    H130832   0.021   0.237   0.571
 3139TIP3    H230833  -0.027   0.261   0.713
 3140TIP3   OH230834   4.822   2.873   5.117
 3140TIP3    H130835   4.909   2.913   5.110
 3140TIP3    H230836   4.784   2.882   5.030
 3141TIP3   OH230837   5.912   5.735   0.241
 3141TIP3    H130838   5.929   5.790   0.317
 3141TIP3    H230839   5.969   5.769   0.173
 3142TIP3   OH230840   1.917   1.409   6.407
 3142TIP3    H130841   1.865   1.488   6.396
 3142TIP3    H230842   1.868   1.342   6.359
 3143TIP3   OH230843   0.465   1.483  16.755
 3143TIP3    H130844   0.536   1.431  16.793
 3143TIP3    H230845   0.502   1.519  16.675
 3144TIP3   OH230846   0.537   1.138   4.508
 3144TIP3    H130847   0.537   1.232   4.524
 3144TIP3    H230848   0.565   1.100   4.591
 3145TIP3   OH230849   5.783   1.467  11.932
 3145TIP3    H130850   5.760   1.557  11.913
 3145TIP3    H230851   5.793   1.464  12.027
 3146TIP3   OH230852   1.591   5.485  17.040
 3146TIP3    H130853   1.590   5.454  16.950
 3146TIP3    H230854   1.526   5.431  17.085
 3147TIP3   OH230855   5.296   4.859   0.977
 3147TIP3    H130856   5.266   4.863   1.068
 3147TIP3    H230857   5.370   4.798   0.980
 3148TIP3   OH230858   3.454   5.373   1.007
 3148TIP3    H130859   3.431   5.284   0.981
 3148TIP3    H230860   3.423   5.381   1.097
 3149TIP3   OH230861   5.540   1.628   2.881
 3149TIP3    H130862   5.555   1.534   2.892
 3149TIP3    H230863   5.455   1.643   2.924
 3150TIP3   OH230864   3.792   1.260  13.200
 3150TIP3    H130865   3.825   1.316  13.269
 3150TIP3    H230866   3.700   1.246  13.223
 3151TIP3   OH230867   0.332   1.474  14.287
 3151TIP3    H130868   0.245   1.450  14.257
 3151TIP3    H230869   0.387   1.468  14.208
 3152TIP3   OH230870   2.830   2.616  15.811
 3152TIP3    H130871   2.820   2.570  15.894
 3152TIP3    H230872   2.878   2.696  15.833
 3153TIP3   OH230873   6.571   0.265   0.797
 3153TIP3    H130874   6.511   0.335   0.775
 3153TIP3    H230875   6.524   0.185   0.776
 3154TIP3   OH230876   6.427   0.693  12.911
 3154TIP3    H130877   6.429   0.749  12.833
 3154TIP3    H230878   6.487   0.621  12.892
 3155TIP3   OH230879   3.851   6.030   4.141
 3155TIP3    H130880   3.930   6.082   4.128
 3155TIP3    H230881   3.802   6.039   4.059
 3156TIP3   OH230882   4.266   3.046  10.808
 3156TIP3    H130883   4.184   3.097  10.807
 3156TIP3    H230884   4.315   3.083  10.882
 3157TIP3   OH230885   2.558   3.349   1.594
 3157TIP3    H130886   2.629   3.324   1.654
 3157TIP3    H230887   2.589   3.429   1.552
 3158TIP3   OH230888   1.817   6.602   1.307
 3158TIP3    H130889   1.806   6.508   1.292
 3158TIP3    H230890   1.729   6.634   1.327
 3159TIP3   OH230891   1.545   3.590  14.093
 3159TIP3    H130892   1.493   3.511  14.108
 3159TIP3    H230893   1.601   3.567  14.018
 3160TIP3   OH230894   2.362   5.952   4.373
 3160TIP3    H130895   2.361   5.952   4.469
 3160TIP3    H230896   2.273   5.928   4.349
 3161TIP3   OH230897   6.748   1.116   5.663
 3161TIP3    H130898   6.749   1.142   5.755
 3161TIP3    H230899   6.667   1.066   5.654
 3162TIP3   OH230900   1.787   5.922  15.327
 3162TIP3    H130901   1.720   5.867  15.367
 3162TIP3    H230902   1.868   5.895  15.370
 3163TIP3   OH230903   1.341   5.508   6.729
 3163TIP3    H130904   1.348   5.437   6.665
 3163TIP3    H230905   1.386   5.475   6.806
 3164TIP3   OH230906   1.437   4.870   5.343
 3164TIP3    H130907   1.443   4.814   5.266
 3164TIP3    H230908   1.487   4.824   5.410
 3165TIP3   OH230909   6.178   0.132   1.743
 3165TIP3    H130910   6.210   0.079   1.670
 3165TIP3    H230911   6.147   0.213   1.702
 3166TIP3   OH230912   4.795   0.136   2.529
 3166TIP3    H130913   4.881   0.095   2.529
 3166TIP3    H230914   4.770   0.141   2.436
 3167TIP3   OH230915   2.976   2.283   1.820
 3167TIP3    H130916   3.046   2.255   1.879
 3167TIP3    H230917   2.958   2.373   1.844
 3168TIP3   OH230918   3.323   5.507   6.607
 3168TIP3    H130919   3.243   5.476   6.649
 3168TIP3    H230920   3.293   5.562   6.534
 3169TIP3   OH230921   2.914   6.776  15.880
 3169TIP3    H130922   2.941   6.696  15.836
 3169TIP3    H230923   2.963   6.845  15.835
 3170TIP3   OH230924   3.476   6.743   2.277
 3170TIP3    H130925   3.410   6.674   2.287
 3170TIP3    H230926   3.428   6.824   2.296
 3171TIP3   OH230927   4.263   3.860   0.696
 3171TIP3    H130928   4.192   3.885   0.755
 3171TIP3    H230929   4.221   3.804   0.630
 3172TIP3   OH230930   2.265   2.343   2.514
 3172TIP3    H130931   2.267   2.384   2.428
 3172TIP3    H230932   2.275   2.415   2.576
 3173TIP3   OH230933   0.556   3.360  14.706
 3173TIP3    H130934   0.614   3.356  14.631
 3173TIP3    H230935   0.609   3.398  14.776
 3174TIP3   OH230936   3.627   4.182   6.206
 3174TIP3    H130937   3.683   4.248   6.246
 3174TIP3    H230938   3.553   4.173   6.267
 3175TIP3   OH230939   4.173   4.325  12.286
 3175TIP3    H130940   4.157   4.289  12.373
 3175TIP3    H230941   4.239   4.267  12.248
 3176TIP3   OH230942   3.997   2.200  11.904
 3176TIP3    H130943   3.991   2.165  11.993
 3176TIP3    H230944   3.923   2.160  11.857
 3177TIP3   OH230945   5.162   6.688   3.769
 3177TIP3    H130946   5.099   6.668   3.838
 3177TIP3    H230947   5.121   6.758   3.718
 3178TIP3   OH230948   1.831   0.274  15.275
 3178TIP3    H130949   1.910   0.284  15.222
 3178TIP3    H230950   1.813   0.362  15.308
 3179TIP3   OH230951   6.779   6.254   4.588
 3179TIP3    H130952   6.685   6.264   4.605
 3179TIP3    H230953   6.785   6.179   4.530
 3180TIP3   OH230954   5.105   6.029   0.608
 3180TIP3    H130955   5.013   6.008   0.621
 3180TIP3    H230956   5.117   6.024   0.513
 3181TIP3   OH230957   0.987   5.906  11.234
 3181TIP3    H130958   1.006   5.963  11.307
 3181TIP3    H230959   1.072   5.886  11.195
 3182TIP3   OH230960   0.602   6.206   5.268
 3182TIP3    H130961   0.618   6.276   5.205
 3182TIP3    H230962   0.651   6.131   5.233
 3183TIP3   OH230963   6.695   1.099   4.102
 3183TIP3    H130964   6.604   1.115   4.078
 3183TIP3    H230965   6.708   1.148   4.183
 3184TIP3   OH230966   1.146   1.662  14.273
 3184TIP3    H130967   1.176   1.638  14.361
 3184TIP3    H230968   1.061   1.620  14.264
 3185TIP3   OH230969   5.337   1.125  13.491
 3185TIP3    H130970   5.382   1.162  13.415
 3185TIP3    H230971   5.268   1.188  13.511
 3186TIP3   OH230972   4.556   0.462  16.974
 3186TIP3    H130973   4.523   0.373  16.989
 3186TIP3    H230974   4.594   0.488  17.059
 3187TIP3   OH230975   2.248   3.951   2.294
 3187TIP3    H130976   2.230   3.990   2.209
 3187TIP3    H230977   2.161   3.932   2.331
 3188TIP3   OH230978   6.286   5.064  12.790
 3188TIP3    H130979   6.213   5.025  12.837
 3188TIP3    H230980   6.337   5.109  12.857
 3189TIP3   OH230981   5.231   4.887   3.577
 3189TIP3    H130982   5.263   4.821   3.515
 3189TIP3    H230983   5.300   4.954   3.577
 3190TIP3   OH230984   6.061   0.294   2.026
 3190TIP3    H130985   6.075   0.210   2.070
 3190TIP3    H230986   6.001   0.341   2.084
 3191TIP3   OH230987   3.037   1.979  14.792
 3191TIP3    H130988   2.974   1.913  14.821
 3191TIP3    H230989   3.074   1.943  14.711
 3192TIP3   OH230990   2.379   1.586  11.087
 3192TIP3    H130991   2.311   1.616  11.026
 3192TIP3    H230992   2.406   1.501  11.052
 3193TIP3   OH230993   6.193   1.995  12.339
 3193TIP3    H130994   6.162   2.022  12.425
 3193TIP3    H230995   6.282   2.029  12.334
 3194TIP3   OH230996   6.125   4.859   0.131
 3194TIP3    H130997   6.212   4.854   0.092
 3194TIP3    H230998   6.066   4.830   0.061
 3195TIP3   OH230999   5.594   6.330   4.187
 3195TIP3    H131000   5.588   6.309   4.280
 3195TIP3    H231001   5.687   6.318   4.166
 3196TIP3   OH231002   1.729   4.421   6.231
 3196TIP3    H131003   1.753   4.404   6.140
 3196TIP3    H231004   1.641   4.383   6.240
 3197TIP3   OH231005   5.300   4.111  13.514
 3197TIP3    H131006   5.342   4.183  13.467
 3197TIP3    H231007   5.226   4.086  13.459
 3198TIP3   OH231008   1.315   6.071   2.800
 3198TIP3    H131009   1.409   6.077   2.815
 3198TIP3    H231010   1.306   6.012   2.725
 3199TIP3   OH231011   4.182   2.062  16.773
 3199TIP3    H131012   4.224   2.058  16.687
 3199TIP3    H231013   4.209   1.981  16.817
 3200TIP3   OH231014   3.721   3.551   1.235
 3200TIP3    H131015   3.768   3.520   1.158
 3200TIP3    H231016   3.750   3.642   1.246
 3201TIP3   OH231017   2.113   5.107  14.309
 3201TIP3    H131018   2.075   5.194  14.299
 3201TIP3    H231019   2.200   5.122  14.344
 3202TIP3   OH231020   5.124   0.800  16.025
 3202TIP3    H131021   5.141   0.707  16.039
 3202TIP3    H231022   5.102   0.806  15.932
 3203TIP3   OH231023   4.262   1.668   3.100
 3203TIP3    H131024   4.250   1.614   3.178
 3203TIP3    H231025   4.278   1.756   3.134
 3204TIP3   OH231026   4.016   6.782  13.133
 3204TIP3    H131027   3.932   6.746  13.161
 3204TIP3    H231028   4.008   6.788  13.038
 3205TIP3   OH231029   4.863   5.121   2.134
 3205TIP3    H131030   4.843   5.034   2.099
 3205TIP3    H231031   4.880   5.174   2.056
 3206TIP3   OH231032   4.456   1.349   3.693
 3206TIP3    H131033   4.369   1.308   3.692
 3206TIP3    H231034   4.442   1.432   3.737
 3207TIP3   OH231035   1.695   4.345   2.638
 3207TIP3    H131036   1.612   4.302   2.617
 3207TIP3    H231037   1.739   4.356   2.554
 3208TIP3   OH231038   4.974   3.607   1.978
 3208TIP3    H131039   4.930   3.597   2.063
 3208TIP3    H231040   5.063   3.634   2.000
 3209TIP3   OH231041   6.276   2.094  13.261
 3209TIP3    H131042   6.237   2.125  13.343
 3209TIP3    H231043   6.240   2.152  13.194
 3210TIP3   OH231044   5.857   2.178  12.601
 3210TIP3    H131045   5.774   2.132  12.584
 3210TIP3    H231046   5.836   2.270  12.585
 3211TIP3   OH231047   1.372   5.471  13.060
 3211TIP3    H131048   1.318   5.395  13.039
 3211TIP3    H231049   1.458   5.434  13.082
 3212TIP3   OH231050   3.689   0.126  15.341
 3212TIP3    H131051   3.743   0.181  15.283
 3212TIP3    H231052   3.681   0.043  15.294
 3213TIP3   OH231053   1.246   2.101  12.551
 3213TIP3    H131054   1.224   2.014  12.519
 3213TIP3    H231055   1.193   2.112  12.631
 3214TIP3   OH231056   6.558   1.826   4.943
 3214TIP3    H131057   6.582   1.786   4.859
 3214TIP3    H231058   6.641   1.835   4.990
 3215TIP3   OH231059   5.099   5.492   2.751
 3215TIP3    H131060   5.181   5.454   2.721
 3215TIP3    H231061   5.063   5.429   2.813
 3216TIP3   OH231062   1.368   4.859  10.853
 3216TIP3    H131063   1.381   4.947  10.888
 3216TIP3    H231064   1.422   4.803  10.909
 3217TIP3   OH231065   0.644   3.501  12.530
 3217TIP3    H131066   0.592   3.580  12.539
 3217TIP3    H231067   0.720   3.528  12.479
 3218TIP3   OH231068   1.279   0.376   5.535
 3218TIP3    H131069   1.250   0.370   5.444
 3218TIP3    H231070   1.202   0.352   5.587
 3219TIP3   OH231071   3.394   1.461  13.180
 3219TIP3    H131072   3.384   1.371  13.211
 3219TIP3    H231073   3.381   1.454  13.085
 3220TIP3   OH231074   5.092   6.651   2.927
 3220TIP3    H131075   5.118   6.695   2.846
 3220TIP3    H231076   5.133   6.564   2.921
 3221TIP3   OH231077   6.655   0.759  16.771
 3221TIP3    H131078   6.705   0.831  16.811
 3221TIP3    H231079   6.608   0.799  16.698
 3222TIP3   OH231080   0.888   0.038  14.689
 3222TIP3    H131081   0.798   0.056  14.716
 3222TIP3    H231082   0.934   0.122  14.699
 3223TIP3   OH231083   0.751   1.844  12.262
 3223TIP3    H131084   0.687   1.884  12.322
 3223TIP3    H231085   0.701   1.827  12.182
 3224TIP3   OH231086   1.918   2.648  15.795
 3224TIP3    H131087   1.875   2.733  15.794
 3224TIP3    H231088   2.006   2.665  15.762
 3225TIP3   OH231089   3.964   4.692   5.277
 3225TIP3    H131090   4.057   4.672   5.274
 3225TIP3    H231091   3.945   4.709   5.369
 3226TIP3   OH231092   5.163   5.392  17.042
 3226TIP3    H131093   5.156   5.308  17.087
 3226TIP3    H231094   5.177   5.456  17.111
 3227TIP3   OH231095   6.322   2.847   4.372
 3227TIP3    H131096   6.236   2.828   4.408
 3227TIP3    H231097   6.379   2.781   4.410
 3228TIP3   OH231098   0.428   2.133   4.652
 3228TIP3    H131099   0.363   2.140   4.723
 3228TIP3    H231100   0.480   2.213   4.660
 3229TIP3   OH231101   5.782   0.831  16.559
 3229TIP3    H131102   5.690   0.805  16.554
 3229TIP3    H231103   5.783   0.903  16.621
 3230TIP3   OH231104   1.614   4.250   0.611
 3230TIP3    H131105   1.646   4.315   0.548
 3230TIP3    H231106   1.524   4.233   0.585
 3231TIP3   OH231107   5.277   2.464  12.113
 3231TIP3    H131108   5.300   2.535  12.173
 3231TIP3    H231109   5.197   2.494  12.070
 3232TIP3   OH231110   3.740   0.868   3.603
 3232TIP3    H131111   3.757   0.937   3.667
 3232TIP3    H231112   3.713   0.914   3.524
 3233TIP3   OH231113   2.324   0.821   3.244
 3233TIP3    H131114   2.308   0.732   3.276
 3233TIP3    H231115   2.357   0.808   3.155
 3234TIP3   OH231116   3.938   6.671  16.350
 3234TIP3    H131117   3.964   6.681  16.259
 3234TIP3    H231118   3.927   6.761  16.382
 3235TIP3   OH231119   2.556   1.224  12.918
 3235TIP3    H131120   2.581   1.168  12.845
 3235TIP3    H231121   2.638   1.258  12.952
 3236TIP3   OH231122   1.469   0.979   5.602
 3236TIP3    H131123   1.507   1.067   5.600
 3236TIP3    H231124   1.505   0.936   5.524
 3237TIP3   OH231125   3.155   5.332   0.377
 3237TIP3    H131126   3.243   5.349   0.410
 3237TIP3    H231127   3.169   5.280   0.298
 3238TIP3   OH231128   5.548   4.888  13.694
 3238TIP3    H131129   5.567   4.958  13.631
 3238TIP3    H231130   5.482   4.834  13.649
 3239TIP3   OH231131   5.877   4.010  16.951
 3239TIP3    H131132   5.892   3.915  16.959
 3239TIP3    H231133   5.868   4.025  16.857
 3240TIP3   OH231134   2.812   3.921   2.727
 3240TIP3    H131135   2.799   3.842   2.676
 3240TIP3    H231136   2.748   3.983   2.692
 3241TIP3   OH231137   6.775   4.107  13.749
 3241TIP3    H131138   6.775   4.125  13.655
 3241TIP3    H231139   6.735   4.186  13.787
 3242TIP3   OH231140   1.847   2.479   5.368
 3242TIP3    H131141   1.918   2.541   5.379
 3242TIP3    H231142   1.804   2.475   5.453
 3243TIP3   OH231143   1.621   2.749  14.187
 3243TIP3    H131144   1.671   2.747  14.105
 3243TIP3    H231145   1.559   2.676  14.178
 3244TIP3   OH231146   1.516   5.907   3.337
 3244TIP3    H131147   1.535   5.821   3.374
 3244TIP3    H231148   1.441   5.938   3.388
 3245TIP3   OH231149   2.920   4.887  15.351
 3245TIP3    H131150   2.971   4.818  15.393
 3245TIP3    H231151   2.881   4.936  15.423
 3246TIP3   OH231152   4.979   4.000  12.350
 3246TIP3    H131153   5.007   4.051  12.274
 3246TIP3    H231154   4.927   3.928  12.314
 3247TIP3   OH231155   2.036   0.291  13.746
 3247TIP3    H131156   1.976   0.244  13.803
 3247TIP3    H231157   1.983   0.362  13.709
 3248TIP3   OH231158   3.375   1.798   2.762
 3248TIP3    H131159   3.413   1.722   2.806
 3248TIP3    H231160   3.419   1.801   2.677
 3249TIP3   OH231161   0.720   5.786  16.592
 3249TIP3    H131162   0.778   5.825  16.658
 3249TIP3    H231163   0.695   5.858  16.535
 3250TIP3   OH231164   0.647   1.088  11.469
 3250TIP3    H131165   0.694   1.091  11.552
 3250TIP3    H231166   0.558   1.117  11.490
 3251TIP3   OH231167   5.112   4.012   2.784
 3251TIP3    H131168   5.206   4.014   2.802
 3251TIP3    H231169   5.089   3.919   2.788
 3252TIP3   OH231170   6.325   1.799  14.697
 3252TIP3    H131171   6.230   1.786  14.695
 3252TIP3    H231172   6.353   1.780  14.607
 3253TIP3   OH231173   0.070   4.729   4.689
 3253TIP3    H131174   0.119   4.735   4.771
 3253TIP3    H231175   0.079   4.637   4.662
 3254TIP3   OH231176   2.125   3.256  15.012
 3254TIP3    H131177   2.098   3.203  14.937
 3254TIP3    H231178   2.094   3.208  15.088
 3255TIP3   OH231179   4.270   5.564  11.394
 3255TIP3    H131180   4.363   5.569  11.415
 3255TIP3    H231181   4.267   5.527  11.306
 3256TIP3   OH231182   6.025   5.369   1.152
 3256TIP3    H131183   6.006   5.430   1.081
 3256TIP3    H231184   5.944   5.320   1.165
 3257TIP3   OH231185   0.906   1.258  15.431
 3257TIP3    H131186   0.942   1.271  15.519
 3257TIP3    H231187   0.905   1.346  15.393
 3258TIP3   OH231188   5.862   4.927  12.950
 3258TIP3    H131189   5.792   4.973  12.902
 3258TIP3    H231190   5.835   4.933  13.042
 3259TIP3   OH231191   2.652   2.349  11.449
 3259TIP3    H131192   2.636   2.437  11.483
 3259TIP3    H231193   2.565   2.311  11.441
 3260TIP3   OH231194   1.792   1.821   0.526
 3260TIP3    H131195   1.753   1.898   0.567
 3260TIP3    H231196   1.880   1.816   0.563
 3261TIP3   OH231197   3.053   2.031  15.055
 3261TIP3    H131198   3.093   1.945  15.067
 3261TIP3    H231199   3.048   2.042  14.960
 3262TIP3   OH231200   3.840   5.187   5.075
 3262TIP3    H131201   3.888   5.106   5.089
 3262TIP3    H231202   3.789   5.172   4.995
 3263TIP3   OH231203   1.362   1.852   5.635
 3263TIP3    H131204   1.338   1.824   5.723
 3263TIP3    H231205   1.372   1.947   5.643
 3264TIP3   OH231206   4.459   6.269   2.979
 3264TIP3    H131207   4.382   6.297   2.929
 3264TIP3    H231208   4.494   6.196   2.929
 3265TIP3   OH231209   3.276   3.524  16.850
 3265TIP3    H131210   3.246   3.565  16.769
 3265TIP3    H231211   3.298   3.434  16.826
 3266TIP3   OH231212   2.661   1.058   5.851
 3266TIP3    H131213   2.693   1.025   5.767
 3266TIP3    H231214   2.601   0.990   5.882
 3267TIP3   OH231215   6.689   6.387   5.293
 3267TIP3    H131216   6.711   6.413   5.203
 3267TIP3    H231217   6.752   6.318   5.314
 3268TIP3   OH231218   3.640   3.870   2.983
 3268TIP3    H131219   3.653   3.775   2.982
 3268TIP3    H231220   3.633   3.892   3.076
 3269TIP3   OH231221   1.289   4.405  14.872
 3269TIP3    H131222   1.363   4.383  14.815
 3269TIP3    H231223   1.216   4.353  14.839
 3270TIP3   OH231224   1.533   1.853  16.973
 3270TIP3    H131225   1.572   1.940  16.979
 3270TIP3    H231226   1.483   1.856  16.891
 3271TIP3   OH231227   3.213   6.665   0.585
 3271TIP3    H131228   3.278   6.629   0.524
 3271TIP3    H231229   3.263   6.681   0.665
 3272TIP3   OH231230   5.543   0.561  14.518
 3272TIP3    H131231   5.612   0.532  14.458
 3272TIP3    H231232   5.581   0.637  14.563
 3273TIP3   OH231233   1.284   6.296   3.789
 3273TIP3    H131234   1.311   6.324   3.876
 3273TIP3    H231235   1.277   6.200   3.796
 3274TIP3   OH231236   2.837   0.231  14.417
 3274TIP3    H131237   2.797   0.169  14.477
 3274TIP3    H231238   2.856   0.180  14.339
 3275TIP3   OH231239   0.461   0.043  14.316
 3275TIP3    H131240   0.457  -0.051  14.301
 3275TIP3    H231241   0.498   0.052  14.404
 3276TIP3   OH231242   0.787   5.239  12.929
 3276TIP3    H131243   0.833   5.306  12.879
 3276TIP3    H231244   0.721   5.205  12.869
 3277TIP3   OH231245   2.764   0.421  12.979
 3277TIP3    H131246   2.743   0.494  12.921
 3277TIP3    H231247   2.692   0.419  13.043
 3278TIP3   OH231248   3.991   2.950   0.872
 3278TIP3    H131249   3.951   2.882   0.819
 3278TIP3    H231250   4.084   2.926   0.876
 3279TIP3   OH231251   0.912   3.516  12.009
 3279TIP3    H131252   0.827   3.559  12.020
 3279TIP3    H231253   0.945   3.551  11.926
 3280TIP3   OH231254   0.621   0.478   3.120
 3280TIP3    H131255   0.532   0.510   3.109
 3280TIP3    H231256   0.636   0.479   3.214
 3281TIP3   OH231257   4.095   0.595   1.081
 3281TIP3    H131258   4.137   0.633   1.159
 3281TIP3    H231259   4.071   0.506   1.108
 3282TIP3   OH231260   1.980   1.565   5.160
 3282TIP3    H131261   1.992   1.547   5.066
 3282TIP3    H231262   1.965   1.659   5.164
 3283TIP3   OH231263   6.502   3.928   5.753
 3283TIP3    H131264   6.584   3.959   5.715
 3283TIP3    H231265   6.526   3.851   5.804
 3284TIP3   OH231266   0.901   3.378   2.215
 3284TIP3    H131267   0.872   3.310   2.276
 3284TIP3    H231268   0.925   3.452   2.271
 3285TIP3   OH231269   0.707   4.673  16.177
 3285TIP3    H131270   0.751   4.620  16.243
 3285TIP3    H231271   0.651   4.612  16.130
 3286TIP3   OH231272   4.816   5.610   0.193
 3286TIP3    H131273   4.758   5.542   0.228
 3286TIP3    H231274   4.886   5.618   0.257
 3287TIP3   OH231275   2.794   5.829   4.079
 3287TIP3    H131276   2.730   5.893   4.109
 3287TIP3    H231277   2.768   5.748   4.122
 3288TIP3   OH231278   1.502   4.606  12.554
 3288TIP3    H131279   1.442   4.573  12.621
 3288TIP3    H231280   1.586   4.615  12.600
 3289TIP3   OH231281   5.837   6.529  12.489
 3289TIP3    H131282   5.931   6.539  12.508
 3289TIP3    H231283   5.797   6.517  12.575
 3290TIP3   OH231284   3.409   0.459   5.418
 3290TIP3    H131285   3.357   0.539   5.429
 3290TIP3    H231286   3.384   0.404   5.492
 3291TIP3   OH231287   5.637   0.367  15.857
 3291TIP3    H131288   5.674   0.305  15.794
 3291TIP3    H231289   5.685   0.448  15.842
 3292TIP3   OH231290   1.993   3.118  15.235
 3292TIP3    H131291   1.899   3.114  15.252
 3292TIP3    H231292   2.025   3.032  15.263
 3293TIP3   OH231293   3.369   1.088  15.000
 3293TIP3    H131294   3.465   1.088  14.997
 3293TIP3    H231295   3.342   1.061  14.913
 3294TIP3   OH231296   4.091   1.176   1.413
 3294TIP3    H131297   4.138   1.180   1.497
 3294TIP3    H231298   4.085   1.083   1.393
 3295TIP3   OH231299   3.339   5.472  16.683
 3295TIP3    H131300   3.251   5.494  16.650
 3295TIP3    H231301   3.328   5.389  16.729
 3296TIP3   OH231302   6.645   4.071  11.294
 3296TIP3    H131303   6.713   4.118  11.244
 3296TIP3    H231304   6.565   4.121  11.280
 3297TIP3   OH231305   5.916   4.476   4.104
 3297TIP3    H131306   5.926   4.567   4.078
 3297TIP3    H231307   5.892   4.481   4.197
 3298TIP3   OH231308   5.042   2.802  10.966
 3298TIP3    H131309   4.984   2.835  10.897
 3298TIP3    H231310   5.124   2.850  10.953
 3299TIP3   OH231311   5.800   2.656   1.455
 3299TIP3    H131312   5.886   2.665   1.496
 3299TIP3    H231313   5.757   2.587   1.505
 3300TIP3   OH231314   1.179   3.268   1.569
 3300TIP3    H131315   1.106   3.305   1.519
 3300TIP3    H231316   1.153   3.279   1.660
 3301TIP3   OH231317   6.546   0.383  11.098
 3301TIP3    H131318   6.487   0.401  11.170
 3301TIP3    H231319   6.577   0.294  11.113
 3302TIP3   OH231320   3.197   0.111   1.499
 3302TIP3    H131321   3.137   0.051   1.455
 3302TIP3    H231322   3.281   0.065   1.499
 3303TIP3   OH231323   2.463   6.314  12.317
 3303TIP3    H131324   2.440   6.387  12.260
 3303TIP3    H231325   2.387   6.256  12.314
 3304TIP3   OH231326   4.031   0.228  16.958
 3304TIP3    H131327   4.025   0.239  16.863
 3304TIP3    H231328   4.044   0.317  16.991
 3305TIP3   OH231329   2.651   4.589   2.351
 3305TIP3    H131330   2.739   4.583   2.313
 3305TIP3    H231331   2.665   4.605   2.444
 3306TIP3   OH231332   3.717   6.219  12.497
 3306TIP3    H131333   3.757   6.149  12.548
 3306TIP3    H231334   3.777   6.232  12.424
 3307TIP3   OH231335   0.222   3.016  13.527
 3307TIP3    H131336   0.200   2.953  13.596
 3307TIP3    H231337   0.140   3.063  13.511
 3308TIP3   OH231338   0.477   1.692   5.557
 3308TIP3    H131339   0.493   1.599   5.575
 3308TIP3    H231340   0.510   1.705   5.468
 3309TIP3   OH231341   6.333   1.734  16.757
 3309TIP3    H131342   6.421   1.734  16.721
 3309TIP3    H231343   6.326   1.651  16.803
 3310TIP3   OH231344   4.709   1.052  11.544
 3310TIP3    H131345   4.649   1.126  11.554
 3310TIP3    H231346   4.786   1.090  11.501
 3311TIP3   OH231347   2.215   3.165  15.517
 3311TIP3    H131348   2.294   3.177  15.569
 3311TIP3    H231349   2.243   3.179  15.427
 3312TIP3   OH231350   1.426   1.883  13.750
 3312TIP3    H131351   1.452   1.800  13.711
 3312TIP3    H231352   1.506   1.915  13.793
 3313TIP3   OH231353   6.046   4.114   2.677
 3313TIP3    H131354   6.031   4.020   2.666
 3313TIP3    H231355   6.016   4.133   2.765
 3314TIP3   OH231356   3.322   1.105   5.344
 3314TIP3    H131357   3.405   1.102   5.298
 3314TIP3    H231358   3.288   1.193   5.326
 3315TIP3   OH231359   4.448   3.681  11.928
 3315TIP3    H131360   4.424   3.683  12.021
 3315TIP3    H231361   4.524   3.623  11.924
 3316TIP3   OH231362   5.633   0.415  10.806
 3316TIP3    H131363   5.647   0.384  10.717
 3316TIP3    H231364   5.576   0.492  10.796
 3317TIP3   OH231365   4.078   3.528  11.979
 3317TIP3    H131366   3.988   3.531  12.010
 3317TIP3    H231367   4.078   3.459  11.911
 3318TIP3   OH231368   2.768   4.770  11.329
 3318TIP3    H131369   2.718   4.751  11.250
 3318TIP3    H231370   2.806   4.686  11.355
 3319TIP3   OH231371   5.138   2.166  14.335
 3319TIP3    H131372   5.056   2.198  14.298
 3319TIP3    H231373   5.112   2.105  14.404
 3320TIP3   OH231374   2.733   6.207  16.732
 3320TIP3    H131375   2.726   6.128  16.679
 3320TIP3    H231376   2.825   6.209  16.761
 3321TIP3   OH231377   2.800   2.674   0.406
 3321TIP3    H131378   2.707   2.650   0.413
 3321TIP3    H231379   2.828   2.634   0.323
 3322TIP3   OH231380   4.839   0.274  16.466
 3322TIP3    H131381   4.751   0.309  16.450
 3322TIP3    H231382   4.892   0.351  16.488
 3323TIP3   OH231383   6.459   0.061   4.434
 3323TIP3    H131384   6.458   0.144   4.481
 3323TIP3    H231385   6.522   0.007   4.482
 3324TIP3   OH231386   3.081   0.315  14.619
 3324TIP3    H131387   3.080   0.282  14.529
 3324TIP3    H231388   3.162   0.365  14.625
 3325TIP3   OH231389   0.725   2.154  16.619
 3325TIP3    H131390   0.650   2.209  16.640
 3325TIP3    H231391   0.710   2.128  16.528
 3326TIP3   OH231392   1.555   6.396  13.836
 3326TIP3    H131393   1.498   6.455  13.887
 3326TIP3    H231394   1.579   6.327  13.898
 3327TIP3   OH231395   1.226   1.342   3.967
 3327TIP3    H131396   1.313   1.304   3.959
 3327TIP3    H231397   1.199   1.361   3.877
 3328TIP3   OH231398   0.540   4.984  13.606
 3328TIP3    H131399   0.513   4.899  13.572
 3328TIP3    H231400   0.615   4.966  13.662
 3329TIP3   OH231401   5.975   1.796  17.110
 3329TIP3    H131402   5.882   1.796  17.085
 3329TIP3    H231403   6.012   1.720  17.066
 3330TIP3   OH231404   2.452   1.101   3.988
 3330TIP3    H131405   2.404   1.181   4.007
 3330TIP3    H231406   2.543   1.122   4.008
 3331TIP3   OH231407   1.718   3.996  11.892
 3331TIP3    H131408   1.643   4.046  11.923
 3331TIP3    H231409   1.794   4.052  11.909
 3332TIP3   OH231410   1.156   5.835  15.274
 3332TIP3    H131411   1.121   5.899  15.212
 3332TIP3    H231412   1.105   5.848  15.354
 3333TIP3   OH231413   0.542   5.002   4.761
 3333TIP3    H131414   0.592   5.044   4.691
 3333TIP3    H231415   0.559   4.909   4.749
 3334TIP3   OH231416   4.601   2.686   1.858
 3334TIP3    H131417   4.680   2.686   1.911
 3334TIP3    H231418   4.542   2.625   1.902
 3335TIP3   OH231419   2.034   3.211  14.184
 3335TIP3    H131420   1.941   3.214  14.160
 3335TIP3    H231421   2.036   3.156  14.262
 3336TIP3   OH231422   2.649   0.741   4.840
 3336TIP3    H131423   2.699   0.734   4.921
 3336TIP3    H231424   2.675   0.825   4.803
 3337TIP3   OH231425   0.271   4.736   3.643
 3337TIP3    H131426   0.222   4.773   3.570
 3337TIP3    H231427   0.330   4.807   3.670
 3338TIP3   OH231428   3.265   3.830  13.946
 3338TIP3    H131429   3.315   3.890  14.001
 3338TIP3    H231430   3.322   3.815  13.869
 3339TIP3   OH231431   2.698   4.404  11.799
 3339TIP3    H131432   2.606   4.376  11.799
 3339TIP3    H231433   2.718   4.419  11.707
 3340TIP3   OH231434   0.946   4.482  14.955
 3340TIP3    H131435   0.994   4.554  14.997
 3340TIP3    H231436   0.952   4.411  15.019
 3341TIP3   OH231437   0.168   1.553  11.125
 3341TIP3    H131438   0.119   1.589  11.051
 3341TIP3    H231439   0.257   1.586  11.113
 3342TIP3   OH231440   1.775   2.763  15.370
 3342TIP3    H131441   1.819   2.847  15.382
 3342TIP3    H231442   1.836   2.699  15.408
 3343TIP3   OH231443   6.665   1.232   0.725
 3343TIP3    H131444   6.731   1.231   0.795
 3343TIP3    H231445   6.717   1.231   0.644
 3344TIP3   OH231446   2.278   5.714  15.923
 3344TIP3    H131447   2.204   5.658  15.949
 3344TIP3    H231448   2.240   5.775  15.860
 3345TIP3   OH231449   2.555   6.646  14.935
 3345TIP3    H131450   2.483   6.686  14.886
 3345TIP3    H231451   2.583   6.714  14.996
 3346TIP3   OH231452   3.656   4.279  15.404
 3346TIP3    H131453   3.583   4.218  15.392
 3346TIP3    H231454   3.693   4.255  15.489
 3347TIP3   OH231455   0.726   0.130  15.263
 3347TIP3    H131456   0.777   0.104  15.186
 3347TIP3    H231457   0.635   0.130  15.233
 3348TIP3   OH231458   5.120   6.737   4.886
 3348TIP3    H131459   5.172   6.683   4.945
 3348TIP3    H231460   5.148   6.710   4.798
 3349TIP3   OH231461   6.511   4.353  15.390
 3349TIP3    H131462   6.587   4.296  15.402
 3349TIP3    H231463   6.549   4.440  15.374
 3350TIP3   OH231464   5.488   4.876  15.234
 3350TIP3    H131465   5.569   4.912  15.270
 3350TIP3    H231466   5.484   4.787  15.269
 3351TIP3   OH231467   4.884   2.532   2.732
 3351TIP3    H131468   4.914   2.612   2.689
 3351TIP3    H231469   4.857   2.561   2.820
 3352TIP3   OH231470   5.673   1.585  12.421
 3352TIP3    H131471   5.682   1.564  12.514
 3352TIP3    H231472   5.642   1.504  12.381
 3353TIP3   OH231473   4.856   1.432   6.338
 3353TIP3    H131474   4.873   1.523   6.311
 3353TIP3    H231475   4.942   1.390   6.336
 3354TIP3   OH231476   3.742   4.544   0.675
 3354TIP3    H131477   3.771   4.584   0.757
 3354TIP3    H231478   3.689   4.612   0.633
 3355TIP3   OH231479   2.650   6.090   0.295
 3355TIP3    H131480   2.658   6.171   0.243
 3355TIP3    H231481   2.738   6.053   0.294
 3356TIP3   OH231482   5.182   1.217   0.802
 3356TIP3    H131483   5.202   1.284   0.737
 3356TIP3    H231484   5.244   1.234   0.873
 3357TIP3   OH231485   0.047   6.534  16.388
 3357TIP3    H131486   0.019   6.488  16.308
 3357TIP3    H231487   0.115   6.594  16.358
 3358TIP3   OH231488   3.941   5.833  17.134
 3358TIP3    H131489   3.902   5.859  17.050
 3358TIP3    H231490   4.001   5.904  17.156
 3359TIP3   OH231491   4.284   6.394   4.004
 3359TIP3    H131492   4.353   6.328   4.009
 3359TIP3    H231493   4.259   6.395   3.912
 3360TIP3   OH231494   1.239   4.051  11.556
 3360TIP3    H131495   1.178   3.995  11.509
 3360TIP3    H231496   1.285   3.991  11.615
 3361TIP3   OH231497   3.074   6.416  16.474
 3361TIP3    H131498   2.978   6.414  16.477
 3361TIP3    H231499   3.097   6.342  16.417
 3362TIP3   OH231500   3.298   1.980   3.539
 3362TIP3    H131501   3.334   2.057   3.496
 3362TIP3    H231502   3.368   1.914   3.531
 3363TIP3   OH231503   2.691   5.178  11.224
 3363TIP3    H131504   2.724   5.265  11.200
 3363TIP3    H231505   2.768   5.121  11.218
 3364TIP3   OH231506   1.905   4.768   5.576
 3364TIP3    H131507   1.859   4.686   5.555
 3364TIP3    H231508   1.872   4.792   5.662
 3365TIP3   OH231509   4.825   3.277  14.035
 3365TIP3    H131510   4.913   3.241  14.034
 3365TIP3    H231511   4.768   3.202  14.022
 3366TIP3   OH231512   1.162   5.189   3.838
 3366TIP3    H131513   1.136   5.097   3.832
 3366TIP3    H231514   1.105   5.225   3.905
 3367TIP3   OH231515   2.545   1.413  12.366
 3367TIP3    H131516   2.495   1.485  12.327
 3367TIP3    H231517   2.635   1.429  12.336
 3368TIP3   OH231518   4.994   5.973  17.083
 3368TIP3    H131519   4.917   6.009  17.126
 3368TIP3    H231520   4.959   5.920  17.011
 3369TIP3   OH231521   6.766   6.017  14.651
 3369TIP3    H131522   6.752   5.953  14.721
 3369TIP3    H231523   6.800   6.094  14.696
 3370TIP3   OH231524   3.060   6.722  14.325
 3370TIP3    H131525   3.062   6.731  14.230
 3370TIP3    H231526   2.972   6.691  14.344
 3371TIP3   OH231527   3.494   6.676  10.604
 3371TIP3    H131528   3.497   6.706  10.513
 3371TIP3    H231529   3.511   6.582  10.600
 3372TIP3   OH231530   1.309   0.792  13.341
 3372TIP3    H131531   1.214   0.794  13.330
 3372TIP3    H231532   1.335   0.707  13.306
 3373TIP3   OH231533   1.796   4.125   6.281
 3373TIP3    H131534   1.799   4.153   6.373
 3373TIP3    H231535   1.888   4.121   6.254
 3374TIP3   OH231536   0.651   5.941  15.360
 3374TIP3    H131537   0.653   5.870  15.296
 3374TIP3    H231538   0.597   5.907  15.432
 3375TIP3   OH231539   1.142   6.439  17.116
 3375TIP3    H131540   1.171   6.455  17.026
 3375TIP3    H231541   1.219   6.405  17.161
 3376TIP3   OH231542   6.061   0.269   2.525
 3376TIP3    H131543   6.139   0.281   2.470
 3376TIP3    H231544   6.066   0.178   2.554
 3377TIP3   OH231545   6.617   4.863   4.426
 3377TIP3    H131546   6.648   4.789   4.373
 3377TIP3    H231547   6.697   4.909   4.453
 3378TIP3   OH231548   5.790   2.576   3.803
 3378TIP3    H131549   5.743   2.647   3.847
 3378TIP3    H231550   5.828   2.524   3.875
 3379TIP3   OH231551   3.843   2.588   2.979
 3379TIP3    H131552   3.883   2.622   2.899
 3379TIP3    H231553   3.828   2.495   2.961
 3380TIP3   OH231554   5.822   5.128  11.420
 3380TIP3    H131555   5.746   5.084  11.383
 3380TIP3    H231556   5.832   5.090  11.507
 3381TIP3   OH231557   3.454   6.347   0.735
 3381TIP3    H131558   3.362   6.325   0.719
 3381TIP3    H231559   3.502   6.297   0.669
 3382TIP3   OH231560   3.480   5.406  16.063
 3382TIP3    H131561   3.507   5.464  16.134
 3382TIP3    H231562   3.499   5.455  15.983
 3383TIP3   OH231563   3.726   5.425  14.247
 3383TIP3    H131564   3.740   5.427  14.342
 3383TIP3    H231565   3.742   5.515  14.219
 3384TIP3   OH231566   4.776   2.457   4.051
 3384TIP3    H131567   4.788   2.456   3.956
 3384TIP3    H231568   4.711   2.525   4.066
 3385TIP3   OH231569   4.959   2.527   4.856
 3385TIP3    H131570   5.010   2.450   4.832
 3385TIP3    H231571   4.877   2.518   4.808
 3386TIP3   OH231572   3.110   3.627   5.508
 3386TIP3    H131573   3.055   3.552   5.486
 3386TIP3    H231574   3.196   3.590   5.526
 3387TIP3   OH231575   6.307   0.037   1.962
 3387TIP3    H131576   6.388   0.077   1.995
 3387TIP3    H231577   6.290   0.082   1.880
 3388TIP3   OH231578   4.914   1.419   2.761
 3388TIP3    H131579   4.949   1.394   2.847
 3388TIP3    H231580   4.845   1.483   2.781
 3389TIP3   OH231581   1.802   4.714  11.617
 3389TIP3    H131582   1.818   4.747  11.705
 3389TIP3    H231583   1.793   4.792  11.563
 3390TIP3   OH231584   6.563   4.416  16.347
 3390TIP3    H131585   6.590   4.508  16.357
 3390TIP3    H231586   6.640   4.374  16.308
 3391TIP3   OH231587   1.391   4.308  16.418
 3391TIP3    H131588   1.337   4.305  16.497
 3391TIP3    H231589   1.480   4.322  16.450
 3392TIP3   OH231590   1.443   1.415  15.692
 3392TIP3    H131591   1.532   1.430  15.660
 3392TIP3    H231592   1.433   1.477  15.764
 3393TIP3   OH231593   3.327   4.269   5.114
 3393TIP3    H131594   3.386   4.344   5.107
 3393TIP3    H231595   3.380   4.195   5.085
 3394TIP3   OH231596   2.694   0.196  14.870
 3394TIP3    H131597   2.637   0.164  14.939
 3394TIP3    H231598   2.670   0.288  14.859
 3395TIP3   OH231599   3.690   1.980  13.248
 3395TIP3    H131600   3.778   2.013  13.226
 3395TIP3    H231601   3.682   1.899  13.199
 3396TIP3   OH231602   5.422   2.722  10.804
 3396TIP3    H131603   5.410   2.650  10.866
 3396TIP3    H231604   5.517   2.735  10.800
 3397TIP3   OH231605   0.737   6.708   2.528
 3397TIP3    H131606   0.662   6.714   2.588
 3397TIP3    H231607   0.783   6.791   2.539
 3398TIP3   OH231608   1.259   5.410  14.911
 3398TIP3    H131609   1.284   5.397  15.003
 3398TIP3    H231610   1.342   5.410  14.864
 3399TIP3   OH231611   3.620   6.389   3.955
 3399TIP3    H131612   3.545   6.339   3.922
 3399TIP3    H231613   3.600   6.403   4.048
 3400TIP3   OH231614   4.576   3.149   5.411
 3400TIP3    H131615   4.629   3.218   5.371
 3400TIP3    H231616   4.602   3.150   5.503
 3401TIP3   OH231617   5.635   1.148  13.337
 3401TIP3    H131618   5.566   1.197  13.293
 3401TIP3    H231619   5.662   1.205  13.410
 3402TIP3   OH231620   2.756   5.959  11.082
 3402TIP3    H131621   2.692   6.030  11.076
 3402TIP3    H231622   2.715   5.885  11.038
 3403TIP3   OH231623   2.117   3.710  15.483
 3403TIP3    H131624   2.055   3.646  15.519
 3403TIP3    H231625   2.070   3.752  15.412
 3404TIP3   OH231626   3.906   5.893  14.592
 3404TIP3    H131627   3.944   5.809  14.567
 3404TIP3    H231628   3.969   5.931  14.653
 3405TIP3   OH231629   3.633   1.057   0.576
 3405TIP3    H131630   3.646   1.119   0.503
 3405TIP3    H231631   3.538   1.061   0.593
 3406TIP3   OH231632   6.200   4.593   1.972
 3406TIP3    H131633   6.217   4.564   2.062
 3406TIP3    H231634   6.106   4.578   1.959
 3407TIP3   OH231635   6.471   6.564  13.692
 3407TIP3    H131636   6.483   6.657  13.675
 3407TIP3    H231637   6.419   6.561  13.773
 3408TIP3   OH231638   6.601   2.925   1.008
 3408TIP3    H131639   6.526   2.913   0.950
 3408TIP3    H231640   6.609   3.019   1.020
 3409TIP3   OH231641   5.215   0.192  16.002
 3409TIP3    H131642   5.128   0.215  15.968
 3409TIP3    H231643   5.196   0.142  16.082
 3410TIP3   OH231644   3.134   2.571   3.535
 3410TIP3    H131645   3.149   2.549   3.627
 3410TIP3    H231646   3.053   2.622   3.536
 3411TIP3   OH231647   6.767   2.606  13.416
 3411TIP3    H131648   6.830   2.534  13.417
 3411TIP3    H231649   6.763   2.636  13.506
 3412TIP3   OH231650   4.299   1.701   2.594
 3412TIP3    H131651   4.368   1.643   2.623
 3412TIP3    H231652   4.343   1.762   2.534
 3413TIP3   OH231653   1.731   1.536   5.868
 3413TIP3    H131654   1.783   1.492   5.935
 3413TIP3    H231655   1.696   1.614   5.912
 3414TIP3   OH231656   2.260   2.708  16.130
 3414TIP3    H131657   2.192   2.758  16.085
 3414TIP3    H231658   2.338   2.764  16.127
 3415TIP3   OH231659   6.273   3.808  16.184
 3415TIP3    H131660   6.335   3.735  16.179
 3415TIP3    H231661   6.293   3.851  16.267
 3416TIP3   OH231662   5.345   2.645   6.322
 3416TIP3    H131663   5.294   2.623   6.400
 3416TIP3    H231664   5.365   2.561   6.281
 3417TIP3   OH231665   5.725   4.541   4.746
 3417TIP3    H131666   5.694   4.590   4.670
 3417TIP3    H231667   5.664   4.563   4.816
 3418TIP3   OH231668   6.427   0.022  13.880
 3418TIP3    H131669   6.462  -0.011  13.963
 3418TIP3    H231670   6.342  -0.021  13.871
 3419TIP3   OH231671   4.103   0.435  11.297
 3419TIP3    H131672   4.188   0.479  11.294
 3419TIP3    H231673   4.079   0.423  11.205
 3420TIP3   OH231674   3.267   4.407  12.026
 3420TIP3    H131675   3.259   4.361  12.109
 3420TIP3    H231676   3.355   4.387  11.995
 3421TIP3   OH231677   0.794   1.900   3.608
 3421TIP3    H131678   0.872   1.924   3.658
 3421TIP3    H231679   0.806   1.807   3.589
 3422TIP3   OH231680   2.667   6.034  14.491
 3422TIP3    H131681   2.730   6.106  14.486
 3422TIP3    H231682   2.708   5.964  14.440
 3423TIP3   OH231683   1.828   1.079   5.169
 3423TIP3    H131684   1.768   1.115   5.234
 3423TIP3    H231685   1.876   1.010   5.216
 3424TIP3   OH231686   5.021   6.559  15.569
 3424TIP3    H131687   5.067   6.574  15.652
 3424TIP3    H231688   4.949   6.622  15.570
 3425TIP3   OH231689   1.134   3.776   1.316
 3425TIP3    H131690   1.123   3.842   1.384
 3425TIP3    H231691   1.221   3.739   1.333
 3426TIP3   OH231692   0.691   0.860  11.705
 3426TIP3    H131693   0.694   0.793  11.774
 3426TIP3    H231694   0.730   0.938  11.745
 3427TIP3   OH231695   1.028   3.376  14.903
 3427TIP3    H131696   1.079   3.367  14.823
 3427TIP3    H231697   0.996   3.466  14.901
 3428TIP3   OH231698   6.522   2.998  11.751
 3428TIP3    H131699   6.510   3.011  11.845
 3428TIP3    H231700   6.435   2.978  11.717
 3429TIP3   OH231701   5.451   2.869  16.792
 3429TIP3    H131702   5.483   2.942  16.846
 3429TIP3    H231703   5.522   2.853  16.729
 3430TIP3   OH231704   3.690   4.082  12.290
 3430TIP3    H131705   3.752   4.076  12.362
 3430TIP3    H231706   3.626   4.013  12.308
 3431TIP3   OH231707   5.931   3.610   4.208
 3431TIP3    H131708   5.937   3.514   4.205
 3431TIP3    H231709   5.964   3.633   4.295
 3432TIP3   OH231710   3.421   5.404  12.066
 3432TIP3    H131711   3.422   5.308  12.068
 3432TIP3    H231712   3.396   5.429  12.155
 3433TIP3   OH231713   5.926   6.418  13.028
 3433TIP3    H131714   5.858   6.446  13.090
 3433TIP3    H231715   5.879   6.400  12.947
 3434TIP3   OH231716   2.837   5.980  13.458
 3434TIP3    H131717   2.893   5.915  13.501
 3434TIP3    H231718   2.763   5.930  13.425
 3435TIP3   OH231719   3.284   6.485   2.868
 3435TIP3    H131720   3.333   6.518   2.793
 3435TIP3    H231721   3.334   6.514   2.944
 3436TIP3   OH231722   1.212   0.663   5.947
 3436TIP3    H131723   1.228   0.605   6.022
 3436TIP3    H231724   1.181   0.604   5.878
 3437TIP3   OH231725   2.177   2.227  11.944
 3437TIP3    H131726   2.159   2.321  11.943
 3437TIP3    H231727   2.108   2.190  11.890
 3438TIP3   OH231728   2.118   2.472  11.288
 3438TIP3    H131729   2.046   2.532  11.309
 3438TIP3    H231730   2.176   2.476  11.364
 3439TIP3   OH231731   6.126   5.104   4.503
 3439TIP3    H131732   6.168   5.188   4.523
 3439TIP3    H231733   6.186   5.038   4.538
 3440TIP3   OH231734   5.526   0.697   0.743
 3440TIP3    H131735   5.578   0.621   0.767
 3440TIP3    H231736   5.564   0.770   0.793
 3441TIP3   OH231737   1.272   3.717   4.149
 3441TIP3    H131738   1.322   3.743   4.226
 3441TIP3    H231739   1.313   3.636   4.120
 3442TIP3   OH231740   0.157   5.720  12.317
 3442TIP3    H131741   0.203   5.790  12.271
 3442TIP3    H231742   0.154   5.749  12.408
 3443TIP3   OH231743   1.767   6.654  11.311
 3443TIP3    H131744   1.811   6.731  11.276
 3443TIP3    H231745   1.820   6.628  11.387
 3444TIP3   OH231746   2.034   6.521   0.210
 3444TIP3    H131747   1.953   6.478   0.239
 3444TIP3    H231748   2.010   6.563   0.127
 3445TIP3   OH231749   2.126   0.734  13.227
 3445TIP3    H131750   2.192   0.725  13.296
 3445TIP3    H231751   2.132   0.653  13.176
 3446TIP3   OH231752   4.762   4.105  13.640
 3446TIP3    H131753   4.784   4.013  13.628
 3446TIP3    H231754   4.764   4.142  13.551
 3447TIP3   OH231755   5.744   2.887  16.940
 3447TIP3    H131756   5.709   2.975  16.956
 3447TIP3    H231757   5.747   2.880  16.844
 3448TIP3   OH231758   4.417   2.791  13.377
 3448TIP3    H131759   4.424   2.805  13.283
 3448TIP3    H231760   4.457   2.869  13.416
 3449TIP3   OH231761   0.584   5.830  12.728
 3449TIP3    H131762   0.624   5.754  12.685
 3449TIP3    H231763   0.627   5.905  12.687
 3450TIP3   OH231764   0.028   6.372  13.313
 3450TIP3    H131765   0.039   6.281  13.342
 3450TIP3    H231766   0.024   6.423  13.394
 3451TIP3   OH231767   4.128   4.333   0.863
 3451TIP3    H131768   4.179   4.324   0.782
 3451TIP3    H231769   4.085   4.249   0.874
 3452TIP3   OH231770   3.654   1.829  11.399
 3452TIP3    H131771   3.680   1.894  11.464
 3452TIP3    H231772   3.735   1.803  11.356
 3453TIP3   OH231773   4.860   4.331  11.379
 3453TIP3    H131774   4.796   4.268  11.346
 3453TIP3    H231775   4.910   4.357  11.302
 3454TIP3   OH231776   4.656   0.897  16.573
 3454TIP3    H131777   4.572   0.934  16.548
 3454TIP3    H231778   4.645   0.872  16.665
 3455TIP3   OH231779   1.977   2.853   1.302
 3455TIP3    H131780   1.886   2.829   1.284
 3455TIP3    H231781   1.979   2.873   1.395
 3456TIP3   OH231782   1.417   4.103   5.706
 3456TIP3    H131783   1.342   4.093   5.764
 3456TIP3    H231784   1.493   4.094   5.764
 3457TIP3   OH231785   0.071   5.017  14.947
 3457TIP3    H131786   0.145   4.959  14.927
 3457TIP3    H231787   0.019   5.017  14.866
 3458TIP3   OH231788   1.437   2.350   6.651
 3458TIP3    H131789   1.393   2.435   6.646
 3458TIP3    H231790   1.471   2.336   6.563
 3459TIP3   OH231791   2.265   5.401   3.857
 3459TIP3    H131792   2.243   5.308   3.867
 3459TIP3    H231793   2.292   5.428   3.945
 3460TIP3   OH231794   6.400   1.100   4.671
 3460TIP3    H131795   6.383   1.006   4.665
 3460TIP3    H231796   6.434   1.123   4.585
 3461TIP3   OH231797   3.795   2.346   3.863
 3461TIP3    H131798   3.827   2.427   3.823
 3461TIP3    H231799   3.874   2.301   3.892
 3462TIP3   OH231800   0.133   2.013   3.941
 3462TIP3    H131801   0.127   1.942   3.877
 3462TIP3    H231802   0.127   2.093   3.889
 3463TIP3   OH231803   3.601   0.148  12.893
 3463TIP3    H131804   3.663   0.219  12.913
 3463TIP3    H231805   3.526   0.193  12.855
 3464TIP3   OH231806   1.114   1.406   1.196
 3464TIP3    H131807   1.088   1.477   1.254
 3464TIP3    H231808   1.199   1.431   1.163
 3465TIP3   OH231809   1.126   2.479  12.419
 3465TIP3    H131810   1.032   2.497  12.423
 3465TIP3    H231811   1.164   2.557  12.378
 3466TIP3   OH231812   2.512   6.540  13.870
 3466TIP3    H131813   2.529   6.490  13.791
 3466TIP3    H231814   2.420   6.564  13.864
 3467TIP3   OH231815   6.575   5.461  12.986
 3467TIP3    H131816   6.624   5.454  12.904
 3467TIP3    H231817   6.628   5.519  13.041
 3468TIP3   OH231818   4.306   2.890   4.805
 3468TIP3    H131819   4.345   2.958   4.750
 3468TIP3    H231820   4.290   2.932   4.889
 3469TIP3   OH231821   5.161   0.189   1.136
 3469TIP3    H131822   5.173   0.101   1.098
 3469TIP3    H231823   5.175   0.248   1.062
 3470TIP3   OH231824   3.349   5.752   5.475
 3470TIP3    H131825   3.307   5.812   5.537
 3470TIP3    H231826   3.364   5.806   5.397
 3471TIP3   OH231827   3.416   5.647  13.058
 3471TIP3    H131828   3.404   5.636  12.964
 3471TIP3    H231829   3.350   5.713  13.083
 3472TIP3   OH231830   1.619   1.092  12.593
 3472TIP3    H131831   1.600   1.019  12.652
 3472TIP3    H231832   1.657   1.159  12.650
 3473TIP3   OH231833   5.010   4.733  15.490
 3473TIP3    H131834   5.011   4.771  15.578
 3473TIP3    H231835   5.102   4.733  15.463
 3474TIP3   OH231836   4.000   5.843   5.560
 3474TIP3    H131837   3.947   5.846   5.640
 3474TIP3    H231838   4.004   5.934   5.530
 3475TIP3   OH231839   3.377   1.234  13.978
 3475TIP3    H131840   3.309   1.280  14.028
 3475TIP3    H231841   3.341   1.227  13.890
 3476TIP3   OH231842   1.216   1.941   1.626
 3476TIP3    H131843   1.304   1.935   1.664
 3476TIP3    H231844   1.191   1.850   1.611
 3477TIP3   OH231845   0.448   0.903  11.079
 3477TIP3    H131846   0.454   0.820  11.128
 3477TIP3    H231847   0.375   0.949  11.121
 3478TIP3   OH231848   3.983   0.735  15.420
 3478TIP3    H131849   4.053   0.716  15.482
 3478TIP3    H231850   3.991   0.829  15.403
 3479TIP3   OH231851   0.382   6.736   0.998
 3479TIP3    H131852   0.303   6.790   1.000
 3479TIP3    H231853   0.354   6.655   0.955
 3480TIP3   OH231854   6.198   0.486  13.513
 3480TIP3    H131855   6.198   0.485  13.417
 3480TIP3    H231856   6.215   0.577  13.536
 3481TIP3   OH231857   5.833   2.170  10.785
 3481TIP3    H131858   5.781   2.094  10.758
 3481TIP3    H231859   5.772   2.243  10.782
 3482TIP3   OH231860   4.710   6.747   5.777
 3482TIP3    H131861   4.667   6.690   5.841
 3482TIP3    H231862   4.801   6.717   5.775
 3483TIP3   OH231863   1.264   1.156  11.425
 3483TIP3    H131864   1.224   1.206  11.353
 3483TIP3    H231865   1.250   1.065  11.400
 3484TIP3   OH231866   2.599   4.329   1.960
 3484TIP3    H131867   2.594   4.247   1.910
 3484TIP3    H231868   2.509   4.348   1.985
 3485TIP3   OH231869   4.595   0.612  15.622
 3485TIP3    H131870   4.684   0.581  15.605
 3485TIP3    H231871   4.596   0.638  15.714
 3486TIP3   OH231872   1.783   5.711  16.480
 3486TIP3    H131873   1.807   5.690  16.390
 3486TIP3    H231874   1.867   5.717  16.527
 3487TIP3   OH231875   4.059   3.336  14.485
 3487TIP3    H131876   4.012   3.410  14.448
 3487TIP3    H231877   4.010   3.313  14.564
 3488TIP3   OH231878   4.564   1.630  15.525
 3488TIP3    H131879   4.656   1.619  15.502
 3488TIP3    H231880   4.563   1.698  15.592
 3489TIP3   OH231881   5.834   4.949   1.230
 3489TIP3    H131882   5.911   4.956   1.173
 3489TIP3    H231883   5.764   4.919   1.171
 3490TIP3   OH231884   0.082   2.029  15.854
 3490TIP3    H131885   0.098   2.089  15.926
 3490TIP3    H231886   0.095   1.942  15.892
 3491TIP3   OH231887   3.384   3.195   6.856
 3491TIP3    H131888   3.339   3.130   6.802
 3491TIP3    H231889   3.314   3.244   6.898
 3492TIP3   OH231890   5.614   1.682  11.806
 3492TIP3    H131891   5.663   1.724  11.736
 3492TIP3    H231892   5.585   1.753  11.862
 3493TIP3   OH231893   1.597   6.628   3.051
 3493TIP3    H131894   1.531   6.560   3.066
 3493TIP3    H231895   1.616   6.662   3.139
 3494TIP3   OH231896   1.419   1.731  15.542
 3494TIP3    H131897   1.362   1.656  15.554
 3494TIP3    H231898   1.506   1.700  15.567
 3495TIP3   OH231899   4.475   6.593   4.515
 3495TIP3    H131900   4.561   6.603   4.474
 3495TIP3    H231901   4.491   6.535   4.590
 3496TIP3   OH231902   6.097   2.062  17.108
 3496TIP3    H131903   6.187   2.046  17.080
 3496TIP3    H231904   6.056   1.976  17.107
 3497TIP3   OH231905   1.192   3.788  16.643
 3497TIP3    H131906   1.242   3.870  16.651
 3497TIP3    H231907   1.231   3.743  16.568
 3498TIP3   OH231908   6.710   5.678   3.735
 3498TIP3    H131909   6.796   5.663   3.697
 3498TIP3    H231910   6.650   5.634   3.675
 3499TIP3   OH231911   5.247   4.625  16.972
 3499TIP3    H131912   5.182   4.608  17.040
 3499TIP3    H231913   5.295   4.542  16.965
 3500TIP3   OH231914   5.534   1.139   0.454
 3500TIP3    H131915   5.543   1.225   0.411
 3500TIP3    H231916   5.583   1.079   0.398
 3501TIP3   OH231917   5.725   3.723   3.057
 3501TIP3    H131918   5.764   3.636   3.055
 3501TIP3    H231919   5.632   3.707   3.042
 3502TIP3   OH231920   4.144   3.691  12.411
 3502TIP3    H131921   4.231   3.652  12.417
 3502TIP3    H231922   4.153   3.758  12.342
 3503TIP3   OH231923   0.245   4.428   6.378
 3503TIP3    H131924   0.283   4.492   6.438
 3503TIP3    H231925   0.318   4.401   6.322
 3504TIP3   OH231926   5.550   5.051   4.063
 3504TIP3    H131927   5.639   5.033   4.091
 3504TIP3    H231928   5.525   5.130   4.111
 3505TIP3   OH231929   5.654   5.271   4.491
 3505TIP3    H131930   5.609   5.210   4.433
 3505TIP3    H231931   5.591   5.292   4.559
 3506TIP3   OH231932   1.071   5.865   3.514
 3506TIP3    H131933   1.029   5.823   3.589
 3506TIP3    H231934   0.999   5.889   3.456
 3507TIP3   OH231935   2.687   5.765  13.022
 3507TIP3    H131936   2.620   5.746  13.087
 3507TIP3    H231937   2.640   5.771  12.940
 3508TIP3   OH231938   5.980   5.655  15.122
 3508TIP3    H131939   6.058   5.701  15.090
 3508TIP3    H231940   6.003   5.628  15.211
 3509TIP3   OH231941   0.937   4.587   0.200
 3509TIP3    H131942   0.879   4.527   0.153
 3509TIP3    H231943   0.896   4.599   0.285
 3510TIP3   OH231944   0.628   5.756  15.653
 3510TIP3    H131945   0.605   5.750  15.746
 3510TIP3    H231946   0.641   5.850  15.638
 3511TIP3   OH231947   2.992   4.025   1.953
 3511TIP3    H131948   3.077   4.055   1.985
 3511TIP3    H231949   2.941   4.007   2.032
 3512TIP3   OH231950   5.160   3.942   0.425
 3512TIP3    H131951   5.187   4.034   0.432
 3512TIP3    H231952   5.097   3.930   0.496
 3513TIP3   OH231953   3.863   5.411  13.531
 3513TIP3    H131954   3.827   5.495  13.503
 3513TIP3    H231955   3.787   5.361  13.559
 3514TIP3   OH231956   1.788   6.132  11.184
 3514TIP3    H131957   1.853   6.123  11.253
 3514TIP3    H231958   1.707   6.101  11.223
 3515TIP3   OH231959   0.450   0.767  16.947
 3515TIP3    H131960   0.523   0.795  17.003
 3515TIP3    H231961   0.458   0.672  16.943
 3516TIP3   OH231962   2.206   2.208  13.008
 3516TIP3    H131963   2.286   2.167  13.038
 3516TIP3    H231964   2.232   2.298  12.985
 3517TIP3   OH231965   3.702   0.224  14.142
 3517TIP3    H131966   3.726   0.194  14.230
 3517TIP3    H231967   3.785   0.244  14.099
 3518TIP3   OH231968   0.639   2.645  17.154
 3518TIP3    H131969   0.692   2.631  17.232
 3518TIP3    H231970   0.685   2.598  17.084
 3519TIP3   OH231971   1.935   1.875  11.854
 3519TIP3    H131972   1.923   1.962  11.814
 3519TIP3    H231973   1.849   1.833  11.845
 3520TIP3   OH231974   3.428   4.617  15.894
 3520TIP3    H131975   3.500   4.568  15.855
 3520TIP3    H231976   3.466   4.703  15.913
 3521TIP3   OH231977   3.842   2.252  15.041
 3521TIP3    H131978   3.924   2.301  15.027
 3521TIP3    H231979   3.831   2.252  15.136
 3522TIP3   OH231980   3.225   6.254  16.281
 3522TIP3    H131981   3.166   6.285  16.213
 3522TIP3    H231982   3.276   6.185  16.240
 3523TIP3   OH231983   1.049   1.824   1.201
 3523TIP3    H131984   1.033   1.895   1.263
 3523TIP3    H231985   1.130   1.848   1.157
 3524TIP3   OH231986   1.423   2.121   5.685
 3524TIP3    H131987   1.391   2.194   5.737
 3524TIP3    H231988   1.498   2.087   5.733
 3525TIP3   OH231989   3.460   6.785   0.313
 3525TIP3    H131990   3.522   6.728   0.267
 3525TIP3    H231991   3.374   6.760   0.279
 3526TIP3   OH231992   2.705   0.167   6.717
 3526TIP3    H131993   2.730   0.076   6.731
 3526TIP3    H231994   2.714   0.181   6.623
 3527TIP3   OH231995   2.919   6.240   0.455
 3527TIP3    H131996   2.839   6.217   0.501
 3527TIP3    H231997   2.913   6.335   0.441
 3528TIP3   OH231998   4.433   2.108  11.748
 3528TIP3    H131999   4.383   2.125  11.668
 3528TIP3    H232000   4.457   2.015  11.742
 3529TIP3   OH232001   6.759   5.841   6.432
 3529TIP3    H132002   6.849   5.864   6.453
 3529TIP3    H232003   6.707   5.911   6.471
 3530TIP3   OH232004   0.259   1.305   3.392
 3530TIP3    H132005   0.238   1.225   3.441
 3530TIP3    H232006   0.215   1.375   3.439
 3531TIP3   OH232007   5.564   5.696  16.824
 3531TIP3    H132008   5.536   5.659  16.740
 3531TIP3    H232009   5.555   5.790  16.812
 3532TIP3   OH232010   4.093   0.139   5.243
 3532TIP3    H132011   4.150   0.132   5.167
 3532TIP3    H232012   4.020   0.194   5.214
 3533TIP3   OH232013   2.773   3.181   1.661
 3533TIP3    H132014   2.818   3.130   1.728
 3533TIP3    H232015   2.715   3.118   1.617
 3534TIP3   OH232016   3.362   6.302  15.634
 3534TIP3    H132017   3.390   6.379  15.583
 3534TIP3    H232018   3.442   6.271  15.676
 3535TIP3   OH232019   1.771   6.764   4.052
 3535TIP3    H132020   1.813   6.845   4.023
 3535TIP3    H232021   1.682   6.769   4.016
 3536TIP3   OH232022   5.388   5.324  14.120
 3536TIP3    H132023   5.351   5.389  14.180
 3536TIP3    H232024   5.312   5.275  14.089
 3537TIP3   OH232025   0.489   4.320  11.277
 3537TIP3    H132026   0.500   4.361  11.192
 3537TIP3    H232027   0.563   4.353  11.329
 3538TIP3   OH232028   0.804   5.627  12.114
 3538TIP3    H132029   0.735   5.561  12.128
 3538TIP3    H232030   0.878   5.595  12.164
 3539TIP3   OH232031   0.588   4.872   1.428
 3539TIP3    H132032   0.683   4.879   1.437
 3539TIP3    H232033   0.561   4.954   1.389
 3540TIP3   OH232034   4.659   0.545  11.518
 3540TIP3    H132035   4.640   0.544  11.424
 3540TIP3    H232036   4.603   0.613  11.553
 3541TIP3   OH232037   1.672   1.856  12.558
 3541TIP3    H132038   1.764   1.859  12.533
 3541TIP3    H232039   1.642   1.947  12.547
 3542TIP3   OH232040   5.172   4.520   5.090
 3542TIP3    H132041   5.201   4.435   5.124
 3542TIP3    H232042   5.135   4.565   5.166
 3543TIP3   OH232043   5.295   1.864   2.439
 3543TIP3    H132044   5.293   1.957   2.460
 3543TIP3    H232045   5.348   1.825   2.508
 3544TIP3   OH232046   2.767   6.721   3.137
 3544TIP3    H132047   2.689   6.752   3.090
 3544TIP3    H232048   2.841   6.759   3.089
 3545TIP3   OH232049   2.681   1.326  15.084
 3545TIP3    H132050   2.662   1.420  15.079
 3545TIP3    H232051   2.659   1.302  15.174
 3546TIP3   OH232052   1.196   3.473   3.204
 3546TIP3    H132053   1.206   3.551   3.258
 3546TIP3    H232054   1.111   3.437   3.230
 3547TIP3   OH232055   0.023   0.975   1.124
 3547TIP3    H132056   0.025   1.006   1.033
 3547TIP3    H232057   0.097   0.915   1.130
 3548TIP3   OH232058   1.642   6.142  11.531
 3548TIP3    H132059   1.657   6.053  11.500
 3548TIP3    H232060   1.658   6.197  11.454
 3549TIP3   OH232061   5.927   1.745   0.587
 3549TIP3    H132062   5.948   1.694   0.509
 3549TIP3    H232063   5.959   1.833   0.567
 3550TIP3   OH232064   1.535   0.614   4.354
 3550TIP3    H132065   1.473   0.652   4.291
 3550TIP3    H232066   1.539   0.677   4.426
 3551TIP3   OH232067   1.616   0.019   3.643
 3551TIP3    H132068   1.705   0.015   3.678
 3551TIP3    H232069   1.561  -0.015   3.713
 3552TIP3   OH232070   2.196   3.949  11.428
 3552TIP3    H132071   2.206   4.024  11.370
 3552TIP3    H232072   2.283   3.938  11.468
 3553TIP3   OH232073   5.616   4.510  14.628
 3553TIP3    H132074   5.693   4.466  14.593
 3553TIP3    H232075   5.543   4.456  14.598
 3554TIP3   OH232076   4.686   1.743  12.291
 3554TIP3    H132077   4.754   1.727  12.227
 3554TIP3    H232078   4.688   1.666  12.348
 3555TIP3   OH232079   6.199   1.843  15.452
 3555TIP3    H132080   6.192   1.757  15.409
 3555TIP3    H232081   6.119   1.850  15.504
 3556TIP3   OH232082   1.459   4.221   2.576
 3556TIP3    H132083   1.394   4.288   2.597
 3556TIP3    H232084   1.416   4.166   2.510
 3557TIP3   OH232085   2.887   6.477   3.127
 3557TIP3    H132086   2.978   6.494   3.103
 3557TIP3    H232087   2.848   6.564   3.137
 3558TIP3   OH232088   5.505   1.949   4.923
 3558TIP3    H132089   5.571   1.937   4.991
 3558TIP3    H232090   5.462   1.864   4.916
 3559TIP3   OH232091   5.710   1.730   0.126
 3559TIP3    H132092   5.715   1.777   0.043
 3559TIP3    H232093   5.729   1.639   0.103
 3560TIP3   OH232094   3.640   6.699  15.162
 3560TIP3    H132095   3.549   6.683  15.139
 3560TIP3    H232096   3.663   6.627  15.221
 3561TIP3   OH232097   1.280   3.463  11.826
 3561TIP3    H132098   1.306   3.386  11.775
 3561TIP3    H232099   1.297   3.439  11.917
 3562TIP3   OH232100   1.569   1.667   2.886
 3562TIP3    H132101   1.642   1.646   2.828
 3562TIP3    H232102   1.530   1.745   2.849
 3563TIP3   OH232103   3.752   6.668  12.328
 3563TIP3    H132104   3.816   6.734  12.301
 3563TIP3    H232105   3.733   6.620  12.248
 3564TIP3   OH232106   3.134   1.254   4.736
 3564TIP3    H132107   3.143   1.170   4.781
 3564TIP3    H232108   3.123   1.232   4.644
 3565TIP3   OH232109   5.136   3.584  12.772
 3565TIP3    H132110   5.056   3.591  12.720
 3565TIP3    H232111   5.174   3.672  12.771
 3566TIP3   OH232112   4.609   6.636  11.043
 3566TIP3    H132113   4.668   6.561  11.031
 3566TIP3    H232114   4.558   6.641  10.962
 3567TIP3   OH232115   1.806   4.891  14.869
 3567TIP3    H132116   1.788   4.887  14.963
 3567TIP3    H232117   1.894   4.928  14.863
 3568TIP3   OH232118   5.442   4.202  10.661
 3568TIP3    H132119   5.444   4.280  10.717
 3568TIP3    H232120   5.363   4.156  10.688
 3569TIP3   OH232121   1.958   1.294  16.584
 3569TIP3    H132122   1.882   1.311  16.639
 3569TIP3    H232123   1.963   1.370  16.526
 3570TIP3   OH232124   2.920   4.029   5.351
 3570TIP3    H132125   2.969   4.077   5.418
 3570TIP3    H232126   2.985   4.007   5.285
 3571TIP3   OH232127   4.732   5.315   0.967
 3571TIP3    H132128   4.700   5.243   1.022
 3571TIP3    H232129   4.653   5.356   0.931
 3572TIP3   OH232130   1.293   3.774  11.659
 3572TIP3    H132131   1.376   3.803  11.696
 3572TIP3    H232132   1.264   3.703  11.718
 3573TIP3   OH232133   5.686   5.512  12.393
 3573TIP3    H132134   5.604   5.494  12.440
 3573TIP3    H232135   5.744   5.550  12.459
 3574TIP3   OH232136   4.255   0.725  15.869
 3574TIP3    H132137   4.265   0.673  15.948
 3574TIP3    H232138   4.185   0.787  15.890
 3575TIP3   OH232139   5.516   3.191   2.828
 3575TIP3    H132140   5.574   3.124   2.790
 3575TIP3    H232141   5.474   3.232   2.752
 3576TIP3   OH232142   0.657   6.517   3.101
 3576TIP3    H132143   0.610   6.570   3.166
 3576TIP3    H232144   0.644   6.427   3.131
 3577TIP3   OH232145   2.078   2.791  16.677
 3577TIP3    H132146   2.168   2.805  16.648
 3577TIP3    H232147   2.041   2.729  16.614
 3578TIP3   OH232148   0.839   2.462   3.166
 3578TIP3    H132149   0.913   2.520   3.181
 3578TIP3    H232150   0.836   2.406   3.244
 3579TIP3   OH232151   5.480   0.791  16.394
 3579TIP3    H132152   5.478   0.817  16.486
 3579TIP3    H232153   5.399   0.741  16.381
 3580TIP3   OH232154   0.990   5.789  14.554
 3580TIP3    H132155   0.974   5.741  14.472
 3580TIP3    H232156   1.066   5.746  14.593
 3581TIP3   OH232157   1.705   2.201  14.368
 3581TIP3    H132158   1.776   2.261  14.388
 3581TIP3    H232159   1.628   2.258  14.357
 3582TIP3   OH232160   3.062   4.438  12.595
 3582TIP3    H132161   3.118   4.377  12.643
 3582TIP3    H232162   3.069   4.409  12.504
 3583TIP3   OH232163   4.785   5.376  14.669
 3583TIP3    H132164   4.722   5.383  14.741
 3583TIP3    H232165   4.761   5.295  14.623
 3584TIP3   OH232166   6.397   2.137   4.396
 3584TIP3    H132167   6.386   2.166   4.306
 3584TIP3    H232168   6.361   2.049   4.398
 3585TIP3   OH232169   1.285   1.094   2.846
 3585TIP3    H132170   1.304   1.005   2.874
 3585TIP3    H232171   1.193   1.107   2.868
 3586TIP3   OH232172   6.037   3.849   5.687
 3586TIP3    H132173   6.084   3.924   5.722
 3586TIP3    H232174   5.963   3.837   5.747
 3587TIP3   OH232175   3.324   5.152  11.479
 3587TIP3    H132176   3.379   5.207  11.535
 3587TIP3    H232177   3.258   5.115  11.538
 3588TIP3   OH232178   6.737   4.075   0.623
 3588TIP3    H132179   6.718   4.010   0.691
 3588TIP3    H232180   6.684   4.151   0.648
 3589TIP3   OH232181   5.875   3.918   0.982
 3589TIP3    H132182   5.821   3.839   0.972
 3589TIP3    H232183   5.923   3.904   1.063
 3590TIP3   OH232184   4.326   5.777   4.024
 3590TIP3    H132185   4.297   5.758   3.935
 3590TIP3    H232186   4.419   5.757   4.024
 3591TIP3   OH232187   4.498   0.149  12.177
 3591TIP3    H132188   4.529   0.059  12.169
 3591TIP3    H232189   4.578   0.202  12.179
 3592TIP3   OH232190   2.006   5.718  11.356
 3592TIP3    H132191   1.984   5.688  11.444
 3592TIP3    H232192   2.100   5.735  11.359
 3593TIP3   OH232193   0.039   0.881  10.815
 3593TIP3    H132194  -0.045   0.839  10.798
 3593TIP3    H232195   0.104   0.820  10.782
 3594TIP3   OH232196   0.160   6.453   4.520
 3594TIP3    H132197   0.207   6.411   4.449
 3594TIP3    H232198   0.085   6.396   4.537
 3595TIP3   OH232199   0.206   2.454  11.861
 3595TIP3    H132200   0.131   2.460  11.802
 3595TIP3    H232201   0.280   2.434  11.803
 3596TIP3   OH232202   4.819   0.418   4.413
 3596TIP3    H132203   4.872   0.497   4.403
 3596TIP3    H232204   4.733   0.450   4.440
 3597TIP3   OH232205   6.661   0.164  16.866
 3597TIP3    H132206   6.661   0.255  16.897
 3597TIP3    H232207   6.700   0.169  16.778
 3598TIP3   OH232208   2.308   3.244   5.466
 3598TIP3    H132209   2.319   3.264   5.559
 3598TIP3    H232210   2.336   3.324   5.421
 3599TIP3   OH232211   0.077   3.767  16.310
 3599TIP3    H132212   0.027   3.799  16.235
 3599TIP3    H232213   0.020   3.701  16.350
 3600TIP3   OH232214   5.367   6.535  11.568
 3600TIP3    H132215   5.452   6.542  11.609
 3600TIP3    H232216   5.316   6.607  11.605
 3601TIP3   OH232217   4.882   0.292   4.129
 3601TIP3    H132218   4.940   0.320   4.200
 3601TIP3    H232219   4.809   0.248   4.172
 3602TIP3   OH232220   6.274   4.410  15.878
 3602TIP3    H132221   6.266   4.475  15.808
 3602TIP3    H232222   6.320   4.336  15.837
 3603TIP3   OH232223   2.862   4.496   5.057
 3603TIP3    H132224   2.880   4.513   5.150
 3603TIP3    H232225   2.766   4.489   5.053
 3604TIP3   OH232226   2.050   1.648   0.132
 3604TIP3    H132227   2.042   1.700   0.052
 3604TIP3    H232228   1.979   1.584   0.125
 3605TIP3   OH232229   1.992   0.526  15.857
 3605TIP3    H132230   1.950   0.479  15.784
 3605TIP3    H232231   2.086   0.521  15.838
 3606TIP3   OH232232   4.337   4.242   6.521
 3606TIP3    H132233   4.259   4.274   6.476
 3606TIP3    H232234   4.320   4.149   6.536
 3607TIP3   OH232235   0.518   5.820   1.117
 3607TIP3    H132236   0.539   5.883   1.048
 3607TIP3    H232237   0.544   5.863   1.198
 3608TIP3   OH232238   0.563   3.697   0.975
 3608TIP3    H132239   0.598   3.781   0.944
 3608TIP3    H232240   0.536   3.714   1.065
 3609TIP3   OH232241   3.418   3.455   5.255
 3609TIP3    H132242   3.471   3.529   5.283
 3609TIP3    H232243   3.342   3.456   5.313
 3610TIP3   OH232244   3.714   1.741  14.730
 3610TIP3    H132245   3.755   1.812  14.681
 3610TIP3    H232246   3.621   1.764  14.731
 3611TIP3   OH232247   1.420   0.512  15.226
 3611TIP3    H132248   1.368   0.431  15.228
 3611TIP3    H232249   1.435   0.528  15.133
 3612TIP3   OH232250   1.948   1.956  15.069
 3612TIP3    H132251   1.966   2.041  15.030
 3612TIP3    H232252   2.034   1.923  15.096
 3613TIP3   OH232253   0.408   1.832   4.199
 3613TIP3    H132254   0.337   1.893   4.219
 3613TIP3    H232255   0.457   1.825   4.281
 3614TIP3   OH232256   2.807   6.394  11.603
 3614TIP3    H132257   2.746   6.460  11.570
 3614TIP3    H232258   2.873   6.385  11.534
 3615TIP3   OH232259   0.183   0.427  16.378
 3615TIP3    H132260   0.257   0.405  16.435
 3615TIP3    H232261   0.127   0.483  16.433
 3616TIP3   OH232262   3.500   4.220   2.252
 3616TIP3    H132263   3.439   4.260   2.191
 3616TIP3    H232264   3.460   4.232   2.338
 3617TIP3   OH232265   4.321   6.606   1.224
 3617TIP3    H132266   4.247   6.647   1.180
 3617TIP3    H232267   4.299   6.612   1.317
 3618TIP3   OH232268   0.443   1.332  13.069
 3618TIP3    H132269   0.380   1.261  13.051
 3618TIP3    H232270   0.388   1.409  13.086
 3619TIP3   OH232271   0.746   5.048  12.337
 3619TIP3    H132272   0.762   5.141  12.324
 3619TIP3    H232273   0.688   5.044  12.413
 3620TIP3   OH232274   6.624   1.314  14.693
 3620TIP3    H132275   6.616   1.350  14.605
 3620TIP3    H232276   6.645   1.390  14.748
 3621TIP3   OH232277   5.524   4.529   1.334
 3621TIP3    H132278   5.453   4.474   1.366
 3621TIP3    H232279   5.581   4.469   1.286
 3622TIP3   OH232280   6.012   4.353  15.046
 3622TIP3    H132281   5.922   4.321  15.050
 3622TIP3    H232282   6.064   4.275  15.025
 3623TIP3   OH232283   3.342   1.563   2.001
 3623TIP3    H132284   3.386   1.645   2.023
 3623TIP3    H232285   3.250   1.588   1.988
 3624TIP3   OH232286   1.845   2.703  12.654
 3624TIP3    H132287   1.938   2.724  12.639
 3624TIP3    H232288   1.822   2.647  12.580
 3625TIP3   OH232289   6.120   3.509  16.297
 3625TIP3    H132290   6.073   3.456  16.233
 3625TIP3    H232291   6.062   3.511  16.374
 3626TIP3   OH232292   4.451   5.106   3.835
 3626TIP3    H132293   4.511   5.138   3.903
 3626TIP3    H232294   4.481   5.017   3.817
 3627TIP3   OH232295   1.060   1.797  11.555
 3627TIP3    H132296   1.086   1.874  11.505
 3627TIP3    H232297   1.036   1.831  11.642
 3628TIP3   OH232298   3.773   0.992  14.176
 3628TIP3    H132299   3.758   1.068  14.120
 3628TIP3    H232300   3.827   1.024  14.248
 3629TIP3   OH232301   3.932   4.032  13.092
 3629TIP3    H132302   3.976   4.100  13.142
 3629TIP3    H232303   3.865   3.997  13.151
 3630TIP3   OH232304   2.113   4.311  17.073
 3630TIP3    H132305   2.040   4.338  17.017
 3630TIP3    H232306   2.150   4.236  17.028
 3631TIP3   OH232307   3.266   6.019   1.853
 3631TIP3    H132308   3.355   6.017   1.888
 3631TIP3    H232309   3.240   6.111   1.857
 3632TIP3   OH232310   3.616   6.729   3.201
 3632TIP3    H132311   3.555   6.779   3.254
 3632TIP3    H232312   3.679   6.793   3.169
 3633TIP3   OH232313   5.128   1.543  12.688
 3633TIP3    H132314   5.207   1.568  12.735
 3633TIP3    H232315   5.141   1.450  12.667
 3634TIP3   OH232316   1.539   3.387  12.670
 3634TIP3    H132317   1.484   3.465  12.659
 3634TIP3    H232318   1.629   3.421  12.671
 3635TIP3   OH232319   4.382   2.255   0.175
 3635TIP3    H132320   4.346   2.333   0.217
 3635TIP3    H232321   4.449   2.288   0.115
 3636TIP3   OH232322   3.416   2.878   3.226
 3636TIP3    H132323   3.375   2.830   3.299
 3636TIP3    H232324   3.507   2.890   3.253
 3637TIP3   OH232325   3.141   3.645  14.131
 3637TIP3    H132326   3.180   3.703  14.066
 3637TIP3    H232327   3.052   3.677  14.143
 3638TIP3   OH232328   0.131   4.459   4.010
 3638TIP3    H132329   0.066   4.499   3.952
 3638TIP3    H232330   0.207   4.443   3.954
 3639TIP3   OH232331   4.906   2.970   1.990
 3639TIP3    H132332   4.951   2.990   1.908
 3639TIP3    H232333   4.920   3.048   2.044
 3640TIP3   OH232334   6.745   2.225  13.522
 3640TIP3    H132335   6.761   2.143  13.568
 3640TIP3    H232336   6.651   2.224  13.504
 3641TIP3   OH232337   1.916   1.300   4.248
 3641TIP3    H132338   1.920   1.254   4.332
 3641TIP3    H232339   2.004   1.335   4.235
 3642TIP3   OH232340   1.200   4.855   3.575
 3642TIP3    H132341   1.148   4.909   3.634
 3642TIP3    H232342   1.272   4.822   3.628
 3643TIP3   OH232343   4.983   3.268  15.886
 3643TIP3    H132344   5.036   3.198  15.923
 3643TIP3    H232345   5.026   3.349  15.917
 3644TIP3   OH232346   5.085   6.216   5.241
 3644TIP3    H132347   5.093   6.311   5.254
 3644TIP3    H232348   5.058   6.207   5.149
 3645TIP3   OH232349   6.496   3.415   3.491
 3645TIP3    H132350   6.421   3.386   3.439
 3645TIP3    H232351   6.495   3.358   3.568
 3646TIP3   OH232352   4.754   0.528   1.536
 3646TIP3    H132353   4.777   0.439   1.563
 3646TIP3    H232354   4.836   0.562   1.499
 3647TIP3   OH232355   4.620   3.223   1.298
 3647TIP3    H132356   4.639   3.313   1.325
 3647TIP3    H232357   4.598   3.178   1.380
 3648TIP3   OH232358   2.050   5.226   5.055
 3648TIP3    H132359   2.066   5.221   4.961
 3648TIP3    H232360   1.983   5.161   5.072
 3649TIP3   OH232361   4.810   2.683   6.070
 3649TIP3    H132362   4.797   2.608   6.129
 3649TIP3    H232363   4.786   2.650   5.984
 3650TIP3   OH232364   2.696   2.925   0.906
 3650TIP3    H132365   2.602   2.911   0.914
 3650TIP3    H232366   2.735   2.867   0.971
 3651TIP3   OH232367   0.181   2.715  16.046
 3651TIP3    H132368   0.165   2.797  15.998
 3651TIP3    H232369   0.257   2.734  16.100
 3652TIP3   OH232370   5.504   5.053  13.426
 3652TIP3    H132371   5.478   5.120  13.362
 3652TIP3    H232372   5.523   4.976  13.373
 3653TIP3   OH232373   3.119   4.601  15.149
 3653TIP3    H132374   3.099   4.585  15.242
 3653TIP3    H232375   3.109   4.695  15.139
 3654TIP3   OH232376   4.000   3.185  16.370
 3654TIP3    H132377   4.016   3.104  16.418
 3654TIP3    H232378   3.905   3.196  16.370
 3655TIP3   OH232379   1.202   6.431   0.872
 3655TIP3    H132380   1.184   6.518   0.837
 3655TIP3    H232381   1.177   6.437   0.965
 3656TIP3   OH232382   1.879   4.245   5.564
 3656TIP3    H132383   1.954   4.300   5.540
 3656TIP3    H232384   1.834   4.230   5.481
 3657TIP3   OH232385   0.745   3.438   5.988
 3657TIP3    H132386   0.695   3.377   6.043
 3657TIP3    H232387   0.702   3.434   5.903
 3658TIP3   OH232388   3.435   2.778  17.114
 3658TIP3    H132389   3.470   2.759  17.027
 3658TIP3    H232390   3.512   2.798  17.167
 3659TIP3   OH232391   2.391   3.802   3.144
 3659TIP3    H132392   2.312   3.757   3.170
 3659TIP3    H232393   2.440   3.737   3.092
 3660TIP3   OH232394   0.849   0.543   2.551
 3660TIP3    H132395   0.887   0.474   2.497
 3660TIP3    H232396   0.902   0.544   2.630
 3661TIP3   OH232397   3.271   5.852   3.501
 3661TIP3    H132398   3.285   5.813   3.588
 3661TIP3    H232399   3.321   5.796   3.442
 3662TIP3   OH232400   1.758   0.800   2.045
 3662TIP3    H132401   1.693   0.814   2.114
 3662TIP3    H232402   1.822   0.741   2.084
 3663TIP3   OH232403   6.363   1.386   6.062
 3663TIP3    H132404   6.361   1.290   6.061
 3663TIP3    H232405   6.284   1.411   6.109
 3664TIP3   OH232406   4.891   2.974   2.953
 3664TIP3    H132407   4.858   2.959   3.041
 3664TIP3    H232408   4.984   2.951   2.958
 3665TIP3   OH232409   1.348   5.506  11.087
 3665TIP3    H132410   1.260   5.486  11.057
 3665TIP3    H232411   1.404   5.485  11.011
 3666TIP3   OH232412   2.363   2.539   3.412
 3666TIP3    H132413   2.305   2.476   3.369
 3666TIP3    H232414   2.387   2.497   3.494
 3667TIP3   OH232415   3.507   1.946  14.454
 3667TIP3    H132416   3.481   1.864  14.413
 3667TIP3    H232417   3.438   2.008  14.431
 3668TIP3   OH232418   1.531   4.195   6.191
 3668TIP3    H132419   1.467   4.129   6.217
 3668TIP3    H232420   1.616   4.156   6.210
 3669TIP3   OH232421   3.591   0.841   4.175
 3669TIP3    H132422   3.593   0.761   4.124
 3669TIP3    H232423   3.682   0.854   4.203
 3670TIP3   OH232424   6.424   6.709   1.652
 3670TIP3    H132425   6.431   6.696   1.558
 3670TIP3    H232426   6.428   6.804   1.664
 3671TIP3   OH232427   0.383   3.482  15.617
 3671TIP3    H132428   0.442   3.478  15.692
 3671TIP3    H232429   0.332   3.562  15.631
 3672TIP3   OH232430   2.077   5.564  11.915
 3672TIP3    H132431   2.094   5.593  12.005
 3672TIP3    H232432   2.144   5.608  11.863
 3673TIP3   OH232433   1.752   3.804  17.019
 3673TIP3    H132434   1.821   3.764  16.965
 3673TIP3    H232435   1.797   3.873  17.067
 3674TIP3   OH232436   2.213   4.355  13.262
 3674TIP3    H132437   2.296   4.394  13.289
 3674TIP3    H232438   2.233   4.264  13.243
 3675TIP3   OH232439   2.603   0.026   1.079
 3675TIP3    H132440   2.508   0.037   1.068
 3675TIP3    H232441   2.631  -0.022   1.001
 3676TIP3   OH232442   6.668   2.073  16.149
 3676TIP3    H132443   6.763   2.086  16.158
 3676TIP3    H232444   6.639   2.149  16.098
 3677TIP3   OH232445   5.226   1.680   0.874
 3677TIP3    H132446   5.276   1.626   0.936
 3677TIP3    H232447   5.291   1.739   0.836
 3678TIP3   OH232448   6.242   1.071  13.056
 3678TIP3    H132449   6.201   1.102  13.137
 3678TIP3    H232450   6.251   0.976  13.069
 3679TIP3   OH232451   6.095   3.414   1.704
 3679TIP3    H132452   6.034   3.467   1.654
 3679TIP3    H232453   6.040   3.349   1.749
 3680TIP3   OH232454   1.497   2.544  12.359
 3680TIP3    H132455   1.454   2.469  12.401
 3680TIP3    H232456   1.432   2.614  12.362
 3681TIP3   OH232457   1.137   2.871   0.305
 3681TIP3    H132458   1.202   2.817   0.260
 3681TIP3    H232459   1.164   2.867   0.397
 3682TIP3   OH232460   2.316   2.266   6.598
 3682TIP3    H132461   2.270   2.189   6.630
 3682TIP3    H232462   2.358   2.304   6.675
 3683TIP3   OH232463   4.583   2.950   3.494
 3683TIP3    H132464   4.518   2.910   3.436
 3683TIP3    H232465   4.666   2.939   3.447
 3684TIP3   OH232466   0.727   3.719  13.882
 3684TIP3    H132467   0.770   3.634  13.896
 3684TIP3    H232468   0.641   3.709  13.921
 3685TIP3   OH232469   6.392   3.036   4.983
 3685TIP3    H132470   6.478   3.036   4.939
 3685TIP3    H232471   6.331   3.009   4.915
 3686TIP3   OH232472   1.563   6.638  12.217
 3686TIP3    H132473   1.498   6.596  12.161
 3686TIP3    H232474   1.533   6.620  12.306
 3687TIP3   OH232475   2.977   4.043  16.386
 3687TIP3    H132476   2.890   4.021  16.353
 3687TIP3    H232477   3.012   4.105  16.323
 3688TIP3   OH232478   1.582   4.902   2.442
 3688TIP3    H132479   1.570   4.816   2.403
 3688TIP3    H232480   1.542   4.963   2.380
 3689TIP3   OH232481   3.775   6.689   1.466
 3689TIP3    H132482   3.726   6.619   1.423
 3689TIP3    H232483   3.723   6.768   1.449
 3690TIP3   OH232484   1.528   2.548   4.232
 3690TIP3    H132485   1.576   2.580   4.309
 3690TIP3    H232486   1.549   2.611   4.163
 3691TIP3   OH232487   1.113   1.895  12.382
 3691TIP3    H132488   1.196   1.848  12.384
 3691TIP3    H232489   1.064   1.860  12.456
 3692TIP3   OH232490   2.165   5.539  13.173
 3692TIP3    H132491   2.095   5.601  13.152
 3692TIP3    H232492   2.121   5.456  13.188
 3693TIP3   OH232493   1.602   5.550   4.802
 3693TIP3    H132494   1.554   5.589   4.729
 3693TIP3    H232495   1.545   5.480   4.834
 3694TIP3   OH232496   5.955   4.744   4.426
 3694TIP3    H132497   6.001   4.779   4.350
 3694TIP3    H232498   5.907   4.820   4.461
 3695TIP3   OH232499   5.166   1.910  12.350
 3695TIP3    H132500   5.081   1.910  12.393
 3695TIP3    H232501   5.154   1.856  12.272
 3696TIP3   OH232502   5.270   6.402  15.501
 3696TIP3    H132503   5.294   6.493  15.481
 3696TIP3    H232504   5.176   6.406  15.518
 3697TIP3   OH232505   5.727   4.355   3.006
 3697TIP3    H132506   5.717   4.334   2.913
 3697TIP3    H232507   5.816   4.389   3.014
 3698TIP3   OH232508   1.437   4.955  16.699
 3698TIP3    H132509   1.452   5.034  16.648
 3698TIP3    H232510   1.518   4.904  16.689
 3699TIP3   OH232511   1.023   1.840   1.849
 3699TIP3    H132512   1.017   1.912   1.787
 3699TIP3    H232513   0.983   1.765   1.804
 3700TIP3   OH232514   3.101   1.960   6.256
 3700TIP3    H132515   3.018   1.914   6.241
 3700TIP3    H232516   3.108   1.967   6.352
 3701TIP3   OH232517   2.986   4.934   3.714
 3701TIP3    H132518   3.058   4.986   3.679
 3701TIP3    H232519   2.930   4.915   3.639
 3702TIP3   OH232520   4.674   5.779  12.744
 3702TIP3    H132521   4.629   5.721  12.683
 3702TIP3    H232522   4.605   5.809  12.804
 3703TIP3   OH232523   3.087   3.222  14.470
 3703TIP3    H132524   2.992   3.215  14.456
 3703TIP3    H232525   3.125   3.163  14.405
 3704TIP3   OH232526   6.693   2.949  12.095
 3704TIP3    H132527   6.651   3.030  12.065
 3704TIP3    H232528   6.752   2.926  12.023
 3705TIP3   OH232529   2.441   2.064  16.382
 3705TIP3    H132530   2.402   2.035  16.464
 3705TIP3    H232531   2.520   2.010  16.372
 3706TIP3   OH232532   0.096   5.021   2.317
 3706TIP3    H132533   0.066   4.935   2.346
 3706TIP3    H232534   0.019   5.077   2.325
 3707TIP3   OH232535   5.650   3.054   2.012
 3707TIP3    H132536   5.613   2.992   2.074
 3707TIP3    H232537   5.574   3.096   1.972
 3708TIP3   OH232538   6.396   5.260  14.699
 3708TIP3    H132539   6.340   5.251  14.776
 3708TIP3    H232540   6.449   5.181  14.698
 3709TIP3   OH232541   4.038   3.248  12.166
 3709TIP3    H132542   4.120   3.289  12.195
 3709TIP3    H232543   3.982   3.322  12.142
 3710TIP3   OH232544   1.477   5.632   3.342
 3710TIP3    H132545   1.442   5.554   3.386
 3710TIP3    H232546   1.551   5.599   3.291
 3711TIP3   OH232547   1.876   4.377  14.069
 3711TIP3    H132548   1.915   4.464  14.073
 3711TIP3    H232549   1.867   4.351  14.161
 3712TIP3   OH232550   0.492   6.459   2.720
 3712TIP3    H132551   0.520   6.436   2.631
 3712TIP3    H232552   0.419   6.399   2.738
 3713TIP3   OH232553   1.510   3.567   2.223
 3713TIP3    H132554   1.571   3.561   2.296
 3713TIP3    H232555   1.561   3.602   2.151
 3714TIP3   OH232556   6.192   5.370  16.306
 3714TIP3    H132557   6.251   5.320  16.248
 3714TIP3    H232558   6.180   5.313  16.382
 3715TIP3   OH232559   5.303   5.036   5.523
 3715TIP3    H132560   5.386   5.035   5.571
 3715TIP3    H232561   5.268   5.124   5.536
 3716TIP3   OH232562   2.158   1.795   1.984
 3716TIP3    H132563   2.167   1.777   1.891
 3716TIP3    H232564   2.228   1.858   2.003
 3717TIP3   OH232565   4.347   4.799   0.941
 3717TIP3    H132566   4.290   4.798   1.017
 3717TIP3    H232567   4.316   4.873   0.888
 3718TIP3   OH232568   5.616   5.865   4.613
 3718TIP3    H132569   5.562   5.816   4.675
 3718TIP3    H232570   5.685   5.803   4.588
 3719TIP3   OH232571   2.460   5.904   1.029
 3719TIP3    H132572   2.480   5.890   0.936
 3719TIP3    H232573   2.449   5.998   1.038
 3720TIP3   OH232574   0.429   4.831  13.875
 3720TIP3    H132575   0.469   4.879  13.948
 3720TIP3    H232576   0.390   4.899  13.820
 3721TIP3   OH232577   4.333   5.384  10.804
 3721TIP3    H132578   4.360   5.435  10.728
 3721TIP3    H232579   4.237   5.387  10.802
 3722TIP3   OH232580   0.458   1.944  16.362
 3722TIP3    H132581   0.422   1.926  16.275
 3722TIP3    H232582   0.406   1.889  16.421
 3723TIP3   OH232583   6.385   5.506   4.606
 3723TIP3    H132584   6.373   5.455   4.525
 3723TIP3    H232585   6.406   5.594   4.575
 3724TIP3   OH232586   1.458   3.890   4.971
 3724TIP3    H132587   1.499   3.934   4.897
 3724TIP3    H232588   1.529   3.878   5.034
 3725TIP3   OH232589   4.852   0.076   3.930
 3725TIP3    H132590   4.888   0.153   3.975
 3725TIP3    H232591   4.827   0.109   3.844
 3726TIP3   OH232592   2.342   3.504  16.172
 3726TIP3    H132593   2.415   3.525  16.231
 3726TIP3    H232594   2.273   3.473  16.230
 3727TIP3   OH232595   1.924   0.477  14.083
 3727TIP3    H132596   1.888   0.405  14.032
 3727TIP3    H232597   1.972   0.434  14.154
 3728TIP3   OH232598   3.771   2.564   4.079
 3728TIP3    H132599   3.790   2.471   4.093
 3728TIP3    H232600   3.721   2.590   4.156
 3729TIP3   OH232601   5.028   2.099  16.997
 3729TIP3    H132602   5.069   2.016  16.974
 3729TIP3    H232603   5.072   2.163  16.941
 3730TIP3   OH232604   3.558   4.972   4.823
 3730TIP3    H132605   3.520   4.972   4.734
 3730TIP3    H232606   3.493   4.926   4.876
 3731TIP3   OH232607   2.007   1.709   6.138
 3731TIP3    H132608   1.992   1.638   6.075
 3731TIP3    H232609   1.921   1.725   6.176
 3732TIP3   OH232610   4.627   3.047  11.938
 3732TIP3    H132611   4.602   3.138  11.954
 3732TIP3    H232612   4.584   3.026  11.854
 3733TIP3   OH232613   4.232   3.179  17.027
 3733TIP3    H132614   4.232   3.232  16.947
 3733TIP3    H232615   4.277   3.234  17.091
 3734TIP3   OH232616   1.810   1.252  14.119
 3734TIP3    H132617   1.774   1.269  14.206
 3734TIP3    H232618   1.811   1.338  14.077
 3735TIP3   OH232619   3.400   3.995   1.420
 3735TIP3    H132620   3.495   4.008   1.425
 3735TIP3    H232621   3.376   4.022   1.332
 3736TIP3   OH232622   5.903   2.514  17.190
 3736TIP3    H132623   5.858   2.594  17.164
 3736TIP3    H232624   5.851   2.481  17.264
 3737TIP3   OH232625   1.319   6.717  10.915
 3737TIP3    H132626   1.309   6.758  10.829
 3737TIP3    H232627   1.230   6.690  10.939
 3738TIP3   OH232628   1.413   1.962   4.239
 3738TIP3    H132629   1.440   1.873   4.220
 3738TIP3    H232630   1.423   1.971   4.334
 3739TIP3   OH232631   0.887   6.387   0.670
 3739TIP3    H132632   0.971   6.384   0.624
 3739TIP3    H232633   0.869   6.481   0.682
 3740TIP3   OH232634   1.862   4.483   5.919
 3740TIP3    H132635   1.909   4.564   5.941
 3740TIP3    H232636   1.917   4.413   5.953
 3741TIP3   OH232637   3.555   3.813   3.484
 3741TIP3    H132638   3.496   3.751   3.527
 3741TIP3    H232639   3.575   3.771   3.400
 3742TIP3   OH232640   1.503   5.194  11.534
 3742TIP3    H132641   1.511   5.155  11.447
 3742TIP3    H232642   1.419   5.241  11.532
 3743TIP3   OH232643   4.636   0.442  17.230
 3743TIP3    H132644   4.580   0.516  17.252
 3743TIP3    H232645   4.723   0.467  17.258
 3744TIP3   OH232646   6.505   2.153   1.023
 3744TIP3    H132647   6.427   2.100   1.038
 3744TIP3    H232648   6.576   2.103   1.061
 3745TIP3   OH232649   1.797   1.366  15.809
 3745TIP3    H132650   1.800   1.283  15.762
 3745TIP3    H232651   1.757   1.345  15.894
 3746TIP3   OH232652   1.752   0.984  16.183
 3746TIP3    H132653   1.841   1.010  16.159
 3746TIP3    H232654   1.739   0.901  16.139
 3747TIP3   OH232655   2.796   4.834  14.062
 3747TIP3    H132656   2.759   4.908  14.014
 3747TIP3    H232657   2.890   4.852  14.064
 3748TIP3   OH232658   6.461   1.399   3.866
 3748TIP3    H132659   6.459   1.308   3.836
 3748TIP3    H232660   6.554   1.421   3.868
 3749TIP3   OH232661   0.613   6.508   5.035
 3749TIP3    H132662   0.650   6.435   4.986
 3749TIP3    H232663   0.674   6.522   5.107
 3750TIP3   OH232664   1.447   3.418  13.853
 3750TIP3    H132665   1.464   3.368  13.773
 3750TIP3    H232666   1.454   3.354  13.923
 3751TIP3   OH232667   2.126   3.700  15.064
 3751TIP3    H132668   2.155   3.688  14.974
 3751TIP3    H232669   2.035   3.671  15.064
 3752TIP3   OH232670   3.591   3.748  14.482
 3752TIP3    H132671   3.537   3.760  14.561
 3752TIP3    H232672   3.600   3.653  14.475
 3753TIP3   OH232673   0.578   4.625  10.508
 3753TIP3    H132674   0.521   4.686  10.461
 3753TIP3    H232675   0.633   4.681  10.562
 3754TIP3   OH232676   3.717   1.716   1.409
 3754TIP3    H132677   3.754   1.663   1.338
 3754TIP3    H232678   3.741   1.806   1.388
 3755TIP3   OH232679   0.891   6.172  14.008
 3755TIP3    H132680   0.925   6.190  13.920
 3755TIP3    H232681   0.817   6.232  14.018
 3756TIP3   OH232682   5.005   5.229   1.194
 3756TIP3    H132683   5.012   5.191   1.282
 3756TIP3    H232684   4.924   5.191   1.159
 3757TIP3   OH232685   1.107   2.451   4.996
 3757TIP3    H132686   1.155   2.380   5.039
 3757TIP3    H232687   1.143   2.531   5.034
 3758TIP3   OH232688   3.295   1.651  13.959
 3758TIP3    H132689   3.228   1.584  13.969
 3758TIP3    H232690   3.300   1.666  13.865
 3759TIP3   OH232691   0.998   4.350   2.390
 3759TIP3    H132692   1.024   4.388   2.474
 3759TIP3    H232693   0.917   4.396   2.367
 3760TIP3   OH232694   6.488   2.538  15.166
 3760TIP3    H132695   6.448   2.462  15.123
 3760TIP3    H232696   6.545   2.576  15.100
 3761TIP3   OH232697   4.465   1.059   5.130
 3761TIP3    H132698   4.532   1.099   5.074
 3761TIP3    H232699   4.438   1.129   5.189
 3762TIP3   OH232700   3.259   6.525   5.628
 3762TIP3    H132701   3.282   6.512   5.720
 3762TIP3    H232702   3.232   6.617   5.623
 3763TIP3   OH232703   0.230   4.538  10.585
 3763TIP3    H132704   0.277   4.607  10.539
 3763TIP3    H232705   0.138   4.562  10.576
 3764TIP3   OH232706   1.957   0.087  13.928
 3764TIP3    H132707   1.947   0.021  13.996
 3764TIP3    H232708   1.867   0.108  13.901
 3765TIP3   OH232709   1.345   5.756   2.896
 3765TIP3    H132710   1.353   5.851   2.892
 3765TIP3    H232711   1.433   5.723   2.876
 3766TIP3   OH232712   0.542   5.935  13.151
 3766TIP3    H132713   0.533   5.971  13.240
 3766TIP3    H232714   0.560   5.842  13.165
 3767TIP3   OH232715   1.609   5.162   4.845
 3767TIP3    H132716   1.534   5.184   4.790
 3767TIP3    H232717   1.673   5.231   4.828
 3768TIP3   OH232718   5.964   2.284   1.270
 3768TIP3    H132719   5.927   2.218   1.212
 3768TIP3    H232720   6.059   2.278   1.257
 3769TIP3   OH232721   6.001   6.504  16.495
 3769TIP3    H132722   5.964   6.581  16.452
 3769TIP3    H232723   6.018   6.442  16.424
 3770TIP3   OH232724   0.025   5.355  11.825
 3770TIP3    H132725   0.090   5.390  11.765
 3770TIP3    H232726   0.017   5.263  11.801
 3771TIP3   OH232727   2.912   1.845   0.898
 3771TIP3    H132728   3.001   1.873   0.875
 3771TIP3    H232729   2.869   1.833   0.813
 3772TIP3   OH232730   5.801   0.085   5.254
 3772TIP3    H132731   5.889   0.099   5.220
 3772TIP3    H232732   5.801  -0.007   5.283
 3773TIP3   OH232733   3.264   0.118  16.487
 3773TIP3    H132734   3.270   0.045  16.425
 3773TIP3    H232735   3.246   0.077  16.571
 3774TIP3   OH232736   0.490   5.616  17.089
 3774TIP3    H132737   0.540   5.698  17.080
 3774TIP3    H232738   0.405   5.636  17.049
 3775TIP3   OH232739   3.666   2.948   3.297
 3775TIP3    H132740   3.682   3.042   3.286
 3775TIP3    H232741   3.710   2.907   3.222
 3776TIP3   OH232742   6.371   5.695   0.416
 3776TIP3    H132743   6.465   5.681   0.428
 3776TIP3    H232744   6.347   5.761   0.480
 3777TIP3   OH232745   1.109   5.071  14.688
 3777TIP3    H132746   1.128   5.063  14.782
 3777TIP3    H232747   1.165   5.005  14.646
 3778TIP3   OH232748   1.906   0.371   0.074
 3778TIP3    H132749   1.954   0.435   0.127
 3778TIP3    H232750   1.882   0.301   0.135
 3779TIP3   OH232751   6.693   3.349   3.243
 3779TIP3    H132752   6.601   3.345   3.271
 3779TIP3    H232753   6.698   3.429   3.190
 3780TIP3   OH232754   6.607   5.597   5.157
 3780TIP3    H132755   6.657   5.654   5.215
 3780TIP3    H232756   6.564   5.534   5.215
 3781TIP3   OH232757   4.302   1.455   1.806
 3781TIP3    H132758   4.265   1.542   1.790
 3781TIP3    H232759   4.364   1.442   1.735
 3782TIP3   OH232760   4.187   2.709  15.364
 3782TIP3    H132761   4.119   2.714  15.432
 3782TIP3    H232762   4.229   2.624  15.379
 3783TIP3   OH232763   5.953   5.066   5.132
 3783TIP3    H132764   6.043   5.046   5.160
 3783TIP3    H232765   5.946   5.027   5.045
 3784TIP3   OH232766   4.500   6.128   4.485
 3784TIP3    H132767   4.595   6.133   4.469
 3784TIP3    H232768   4.465   6.206   4.445
 3785TIP3   OH232769   5.072   5.902   5.149
 3785TIP3    H132770   5.123   5.970   5.193
 3785TIP3    H232771   5.108   5.820   5.183
 3786TIP3   OH232772   6.068   5.287  12.024
 3786TIP3    H132773   5.988   5.316  11.981
 3786TIP3    H232774   6.121   5.248  11.953
 3787TIP3   OH232775   4.263   3.493   1.079
 3787TIP3    H132776   4.264   3.556   1.151
 3787TIP3    H232777   4.236   3.543   1.002
 3788TIP3   OH232778   2.823   4.071   4.637
 3788TIP3    H132779   2.788   4.104   4.554
 3788TIP3    H232780   2.748   4.072   4.697
 3789TIP3   OH232781   0.780   3.651  17.168
 3789TIP3    H132782   0.712   3.585  17.156
 3789TIP3    H232783   0.844   3.633  17.099
 3790TIP3   OH232784   0.017   0.139  14.233
 3790TIP3    H132785   0.093   0.142  14.175
 3790TIP3    H232786   0.025   0.056  14.279
 3791TIP3   OH232787   0.535   5.509   5.259
 3791TIP3    H132788   0.530   5.462   5.342
 3791TIP3    H232789   0.509   5.444   5.193
 3792TIP3   OH232790   3.177   4.651   2.621
 3792TIP3    H132791   3.136   4.735   2.640
 3792TIP3    H232792   3.219   4.663   2.536
 3793TIP3   OH232793   6.256   4.599  15.687
 3793TIP3    H132794   6.161   4.607  15.674
 3793TIP3    H232795   6.293   4.674  15.639
 3794TIP3   OH232796   0.617   5.794   2.175
 3794TIP3    H132797   0.672   5.842   2.236
 3794TIP3    H232798   0.527   5.813   2.202
 3795TIP3   OH232799   4.228   3.039   3.436
 3795TIP3    H132800   4.298   3.024   3.500
 3795TIP3    H232801   4.202   3.130   3.450
 3796TIP3   OH232802   3.291   5.825  15.636
 3796TIP3    H132803   3.230   5.794  15.570
 3796TIP3    H232804   3.317   5.912  15.606
 3797TIP3   OH232805   6.027   4.254  11.010
 3797TIP3    H132806   5.945   4.297  11.035
 3797TIP3    H232807   6.026   4.257  10.914
 3798TIP3   OH232808   4.912   6.656  16.629
 3798TIP3    H132809   4.856   6.705  16.688
 3798TIP3    H232810   4.972   6.608  16.687
 3799TIP3   OH232811   3.277   5.937   3.882
 3799TIP3    H132812   3.268   5.858   3.828
 3799TIP3    H232813   3.251   5.910   3.970
 3800TIP3   OH232814   2.095   6.103   0.987
 3800TIP3    H132815   2.026   6.041   0.963
 3800TIP3    H232816   2.166   6.085   0.925
 3801TIP3   OH232817   2.695   4.941   5.377
 3801TIP3    H132818   2.754   5.016   5.390
 3801TIP3    H232819   2.624   4.956   5.439
 3802TIP3   OH232820   2.509   3.970   3.961
 3802TIP3    H132821   2.581   3.953   3.900
 3802TIP3    H232822   2.450   3.895   3.949
 3803TIP3   OH232823   5.958   2.124   3.166
 3803TIP3    H132824   6.052   2.143   3.168
 3803TIP3    H232825   5.946   2.076   3.084
 3804TIP3   OH232826   6.259   1.538  12.954
 3804TIP3    H132827   6.172   1.519  12.990
 3804TIP3    H232828   6.306   1.455  12.962
 3805TIP3   OH232829   0.101   3.786   2.425
 3805TIP3    H132830   0.176   3.745   2.468
 3805TIP3    H232831   0.137   3.827   2.347
 3806TIP3   OH232832   4.601   6.259  17.005
 3806TIP3    H132833   4.667   6.189  16.995
 3806TIP3    H232834   4.628   6.326  16.943
 3807TIP3   OH232835   3.198   1.822  13.263
 3807TIP3    H132836   3.220   1.914  13.248
 3807TIP3    H232837   3.259   1.794  13.331
 3808TIP3   OH232838   5.663   3.692   6.691
 3808TIP3    H132839   5.757   3.692   6.708
 3808TIP3    H232840   5.646   3.778   6.652
 3809TIP3   OH232841   1.347   1.510   1.092
 3809TIP3    H132842   1.430   1.497   1.047
 3809TIP3    H232843   1.372   1.551   1.175
 3810TIP3   OH232844   6.120   4.256   0.639
 3810TIP3    H132845   6.109   4.183   0.699
 3810TIP3    H232846   6.143   4.215   0.555
 3811TIP3   OH232847   5.939   3.188  13.889
 3811TIP3    H132848   5.906   3.139  13.964
 3811TIP3    H232849   5.999   3.252  13.926
 3812TIP3   OH232850   1.029   2.089  15.044
 3812TIP3    H132851   1.103   2.129  14.997
 3812TIP3    H232852   1.047   1.995  15.041
 3813TIP3   OH232853   4.529   0.175   0.180
 3813TIP3    H132854   4.561   0.091   0.150
 3813TIP3    H232855   4.439   0.180   0.147
 3814TIP3   OH232856   5.491   0.773   4.872
 3814TIP3    H132857   5.504   0.805   4.961
 3814TIP3    H232858   5.401   0.739   4.872
 3815TIP3   OH232859   1.466   1.435   1.940
 3815TIP3    H132860   1.532   1.504   1.939
 3815TIP3    H232861   1.394   1.470   1.886
 3816TIP3   OH232862   3.019   3.660  11.583
 3816TIP3    H132863   3.085   3.606  11.539
 3816TIP3    H232864   3.070   3.731  11.624
 3817TIP3   OH232865   3.742   3.370  13.743
 3817TIP3    H132866   3.772   3.280  13.755
 3817TIP3    H232867   3.716   3.399  13.830
 3818TIP3   OH232868   2.436   4.679   1.390
 3818TIP3    H132869   2.419   4.772   1.380
 3818TIP3    H232870   2.527   4.674   1.420
 3819TIP3   OH232871   0.996   1.774   2.994
 3819TIP3    H132872   0.959   1.737   3.074
 3819TIP3    H232873   0.955   1.860   2.987
 3820TIP3   OH232874   2.365   1.382  13.991
 3820TIP3    H132875   2.451   1.341  13.991
 3820TIP3    H232876   2.348   1.402  14.083
 3821TIP3   OH232877   1.001   0.540  15.335
 3821TIP3    H132878   0.951   0.498  15.265
 3821TIP3    H232879   1.033   0.467  15.389
 3822TIP3   OH232880   0.953   4.344   1.057
 3822TIP3    H132881   0.982   4.296   1.135
 3822TIP3    H232882   0.921   4.275   0.998
 3823TIP3   OH232883   3.795   6.629   0.477
 3823TIP3    H132884   3.734   6.556   0.490
 3823TIP3    H232885   3.849   6.630   0.556
 3824TIP3   OH232886   5.356   0.471  16.869
 3824TIP3    H132887   5.393   0.396  16.823
 3824TIP3    H232888   5.284   0.435  16.920
 3825TIP3   OH232889   2.231   4.918  13.583
 3825TIP3    H132890   2.284   4.839  13.597
 3825TIP3    H232891   2.227   4.927  13.487
 3826TIP3   OH232892   2.483   1.891  10.155
 3826TIP3    H132893   2.479   1.796  10.144
 3826TIP3    H232894   2.520   1.904  10.242
 3827TIP3   OH232895   5.666   3.355  10.928
 3827TIP3    H132896   5.757   3.372  10.903
 3827TIP3    H232897   5.641   3.431  10.980
 3828TIP3   OH232898   4.181   5.087  16.897
 3828TIP3    H132899   4.191   5.177  16.867
 3828TIP3    H232900   4.145   5.040  16.822
 3829TIP3   OH232901   2.836   1.731  10.831
 3829TIP3    H132902   2.759   1.709  10.884
 3829TIP3    H232903   2.842   1.660  10.767
 3830TIP3   OH232904   5.528   0.392   4.608
 3830TIP3    H132905   5.493   0.418   4.523
 3830TIP3    H232906   5.451   0.379   4.663
 3831TIP3   OH232907   1.932   1.786  12.114
 3831TIP3    H132908   1.945   1.820  12.025
 3831TIP3    H232909   1.840   1.760  12.116
 3832TIP3   OH232910   5.828   5.047  14.306
 3832TIP3    H132911   5.820   4.977  14.240
 3832TIP3    H232912   5.763   5.112  14.280
 3833TIP3   OH232913   5.587   4.165  11.484
 3833TIP3    H132914   5.650   4.234  11.464
 3833TIP3    H232915   5.618   4.089  11.435
 3834TIP3   OH232916   4.261   3.931   4.065
 3834TIP3    H132917   4.295   3.937   4.154
 3834TIP3    H232918   4.178   3.884   4.074
 3835TIP3   OH232919   4.083   0.631  12.393
 3835TIP3    H132920   4.061   0.552  12.344
 3835TIP3    H232921   4.130   0.686  12.331
 3836TIP3   OH232922   0.555   1.423   2.532
 3836TIP3    H132923   0.599   1.461   2.457
 3836TIP3    H232924   0.472   1.470   2.538
 3837TIP3   OH232925   5.968   5.349   5.533
 3837TIP3    H132926   5.884   5.327   5.493
 3837TIP3    H232927   5.999   5.426   5.484
 3838TIP3   OH232928   6.699   5.274  12.099
 3838TIP3    H132929   6.691   5.335  12.026
 3838TIP3    H232930   6.794   5.265  12.112
 3839TIP3   OH232931   1.494   4.794  11.610
 3839TIP3    H132932   1.439   4.840  11.546
 3839TIP3    H232933   1.564   4.856  11.631
 3840TIP3   OH232934   6.715   3.654  15.204
 3840TIP3    H132935   6.762   3.582  15.161
 3840TIP3    H232936   6.651   3.683  15.140
 3841TIP3   OH232937   6.338   2.089   2.337
 3841TIP3    H132938   6.354   2.093   2.431
 3841TIP3    H232939   6.255   2.136   2.325
 3842TIP3   OH232940   1.649   1.938  13.279
 3842TIP3    H132941   1.744   1.944  13.292
 3842TIP3    H232942   1.636   1.957  13.186
 3843TIP3   OH232943   1.676   3.260   4.755
 3843TIP3    H132944   1.738   3.188   4.763
 3843TIP3    H232945   1.683   3.307   4.838
 3844TIP3   OH232946   5.780   6.276   2.132
 3844TIP3    H132947   5.779   6.367   2.105
 3844TIP3    H232948   5.853   6.269   2.194
 3845TIP3   OH232949   3.435   0.589  16.626
 3845TIP3    H132950   3.410   0.666  16.677
 3845TIP3    H232951   3.359   0.530  16.632
 3846TIP3   OH232952   4.934   5.027   2.451
 3846TIP3    H132953   4.934   5.061   2.361
 3846TIP3    H232954   4.855   5.065   2.490
 3847TIP3   OH232955   0.712   0.466  13.047
 3847TIP3    H132956   0.725   0.542  12.990
 3847TIP3    H232957   0.654   0.498  13.117
 3848TIP3   OH232958   2.996   4.977   0.253
 3848TIP3    H132959   2.937   5.026   0.311
 3848TIP3    H232960   3.055   5.043   0.218
 3849TIP3   OH232961   4.067   4.892   2.039
 3849TIP3    H132962   4.156   4.880   2.073
 3849TIP3    H232963   4.026   4.806   2.047
 3850TIP3   OH232964   3.104   5.847  15.845
 3850TIP3    H132965   3.189   5.847  15.802
 3850TIP3    H232966   3.088   5.755  15.866
 3851TIP3   OH232967   1.724   2.270   3.255
 3851TIP3    H132968   1.729   2.282   3.350
 3851TIP3    H232969   1.769   2.187   3.239
 3852TIP3   OH232970   1.376   6.503   5.446
 3852TIP3    H132971   1.365   6.581   5.392
 3852TIP3    H232972   1.287   6.482   5.476
 3853TIP3   OH232973   4.928   2.840  12.465
 3853TIP3    H132974   4.938   2.861  12.558
 3853TIP3    H232975   4.864   2.903  12.432
 3854TIP3   OH232976   4.808   3.763  14.287
 3854TIP3    H132977   4.897   3.766  14.321
 3854TIP3    H232978   4.753   3.757  14.365
 3855TIP3   OH232979   4.812   5.204  12.029
 3855TIP3    H132980   4.842   5.116  12.007
 3855TIP3    H232981   4.765   5.193  12.111
 3856TIP3   OH232982   6.270   4.701  16.577
 3856TIP3    H132983   6.330   4.705  16.652
 3856TIP3    H232984   6.192   4.658  16.612
 3857TIP3   OH232985   1.111   5.598   4.881
 3857TIP3    H132986   1.075   5.576   4.967
 3857TIP3    H232987   1.205   5.606   4.895
 3858TIP3   OH232988   0.050   4.459   5.217
 3858TIP3    H132989   0.122   4.470   5.280
 3858TIP3    H232990  -0.005   4.536   5.231
 3859TIP3   OH232991   6.551   2.531  11.224
 3859TIP3    H132992   6.547   2.609  11.169
 3859TIP3    H232993   6.475   2.479  11.198
 3860TIP3   OH232994   1.304   2.949  11.965
 3860TIP3    H132995   1.226   3.003  11.955
 3860TIP3    H232996   1.312   2.936  12.060
 3861TIP3   OH232997   3.803   1.291   5.258
 3861TIP3    H132998   3.816   1.251   5.344
 3861TIP3    H232999   3.768   1.220   5.203
 3862TIP3   OH233000   3.647   6.385   0.447
 3862TIP3    H133001   3.628   6.342   0.364
 3862TIP3    H233002   3.674   6.314   0.506
 3863TIP3   OH233003   6.250   6.336   3.855
 3863TIP3    H133004   6.315   6.266   3.855
 3863TIP3    H233005   6.255   6.374   3.768
 3864TIP3   OH233006   5.585   5.634  15.984
 3864TIP3    H133007   5.501   5.609  15.946
 3864TIP3    H233008   5.609   5.561  16.041
 3865TIP3   OH233009   4.205   6.353   2.880
 3865TIP3    H133010   4.202   6.423   2.815
 3865TIP3    H233011   4.132   6.296   2.858
 3866TIP3   OH233012   2.212   5.183   1.217
 3866TIP3    H133013   2.264   5.174   1.137
 3866TIP3    H233014   2.247   5.261   1.260
 3867TIP3   OH233015   0.200   3.307   2.627
 3867TIP3    H133016   0.171   3.395   2.654
 3867TIP3    H233017   0.121   3.264   2.595
 3868TIP3   OH233018   6.605   4.861   4.921
 3868TIP3    H133019   6.531   4.805   4.898
 3868TIP3    H233020   6.565   4.946   4.940
 3869TIP3   OH233021   3.530   1.388  14.198
 3869TIP3    H133022   3.560   1.329  14.129
 3869TIP3    H233023   3.447   1.351  14.227
 3870TIP3   OH233024   1.291   1.139   6.198
 3870TIP3    H133025   1.221   1.203   6.200
 3870TIP3    H233026   1.361   1.182   6.148
 3871TIP3   OH233027   0.560   5.425   1.695
 3871TIP3    H133028   0.482   5.431   1.751
 3871TIP3    H233029   0.563   5.333   1.668
 3872TIP3   OH233030   2.476   5.818   6.167
 3872TIP3    H133031   2.411   5.808   6.236
 3872TIP3    H233032   2.555   5.777   6.203
 3873TIP3   OH233033   6.134   1.627   1.357
 3873TIP3    H133034   6.213   1.625   1.411
 3873TIP3    H233035   6.166   1.629   1.267
 3874TIP3   OH233036   0.008   5.822   0.644
 3874TIP3    H133037  -0.084   5.841   0.623
 3874TIP3    H233038   0.003   5.755   0.712
 3875TIP3   OH233039   5.169   2.461   4.354
 3875TIP3    H133040   5.236   2.477   4.287
 3875TIP3    H233041   5.191   2.522   4.424
 3876TIP3   OH233042   3.724   2.644  15.161
 3876TIP3    H133043   3.754   2.682  15.078
 3876TIP3    H233044   3.794   2.583  15.185
 3877TIP3   OH233045   0.449   1.940   0.258
 3877TIP3    H133046   0.456   1.927   0.353
 3877TIP3    H233047   0.433   2.034   0.248
 3878TIP3   OH233048   0.681   4.725  13.409
 3878TIP3    H133049   0.737   4.790  13.366
 3878TIP3    H233050   0.602   4.723  13.356
 3879TIP3   OH233051   0.640   0.248  16.042
 3879TIP3    H133052   0.624   0.205  15.958
 3879TIP3    H233053   0.597   0.333  16.034
 3880TIP3   OH233054   5.146   1.261  12.638
 3880TIP3    H133055   5.215   1.237  12.576
 3880TIP3    H233056   5.126   1.180  12.684
 3881TIP3   OH233057   4.371   2.481   0.325
 3881TIP3    H133058   4.352   2.539   0.251
 3881TIP3    H233059   4.368   2.538   0.402
 3882TIP3   OH233060   5.933   1.407   1.613
 3882TIP3    H133061   5.875   1.342   1.654
 3882TIP3    H233062   6.012   1.405   1.667
 3883TIP3   OH233063   2.567   4.940   1.073
 3883TIP3    H133064   2.655   4.969   1.098
 3883TIP3    H233065   2.573   4.845   1.071
 3884TIP3   OH233066   5.451   0.582   4.174
 3884TIP3    H133067   5.516   0.527   4.219
 3884TIP3    H233068   5.418   0.527   4.103
 3885TIP3   OH233069   5.909   2.643  16.493
 3885TIP3    H133070   5.822   2.623  16.459
 3885TIP3    H233071   5.965   2.574  16.457
 3886TIP3   OH233072   2.149   3.508  13.409
 3886TIP3    H133073   2.117   3.521  13.498
 3886TIP3    H233074   2.243   3.523  13.415
 3887TIP3   OH233075   0.991   0.524   1.248
 3887TIP3    H133076   0.972   0.504   1.156
 3887TIP3    H233077   1.074   0.479   1.265
 3888TIP3   OH233078   5.747   5.470  16.826
 3888TIP3    H133079   5.685   5.537  16.852
 3888TIP3    H233080   5.763   5.487  16.733
 3889TIP3   OH233081   0.427   4.068   5.738
 3889TIP3    H133082   0.398   3.993   5.791
 3889TIP3    H233083   0.349   4.095   5.690
 3890TIP3   OH233084   4.043   1.745   2.634
 3890TIP3    H133085   4.034   1.698   2.716
 3890TIP3    H233086   4.136   1.737   2.611
 3891TIP3   OH233087   2.797   4.378   6.052
 3891TIP3    H133088   2.711   4.421   6.053
 3891TIP3    H233089   2.830   4.389   6.141
 3892TIP3   OH233090   4.068   2.471   3.953
 3892TIP3    H133091   4.163   2.466   3.964
 3892TIP3    H233092   4.037   2.381   3.967
 3893TIP3   OH233093   1.604   4.774   3.759
 3893TIP3    H133094   1.540   4.740   3.821
 3893TIP3    H233095   1.689   4.758   3.801
 3894TIP3   OH233096   6.658   5.860   5.031
 3894TIP3    H133097   6.648   5.777   4.984
 3894TIP3    H233098   6.697   5.836   5.115
 3895TIP3   OH233099   6.032   5.845   5.578
 3895TIP3    H133100   5.998   5.773   5.632
 3895TIP3    H233101   5.993   5.923   5.616
 3896TIP3   OH233102   4.121   0.685   2.954
 3896TIP3    H133103   4.066   0.649   3.024
 3896TIP3    H233104   4.173   0.611   2.923
 3897TIP3   OH233105   4.249   6.403  12.143
 3897TIP3    H133106   4.163   6.417  12.103
 3897TIP3    H233107   4.278   6.491  12.168
 3898TIP3   OH233108   1.802   2.327  11.284
 3898TIP3    H133109   1.877   2.328  11.224
 3898TIP3    H233110   1.832   2.273  11.358
 3899TIP3   OH233111   5.351   2.506   0.489
 3899TIP3    H133112   5.266   2.549   0.480
 3899TIP3    H233113   5.393   2.519   0.403
 3900TIP3   OH233114   5.299   1.964  12.578
 3900TIP3    H133115   5.246   2.037  12.609
 3900TIP3    H233116   5.256   1.936  12.498
 3901TIP3   OH233117   6.366   0.387  16.259
 3901TIP3    H133118   6.431   0.405  16.191
 3901TIP3    H233119   6.312   0.317  16.222
 3902TIP3   OH233120   2.582   5.910  13.865
 3902TIP3    H133121   2.528   5.989  13.875
 3902TIP3    H233122   2.672   5.940  13.878
 3903TIP3   OH233123   3.831   4.650   0.911
 3903TIP3    H133124   3.921   4.625   0.888
 3903TIP3    H233125   3.818   4.614   0.998
 3904TIP3   OH233126   2.936   4.821   0.020
 3904TIP3    H133127   2.964   4.867   0.098
 3904TIP3    H233128   2.918   4.731   0.049
 3905TIP3   OH233129   0.087   1.785   4.224
 3905TIP3    H133130   0.043   1.711   4.181
 3905TIP3    H233131   0.040   1.862   4.192
 3906TIP3   OH233132   2.337   6.747  15.793
 3906TIP3    H133133   2.305   6.657  15.791
 3906TIP3    H233134   2.313   6.780  15.879
 3907TIP3   OH233135   3.585   3.434  13.192
 3907TIP3    H133136   3.606   3.353  13.238
 3907TIP3    H233137   3.667   3.459  13.150
 3908TIP3   OH233138   6.245   3.774   1.547
 3908TIP3    H133139   6.318   3.722   1.581
 3908TIP3    H233140   6.283   3.827   1.477
 3909TIP3   OH233141   3.926   3.815   1.682
 3909TIP3    H133142   3.980   3.796   1.605
 3909TIP3    H233143   3.839   3.831   1.646
 3910TIP3   OH233144   0.426   1.905   0.828
 3910TIP3    H133145   0.410   1.966   0.900
 3910TIP3    H233146   0.357   1.925   0.764
 3911TIP3   OH233147   4.398   5.117  15.900
 3911TIP3    H133148   4.453   5.062  15.843
 3911TIP3    H233149   4.357   5.055  15.960
 3912TIP3   OH233150   1.880   5.822  17.121
 3912TIP3    H133151   1.908   5.830  17.030
 3912TIP3    H233152   1.795   5.866  17.124
 3913TIP3   OH233153   0.728   5.722  12.428
 3913TIP3    H133154   0.810   5.748  12.386
 3913TIP3    H233155   0.754   5.700  12.518
 3914TIP3   OH233156   5.514   5.953  11.305
 3914TIP3    H133157   5.567   6.022  11.344
 3914TIP3    H233158   5.450   5.930  11.372
 3915TIP3   OH233159   4.160   4.309   5.144
 3915TIP3    H133160   4.147   4.292   5.238
 3915TIP3    H233161   4.183   4.402   5.140
 3916TIP3   OH233162   0.615   0.727  12.444
 3916TIP3    H133163   0.639   0.799  12.503
 3916TIP3    H233164   0.615   0.767  12.357
 3917TIP3   OH233165   4.928   0.406   3.711
 3917TIP3    H133166   4.858   0.349   3.679
 3917TIP3    H233167   4.923   0.484   3.656
 3918TIP3   OH233168   2.241   3.275   0.408
 3918TIP3    H133169   2.335   3.266   0.421
 3918TIP3    H233170   2.209   3.312   0.490
 3919TIP3   OH233171   3.368   4.349  11.603
 3919TIP3    H133172   3.380   4.257  11.583
 3919TIP3    H233173   3.402   4.359  11.692
 3920TIP3   OH233174   0.395   6.247  13.563
 3920TIP3    H133175   0.450   6.306  13.512
 3920TIP3    H233176   0.316   6.298  13.583
 3921TIP3   OH233177   1.521   3.349  11.651
 3921TIP3    H133178   1.541   3.437  11.620
 3921TIP3    H233179   1.599   3.324  11.702
 3922TIP3   OH233180   2.260   5.965  10.657
 3922TIP3    H133181   2.270   5.910  10.735
 3922TIP3    H233182   2.345   5.960  10.614
 3923TIP3   OH233183   3.510   6.062   1.958
 3923TIP3    H133184   3.534   6.151   1.984
 3923TIP3    H233185   3.515   6.011   2.039
 3924TIP3   OH233186   1.772   0.868   3.856
 3924TIP3    H133187   1.800   0.838   3.943
 3924TIP3    H233188   1.787   0.963   3.859
 3925TIP3   OH233189   4.018   1.163   2.713
 3925TIP3    H133190   3.940   1.114   2.741
 3925TIP3    H233191   4.071   1.099   2.666
 3926TIP3   OH233192   0.282   4.780   5.200
 3926TIP3    H133193   0.231   4.818   5.271
 3926TIP3    H233194   0.259   4.833   5.124
 3927TIP3   OH233195   6.564   3.380   5.841
 3927TIP3    H133196   6.481   3.337   5.820
 3927TIP3    H233197   6.590   3.342   5.925
 3928TIP3   OH233198   2.558   1.124  12.668
 3928TIP3    H133199   2.511   1.202  12.637
 3928TIP3    H233200   2.650   1.147  12.658
 3929TIP3   OH233201   6.117   5.574  16.591
 3929TIP3    H133202   6.103   5.540  16.679
 3929TIP3    H233203   6.165   5.656  16.604
 3930TIP3   OH233204   0.880   4.111  16.558
 3930TIP3    H133205   0.798   4.137  16.517
 3930TIP3    H233206   0.892   4.174  16.629
 3931TIP3   OH233207   6.126   5.555   0.916
 3931TIP3    H133208   6.075   5.495   0.861
 3931TIP3    H233209   6.210   5.511   0.928
 3932TIP3   OH233210   5.770   6.339   6.338
 3932TIP3    H133211   5.758   6.261   6.284
 3932TIP3    H233212   5.711   6.326   6.412
 3933TIP3   OH233213   3.529   3.158  10.866
 3933TIP3    H133214   3.617   3.157  10.904
 3933TIP3    H233215   3.502   3.067  10.865
 3934TIP3   OH233216   5.685   2.348  12.018
 3934TIP3    H133217   5.777   2.336  12.044
 3934TIP3    H233218   5.674   2.287  11.945
 3935TIP3   OH233219   4.114   2.316  15.050
 3935TIP3    H133220   4.190   2.373  15.059
 3935TIP3    H233221   4.111   2.295  14.956
 3936TIP3   OH233222   4.326   1.551   5.269
 3936TIP3    H133223   4.312   1.627   5.326
 3936TIP3    H233224   4.407   1.572   5.221
 3937TIP3   OH233225   4.858   0.517  12.810
 3937TIP3    H133226   4.866   0.596  12.863
 3937TIP3    H233227   4.764   0.500  12.805
 3938TIP3   OH233228   2.304   2.820  13.488
 3938TIP3    H133229   2.340   2.761  13.553
 3938TIP3    H233230   2.372   2.887  13.476
 3939TIP3   OH233231   3.155   1.006  12.951
 3939TIP3    H133232   3.084   1.033  12.893
 3939TIP3    H233233   3.166   1.079  13.011
 3940TIP3   OH233234   5.492   0.762  12.094
 3940TIP3    H133235   5.408   0.730  12.128
 3940TIP3    H233236   5.473   0.785  12.003
 3941TIP3   OH233237   2.413   2.472   0.697
 3941TIP3    H133238   2.378   2.386   0.676
 3941TIP3    H233239   2.494   2.455   0.745
 3942TIP3   OH233240   5.845   6.022  10.972
 3942TIP3    H133241   5.801   6.066  10.899
 3942TIP3    H233242   5.853   6.090  11.040
 3943TIP3   OH233243   3.264   3.580   6.137
 3943TIP3    H133244   3.335   3.642   6.122
 3943TIP3    H233245   3.184   3.631   6.123
 3944TIP3   OH233246   2.577   2.336   2.892
 3944TIP3    H133247   2.615   2.423   2.878
 3944TIP3    H233248   2.537   2.341   2.978
 3945TIP3   OH233249   3.175   0.046  14.021
 3945TIP3    H133250   3.222   0.129  14.023
 3945TIP3    H233251   3.244  -0.021  14.018
 3946TIP3   OH233252   3.409   5.143  12.008
 3946TIP3    H133253   3.446   5.189  11.932
 3946TIP3    H233254   3.477   5.079  12.032
 3947TIP3   OH233255   1.209   2.500  12.916
 3947TIP3    H133256   1.262   2.562  12.966
 3947TIP3    H233257   1.187   2.431  12.979
 3948TIP3   OH233258   2.525   6.196  16.963
 3948TIP3    H133259   2.528   6.168  16.871
 3948TIP3    H233260   2.460   6.267  16.964
 3949TIP3   OH233261   1.074   5.619  16.466
 3949TIP3    H133262   1.165   5.646  16.467
 3949TIP3    H233263   1.075   5.529  16.434
 3950TIP3   OH233264   1.806   2.029   5.896
 3950TIP3    H133265   1.822   2.063   5.984
 3950TIP3    H233266   1.712   2.011   5.893
 3951TIP3   OH233267   6.677   3.893   3.070
 3951TIP3    H133268   6.583   3.912   3.073
 3951TIP3    H233269   6.717   3.959   3.126
 3952TIP3   OH233270   0.850   4.823  15.823
 3952TIP3    H133271   0.800   4.877  15.762
 3952TIP3    H233272   0.884   4.885  15.888
 3953TIP3   OH233273   0.888   1.997   1.637
 3953TIP3    H133274   0.915   1.907   1.618
 3953TIP3    H233275   0.793   1.996   1.626
 3954TIP3   OH233276   3.382   0.128   4.993
 3954TIP3    H133277   3.364   0.050   5.044
 3954TIP3    H233278   3.382   0.199   5.057
 3955TIP3   OH233279   4.078   2.677  14.885
 3955TIP3    H133280   4.060   2.638  14.971
 3955TIP3    H233281   4.168   2.652  14.866
 3956TIP3   OH233282   4.084   4.879  11.090
 3956TIP3    H133283   3.999   4.880  11.135
 3956TIP3    H233284   4.087   4.794  11.047
 3957TIP3   OH233285   3.956   0.136   1.261
 3957TIP3    H133286   3.999   0.150   1.346
 3957TIP3    H233287   3.923   0.046   1.265
 3958TIP3   OH233288   0.116   2.962  13.063
 3958TIP3    H133289   0.126   2.912  13.144
 3958TIP3    H233290   0.023   2.987  13.062
 3959TIP3   OH233291   4.046   0.952   5.580
 3959TIP3    H133292   4.055   0.858   5.595
 3959TIP3    H233293   4.057   0.992   5.667
 3960TIP3   OH233294   1.230   5.235  12.962
 3960TIP3    H133295   1.151   5.191  12.932
 3960TIP3    H233296   1.249   5.197  13.048
 3961TIP3   OH233297   1.694   0.899   5.014
 3961TIP3    H133298   1.673   0.958   4.941
 3961TIP3    H233299   1.738   0.955   5.078
 3962TIP3   OH233300   5.667   2.736   4.710
 3962TIP3    H133301   5.728   2.764   4.779
 3962TIP3    H233302   5.601   2.805   4.706
 3963TIP3   OH233303   2.946   0.896  17.085
 3963TIP3    H133304   2.929   0.827  17.149
 3963TIP3    H233305   2.874   0.958  17.097
 3964TIP3   OH233306   5.624   3.125  13.644
 3964TIP3    H133307   5.553   3.187  13.659
 3964TIP3    H233308   5.592   3.043  13.681
 3965TIP3   OH233309   4.670   4.131  10.660
 3965TIP3    H133310   4.622   4.160  10.583
 3965TIP3    H233311   4.608   4.075  10.707
 3966TIP3   OH233312   4.087   3.782   1.104
 3966TIP3    H133313   4.002   3.781   1.148
 3966TIP3    H233314   4.149   3.808   1.172
 3967TIP3   OH233315   4.630   2.425   0.381
 3967TIP3    H133316   4.626   2.431   0.476
 3967TIP3    H233317   4.540   2.438   0.352
 3968TIP3   OH233318   0.366   2.794  12.440
 3968TIP3    H133319   0.405   2.857  12.500
 3968TIP3    H233320   0.323   2.729  12.497
 3969TIP3   OH233321   4.669   6.365   0.406
 3969TIP3    H133322   4.700   6.312   0.332
 3969TIP3    H233323   4.583   6.330   0.427
 3970TIP3   OH233324   5.189   6.116   3.498
 3970TIP3    H133325   5.218   6.070   3.577
 3970TIP3    H233326   5.103   6.152   3.521
 3971TIP3   OH233327   2.623   3.564  15.422
 3971TIP3    H133328   2.533   3.561  15.454
 3971TIP3    H233329   2.631   3.650  15.381
 3972TIP3   OH233330   4.162   5.331  17.198
 3972TIP3    H133331   4.211   5.325  17.116
 3972TIP3    H233332   4.115   5.414  17.192
 3973TIP3   OH233333   3.414   1.370  14.542
 3973TIP3    H133334   3.390   1.349  14.452
 3973TIP3    H233335   3.479   1.304  14.566
 3974TIP3   OH233336   1.842   6.327  12.870
 3974TIP3    H133337   1.827   6.321  12.965
 3974TIP3    H233338   1.937   6.338  12.862
 3975TIP3   OH233339   6.514   0.821  17.190
 3975TIP3    H133340   6.498   0.914  17.208
 3975TIP3    H233341   6.511   0.780  17.277
 3976TIP3   OH233342   3.180   1.430  12.193
 3976TIP3    H133343   3.258   1.467  12.153
 3976TIP3    H233344   3.152   1.496  12.256
 3977TIP3   OH233345   5.858   6.781  14.395
 3977TIP3    H133346   5.820   6.694  14.388
 3977TIP3    H233347   5.784   6.841  14.380
 3978TIP3   OH233348   2.656   4.129  15.488
 3978TIP3    H133349   2.633   4.168  15.572
 3978TIP3    H233350   2.735   4.079  15.506
 3979TIP3   OH233351   1.883   4.491   0.051
 3979TIP3    H133352   1.890   4.559   0.119
 3979TIP3    H233353   1.958   4.433   0.068
 3980TIP3   OH233354   5.286   4.803  12.868
 3980TIP3    H133355   5.219   4.852  12.820
 3980TIP3    H233356   5.327   4.869  12.924
 3981TIP3   OH233357   4.154   2.699   0.936
 3981TIP3    H133358   4.118   2.677   1.022
 3981TIP3    H233359   4.137   2.623   0.882
 3982TIP3   OH233360   2.309   5.237  12.434
 3982TIP3    H133361   2.342   5.324  12.411
 3982TIP3    H233362   2.229   5.228  12.382
 3983TIP3   OH233363   3.537   5.420   0.141
 3983TIP3    H133364   3.511   5.501   0.097
 3983TIP3    H233365   3.589   5.373   0.076
 3984TIP3   OH233366   3.333   4.447  14.306
 3984TIP3    H133367   3.305   4.469  14.395
 3984TIP3    H233368   3.365   4.529  14.270
 3985TIP3   OH233369   6.275   3.297   2.152
 3985TIP3    H133370   6.187   3.258   2.151
 3985TIP3    H233371   6.276   3.356   2.076
 3986TIP3   OH233372   4.229   5.435  15.386
 3986TIP3    H133373   4.141   5.466  15.368
 3986TIP3    H233374   4.229   5.343  15.360
 3987TIP3   OH233375   1.848   0.406   4.249
 3987TIP3    H133376   1.861   0.390   4.156
 3987TIP3    H233377   1.758   0.378   4.266
 3988TIP3   OH233378   6.536   2.916  14.698
 3988TIP3    H133379   6.495   2.915  14.785
 3988TIP3    H233380   6.529   3.007  14.670
 3989TIP3   OH233381   6.593   2.100   3.349
 3989TIP3    H133382   6.621   2.009   3.364
 3989TIP3    H233383   6.520   2.112   3.409
 3990TIP3   OH233384   5.292   4.560  14.734
 3990TIP3    H133385   5.309   4.545  14.641
 3990TIP3    H233386   5.203   4.596  14.736
 3991TIP3   OH233387   0.658   1.026   0.416
 3991TIP3    H133388   0.692   1.085   0.484
 3991TIP3    H233389   0.719   0.953   0.415
 3992TIP3   OH233390   2.338   4.668  13.586
 3992TIP3    H133391   2.353   4.608  13.659
 3992TIP3    H233392   2.265   4.629  13.537
 3993TIP3   OH233393   1.758   4.917  12.597
 3993TIP3    H133394   1.722   4.828  12.606
 3993TIP3    H233395   1.753   4.953  12.685
 3994TIP3   OH233396   2.184   4.329  12.244
 3994TIP3    H133397   2.246   4.373  12.187
 3994TIP3    H233398   2.098   4.364  12.218
 3995TIP3   OH233399   2.611   6.019  15.039
 3995TIP3    H133400   2.594   6.012  14.945
 3995TIP3    H233401   2.596   6.111  15.059
 3996TIP3   OH233402   3.474   1.469   2.251
 3996TIP3    H133403   3.427   1.530   2.194
 3996TIP3    H233404   3.428   1.385   2.240
 3997TIP3   OH233405   4.428   0.102   2.075
 3997TIP3    H133406   4.364   0.172   2.064
 3997TIP3    H233407   4.428   0.083   2.169
 3998TIP3   OH233408   4.128   2.702   5.092
 3998TIP3    H133409   4.181   2.755   5.151
 3998TIP3    H233410   4.192   2.660   5.033
 3999TIP3   OH233411   5.924   3.691  12.744
 3999TIP3    H133412   5.884   3.629  12.806
 3999TIP3    H233413   5.975   3.750  12.799
 4000TIP3   OH233414   5.315   5.402   1.457
 4000TIP3    H133415   5.332   5.334   1.521
 4000TIP3    H233416   5.343   5.365   1.373
 4001TIP3   OH233417   3.034   5.926  13.914
 4001TIP3    H133418   3.030   5.990  13.843
 4001TIP3    H233419   3.001   5.846  13.876
 4002TIP3   OH233420   0.007   0.819  13.437
 4002TIP3    H133421  -0.079   0.782  13.416
 4002TIP3    H233422   0.011   0.816  13.532
 4003TIP3   OH233423   3.099   6.127  15.019
 4003TIP3    H133424   3.022   6.151  15.070
 4003TIP3    H233425   3.161   6.198  15.035
 4004TIP3   OH233426   6.714   5.321  10.388
 4004TIP3    H133427   6.645   5.282  10.442
 4004TIP3    H233428   6.676   5.401  10.353
 4005TIP3   OH233429   1.672   1.773   1.502
 4005TIP3    H133430   1.604   1.717   1.539
 4005TIP3    H233431   1.743   1.714   1.480
 4006TIP3   OH233432   1.648   0.138  16.867
 4006TIP3    H133433   1.741   0.119  16.877
 4006TIP3    H233434   1.609   0.115  16.952
 4007TIP3   OH233435   2.305   6.007   2.901
 4007TIP3    H133436   2.212   5.996   2.922
 4007TIP3    H233437   2.307   6.086   2.846
 4008TIP3   OH233438   6.784   0.273   4.976
 4008TIP3    H133439   6.731   0.330   5.032
 4008TIP3    H233440   6.875   0.295   4.999
 4009TIP3   OH233441   6.055   2.455  16.392
 4009TIP3    H133442   6.087   2.367  16.416
 4009TIP3    H233443   6.114   2.484  16.323
 4010TIP3   OH233444   3.171   3.277   1.241
 4010TIP3    H133445   3.148   3.200   1.189
 4010TIP3    H233446   3.266   3.284   1.234
 4011TIP3   OH233447   3.210   0.311  11.059
 4011TIP3    H133448   3.212   0.266  11.143
 4011TIP3    H233449   3.302   0.316  11.033
 4012TIP3   OH233450   5.511   2.374  13.863
 4012TIP3    H133451   5.547   2.286  13.873
 4012TIP3    H233452   5.528   2.417  13.947
 4013TIP3   OH233453   0.318   1.333   4.379
 4013TIP3    H133454   0.242   1.390   4.396
 4013TIP3    H233455   0.286   1.245   4.401
 4014TIP3   OH233456   5.471   3.376  11.785
 4014TIP3    H133457   5.482   3.370  11.880
 4014TIP3    H233458   5.558   3.396  11.751
 4015TIP3   OH233459   1.100   0.376  15.884
 4015TIP3    H133460   1.161   0.375  15.958
 4015TIP3    H233461   1.023   0.422  15.918
 4016TIP3   OH233462   4.666   1.331  16.878
 4016TIP3    H133463   4.664   1.368  16.789
 4016TIP3    H233464   4.699   1.242  16.866
 4017TIP3   OH233465   5.889   5.110  12.589
 4017TIP3    H133466   5.951   5.042  12.616
 4017TIP3    H233467   5.925   5.144  12.507
 4018TIP3   OH233468   3.402   4.486   1.499
 4018TIP3    H133469   3.414   4.547   1.571
 4018TIP3    H233470   3.400   4.399   1.540
 4019TIP3   OH233471   6.113   3.753   3.767
 4019TIP3    H133472   6.109   3.820   3.835
 4019TIP3    H233473   6.187   3.698   3.792
 4020TIP3   OH233474   5.342   1.099   4.629
 4020TIP3    H133475   5.395   1.169   4.591
 4020TIP3    H233476   5.385   1.018   4.600
 4021TIP3   OH233477   4.944   4.125   2.964
 4021TIP3    H133478   4.960   4.052   3.024
 4021TIP3    H233479   4.996   4.103   2.886
 4022TIP3   OH233480   6.556   1.762  12.192
 4022TIP3    H133481   6.610   1.823  12.141
 4022TIP3    H233482   6.616   1.721  12.254
 4023TIP3   OH233483   4.757   0.868  11.257
 4023TIP3    H133484   4.801   0.944  11.219
 4023TIP3    H233485   4.708   0.903  11.332
 4024TIP3   OH233486   3.650   2.083  14.675
 4024TIP3    H133487   3.679   2.174  14.672
 4024TIP3    H233488   3.575   2.080  14.616
 4025TIP3   OH233489   0.474   6.768  15.308
 4025TIP3    H133490   0.525   6.687  15.312
 4025TIP3    H233491   0.397   6.749  15.361
 4026TIP3   OH233492   3.656   3.447   1.669
 4026TIP3    H133493   3.650   3.541   1.650
 4026TIP3    H233494   3.653   3.405   1.583
 4027TIP3   OH233495   3.989   3.026   4.180
 4027TIP3    H133496   4.079   3.054   4.164
 4027TIP3    H233497   3.965   2.978   4.101
 4028TIP3   OH233498   2.729   1.752   2.720
 4028TIP3    H133499   2.818   1.727   2.696
 4028TIP3    H233500   2.688   1.672   2.752
 4029TIP3   OH233501   6.674   4.529   3.583
 4029TIP3    H133502   6.715   4.482   3.510
 4029TIP3    H233503   6.609   4.585   3.541
 4030TIP3   OH233504   2.558   3.436   5.107
 4030TIP3    H133505   2.592   3.370   5.167
 4030TIP3    H233506   2.607   3.422   5.026
 4031TIP3   OH233507   4.887   2.098   2.934
 4031TIP3    H133508   4.838   2.053   3.003
 4031TIP3    H233509   4.823   2.112   2.864
 4032TIP3   OH233510   2.312   5.483   4.426
 4032TIP3    H133511   2.381   5.483   4.360
 4032TIP3    H233512   2.255   5.410   4.403
 4033TIP3   OH233513   1.779   1.617   2.217
 4033TIP3    H133514   1.799   1.594   2.308
 4033TIP3    H233515   1.820   1.703   2.205
 4034TIP3   OH233516   2.921   2.531  13.121
 4034TIP3    H133517   2.920   2.526  13.026
 4034TIP3    H233518   3.003   2.577  13.142
 4035TIP3   OH233519   3.156   6.387  11.535
 4035TIP3    H133520   3.190   6.419  11.618
 4035TIP3    H233521   3.147   6.292  11.547
 4036TIP3   OH233522   0.182   0.967  13.684
 4036TIP3    H133523   0.251   0.953  13.748
 4036TIP3    H233524   0.134   0.883  13.682
 4037TIP3   OH233525   4.994   4.141   3.624
 4037TIP3    H133526   5.056   4.068   3.620
 4037TIP3    H233527   4.917   4.104   3.668
 4038TIP3   OH233528   5.051   1.915   5.925
 4038TIP3    H133529   5.085   2.004   5.920
 4038TIP3    H233530   5.009   1.910   6.011
 4039TIP3   OH233531   5.296   0.692   0.876
 4039TIP3    H133532   5.314   0.785   0.889
 4039TIP3    H233533   5.360   0.664   0.811
 4040TIP3   OH233534   1.655   2.860   3.636
 4040TIP3    H133535   1.691   2.878   3.549
 4040TIP3    H233536   1.562   2.842   3.619
 4041TIP3   OH233537   3.169   6.433   4.435
 4041TIP3    H133538   3.082   6.400   4.412
 4041TIP3    H233539   3.173   6.425   4.531
 4042TIP3   OH233540   0.993   4.310   1.735
 4042TIP3    H133541   0.900   4.328   1.724
 4042TIP3    H233542   1.037   4.391   1.709
 4043TIP3   OH233543   5.715   4.995   1.486
 4043TIP3    H133544   5.769   4.978   1.409
 4043TIP3    H233545   5.714   4.912   1.534
 4044TIP3   OH233546   1.180   6.243   0.668
 4044TIP3    H133547   1.233   6.179   0.715
 4044TIP3    H233548   1.169   6.315   0.729
 4045TIP3   OH233549   6.481   1.533  15.345
 4045TIP3    H133550   6.575   1.522  15.352
 4045TIP3    H233551   6.445   1.444  15.347
 4046TIP3   OH233552   6.112   6.264   0.334
 4046TIP3    H133553   6.032   6.287   0.288
 4046TIP3    H233554   6.119   6.169   0.326
 4047TIP3   OH233555   3.470   0.944  14.635
 4047TIP3    H133556   3.491   0.890  14.711
 4047TIP3    H233557   3.412   0.889  14.582
 4048TIP3   OH233558   5.259   4.848  14.810
 4048TIP3    H133559   5.169   4.817  14.803
 4048TIP3    H233560   5.269   4.907  14.735
 4049TIP3   OH233561   1.762   6.454   0.344
 4049TIP3    H133562   1.672   6.452   0.312
 4049TIP3    H233563   1.767   6.379   0.405
 4050TIP3   OH233564   0.162   0.128   4.327
 4050TIP3    H133565   0.070   0.146   4.345
 4050TIP3    H233566   0.160   0.053   4.268
 4051TIP3   OH233567   1.882   0.509  13.686
 4051TIP3    H133568   1.910   0.563  13.759
 4051TIP3    H233569   1.824   0.565  13.635
 4052TIP3   OH233570   0.920   3.320  16.447
 4052TIP3    H133571   0.858   3.381  16.488
 4052TIP3    H233572   0.869   3.240  16.432
 4053TIP3   OH233573   3.497   1.317  15.764
 4053TIP3    H133574   3.559   1.330  15.692
 4053TIP3    H233575   3.540   1.255  15.822
 4054TIP3   OH233576   1.921   4.677  16.772
 4054TIP3    H133577   1.838   4.725  16.776
 4054TIP3    H233578   1.927   4.633  16.857
 4055TIP3   OH233579   5.950   6.134   5.740
 4055TIP3    H133580   5.954   6.172   5.828
 4055TIP3    H233581   6.028   6.169   5.695
 4056TIP3   OH233582   1.371   6.241   2.325
 4056TIP3    H133583   1.316   6.300   2.378
 4056TIP3    H233584   1.313   6.167   2.304
 4057TIP3   OH233585   1.174   2.224   1.204
 4057TIP3    H133586   1.114   2.289   1.241
 4057TIP3    H233587   1.167   2.237   1.110
 4058TIP3   OH233588   2.019   2.725   2.106
 4058TIP3    H133589   1.998   2.752   2.017
 4058TIP3    H233590   1.974   2.788   2.162
 4059TIP3   OH233591   0.970   3.660  10.950
 4059TIP3    H133592   1.055   3.617  10.948
 4059TIP3    H233593   0.930   3.639  10.866
 4060TIP3   OH233594   5.965   0.639  14.985
 4060TIP3    H133595   6.030   0.585  14.940
 4060TIP3    H233596   6.000   0.650  15.074
 4061TIP3   OH233597   3.513   5.025  16.711
 4061TIP3    H133598   3.505   4.933  16.685
 4061TIP3    H233599   3.594   5.054  16.668
 4062TIP3   OH233600   6.058   3.330   6.115
 4062TIP3    H133601   6.064   3.369   6.028
 4062TIP3    H233602   5.965   3.311   6.126
 4063TIP3   OH233603   2.320   5.923   3.875
 4063TIP3    H133604   2.392   5.862   3.862
 4063TIP3    H233605   2.314   5.971   3.792
 4064TIP3   OH233606   3.836   4.133  16.357
 4064TIP3    H133607   3.761   4.074  16.358
 4064TIP3    H233608   3.883   4.111  16.276
 4065TIP3   OH233609   3.191   2.366  12.899
 4065TIP3    H133610   3.199   2.277  12.935
 4065TIP3    H233611   3.231   2.422  12.965
 4066TIP3   OH233612   2.347   1.690   0.956
 4066TIP3    H133613   2.442   1.681   0.956
 4066TIP3    H233614   2.314   1.602   0.941
 4067TIP3   OH233615   4.642   2.278   5.988
 4067TIP3    H133616   4.599   2.340   6.048
 4067TIP3    H233617   4.711   2.237   6.040
 4068TIP3   OH233618   3.388   5.210  15.760
 4068TIP3    H133619   3.370   5.269  15.687
 4068TIP3    H233620   3.483   5.194  15.755
 4069TIP3   OH233621   0.633   6.518  16.984
 4069TIP3    H133622   0.546   6.499  17.018
 4069TIP3    H233623   0.691   6.461  17.035
 4070TIP3   OH233624   2.485   1.888  11.401
 4070TIP3    H133625   2.553   1.895  11.333
 4070TIP3    H233626   2.453   1.798  11.395
 4071TIP3   OH233627   3.852   5.128   0.473
 4071TIP3    H133628   3.872   5.076   0.396
 4071TIP3    H233629   3.788   5.193   0.443
 4072TIP3   OH233630   3.230   4.587   5.404
 4072TIP3    H133631   3.216   4.602   5.497
 4072TIP3    H233632   3.319   4.554   5.398
 4073TIP3   OH233633   1.479   6.730   2.445
 4073TIP3    H133634   1.476   6.710   2.538
 4073TIP3    H233635   1.406   6.680   2.408
 4074TIP3   OH233636   1.103   3.546   2.009
 4074TIP3    H133637   1.034   3.519   1.950
 4074TIP3    H233638   1.132   3.465   2.051
 4075TIP3   OH233639   6.164   1.380   1.734
 4075TIP3    H133640   6.230   1.420   1.791
 4075TIP3    H233641   6.209   1.305   1.694
 4076TIP3   OH233642   0.533   2.278   3.201
 4076TIP3    H133643   0.522   2.333   3.123
 4076TIP3    H233644   0.505   2.190   3.173
 4077TIP3   OH233645   5.005   0.152  12.488
 4077TIP3    H133646   5.100   0.141  12.485
 4077TIP3    H233647   4.971   0.094  12.420
 4078TIP3   OH233648   3.833   6.361   0.775
 4078TIP3    H133649   3.924   6.392   0.772
 4078TIP3    H233650   3.781   6.440   0.786
 4079TIP3   OH233651   2.840   6.617  14.931
 4079TIP3    H133652   2.864   6.552  14.865
 4079TIP3    H233653   2.744   6.620  14.927
 4080TIP3   OH233654   6.595   6.783  13.323
 4080TIP3    H133655   6.591   6.719  13.252
 4080TIP3    H233656   6.669   6.840  13.300
 4081TIP3   OH233657   5.471   4.630  12.735
 4081TIP3    H133658   5.395   4.671  12.777
 4081TIP3    H233659   5.468   4.660  12.645
 4082TIP3   OH233660   5.357   0.484   0.405
 4082TIP3    H133661   5.279   0.480   0.460
 4082TIP3    H233662   5.355   0.571   0.365
 4083TIP3   OH233663   6.484   0.569   0.787
 4083TIP3    H133664   6.518   0.593   0.873
 4083TIP3    H233665   6.551   0.600   0.726
 4084TIP3   OH233666   1.577   5.354  16.310
 4084TIP3    H133667   1.654   5.346  16.253
 4084TIP3    H233668   1.610   5.400  16.387
 4085TIP3   OH233669   0.153   6.044  12.757
 4085TIP3    H133670   0.066   6.012  12.782
 4085TIP3    H233671   0.204   6.041  12.838
 4086TIP3   OH233672   6.574   3.359  15.941
 4086TIP3    H133673   6.521   3.345  16.020
 4086TIP3    H233674   6.511   3.351  15.869
 4087TIP3   OH233675   6.584   5.905   1.202
 4087TIP3    H133676   6.490   5.886   1.202
 4087TIP3    H233677   6.610   5.898   1.110
 4088TIP3   OH233678   2.100   5.811   3.621
 4088TIP3    H133679   2.085   5.758   3.699
 4088TIP3    H233680   2.054   5.893   3.638
 4089TIP3   OH233681   4.836   0.305  12.989
 4089TIP3    H133682   4.846   0.372  12.922
 4089TIP3    H233683   4.742   0.304  13.009
 4090TIP3   OH233684   6.120   1.968   0.837
 4090TIP3    H133685   6.127   1.944   0.744
 4090TIP3    H233686   6.187   1.916   0.880
 4091TIP3   OH233687   3.676   6.402   4.277
 4091TIP3    H133688   3.735   6.397   4.352
 4091TIP3    H233689   3.588   6.400   4.314
 4092TIP3   OH233690   2.108   6.777   1.512
 4092TIP3    H133691   2.199   6.790   1.540
 4092TIP3    H233692   2.098   6.682   1.508
 4093TIP3   OH233693   2.039   2.717  16.975
 4093TIP3    H133694   2.076   2.732  16.888
 4093TIP3    H233695   2.110   2.738  17.035
 4094TIP3   OH233696   2.053   3.258  12.629
 4094TIP3    H133697   2.064   3.197  12.702
 4094TIP3    H233698   2.032   3.341  12.670
 4095TIP3   OH233699   4.805   1.534   5.005
 4095TIP3    H133700   4.875   1.500   4.950
 4095TIP3    H233701   4.850   1.591   5.068
 4096TIP3   OH233702   3.419   2.847   2.520
 4096TIP3    H133703   3.350   2.914   2.520
 4096TIP3    H233704   3.498   2.895   2.494
 4097TIP3   OH233705   3.850   1.286   1.378
 4097TIP3    H133706   3.940   1.255   1.386
 4097TIP3    H233707   3.853   1.349   1.305
 4098TIP3   OH233708   4.169   6.631   4.728
 4098TIP3    H133709   4.218   6.709   4.754
 4098TIP3    H233710   4.212   6.560   4.776
 4099TIP3   OH233711   4.245   0.094   5.472
 4099TIP3    H133712   4.226   0.003   5.496
 4099TIP3    H233713   4.197   0.108   5.390
 4100TIP3   OH233714   1.004   0.350   1.803
 4100TIP3    H133715   1.035   0.281   1.744
 4100TIP3    H233716   0.916   0.322   1.829
 4101TIP3   OH233717   0.086   5.842  15.528
 4101TIP3    H133718   0.167   5.804  15.563
 4101TIP3    H233719   0.021   5.824  15.595
 4102TIP3   OH233720   1.358   1.740  15.233
 4102TIP3    H133721   1.366   1.683  15.310
 4102TIP3    H233722   1.447   1.774  15.219
 4103TIP3   OH233723   5.270   3.121   4.457
 4103TIP3    H133724   5.228   3.092   4.538
 4103TIP3    H233725   5.209   3.097   4.388
 4104TIP3   OH233726   4.245   4.885   5.157
 4104TIP3    H133727   4.329   4.915   5.123
 4104TIP3    H233728   4.248   4.789   5.148
 4105TIP3   OH233729   1.264   5.561   4.009
 4105TIP3    H133730   1.239   5.648   4.039
 4105TIP3    H233731   1.332   5.578   3.943
 4106TIP3   OH233732   2.167   4.295   1.745
 4106TIP3    H133733   2.074   4.275   1.731
 4106TIP3    H233734   2.167   4.378   1.793
 4107TIP3   OH233735   6.514   1.686   4.245
 4107TIP3    H133736   6.460   1.703   4.168
 4107TIP3    H233737   6.596   1.652   4.211
 4108TIP3   OH233738   3.165   4.658  13.011
 4108TIP3    H133739   3.237   4.668  13.073
 4108TIP3    H233740   3.207   4.623  12.932
 4109TIP3   OH233741   1.590   4.968  15.598
 4109TIP3    H133742   1.572   4.896  15.659
 4109TIP3    H233743   1.684   4.986  15.611
 4110TIP3   OH233744   5.299   6.704   0.026
 4110TIP3    H133745   5.223   6.712   0.083
 4110TIP3    H233746   5.298   6.613  -0.002
 4111TIP3   OH233747   3.730   4.775   5.698
 4111TIP3    H133748   3.751   4.838   5.767
 4111TIP3    H233749   3.639   4.750   5.716
 4112TIP3   OH233750   4.535   0.802  13.160
 4112TIP3    H133751   4.617   0.821  13.207
 4112TIP3    H233752   4.481   0.880  13.174
 4113TIP3   OH233753   4.357   2.860   0.885
 4113TIP3    H133754   4.279   2.805   0.882
 4113TIP3    H233755   4.378   2.878   0.793
 4114TIP3   OH233756   2.287   4.965   5.864
 4114TIP3    H133757   2.265   4.935   5.952
 4114TIP3    H233758   2.317   5.055   5.876
 4115TIP3   OH233759   2.002   5.379  15.279
 4115TIP3    H133760   2.006   5.352  15.371
 4115TIP3    H233761   1.962   5.466  15.282
 4116TIP3   OH233762   0.813   3.295   5.052
 4116TIP3    H133763   0.889   3.352   5.068
 4116TIP3    H233764   0.849   3.222   5.002
 4117TIP3   OH233765   1.359   0.897   0.524
 4117TIP3    H133766   1.342   0.912   0.617
 4117TIP3    H233767   1.451   0.872   0.520
 4118TIP3   OH233768   4.827   1.154  11.912
 4118TIP3    H133769   4.920   1.142  11.892
 4118TIP3    H233770   4.796   1.214  11.844
 4119TIP3   OH233771   0.943   5.481  15.223
 4119TIP3    H133772   1.036   5.463  15.206
 4119TIP3    H233773   0.936   5.488  15.318
 4120TIP3   OH233774   5.815   2.931   4.352
 4120TIP3    H133775   5.733   2.937   4.304
 4120TIP3    H233776   5.811   3.002   4.416
 4121TIP3   OH233777   1.491   1.443   2.202
 4121TIP3    H133778   1.478   1.445   2.107
 4121TIP3    H233779   1.405   1.419   2.237
 4122TIP3   OH233780   4.935   6.116   3.613
 4122TIP3    H133781   4.912   6.023   3.614
 4122TIP3    H233782   4.980   6.130   3.697
 4123TIP3   OH233783   2.203   3.660   2.431
 4123TIP3    H133784   2.122   3.690   2.473
 4123TIP3    H233785   2.208   3.712   2.350
 4124TIP3   OH233786   2.207   2.453  13.964
 4124TIP3    H133787   2.208   2.357  13.963
 4124TIP3    H233788   2.279   2.477  14.023
 4125TIP3   OH233789   1.520   3.953  11.705
 4125TIP3    H133790   1.556   3.981  11.621
 4125TIP3    H233791   1.591   3.967  11.768
 4126TIP3   OH233792   3.758   4.799  13.233
 4126TIP3    H133793   3.700   4.807  13.157
 4126TIP3    H233794   3.846   4.799  13.194
 4127TIP3   OH233795   5.185   2.101  15.403
 4127TIP3    H133796   5.190   2.161  15.328
 4127TIP3    H233797   5.126   2.032  15.375
 4128TIP3   OH233798   4.361   3.208   3.870
 4128TIP3    H133799   4.373   3.172   3.782
 4128TIP3    H233800   4.412   3.150   3.926
 4129TIP3   OH233801   2.809   2.344   5.155
 4129TIP3    H133802   2.887   2.311   5.111
 4129TIP3    H233803   2.739   2.336   5.091
 4130TIP3   OH233804   3.957   6.251  11.505
 4130TIP3    H133805   3.878   6.205  11.532
 4130TIP3    H233806   4.018   6.182  11.481
 4131TIP3   OH233807   5.907   0.018   4.794
 4131TIP3    H133808   5.957  -0.009   4.717
 4131TIP3    H233809   5.861  -0.061   4.821
 4132TIP3   OH233810   1.746   2.017  16.501
 4132TIP3    H133811   1.746   1.972  16.416
 4132TIP3    H233812   1.654   2.014  16.529
 4133TIP3   OH233813   5.436   5.613   3.537
 4133TIP3    H133814   5.494   5.618   3.461
 4133TIP3    H233815   5.437   5.701   3.574
 4134TIP3   OH233816   3.045   1.955  16.363
 4134TIP3    H133817   3.082   1.867  16.357
 4134TIP3    H233818   3.085   2.003  16.290
 4135TIP3   OH233819   1.665   4.893  17.050
 4135TIP3    H133820   1.743   4.944  17.072
 4135TIP3    H233821   1.656   4.829  17.120
 4136TIP3   OH233822   4.143   4.244  14.888
 4136TIP3    H133823   4.179   4.254  14.800
 4136TIP3    H233824   4.215   4.206  14.939
 4137TIP3   OH233825   3.687   4.623   1.841
 4137TIP3    H133826   3.621   4.679   1.880
 4137TIP3    H233827   3.769   4.673   1.847
 4138TIP3   OH233828   0.901   1.648  16.626
 4138TIP3    H133829   0.886   1.742  16.633
 4138TIP3    H233830   0.930   1.635  16.535
 4139TIP3   OH233831   2.992   2.997  15.753
 4139TIP3    H133832   3.000   2.905  15.730
 4139TIP3    H233833   3.032   3.043  15.680
 4140TIP3   OH233834   3.218   4.970  15.776
 4140TIP3    H133835   3.302   5.016  15.781
 4140TIP3    H233836   3.152   5.040  15.778
 4141TIP3   OH233837   2.896   0.272  17.154
 4141TIP3    H133838   2.883   0.243  17.245
 4141TIP3    H233839   2.950   0.350  17.161
 4142TIP3   OH233840   0.692   0.991   2.739
 4142TIP3    H133841   0.639   1.058   2.782
 4142TIP3    H233842   0.656   0.987   2.650
 4143TIP3   OH233843   5.308   2.137   3.435
 4143TIP3    H133844   5.337   2.145   3.344
 4143TIP3    H233845   5.387   2.113   3.483
 4144TIP3   OH233846   2.330   2.020  16.662
 4144TIP3    H133847   2.307   2.073  16.738
 4144TIP3    H233848   2.399   1.962  16.693
 4145TIP3   OH233849   2.569   6.167  11.039
 4145TIP3    H133850   2.579   6.200  10.950
 4145TIP3    H233851   2.479   6.188  11.063
 4146TIP3   OH233852   4.452   0.820   1.219
 4146TIP3    H133853   4.386   0.766   1.263
 4146TIP3    H233854   4.533   0.770   1.228
 4147TIP3   OH233855   5.488   3.425   0.404
 4147TIP3    H133856   5.568   3.389   0.366
 4147TIP3    H233857   5.498   3.519   0.396
 4148TIP3   OH233858   3.196   6.688  14.873
 4148TIP3    H133859   3.109   6.728  14.886
 4148TIP3    H233860   3.257   6.761  14.881
 4149TIP3   OH233861   3.500   5.027   5.687
 4149TIP3    H133862   3.571   5.059   5.632
 4149TIP3    H233863   3.522   5.058   5.775
 4150TIP3   OH233864   2.712   0.584  12.779
 4150TIP3    H133865   2.785   0.645  12.768
 4150TIP3    H233866   2.693   0.554  12.690
 4151TIP3   OH233867   0.850   2.654   1.228
 4151TIP3    H133868   0.859   2.696   1.313
 4151TIP3    H233869   0.756   2.639   1.218
 4152TIP3   OH233870   2.718   2.468  12.018
 4152TIP3    H133871   2.674   2.541  11.974
 4152TIP3    H233872   2.811   2.482  11.999
 4153TIP3   OH233873   0.008   5.684  11.125
 4153TIP3    H133874   0.068   5.666  11.197
 4153TIP3    H233875   0.034   5.771  11.093
 4154TIP3   OH233876   4.611   1.629  16.944
 4154TIP3    H133877   4.606   1.537  16.916
 4154TIP3    H233878   4.693   1.660  16.908
 4155TIP3   OH233879   5.099   5.640  16.100
 4155TIP3    H133880   5.008   5.647  16.129
 4155TIP3    H233881   5.144   5.713  16.141
 4156TIP3   OH233882   4.177   5.250   3.171
 4156TIP3    H133883   4.097   5.207   3.201
 4156TIP3    H233884   4.149   5.305   3.098
 4157TIP3   OH233885   2.304   5.077   3.167
 4157TIP3    H133886   2.219   5.106   3.200
 4157TIP3    H233887   2.296   5.082   3.072
 4158TIP3   OH233888   4.990   3.101   2.629
 4158TIP3    H133889   5.037   3.097   2.547
 4158TIP3    H233890   4.910   3.050   2.613
 4159TIP3   OH233891   5.558   5.643  11.690
 4159TIP3    H133892   5.469   5.656  11.657
 4159TIP3    H233893   5.576   5.550  11.675
 4160TIP3   OH233894   5.646   5.946   5.306
 4160TIP3    H133895   5.653   5.882   5.377
 4160TIP3    H233896   5.561   5.929   5.266
 4161TIP3   OH233897   1.758   6.377  16.125
 4161TIP3    H133898   1.674   6.408  16.092
 4161TIP3    H233899   1.807   6.352  16.047
 4162TIP3   OH233900   4.689   1.060   0.056
 4162TIP3    H133901   4.735   1.081  -0.025
 4162TIP3    H233902   4.731   1.115   0.122
 4163TIP3   OH233903   5.277   3.973   5.251
 4163TIP3    H133904   5.196   4.024   5.257
 4163TIP3    H233905   5.346   4.037   5.264
 4164TIP3   OH233906   0.139   5.931   5.127
 4164TIP3    H133907   0.058   5.915   5.077
 4164TIP3    H233908   0.195   5.857   5.107
 4165TIP3   OH233909   5.462   3.131  16.021
 4165TIP3    H133910   5.428   3.221  16.027
 4165TIP3    H233911   5.536   3.130  16.081
 4166TIP3   OH233912   3.433   0.673  13.209
 4166TIP3    H133913   3.447   0.603  13.273
 4166TIP3    H233914   3.426   0.753  13.261
 4167TIP3   OH233915   0.472   1.405   5.273
 4167TIP3    H133916   0.543   1.349   5.301
 4167TIP3    H233917   0.394   1.370   5.317
 4168TIP3   OH233918   1.124   5.394  16.139
 4168TIP3    H133919   1.084   5.366  16.221
 4168TIP3    H233920   1.203   5.341  16.132
 4169TIP3   OH233921   6.588   4.043   1.184
 4169TIP3    H133922   6.646   4.097   1.131
 4169TIP3    H233923   6.539   4.106   1.238
 4170TIP3   OH233924   6.419   0.496   1.621
 4170TIP3    H133925   6.326   0.500   1.642
 4170TIP3    H233926   6.426   0.540   1.537
 4171TIP3   OH233927   3.464   4.850   3.300
 4171TIP3    H133928   3.421   4.766   3.284
 4171TIP3    H233929   3.546   4.827   3.345
 4172TIP3   OH233930   4.185   4.431   6.082
 4172TIP3    H133931   4.254   4.486   6.044
 4172TIP3    H233932   4.186   4.351   6.029
 4173TIP3   OH233933   2.876   4.019   4.262
 4173TIP3    H133934   2.836   4.101   4.231
 4173TIP3    H233935   2.933   3.993   4.190
 4174TIP3   OH233936   2.006   0.626  16.475
 4174TIP3    H133937   1.997   0.682  16.398
 4174TIP3    H233938   2.070   0.670  16.530
 4175TIP3   OH233939   2.993   6.751   5.769
 4175TIP3    H133940   3.022   6.806   5.842
 4175TIP3    H233941   3.045   6.781   5.694
 4176TIP3   OH233942   6.400   4.657   1.790
 4176TIP3    H133943   6.395   4.577   1.737
 4176TIP3    H233944   6.355   4.635   1.871
 4177TIP3   OH233945   1.695   6.095  15.979
 4177TIP3    H133946   1.701   6.151  16.056
 4177TIP3    H233947   1.629   6.029  16.002
 4178TIP3   OH233948   0.136   2.431   5.772
 4178TIP3    H133949   0.157   2.366   5.839
 4178TIP3    H233950   0.067   2.485   5.810
 4179TIP3   OH233951   5.938   1.073  12.638
 4179TIP3    H133952   5.844   1.077  12.619
 4179TIP3    H233953   5.961   1.164  12.661
 4180TIP3   OH233954   4.351   3.168   6.223
 4180TIP3    H133955   4.305   3.098   6.177
 4180TIP3    H233956   4.422   3.124   6.269
 4181TIP3   OH233957   3.609   5.684  10.807
 4181TIP3    H133958   3.539   5.645  10.860
 4181TIP3    H233959   3.601   5.640  10.722
 4182TIP3   OH233960   3.269   6.090  16.543
 4182TIP3    H133961   3.205   6.148  16.502
 4182TIP3    H233962   3.308   6.042  16.470
 4183TIP3   OH233963   0.284   3.097  13.277
 4183TIP3    H133964   0.316   3.172  13.326
 4183TIP3    H233965   0.248   3.038  13.343
 4184TIP3   OH233966   3.379   5.020   1.187
 4184TIP3    H133967   3.467   4.986   1.203
 4184TIP3    H233968   3.338   5.018   1.274
 4185TIP3   OH233969   4.390   3.589   2.655
 4185TIP3    H133970   4.472   3.541   2.645
 4185TIP3    H233971   4.399   3.634   2.739
 4186TIP3   OH233972   4.725   1.986   0.751
 4186TIP3    H133973   4.818   2.000   0.732
 4186TIP3    H233974   4.688   1.958   0.668
 4187TIP3   OH233975   2.930   1.577  17.097
 4187TIP3    H133976   2.980   1.593  17.177
 4187TIP3    H233977   2.842   1.556  17.129
 4188TIP3   OH233978   6.255   6.463  13.522
 4188TIP3    H133979   6.220   6.386  13.567
 4188TIP3    H233980   6.349   6.458  13.533
 4189TIP3   OH233981   0.798   0.874   6.314
 4189TIP3    H133982   0.889   0.899   6.297
 4189TIP3    H233983   0.804   0.787   6.354
 4190TIP3   OH233984   0.143   0.458   6.224
 4190TIP3    H133985   0.183   0.428   6.306
 4190TIP3    H233986   0.127   0.551   6.238
 4191TIP3   OH233987   5.319   1.557  16.099
 4191TIP3    H133988   5.294   1.469  16.072
 4191TIP3    H233989   5.269   1.573  16.179
 4192TIP3   OH233990   6.371   3.622   3.862
 4192TIP3    H133991   6.404   3.637   3.773
 4192TIP3    H233992   6.449   3.618   3.916
 4193TIP3   OH233993   3.602   4.844  12.706
 4193TIP3    H133994   3.543   4.886  12.768
 4193TIP3    H233995   3.591   4.894  12.625
 4194TIP3   OH233996   3.128   5.508  12.246
 4194TIP3    H133997   3.115   5.512  12.151
 4194TIP3    H233998   3.070   5.438  12.275
 4195TIP3   OH233999   1.972   4.404   0.739
 4195TIP3    H134000   1.888   4.359   0.749
 4195TIP3    H234001   2.037   4.334   0.734
 4196TIP3   OH234002   4.159   3.363   5.265
 4196TIP3    H134003   4.146   3.277   5.226
 4196TIP3    H234004   4.189   3.345   5.354
 4197TIP3   OH234005   1.070   4.611  15.487
 4197TIP3    H134006   0.997   4.669  15.465
 4197TIP3    H234007   1.117   4.600  15.404
 4198TIP3   OH234008   6.161   3.450   3.952
 4198TIP3    H134009   6.078   3.471   3.909
 4198TIP3    H234010   6.224   3.512   3.915
 4199TIP3   OH234011   6.768   0.864  16.221
 4199TIP3    H134012   6.813   0.861  16.137
 4199TIP3    H234013   6.758   0.958  16.239
 4200TIP3   OH234014   1.064   5.822  16.669
 4200TIP3    H134015   1.091   5.752  16.610
 4200TIP3    H234016   1.078   5.902  16.619
 4201TIP3   OH234017   4.904   2.862  11.181
 4201TIP3    H134018   4.948   2.839  11.099
 4201TIP3    H234019   4.826   2.806  11.183
 4202TIP3   OH234020   0.911   4.653   2.987
 4202TIP3    H134021   0.948   4.567   2.966
 4202TIP3    H234022   0.830   4.634   3.034
 4203TIP3   OH234023   1.063   3.776   4.437
 4203TIP3    H134024   1.156   3.774   4.415
 4203TIP3    H234025   1.060   3.817   4.524
 4204TIP3   OH234026   6.521   2.792   0.168
 4204TIP3    H134027   6.546   2.873   0.123
 4204TIP3    H234028   6.435   2.771   0.133
 4205TIP3   OH234029   3.956   1.658   5.243
 4205TIP3    H134030   3.882   1.625   5.293
 4205TIP3    H234031   4.031   1.647   5.302
 4206TIP3   OH234032   2.088   3.121  14.768
 4206TIP3    H134033   2.029   3.182  14.724
 4206TIP3    H234034   2.031   3.049  14.796
 4207TIP3   OH234035   5.846   2.235  14.774
 4207TIP3    H134036   5.872   2.278  14.855
 4207TIP3    H234037   5.757   2.267  14.756
 4208TIP3   OH234038   2.743   4.957  15.530
 4208TIP3    H134039   2.681   5.010  15.580
 4208TIP3    H234040   2.690   4.888  15.490
 4209TIP3   OH234041   5.229   3.984   3.218
 4209TIP3    H134042   5.273   4.068   3.233
 4209TIP3    H234043   5.274   3.947   3.142
 4210TIP3   OH234044   3.360   3.652   2.073
 4210TIP3    H134045   3.371   3.592   2.000
 4210TIP3    H234046   3.279   3.699   2.055
 4211TIP3   OH234047   6.543   6.137  12.602
 4211TIP3    H134048   6.587   6.201  12.657
 4211TIP3    H234049   6.464   6.114  12.650
 4212TIP3   OH234050   3.441   5.290   4.753
 4212TIP3    H134051   3.444   5.243   4.670
 4212TIP3    H234052   3.392   5.233   4.811
 4213TIP3   OH234053   5.351   2.645   1.586
 4213TIP3    H134054   5.261   2.651   1.556
 4213TIP3    H234055   5.374   2.734   1.613
 4214TIP3   OH234056   6.187   6.751  16.765
 4214TIP3    H134057   6.232   6.780  16.685
 4214TIP3    H234058   6.229   6.668  16.787
 4215TIP3   OH234059   6.318   4.587  12.124
 4215TIP3    H134060   6.382   4.622  12.185
 4215TIP3    H234061   6.359   4.597  12.038
 4216TIP3   OH234062   5.655   1.011   3.576
 4216TIP3    H134063   5.695   1.091   3.613
 4216TIP3    H234064   5.716   0.941   3.601
 4217TIP3   OH234065   1.429   4.773   1.635
 4217TIP3    H134066   1.513   4.727   1.623
 4217TIP3    H234067   1.453   4.865   1.641
 4218TIP3   OH234068   0.141   0.557  16.647
 4218TIP3    H134069   0.093   0.546  16.729
 4218TIP3    H234070   0.111   0.641  16.613
 4219TIP3   OH234071   5.379   2.456   4.172
 4219TIP3    H134072   5.430   2.536   4.186
 4219TIP3    H234073   5.433   2.387   4.212
 4220TIP3   OH234074   6.250   5.513   2.109
 4220TIP3    H134075   6.282   5.444   2.051
 4220TIP3    H234076   6.257   5.476   2.197
 4221TIP3   OH234077   6.236   2.269  12.789
 4221TIP3    H134078   6.155   2.269  12.840
 4221TIP3    H234079   6.294   2.330  12.836
 4222TIP3   OH234080   5.754   6.699  12.184
 4222TIP3    H134081   5.777   6.762  12.252
 4222TIP3    H234082   5.776   6.614  12.221
 4223TIP3   OH234083   0.517   3.617  13.718
 4223TIP3    H134084   0.426   3.612  13.687
 4223TIP3    H234085   0.539   3.710  13.710
 4224TIP3   OH234086   0.321   3.657  14.216
 4224TIP3    H134087   0.227   3.640  14.211
 4224TIP3    H234088   0.349   3.611  14.296
 4225TIP3   OH234089   0.678   5.727   4.857
 4225TIP3    H134090   0.746   5.794   4.859
 4225TIP3    H234091   0.690   5.683   4.772
 4226TIP3   OH234092   2.354   6.387   1.511
 4226TIP3    H134093   2.365   6.470   1.555
 4226TIP3    H234094   2.336   6.324   1.581
 4227TIP3   OH234095   2.317   4.026   4.513
 4227TIP3    H134096   2.374   4.008   4.438
 4227TIP3    H234097   2.300   4.120   4.508
 4228TIP3   OH234098   0.628   3.290  15.132
 4228TIP3    H134099   0.610   3.270  15.224
 4228TIP3    H234100   0.546   3.274  15.087
 4229TIP3   OH234101   1.028   1.629   0.478
 4229TIP3    H134102   1.043   1.559   0.542
 4229TIP3    H234103   0.990   1.584   0.402
 4230TIP3   OH234104   1.241   3.334  14.406
 4230TIP3    H134105   1.220   3.320  14.499
 4230TIP3    H234106   1.265   3.247  14.375
 4231TIP3   OH234107   1.073   5.177  15.910
 4231TIP3    H134108   1.162   5.210  15.923
 4231TIP3    H234109   1.079   5.126  15.829
 4232TIP3   OH234110   1.584   2.046   2.159
 4232TIP3    H134111   1.592   1.959   2.197
 4232TIP3    H234112   1.537   2.097   2.224
 4233TIP3   OH234113   1.768   3.915  13.222
 4233TIP3    H134114   1.852   3.897  13.180
 4233TIP3    H234115   1.779   3.882  13.311
 4234TIP3   OH234116   5.963   0.768  16.811
 4234TIP3    H134117   6.027   0.813  16.757
 4234TIP3    H234118   6.015   0.715  16.872
 4235TIP3   OH234119   3.392   4.007  15.608
 4235TIP3    H134120   3.426   3.918  15.611
 4235TIP3    H234121   3.319   4.007  15.670
 4236TIP3   OH234122   6.707   3.347  15.050
 4236TIP3    H134123   6.756   3.273  15.086
 4236TIP3    H234124   6.775   3.409  15.022
 4237TIP3   OH234125   6.167   6.733  13.895
 4237TIP3    H134126   6.161   6.697  13.807
 4237TIP3    H234127   6.111   6.811  13.893
 4238TIP3   OH234128   1.368   4.413   0.105
 4238TIP3    H134129   1.461   4.433   0.095
 4238TIP3    H234130   1.367   4.324   0.142
 4239TIP3   OH234131   3.800   2.341   1.527
 4239TIP3    H134132   3.878   2.300   1.490
 4239TIP3    H234133   3.736   2.339   1.455
 4240TIP3   OH234134   1.461   1.142   3.605
 4240TIP3    H134135   1.527   1.198   3.647
 4240TIP3    H234136   1.425   1.196   3.535
 4241TIP3   OH234137   3.211   6.678   3.892
 4241TIP3    H134138   3.201   6.771   3.916
 4241TIP3    H234139   3.123   6.641   3.904
 4242TIP3   OH234140   3.829   1.368   2.401
 4242TIP3    H134141   3.845   1.274   2.402
 4242TIP3    H234142   3.740   1.376   2.367
 4243TIP3   OH234143   2.450   6.540   5.084
 4243TIP3    H134144   2.430   6.600   5.156
 4243TIP3    H234145   2.485   6.462   5.127
 4244TIP3   OH234146   3.152   4.754   0.294
 4244TIP3    H134147   3.083   4.819   0.280
 4244TIP3    H234148   3.231   4.797   0.260
 4245TIP3   OH234149   2.339   0.362  17.200
 4245TIP3    H134150   2.355   0.434  17.261
 4245TIP3    H234151   2.403   0.375  17.131
 4246TIP3   OH234152   1.952   6.038  15.861
 4246TIP3    H134153   1.861   6.065  15.871
 4246TIP3    H234154   2.002   6.117  15.880
 4247TIP3   OH234155   5.250   0.481   5.406
 4247TIP3    H134156   5.280   0.566   5.441
 4247TIP3    H234157   5.330   0.430   5.395
 4248TIP3   OH234158   3.264   1.651   5.174
 4248TIP3    H134159   3.180   1.606   5.176
 4248TIP3    H234160   3.289   1.659   5.267
 4249TIP3   OH234161   3.249   6.438  14.203
 4249TIP3    H134162   3.257   6.460  14.295
 4249TIP3    H234163   3.201   6.355  14.202
 4250TIP3   OH234164   2.184   5.182   4.708
 4250TIP3    H134165   2.277   5.204   4.714
 4250TIP3    H234166   2.139   5.261   4.738
 4251TIP3   OH234167   3.113   5.637   3.262
 4251TIP3    H134168   3.076   5.649   3.350
 4251TIP3    H234169   3.169   5.713   3.249
 4252TIP3   OH234170   0.796   2.975  17.069
 4252TIP3    H134171   0.776   3.005  16.980
 4252TIP3    H234172   0.711   2.952  17.106
 4253TIP3   OH234173   0.218   6.218   4.094
 4253TIP3    H134174   0.171   6.257   4.020
 4253TIP3    H234175   0.307   6.203   4.062
 4254TIP3   OH234176   0.204   0.204  16.855
 4254TIP3    H134177   0.132   0.166  16.805
 4254TIP3    H234178   0.169   0.288  16.887
 4255TIP3   OH234179   5.169   3.113  16.025
 4255TIP3    H134180   5.264   3.114  16.012
 4255TIP3    H234181   5.157   3.083  16.116
 4256TIP3   OH234182   5.076   5.345  12.743
 4256TIP3    H134183   5.023   5.266  12.744
 4256TIP3    H234184   5.100   5.359  12.835
 4257TIP3   OH234185   1.265   3.328   4.578
 4257TIP3    H134186   1.218   3.342   4.661
 4257TIP3    H234187   1.305   3.241   4.588
 4258TIP3   OH234188   6.180   6.219  15.440
 4258TIP3    H134189   6.103   6.188  15.391
 4258TIP3    H234190   6.184   6.160  15.516
 4259TIP3   OH234191   3.317   4.132   4.832
 4259TIP3    H134192   3.376   4.128   4.908
 4259TIP3    H234193   3.237   4.172   4.867
 4260TIP3   OH234194   6.387   3.759  12.689
 4260TIP3    H134195   6.381   3.815  12.767
 4260TIP3    H234196   6.404   3.672  12.724
 4261TIP3   OH234197   1.680   6.664  13.499
 4261TIP3    H134198   1.724   6.620  13.572
 4261TIP3    H234199   1.743   6.729  13.469
 4262TIP3   OH234200   5.095   2.389  11.349
 4262TIP3    H134201   5.086   2.453  11.278
 4262TIP3    H234202   5.150   2.432  11.414
 4263TIP3   OH234203   2.581   5.244   2.049
 4263TIP3    H134204   2.602   5.169   2.104
 4263TIP3    H234205   2.486   5.239   2.035
 4264TIP3   OH234206   4.736   4.248   0.417
 4264TIP3    H134207   4.685   4.236   0.497
 4264TIP3    H234208   4.757   4.159   0.389
 4265TIP3   OH234209   0.306   4.148   5.229
 4265TIP3    H134210   0.297   4.077   5.166
 4265TIP3    H234211   0.287   4.107   5.314
 4266TIP3   OH234212   4.254   2.955  11.939
 4266TIP3    H134213   4.230   2.999  11.857
 4266TIP3    H234214   4.219   2.866  11.930
 4267TIP3   OH234215   0.279   4.815   4.894
 4267TIP3    H134216   0.340   4.853   4.831
 4267TIP3    H234217   0.317   4.731   4.917
 4268TIP3   OH234218   0.177   3.546   0.420
 4268TIP3    H134219   0.215   3.631   0.398
 4268TIP3    H234220   0.089   3.549   0.383
 4269TIP3   OH234221   2.796   2.133  11.557
 4269TIP3    H134222   2.853   2.165  11.628
 4269TIP3    H234223   2.754   2.212  11.524
 4270TIP3   OH234224   2.187   6.302  16.834
 4270TIP3    H134225   2.201   6.212  16.864
 4270TIP3    H234226   2.272   6.344  16.844
 4271TIP3   OH234227   6.731   0.594  13.088
 4271TIP3    H134228   6.681   0.536  13.031
 4271TIP3    H234229   6.690   0.679  13.078
 4272TIP3   OH234230   5.297   3.140  16.317
 4272TIP3    H134231   5.392   3.135  16.303
 4272TIP3    H234232   5.283   3.228  16.352
 4273TIP3   OH234233   3.123   4.889  16.010
 4273TIP3    H134234   3.176   4.941  15.950
 4273TIP3    H234235   3.187   4.833  16.055
 4274TIP3   OH234236   6.345   2.241   0.100
 4274TIP3    H134237   6.383   2.223   0.186
 4274TIP3    H234238   6.294   2.322   0.113
 4275TIP3   OH234239   6.411   6.126  14.274
 4275TIP3    H134240   6.470   6.051  14.261
 4275TIP3    H234241   6.354   6.098  14.346
 4276TIP3   OH234242   1.258   1.479   1.719
 4276TIP3    H134243   1.213   1.518   1.794
 4276TIP3    H234244   1.262   1.386   1.739
 4277TIP3   OH234245   3.302   4.838   2.225
 4277TIP3    H134246   3.277   4.824   2.134
 4277TIP3    H234247   3.362   4.913   2.221
 4278TIP3   OH234248   2.348   6.540  13.025
 4278TIP3    H134249   2.296   6.615  12.996
 4278TIP3    H234250   2.401   6.517  12.948
 4279TIP3   OH234251   4.262   0.930   1.780
 4279TIP3    H134252   4.179   0.974   1.799
 4279TIP3    H234253   4.327   0.978   1.831
 4280TIP3   OH234254   4.598   1.823  15.752
 4280TIP3    H134255   4.531   1.792  15.813
 4280TIP3    H234256   4.680   1.788  15.786
 4281TIP3   OH234257   1.217   5.226   0.311
 4281TIP3    H134258   1.281   5.267   0.252
 4281TIP3    H234259   1.140   5.283   0.306
 4282TIP3   OH234260   6.554   0.655   0.161
 4282TIP3    H134261   6.645   0.677   0.180
 4282TIP3    H234262   6.551   0.559   0.168
 4283TIP3   OH234263   4.544   3.763   1.500
 4283TIP3    H134264   4.478   3.693   1.504
 4283TIP3    H234265   4.570   3.765   1.408
 4284TIP3   OH234266   0.434   2.277   2.560
 4284TIP3    H134267   0.511   2.332   2.577
 4284TIP3    H234268   0.457   2.193   2.598
 4285TIP3   OH234269   4.204   6.199  15.341
 4285TIP3    H134270   4.247   6.201  15.426
 4285TIP3    H234271   4.271   6.229  15.279
 4286TIP3   OH234272   0.087   4.645  13.596
 4286TIP3    H134273   0.169   4.673  13.636
 4286TIP3    H234274   0.067   4.562  13.639
 4287TIP3   OH234275   1.611   0.109  15.526
 4287TIP3    H134276   1.571   0.022  15.525
 4287TIP3    H234277   1.582   0.148  15.609
 4288TIP3   OH234278   4.301   1.312  12.419
 4288TIP3    H134279   4.254   1.290  12.339
 4288TIP3    H234280   4.378   1.255  12.418
 4289TIP3   OH234281   1.899   6.031  13.980
 4289TIP3    H134282   1.835   5.976  14.025
 4289TIP3    H234283   1.965   5.970  13.948
 4290TIP3   OH234284   5.688   0.680   0.110
 4290TIP3    H134285   5.604   0.726   0.115
 4290TIP3    H234286   5.682   0.628   0.030
 4291TIP3   OH234287   6.441   5.568   3.114
 4291TIP3    H134288   6.382   5.567   3.039
 4291TIP3    H234289   6.468   5.660   3.122
 4292TIP3   OH234290   2.859   0.793   3.913
 4292TIP3    H134291   2.842   0.850   3.988
 4292TIP3    H234292   2.780   0.740   3.904
 4293TIP3   OH234293   3.141   0.579  16.544
 4293TIP3    H134294   3.145   0.524  16.622
 4293TIP3    H234295   3.159   0.519  16.472
 4294TIP3   OH234296   1.466   1.509   3.895
 4294TIP3    H134297   1.444   1.422   3.860
 4294TIP3    H234298   1.490   1.560   3.817
 4295TIP3   OH234299   4.305   2.601  15.031
 4295TIP3    H134300   4.386   2.653  15.037
 4295TIP3    H234301   4.274   2.595  15.122
 4296TIP3   OH234302   4.455   0.645   3.747
 4296TIP3    H134303   4.529   0.690   3.788
 4296TIP3    H234304   4.422   0.586   3.815
 4297TIP3   OH234305   1.723   6.384   5.031
 4297TIP3    H134306   1.762   6.355   4.948
 4297TIP3    H234307   1.629   6.375   5.017
 4298TIP3   OH234308   5.269   6.694  15.521
 4298TIP3    H134309   5.318   6.764  15.566
 4298TIP3    H234310   5.177   6.718  15.533
 4299TIP3   OH234311   6.779   5.342  14.074
 4299TIP3    H134312   6.789   5.350  14.169
 4299TIP3    H234313   6.793   5.249  14.056
 4300TIP3   OH234314   1.495   1.382  14.034
 4300TIP3    H134315   1.578   1.429  14.029
 4300TIP3    H234316   1.460   1.406  14.120
 4301TIP3   OH234317   1.158   4.592   5.052
 4301TIP3    H134318   1.117   4.544   4.980
 4301TIP3    H234319   1.145   4.684   5.030
 4302TIP3   OH234320   3.787   6.534  11.744
 4302TIP3    H134321   3.855   6.595  11.775
 4302TIP3    H234322   3.835   6.454  11.724
 4303TIP3   OH234323   1.720   0.877   2.505
 4303TIP3    H134324   1.688   0.857   2.593
 4303TIP3    H234325   1.711   0.972   2.497
 4304TIP3   OH234326   2.622   4.947   2.788
 4304TIP3    H134327   2.600   5.036   2.761
 4304TIP3    H234328   2.537   4.907   2.808
 4305TIP3   OH234329   4.658   1.454  16.620
 4305TIP3    H134330   4.654   1.380  16.559
 4305TIP3    H234331   4.571   1.493  16.617
 4306TIP3   OH234332   3.923   4.852   1.565
 4306TIP3    H134333   3.999   4.881   1.617
 4306TIP3    H234334   3.881   4.934   1.537
 4307TIP3   OH234335   6.539   5.827  17.091
 4307TIP3    H134336   6.610   5.851  17.151
 4307TIP3    H234337   6.490   5.908  17.079
 4308TIP3   OH234338   2.004   4.776   0.457
 4308TIP3    H134339   2.073   4.711   0.474
 4308TIP3    H234340   2.019   4.845   0.521
 4309TIP3   OH234341   2.661   4.119   0.474
 4309TIP3    H134342   2.680   4.099   0.382
 4309TIP3    H234343   2.726   4.185   0.498
 4310TIP3   OH234344   1.698   2.695  16.571
 4310TIP3    H134345   1.647   2.636  16.515
 4310TIP3    H234346   1.788   2.667  16.560
 4311TIP3   OH234347   0.644   0.299   1.231
 4311TIP3    H134348   0.655   0.251   1.314
 4311TIP3    H234349   0.713   0.266   1.175
 4312TIP3   OH234350   2.572   2.532  16.756
 4312TIP3    H134351   2.542   2.529  16.665
 4312TIP3    H234352   2.607   2.445  16.773
 4313TIP3   OH234353   0.487   2.557  11.240
 4313TIP3    H134354   0.536   2.561  11.158
 4313TIP3    H234355   0.432   2.479  11.231
 4314TIP3   OH234356   4.276   5.426  14.882
 4314TIP3    H134357   4.286   5.466  14.968
 4314TIP3    H234358   4.254   5.500  14.824
 4315TIP3   OH234359   3.731   1.279  12.847
 4315TIP3    H134360   3.671   1.241  12.911
 4315TIP3    H234361   3.780   1.205  12.812
 4316TIP3   OH234362   0.135   4.926   0.544
 4316TIP3    H134363   0.141   4.894   0.455
 4316TIP3    H234364   0.055   4.885   0.579
 4317TIP3   OH234365   6.345   1.182  15.472
 4317TIP3    H134366   6.386   1.118  15.414
 4317TIP3    H234367   6.373   1.155  15.560
 4318TIP3   OH234368   0.747   3.510   3.126
 4318TIP3    H134369   0.820   3.563   3.093
 4318TIP3    H234370   0.673   3.534   3.072
 4319TIP3   OH234371   3.053   6.646  15.683
 4319TIP3    H134372   2.995   6.631  15.609
 4319TIP3    H234373   3.141   6.644  15.646
 4320TIP3   OH234374   6.624   4.008  14.727
 4320TIP3    H134375   6.604   3.955  14.649
 4320TIP3    H234376   6.597   3.953  14.800
 4321TIP3   OH234377   3.693   5.383   2.033
 4321TIP3    H134378   3.687   5.333   2.115
 4321TIP3    H234379   3.730   5.322   1.970
 4322TIP3   OH234380   5.300   0.862   2.708
 4322TIP3    H134381   5.389   0.894   2.691
 4322TIP3    H234382   5.256   0.866   2.623
 4323TIP3   OH234383   4.546   6.210   5.308
 4323TIP3    H134384   4.549   6.115   5.319
 4323TIP3    H234385   4.637   6.238   5.320
 4324TIP3   OH234386   5.193   2.681  16.066
 4324TIP3    H134387   5.158   2.719  15.986
 4324TIP3    H234388   5.267   2.626  16.037
 4325TIP3   OH234389   1.890   1.775   3.602
 4325TIP3    H134390   1.947   1.702   3.625
 4325TIP3    H234391   1.920   1.847   3.657
 4326TIP3   OH234392   6.238   5.831  16.631
 4326TIP3    H134393   6.260   5.885  16.707
 4326TIP3    H234394   6.322   5.815  16.587
 4327TIP3   OH234395   4.010   0.236   4.685
 4327TIP3    H134396   4.027   0.185   4.764
 4327TIP3    H234397   4.029   0.176   4.613
 4328TIP3   OH234398   6.084   6.470  15.991
 4328TIP3    H134399   6.168   6.434  15.964
 4328TIP3    H234400   6.028   6.460  15.914
 4329TIP3   OH234401   3.129   6.523   2.030
 4329TIP3    H134402   3.043   6.550   1.997
 4329TIP3    H234403   3.146   6.583   2.102
 4330TIP3   OH234404   5.176   5.541  16.500
 4330TIP3    H134405   5.170   5.491  16.581
 4330TIP3    H234406   5.112   5.501  16.441
 4331TIP3   OH234407   6.072   3.120  13.072
 4331TIP3    H134408   6.151   3.127  13.125
 4331TIP3    H234409   6.082   3.039  13.023
 4332TIP3   OH234410   0.960   1.744  11.273
 4332TIP3    H134411   0.937   1.741  11.366
 4332TIP3    H234412   0.902   1.811  11.236
 4333TIP3   OH234413   2.062   4.730  14.992
 4333TIP3    H134414   2.079   4.786  15.067
 4333TIP3    H234415   2.054   4.790  14.918
 4334TIP3   OH234416   1.636   5.191   1.400
 4334TIP3    H134417   1.723   5.232   1.403
 4334TIP3    H234418   1.651   5.104   1.365
 4335TIP3   OH234419   3.362   3.811   5.017
 4335TIP3    H134420   3.301   3.751   5.060
 4335TIP3    H234421   3.399   3.863   5.089
 4336TIP3   OH234422   4.787   5.697  10.124
 4336TIP3    H134423   4.781   5.764  10.193
 4336TIP3    H234424   4.879   5.671  10.124
 4337TIP3   OH234425   4.580   0.716   0.952
 4337TIP3    H134426   4.654   0.668   0.916
 4337TIP3    H234427   4.613   0.753   1.034
 4338TIP3   OH234428   4.344   1.340  14.921
 4338TIP3    H134429   4.297   1.419  14.950
 4338TIP3    H234430   4.372   1.360  14.832
 4339TIP3   OH234431   2.306   3.945   4.797
 4339TIP3    H134432   2.287   4.037   4.817
 4339TIP3    H234433   2.303   3.940   4.701
 4340TIP3   OH234434   1.981   4.278  15.379
 4340TIP3    H134435   1.963   4.323  15.461
 4340TIP3    H234436   2.011   4.191  15.406
 4341TIP3   OH234437   6.155   6.116  16.253
 4341TIP3    H134438   6.108   6.199  16.246
 4341TIP3    H234439   6.094   6.050  16.221
 4342TIP3   OH234440   6.730   1.328   2.885
 4342TIP3    H134441   6.744   1.274   2.808
 4342TIP3    H234442   6.812   1.375   2.898
 4343TIP3   OH234443   5.601   2.562  16.996
 4343TIP3    H134444   5.646   2.540  16.915
 4343TIP3    H234445   5.559   2.646  16.979
 4344TIP3   OH234446   0.485   2.014   2.123
 4344TIP3    H134447   0.541   1.936   2.131
 4344TIP3    H234448   0.396   1.979   2.120
 4345TIP3   OH234449   5.045   4.138  11.444
 4345TIP3    H134450   4.986   4.199  11.400
 4345TIP3    H234451   4.989   4.091  11.506
 4346TIP3   OH234452   1.551   2.485  11.853
 4346TIP3    H134453   1.502   2.510  11.775
 4346TIP3    H234454   1.494   2.508  11.926
 4347TIP3   OH234455   4.362   2.979   5.496
 4347TIP3    H134456   4.425   3.029   5.445
 4347TIP3    H234457   4.382   3.000   5.587
 4348TIP3   OH234458   0.403   0.611  12.887
 4348TIP3    H134459   0.478   0.574  12.842
 4348TIP3    H234460   0.366   0.674  12.824
 4349TIP3   OH234461   5.184   3.864   4.718
 4349TIP3    H134462   5.228   3.903   4.792
 4349TIP3    H234463   5.141   3.937   4.673
 4350TIP3   OH234464   3.895   4.316  14.385
 4350TIP3    H134465   3.906   4.377  14.457
 4350TIP3    H234466   3.971   4.332  14.329
 4351TIP3   OH234467   2.447   2.127   2.427
 4351TIP3    H134468   2.401   2.195   2.477
 4351TIP3    H234469   2.520   2.101   2.484
 4352TIP3   OH234470   3.304   5.576  16.268
 4352TIP3    H134471   3.260   5.660  16.278
 4352TIP3    H234472   3.387   5.597  16.225
 4353TIP3   OH234473   2.664   3.883  16.049
 4353TIP3    H134474   2.684   3.900  16.140
 4353TIP3    H234475   2.747   3.851  16.012
 4354TIP3   OH234476   5.477   4.456  16.849
 4354TIP3    H134477   5.422   4.521  16.805
 4354TIP3    H234478   5.567   4.485  16.835
 4355TIP3   OH234479   4.847   4.896   1.709
 4355TIP3    H134480   4.800   4.897   1.626
 4355TIP3    H234481   4.885   4.983   1.717
 4356TIP3   OH234482   1.494   5.942  16.328
 4356TIP3    H134483   1.492   5.904  16.240
 4356TIP3    H234484   1.448   6.026  16.318
 4357TIP3   OH234485   0.861   1.460  11.178
 4357TIP3    H134486   0.860   1.526  11.247
 4357TIP3    H234487   0.895   1.381  11.221
 4358TIP3   OH234488   1.035   1.734  13.627
 4358TIP3    H134489   1.053   1.669  13.695
 4358TIP3    H234490   0.993   1.806  13.673
 4359TIP3   OH234491   5.862   0.942  14.516
 4359TIP3    H134492   5.788   1.002  14.522
 4359TIP3    H234493   5.938   0.999  14.503
 4360TIP3   OH234494   5.960   3.084   0.006
 4360TIP3    H134495   5.954   3.179  -0.004
 4360TIP3    H234496   5.934   3.068   0.097
 4361TIP3   OH234497   6.211   1.465   3.776
 4361TIP3    H134498   6.289   1.416   3.800
 4361TIP3    H234499   6.162   1.473   3.857
 4362TIP3   OH234500   3.594   5.319   3.180
 4362TIP3    H134501   3.632   5.232   3.197
 4362TIP3    H234502   3.661   5.365   3.130
 4363TIP3   OH234503   5.975   4.322  15.680
 4363TIP3    H134504   5.965   4.412  15.649
 4363TIP3    H234505   6.023   4.278  15.610
 4364TIP3   OH234506   5.642   1.739  12.953
 4364TIP3    H134507   5.704   1.812  12.957
 4364TIP3    H234508   5.627   1.715  13.044
 4365TIP3   OH234509   1.624   3.907  14.393
 4365TIP3    H134510   1.556   3.893  14.327
 4365TIP3    H234511   1.587   3.974  14.451
 4366TIP3   OH234512   3.348   1.618  11.684
 4366TIP3    H134513   3.329   1.675  11.610
 4366TIP3    H234514   3.315   1.665  11.761
 4367TIP3   OH234515   3.890   3.883   3.659
 4367TIP3    H134516   3.857   3.957   3.607
 4367TIP3    H234517   3.897   3.918   3.748
 4368TIP3   OH234518   0.915   5.293  11.634
 4368TIP3    H134519   0.979   5.354  11.669
 4368TIP3    H234520   0.889   5.331  11.549
 4369TIP3   OH234521   2.759   1.544  12.278
 4369TIP3    H134522   2.751   1.610  12.209
 4369TIP3    H234523   2.827   1.578  12.336
 4370TIP3   OH234524   0.063   0.166  14.823
 4370TIP3    H134525   0.115   0.103  14.773
 4370TIP3    H234526   0.002   0.203  14.758
 4371TIP3   OH234527   5.204   5.205  16.473
 4371TIP3    H134528   5.278   5.248  16.515
 4371TIP3    H234529   5.186   5.258  16.396
 4372TIP3   OH234530   4.853   4.505  10.514
 4372TIP3    H134531   4.768   4.515  10.557
 4372TIP3    H234532   4.894   4.432  10.559
 4373TIP3   OH234533   6.422   1.766   0.945
 4373TIP3    H134534   6.412   1.730   0.856
 4373TIP3    H234535   6.516   1.759   0.963
 4374TIP3   OH234536   0.715   0.059   5.015
 4374TIP3    H134537   0.793   0.031   4.968
 4374TIP3    H234538   0.657  -0.017   5.014
 4375TIP3   OH234539   2.309   4.131  15.294
 4375TIP3    H134540   2.311   4.039  15.270
 4375TIP3    H234541   2.398   4.150  15.323
 4376TIP3   OH234542   4.938   5.693   5.967
 4376TIP3    H134543   4.962   5.679   6.058
 4376TIP3    H234544   4.877   5.767   5.969
 4377TIP3   OH234545   1.063   5.891  16.939
 4377TIP3    H134546   1.143   5.877  16.988
 4377TIP3    H234547   1.080   5.850  16.854
 4378TIP3   OH234548   6.622   5.138   2.030
 4378TIP3    H134549   6.676   5.201   2.079
 4378TIP3    H234550   6.558   5.107   2.094
 4379TIP3   OH234551   2.897   1.149  15.444
 4379TIP3    H134552   2.983   1.143  15.486
 4379TIP3    H234553   2.916   1.144  15.350
 4380TIP3   OH234554   2.374   4.073   3.082
 4380TIP3    H134555   2.362   3.982   3.107
 4380TIP3    H234556   2.420   4.069   2.998
 4381TIP3   OH234557   4.303   5.490  13.228
 4381TIP3    H134558   4.308   5.567  13.172
 4381TIP3    H234559   4.348   5.421  13.179
 4382TIP3   OH234560   0.163   3.534   5.037
 4382TIP3    H134561   0.128   3.448   5.061
 4382TIP3    H234562   0.088   3.593   5.045
 4383TIP3   OH234563   3.449   3.204   4.326
 4383TIP3    H134564   3.475   3.160   4.245
 4383TIP3    H234565   3.356   3.224   4.314
 4384TIP3   OH234566   2.098   4.214   3.886
 4384TIP3    H134567   2.120   4.223   3.979
 4384TIP3    H234568   2.003   4.212   3.884
 4385TIP3   OH234569   6.661   2.481   4.028
 4385TIP3    H134570   6.610   2.410   3.989
 4385TIP3    H234571   6.728   2.501   3.962
 4386TIP3   OH234572   3.461   6.530   2.678
 4386TIP3    H134573   3.511   6.603   2.640
 4386TIP3    H234574   3.528   6.467   2.706
 4387TIP3   OH234575   4.687   5.471   1.336
 4387TIP3    H134576   4.688   5.534   1.264
 4387TIP3    H234577   4.701   5.525   1.415
 4388TIP3   OH234578   3.061   0.562  17.061
 4388TIP3    H134579   3.136   0.502  17.063
 4388TIP3    H234580   3.065   0.607  17.146
 4389TIP3   OH234581   6.562   1.398   0.458
 4389TIP3    H134582   6.654   1.377   0.442
 4389TIP3    H234583   6.562   1.493   0.472
 4390TIP3   OH234584   2.691   1.971   2.538
 4390TIP3    H134585   2.705   1.906   2.606
 4390TIP3    H234586   2.673   2.052   2.585
 4391TIP3   OH234587   0.136   2.947  15.018
 4391TIP3    H134588   0.155   3.021  14.961
 4391TIP3    H234589   0.116   2.987  15.103
 4392TIP3   OH234590   4.731   3.872   2.344
 4392TIP3    H134591   4.687   3.955   2.324
 4392TIP3    H234592   4.669   3.805   2.317
 4393TIP3   OH234593   1.874   3.388   1.951
 4393TIP3    H134594   1.889   3.331   1.876
 4393TIP3    H234595   1.950   3.446   1.953
 4394TIP3   OH234596   4.730   6.367   1.402
 4394TIP3    H134597   4.647   6.415   1.409
 4394TIP3    H234598   4.755   6.348   1.492
 4395TIP3   OH234599   6.124   2.651  13.492
 4395TIP3    H134600   6.035   2.670  13.465
 4395TIP3    H234601   6.124   2.659  13.587
 4396TIP3   OH234602   3.860   3.853  14.477
 4396TIP3    H134603   3.770   3.831  14.453
 4396TIP3    H234604   3.866   3.836  14.571
 4397TIP3   OH234605   6.018   3.631   1.362
 4397TIP3    H134606   5.974   3.561   1.313
 4397TIP3    H234607   6.111   3.619   1.342
 4398TIP3   OH234608   1.732   4.060  12.217
 4398TIP3    H134609   1.809   4.006  12.197
 4398TIP3    H234610   1.658   4.001  12.206
 4399TIP3   OH234611   4.357   1.042   4.188
 4399TIP3    H134612   4.409   1.035   4.268
 4399TIP3    H234613   4.267   1.054   4.219
 4400TIP3   OH234614   1.909   2.993   5.639
 4400TIP3    H134615   1.863   3.038   5.568
 4400TIP3    H234616   1.963   3.061   5.679
 4401TIP3   OH234617   3.873   0.840   0.226
 4401TIP3    H134618   3.906   0.814   0.311
 4401TIP3    H234619   3.906   0.929   0.213
 4402TIP3   OH234620   5.790   3.422   4.443
 4402TIP3    H134621   5.852   3.390   4.377
 4402TIP3    H234622   5.819   3.380   4.524
 4403TIP3   OH234623   2.367   1.367  13.530
 4403TIP3    H134624   2.398   1.449  13.568
 4403TIP3    H234625   2.272   1.379  13.522
 4404TIP3   OH234626   5.907   2.442   0.227
 4404TIP3    H134627   5.829   2.387   0.236
 4404TIP3    H234628   5.885   2.522   0.275
 4405TIP3   OH234629   2.206   1.772   0.334
 4405TIP3    H134630   2.163   1.732   0.258
 4405TIP3    H234631   2.284   1.718   0.348
 4406TIP3   OH234632   0.247   0.095  13.764
 4406TIP3    H134633   0.287   0.171  13.721
 4406TIP3    H234634   0.276   0.102  13.855
 4407TIP3   OH234635   1.755   0.308  13.957
 4407TIP3    H134636   1.729   0.311  13.865
 4407TIP3    H234637   1.673   0.293  14.005
 4408TIP3   OH234638   4.726   5.105   5.681
 4408TIP3    H134639   4.749   5.197   5.694
 4408TIP3    H234640   4.759   5.060   5.759
 4409TIP3   OH234641   5.423   3.872  14.181
 4409TIP3    H134642   5.349   3.904  14.130
 4409TIP3    H234643   5.424   3.928  14.259
 4410TIP3   OH234644   0.217   3.069  11.307
 4410TIP3    H134645   0.167   3.097  11.384
 4410TIP3    H234646   0.269   2.995  11.338
 4411TIP3   OH234647   0.844   2.120  13.284
 4411TIP3    H134648   0.782   2.192  13.276
 4411TIP3    H234649   0.874   2.104  13.194
 4412TIP3   OH234650   2.270   4.206  14.052
 4412TIP3    H134651   2.228   4.287  14.081
 4412TIP3    H234652   2.219   4.179  13.976
 4413TIP3   OH234653   3.419   3.686   2.345
 4413TIP3    H134654   3.403   3.667   2.253
 4413TIP3    H234655   3.388   3.775   2.358
 4414TIP3   OH234656   2.074   2.471   5.075
 4414TIP3    H134657   2.027   2.538   5.025
 4414TIP3    H234658   2.129   2.520   5.135
 4415TIP3   OH234659   5.297   4.941  11.755
 4415TIP3    H134660   5.300   4.857  11.710
 4415TIP3    H234661   5.204   4.965  11.754
 4416TIP3   OH234662   3.842   3.621   3.352
 4416TIP3    H134663   3.753   3.594   3.330
 4416TIP3    H234664   3.886   3.631   3.268
 4417TIP3   OH234665   4.819   4.435  11.909
 4417TIP3    H134666   4.790   4.401  11.993
 4417TIP3    H234667   4.820   4.530  11.920
 4418TIP3   OH234668   5.904   5.246  16.761
 4418TIP3    H134669   5.938   5.318  16.814
 4418TIP3    H234670   5.810   5.264  16.753
 4419TIP3   OH234671   4.240   2.569  12.565
 4419TIP3    H134672   4.267   2.490  12.520
 4419TIP3    H234673   4.149   2.582  12.538
 4420TIP3   OH234674   1.891   5.932  12.021
 4420TIP3    H134675   1.887   5.852  11.969
 4420TIP3    H234676   1.819   5.986  11.988
 4421TIP3   OH234677   4.565   5.509   2.208
 4421TIP3    H134678   4.628   5.439   2.229
 4421TIP3    H234679   4.610   5.590   2.233
 4422TIP3   OH234680   4.861   2.522   1.902
 4422TIP3    H134681   4.945   2.478   1.909
 4422TIP3    H234682   4.826   2.492   1.818
 4423TIP3   OH234683   0.624   2.964  14.508
 4423TIP3    H134684   0.718   2.969  14.489
 4423TIP3    H234685   0.618   2.911  14.587
 4424TIP3   OH234686   6.494   0.327  13.333
 4424TIP3    H134687   6.432   0.257  13.349
 4424TIP3    H234688   6.456   0.378  13.262
 4425TIP3   OH234689   4.059   2.676   4.137
 4425TIP3    H134690   4.080   2.609   4.072
 4425TIP3    H234691   3.970   2.703   4.115
 4426TIP3   OH234692   2.417   2.464  14.578
 4426TIP3    H134693   2.492   2.415  14.611
 4426TIP3    H234694   2.342   2.408  14.597
 4427TIP3   OH234695   0.170   4.442   4.881
 4427TIP3    H134696   0.129   4.461   4.965
 4427TIP3    H234697   0.103   4.465   4.816
 4428TIP3   OH234698   1.968   0.490  17.078
 4428TIP3    H134699   1.944   0.421  17.140
 4428TIP3    H234700   2.027   0.447  17.016
 4429TIP3   OH234701   6.311   1.426   0.600
 4429TIP3    H134702   6.393   1.411   0.554
 4429TIP3    H234703   6.325   1.508   0.648
 4430TIP3   OH234704   5.833   5.801  17.065
 4430TIP3    H134705   5.764   5.810  16.999
 4430TIP3    H234706   5.906   5.762  17.018
 4431TIP3   OH234707   1.793   6.755   5.355
 4431TIP3    H134708   1.722   6.788   5.411
 4431TIP3    H234709   1.842   6.696   5.411
 4432TIP3   OH234710   0.318   4.005   1.830
 4432TIP3    H134711   0.371   3.963   1.898
 4432TIP3    H234712   0.307   3.937   1.763
 4433TIP3   OH234713   1.569   6.170  12.065
 4433TIP3    H134714   1.570   6.113  11.988
 4433TIP3    H234715   1.483   6.152  12.106
 4434TIP3   OH234716   3.194   0.856   4.036
 4434TIP3    H134717   3.150   0.775   4.014
 4434TIP3    H234718   3.214   0.848   4.130
 4435TIP3   OH234719   0.458   1.366   6.409
 4435TIP3    H134720   0.527   1.324   6.357
 4435TIP3    H234721   0.388   1.385   6.347
 4436TIP3   OH234722   2.421   3.436  14.427
 4436TIP3    H134723   2.477   3.468  14.356
 4436TIP3    H234724   2.334   3.429  14.388
 4437TIP3   OH234725   3.230   1.514   3.334
 4437TIP3    H134726   3.206   1.516   3.242
 4437TIP3    H234727   3.193   1.595   3.370
 4438TIP3   OH234728   6.779   1.295   0.276
 4438TIP3    H134729   6.860   1.345   0.286
 4438TIP3    H234730   6.720   1.353   0.228
 4439TIP3   OH234731   2.339   3.897   2.592
 4439TIP3    H134732   2.323   3.984   2.554
 4439TIP3    H234733   2.266   3.844   2.561
 4440TIP3   OH234734   6.458   3.894   6.209
 4440TIP3    H134735   6.510   3.915   6.287
 4440TIP3    H234736   6.478   3.802   6.191
 4441TIP3   OH234737   3.116   6.352  14.591
 4441TIP3    H134738   3.143   6.443  14.586
 4441TIP3    H234739   3.125   6.319  14.502
 4442TIP3   OH234740   1.127   6.364  13.460
 4442TIP3    H134741   1.067   6.304  13.505
 4442TIP3    H234742   1.148   6.320  13.378
 4443TIP3   OH234743   5.790   1.034  15.963
 4443TIP3    H134744   5.741   1.026  16.045
 4443TIP3    H234745   5.740   1.099  15.912
 4444TIP3   OH234746   0.010   1.229   3.616
 4444TIP3    H134747   0.013   1.317   3.579
 4444TIP3    H234748   0.063   1.235   3.695
 4445TIP3   OH234749   3.297   4.065   0.277
 4445TIP3    H134750   3.388   4.095   0.279
 4445TIP3    H234751   3.251   4.124   0.337
 4446TIP3   OH234752   6.137   4.924  15.595
 4446TIP3    H134753   6.088   4.891  15.671
 4446TIP3    H234754   6.074   4.979  15.549
 4447TIP3   OH234755   5.975   2.126  14.369
 4447TIP3    H134756   5.939   2.102  14.455
 4447TIP3    H234757   6.029   2.202  14.387
 4448TIP3   OH234758   6.542   2.455  13.221
 4448TIP3    H134759   6.482   2.516  13.265
 4448TIP3    H234760   6.627   2.498  13.225
 4449TIP3   OH234761   3.879   3.498   3.913
 4449TIP3    H134762   3.845   3.536   3.832
 4449TIP3    H234763   3.893   3.573   3.971
 4450TIP3   OH234764   5.507   6.655   2.530
 4450TIP3    H134765   5.533   6.564   2.513
 4450TIP3    H234766   5.580   6.692   2.580
 4451TIP3   OH234767   3.786   3.592  13.579
 4451TIP3    H134768   3.852   3.658  13.600
 4451TIP3    H234769   3.803   3.521  13.642
 4452TIP3   OH234770   5.375   5.395   0.920
 4452TIP3    H134771   5.454   5.350   0.950
 4452TIP3    H234772   5.366   5.470   0.979
 4453TIP3   OH234773   1.494   3.071  14.206
 4453TIP3    H134774   1.487   3.018  14.285
 4453TIP3    H234775   1.456   3.016  14.137
 4454TIP3   OH234776   2.149   6.692  11.725
 4454TIP3    H134777   2.117   6.717  11.811
 4454TIP3    H234778   2.169   6.598  11.733
 4455TIP3   OH234779   3.255   4.903   1.706
 4455TIP3    H134780   3.233   4.968   1.773
 4455TIP3    H234781   3.178   4.846   1.701
 4456TIP3   OH234782   4.320   6.523  15.482
 4456TIP3    H134783   4.224   6.529  15.477
 4456TIP3    H234784   4.342   6.565  15.565
 4457TIP3   OH234785   0.748   2.796  12.426
 4457TIP3    H134786   0.716   2.763  12.342
 4457TIP3    H234787   0.801   2.725  12.462
 4458TIP3   OH234788   4.707   4.845   2.660
 4458TIP3    H134789   4.703   4.940   2.669
 4458TIP3    H234790   4.800   4.824   2.666
 4459TIP3   OH234791   4.587   3.273  15.266
 4459TIP3    H134792   4.587   3.361  15.229
 4459TIP3    H234793   4.632   3.283  15.350
 4460TIP3   OH234794   6.075   0.058  10.479
 4460TIP3    H134795   6.002   0.032  10.536
 4460TIP3    H234796   6.110  -0.025  10.446
 4461TIP3   OH234797   3.753   5.002  10.567
 4461TIP3    H134798   3.804   4.944  10.623
 4461TIP3    H234799   3.713   4.943  10.502
 4462TIP3   OH234800   5.586   6.660  12.683
 4462TIP3    H134801   5.539   6.661  12.599
 4462TIP3    H234802   5.517   6.664  12.749
 4463TIP3   OH234803   6.777   3.309  12.617
 4463TIP3    H134804   6.754   3.361  12.540
 4463TIP3    H234805   6.740   3.222  12.601
 4464TIP3   OH234806   5.183   0.575  16.648
 4464TIP3    H134807   5.090   0.574  16.671
 4464TIP3    H234808   5.226   0.522  16.714
 4465TIP3   OH234809   5.109   1.600   3.301
 4465TIP3    H134810   5.155   1.600   3.217
 4465TIP3    H234811   5.082   1.509   3.314
 4466TIP3   OH234812   1.331   6.525   4.977
 4466TIP3    H134813   1.364   6.615   4.980
 4466TIP3    H234814   1.374   6.481   5.050
 4467TIP3   OH234815   4.145   5.692   2.947
 4467TIP3    H134816   4.215   5.755   2.933
 4467TIP3    H234817   4.088   5.733   3.012
 4468TIP3   OH234818   0.491   0.936  15.578
 4468TIP3    H134819   0.518   1.028  15.576
 4468TIP3    H234820   0.437   0.925  15.499
 4469TIP3   OH234821   4.876   4.990   4.168
 4469TIP3    H134822   4.924   5.022   4.092
 4469TIP3    H234823   4.842   5.069   4.210
 4470TIP3   OH234824   1.990   1.338  13.310
 4470TIP3    H134825   2.058   1.322  13.375
 4470TIP3    H234826   2.011   1.425  13.274
 4471TIP3   OH234827   5.163   2.643  13.832
 4471TIP3    H134828   5.196   2.643  13.742
 4471TIP3    H234829   5.180   2.554  13.864
 4472TIP3   OH234830   1.505   2.809   1.430
 4472TIP3    H134831   1.499   2.743   1.499
 4472TIP3    H234832   1.445   2.778   1.362
 4473TIP3   OH234833   3.063   5.282  14.980
 4473TIP3    H134834   2.979   5.240  14.997
 4473TIP3    H234835   3.116   5.265  15.058
 4474TIP3   OH234836   4.220   5.372   5.601
 4474TIP3    H134837   4.197   5.346   5.511
 4474TIP3    H234838   4.228   5.468   5.597
 4475TIP3   OH234839   5.233   6.374   4.241
 4475TIP3    H134840   5.254   6.289   4.201
 4475TIP3    H234841   5.153   6.401   4.197
 4476TIP3   OH234842   0.317   0.056   1.502
 4476TIP3    H134843   0.392   0.081   1.556
 4476TIP3    H234844   0.318  -0.039   1.501
 4477TIP3   OH234845   2.234   3.079  11.644
 4477TIP3    H134846   2.295   3.133  11.595
 4477TIP3    H234847   2.152   3.083  11.594
 4478TIP3   OH234848   1.057   3.890  15.155
 4478TIP3    H134849   1.092   3.805  15.181
 4478TIP3    H234850   1.022   3.928  15.235
 4479TIP3   OH234851   0.973   6.456   6.657
 4479TIP3    H134852   0.908   6.493   6.717
 4479TIP3    H234853   0.950   6.363   6.652
 4480TIP3   OH234854   2.087   1.370   3.677
 4480TIP3    H134855   2.176   1.394   3.701
 4480TIP3    H234856   2.096   1.317   3.598
 4481TIP3   OH234857   0.135   4.085  17.175
 4481TIP3    H134858   0.122   4.035  17.256
 4481TIP3    H234859   0.227   4.109  17.176
 4482TIP3   OH234860   6.343   3.511  14.091
 4482TIP3    H134861   6.311   3.517  14.181
 4482TIP3    H234862   6.395   3.590  14.078
 4483TIP3   OH234863   4.868   6.051  16.401
 4483TIP3    H134864   4.887   6.004  16.481
 4483TIP3    H234865   4.908   5.999  16.331
 4484TIP3   OH234866   1.951   1.233  17.124
 4484TIP3    H134867   1.886   1.264  17.188
 4484TIP3    H234868   1.954   1.138  17.138
 4485TIP3   OH234869   4.145   1.373   1.235
 4485TIP3    H134870   4.118   1.299   1.288
 4485TIP3    H234871   4.240   1.363   1.227
 4486TIP3   OH234872   4.441   2.631   1.584
 4486TIP3    H134873   4.489   2.581   1.518
 4486TIP3    H234874   4.489   2.613   1.665
 4487TIP3   OH234875   3.356   1.640  11.092
 4487TIP3    H134876   3.403   1.707  11.042
 4487TIP3    H234877   3.407   1.629  11.172
 4488TIP3   OH234878   0.501   6.247   4.454
 4488TIP3    H134879   0.467   6.233   4.542
 4488TIP3    H234880   0.589   6.283   4.467
 4489TIP3   OH234881   1.063   3.683   3.965
 4489TIP3    H134882   1.085   3.752   3.902
 4489TIP3    H234883   1.118   3.701   4.041
 4490TIP3   OH234884   2.758   4.426   4.476
 4490TIP3    H134885   2.813   4.404   4.551
 4490TIP3    H234886   2.743   4.342   4.432
 4491TIP3   OH234887   1.097   6.588  16.093
 4491TIP3    H134888   1.132   6.601  16.181
 4491TIP3    H234889   1.119   6.497  16.072
 4492TIP3   OH234890   4.470   5.952  11.697
 4492TIP3    H134891   4.546   6.010  11.699
 4492TIP3    H234892   4.425   5.970  11.780
 4493TIP3   OH234893   3.030   2.589   5.083
 4493TIP3    H134894   3.053   2.658   5.145
 4493TIP3    H234895   3.101   2.525   5.090
 4494TIP3   OH234896   3.808   2.580  14.238
 4494TIP3    H134897   3.887   2.555  14.286
 4494TIP3    H234898   3.752   2.620  14.305
 4495TIP3   OH234899   1.768   5.467   3.240
 4495TIP3    H134900   1.793   5.434   3.326
 4495TIP3    H234901   1.745   5.389   3.189
 4496TIP3   OH234902   2.239   5.140   5.347
 4496TIP3    H134903   2.328   5.130   5.381
 4496TIP3    H234904   2.224   5.059   5.297
 4497TIP3   OH234905   3.260   0.744  12.952
 4497TIP3    H134906   3.227   0.830  12.979
 4497TIP3    H234907   3.302   0.709  13.031
 4498TIP3   OH234908   5.009   1.453  15.342
 4498TIP3    H134909   5.049   1.366  15.342
 4498TIP3    H234910   5.082   1.513  15.326
 4499TIP3   OH234911   3.481   5.052  11.122
 4499TIP3    H134912   3.397   5.095  11.106
 4499TIP3    H234913   3.468   4.961  11.095
 4500TIP3   OH234914   5.234   0.420   1.337
 4500TIP3    H134915   5.184   0.464   1.405
 4500TIP3    H234916   5.170   0.365   1.292
 4501TIP3   OH234917   6.762   5.131  16.272
 4501TIP3    H134918   6.666   5.129  16.275
 4501TIP3    H234919   6.784   5.224  16.260
 4502TIP3   OH234920   5.251   4.506  11.161
 4502TIP3    H134921   5.324   4.488  11.102
 4502TIP3    H234922   5.287   4.495  11.249
 4503TIP3   OH234923   1.698   2.964   1.566
 4503TIP3    H134924   1.667   3.017   1.640
 4503TIP3    H234925   1.619   2.921   1.533
 4504TIP3   OH234926   4.805   3.100   0.067
 4504TIP3    H134927   4.901   3.105   0.063
 4504TIP3    H234928   4.778   3.187   0.099
 4505TIP3   OH234929   2.253   5.215  11.893
 4505TIP3    H134930   2.227   5.125  11.912
 4505TIP3    H234931   2.239   5.225  11.799
 4506TIP3   OH234932   5.312   0.193   5.017
 4506TIP3    H134933   5.325   0.098   5.011
 4506TIP3    H234934   5.271   0.206   5.102
 4507TIP3   OH234935   1.674   1.388   3.483
 4507TIP3    H134936   1.769   1.375   3.483
 4507TIP3    H234937   1.643   1.339   3.560
 4508TIP3   OH234938   0.545   2.368   4.639
 4508TIP3    H134939   0.641   2.367   4.631
 4508TIP3    H234940   0.525   2.453   4.677
 4509TIP3   OH234941   5.092   2.104  11.219
 4509TIP3    H134942   5.061   2.173  11.278
 4509TIP3    H234943   5.126   2.152  11.143
 4510TIP3   OH234944   6.452   4.816   2.568
 4510TIP3    H134945   6.371   4.856   2.600
 4510TIP3    H234946   6.432   4.791   2.478
 4511TIP3   OH234947   2.298   5.373   1.939
 4511TIP3    H134948   2.222   5.398   1.886
 4511TIP3    H234949   2.339   5.456   1.962
 4512TIP3   OH234950   3.888   2.666  11.142
 4512TIP3    H134951   3.889   2.705  11.229
 4512TIP3    H234952   3.822   2.716  11.094
 4513TIP3   OH234953   2.848   4.688   5.756
 4513TIP3    H134954   2.907   4.689   5.832
 4513TIP3    H234955   2.760   4.682   5.794
 4514TIP3   OH234956   1.367   5.310  17.087
 4514TIP3    H134957   1.373   5.292  16.993
 4514TIP3    H234958   1.283   5.354  17.098
 4515TIP3   OH234959   2.215   1.832  15.807
 4515TIP3    H134960   2.252   1.865  15.889
 4515TIP3    H234961   2.134   1.882  15.796
 4516TIP3   OH234962   6.766   2.039  12.783
 4516TIP3    H134963   6.731   1.962  12.738
 4516TIP3    H234964   6.806   2.005  12.863
 4517TIP3   OH234965   2.710   2.246   1.291
 4517TIP3    H134966   2.634   2.188   1.289
 4517TIP3    H234967   2.782   2.190   1.319
 4518TIP3   OH234968   0.470   3.894   1.171
 4518TIP3    H134969   0.433   3.950   1.103
 4518TIP3    H234970   0.549   3.941   1.200
 4519TIP3   OH234971   4.983   3.332  10.945
 4519TIP3    H134972   5.059   3.348  10.890
 4519TIP3    H234973   5.015   3.279  11.018
 4520TIP3   OH234974   2.290   0.942   0.983
 4520TIP3    H134975   2.320   0.852   0.987
 4520TIP3    H234976   2.355   0.987   0.929
 4521TIP3   OH234977   3.300   5.658   2.800
 4521TIP3    H134978   3.294   5.631   2.708
 4521TIP3    H234979   3.231   5.609   2.844
 4522TIP3   OH234980   5.863   6.189  10.738
 4522TIP3    H134981   5.910   6.264  10.775
 4522TIP3    H234982   5.777   6.223  10.715
 4523TIP3   OH234983   4.747   3.679   4.564
 4523TIP3    H134984   4.814   3.647   4.504
 4523TIP3    H234985   4.796   3.725   4.632
 4524TIP3   OH234986   2.915   4.458  11.061
 4524TIP3    H134987   2.886   4.439  11.150
 4524TIP3    H234988   2.856   4.528  11.031
 4525TIP3   OH234989   1.470   2.454  11.363
 4525TIP3    H134990   1.382   2.487  11.382
 4525TIP3    H234991   1.495   2.498  11.281
 4526TIP3   OH234992   4.555   3.617   0.253
 4526TIP3    H134993   4.493   3.647   0.320
 4526TIP3    H234994   4.528   3.663   0.174
 4527TIP3   OH234995   2.657   4.871  14.331
 4527TIP3    H134996   2.616   4.873  14.244
 4527TIP3    H234997   2.583   4.863  14.392
 4528TIP3   OH234998   0.912   4.661   2.136
 4528TIP3    H134999   0.968   4.685   2.210
 4528TIP3    H235000   0.826   4.697   2.157
 4529TIP3   OH235001   4.110   6.691   5.813
 4529TIP3    H135002   4.181   6.754   5.823
 4529TIP3    H235003   4.144   6.611   5.854
 4530TIP3   OH235004   4.871   1.904   3.698
 4530TIP3    H135005   4.823   1.987   3.698
 4530TIP3    H235006   4.954   1.923   3.654
 4531TIP3   OH235007   0.957   5.661   5.887
 4531TIP3    H135008   0.907   5.633   5.964
 4531TIP3    H235009   1.017   5.589   5.870
 4532TIP3   OH235010   0.289   5.698   2.719
 4532TIP3    H135011   0.348   5.622   2.720
 4532TIP3    H235012   0.214   5.672   2.772
 4533TIP3   OH235013   3.920   6.284  13.921
 4533TIP3    H135014   3.837   6.254  13.884
 4533TIP3    H235015   3.931   6.373  13.888
 4534TIP3   OH235016   4.469   2.743   5.125
 4534TIP3    H135017   4.531   2.758   5.054
 4534TIP3    H235018   4.463   2.828   5.170
 4535TIP3   OH235019   6.670   6.744  15.580
 4535TIP3    H135020   6.741   6.697  15.537
 4535TIP3    H235021   6.661   6.826  15.530
 4536TIP3   OH235022   0.127   5.459   4.545
 4536TIP3    H135023   0.185   5.449   4.470
 4536TIP3    H235024   0.100   5.370   4.567
 4537TIP3   OH235025   1.943   3.537   1.376
 4537TIP3    H135026   1.970   3.577   1.293
 4537TIP3    H235027   1.884   3.466   1.351
 4538TIP3   OH235028   6.222   2.597   2.858
 4538TIP3    H135029   6.152   2.612   2.921
 4538TIP3    H235030   6.223   2.676   2.804
 4539TIP3   OH235031   2.267   3.697  14.005
 4539TIP3    H135032   2.243   3.619  13.954
 4539TIP3    H235033   2.194   3.709  14.065
 4540TIP3   OH235034   0.823   3.100   5.421
 4540TIP3    H135035   0.764   3.141   5.358
 4540TIP3    H235036   0.793   3.010   5.428
 4541TIP3   OH235037   0.995   3.417   1.164
 4541TIP3    H135038   0.951   3.357   1.105
 4541TIP3    H235039   1.072   3.370   1.195
 4542TIP3   OH235040   2.399   4.482   0.277
 4542TIP3    H135041   2.397   4.394   0.315
 4542TIP3    H235042   2.342   4.476   0.200
 4543TIP3   OH235043   3.319   0.681  12.572
 4543TIP3    H135044   3.232   0.673  12.611
 4543TIP3    H235045   3.369   0.730  12.637
 4544TIP3   OH235046   0.226   4.341   2.134
 4544TIP3    H135047   0.238   4.247   2.149
 4544TIP3    H235048   0.166   4.346   2.060
 4545TIP3   OH235049   0.405   0.650  10.292
 4545TIP3    H135050   0.370   0.719  10.348
 4545TIP3    H235051   0.373   0.671  10.204
 4546TIP3   OH235052   2.155   4.477   3.555
 4546TIP3    H135053   2.209   4.536   3.609
 4546TIP3    H235054   2.069   4.479   3.596
 4547TIP3   OH235055   5.197   6.181  13.546
 4547TIP3    H135056   5.249   6.262  13.555
 4547TIP3    H235057   5.254   6.122  13.497
 4548TIP3   OH235058   4.325   0.982  16.629
 4548TIP3    H135059   4.263   1.033  16.681
 4548TIP3    H235060   4.274   0.950  16.555
 4549TIP3   OH235061   5.812   1.341   3.938
 4549TIP3    H135062   5.733   1.394   3.942
 4549TIP3    H235063   5.855   1.368   3.857
 4550TIP3   OH235064   5.092   3.210   5.610
 4550TIP3    H135065   5.075   3.119   5.583
 4550TIP3    H235066   5.127   3.202   5.699
 4551TIP3   OH235067   2.877   5.042   4.888
 4551TIP3    H135068   2.813   5.013   4.952
 4551TIP3    H235069   2.957   5.056   4.938
 4552TIP3   OH235070   3.451   4.092   0.816
 4552TIP3    H135071   3.513   4.149   0.862
 4552TIP3    H235072   3.507   4.031   0.768
 4553TIP3   OH235073   6.035   6.769   1.420
 4553TIP3    H135074   5.985   6.851   1.414
 4553TIP3    H235075   6.122   6.792   1.386
 4554TIP3   OH235076   6.177   5.333  14.571
 4554TIP3    H135077   6.122   5.266  14.610
 4554TIP3    H235078   6.262   5.324  14.614
 4555TIP3   OH235079   5.664   6.747  14.742
 4555TIP3    H135080   5.601   6.712  14.805
 4555TIP3    H235081   5.671   6.680  14.675
 4556TIP3   OH235082   4.716   4.835  16.801
 4556TIP3    H135083   4.743   4.757  16.849
 4556TIP3    H235084   4.666   4.801  16.726
 4557TIP3   OH235085   3.430   3.738  13.735
 4557TIP3    H135086   3.460   3.665  13.681
 4557TIP3    H235087   3.407   3.806  13.672
 4558TIP3   OH235088   4.409   3.225   5.910
 4558TIP3    H135089   4.460   3.306   5.907
 4558TIP3    H235090   4.361   3.229   5.992
 4559TIP3   OH235091   0.296   4.104   2.273
 4559TIP3    H135092   0.361   4.034   2.265
 4559TIP3    H235093   0.267   4.099   2.364
 4560TIP3   OH235094   5.642   0.321   0.679
 4560TIP3    H135095   5.664   0.350   0.767
 4560TIP3    H235096   5.651   0.399   0.625
 4561TIP3   OH235097   2.868   0.114   0.504
 4561TIP3    H135098   2.892   0.098   0.413
 4561TIP3    H235099   2.942   0.165   0.540
 4562TIP3   OH235100   2.763   0.931   1.561
 4562TIP3    H135101   2.708   0.866   1.605
 4562TIP3    H235102   2.715   0.952   1.480
 4563TIP3   OH235103   5.046   4.813   6.326
 4563TIP3    H135104   5.074   4.725   6.349
 4563TIP3    H235105   4.968   4.799   6.271
 4564TIP3   OH235106   6.030   2.083  16.698
 4564TIP3    H135107   6.116   2.058  16.733
 4564TIP3    H235108   6.042   2.084  16.603
 4565TIP3   OH235109   1.084   0.525  13.269
 4565TIP3    H135110   1.179   0.513  13.275
 4565TIP3    H235111   1.059   0.477  13.190
 4566TIP3   OH235112   5.883   5.720  14.065
 4566TIP3    H135113   5.960   5.677  14.103
 4566TIP3    H235114   5.809   5.666  14.092
 4567TIP3   OH235115   6.787   0.877   6.276
 4567TIP3    H135116   6.787   0.969   6.305
 4567TIP3    H235117   6.702   0.866   6.232
 4568TIP3   OH235118   0.649   1.883  13.827
 4568TIP3    H135119   0.649   1.906  13.919
 4568TIP3    H235120   0.739   1.899  13.798
 4569TIP3   OH235121   2.040   3.317   2.233
 4569TIP3    H135122   2.084   3.267   2.164
 4569TIP3    H235123   1.984   3.253   2.276
 4570TIP3   OH235124   6.222   0.386  16.736
 4570TIP3    H135125   6.281   0.326  16.690
 4570TIP3    H235126   6.225   0.466  16.685
 4571TIP3   OH235127   1.650   5.629  13.163
 4571TIP3    H135128   1.639   5.534  13.151
 4571TIP3    H235129   1.740   5.646  13.135
 4572TIP3   OH235130   4.359   6.232  14.202
 4572TIP3    H135131   4.303   6.155  14.190
 4572TIP3    H235132   4.313   6.302  14.156
 4573TIP3   OH235133   3.499   4.676  17.080
 4573TIP3    H135134   3.404   4.678  17.081
 4573TIP3    H235135   3.522   4.664  16.987
 4574TIP3   OH235136   5.026   2.156   3.189
 4574TIP3    H135137   5.060   2.233   3.144
 4574TIP3    H235138   4.972   2.111   3.124
 4575TIP3   OH235139   6.186   4.877   2.611
 4575TIP3    H135140   6.114   4.885   2.549
 4575TIP3    H235141   6.143   4.880   2.697
 4576TIP3   OH235142   5.458   2.177   3.194
 4576TIP3    H135143   5.451   2.239   3.121
 4576TIP3    H235144   5.528   2.211   3.248
 4577TIP3   OH235145   6.686   0.883  15.481
 4577TIP3    H135146   6.724   0.966  15.510
 4577TIP3    H235147   6.716   0.819  15.546
 4578TIP3   OH235148   0.487   1.731   3.301
 4578TIP3    H135149   0.475   1.808   3.356
 4578TIP3    H235150   0.556   1.755   3.240
 4579TIP3   OH235151   6.404   3.330  15.728
 4579TIP3    H135152   6.389   3.262  15.663
 4579TIP3    H235153   6.413   3.410  15.677
 4580TIP3   OH235154   0.853   2.161  14.285
 4580TIP3    H135155   0.910   2.102  14.334
 4580TIP3    H235156   0.824   2.226  14.350
 4581TIP3   OH235157   5.171   0.201  16.297
 4581TIP3    H135158   5.233   0.260  16.338
 4581TIP3    H235159   5.129   0.156  16.370
 4582TIP3   OH235160   3.388   3.327  13.045
 4582TIP3    H135161   3.476   3.359  13.065
 4582TIP3    H235162   3.385   3.325  12.949
 4583TIP3   OH235163   1.443   5.417   1.501
 4583TIP3    H135164   1.431   5.483   1.433
 4583TIP3    H235165   1.537   5.402   1.504
 4584TIP3   OH235166   2.616   3.848   2.489
 4584TIP3    H135167   2.524   3.866   2.508
 4584TIP3    H235168   2.636   3.768   2.536
 4585TIP3   OH235169   3.956   0.956  14.366
 4585TIP3    H135170   4.025   0.956  14.433
 4585TIP3    H235171   3.876   0.935  14.414
 4586TIP3   OH235172   1.937   2.592   3.932
 4586TIP3    H135173   1.948   2.507   3.890
 4586TIP3    H235174   1.928   2.653   3.859
 4587TIP3   OH235175   3.561   5.475  16.821
 4587TIP3    H135176   3.517   5.473  16.736
 4587TIP3    H235177   3.630   5.541  16.811
 4588TIP3   OH235178   4.307   5.169  13.196
 4588TIP3    H135179   4.251   5.232  13.151
 4588TIP3    H235180   4.396   5.202  13.182
 4589TIP3   OH235181   5.560   4.807   5.556
 4589TIP3    H135182   5.511   4.836   5.633
 4589TIP3    H235183   5.648   4.843   5.569
 4590TIP3   OH235184   3.289   0.521   5.959
 4590TIP3    H135185   3.376   0.501   5.924
 4590TIP3    H235186   3.305   0.555   6.046
 4591TIP3   OH235187   3.693   3.795   2.304
 4591TIP3    H135188   3.616   3.745   2.332
 4591TIP3    H235189   3.669   3.886   2.319
 4592TIP3   OH235190   3.344   4.272  13.253
 4592TIP3    H135191   3.324   4.190  13.298
 4592TIP3    H235192   3.292   4.268  13.172
 4593TIP3   OH235193   3.209   2.778   5.754
 4593TIP3    H135194   3.123   2.813   5.777
 4593TIP3    H235195   3.258   2.780   5.836
 4594TIP3   OH235196   6.062   6.193   0.813
 4594TIP3    H135197   6.031   6.235   0.892
 4594TIP3    H235198   6.004   6.225   0.744
 4595TIP3   OH235199   4.410   2.361  14.927
 4595TIP3    H135200   4.337   2.422  14.929
 4595TIP3    H235201   4.483   2.412  14.892
 4596TIP3   OH235202   1.119   3.242  13.570
 4596TIP3    H135203   1.149   3.332  13.571
 4596TIP3    H235204   1.086   3.229  13.481
 4597TIP3   OH235205   3.991   4.292  13.338
 4597TIP3    H135206   4.029   4.329  13.418
 4597TIP3    H235207   4.065   4.258  13.289
 4598TIP3   OH235208   2.363   0.579  12.199
 4598TIP3    H135209   2.317   0.581  12.283
 4598TIP3    H235210   2.414   0.498  12.202
 4599TIP3   OH235211   6.665   3.353  13.625
 4599TIP3    H135212   6.678   3.442  13.658
 4599TIP3    H235213   6.681   3.297  13.701
 4600TIP3   OH235214   0.265   2.969   4.967
 4600TIP3    H135215   0.230   3.000   4.884
 4600TIP3    H235216   0.234   2.878   4.973
 4601TIP3   OH235217   5.403   5.496  17.091
 4601TIP3    H135218   5.382   5.432  17.159
 4601TIP3    H235219   5.408   5.444  17.011
 4602TIP3   OH235220   5.628   1.469  13.080
 4602TIP3    H135221   5.633   1.544  13.020
 4602TIP3    H235222   5.641   1.507  13.167
 4603TIP3   OH235223   3.059   2.476   5.514
 4603TIP3    H135224   3.131   2.476   5.578
 4603TIP3    H235225   3.045   2.384   5.494
 4604TIP3   OH235226   4.841   1.708   4.427
 4604TIP3    H135227   4.753   1.706   4.389
 4604TIP3    H235228   4.834   1.771   4.499
 4605TIP3   OH235229   2.872   6.609   2.492
 4605TIP3    H135230   2.959   6.623   2.530
 4605TIP3    H235231   2.814   6.660   2.548
 4606TIP3   OH235232   4.592   4.189   0.639
 4606TIP3    H135233   4.520   4.138   0.602
 4606TIP3    H235234   4.568   4.201   0.731
 4607TIP3   OH235235   5.250   4.494   2.547
 4607TIP3    H135236   5.186   4.554   2.507
 4607TIP3    H235237   5.198   4.418   2.574
 4608TIP3   OH235238   4.050   0.399   3.553
 4608TIP3    H135239   4.055   0.434   3.464
 4608TIP3    H235240   4.002   0.465   3.603
 4609TIP3   OH235241   1.621   1.149   5.353
 4609TIP3    H135242   1.612   1.054   5.363
 4609TIP3    H235243   1.555   1.173   5.289
 4610TIP3   OH235244   6.764   3.153  15.425
 4610TIP3    H135245   6.711   3.233  15.429
 4610TIP3    H235246   6.803   3.145  15.511
 4611TIP3   OH235247   4.852   1.244  17.152
 4611TIP3    H135248   4.805   1.322  17.122
 4611TIP3    H235249   4.888   1.269  17.237
 4612TIP3   OH235250   3.780   5.505  14.485
 4612TIP3    H135251   3.694   5.544  14.477
 4612TIP3    H235252   3.839   5.579  14.502
 4613TIP3   OH235253   4.709   0.192   4.315
 4613TIP3    H135254   4.677   0.118   4.367
 4613TIP3    H235255   4.768   0.239   4.374
 4614TIP3   OH235256   3.506   4.593  16.280
 4614TIP3    H135257   3.441   4.593  16.209
 4614TIP3    H235258   3.531   4.685  16.288
 4615TIP3   OH235259   3.446   6.380  12.793
 4615TIP3    H135260   3.390   6.435  12.738
 4615TIP3    H235261   3.410   6.390  12.881
 4616TIP3   OH235262   5.395   3.194   3.968
 4616TIP3    H135263   5.489   3.186   3.982
 4616TIP3    H235264   5.356   3.131   4.029
 4617TIP3   OH235265   5.908   5.073   0.910
 4617TIP3    H135266   5.918   4.982   0.936
 4617TIP3    H235267   5.816   5.082   0.885
 4618TIP3   OH235268   0.794   1.977   0.983
 4618TIP3    H135269   0.820   2.068   0.996
 4618TIP3    H235270   0.875   1.931   0.961
 4619TIP3   OH235271   5.985   3.036   4.159
 4619TIP3    H135272   5.907   3.051   4.105
 4619TIP3    H235273   5.952   2.993   4.238
 4620TIP3   OH235274   5.067   3.277  12.846
 4620TIP3    H135275   4.989   3.285  12.790
 4620TIP3    H235276   5.116   3.358  12.831
 4621TIP3   OH235277   6.109   1.511   4.004
 4621TIP3    H135278   6.128   1.500   4.097
 4621TIP3    H235279   6.014   1.506   3.998
 4622TIP3   OH235280   5.405   4.407  14.503
 4622TIP3    H135281   5.377   4.441  14.418
 4622TIP3    H235282   5.340   4.340  14.524
 4623TIP3   OH235283   6.057   3.947   3.952
 4623TIP3    H135284   6.047   4.038   3.925
 4623TIP3    H235285   6.040   3.947   4.046
 4624TIP3   OH235286   5.818   6.131   0.025
 4624TIP3    H135287   5.726   6.105   0.017
 4624TIP3    H235288   5.867   6.049   0.027
 4625TIP3   OH235289   0.335   0.848   5.702
 4625TIP3    H135290   0.296   0.912   5.642
 4625TIP3    H235291   0.275   0.774   5.700
 4626TIP3   OH235292   4.011   0.811  15.932
 4626TIP3    H135293   3.943   0.843  15.992
 4626TIP3    H235294   3.984   0.722  15.910
 4627TIP3   OH235295   1.867   3.213   5.302
 4627TIP3    H135296   1.804   3.141   5.290
 4627TIP3    H235297   1.951   3.169   5.315
 4628TIP3   OH235298   5.440   1.358  16.373
 4628TIP3    H135299   5.464   1.301  16.447
 4628TIP3    H235300   5.383   1.424  16.412
 4629TIP3   OH235301   1.982   3.847   2.311
 4629TIP3    H135302   1.993   3.784   2.239
 4629TIP3    H235303   1.918   3.910   2.277
 4630TIP3   OH235304   4.606   3.637  13.304
 4630TIP3    H135305   4.579   3.620  13.394
 4630TIP3    H235306   4.659   3.717  13.309
 4631TIP3   OH235307   0.552   5.751   1.735
 4631TIP3    H135308   0.465   5.767   1.771
 4631TIP3    H235309   0.606   5.730   1.812
 4632TIP3   OH235310   3.994   0.013  12.211
 4632TIP3    H135311   4.044   0.015  12.293
 4632TIP3    H235312   4.051   0.056  12.148
 4633TIP3   OH235313   2.565   0.632  16.575
 4633TIP3    H135314   2.652   0.636  16.536
 4633TIP3    H235315   2.506   0.633  16.500
 4634TIP3   OH235316   3.693   5.987   4.983
 4634TIP3    H135317   3.682   6.069   5.031
 4634TIP3    H235318   3.611   5.939   4.996
 4635TIP3   OH235319   4.529   4.562   4.964
 4635TIP3    H135320   4.467   4.572   5.037
 4635TIP3    H235321   4.614   4.558   5.007
 4636TIP3   OH235322   1.220   3.256   2.517
 4636TIP3    H135323   1.313   3.267   2.536
 4636TIP3    H235324   1.197   3.173   2.559
 4637TIP3   OH235325   2.802   0.842   2.357
 4637TIP3    H135326   2.752   0.885   2.426
 4637TIP3    H235327   2.894   0.857   2.381
 4638TIP3   OH235328   0.505   4.132   4.143
 4638TIP3    H135329   0.539   4.188   4.073
 4638TIP3    H235330   0.411   4.146   4.142
 4639TIP3   OH235331   4.456   4.448  14.314
 4639TIP3    H135332   4.376   4.494  14.338
 4639TIP3    H235333   4.516   4.466  14.386
 4640TIP3   OH235334   6.724   0.455  11.811
 4640TIP3    H135335   6.716   0.480  11.719
 4640TIP3    H235336   6.734   0.359  11.810
 4641TIP3   OH235337   3.896   0.914   4.006
 4641TIP3    H135338   3.929   0.849   3.945
 4641TIP3    H235339   3.974   0.953   4.045
 4642TIP3   OH235340   2.035   1.123   3.372
 4642TIP3    H135341   2.069   1.035   3.390
 4642TIP3    H235342   2.112   1.176   3.356
 4643TIP3   OH235343   2.453   1.565   0.421
 4643TIP3    H135344   2.502   1.483   0.428
 4643TIP3    H235345   2.439   1.593   0.511
 4644TIP3   OH235346   6.776   1.387  17.039
 4644TIP3    H135347   6.793   1.295  17.057
 4644TIP3    H235348   6.711   1.413  17.104
 4645TIP3   OH235349   2.068   0.859   1.608
 4645TIP3    H135350   2.012   0.841   1.533
 4645TIP3    H235351   2.068   0.778   1.658
 4646TIP3   OH235352   5.541   1.128   6.217
 4646TIP3    H135353   5.493   1.047   6.238
 4646TIP3    H235354   5.472   1.193   6.202
 4647TIP3   OH235355   4.017   2.606  15.148
 4647TIP3    H135356   4.001   2.516  15.176
 4647TIP3    H235357   4.052   2.650  15.225
 4648TIP3   OH235358   2.704   0.807  11.216
 4648TIP3    H135359   2.788   0.784  11.255
 4648TIP3    H235360   2.646   0.733  11.236
 4649TIP3   OH235361   3.131   5.818  15.038
 4649TIP3    H135362   3.096   5.903  15.011
 4649TIP3    H235363   3.065   5.755  15.012
 4650TIP3   OH235364   3.118   4.722   6.508
 4650TIP3    H135365   3.206   4.698   6.540
 4650TIP3    H235366   3.082   4.777   6.577
 4651TIP3   OH235367   5.751   2.466   2.130
 4651TIP3    H135368   5.685   2.463   2.060
 4651TIP3    H235369   5.828   2.425   2.092
 4652TIP3   OH235370   2.513   4.543  14.453
 4652TIP3    H135371   2.556   4.462  14.425
 4652TIP3    H235372   2.468   4.574  14.374
 4653TIP3   OH235373   2.412   4.049   0.085
 4653TIP3    H135374   2.351   4.021   0.017
 4653TIP3    H235375   2.447   3.967   0.121
 4654TIP3   OH235376   2.777   5.089   0.351
 4654TIP3    H135377   2.807   5.173   0.384
 4654TIP3    H235378   2.693   5.075   0.395
 4655TIP3   OH235379   5.217   6.711   1.644
 4655TIP3    H135380   5.210   6.629   1.595
 4655TIP3    H235381   5.251   6.774   1.580
 4656TIP3   OH235382   0.396   2.257   1.624
 4656TIP3    H135383   0.384   2.172   1.581
 4656TIP3    H235384   0.431   2.235   1.710
 4657TIP3   OH235385   4.805   6.534  12.902
 4657TIP3    H135386   4.750   6.473  12.950
 4657TIP3    H235387   4.758   6.617  12.905
 4658TIP3   OH235388   2.928   0.568   3.076
 4658TIP3    H135389   2.955   0.631   3.143
 4658TIP3    H235390   2.836   0.590   3.058
 4659TIP3   OH235391   6.345   1.541  12.636
 4659TIP3    H135392   6.306   1.536  12.723
 4659TIP3    H235393   6.433   1.504  12.646
 4660TIP3   OH235394   3.166   6.650  14.622
 4660TIP3    H135395   3.189   6.662  14.714
 4660TIP3    H235396   3.082   6.693  14.611
 4661TIP3   OH235397   5.617   5.394  13.188
 4661TIP3    H135398   5.594   5.474  13.236
 4661TIP3    H235399   5.703   5.371  13.220
 4662TIP3   OH235400   4.864   4.655   6.154
 4662TIP3    H135401   4.885   4.570   6.191
 4662TIP3    H235402   4.768   4.657   6.151
 4663TIP3   OH235403   3.375   4.464   4.414
 4663TIP3    H135404   3.402   4.443   4.503
 4663TIP3    H235405   3.285   4.496   4.423
 4664TIP3   OH235406   5.588   2.001   2.688
 4664TIP3    H135407   5.602   1.982   2.781
 4664TIP3    H235408   5.498   1.973   2.671
 4665TIP3   OH235409   6.745   6.173   4.317
 4665TIP3    H135410   6.766   6.082   4.296
 4665TIP3    H235411   6.769   6.222   4.238
 4666TIP3   OH235412   2.405   2.455  16.558
 4666TIP3    H135413   2.338   2.425  16.619
 4666TIP3    H235414   2.414   2.385  16.494
 4667TIP3   OH235415   0.065   5.367   0.933
 4667TIP3    H135416   0.013   5.354   1.013
 4667TIP3    H235417   0.026   5.444   0.893
 4668TIP3   OH235418   5.939   2.046   0.511
 4668TIP3    H135419   5.887   2.125   0.519
 4668TIP3    H235420   5.914   2.010   0.425
 4669TIP3   OH235421   1.519   2.224  11.533
 4669TIP3    H135422   1.509   2.307  11.486
 4669TIP3    H235423   1.612   2.221  11.557
 4670TIP3   OH235424   3.755   3.972  11.683
 4670TIP3    H135425   3.845   3.983  11.716
 4670TIP3    H235426   3.760   3.997  11.591
 4671TIP3   OH235427   5.017   3.751  12.501
 4671TIP3    H135428   4.975   3.788  12.579
 4671TIP3    H235429   5.035   3.826  12.445
 4672TIP3   OH235430   2.160   0.987  12.474
 4672TIP3    H135431   2.252   0.986  12.501
 4672TIP3    H235432   2.144   1.077  12.445
 4673TIP3   OH235433   5.697   3.783   5.205
 4673TIP3    H135434   5.621   3.778   5.263
 4673TIP3    H235435   5.767   3.816   5.262
 4674TIP3   OH235436   4.623   1.091   1.058
 4674TIP3    H135437   4.551   1.033   1.085
 4674TIP3    H235438   4.669   1.042   0.991
 4675TIP3   OH235439   4.527   0.175   5.032
 4675TIP3    H135440   4.582   0.251   5.013
 4675TIP3    H235441   4.574   0.101   4.994
 4676TIP3   OH235442   3.905   0.375   2.533
 4676TIP3    H135443   3.956   0.452   2.509
 4676TIP3    H235444   3.814   0.406   2.534
 4677TIP3   OH235445   2.865   5.044   3.030
 4677TIP3    H135446   2.802   5.067   3.098
 4677TIP3    H235447   2.829   5.081   2.950
 4678TIP3   OH235448   1.501   2.889  12.263
 4678TIP3    H135449   1.548   2.967  12.232
 4678TIP3    H235450   1.562   2.846  12.323
 4679TIP3   OH235451   4.706   6.023  15.430
 4679TIP3    H135452   4.666   5.957  15.487
 4679TIP3    H235453   4.635   6.054  15.375
 4680TIP3   OH235454   1.738   3.651  14.485
 4680TIP3    H135455   1.689   3.577  14.451
 4680TIP3    H235456   1.743   3.712  14.411
 4681TIP3   OH235457   0.683   0.669  11.883
 4681TIP3    H135458   0.737   0.590  11.897
 4681TIP3    H235459   0.600   0.649  11.925
 4682TIP3   OH235460   4.399   3.539   1.435
 4682TIP3    H135461   4.480   3.501   1.469
 4682TIP3    H235462   4.407   3.532   1.340
 4683TIP3   OH235463   6.588   1.506   5.765
 4683TIP3    H135464   6.653   1.530   5.832
 4683TIP3    H235465   6.605   1.567   5.693
 4684TIP3   OH235466   1.060   2.555   0.464
 4684TIP3    H135467   1.155   2.540   0.465
 4684TIP3    H235468   1.023   2.468   0.450
 4685TIP3   OH235469   5.570   1.052  10.969
 4685TIP3    H135470   5.657   1.061  11.008
 4685TIP3    H235471   5.583   0.992  10.896
 4686TIP3   OH235472   5.627   3.644   4.731
 4686TIP3    H135473   5.654   3.704   4.801
 4686TIP3    H235474   5.538   3.669   4.710
 4687TIP3   OH235475   4.051   2.734   6.494
 4687TIP3    H135476   4.044   2.778   6.579
 4687TIP3    H235477   4.119   2.667   6.507
 4688TIP3   OH235478   5.702   6.701   2.712
 4688TIP3    H135479   5.775   6.742   2.758
 4688TIP3    H235480   5.626   6.718   2.768
 4689TIP3   OH235481   6.120   0.219  12.168
 4689TIP3    H135482   6.163   0.223  12.253
 4689TIP3    H235483   6.059   0.293  12.169
 4690TIP3   OH235484   3.711   5.226  16.844
 4690TIP3    H135485   3.659   5.288  16.895
 4690TIP3    H235486   3.662   5.143  16.850
 4691TIP3   OH235487   0.812   1.533  11.858
 4691TIP3    H135488   0.873   1.605  11.843
 4691TIP3    H235489   0.858   1.474  11.919
 4692TIP3   OH235490   1.801   5.368   4.741
 4692TIP3    H135491   1.806   5.358   4.646
 4692TIP3    H235492   1.732   5.433   4.755
 4693TIP3   OH235493   5.678   0.865   0.899
 4693TIP3    H135494   5.674   0.950   0.855
 4693TIP3    H235495   5.741   0.879   0.970
 4694TIP3   OH235496   3.442   4.416  13.841
 4694TIP3    H135497   3.424   4.503  13.877
 4694TIP3    H235498   3.391   4.412  13.761
 4695TIP3   OH235499   2.933   3.420   5.395
 4695TIP3    H135500   2.939   3.354   5.326
 4695TIP3    H235501   2.846   3.459   5.383
 4696TIP3   OH235502   3.471   5.855  13.273
 4696TIP3    H135503   3.555   5.841  13.230
 4696TIP3    H235504   3.410   5.874  13.202
 4697TIP3   OH235505   2.781   6.487  15.201
 4697TIP3    H135506   2.788   6.512  15.109
 4697TIP3    H235507   2.688   6.495  15.222
 4698TIP3   OH235508   2.376   1.002  11.966
 4698TIP3    H135509   2.303   0.995  12.028
 4698TIP3    H235510   2.452   1.023  12.019
 4699TIP3   OH235511   5.865   0.232  11.161
 4699TIP3    H135512   5.819   0.306  11.121
 4699TIP3    H235513   5.855   0.246  11.255
 4700TIP3   OH235514   1.953   3.614  12.395
 4700TIP3    H135515   1.952   3.574  12.308
 4700TIP3    H235516   1.876   3.671  12.395
 4701TIP3   OH235517   4.712   1.149   5.493
 4701TIP3    H135518   4.762   1.104   5.425
 4701TIP3    H235519   4.622   1.119   5.480
 4702TIP3   OH235520   6.614   2.308  15.345
 4702TIP3    H135521   6.670   2.303  15.268
 4702TIP3    H235522   6.672   2.339  15.415
 4703TIP3   OH235523   4.713   3.080  15.986
 4703TIP3    H135524   4.640   3.020  15.969
 4703TIP3    H235525   4.791   3.029  15.965
 4704TIP3   OH235526   1.625   5.919  17.138
 4704TIP3    H135527   1.561   5.848  17.141
 4704TIP3    H235528   1.573   5.998  17.127
 4705TIP3   OH235529   0.829   3.554  15.332
 4705TIP3    H135530   0.919   3.521  15.334
 4705TIP3    H235531   0.829   3.627  15.394
 4706TIP3   OH235532   5.356   0.111  15.714
 4706TIP3    H135533   5.353   0.108  15.810
 4706TIP3    H235534   5.332   0.201  15.691
 4707TIP3   OH235535   3.799   2.845   3.096
 4707TIP3    H135536   3.818   2.765   3.047
 4707TIP3    H235537   3.818   2.916   3.036
 4708TIP3   OH235538   5.852   5.820  12.331
 4708TIP3    H135539   5.910   5.757  12.374
 4708TIP3    H235540   5.772   5.819  12.383
 4709TIP3   OH235541   3.326   0.196  13.029
 4709TIP3    H135542   3.298   0.142  13.102
 4709TIP3    H235543   3.267   0.173  12.957
 4710TIP3   OH235544   2.262   2.973   4.445
 4710TIP3    H135545   2.236   2.882   4.437
 4710TIP3    H235546   2.357   2.971   4.445
 4711TIP3   OH235547   6.666   6.396   1.673
 4711TIP3    H135548   6.700   6.363   1.589
 4711TIP3    H235549   6.704   6.483   1.681
 4712TIP3   OH235550   5.125   4.357  13.359
 4712TIP3    H135551   5.100   4.266  13.380
 4712TIP3    H235552   5.206   4.349  13.309
 4713TIP3   OH235553   2.875   1.742  11.329
 4713TIP3    H135554   2.835   1.748  11.242
 4713TIP3    H235555   2.920   1.825  11.341
 4714TIP3   OH235556   2.340   4.583  11.083
 4714TIP3    H135557   2.319   4.608  10.993
 4714TIP3    H235558   2.435   4.593  11.088
 4715TIP3   OH235559   4.316   0.216   6.034
 4715TIP3    H135560   4.303   0.211   6.129
 4715TIP3    H235561   4.372   0.293   6.022
 4716TIP3   OH235562   1.269   5.576  13.280
 4716TIP3    H135563   1.185   5.566  13.237
 4716TIP3    H235564   1.334   5.555  13.212
 4717TIP3   OH235565   3.075   3.552   6.558
 4717TIP3    H135566   3.015   3.577   6.628
 4717TIP3    H235567   3.029   3.576   6.478
 4718TIP3   OH235568   5.117   1.767  12.980
 4718TIP3    H135569   5.083   1.773  13.070
 4718TIP3    H235570   5.045   1.727  12.931
 4719TIP3   OH235571   4.235   6.121  11.838
 4719TIP3    H135572   4.259   6.207  11.804
 4719TIP3    H235573   4.158   6.096  11.788
 4720TIP3   OH235574   6.513   4.984   4.079
 4720TIP3    H135575   6.502   4.991   3.984
 4720TIP3    H235576   6.607   4.992   4.093
 4721TIP3   OH235577   0.340   2.978   5.618
 4721TIP3    H135578   0.428   2.941   5.628
 4721TIP3    H235579   0.287   2.931   5.682
 4722TIP3   OH235580   3.610   5.735   4.738
 4722TIP3    H135581   3.553   5.801   4.698
 4722TIP3    H235582   3.592   5.741   4.832
 4723TIP3   OH235583   4.128   2.161   5.691
 4723TIP3    H135584   4.057   2.162   5.755
 4723TIP3    H235585   4.192   2.099   5.728
 4724TIP3   OH235586   5.181   3.168   2.813
 4724TIP3    H135587   5.239   3.144   2.740
 4724TIP3    H235588   5.093   3.155   2.777
 4725TIP3   OH235589   0.576   3.067  13.558
 4725TIP3    H135590   0.524   3.075  13.638
 4725TIP3    H235591   0.660   3.032  13.588
 4726TIP3   OH235592   5.507   4.238  14.096
 4726TIP3    H135593   5.455   4.173  14.049
 4726TIP3    H235594   5.468   4.322  14.072
 4727TIP3   OH235595   3.652   3.129   4.801
 4727TIP3    H135596   3.620   3.165   4.719
 4727TIP3    H235597   3.685   3.204   4.849
 4728TIP3   OH235598   3.563   0.564  11.560
 4728TIP3    H135599   3.484   0.538  11.607
 4728TIP3    H235600   3.628   0.579  11.628
 4729TIP3   OH235601   1.217   0.463  14.855
 4729TIP3    H135602   1.276   0.504  14.918
 4729TIP3    H235603   1.262   0.472  14.771
 4730TIP3   OH235604   3.211   2.014  11.639
 4730TIP3    H135605   3.301   1.987  11.658
 4730TIP3    H235606   3.179   1.949  11.576
 4731TIP3   OH235607   4.099   1.768   1.371
 4731TIP3    H135608   4.180   1.737   1.330
 4731TIP3    H235609   4.097   1.724   1.456
 4732TIP3   OH235610   5.694   1.964   5.105
 4732TIP3    H135611   5.757   1.947   5.175
 4732TIP3    H235612   5.744   2.012   5.039
 4733TIP3   OH235613   2.141   4.657  14.453
 4733TIP3    H135614   2.080   4.727  14.474
 4733TIP3    H235615   2.202   4.655  14.527
 4734TIP3   OH235616   0.278   5.971   3.732
 4734TIP3    H135617   0.331   5.918   3.792
 4734TIP3    H235618   0.206   6.003   3.786
 4735TIP3   OH235619   5.747   4.480   0.995
 4735TIP3    H135620   5.770   4.539   0.923
 4735TIP3    H235621   5.765   4.531   1.074
 4736TIP3   OH235622   3.396   5.637   0.533
 4736TIP3    H135623   3.381   5.698   0.461
 4736TIP3    H235624   3.381   5.551   0.495
 4737TIP3   OH235625   4.936   5.868  15.909
 4737TIP3    H135626   4.912   5.954  15.873
 4737TIP3    H235627   4.957   5.886  16.000
 4738TIP3   OH235628   5.077   3.885   0.839
 4738TIP3    H135629   5.131   3.961   0.819
 4738TIP3    H235630   4.990   3.921   0.855
 4739TIP3   OH235631   2.601   5.807  11.628
 4739TIP3    H135632   2.680   5.754  11.631
 4739TIP3    H235633   2.605   5.853  11.544
 4740TIP3   OH235634   3.529   1.242   4.034
 4740TIP3    H135635   3.455   1.203   4.080
 4740TIP3    H235636   3.490   1.303   3.972
 4741TIP3   OH235637   3.255   5.700   5.086
 4741TIP3    H135638   3.251   5.652   5.004
 4741TIP3    H235639   3.224   5.788   5.064
 4742TIP3   OH235640   5.311   5.284   2.737
 4742TIP3    H135641   5.360   5.357   2.776
 4742TIP3    H235642   5.379   5.227   2.700
 4743TIP3   OH235643   0.975   0.308  14.767
 4743TIP3    H135644   0.910   0.364  14.726
 4743TIP3    H235645   1.058   0.355  14.756
 4744TIP3   OH235646   2.230   5.749  10.846
 4744TIP3    H135647   2.296   5.682  10.825
 4744TIP3    H235648   2.150   5.716  10.805
 4745TIP3   OH235649   1.486   6.454   0.865
 4745TIP3    H135650   1.505   6.453   0.958
 4745TIP3    H235651   1.390   6.449   0.860
 4746TIP3   OH235652   1.951   1.822  16.576
 4746TIP3    H135653   1.927   1.836  16.667
 4746TIP3    H235654   1.871   1.842  16.527
 4747TIP3   OH235655   1.223   1.464   2.541
 4747TIP3    H135656   1.170   1.466   2.620
 4747TIP3    H235657   1.237   1.371   2.524
 4748TIP3   OH235658   4.671   4.557  13.476
 4748TIP3    H135659   4.649   4.467  13.451
 4748TIP3    H235660   4.619   4.573  13.555
 4749TIP3   OH235661   6.316   0.143  11.852
 4749TIP3    H135662   6.240   0.106  11.807
 4749TIP3    H235663   6.329   0.086  11.928
 4750TIP3   OH235664   0.719   4.195   3.223
 4750TIP3    H135665   0.749   4.161   3.308
 4750TIP3    H235666   0.710   4.118   3.168
 4751TIP3   OH235667   3.733   1.025   1.325
 4751TIP3    H135668   3.778   1.106   1.347
 4751TIP3    H235669   3.661   1.052   1.268
 4752TIP3   OH235670   3.388   1.630  13.412
 4752TIP3    H135671   3.379   1.580  13.331
 4752TIP3    H235672   3.431   1.570  13.472
 4753TIP3   OH235673   5.346   1.668   5.272
 4753TIP3    H135674   5.286   1.650   5.344
 4753TIP3    H235675   5.426   1.620   5.295
 4754TIP3   OH235676   3.404   2.101   1.893
 4754TIP3    H135677   3.404   2.155   1.815
 4754TIP3    H235678   3.497   2.084   1.910
 4755TIP3   OH235679   4.916   3.890  11.921
 4755TIP3    H135680   4.932   3.945  11.843
 4755TIP3    H235681   4.825   3.862  11.913
 4756TIP3   OH235682   5.604   1.989  16.420
 4756TIP3    H135683   5.515   2.021  16.413
 4756TIP3    H235684   5.597   1.909  16.473
 4757TIP3   OH235685   6.694   1.955  13.292
 4757TIP3    H135686   6.689   2.042  13.251
 4757TIP3    H235687   6.603   1.925  13.297
 4758TIP3   OH235688   2.836   4.275   1.357
 4758TIP3    H135689   2.919   4.260   1.403
 4758TIP3    H235690   2.828   4.199   1.299
 4759TIP3   OH235691   1.619   2.991  16.843
 4759TIP3    H135692   1.542   2.981  16.900
 4759TIP3    H235693   1.684   3.035  16.898
 4760TIP3   OH235694   1.768   2.373   3.532
 4760TIP3    H135695   1.713   2.434   3.580
 4760TIP3    H235696   1.854   2.416   3.528
 4761TIP3   OH235697   2.731   1.518   4.920
 4761TIP3    H135698   2.761   1.466   4.845
 4761TIP3    H235699   2.762   1.607   4.901
 4762TIP3   OH235700   5.436   5.099   3.579
 4762TIP3    H135701   5.522   5.058   3.584
 4762TIP3    H235702   5.443   5.174   3.638
 4763TIP3   OH235703   3.154   6.724   3.396
 4763TIP3    H135704   3.106   6.660   3.449
 4763TIP3    H235705   3.101   6.804   3.400
 4764TIP3   OH235706   4.065   3.258   3.515
 4764TIP3    H135707   3.980   3.223   3.543
 4764TIP3    H235708   4.094   3.312   3.589
 4765TIP3   OH235709   5.797   2.768   1.012
 4765TIP3    H135710   5.710   2.757   0.973
 4765TIP3    H235711   5.807   2.692   1.070
 4766TIP3   OH235712   6.236   4.839   0.612
 4766TIP3    H135713   6.268   4.883   0.533
 4766TIP3    H235714   6.216   4.750   0.583
 4767TIP3   OH235715   1.998   2.856   4.643
 4767TIP3    H135716   2.046   2.777   4.670
 4767TIP3    H235717   1.911   2.844   4.680
 4768TIP3   OH235718   6.760   6.522  12.503
 4768TIP3    H135719   6.692   6.565  12.555
 4768TIP3    H235720   6.787   6.448  12.557
 4769TIP3   OH235721   1.635   2.245  15.834
 4769TIP3    H135722   1.545   2.221  15.814
 4769TIP3    H235723   1.674   2.264  15.749
 4770TIP3   OH235724   6.588   2.359   4.559
 4770TIP3    H135725   6.657   2.316   4.610
 4770TIP3    H235726   6.606   2.334   4.469
 4771TIP3   OH235727   3.321   5.937   5.295
 4771TIP3    H135728   3.337   6.029   5.314
 4771TIP3    H235729   3.240   5.936   5.244
 4772TIP3   OH235730   0.619   1.713   0.829
 4772TIP3    H135731   0.542   1.769   0.815
 4772TIP3    H235732   0.694   1.771   0.817
 4773TIP3   OH235733   0.961   6.418  13.135
 4773TIP3    H135734   0.896   6.394  13.201
 4773TIP3    H235735   1.045   6.394  13.173
 4774TIP3   OH235736   0.838   1.414  12.737
 4774TIP3    H135737   0.892   1.336  12.721
 4774TIP3    H235738   0.751   1.380  12.755
 4775TIP3   OH235739   4.984   3.214   4.014
 4775TIP3    H135740   4.990   3.261   3.931
 4775TIP3    H235741   5.047   3.259   4.071
 4776TIP3   OH235742   4.870   4.482   0.363
 4776TIP3    H135743   4.840   4.401   0.403
 4776TIP3    H235744   4.874   4.545   0.435
 4777TIP3   OH235745   5.650   0.213  11.928
 4777TIP3    H135746   5.705   0.181  11.999
 4777TIP3    H235747   5.665   0.153  11.855
 4778TIP3   OH235748   6.107   0.218  12.519
 4778TIP3    H135749   6.023   0.212  12.563
 4778TIP3    H235750   6.158   0.145  12.555
 4779TIP3   OH235751   1.563   0.389   4.648
 4779TIP3    H135752   1.571   0.438   4.730
 4779TIP3    H235753   1.483   0.423   4.607
 4780TIP3   OH235754   1.490   3.651   1.060
 4780TIP3    H135755   1.531   3.618   1.141
 4780TIP3    H235756   1.475   3.572   1.008
 4781TIP3   OH235757   5.460   5.466   0.438
 4781TIP3    H135758   5.442   5.374   0.458
 4781TIP3    H235759   5.454   5.511   0.522
 4782TIP3   OH235760   0.336   1.032  16.317
 4782TIP3    H135761   0.385   0.951  16.326
 4782TIP3    H235762   0.378   1.093  16.378
 4783TIP3   OH235763   6.079   4.371   3.343
 4783TIP3    H135764   6.136   4.294   3.343
 4783TIP3    H235765   5.991   4.335   3.329
 4784TIP3   OH235766   5.222   6.510  15.816
 4784TIP3    H135767   5.296   6.529  15.759
 4784TIP3    H235768   5.236   6.419  15.843
 4785TIP3   OH235769   3.033   0.088  13.805
 4785TIP3    H135770   3.082   0.050  13.878
 4785TIP3    H235771   3.012   0.176  13.833
 4786TIP3   OH235772   1.216   2.687  13.542
 4786TIP3    H135773   1.163   2.638  13.604
 4786TIP3    H235774   1.188   2.655  13.456
 4787TIP3   OH235775   3.737   0.695  13.876
 4787TIP3    H135776   3.646   0.715  13.898
 4787TIP3    H235777   3.771   0.650  13.953
 4788TIP3   OH235778   2.525   5.813  11.002
 4788TIP3    H135779   2.526   5.763  10.920
 4788TIP3    H235780   2.459   5.880  10.988
 4789TIP3   OH235781   0.701   4.512   1.991
 4789TIP3    H135782   0.769   4.559   2.040
 4789TIP3    H235783   0.622   4.564   2.002
 4790TIP3   OH235784   5.685   1.978   1.557
 4790TIP3    H135785   5.643   1.897   1.583
 4790TIP3    H235786   5.714   2.018   1.639
 4791TIP3   OH235787   6.179   2.541   1.571
 4791TIP3    H135788   6.220   2.534   1.485
 4791TIP3    H235789   6.142   2.455   1.588
 4792TIP3   OH235790   1.080   1.875   0.903
 4792TIP3    H135791   1.049   1.785   0.904
 4792TIP3    H235792   1.151   1.877   0.967
 4793TIP3   OH235793   6.455   3.311   6.729
 4793TIP3    H135794   6.413   3.385   6.773
 4793TIP3    H235795   6.527   3.351   6.679
 4794TIP3   OH235796   1.920   1.595   1.876
 4794TIP3    H135797   1.968   1.579   1.957
 4794TIP3    H235798   1.890   1.685   1.883
 4795TIP3   OH235799   5.032   5.629  11.087
 4795TIP3    H135800   5.014   5.565  11.156
 4795TIP3    H235801   5.110   5.595  11.043
 4796TIP3   OH235802   4.949   2.723  12.752
 4796TIP3    H135803   4.953   2.633  12.785
 4796TIP3    H235804   4.863   2.731  12.712
 4797TIP3   OH235805   3.780   0.476   1.293
 4797TIP3    H135806   3.815   0.565   1.301
 4797TIP3    H235807   3.687   0.485   1.312
 4798TIP3   OH235808   3.259   3.968   4.237
 4798TIP3    H135809   3.294   3.902   4.296
 4798TIP3    H235810   3.290   4.051   4.273
 4799TIP3   OH235811   5.866   6.345   4.392
 4799TIP3    H135812   5.940   6.294   4.422
 4799TIP3    H235813   5.858   6.416   4.455
 4800TIP3   OH235814   5.190   3.339  15.310
 4800TIP3    H135815   5.227   3.299  15.231
 4800TIP3    H235816   5.098   3.313  15.309
 4801TIP3   OH235817   2.763   2.136   6.306
 4801TIP3    H135818   2.816   2.064   6.273
 4801TIP3    H235819   2.811   2.215   6.281
 4802TIP3   OH235820   4.703   5.780  16.625
 4802TIP3    H135821   4.681   5.688  16.640
 4802TIP3    H235822   4.779   5.795  16.681
 4803TIP3   OH235823   4.216   4.977   0.239
 4803TIP3    H135824   4.192   4.965   0.147
 4803TIP3    H235825   4.207   4.891   0.278
 4804TIP3   OH235826   3.295   4.388   6.591
 4804TIP3    H135827   3.211   4.401   6.635
 4804TIP3    H235828   3.335   4.475   6.592
 4805TIP3   OH235829   1.348   5.631  16.714
 4805TIP3    H135830   1.427   5.598  16.672
 4805TIP3    H235831   1.318   5.701  16.656
 4806TIP3   OH235832   4.178   1.600  10.442
 4806TIP3    H135833   4.212   1.536  10.504
 4806TIP3    H235834   4.121   1.550  10.384
 4807TIP3   OH235835   5.595   1.725   4.671
 4807TIP3    H135836   5.579   1.740   4.764
 4807TIP3    H235837   5.661   1.791   4.647
 4808TIP3   OH235838   2.965   2.247   3.609
 4808TIP3    H135839   3.034   2.269   3.547
 4808TIP3    H235840   3.003   2.181   3.667
 4809TIP3   OH235841   3.786   5.686   2.344
 4809TIP3    H135842   3.858   5.667   2.283
 4809TIP3    H235843   3.786   5.782   2.352
 4810TIP3   OH235844   5.056   4.029   4.196
 4810TIP3    H135845   5.017   3.954   4.152
 4810TIP3    H235846   5.138   4.046   4.149
 4811TIP3   OH235847   2.539   2.341   5.819
 4811TIP3    H135848   2.472   2.409   5.833
 4811TIP3    H235849   2.581   2.365   5.737
 4812TIP3   OH235850   2.763   4.905  12.513
 4812TIP3    H135851   2.787   4.962  12.586
 4812TIP3    H235852   2.688   4.948  12.472
 4813TIP3   OH235853   3.467   1.413  12.187
 4813TIP3    H135854   3.545   1.365  12.214
 4813TIP3    H235855   3.447   1.471  12.260
 4814TIP3   OH235856   1.346   1.131   4.217
 4814TIP3    H135857   1.274   1.112   4.157
 4814TIP3    H235858   1.313   1.201   4.273
 4815TIP3   OH235859   5.450   5.296  16.542
 4815TIP3    H135860   5.487   5.380  16.570
 4815TIP3    H235861   5.523   5.234  16.550
 4816TIP3   OH235862   2.952   0.094   2.071
 4816TIP3    H135863   2.870   0.048   2.092
 4816TIP3    H235864   2.928   0.187   2.074
 4817TIP3   OH235865   5.037   1.467  14.969
 4817TIP3    H135866   5.093   1.439  15.042
 4817TIP3    H235867   4.964   1.405  14.970
 4818TIP3   OH235868   2.197   1.567  13.830
 4818TIP3    H135869   2.271   1.509  13.850
 4818TIP3    H235870   2.129   1.508  13.797
 4819TIP3   OH235871   3.658   6.007   5.334
 4819TIP3    H135872   3.710   6.079   5.297
 4819TIP3    H235873   3.572   6.046   5.352
 4820TIP3   OH235874   0.666   4.002  14.883
 4820TIP3    H135875   0.671   3.918  14.837
 4820TIP3    H235876   0.723   4.060  14.832
 4821TIP3   OH235877   2.053   5.545  15.983
 4821TIP3    H135878   2.060   5.486  15.907
 4821TIP3    H235879   1.984   5.607  15.959
 4822TIP3   OH235880   5.360   0.812  13.045
 4822TIP3    H135881   5.423   0.741  13.030
 4822TIP3    H235882   5.414   0.884  13.079
 4823TIP3   OH235883   6.256   3.912   2.739
 4823TIP3    H135884   6.350   3.910   2.753
 4823TIP3    H235885   6.233   4.005   2.736
 4824TIP3   OH235886   0.155   5.112  12.537
 4824TIP3    H135887   0.201   5.113  12.621
 4824TIP3    H235888   0.072   5.068  12.554
 4825TIP3   OH235889   0.018   5.054  14.068
 4825TIP3    H135890   0.030   5.009  14.151
 4825TIP3    H235891   0.105   5.056  14.028
 4826TIP3   OH235892   3.478   2.696   0.416
 4826TIP3    H135893   3.458   2.783   0.382
 4826TIP3    H235894   3.442   2.636   0.351
 4827TIP3   OH235895   5.110   1.842   0.533
 4827TIP3    H135896   5.199   1.869   0.510
 4827TIP3    H235897   5.074   1.808   0.451
 4828TIP3   OH235898   0.040   3.487  11.949
 4828TIP3    H135899  -0.021   3.487  11.875
 4828TIP3    H235900   0.033   3.400  11.986
 4829TIP3   OH235901   1.295   5.108  16.908
 4829TIP3    H135902   1.348   5.115  16.987
 4829TIP3    H235903   1.310   5.019  16.876
 4830TIP3   OH235904   1.083   0.672   0.212
 4830TIP3    H135905   1.168   0.678   0.255
 4830TIP3    H235906   1.059   0.762   0.192
 4831TIP3   OH235907   0.952   5.548  14.423
 4831TIP3    H135908   0.956   5.475  14.484
 4831TIP3    H235909   0.859   5.570  14.418
 4832TIP3   OH235910   3.361   2.789  16.318
 4832TIP3    H135911   3.390   2.727  16.385
 4832TIP3    H235912   3.292   2.839  16.361
 4833TIP3   OH235913   1.667   3.507   3.919
 4833TIP3    H135914   1.691   3.473   3.833
 4833TIP3    H235915   1.576   3.482   3.930
 4834TIP3   OH235916   4.997   1.100   2.272
 4834TIP3    H135917   5.010   1.175   2.331
 4834TIP3    H235918   5.037   1.026   2.318
 4835TIP3   OH235919   0.858   0.455  15.113
 4835TIP3    H135920   0.906   0.481  15.034
 4835TIP3    H235921   0.775   0.421  15.080
 4836TIP3   OH235922   4.384   2.701  12.274
 4836TIP3    H135923   4.391   2.739  12.187
 4836TIP3    H235924   4.297   2.661  12.276
 4837TIP3   OH235925   5.940   3.430   4.721
 4837TIP3    H135926   5.926   3.487   4.796
 4837TIP3    H235927   5.856   3.385   4.708
 4838TIP3   OH235928   5.484   4.242  15.633
 4838TIP3    H135929   5.542   4.183  15.680
 4838TIP3    H235930   5.540   4.284  15.567
 4839TIP3   OH235931   2.443   1.926  11.029
 4839TIP3    H135932   2.402   1.927  10.943
 4839TIP3    H235933   2.448   2.018  11.055
 4840TIP3   OH235934   4.954   4.333   5.700
 4840TIP3    H135935   4.977   4.254   5.748
 4840TIP3    H235936   4.932   4.302   5.612
 4841TIP3   OH235937   0.308   1.134   1.891
 4841TIP3    H135938   0.330   1.137   1.798
 4841TIP3    H235939   0.369   1.069   1.927
 4842TIP3   OH235940   5.084   3.427   5.150
 4842TIP3    H135941   5.001   3.381   5.141
 4842TIP3    H235942   5.150   3.366   5.116
 4843TIP3   OH235943   4.234   2.619  11.656
 4843TIP3    H135944   4.182   2.575  11.589
 4843TIP3    H235945   4.305   2.661  11.607
 4844TIP3   OH235946   1.017   1.099   5.720
 4844TIP3    H135947   1.104   1.065   5.742
 4844TIP3    H235948   0.981   1.034   5.659
 4845TIP3   OH235949   0.153   6.205   5.836
 4845TIP3    H135950   0.072   6.240   5.799
 4845TIP3    H235951   0.146   6.221   5.930
 4846TIP3   OH235952   4.331   1.305   2.467
 4846TIP3    H135953   4.384   1.361   2.524
 4846TIP3    H235954   4.250   1.354   2.454
 4847TIP3   OH235955   2.947   1.072  11.013
 4847TIP3    H135956   2.932   0.979  11.032
 4847TIP3    H235957   2.868   1.099  10.966
 4848TIP3   OH235958   2.082   3.270  16.832
 4848TIP3    H135959   2.082   3.193  16.890
 4848TIP3    H235960   2.055   3.235  16.747
 4849TIP3   OH235961   3.822   6.717  15.902
 4849TIP3    H135962   3.857   6.768  15.828
 4849TIP3    H235963   3.894   6.714  15.965
 4850TIP3   OH235964   2.724   6.775   5.688
 4850TIP3    H135965   2.796   6.809   5.635
 4850TIP3    H235966   2.754   6.787   5.779
 4851TIP3   OH235967   6.640   0.954   3.430
 4851TIP3    H135968   6.682   0.870   3.449
 4851TIP3    H235969   6.569   0.931   3.369
 4852TIP3   OH235970   2.882   3.210  12.592
 4852TIP3    H135971   2.950   3.255  12.643
 4852TIP3    H235972   2.831   3.162  12.656
 4853TIP3   OH235973   1.096   6.392  11.162
 4853TIP3    H135974   1.026   6.434  11.111
 4853TIP3    H235975   1.174   6.444  11.141
 4854TIP3   OH235976   1.148   1.436  11.917
 4854TIP3    H135977   1.186   1.523  11.910
 4854TIP3    H235978   1.221   1.380  11.946
 4855TIP3   OH235979   2.007   0.355   3.348
 4855TIP3    H135980   1.917   0.342   3.320
 4855TIP3    H235981   2.015   0.304   3.429
 4856TIP3   OH235982   5.393   3.154   1.675
 4856TIP3    H135983   5.451   3.187   1.606
 4856TIP3    H235984   5.430   3.189   1.756
 4857TIP3   OH235985   6.228   6.528   4.479
 4857TIP3    H135986   6.186   6.490   4.556
 4857TIP3    H235987   6.285   6.596   4.514
 4858TIP3   OH235988   2.442   4.122  12.044
 4858TIP3    H135989   2.448   4.213  12.016
 4858TIP3    H235990   2.511   4.077  11.995
 4859TIP3   OH235991   4.169   1.962  14.560
 4859TIP3    H135992   4.111   2.017  14.507
 4859TIP3    H235993   4.248   1.953  14.507
 4860TIP3   OH235994   1.711   2.761   4.445
 4860TIP3    H135995   1.637   2.776   4.504
 4860TIP3    H235996   1.754   2.683   4.480
 4861TIP3   OH235997   0.744   1.942   3.261
 4861TIP3    H135998   0.712   1.929   3.350
 4861TIP3    H235999   0.832   1.978   3.272
 4862TIP3   OH236000   6.530   1.893  12.908
 4862TIP3    H136001   6.506   1.974  12.863
 4862TIP3    H236002   6.447   1.851  12.929
 4863TIP3   OH236003   5.926   2.919   5.543
 4863TIP3    H136004   5.916   2.914   5.638
 4863TIP3    H236005   5.843   2.955   5.512
 4864TIP3   OH236006   1.107   6.088  16.065
 4864TIP3    H136007   1.036   6.125  16.013
 4864TIP3    H236008   1.127   6.005  16.022
 4865TIP3   OH236009   2.010   0.808  15.966
 4865TIP3    H136010   2.013   0.874  16.034
 4865TIP3    H236011   2.081   0.747  15.988
 4866TIP3   OH236012   2.554   0.372  10.438
 4866TIP3    H136013   2.539   0.381  10.532
 4866TIP3    H236014   2.567   0.278  10.425
 4867TIP3   OH236015   3.696   0.225   0.264
 4867TIP3    H136016   3.649   0.143   0.282
 4867TIP3    H236017   3.644   0.267   0.196
 4868TIP3   OH236018   2.797   0.276  13.635
 4868TIP3    H136019   2.705   0.278  13.661
 4868TIP3    H236020   2.844   0.268  13.718
 4869TIP3   OH236021   0.772   4.491  13.575
 4869TIP3    H136022   0.866   4.501  13.559
 4869TIP3    H236023   0.733   4.572  13.543
 4870TIP3   OH236024   6.706   6.554   2.262
 4870TIP3    H136025   6.797   6.526   2.250
 4870TIP3    H236026   6.712   6.645   2.290
 4871TIP3   OH236027   5.873   2.708  13.909
 4871TIP3    H136028   5.917   2.784  13.870
 4871TIP3    H236029   5.921   2.692  13.990
 4872TIP3   OH236030   4.417   6.413  12.860
 4872TIP3    H136031   4.480   6.341  12.856
 4872TIP3    H236032   4.368   6.396  12.941
 4873TIP3   OH236033   4.420   2.451   4.999
 4873TIP3    H136034   4.461   2.526   5.042
 4873TIP3    H236035   4.491   2.388   4.986
 4874TIP3   OH236036   0.032   1.046   3.854
 4874TIP3    H136037   0.110   1.098   3.837
 4874TIP3    H236038   0.002   1.074   3.941
 4875TIP3   OH236039   2.765   6.084   3.016
 4875TIP3    H136040   2.769   5.992   3.043
 4875TIP3    H236041   2.826   6.129   3.075
 4876TIP3   OH236042   1.253   2.606  15.696
 4876TIP3    H136043   1.346   2.583  15.699
 4876TIP3    H236044   1.208   2.523  15.714
 4877TIP3   OH236045   1.700   5.647   4.359
 4877TIP3    H136046   1.627   5.676   4.305
 4877TIP3    H236047   1.751   5.726   4.376
 4878TIP3   OH236048   5.419   2.737   0.641
 4878TIP3    H136049   5.489   2.768   0.584
 4878TIP3    H236050   5.370   2.816   0.663
 4879TIP3   OH236051   0.475   4.651   4.305
 4879TIP3    H136052   0.479   4.745   4.324
 4879TIP3    H236053   0.435   4.612   4.383
 4880TIP3   OH236054   1.028   0.138  10.660
 4880TIP3    H136055   1.021   0.200  10.588
 4880TIP3    H236056   1.121   0.135  10.681
 4881TIP3   OH236057   5.689   5.835   2.609
 4881TIP3    H136058   5.770   5.821   2.658
 4881TIP3    H236059   5.633   5.761   2.633
 4882TIP3   OH236060   0.643   4.234   0.191
 4882TIP3    H136061   0.617   4.325   0.205
 4882TIP3    H236062   0.736   4.239   0.169
 4883TIP3   OH236063   6.464   4.902  14.367
 4883TIP3    H136064   6.493   4.991  14.388
 4883TIP3    H236065   6.493   4.849  14.442
 4884TIP3   OH236066   6.200   5.906  17.128
 4884TIP3    H136067   6.237   5.835  17.076
 4884TIP3    H236068   6.161   5.965  17.063
 4885TIP3   OH236069   2.893   6.293  13.933
 4885TIP3    H136070   2.957   6.353  13.971
 4885TIP3    H236071   2.830   6.279  14.004
 4886TIP3   OH236072   3.631   0.308   2.306
 4886TIP3    H136073   3.679   0.380   2.264
 4886TIP3    H236074   3.541   0.319   2.276
 4887TIP3   OH236075   0.117   1.033   2.848
 4887TIP3    H136076   0.025   1.050   2.830
 4887TIP3    H236077   0.144   1.106   2.904
 4888TIP3   OH236078   5.999   1.362  14.488
 4888TIP3    H136079   6.012   1.295  14.555
 4888TIP3    H236080   6.021   1.319  14.406
 4889TIP3   OH236081   3.164   3.850   1.455
 4889TIP3    H136082   3.107   3.898   1.396
 4889TIP3    H236083   3.250   3.889   1.444
 4890TIP3   OH236084   3.450   1.450   6.521
 4890TIP3    H136085   3.528   1.505   6.530
 4890TIP3    H236086   3.478   1.364   6.552
 4891TIP3   OH236087   1.450   2.179   2.394
 4891TIP3    H136088   1.382   2.246   2.394
 4891TIP3    H236089   1.433   2.127   2.473
 4892TIP3   OH236090   4.804   2.733  17.063
 4892TIP3    H136091   4.833   2.786  16.989
 4892TIP3    H236092   4.753   2.662  17.023
 4893TIP3   OH236093   1.639   6.314   2.307
 4893TIP3    H136094   1.551   6.289   2.278
 4893TIP3    H236095   1.693   6.302   2.229
 4894TIP3   OH236096   0.965   1.515  14.101
 4894TIP3    H136097   1.051   1.487  14.131
 4894TIP3    H236098   0.903   1.459  14.148
 4895TIP3   OH236099   6.598   1.707   0.437
 4895TIP3    H136100   6.640   1.788   0.406
 4895TIP3    H236101   6.663   1.667   0.494
 4896TIP3   OH236102   6.602   2.232  15.010
 4896TIP3    H136103   6.595   2.177  14.932
 4896TIP3    H236104   6.514   2.233  15.047
 4897TIP3   OH236105   2.453   4.853   3.029
 4897TIP3    H136106   2.542   4.817   3.034
 4897TIP3    H236107   2.424   4.858   3.120
 4898TIP3   OH236108   4.877   1.996  16.776
 4898TIP3    H136109   4.838   1.922  16.823
 4898TIP3    H236110   4.889   1.964  16.687
 4899TIP3   OH236111   2.138   2.707   5.863
 4899TIP3    H136112   2.074   2.717   5.793
 4899TIP3    H236113   2.101   2.640   5.921
 4900TIP3   OH236114   0.022   5.646   0.881
 4900TIP3    H136115   0.088   5.710   0.909
 4900TIP3    H236116  -0.062   5.687   0.903
 4901TIP3   OH236117   1.213   3.955  14.394
 4901TIP3    H136118   1.297   3.999  14.385
 4901TIP3    H236119   1.148   4.024  14.388
 4902TIP3   OH236120   3.345   3.506  13.288
 4902TIP3    H136121   3.330   3.444  13.360
 4902TIP3    H236122   3.420   3.469  13.241
 4903TIP3   OH236123   3.927   5.262   4.185
 4903TIP3    H136124   3.901   5.344   4.142
 4903TIP3    H236125   3.860   5.248   4.252
 4904TIP3   OH236126   3.926   2.986   1.541
 4904TIP3    H136127   3.989   2.995   1.613
 4904TIP3    H236128   3.945   3.059   1.483
 4905TIP3   OH236129   5.097   2.875  16.848
 4905TIP3    H136130   5.117   2.930  16.772
 4905TIP3    H236131   5.055   2.797  16.810
 4906TIP3   OH236132   1.867   6.323   4.142
 4906TIP3    H136133   1.801   6.277   4.193
 4906TIP3    H236134   1.888   6.263   4.070
 4907TIP3   OH236135   1.510   2.900  16.085
 4907TIP3    H136136   1.475   2.989  16.085
 4907TIP3    H236137   1.435   2.845  16.109
 4908TIP3   OH236138   6.627   2.917   5.260
 4908TIP3    H136139   6.702   2.973   5.240
 4908TIP3    H236140   6.656   2.863   5.333
 4909TIP3   OH236141   2.269   0.273  10.889
 4909TIP3    H136142   2.255   0.368  10.886
 4909TIP3    H236143   2.279   0.248  10.797
 4910TIP3   OH236144   3.454   5.284  14.461
 4910TIP3    H136145   3.437   5.368  14.505
 4910TIP3    H236146   3.455   5.220  14.532
 4911TIP3   OH236147   0.677   1.891  15.946
 4911TIP3    H136148   0.729   1.893  15.865
 4911TIP3    H236149   0.635   1.977  15.949
 4912TIP3   OH236150   3.957   3.725   2.378
 4912TIP3    H136151   3.950   3.821   2.384
 4912TIP3    H236152   3.868   3.694   2.394
 4913TIP3   OH236153   1.015   6.557  15.322
 4913TIP3    H136154   1.062   6.530  15.243
 4913TIP3    H236155   1.029   6.486  15.384
 4914TIP3   OH236156   6.365   2.909   5.224
 4914TIP3    H136157   6.355   2.960   5.144
 4914TIP3    H236158   6.460   2.908   5.240
 4915TIP3   OH236159   3.507   4.443  11.852
 4915TIP3    H136160   3.581   4.415  11.798
 4915TIP3    H236161   3.540   4.439  11.942
 4916TIP3   OH236162   1.598   5.554  16.602
 4916TIP3    H136163   1.643   5.630  16.565
 4916TIP3    H236164   1.669   5.499  16.636
 4917TIP3   OH236165   3.677   1.879   3.048
 4917TIP3    H136166   3.689   1.859   2.955
 4917TIP3    H236167   3.757   1.848   3.090
 4918TIP3   OH236168   4.591   2.185  15.121
 4918TIP3    H136169   4.594   2.237  15.040
 4918TIP3    H236170   4.682   2.177  15.148
 4919TIP3   OH236171   1.022   0.870  12.396
 4919TIP3    H136172   1.060   0.823  12.322
 4919TIP3    H236173   1.064   0.832  12.473
 4920TIP3   OH236174   6.485   5.333  11.129
 4920TIP3    H136175   6.431   5.410  11.147
 4920TIP3    H236176   6.575   5.366  11.129
 4921TIP3   OH236177   4.233   5.435  16.928
 4921TIP3    H136178   4.294   5.403  16.861
 4921TIP3    H236179   4.147   5.434  16.885
 4922TIP3   OH236180   6.085   1.149   6.140
 4922TIP3    H136181   6.128   1.227   6.176
 4922TIP3    H236182   5.997   1.151   6.178
 4923TIP3   OH236183   3.477   3.311  12.022
 4923TIP3    H136184   3.540   3.310  12.095
 4923TIP3    H236185   3.502   3.237  11.968
 4924TIP3   OH236186   0.100   2.997   0.079
 4924TIP3    H136187   0.063   2.982   0.166
 4924TIP3    H236188   0.195   2.993   0.092
 4925TIP3   OH236189   4.092   5.838   5.972
 4925TIP3    H136190   4.080   5.925   6.011
 4925TIP3    H236191   4.114   5.782   6.046
 4926TIP3   OH236192   5.313   2.615  12.354
 4926TIP3    H136193   5.374   2.620  12.427
 4926TIP3    H236194   5.312   2.704  12.318
 4927TIP3   OH236195   2.111   4.422   1.417
 4927TIP3    H136196   2.080   4.345   1.369
 4927TIP3    H236197   2.199   4.437   1.384
 4928TIP3   OH236198   5.420   3.722   3.414
 4928TIP3    H136199   5.471   3.660   3.362
 4928TIP3    H236200   5.404   3.677   3.497
 4929TIP3   OH236201   5.272   6.506   4.682
 4929TIP3    H136202   5.290   6.513   4.588
 4929TIP3    H236203   5.358   6.489   4.721
 4930TIP3   OH236204   1.541   0.185   1.780
 4930TIP3    H136205   1.458   0.189   1.828
 4930TIP3    H236206   1.528   0.114   1.717
 4931TIP3   OH236207   2.370   3.543   1.238
 4931TIP3    H136208   2.449   3.586   1.272
 4931TIP3    H236209   2.318   3.526   1.316
 4932TIP3   OH236210   4.512   1.010   5.839
 4932TIP3    H136211   4.514   0.962   5.921
 4932TIP3    H236212   4.575   1.080   5.850
 4933TIP3   OH236213   0.619   0.107   1.905
 4933TIP3    H136214   0.694   0.070   1.952
 4933TIP3    H236215   0.635   0.201   1.905
 4934TIP3   OH236216   4.998   0.280   0.663
 4934TIP3    H136217   4.947   0.347   0.708
 4934TIP3    H236218   4.951   0.198   0.682
 4935TIP3   OH236219   0.556   2.484   2.090
 4935TIP3    H136220   0.619   2.555   2.083
 4935TIP3    H236221   0.499   2.509   2.163
 4936TIP3   OH236222   3.035   6.269  16.073
 4936TIP3    H136223   2.954   6.320  16.062
 4936TIP3    H236224   3.080   6.277  15.989
 4937TIP3   OH236225   1.114   0.326   5.852
 4937TIP3    H136226   1.053   0.253   5.841
 4937TIP3    H236227   1.190   0.287   5.895
 4938TIP3   OH236228   2.438   4.857   6.694
 4938TIP3    H136229   2.520   4.815   6.668
 4938TIP3    H236230   2.430   4.933   6.637
 4939TIP3   OH236231   0.228   6.748  11.969
 4939TIP3    H136232   0.221   6.815  12.036
 4939TIP3    H236233   0.313   6.708  11.983
 4940TIP3   OH236234   6.450   4.781  13.591
 4940TIP3    H136235   6.467   4.709  13.532
 4940TIP3    H236236   6.417   4.852  13.535
 4941TIP3   OH236237   5.351   3.807   2.600
 4941TIP3    H136238   5.391   3.819   2.686
 4941TIP3    H236239   5.410   3.852   2.540
 4942TIP3   OH236240   5.421   5.811  13.939
 4942TIP3    H136241   5.490   5.824  14.004
 4942TIP3    H236242   5.346   5.859  13.974
 4943TIP3   OH236243   1.350   2.612  11.684
 4943TIP3    H136244   1.330   2.638  11.594
 4943TIP3    H236245   1.413   2.677  11.714
 4944TIP3   OH236246   2.722   6.628   3.383
 4944TIP3    H136247   2.753   6.653   3.296
 4944TIP3    H236248   2.639   6.584   3.368
 4945TIP3   OH236249   5.871   2.259   5.537
 4945TIP3    H136250   5.781   2.276   5.564
 4945TIP3    H236251   5.919   2.338   5.560
 4946TIP3   OH236252   3.017   5.198   2.707
 4946TIP3    H136253   3.035   5.185   2.614
 4946TIP3    H236254   3.053   5.120   2.749
 4947TIP3   OH236255   4.961   1.274   6.036
 4947TIP3    H136256   5.014   1.301   6.111
 4947TIP3    H236257   4.976   1.180   6.028
 4948TIP3   OH236258   0.763   2.692   4.174
 4948TIP3    H136259   0.729   2.626   4.114
 4948TIP3    H236260   0.857   2.675   4.177
 4949TIP3   OH236261   2.194   1.387   6.413
 4949TIP3    H136262   2.099   1.391   6.415
 4949TIP3    H236263   2.223   1.471   6.449
 4950TIP3   OH236264   6.660   6.392  15.016
 4950TIP3    H136265   6.711   6.454  15.069
 4950TIP3    H236266   6.611   6.341  15.081
 4951TIP3   OH236267   2.381   6.166  14.499
 4951TIP3    H136268   2.459   6.118  14.472
 4951TIP3    H236269   2.322   6.098  14.533
 4952TIP3   OH236270   4.576   6.604   0.549
 4952TIP3    H136271   4.629   6.536   0.508
 4952TIP3    H236272   4.582   6.586   0.643
 4953TIP3   OH236273   2.857   1.866  13.270
 4953TIP3    H136274   2.892   1.859  13.181
 4953TIP3    H236275   2.785   1.802  13.272
 4954TIP3   OH236276   4.561   5.854   3.628
 4954TIP3    H136277   4.490   5.918   3.619
 4954TIP3    H236278   4.522   5.771   3.599
 4955TIP3   OH236279   2.128   5.835  13.637
 4955TIP3    H136280   2.137   5.741  13.621
 4955TIP3    H236281   2.050   5.860  13.588
 4956TIP3   OH236282   0.012   6.633  15.345
 4956TIP3    H136283   0.039   6.642  15.253
 4956TIP3    H236284  -0.026   6.545  15.349
 4957TIP3   OH236285   3.527   6.388  16.667
 4957TIP3    H136286   3.618   6.406  16.643
 4957TIP3    H236287   3.476   6.455  16.621
 4958TIP3   OH236288   4.889   0.115   4.761
 4958TIP3    H136289   4.958   0.158   4.711
 4958TIP3    H236290   4.901   0.022   4.744
 4959TIP3   OH236291   0.068   3.981   4.517
 4959TIP3    H136292  -0.017   3.953   4.483
 4959TIP3    H236293   0.054   4.070   4.549
 4960TIP3   OH236294   0.560   5.785  10.919
 4960TIP3    H136295   0.559   5.873  10.881
 4960TIP3    H236296   0.524   5.729  10.850
 4961TIP3   OH236297   1.741   1.498  11.590
 4961TIP3    H136298   1.750   1.475  11.683
 4961TIP3    H236299   1.827   1.532  11.566
 4962TIP3   OH236300   5.695   5.321   0.257
 4962TIP3    H136301   5.682   5.398   0.201
 4962TIP3    H236302   5.679   5.353   0.346
 4963TIP3   OH236303   0.959   5.774   1.174
 4963TIP3    H136304   1.013   5.852   1.158
 4963TIP3    H236305   0.967   5.723   1.093
 4964TIP3   OH236306   6.703   4.426   0.842
 4964TIP3    H136307   6.719   4.496   0.906
 4964TIP3    H236308   6.651   4.469   0.773
 4965TIP3   OH236309   3.148   5.652  14.060
 4965TIP3    H136310   3.180   5.701  14.137
 4965TIP3    H236311   3.053   5.651  14.071
 4966TIP3   OH236312   5.698   2.197  14.248
 4966TIP3    H136313   5.670   2.211  14.339
 4966TIP3    H236314   5.793   2.193  14.253
 4967TIP3   OH236315   3.763   5.814   2.966
 4967TIP3    H136316   3.682   5.831   2.918
 4967TIP3    H236317   3.833   5.832   2.904
 4968TIP3   OH236318   4.870   4.135  10.951
 4968TIP3    H136319   4.957   4.130  10.991
 4968TIP3    H236320   4.882   4.100  10.863
 4969TIP3   OH236321   6.183   5.433  12.224
 4969TIP3    H136322   6.133   5.385  12.159
 4969TIP3    H236323   6.225   5.504  12.175
 4970TIP3   OH236324   3.868   5.869   0.370
 4970TIP3    H136325   3.935   5.801   0.377
 4970TIP3    H236326   3.918   5.951   0.367
 4971TIP3   OH236327   3.307   5.525   4.496
 4971TIP3    H136328   3.257   5.605   4.509
 4971TIP3    H236329   3.273   5.465   4.562
 4972TIP3   OH236330   3.345   6.220  16.754
 4972TIP3    H136331   3.317   6.169  16.677
 4972TIP3    H236332   3.405   6.285  16.718
 4973TIP3   OH236333   1.580   5.040   0.856
 4973TIP3    H136334   1.675   5.043   0.862
 4973TIP3    H236335   1.555   5.124   0.816
 4974TIP3   OH236336   4.947   0.155  17.156
 4974TIP3    H136337   4.990   0.169  17.240
 4974TIP3    H236338   5.004   0.094  17.110
 4975TIP3   OH236339   1.344   5.523   2.024
 4975TIP3    H136340   1.255   5.512   2.057
 4975TIP3    H236341   1.349   5.462   1.950
 4976TIP3   OH236342   3.092   0.254   0.495
 4976TIP3    H136343   3.187   0.258   0.482
 4976TIP3    H236344   3.071   0.335   0.542
 4977TIP3   OH236345   1.302   2.241   5.127
 4977TIP3    H136346   1.346   2.186   5.062
 4977TIP3    H236347   1.359   2.238   5.204
 4978TIP3   OH236348   2.846   2.164   4.744
 4978TIP3    H136349   2.937   2.147   4.767
 4978TIP3    H236350   2.839   2.137   4.653
 4979TIP3   OH236351   1.636   1.410  15.012
 4979TIP3    H136352   1.546   1.439  14.996
 4979TIP3    H236353   1.627   1.338  15.075
 4980TIP3   OH236354   1.883   0.418  13.347
 4980TIP3    H136355   1.971   0.388  13.367
 4980TIP3    H236356   1.876   0.504  13.390
 4981TIP3   OH236357   0.592   3.057  11.628
 4981TIP3    H136358   0.622   3.104  11.706
 4981TIP3    H236359   0.522   3.001  11.659
 4982TIP3   OH236360   6.264   1.023  11.193
 4982TIP3    H136361   6.193   0.989  11.248
 4982TIP3    H236362   6.235   1.111  11.169
 4983TIP3   OH236363   6.576   4.258   1.696
 4983TIP3    H136364   6.578   4.167   1.667
 4983TIP3    H236365   6.537   4.306   1.622
 4984TIP3   OH236366   3.832   4.264   0.724
 4984TIP3    H136367   3.864   4.265   0.634
 4984TIP3    H236368   3.806   4.355   0.741
 4985TIP3   OH236369   1.779   5.506   1.432
 4985TIP3    H136370   1.861   5.551   1.451
 4985TIP3    H236371   1.737   5.496   1.517
 4986TIP3   OH236372   5.644   4.518  12.966
 4986TIP3    H136373   5.727   4.543  12.925
 4986TIP3    H236374   5.578   4.569  12.920
 4987TIP3   OH236375   3.899   4.361  12.078
 4987TIP3    H136376   3.896   4.420  12.153
 4987TIP3    H236377   3.942   4.410  12.009
 4988TIP3   OH236378   6.310   6.356   5.908
 4988TIP3    H136379   6.314   6.437   5.960
 4988TIP3    H236380   6.266   6.293   5.964
 4989TIP3   OH236381   5.834   0.086   3.266
 4989TIP3    H136382   5.782   0.141   3.325
 4989TIP3    H236383   5.800  -0.003   3.280
 4990TIP3   OH236384   4.025   6.314   2.624
 4990TIP3    H136385   3.969   6.304   2.700
 4990TIP3    H236386   3.967   6.344   2.555
 4991TIP3   OH236387   2.622   2.370  14.946
 4991TIP3    H136388   2.635   2.285  14.988
 4991TIP3    H236389   2.686   2.427  14.987
 4992TIP3   OH236390   3.119   4.676   3.698
 4992TIP3    H136391   3.076   4.756   3.728
 4992TIP3    H236392   3.077   4.606   3.748
 4993TIP3   OH236393   4.605   3.650   3.200
 4993TIP3    H136394   4.616   3.724   3.140
 4993TIP3    H236395   4.533   3.600   3.163
 4994TIP3   OH236396   3.695   5.964   3.892
 4994TIP3    H136397   3.659   5.962   3.804
 4994TIP3    H236398   3.636   6.021   3.941
 4995TIP3   OH236399   0.616   1.385   0.367
 4995TIP3    H136400   0.699   1.400   0.412
 4995TIP3    H236401   0.561   1.458   0.393
 4996TIP3   OH236402   0.981   3.418   0.017
 4996TIP3    H136403   0.922   3.344   0.000
 4996TIP3    H236404   0.985   3.424   0.113
 4997TIP3   OH236405   4.071   2.774  16.388
 4997TIP3    H136406   4.006   2.809  16.328
 4997TIP3    H236407   4.074   2.837  16.460
 4998TIP3   OH236408   4.225   4.189   0.016
 4998TIP3    H136409   4.282   4.175   0.092
 4998TIP3    H236410   4.144   4.144   0.038
 4999TIP3   OH236411   0.068   3.351  13.087
 4999TIP3    H136412   0.139   3.385  13.141
 4999TIP3    H236413   0.111   3.289  13.027
 5000TIP3   OH236414   0.458   2.414  12.037
 5000TIP3    H136415   0.477   2.504  12.064
 5000TIP3    H236416   0.413   2.423  11.953
 5001TIP3   OH236417   3.581   6.314   2.042
 5001TIP3    H136418   3.582   6.386   1.979
 5001TIP3    H236419   3.673   6.302   2.065
 5002TIP3   OH236420   3.888   0.389  14.912
 5002TIP3    H136421   3.965   0.441  14.891
 5002TIP3    H236422   3.889   0.318  14.847
 5003TIP3   OH236423   5.804   4.821   3.225
 5003TIP3    H136424   5.720   4.854   3.193
 5003TIP3    H236425   5.781   4.751   3.286
 5004TIP3   OH236426   1.590   0.128  14.119
 5004TIP3    H136427   1.539   0.061  14.164
 5004TIP3    H236428   1.628   0.082  14.044
 5005TIP3   OH236429   1.627   5.149  15.890
 5005TIP3    H136430   1.542   5.125  15.928
 5005TIP3    H236431   1.615   5.137  15.795
 5006TIP3   OH236432   3.584   0.804  12.077
 5006TIP3    H136433   3.600   0.811  11.983
 5006TIP3    H236434   3.614   0.717  12.101
 5007TIP3   OH236435   4.518   6.316   1.202
 5007TIP3    H136436   4.439   6.350   1.243
 5007TIP3    H236437   4.550   6.250   1.264
 5008TIP3   OH236438   5.828   0.367   2.667
 5008TIP3    H136439   5.769   0.295   2.687
 5008TIP3    H236440   5.907   0.326   2.632
 5009TIP3   OH236441   4.498   2.225   0.960
 5009TIP3    H136442   4.411   2.239   0.923
 5009TIP3    H236443   4.552   2.294   0.922
 5010TIP3   OH236444   0.414   1.984  16.089
 5010TIP3    H136445   0.404   1.924  16.015
 5010TIP3    H236446   0.495   2.031  16.071
 5011TIP3   OH236447   2.650   6.063  17.170
 5011TIP3    H136448   2.572   6.092  17.123
 5011TIP3    H236449   2.636   5.969  17.184
 5012TIP3   OH236450   5.241   1.530   4.706
 5012TIP3    H136451   5.258   1.449   4.755
 5012TIP3    H236452   5.244   1.503   4.614
 5013TIP3   OH236453   6.549   5.121  14.492
 5013TIP3    H136454   6.548   5.202  14.542
 5013TIP3    H236455   6.631   5.079  14.516
 5014TIP3   OH236456   0.518   6.711   3.281
 5014TIP3    H136457   0.583   6.743   3.345
 5014TIP3    H236458   0.476   6.790   3.248
 5015TIP3   OH236459   0.175   1.844  11.055
 5015TIP3    H136460   0.217   1.916  11.008
 5015TIP3    H236461   0.153   1.780  10.987
 5016TIP3   OH236462   3.742   5.954  12.203
 5016TIP3    H136463   3.659   5.916  12.231
 5016TIP3    H236464   3.724   6.048  12.194
 5017TIP3   OH236465   0.901   3.115   0.747
 5017TIP3    H136466   0.911   3.145   0.657
 5017TIP3    H236467   0.809   3.132   0.768
 5018TIP3   OH236468   1.411   2.741  10.816
 5018TIP3    H136469   1.330   2.726  10.768
 5018TIP3    H236470   1.443   2.824  10.781
 5019TIP3   OH236471   2.351   6.076  13.887
 5019TIP3    H136472   2.307   6.025  13.955
 5019TIP3    H236473   2.311   6.046  13.805
 5020TIP3   OH236474   5.835   2.815   5.945
 5020TIP3    H136475   5.867   2.795   6.033
 5020TIP3    H236476   5.850   2.909   5.936
 5021TIP3   OH236477   1.287   0.188  16.118
 5021TIP3    H136478   1.315   0.280  16.120
 5021TIP3    H236479   1.277   0.164  16.210
 5022TIP3   OH236480   3.504   0.846   5.363
 5022TIP3    H136481   3.444   0.771   5.365
 5022TIP3    H236482   3.468   0.907   5.428
 5023TIP3   OH236483   5.422   3.471  13.998
 5023TIP3    H136484   5.455   3.561  13.996
 5023TIP3    H236485   5.491   3.420  13.955
 5024TIP3   OH236486   3.244   1.444  14.780
 5024TIP3    H136487   3.240   1.375  14.713
 5024TIP3    H236488   3.206   1.403  14.858
 5025TIP3   OH236489   1.540   3.653  15.498
 5025TIP3    H136490   1.547   3.748  15.509
 5025TIP3    H236491   1.607   3.633  15.432
 5026TIP3   OH236492   2.566   5.557   1.173
 5026TIP3    H136493   2.487   5.547   1.120
 5026TIP3    H236494   2.562   5.647   1.206
 5027TIP3   OH236495   6.611   3.609   4.011
 5027TIP3    H136496   6.567   3.546   4.069
 5027TIP3    H236497   6.701   3.613   4.044
 5028TIP3   OH236498   1.562   0.546  14.450
 5028TIP3    H136499   1.485   0.550  14.506
 5028TIP3    H236500   1.629   0.597  14.496
 5029TIP3   OH236501   6.467   3.579  11.219
 5029TIP3    H136502   6.507   3.550  11.137
 5029TIP3    H236503   6.537   3.624  11.265
 5030TIP3   OH236504   4.188   6.363  11.631
 5030TIP3    H136505   4.264   6.343  11.577
 5030TIP3    H236506   4.116   6.317  11.588
 5031TIP3   OH236507   5.766   6.572  15.433
 5031TIP3    H136508   5.713   6.551  15.356
 5031TIP3    H236509   5.708   6.622  15.490
 5032TIP3   OH236510   5.540   4.797  13.275
 5032TIP3    H136511   5.528   4.861  13.206
 5032TIP3    H236512   5.464   4.740  13.269
 5033TIP3   OH236513   4.952   6.072  11.230
 5033TIP3    H136514   4.875   6.070  11.287
 5033TIP3    H236515   4.917   6.069  11.141
 5034TIP3   OH236516   5.496   1.148  13.858
 5034TIP3    H136517   5.481   1.240  13.836
 5034TIP3    H236518   5.416   1.103  13.830
 5035TIP3   OH236519   3.154   0.843  16.631
 5035TIP3    H136520   3.240   0.845  16.673
 5035TIP3    H236521   3.145   0.754  16.598
 5036TIP3   OH236522   6.209   0.513   2.401
 5036TIP3    H136523   6.261   0.581   2.358
 5036TIP3    H236524   6.119   0.534   2.378
 5037TIP3   OH236525   0.824   0.511   1.522
 5037TIP3    H136526   0.832   0.417   1.538
 5037TIP3    H236527   0.889   0.551   1.580
 5038TIP3   OH236528   2.187   1.193  13.838
 5038TIP3    H136529   2.244   1.243  13.896
 5038TIP3    H236530   2.126   1.257  13.804
 5039TIP3   OH236531   2.149   6.414  17.094
 5039TIP3    H136532   2.103   6.467  17.029
 5039TIP3    H236533   2.214   6.365  17.043
 5040TIP3   OH236534   1.757   3.843   1.680
 5040TIP3    H136535   1.825   3.783   1.709
 5040TIP3    H236536   1.729   3.889   1.759
 5041TIP3   OH236537   6.001   5.958   1.526
 5041TIP3    H136538   6.055   6.031   1.497
 5041TIP3    H236539   5.992   5.971   1.620
 5042TIP3   OH236540   1.919   6.320  17.226
 5042TIP3    H136541   2.011   6.347  17.230
 5042TIP3    H236542   1.914   6.261  17.151
 5043TIP3   OH236543   5.985   0.726  11.670
 5043TIP3    H136544   5.998   0.655  11.733
 5043TIP3    H236545   5.930   0.789  11.716
 5044TIP3   OH236546   3.288   2.267  11.697
 5044TIP3    H136547   3.243   2.184  11.684
 5044TIP3    H236548   3.223   2.334  11.675
 5045TIP3   OH236549   2.175   2.180  10.918
 5045TIP3    H136550   2.233   2.198  10.845
 5045TIP3    H236551   2.122   2.105  10.889
 5046TIP3   OH236552   4.095   4.912  12.384
 5046TIP3    H136553   4.139   4.827  12.382
 5046TIP3    H236554   4.150   4.966  12.440
 5047TIP3   OH236555   5.279   4.782   5.373
 5047TIP3    H136556   5.275   4.868   5.414
 5047TIP3    H236557   5.331   4.729   5.434
 5048TIP3   OH236558   5.085   3.686   0.669
 5048TIP3    H136559   5.075   3.755   0.734
 5048TIP3    H236560   5.165   3.640   0.695
 5049TIP3   OH236561   3.094   1.725   4.042
 5049TIP3    H136562   3.001   1.748   4.038
 5049TIP3    H236563   3.134   1.798   4.089
 5050TIP3   OH236564   5.732   2.572  15.331
 5050TIP3    H136565   5.808   2.540  15.379
 5050TIP3    H236566   5.769   2.621  15.258
 5051TIP3   OH236567   2.498   3.877  16.408
 5051TIP3    H136568   2.421   3.917  16.368
 5051TIP3    H236569   2.468   3.845  16.493
 5052TIP3   OH236570   3.080   2.179  12.623
 5052TIP3    H136571   3.172   2.177  12.647
 5052TIP3    H236572   3.061   2.271  12.605
 5053TIP3   OH236573   0.504   1.679  14.026
 5053TIP3    H136574   0.507   1.771  14.000
 5053TIP3    H236575   0.561   1.674  14.103
 5054TIP3   OH236576   0.924   5.184   0.023
 5054TIP3    H136577   0.931   5.240   0.100
 5054TIP3    H236578   0.862   5.115   0.049
 5055TIP3   OH236579   6.696   1.414   4.932
 5055TIP3    H136580   6.640   1.336   4.929
 5055TIP3    H236581   6.643   1.480   4.977
 5056TIP3   OH236582   5.132   6.697   1.915
 5056TIP3    H136583   5.197   6.713   1.846
 5056TIP3    H236584   5.164   6.619   1.960
 5057TIP3   OH236585   4.721   6.037  11.688
 5057TIP3    H136586   4.803   5.995  11.661
 5057TIP3    H236587   4.749   6.115  11.737
 5058TIP3   OH236588   6.250   6.459   0.645
 5058TIP3    H136589   6.159   6.463   0.616
 5058TIP3    H236590   6.251   6.502   0.730
 5059TIP3   OH236591   3.612   0.392   4.496
 5059TIP3    H136592   3.561   0.391   4.415
 5059TIP3    H236593   3.689   0.338   4.476
 5060TIP3   OH236594   1.884   4.551   4.791
 5060TIP3    H136595   1.810   4.573   4.848
 5060TIP3    H236596   1.932   4.633   4.780
 5061TIP3   OH236597   5.243   3.309   0.894
 5061TIP3    H136598   5.264   3.273   0.808
 5061TIP3    H236599   5.151   3.286   0.908
 5062TIP3   OH236600   1.773   1.185   0.876
 5062TIP3    H136601   1.859   1.215   0.848
 5062TIP3    H236602   1.711   1.242   0.829
 5063TIP3   OH236603   4.324   2.461  14.210
 5063TIP3    H136604   4.336   2.552  14.184
 5063TIP3    H236605   4.233   2.457  14.240
 5064TIP3   OH236606   3.112   2.566   6.548
 5064TIP3    H136607   3.205   2.545   6.535
 5064TIP3    H236608   3.078   2.491   6.597
 5065TIP3   OH236609   2.682   2.898   4.683
 5065TIP3    H136610   2.607   2.936   4.729
 5065TIP3    H236611   2.757   2.918   4.739
 5066TIP3   OH236612   4.246   0.695  14.156
 5066TIP3    H136613   4.291   0.761  14.209
 5066TIP3    H236614   4.316   0.638  14.124
 5067TIP3   OH236615   0.315   0.519  16.898
 5067TIP3    H136616   0.345   0.544  16.811
 5067TIP3    H236617   0.364   0.440  16.919
 5068TIP3   OH236618   2.553   2.583   4.417
 5068TIP3    H136619   2.629   2.614   4.466
 5068TIP3    H236620   2.568   2.489   4.404
 5069TIP3   OH236621   1.155   4.742  13.009
 5069TIP3    H136622   1.113   4.684  12.946
 5069TIP3    H236623   1.082   4.785  13.054
 5070TIP3   OH236624   5.706   6.515  17.183
 5070TIP3    H136625   5.718   6.422  17.164
 5070TIP3    H236626   5.693   6.518  17.278
 5071TIP3   OH236627   4.199   6.386   5.692
 5071TIP3    H136628   4.108   6.406   5.671
 5071TIP3    H236629   4.195   6.341   5.777
 5072TIP3   OH236630   5.072   2.407  13.470
 5072TIP3    H136631   5.112   2.337  13.522
 5072TIP3    H236632   5.073   2.375  13.380
 5073TIP3   OH236633   1.394   2.777   1.862
 5073TIP3    H136634   1.412   2.783   1.956
 5073TIP3    H236635   1.447   2.847   1.823
 5074TIP3   OH236636   1.062   2.113   2.539
 5074TIP3    H136637   1.014   2.196   2.537
 5074TIP3    H236638   1.075   2.091   2.447
 5075TIP3   OH236639   5.141   1.623   5.512
 5075TIP3    H136640   5.147   1.693   5.576
 5075TIP3    H236641   5.146   1.543   5.564
 5076TIP3   OH236642   6.489   6.116   0.859
 5076TIP3    H136643   6.517   6.200   0.821
 5076TIP3    H236644   6.409   6.093   0.811
 5077TIP3   OH236645   1.931   5.373  11.778
 5077TIP3    H136646   1.907   5.297  11.831
 5077TIP3    H236647   1.986   5.426  11.835
 5078TIP3   OH236648   4.628   6.162  12.530
 5078TIP3    H136649   4.614   6.238  12.474
 5078TIP3    H236650   4.701   6.114  12.490
 5079TIP3   OH236651   4.461   0.884   6.678
 5079TIP3    H136652   4.495   0.840   6.600
 5079TIP3    H236653   4.493   0.974   6.671
 5080TIP3   OH236654   3.435   1.930  12.085
 5080TIP3    H136655   3.447   1.901  11.994
 5080TIP3    H236656   3.344   1.960  12.088
 5081TIP3   OH236657   3.130   5.721   0.231
 5081TIP3    H136658   3.090   5.658   0.172
 5081TIP3    H236659   3.067   5.732   0.302
 5082TIP3   OH236660   2.074   2.703   6.241
 5082TIP3    H136661   2.127   2.778   6.269
 5082TIP3    H236662   2.066   2.649   6.320
 5083TIP3   OH236663   5.025   2.822  16.504
 5083TIP3    H136664   5.095   2.880  16.536
 5083TIP3    H236665   4.975   2.877  16.443
 5084TIP3   OH236666   5.225   3.514   5.384
 5084TIP3    H136667   5.267   3.434   5.413
 5084TIP3    H236668   5.173   3.488   5.308
 5085TIP3   OH236669   4.326   2.108   4.277
 5085TIP3    H136670   4.230   2.111   4.272
 5085TIP3    H236671   4.353   2.198   4.259
 5086TIP3   OH236672   6.725   1.747  13.834
 5086TIP3    H136673   6.669   1.732  13.758
 5086TIP3    H236674   6.664   1.753  13.907
 5087TIP3   OH236675   1.317   2.514  13.888
 5087TIP3    H136676   1.389   2.551  13.938
 5087TIP3    H236677   1.355   2.488  13.805
 5088TIP3   OH236678   1.523   3.652  12.540
 5088TIP3    H136679   1.486   3.588  12.480
 5088TIP3    H236680   1.618   3.645  12.528
 5089TIP3   OH236681   4.784   3.725  16.509
 5089TIP3    H136682   4.787   3.734  16.413
 5089TIP3    H236683   4.786   3.630  16.524
 5090TIP3   OH236684   3.021   2.905   5.881
 5090TIP3    H136685   3.036   2.994   5.848
 5090TIP3    H236686   3.065   2.904   5.966
 5091TIP3   OH236687   2.135   0.008  10.653
 5091TIP3    H136688   2.115  -0.048  10.578
 5091TIP3    H236689   2.157  -0.053  10.724
 5092TIP3   OH236690   2.745   4.059  11.447
 5092TIP3    H136691   2.767   3.967  11.456
 5092TIP3    H236692   2.724   4.070  11.354
 5093TIP3   OH236693   0.903   2.961   1.724
 5093TIP3    H136694   0.923   2.975   1.632
 5093TIP3    H236695   0.818   3.003   1.737
 5094TIP3   OH236696   0.686   2.704   4.573
 5094TIP3    H136697   0.608   2.683   4.624
 5094TIP3    H236698   0.655   2.765   4.506
 5095TIP3   OH236699   3.913   0.103   4.195
 5095TIP3    H136700   3.986   0.070   4.142
 5095TIP3    H236701   3.905   0.040   4.267
 5096TIP3   OH236702   2.991   0.441   5.370
 5096TIP3    H136703   3.045   0.454   5.292
 5096TIP3    H236704   2.919   0.387   5.340
 5097TIP3   OH236705   5.655   4.282   4.780
 5097TIP3    H136706   5.680   4.370   4.754
 5097TIP3    H236707   5.562   4.276   4.759
 5098TIP3   OH236708   4.311   6.050  13.258
 5098TIP3    H136709   4.218   6.062  13.236
 5098TIP3    H236710   4.341   6.137  13.283
 5099TIP3   OH236711   5.061   0.646  14.318
 5099TIP3    H136712   5.113   0.719  14.354
 5099TIP3    H236713   5.085   0.571  14.372
 5100TIP3   OH236714   3.678   3.163  13.066
 5100TIP3    H136715   3.686   3.258  13.061
 5100TIP3    H236716   3.728   3.130  12.991
 5101TIP3   OH236717   5.773   1.642  15.179
 5101TIP3    H136718   5.845   1.702  15.200
 5101TIP3    H236719   5.776   1.577  15.249
 5102TIP3   OH236720   3.571   5.082   0.417
 5102TIP3    H136721   3.638   5.070   0.485
 5102TIP3    H236722   3.489   5.055   0.459
 5103TIP3   OH236723   0.031   0.189   3.206
 5103TIP3    H136724  -0.026   0.176   3.130
 5103TIP3    H236725  -0.027   0.226   3.273
 5104TIP3   OH236726   5.444   6.699   3.619
 5104TIP3    H136727   5.476   6.626   3.673
 5104TIP3    H236728   5.364   6.665   3.580
 5105TIP3   OH236729   1.679   3.901   5.429
 5105TIP3    H136730   1.601   3.870   5.476
 5105TIP3    H236731   1.735   3.824   5.422
 5106TIP3   OH236732   4.042   1.381  15.513
 5106TIP3    H136733   4.137   1.389  15.519
 5106TIP3    H236734   4.008   1.458  15.559
 5107TIP3   OH236735   6.425   5.456   4.888
 5107TIP3    H136736   6.402   5.490   4.801
 5107TIP3    H236737   6.453   5.534   4.937
 5108TIP3   OH236738   4.796   0.323   4.979
 5108TIP3    H136739   4.830   0.404   4.940
 5108TIP3    H236740   4.832   0.253   4.926
 5109TIP3   OH236741   2.177   0.226   4.771
 5109TIP3    H136742   2.212   0.264   4.690
 5109TIP3    H236743   2.171   0.300   4.831
 5110TIP3   OH236744   0.691   5.232  11.747
 5110TIP3    H136745   0.705   5.139  11.727
 5110TIP3    H236746   0.762   5.277  11.701
 5111TIP3   OH236747   3.138   1.441  16.614
 5111TIP3    H136748   3.144   1.358  16.661
 5111TIP3    H236749   3.075   1.425  16.545
 5112TIP3   OH236750   1.504   4.184   3.575
 5112TIP3    H136751   1.561   4.153   3.504
 5112TIP3    H236752   1.548   4.155   3.655
 5113TIP3   OH236753   4.796   3.155   3.384
 5113TIP3    H136754   4.788   3.243   3.346
 5113TIP3    H236755   4.866   3.163   3.449
 5114TIP3   OH236756   4.108   1.464   2.417
 5114TIP3    H136757   4.032   1.455   2.359
 5114TIP3    H236758   4.070   1.481   2.503
 5115TIP3   OH236759   1.946   3.056   0.669
 5115TIP3    H136760   1.962   2.962   0.674
 5115TIP3    H236761   1.919   3.072   0.579
 5116TIP3   OH236762   4.357   4.500  16.370
 5116TIP3    H136763   4.279   4.554  16.386
 5116TIP3    H236764   4.378   4.515  16.278
 5117TIP3   OH236765   1.035   5.241   1.163
 5117TIP3    H136766   0.977   5.167   1.181
 5117TIP3    H236767   1.047   5.284   1.248
 5118TIP3   OH236768   0.213   4.731  12.891
 5118TIP3    H136769   0.293   4.721  12.942
 5118TIP3    H236770   0.242   4.756  12.804
 5119TIP3   OH236771   5.880   1.945  11.926
 5119TIP3    H136772   5.912   1.855  11.927
 5119TIP3    H236773   5.871   1.969  12.018
 5120TIP3   OH236774   6.753   1.155  15.403
 5120TIP3    H136775   6.706   1.227  15.445
 5120TIP3    H236776   6.697   1.130  15.329
 5121TIP3   OH236777   0.576   3.854  13.418
 5121TIP3    H136778   0.507   3.854  13.485
 5121TIP3    H236779   0.648   3.902  13.458
 5122TIP3   OH236780   0.294   2.201  17.116
 5122TIP3    H136781   0.385   2.230  17.115
 5122TIP3    H236782   0.250   2.263  17.174
 5123TIP3   OH236783   0.876   1.302  14.694
 5123TIP3    H136784   0.899   1.382  14.647
 5123TIP3    H236785   0.803   1.327  14.751
 5124TIP3   OH236786   5.112   4.839   4.504
 5124TIP3    H136787   5.018   4.824   4.507
 5124TIP3    H236788   5.144   4.814   4.591
 5125TIP3   OH236789   1.024   2.135  17.082
 5125TIP3    H136790   0.939   2.119  17.041
 5125TIP3    H236791   1.004   2.182  17.163
 5126TIP3   OH236792   3.628   2.392  14.991
 5126TIP3    H136793   3.712   2.349  15.004
 5126TIP3    H236794   3.580   2.334  14.932
 5127TIP3   OH236795   3.478   5.510  15.790
 5127TIP3    H136796   3.427   5.461  15.725
 5127TIP3    H236797   3.502   5.591  15.745
 5128TIP3   OH236798   2.328   4.973   2.596
 5128TIP3    H136799   2.303   4.902   2.655
 5128TIP3    H236800   2.245   5.004   2.560
 5129TIP3   OH236801   4.444   0.936   6.271
 5129TIP3    H136802   4.357   0.976   6.272
 5129TIP3    H236803   4.502   1.005   6.238
 5130TIP3   OH236804   0.672   5.023   2.900
 5130TIP3    H136805   0.762   4.995   2.916
 5130TIP3    H236806   0.681   5.107   2.853
 5131TIP3   OH236807   6.670   4.216  10.465
 5131TIP3    H136808   6.681   4.172  10.380
 5131TIP3    H236809   6.704   4.304  10.450
 5132TIP3   OH236810   6.097   2.969  14.855
 5132TIP3    H136811   6.175   2.983  14.909
 5132TIP3    H236812   6.036   2.923  14.912
 5133TIP3   OH236813   6.640   2.538  13.924
 5133TIP3    H136814   6.652   2.623  13.968
 5133TIP3    H236815   6.726   2.519  13.887
 5134TIP3   OH236816   1.943   5.865   0.942
 5134TIP3    H136817   1.941   5.834   0.852
 5134TIP3    H236818   1.953   5.786   0.995
 5135TIP3   OH236819   2.384   1.444   6.801
 5135TIP3    H136820   2.371   1.370   6.742
 5135TIP3    H236821   2.473   1.474   6.782
 5136TIP3   OH236822   5.651   0.889  14.145
 5136TIP3    H136823   5.607   0.843  14.073
 5136TIP3    H236824   5.720   0.939  14.102
 5137TIP3   OH236825   4.160   2.901  16.129
 5137TIP3    H136826   4.108   2.868  16.056
 5137TIP3    H236827   4.129   2.852  16.205
 5138TIP3   OH236828   4.199   4.414   0.319
 5138TIP3    H136829   4.272   4.416   0.258
 5138TIP3    H236830   4.121   4.404   0.264
 5139TIP3   OH236831   2.095   4.703  16.565
 5139TIP3    H136832   2.182   4.734  16.590
 5139TIP3    H236833   2.048   4.695  16.649
 5140TIP3   OH236834   0.437   5.416  11.834
 5140TIP3    H136835   0.469   5.376  11.914
 5140TIP3    H236836   0.510   5.470  11.803
 5141TIP3   OH236837   4.100   5.501  15.109
 5141TIP3    H136838   4.056   5.533  15.187
 5141TIP3    H236839   4.088   5.406  15.111
 5142TIP3   OH236840   0.011   4.269   5.459
 5142TIP3    H136841  -0.077   4.306   5.461
 5142TIP3    H236842   0.069   4.342   5.482
 5143TIP3   OH236843   5.535   2.698   5.994
 5143TIP3    H136844   5.561   2.708   6.085
 5143TIP3    H236845   5.604   2.742   5.944
 5144TIP3   OH236846   5.865   3.245   1.442
 5144TIP3    H136847   5.802   3.182   1.478
 5144TIP3    H236848   5.950   3.208   1.466
 5145TIP3   OH236849   3.179   6.674  16.786
 5145TIP3    H136850   3.198   6.624  16.707
 5145TIP3    H236851   3.238   6.750  16.780
 5146TIP3   OH236852   5.809   2.928  11.473
 5146TIP3    H136853   5.787   3.007  11.424
 5146TIP3    H236854   5.724   2.893  11.501
 5147TIP3   OH236855   5.887   5.936   2.916
 5147TIP3    H136856   5.952   5.985   2.866
 5147TIP3    H236857   5.805   5.984   2.902
 5148TIP3   OH236858   3.224   0.423   2.414
 5148TIP3    H136859   3.226   0.506   2.366
 5148TIP3    H236860   3.158   0.436   2.483
 5149TIP3   OH236861   0.748   3.482   0.556
 5149TIP3    H136862   0.655   3.476   0.535
 5149TIP3    H236863   0.785   3.536   0.485
 5150TIP3   OH236864   5.871   5.145   0.172
 5150TIP3    H136865   5.837   5.232   0.195
 5150TIP3    H236866   5.825   5.085   0.231
 5151TIP3   OH236867   4.078   2.738  13.956
 5151TIP3    H136868   4.143   2.806  13.935
 5151TIP3    H236869   4.097   2.714  14.046
 5152TIP3   OH236870   5.597   1.370  14.193
 5152TIP3    H136871   5.535   1.307  14.231
 5152TIP3    H236872   5.545   1.449  14.180
 5153TIP3   OH236873   2.557   2.013   6.510
 5153TIP3    H136874   2.593   1.946   6.452
 5153TIP3    H236875   2.629   2.034   6.570
 5154TIP3   OH236876   0.322   0.593   0.526
 5154TIP3    H136877   0.404   0.619   0.567
 5154TIP3    H236878   0.338   0.601   0.432
 5155TIP3   OH236879   1.831   0.913  15.356
 5155TIP3    H136880   1.905   0.968  15.380
 5155TIP3    H236881   1.796   0.882  15.440
 5156TIP3   OH236882   6.652   2.231   4.331
 5156TIP3    H136883   6.667   2.172   4.257
 5156TIP3    H236884   6.568   2.202   4.367
 5157TIP3   OH236885   6.498   3.760  12.395
 5157TIP3    H136886   6.594   3.754  12.397
 5157TIP3    H236887   6.472   3.772  12.486
 5158TIP3   OH236888   5.010   5.612   3.937
 5158TIP3    H136889   5.070   5.594   3.865
 5158TIP3    H236890   4.978   5.701   3.921
 5159TIP3   OH236891   5.562   3.760   0.580
 5159TIP3    H136892   5.609   3.841   0.563
 5159TIP3    H236893   5.631   3.694   0.589
 5160TIP3   OH236894   0.781   2.690   3.413
 5160TIP3    H136895   0.805   2.770   3.460
 5160TIP3    H236896   0.698   2.712   3.370
 5161TIP3   OH236897   4.389   1.430   4.709
 5161TIP3    H136898   4.326   1.370   4.667
 5161TIP3    H236899   4.473   1.386   4.698
 5162TIP3   OH236900   0.278   5.242   5.063
 5162TIP3    H136901   0.247   5.216   5.150
 5162TIP3    H236902   0.214   5.306   5.033
 5163TIP3   OH236903   1.639   5.661   0.601
 5163TIP3    H136904   1.577   5.726   0.568
 5163TIP3    H236905   1.620   5.583   0.549
 5164TIP3   OH236906   4.386   5.350  14.452
 5164TIP3    H136907   4.302   5.303  14.450
 5164TIP3    H236908   4.433   5.313  14.527
 5165TIP3   OH236909   4.341   6.001  11.183
 5165TIP3    H136910   4.429   6.010  11.145
 5165TIP3    H236911   4.298   5.936  11.127
 5166TIP3   OH236912   3.068   6.101  13.672
 5166TIP3    H136913   3.161   6.124  13.677
 5166TIP3    H236914   3.034   6.158  13.602
 5167TIP3   OH236915   1.674   5.292   3.065
 5167TIP3    H136916   1.670   5.332   2.978
 5167TIP3    H236917   1.744   5.227   3.059
 5168TIP3   OH236918   4.393   4.036   0.532
 5168TIP3    H136919   4.356   3.963   0.581
 5168TIP3    H236920   4.320   4.098   0.523
 5169TIP3   OH236921   1.349   6.664   1.834
 5169TIP3    H136922   1.355   6.684   1.928
 5169TIP3    H236923   1.261   6.692   1.809
 5170TIP3   OH236924   3.084   6.647   2.688
 5170TIP3    H136925   3.085   6.624   2.781
 5170TIP3    H236926   3.127   6.732   2.684
 5171TIP3   OH236927   1.251   6.618  12.121
 5171TIP3    H136928   1.187   6.636  12.190
 5171TIP3    H236929   1.260   6.522  12.122
 5172TIP3   OH236930   1.063   3.045  14.145
 5172TIP3    H136931   0.994   2.992  14.186
 5172TIP3    H236932   1.087   2.995  14.067
 5173TIP3   OH236933   0.738   2.254   0.150
 5173TIP3    H136934   0.693   2.319   0.204
 5173TIP3    H236935   0.680   2.178   0.151
 5174TIP3   OH236936   1.605   1.578   0.323
 5174TIP3    H136937   1.676   1.542   0.376
 5174TIP3    H236938   1.641   1.583   0.235
 5175TIP3   OH236939   1.183   2.619  17.068
 5175TIP3    H136940   1.268   2.649  17.102
 5175TIP3    H236941   1.168   2.535  17.110
 5176TIP3   OH236942   6.241   4.472   3.078
 5176TIP3    H136943   6.225   4.389   3.034
 5176TIP3    H236944   6.287   4.448   3.159
 5177TIP3   OH236945   0.521   4.076  10.866
 5177TIP3    H136946   0.529   4.156  10.814
 5177TIP3    H236947   0.595   4.022  10.839
 5178TIP3   OH236948   4.434   1.357  14.147
 5178TIP3    H136949   4.508   1.412  14.171
 5178TIP3    H236950   4.457   1.322  14.061
 5179TIP3   OH236951   6.628   5.103  10.246
 5179TIP3    H136952   6.568   5.123  10.318
 5179TIP3    H236953   6.709   5.149  10.269
 5180TIP3   OH236954   4.516   3.372   3.392
 5180TIP3    H136955   4.452   3.440   3.412
 5180TIP3    H236956   4.598   3.404   3.429
 5181TIP3   OH236957   6.403   3.051   2.707
 5181TIP3    H136958   6.334   3.112   2.732
 5181TIP3    H236959   6.452   3.035   2.788
 5182TIP3   OH236960   0.746   2.188  15.219
 5182TIP3    H136961   0.743   2.278  15.252
 5182TIP3    H236962   0.767   2.196  15.126
 5183TIP3   OH236963   2.930   1.361   3.778
 5183TIP3    H136964   2.916   1.270   3.753
 5183TIP3    H236965   2.972   1.356   3.864
 5184TIP3   OH236966   2.386   0.969  15.936
 5184TIP3    H136967   2.336   0.954  15.856
 5184TIP3    H236968   2.443   0.892  15.943
 5185TIP3   OH236969   5.100   5.852  15.144
 5185TIP3    H136970   5.022   5.838  15.198
 5185TIP3    H236971   5.082   5.932  15.096
 5186TIP3   OH236972   4.941   6.446   4.985
 5186TIP3    H136973   4.927   6.425   4.892
 5186TIP3    H236974   5.032   6.475   4.990
 5187TIP3   OH236975   0.593   0.135  16.707
 5187TIP3    H136976   0.532   0.205  16.732
 5187TIP3    H236977   0.615   0.092  16.790
 5188TIP3   OH236978   6.455   1.229   0.944
 5188TIP3    H136979   6.464   1.201   0.853
 5188TIP3    H236980   6.461   1.148   0.994
 5189TIP3   OH236981   4.219   1.572  14.954
 5189TIP3    H136982   4.165   1.633  14.904
 5189TIP3    H236983   4.280   1.627  15.002
 5190TIP3   OH236984   3.909   2.451   2.629
 5190TIP3    H136985   3.859   2.533   2.637
 5190TIP3    H236986   3.949   2.439   2.715
 5191TIP3   OH236987   1.227   4.936  10.596
 5191TIP3    H136988   1.282   4.926  10.674
 5191TIP3    H236989   1.235   4.851  10.551
 5192TIP3   OH236990   4.139   3.932  11.501
 5192TIP3    H136991   4.124   4.021  11.531
 5192TIP3    H236992   4.224   3.935  11.458
 5193TIP3   OH236993   4.553   2.947  14.256
 5193TIP3    H136994   4.635   2.913  14.221
 5193TIP3    H236995   4.565   2.944  14.351
 5194TIP3   OH236996   6.106   5.471  15.955
 5194TIP3    H136997   6.196   5.439  15.962
 5194TIP3    H236998   6.113   5.550  15.902
 5195TIP3   OH236999   1.741   4.410   0.419
 5195TIP3    H137000   1.804   4.338   0.414
 5195TIP3    H237001   1.787   4.484   0.379
 5196TIP3   OH237002   4.568   5.076   2.216
 5196TIP3    H137003   4.548   5.122   2.297
 5196TIP3    H237004   4.656   5.103   2.192
 5197TIP3   OH237005   2.319   2.558  16.901
 5197TIP3    H137006   2.275   2.527  16.822
 5197TIP3    H237007   2.363   2.480  16.936
 5198TIP3   OH237008   5.288   1.140   4.027
 5198TIP3    H137009   5.203   1.164   3.989
 5198TIP3    H237010   5.287   1.044   4.029
 5199TIP3   OH237011   4.069   3.897  12.207
 5199TIP3    H137012   4.111   3.888  12.122
 5199TIP3    H237013   4.024   3.981  12.203
 5200TIP3   OH237014   2.402   4.482   2.997
 5200TIP3    H137015   2.494   4.504   3.009
 5200TIP3    H237016   2.402   4.408   2.937
 5201TIP3   OH237017   0.053   2.896   3.641
 5201TIP3    H137018   0.117   2.825   3.630
 5201TIP3    H237019   0.062   2.921   3.733
 5202TIP3   OH237020   1.186   3.784   4.730
 5202TIP3    H137021   1.210   3.871   4.761
 5202TIP3    H237022   1.267   3.747   4.696
 5203TIP3   OH237023   2.247   6.540  12.356
 5203TIP3    H137024   2.196   6.474  12.403
 5203TIP3    H237025   2.183   6.609  12.336
 5204TIP3   OH237026   1.459   1.478  12.355
 5204TIP3    H137027   1.506   1.471  12.438
 5204TIP3    H237028   1.514   1.534  12.300
 5205TIP3   OH237029   6.340   3.171  12.746
 5205TIP3    H137030   6.370   3.136  12.662
 5205TIP3    H237031   6.412   3.154  12.806
 5206TIP3   OH237032   0.126   6.496   1.991
 5206TIP3    H137033   0.031   6.480   1.984
 5206TIP3    H237034   0.156   6.496   1.900
 5207TIP3   OH237035   5.829   0.089   0.682
 5207TIP3    H137036   5.779   0.170   0.676
 5207TIP3    H237037   5.766   0.022   0.708
 5208TIP3   OH237038   1.677   4.902  13.663
 5208TIP3    H137039   1.671   4.812  13.697
 5208TIP3    H237040   1.672   4.892  13.568
 5209TIP3   OH237041   5.125   0.014  14.447
 5209TIP3    H137042   5.128   0.097  14.398
 5209TIP3    H237043   5.215  -0.018  14.444
 5210TIP3   OH237044   3.710   5.043   1.708
 5210TIP3    H137045   3.646   4.997   1.653
 5210TIP3    H237046   3.670   5.043   1.795
 5211TIP3   OH237047   6.644   0.740  12.652
 5211TIP3    H137048   6.558   0.779  12.638
 5211TIP3    H237049   6.652   0.674  12.584
 5212TIP3   OH237050   0.594   1.093   1.131
 5212TIP3    H137051   0.521   1.112   1.073
 5212TIP3    H237052   0.672   1.117   1.080
 5213TIP3   OH237053   5.308   1.772   1.682
 5213TIP3    H137054   5.228   1.768   1.734
 5213TIP3    H237055   5.286   1.728   1.600
 5214TIP3   OH237056   6.635   0.854   5.444
 5214TIP3    H137057   6.580   0.922   5.405
 5214TIP3    H237058   6.577   0.809   5.506
 5215TIP3   OH237059   6.270   1.643   3.329
 5215TIP3    H137060   6.328   1.641   3.405
 5215TIP3    H237061   6.181   1.640   3.366
 5216TIP3   OH237062   2.910   3.343  13.279
 5216TIP3    H137063   2.922   3.436  13.261
 5216TIP3    H237064   2.978   3.300  13.226
 5217TIP3   OH237065   2.222   0.922   1.303
 5217TIP3    H137066   2.252   0.863   1.373
 5217TIP3    H237067   2.184   0.863   1.237
 5218TIP3   OH237068   0.138   1.506  14.974
 5218TIP3    H137069   0.081   1.441  15.015
 5218TIP3    H237070   0.192   1.538  15.046
 5219TIP3   OH237071   0.322   2.996  16.933
 5219TIP3    H137072   0.391   3.063  16.936
 5219TIP3    H237073   0.350   2.930  16.997
 5220TIP3   OH237074   2.173   0.917   4.463
 5220TIP3    H137075   2.114   0.850   4.498
 5220TIP3    H237076   2.192   0.888   4.374
 5221TIP3   OH237077   1.716   6.224  10.599
 5221TIP3    H137078   1.649   6.200  10.664
 5221TIP3    H237079   1.796   6.184  10.632
 5222TIP3   OH237080   5.606   3.372  10.675
 5222TIP3    H137081   5.611   3.373  10.770
 5222TIP3    H237082   5.638   3.286  10.649
 5223TIP3   OH237083   1.645   1.633   6.435
 5223TIP3    H137084   1.617   1.548   6.400
 5223TIP3    H237085   1.680   1.679   6.359
 5224TIP3   OH237086   3.427   1.461   0.671
 5224TIP3    H137087   3.342   1.419   0.656
 5224TIP3    H237088   3.413   1.518   0.746
 5225TIP3   OH237089   4.104   3.956  14.746
 5225TIP3    H137090   4.030   3.997  14.790
 5225TIP3    H237091   4.139   4.024  14.689
 5226TIP3   OH237092   6.633   0.505  11.549
 5226TIP3    H137093   6.603   0.481  11.462
 5226TIP3    H237094   6.600   0.594  11.562
 5227TIP3   OH237095   3.800   3.977   6.225
 5227TIP3    H137096   3.741   4.051   6.215
 5227TIP3    H237097   3.744   3.905   6.254
 5228TIP3   OH237098   2.160   2.402   3.814
 5228TIP3    H137099   2.222   2.419   3.742
 5228TIP3    H237100   2.209   2.425   3.893
 5229TIP3   OH237101   6.530   2.965  10.699
 5229TIP3    H137102   6.526   3.060  10.691
 5229TIP3    H237103   6.624   2.946  10.706
 5230TIP3   OH237104   4.222   2.532   1.880
 5230TIP3    H137105   4.132   2.538   1.913
 5230TIP3    H237106   4.276   2.557   1.955
 5231TIP3   OH237107   2.502   0.383  15.724
 5231TIP3    H137108   2.446   0.384  15.647
 5231TIP3    H237109   2.586   0.349  15.693
 5232TIP3   OH237110   3.648   0.857   2.510
 5232TIP3    H137111   3.590   0.925   2.474
 5232TIP3    H237112   3.707   0.836   2.437
 5233TIP3   OH237113   1.466   4.822  16.327
 5233TIP3    H137114   1.428   4.877  16.396
 5233TIP3    H237115   1.420   4.849  16.247
 5234TIP3   OH237116   5.127   1.498  14.423
 5234TIP3    H137117   5.166   1.441  14.357
 5234TIP3    H237118   5.088   1.439  14.487
 5235TIP3   OH237119   6.184   2.915   4.053
 5235TIP3    H137120   6.105   2.953   4.092
 5235TIP3    H237121   6.237   2.991   4.029
 5236TIP3   OH237122   5.390   3.543   3.640
 5236TIP3    H137123   5.450   3.526   3.713
 5236TIP3    H237124   5.312   3.493   3.661
 5237TIP3   OH237125   5.841   5.143  10.405
 5237TIP3    H137126   5.820   5.184  10.321
 5237TIP3    H237127   5.800   5.201  10.470
 5238TIP3   OH237128   3.045   2.889  12.771
 5238TIP3    H137129   3.080   2.893  12.681
 5238TIP3    H237130   2.991   2.810  12.772
 5239TIP3   OH237131   2.976   2.184  15.272
 5239TIP3    H137132   2.883   2.164  15.286
 5239TIP3    H237133   2.995   2.149  15.185
 5240TIP3   OH237134   2.340   2.980  14.332
 5240TIP3    H137135   2.345   2.948  14.422
 5240TIP3    H237136   2.385   2.913  14.280
 5241TIP3   OH237137   2.963   2.929  17.234
 5241TIP3    H137138   2.953   2.983  17.156
 5241TIP3    H237139   2.874   2.915  17.266
 5242TIP3   OH237140   2.450   3.470  11.827
 5242TIP3    H137141   2.515   3.534  11.800
 5242TIP3    H237142   2.387   3.467  11.755
 5243TIP3   OH237143   0.509   3.099   5.864
 5243TIP3    H137144   0.415   3.109   5.875
 5243TIP3    H237145   0.541   3.188   5.849
 5244TIP3   OH237146   5.026   4.797   5.574
 5244TIP3    H137147   4.933   4.810   5.589
 5244TIP3    H237148   5.046   4.715   5.619
 5245TIP3   OH237149   1.442   1.302  10.617
 5245TIP3    H137150   1.511   1.335  10.560
 5245TIP3    H237151   1.369   1.363  10.604
 5246TIP3   OH237152   6.134   4.483  16.124
 5246TIP3    H137153   6.192   4.449  16.191
 5246TIP3    H237154   6.174   4.456  16.041
 5247TIP3   OH237155   5.806   1.662   6.454
 5247TIP3    H137156   5.839   1.584   6.409
 5247TIP3    H237157   5.764   1.629   6.533
 5248TIP3   OH237158   0.928   6.238  15.935
 5248TIP3    H137159   0.851   6.213  15.884
 5248TIP3    H237160   0.975   6.301  15.880
 5249TIP3   OH237161   3.735   1.516  11.806
 5249TIP3    H137162   3.660   1.514  11.866
 5249TIP3    H237163   3.703   1.561  11.729
 5250TIP3   OH237164   3.309   2.705  11.715
 5250TIP3    H137165   3.260   2.719  11.796
 5250TIP3    H237166   3.373   2.776  11.713
 5251TIP3   OH237167   4.153   1.331  12.170
 5251TIP3    H137168   4.086   1.385  12.211
 5251TIP3    H237169   4.210   1.393  12.125
 5252TIP3   OH237170   0.381   5.085   2.342
 5252TIP3    H137171   0.428   5.118   2.265
 5252TIP3    H237172   0.307   5.036   2.307
 5253TIP3   OH237173   1.663   4.336  12.868
 5253TIP3    H137174   1.646   4.270  12.936
 5253TIP3    H237175   1.602   4.407  12.888
 5254TIP3   OH237176   0.544   4.673   2.437
 5254TIP3    H137177   0.456   4.657   2.404
 5254TIP3    H237178   0.541   4.762   2.473
 5255TIP3   OH237179   4.660   2.908   5.970
 5255TIP3    H137180   4.747   2.870   5.967
 5255TIP3    H237181   4.675   3.003   5.969
 5256TIP3   OH237182   5.455   4.360  13.684
 5256TIP3    H137183   5.368   4.355  13.722
 5256TIP3    H237184   5.449   4.310  13.603
 5257TIP3   OH237185   0.974   3.765   2.125
 5257TIP3    H137186   1.014   3.681   2.102
 5257TIP3    H237187   0.963   3.810   2.041
 5258TIP3   OH237188   6.105   4.769   1.569
 5258TIP3    H137189   6.173   4.783   1.503
 5258TIP3    H237190   6.105   4.850   1.621
 5259TIP3   OH237191   5.169   6.469  12.160
 5259TIP3    H137192   5.142   6.382  12.132
 5259TIP3    H237193   5.201   6.457  12.249
 5260TIP3   OH237194   5.854   5.013   4.466
 5260TIP3    H137195   5.801   5.051   4.536
 5260TIP3    H237196   5.934   5.066   4.465
 5261TIP3   OH237197   2.633   2.842   3.603
 5261TIP3    H137198   2.603   2.821   3.691
 5261TIP3    H237199   2.684   2.766   3.576
 5262TIP3   OH237200   2.206   3.479   1.426
 5262TIP3    H137201   2.234   3.465   1.517
 5262TIP3    H237202   2.111   3.490   1.432
 5263TIP3   OH237203   4.018   1.448  15.240
 5263TIP3    H137204   4.070   1.528  15.236
 5263TIP3    H237205   4.001   1.434  15.333
 5264TIP3   OH237206   0.847   0.311  16.739
 5264TIP3    H137207   0.820   0.402  16.744
 5264TIP3    H237208   0.765   0.262  16.745
 5265TIP3   OH237209   5.484   2.914  15.035
 5265TIP3    H137210   5.411   2.961  14.995
 5265TIP3    H237211   5.552   2.913  14.967
 5266TIP3   OH237212   5.996   5.797   4.154
 5266TIP3    H137213   6.038   5.712   4.166
 5266TIP3    H237214   6.030   5.851   4.226
 5267TIP3   OH237215   0.587   3.651  15.207
 5267TIP3    H137216   0.659   3.715  15.204
 5267TIP3    H237217   0.631   3.566  15.215
 5268TIP3   OH237218   4.559   1.431  12.806
 5268TIP3    H137219   4.513   1.456  12.887
 5268TIP3    H237220   4.636   1.383  12.837
 5269TIP3   OH237221   5.340   5.739  11.506
 5269TIP3    H137222   5.308   5.649  11.494
 5269TIP3    H237223   5.271   5.794  11.470
 5270TIP3   OH237224   3.891   2.868  17.165
 5270TIP3    H137225   3.800   2.868  17.193
 5270TIP3    H237226   3.901   2.788  17.114
 5271TIP3   OH237227   2.869   5.411   3.079
 5271TIP3    H137228   2.946   5.382   3.030
 5271TIP3    H237229   2.801   5.347   3.057
 5272TIP3   OH237230   4.161   1.843   4.564
 5272TIP3    H137231   4.153   1.938   4.557
 5272TIP3    H237232   4.126   1.823   4.651
 5273TIP3   OH237233   0.452   6.077  11.208
 5273TIP3    H137234   0.544   6.054  11.194
 5273TIP3    H237235   0.423   6.113  11.124
 5274TIP3   OH237236   2.504   5.871  10.612
 5274TIP3    H137237   2.582   5.912  10.649
 5274TIP3    H237238   2.501   5.785  10.653
 5275TIP3   OH237239   4.086   1.711  16.696
 5275TIP3    H137240   4.080   1.674  16.608
 5275TIP3    H237241   4.006   1.681  16.740
 5276TIP3   OH237242   5.663   1.303  12.878
 5276TIP3    H137243   5.666   1.359  12.955
 5276TIP3    H237244   5.635   1.362  12.807
 5277TIP3   OH237245   0.702   2.045  10.763
 5277TIP3    H137246   0.650   1.970  10.733
 5277TIP3    H237247   0.763   2.062  10.691
 5278TIP3   OH237248   4.634   2.403  16.653
 5278TIP3    H137249   4.631   2.330  16.591
 5278TIP3    H237250   4.726   2.430  16.653
 5279TIP3   OH237251   3.080   6.119   0.743
 5279TIP3    H137252   3.097   6.056   0.673
 5279TIP3    H237253   3.093   6.070   0.824
 5280TIP3   OH237254   2.676   2.252  15.823
 5280TIP3    H137255   2.591   2.255  15.778
 5280TIP3    H237256   2.738   2.231  15.753
 5281TIP3   OH237257   5.965   6.070  13.685
 5281TIP3    H137258   5.875   6.099  13.701
 5281TIP3    H237259   5.978   5.997  13.745
 5282TIP3   OH237260   1.293   4.954  14.373
 5282TIP3    H137261   1.304   4.915  14.459
 5282TIP3    H237262   1.377   4.940  14.329
 5283TIP3   OH237263   6.193   1.357   0.863
 5283TIP3    H137264   6.203   1.380   0.771
 5283TIP3    H237265   6.282   1.354   0.897
 5284TIP3   OH237266   2.425   6.373  13.209
 5284TIP3    H137267   2.404   6.429  13.283
 5284TIP3    H237268   2.407   6.427  13.132
 5285TIP3   OH237269   0.338   6.675   4.553
 5285TIP3    H137270   0.274   6.603   4.549
 5285TIP3    H237271   0.299   6.738   4.613
 5286TIP3   OH237272   0.742   3.058  16.816
 5286TIP3    H137273   0.724   2.993  16.748
 5286TIP3    H237274   0.826   3.096  16.791
 5287TIP3   OH237275   1.682   2.672  16.944
 5287TIP3    H137276   1.734   2.752  16.938
 5287TIP3    H237277   1.722   2.623  17.016
 5288TIP3   OH237278   0.254   4.614  15.946
 5288TIP3    H137279   0.167   4.614  15.986
 5288TIP3    H237280   0.248   4.551  15.873
 5289TIP3   OH237281   0.227   4.793  12.533
 5289TIP3    H137282   0.201   4.869  12.585
 5289TIP3    H237283   0.221   4.823  12.442
 5290TIP3   OH237284   4.068   1.327  11.436
 5290TIP3    H137285   4.069   1.331  11.340
 5290TIP3    H237286   4.036   1.413  11.464
 5291TIP3   OH237287   0.031   3.702   6.522
 5291TIP3    H137288   0.069   3.743   6.444
 5291TIP3    H237289   0.080   3.620   6.532
 5292TIP3   OH237290   1.399   3.915   1.824
 5292TIP3    H137291   1.494   3.927   1.818
 5292TIP3    H237292   1.388   3.845   1.889
 5293TIP3   OH237293   4.639   1.768   3.300
 5293TIP3    H137294   4.671   1.681   3.276
 5293TIP3    H237295   4.606   1.758   3.389
 5294TIP3   OH237296   5.296   3.418  16.330
 5294TIP3    H137297   5.226   3.482  16.321
 5294TIP3    H237298   5.309   3.409  16.424
 5295TIP3   OH237299   2.123   2.935   0.912
 5295TIP3    H137300   2.194   2.877   0.883
 5295TIP3    H237301   2.047   2.877   0.921
 5296TIP3   OH237302   0.675   6.175  16.909
 5296TIP3    H137303   0.646   6.224  16.832
 5296TIP3    H237304   0.594   6.142  16.948
 5297TIP3   OH237305   4.457   5.882   5.111
 5297TIP3    H137306   4.518   5.899   5.182
 5297TIP3    H237307   4.403   5.810   5.141
 5298TIP3   OH237308   0.791   1.122   0.659
 5298TIP3    H137309   0.757   1.035   0.680
 5298TIP3    H237310   0.863   1.135   0.721
 5299TIP3   OH237311   4.951   6.035  13.596
 5299TIP3    H137312   5.006   6.113  13.587
 5299TIP3    H237313   4.894   6.038  13.519
 5300TIP3   OH237314   0.455   4.886   0.349
 5300TIP3    H137315   0.534   4.831   0.351
 5300TIP3    H237316   0.389   4.832   0.306
 5301TIP3   OH237317   0.230   2.907  12.245
 5301TIP3    H137318   0.283   2.870  12.315
 5301TIP3    H237319   0.247   2.851  12.169
 5302TIP3   OH237320   2.359   0.814  11.156
 5302TIP3    H137321   2.448   0.850  11.152
 5302TIP3    H237322   2.326   0.821  11.066
 5303TIP3   OH237323   2.037   6.773   5.205
 5303TIP3    H137324   1.942   6.766   5.196
 5303TIP3    H237325   2.070   6.689   5.173
 5304TIP3   OH237326   3.019   1.538  12.393
 5304TIP3    H137327   3.000   1.444  12.390
 5304TIP3    H237328   2.967   1.571  12.466
 5305TIP3   OH237329   0.144   4.741  11.529
 5305TIP3    H137330   0.113   4.824  11.565
 5305TIP3    H237331   0.093   4.729  11.449
 5306TIP3   OH237332   5.483   3.680   3.895
 5306TIP3    H137333   5.517   3.590   3.895
 5306TIP3    H237334   5.546   3.729   3.842
 5307TIP3   OH237335   2.913   3.197  12.958
 5307TIP3    H137336   2.843   3.241  13.006
 5307TIP3    H237337   2.867   3.141  12.895
 5308TIP3   OH237338   2.190   2.963  11.288
 5308TIP3    H137339   2.248   2.998  11.219
 5308TIP3    H237340   2.148   3.041  11.325
 5309TIP3   OH237341   1.695   2.533  14.862
 5309TIP3    H137342   1.753   2.566  14.794
 5309TIP3    H237343   1.753   2.496  14.927
 5310TIP3   OH237344   0.373   6.331  14.889
 5310TIP3    H137345   0.301   6.310  14.949
 5310TIP3    H237346   0.434   6.382  14.942
 5311TIP3   OH237347   4.501   5.244   2.485
 5311TIP3    H137348   4.557   5.320   2.501
 5311TIP3    H237349   4.418   5.266   2.528
 5312TIP3   OH237350   3.983   4.424   6.930
 5312TIP3    H137351   3.894   4.452   6.910
 5312TIP3    H237352   4.040   4.482   6.879
 5313TIP3   OH237353   5.398   3.307  13.703
 5313TIP3    H137354   5.334   3.300  13.632
 5313TIP3    H237355   5.423   3.399  13.704
 5314TIP3   OH237356   6.700   2.552   4.280
 5314TIP3    H137357   6.740   2.477   4.323
 5314TIP3    H237358   6.681   2.521   4.191
 5315TIP3   OH237359   2.909   0.038  12.688
 5315TIP3    H137360   2.857  -0.039  12.711
 5315TIP3    H237361   2.993   0.003  12.659
 5316TIP3   OH237362   5.591   3.181  12.852
 5316TIP3    H137363   5.644   3.169  12.930
 5316TIP3    H237364   5.509   3.219  12.885
 5317TIP3   OH237365   3.671   3.138  14.412
 5317TIP3    H137366   3.611   3.077  14.454
 5317TIP3    H237367   3.680   3.209  14.475
 5318TIP3   OH237368   4.953   4.861   1.405
 5318TIP3    H137369   4.949   4.860   1.309
 5318TIP3    H237370   4.871   4.818   1.432
 5319TIP3   OH237371   6.152   6.265  11.017
 5319TIP3    H137372   6.176   6.212  10.942
 5319TIP3    H237373   6.209   6.341  11.013
 5320TIP3   OH237374   5.548   3.582  17.055
 5320TIP3    H137375   5.538   3.675  17.037
 5320TIP3    H237376   5.525   3.573  17.148
 5321TIP3   OH237377   4.249   3.432  12.183
 5321TIP3    H137378   4.195   3.487  12.127
 5321TIP3    H237379   4.312   3.493  12.223
 5322TIP3   OH237380   2.344   3.191  14.681
 5322TIP3    H137381   2.356   3.105  14.640
 5322TIP3    H237382   2.251   3.196  14.701
 5323TIP3   OH237383   1.162   1.172   3.124
 5323TIP3    H137384   1.087   1.202   3.176
 5323TIP3    H237385   1.208   1.253   3.100
 5324TIP3   OH237386   3.964   5.637  12.125
 5324TIP3    H137387   3.994   5.713  12.175
 5324TIP3    H237388   4.030   5.570  12.143
 5325TIP3   OH237389   3.535   6.159   1.141
 5325TIP3    H137390   3.625   6.130   1.156
 5325TIP3    H237391   3.483   6.111   1.205
 5326TIP3   OH237392   6.046   3.182  12.277
 5326TIP3    H137393   5.958   3.203  12.310
 5326TIP3    H237394   6.078   3.265  12.240
 5327TIP3   OH237395   2.314   0.050   1.066
 5327TIP3    H137396   2.244   0.024   1.006
 5327TIP3    H237397   2.276   0.122   1.117
 5328TIP3   OH237398   1.106   5.747  12.937
 5328TIP3    H137399   1.072   5.757  12.848
 5328TIP3    H237400   1.117   5.652  12.947
 5329TIP3   OH237401   5.082   3.813  13.128
 5329TIP3    H137402   5.175   3.835  13.114
 5329TIP3    H237403   5.066   3.836  13.220
 5330TIP3   OH237404   3.849   0.769   1.032
 5330TIP3    H137405   3.814   0.730   1.112
 5330TIP3    H237406   3.926   0.716   1.011
 5331TIP3   OH237407   6.245   2.077   1.612
 5331TIP3    H137408   6.176   2.074   1.546
 5331TIP3    H237409   6.322   2.042   1.567
 5332TIP3   OH237410   3.517   1.315   1.391
 5332TIP3    H137411   3.533   1.264   1.312
 5332TIP3    H237412   3.579   1.280   1.456
 5333TIP3   OH237413   3.491   0.614   0.094
 5333TIP3    H137414   3.475   0.616   0.188
 5333TIP3    H237415   3.574   0.661   0.083
 5334TIP3   OH237416   5.099   2.103  12.938
 5334TIP3    H137417   5.020   2.089  12.886
 5334TIP3    H237418   5.105   2.026  12.994
 5335TIP3   OH237419   6.065   5.983   4.332
 5335TIP3    H137420   5.976   6.017   4.343
 5335TIP3    H237421   6.121   6.049   4.373
 5336TIP3   OH237422   3.329   1.817   5.495
 5336TIP3    H137423   3.265   1.888   5.501
 5336TIP3    H237424   3.414   1.861   5.495
 5337TIP3   OH237425   2.690   6.175  13.577
 5337TIP3    H137426   2.746   6.100  13.559
 5337TIP3    H237427   2.622   6.171  13.510
 5338TIP3   OH237428   3.524   6.075   4.088
 5338TIP3    H137429   3.473   6.155   4.099
 5338TIP3    H237430   3.566   6.061   4.173
 5339TIP3   OH237431   5.109   1.407  12.236
 5339TIP3    H137432   5.148   1.356  12.165
 5339TIP3    H237433   5.183   1.435  12.289
 5340TIP3   OH237434   5.406   6.421   0.741
 5340TIP3    H137435   5.403   6.502   0.690
 5340TIP3    H237436   5.366   6.444   0.825
 5341TIP3   OH237437   6.116   5.160   2.171
 5341TIP3    H137438   6.154   5.237   2.130
 5341TIP3    H237439   6.045   5.134   2.113
 5342TIP3   OH237440   1.939   1.841   2.153
 5342TIP3    H137441   2.012   1.826   2.094
 5342TIP3    H237442   1.867   1.869   2.096
 5343TIP3   OH237443   0.223   1.321   5.356
 5343TIP3    H137444   0.218   1.246   5.297
 5343TIP3    H237445   0.141   1.319   5.405
 5344TIP3   OH237446   2.137   1.879   0.850
 5344TIP3    H137447   2.094   1.866   0.766
 5344TIP3    H237448   2.217   1.826   0.844
 5345TIP3   OH237449   2.527   6.374  14.083
 5345TIP3    H137450   2.536   6.437  14.155
 5345TIP3    H237451   2.526   6.428  14.004
 5346TIP3   OH237452   1.450   5.386  16.799
 5346TIP3    H137453   1.377   5.435  16.761
 5346TIP3    H237454   1.468   5.316  16.737
 5347TIP3   OH237455   1.098   2.722  14.714
 5347TIP3    H137456   1.140   2.637  14.713
 5347TIP3    H237457   1.095   2.746  14.807
 5348TIP3   OH237458   6.304   0.468  10.629
 5348TIP3    H137459   6.302   0.543  10.689
 5348TIP3    H237460   6.395   0.439  10.631
 5349TIP3   OH237461   0.941   3.579   1.781
 5349TIP3    H137462   0.867   3.529   1.816
 5349TIP3    H237463   0.902   3.659   1.748
 5350TIP3   OH237464   3.684   6.368  15.939
 5350TIP3    H137465   3.749   6.402  16.001
 5350TIP3    H237466   3.609   6.346  15.994
 5351TIP3   OH237467   0.401   0.290   0.091
 5351TIP3    H137468   0.374   0.327   0.007
 5351TIP3    H237469   0.488   0.255   0.074
 5352TIP3   OH237470   0.855   2.129  10.556
 5352TIP3    H137471   0.946   2.129  10.526
 5352TIP3    H237472   0.805   2.159  10.481
 5353TIP3   OH237473   3.969   2.485  10.954
 5353TIP3    H137474   3.903   2.464  10.888
 5353TIP3    H237475   3.925   2.546  11.014
 5354TIP3   OH237476   4.833   1.226  13.459
 5354TIP3    H137477   4.838   1.305  13.513
 5354TIP3    H237478   4.892   1.242  13.386
 5355TIP3   OH237479   2.812   3.318   0.690
 5355TIP3    H137480   2.819   3.238   0.742
 5355TIP3    H237481   2.762   3.378   0.745
 5356TIP3   OH237482   4.684   1.713   3.757
 5356TIP3    H137483   4.767   1.736   3.714
 5356TIP3    H237484   4.701   1.727   3.850
 5357TIP3   OH237485   3.224   4.714   5.895
 5357TIP3    H137486   3.147   4.710   5.950
 5357TIP3    H237487   3.211   4.646   5.829
 5358TIP3   OH237488   4.984   6.519  14.433
 5358TIP3    H137489   5.071   6.560  14.434
 5358TIP3    H237490   4.931   6.579  14.380
 5359TIP3   OH237491   6.531   1.252   3.077
 5359TIP3    H137492   6.512   1.166   3.040
 5359TIP3    H237493   6.601   1.287   3.023
 5360TIP3   OH237494   4.407   6.032  16.135
 5360TIP3    H137495   4.480   6.075  16.180
 5360TIP3    H237496   4.425   5.939  16.145
 5361TIP3   OH237497   3.802   0.745   4.724
 5361TIP3    H137498   3.732   0.738   4.658
 5361TIP3    H237499   3.842   0.658   4.726
 5362TIP3   OH237500   5.805   3.462   2.690
 5362TIP3    H137501   5.797   3.375   2.650
 5362TIP3    H237502   5.898   3.482   2.687
 5363TIP3   OH237503   0.216   1.519  13.004
 5363TIP3    H137504   0.283   1.585  13.020
 5363TIP3    H237505   0.160   1.523  13.081
 5364TIP3   OH237506   1.140   0.907  11.980
 5364TIP3    H137507   1.191   0.898  11.899
 5364TIP3    H237508   1.067   0.964  11.956
 5365TIP3   OH237509   6.690   2.573   4.977
 5365TIP3    H137510   6.658   2.508   5.041
 5365TIP3    H237511   6.651   2.545   4.894
 5366TIP3   OH237512   0.859   4.402  11.651
 5366TIP3    H137513   0.940   4.451  11.669
 5366TIP3    H237514   0.790   4.455  11.691
 5367TIP3   OH237515   0.574   1.379   4.144
 5367TIP3    H137516   0.511   1.450   4.151
 5367TIP3    H237517   0.535   1.307   4.193
 5368TIP3   OH237518   4.642   4.423   4.221
 5368TIP3    H137519   4.571   4.436   4.159
 5368TIP3    H237520   4.695   4.352   4.185
 5369TIP3   OH237521   6.566   6.069  16.476
 5369TIP3    H137522   6.536   6.143  16.422
 5369TIP3    H237523   6.555   6.100  16.566
 5370TIP3   OH237524   1.299   2.188   4.094
 5370TIP3    H137525   1.217   2.154   4.130
 5370TIP3    H237526   1.363   2.119   4.110
 5371TIP3   OH237527   1.778   1.285   5.558
 5371TIP3    H137528   1.858   1.305   5.510
 5371TIP3    H237529   1.719   1.246   5.494
 5372TIP3   OH237530   4.104   2.933   3.783
 5372TIP3    H137531   4.160   2.869   3.738
 5372TIP3    H237532   4.151   2.953   3.863
 5373TIP3   OH237533   6.396   2.716   1.384
 5373TIP3    H137534   6.465   2.705   1.319
 5373TIP3    H237535   6.316   2.725   1.333
 5374TIP3   OH237536   2.610   2.891  12.089
 5374TIP3    H137537   2.662   2.831  12.035
 5374TIP3    H237538   2.519   2.863  12.075
 5375TIP3   OH237539   0.893   0.704  15.787
 5375TIP3    H137540   0.963   0.701  15.722
 5375TIP3    H237541   0.812   0.699  15.735
 5376TIP3   OH237542   5.254   5.398   3.442
 5376TIP3    H137543   5.340   5.366   3.471
 5376TIP3    H237544   5.263   5.494   3.444
 5377TIP3   OH237545   6.636   6.058   6.005
 5377TIP3    H137546   6.642   6.147   6.041
 5377TIP3    H237547   6.586   6.009   6.070
 5378TIP3   OH237548   0.474   1.055  15.192
 5378TIP3    H137549   0.494   0.967  15.226
 5378TIP3    H237550   0.401   1.085  15.245
 5379TIP3   OH237551   0.234   0.205  12.112
 5379TIP3    H137552   0.150   0.250  12.116
 5379TIP3    H237553   0.255   0.185  12.203
 5380TIP3   OH237554   4.447   5.303   0.859
 5380TIP3    H137555   4.433   5.216   0.821
 5380TIP3    H237556   4.359   5.335   0.878
 5381TIP3   OH237557   0.783   6.747  14.411
 5381TIP3    H137558   0.711   6.689  14.437
 5381TIP3    H237559   0.843   6.746  14.485
 5382TIP3   OH237560   0.154   2.395  13.427
 5382TIP3    H137561   0.077   2.338  13.432
 5382TIP3    H237562   0.227   2.341  13.457
 5383TIP3   OH237563   3.965   0.444   1.490
 5383TIP3    H137564   3.914   0.456   1.410
 5383TIP3    H237565   3.904   0.462   1.561
 5384TIP3   OH237566   4.806   2.322  14.743
 5384TIP3    H137567   4.781   2.399  14.692
 5384TIP3    H237568   4.723   2.288  14.777
 5385TIP3   OH237569   5.909   6.411   5.120
 5385TIP3    H137570   5.909   6.332   5.175
 5385TIP3    H237571   5.825   6.407   5.073
 5386TIP3   OH237572   0.041   2.409   1.394
 5386TIP3    H137573   0.100   2.385   1.466
 5386TIP3    H237574  -0.046   2.411   1.435
 5387TIP3   OH237575   4.142   2.708  11.898
 5387TIP3    H137576   4.158   2.690  11.805
 5387TIP3    H237577   4.048   2.691  11.910
 5388TIP3   OH237578   3.334   5.397  13.665
 5388TIP3    H137579   3.396   5.418  13.595
 5388TIP3    H237580   3.359   5.455  13.737
 5389TIP3   OH237581   4.196   5.403   2.916
 5389TIP3    H137582   4.165   5.484   2.957
 5389TIP3    H237583   4.281   5.427   2.879
 5390TIP3   OH237584   1.360   1.931  15.768
 5390TIP3    H137585   1.321   1.873  15.833
 5390TIP3    H237586   1.371   1.877  15.690
 5391TIP3   OH237587   1.902   5.128   3.035
 5391TIP3    H137588   1.978   5.181   3.060
 5391TIP3    H237589   1.876   5.084   3.116
 5392TIP3   OH237590   2.244   6.066  16.974
 5392TIP3    H137591   2.210   6.099  17.057
 5392TIP3    H237592   2.339   6.080  16.981
 5393TIP3   OH237593   0.872   4.397  17.008
 5393TIP3    H137594   0.967   4.384  17.005
 5393TIP3    H237595   0.860   4.489  16.986
 5394TIP3   OH237596   3.506   2.756  10.548
 5394TIP3    H137597   3.529   2.677  10.597
 5394TIP3    H237598   3.418   2.778  10.579
 5395TIP3   OH237599   2.721   5.940   5.102
 5395TIP3    H137600   2.731   5.975   5.014
 5395TIP3    H237601   2.749   5.848   5.094
 5396TIP3   OH237602   2.815   1.789   3.926
 5396TIP3    H137603   2.815   1.811   3.833
 5396TIP3    H237604   2.788   1.697   3.929
 5397TIP3   OH237605   4.304   3.691   0.335
 5397TIP3    H137606   4.248   3.654   0.403
 5397TIP3    H237607   4.252   3.682   0.254
 5398TIP3   OH237608   3.867   3.775   3.978
 5398TIP3    H137609   3.903   3.743   4.060
 5398TIP3    H237610   3.865   3.870   3.988
 5399TIP3   OH237611   2.005   2.288  11.110
 5399TIP3    H137612   2.067   2.345  11.156
 5399TIP3    H237613   2.056   2.251  11.038
 5400TIP3   OH237614   1.952   0.677   0.750
 5400TIP3    H137615   1.991   0.611   0.809
 5400TIP3    H237616   1.910   0.625   0.681
 5401TIP3   OH237617   0.235   4.977  14.389
 5401TIP3    H137618   0.195   5.011  14.469
 5401TIP3    H237619   0.169   4.919  14.352
 5402TIP3   OH237620   0.986   5.753  13.795
 5402TIP3    H137621   0.964   5.735  13.704
 5402TIP3    H237622   0.905   5.787  13.833
 5403TIP3   OH237623   6.203   1.766  11.721
 5403TIP3    H137624   6.293   1.758  11.753
 5403TIP3    H237625   6.149   1.741  11.796
 5404TIP3   OH237626   1.197   4.138  17.041
 5404TIP3    H137627   1.244   4.202  16.988
 5404TIP3    H237628   1.139   4.094  16.978
 5405TIP3   OH237629   4.071   0.364  13.087
 5405TIP3    H137630   4.036   0.338  13.002
 5405TIP3    H237631   4.033   0.450  13.104
 5406TIP3   OH237632   2.247   0.640   2.737
 5406TIP3    H137633   2.272   0.548   2.735
 5406TIP3    H237634   2.209   0.653   2.824
 5407TIP3   OH237635   3.947   0.267   0.367
 5407TIP3    H137636   3.854   0.270   0.346
 5407TIP3    H237637   3.980   0.353   0.342
 5408TIP3   OH237638   5.341   1.872  16.623
 5408TIP3    H137639   5.294   1.807  16.675
 5408TIP3    H237640   5.430   1.871  16.659
 5409TIP3   OH237641   4.893   6.748  15.324
 5409TIP3    H137642   4.959   6.767  15.390
 5409TIP3    H237643   4.944   6.724  15.246
 5410TIP3   OH237644   4.484   1.983   2.088
 5410TIP3    H137645   4.563   1.973   2.035
 5410TIP3    H237646   4.461   1.893   2.112
 5411TIP3   OH237647   3.058   4.089   4.482
 5411TIP3    H137648   2.993   4.092   4.552
 5411TIP3    H237649   3.015   4.038   4.413
 5412TIP3   OH237650   4.086   1.721  15.263
 5412TIP3    H137651   4.168   1.741  15.218
 5412TIP3    H237652   4.020   1.771  15.216
 5413TIP3   OH237653   4.360   6.068  12.390
 5413TIP3    H137654   4.429   6.134  12.394
 5413TIP3    H237655   4.306   6.095  12.316
 5414TIP3   OH237656   1.101   3.844   3.107
 5414TIP3    H137657   1.073   3.758   3.075
 5414TIP3    H237658   1.080   3.904   3.035
 5415TIP3   OH237659   2.751   2.021  10.661
 5415TIP3    H137660   2.660   2.010  10.691
 5415TIP3    H237661   2.749   2.104  10.613
 5416TIP3   OH237662   4.070   3.778   3.434
 5416TIP3    H137663   3.975   3.776   3.422
 5416TIP3    H237664   4.085   3.845   3.501
 5417TIP3   OH237665   0.946   4.584   6.245
 5417TIP3    H137666   0.898   4.502   6.260
 5417TIP3    H237667   1.014   4.586   6.312
 5418TIP3   OH237668   1.290   5.692   0.732
 5418TIP3    H137669   1.307   5.676   0.640
 5418TIP3    H237670   1.309   5.609   0.775
 5419TIP3   OH237671   4.038   3.465   4.357
 5419TIP3    H137672   3.962   3.452   4.414
 5419TIP3    H237673   4.030   3.397   4.290
 5420TIP3   OH237674   5.072   2.140   2.304
 5420TIP3    H137675   5.115   2.218   2.267
 5420TIP3    H237676   5.098   2.069   2.246
 5421TIP3   OH237677   2.749   6.663   3.828
 5421TIP3    H137678   2.763   6.754   3.852
 5421TIP3    H237679   2.656   6.648   3.844
 5422TIP3   OH237680   6.392   4.259   2.134
 5422TIP3    H137681   6.359   4.180   2.092
 5422TIP3    H237682   6.313   4.306   2.162
 5423TIP3   OH237683   0.715   4.302  14.220
 5423TIP3    H137684   0.737   4.295  14.313
 5423TIP3    H237685   0.750   4.386  14.192
 5424TIP3   OH237686   2.052   6.749  14.897
 5424TIP3    H137687   1.999   6.670  14.909
 5424TIP3    H237688   2.049   6.766  14.803
 5425TIP3   OH237689   6.696   3.840   0.454
 5425TIP3    H137690   6.739   3.787   0.521
 5425TIP3    H237691   6.715   3.931   0.480
 5426TIP3   OH237692   4.380   4.303   6.231
 5426TIP3    H137693   4.363   4.369   6.298
 5426TIP3    H237694   4.294   4.285   6.193
 5427TIP3   OH237695   2.904   5.027   5.903
 5427TIP3    H137696   2.904   4.981   5.987
 5427TIP3    H237697   2.991   5.009   5.867
 5428TIP3   OH237698   3.071   1.726   4.790
 5428TIP3    H137699   3.047   1.641   4.752
 5428TIP3    H237700   3.156   1.746   4.751
 5429TIP3   OH237701   0.982   2.373   2.820
 5429TIP3    H137702   0.947   2.384   2.732
 5429TIP3    H237703   1.074   2.398   2.813
 5430TIP3   OH237704   5.252   2.326  16.032
 5430TIP3    H137705   5.191   2.345  16.103
 5430TIP3    H237706   5.248   2.403  15.975
 5431TIP3   OH237707   6.184   4.234  14.243
 5431TIP3    H137708   6.267   4.199  14.209
 5431TIP3    H237709   6.117   4.191  14.190
 5432TIP3   OH237710   2.064   3.667   3.079
 5432TIP3    H137711   2.004   3.734   3.045
 5432TIP3    H237712   2.091   3.700   3.165
 5433TIP3   OH237713   3.111   4.827  13.587
 5433TIP3    H137714   3.130   4.916  13.617
 5433TIP3    H237715   3.052   4.791  13.654
 5434TIP3   OH237716   5.781   6.295  15.570
 5434TIP3    H137717   5.770   6.363  15.504
 5434TIP3    H237718   5.749   6.215  15.527
 5435TIP3   OH237719   1.365   1.276   0.810
 5435TIP3    H137720   1.386   1.369   0.819
 5435TIP3    H237721   1.424   1.244   0.741
 5436TIP3   OH237722   5.822   0.764   0.450
 5436TIP3    H137723   5.750   0.705   0.471
 5436TIP3    H237724   5.863   0.725   0.373
 5437TIP3   OH237725   0.608   6.535   1.042
 5437TIP3    H137726   0.555   6.590   0.984
 5437TIP3    H237727   0.644   6.467   0.985
 5438TIP3   OH237728   6.047   4.804   5.282
 5438TIP3    H137729   6.079   4.714   5.272
 5438TIP3    H237730   5.951   4.796   5.279
 5439TIP3   OH237731   6.468   4.162  12.876
 5439TIP3    H137732   6.547   4.199  12.836
 5439TIP3    H237733   6.472   4.189  12.968
 5440TIP3   OH237734   3.318   5.290   2.767
 5440TIP3    H137735   3.403   5.245   2.764
 5440TIP3    H237736   3.296   5.292   2.860
 5441TIP3   OH237737   6.299   6.619   3.368
 5441TIP3    H137738   6.306   6.638   3.461
 5441TIP3    H237739   6.352   6.687   3.325
 5442TIP3   OH237740   6.509   5.938  14.527
 5442TIP3    H137741   6.552   5.937  14.441
 5442TIP3    H237742   6.581   5.929  14.590
 5443TIP3   OH237743   5.365   5.363   0.162
 5443TIP3    H137744   5.406   5.278   0.175
 5443TIP3    H237745   5.414   5.422   0.220
 5444TIP3   OH237746   0.788   2.573  11.211
 5444TIP3    H137747   0.850   2.505  11.185
 5444TIP3    H237748   0.737   2.534  11.282
 5445TIP3   OH237749   1.799   4.144   0.170
 5445TIP3    H137750   1.796   4.071   0.232
 5445TIP3    H237751   1.892   4.163   0.160
 5446TIP3   OH237752   2.042   5.797  12.579
 5446TIP3    H137753   2.107   5.774  12.512
 5446TIP3    H237754   1.964   5.821  12.529
 5447TIP3   OH237755   6.187   3.638  11.310
 5447TIP3    H137756   6.269   3.659  11.266
 5447TIP3    H237757   6.121   3.688  11.262
 5448TIP3   OH237758   0.531   1.399  12.196
 5448TIP3    H137759   0.538   1.383  12.290
 5448TIP3    H237760   0.588   1.332  12.156
 5449TIP3   OH237761   1.654   6.027   2.061
 5449TIP3    H137762   1.581   6.005   2.004
 5449TIP3    H237763   1.671   6.119   2.044
 5450TIP3   OH237764   1.264   4.366  12.962
 5450TIP3    H137765   1.226   4.403  13.041
 5450TIP3    H237766   1.215   4.285  12.946
 5451TIP3   OH237767   1.380   1.743  14.180
 5451TIP3    H137768   1.290   1.741  14.213
 5451TIP3    H237769   1.417   1.823  14.218
 5452TIP3   OH237770   1.642   2.620   2.605
 5452TIP3    H137771   1.632   2.601   2.698
 5452TIP3    H237772   1.553   2.622   2.571
 5453TIP3   OH237773   5.292   3.065  12.037
 5453TIP3    H137774   5.205   3.099  12.055
 5453TIP3    H237775   5.278   2.977  12.002
 5454TIP3   OH237776   6.033   3.968  13.754
 5454TIP3    H137777   6.097   4.019  13.703
 5454TIP3    H237778   5.949   3.985  13.712
 5455TIP3   OH237779   5.278   2.377   5.552
 5455TIP3    H137780   5.312   2.374   5.642
 5455TIP3    H237781   5.197   2.428   5.559
 5456TIP3   OH237782   6.638   5.688  12.519
 5456TIP3    H137783   6.656   5.620  12.454
 5456TIP3    H237784   6.554   5.663  12.557
 5457TIP3   OH237785   2.640   4.295  14.414
 5457TIP3    H137786   2.571   4.232  14.391
 5457TIP3    H237787   2.703   4.289  14.342
 5458TIP3   OH237788   1.934   6.545   5.494
 5458TIP3    H137789   1.961   6.454   5.479
 5458TIP3    H237790   1.839   6.539   5.507
 5459TIP3   OH237791   6.708   0.514   3.945
 5459TIP3    H137792   6.778   0.564   3.987
 5459TIP3    H237793   6.628   0.564   3.965
 5460TIP3   OH237794   4.661   1.023  13.028
 5460TIP3    H137795   4.614   1.099  13.064
 5460TIP3    H237796   4.754   1.045  13.041
 5461TIP3   OH237797   1.649   3.388   5.463
 5461TIP3    H137798   1.585   3.320   5.485
 5461TIP3    H237799   1.719   3.341   5.417
 5462TIP3   OH237800   6.454   6.282  12.997
 5462TIP3    H137801   6.410   6.333  13.065
 5462TIP3    H237802   6.521   6.233  13.045
 5463TIP3   OH237803   0.635   3.962  15.562
 5463TIP3    H137804   0.618   3.983  15.470
 5463TIP3    H237805   0.548   3.954  15.601
 5464TIP3   OH237806   0.997   5.334  16.404
 5464TIP3    H137807   1.003   5.334  16.499
 5464TIP3    H237808   0.904   5.349  16.386
 5465TIP3   OH237809   6.506   2.671   6.700
 5465TIP3    H137810   6.495   2.578   6.678
 5465TIP3    H237811   6.502   2.673   6.796
 5466TIP3   OH237812   5.575   4.873   3.108
 5466TIP3    H137813   5.502   4.812   3.118
 5466TIP3    H237814   5.535   4.952   3.071
 5467TIP3   OH237815   1.285   3.112  12.824
 5467TIP3    H137816   1.377   3.138  12.815
 5467TIP3    H237817   1.275   3.037  12.766
 5468TIP3   OH237818   1.819   0.301   5.817
 5468TIP3    H137819   1.848   0.379   5.864
 5468TIP3    H237820   1.748   0.332   5.760
 5469TIP3   OH237821   1.384   3.610   3.608
 5469TIP3    H137822   1.348   3.581   3.692
 5469TIP3    H237823   1.365   3.538   3.548
 5470TIP3   OH237824   1.130   5.809   4.052
 5470TIP3    H137825   1.059   5.752   4.081
 5470TIP3    H237826   1.119   5.815   3.957
 5471TIP3   OH237827   0.071   6.520   0.311
 5471TIP3    H137828   0.059   6.446   0.251
 5471TIP3    H237829   0.164   6.521   0.330
 5472TIP3   OH237830   5.213   2.370   2.194
 5472TIP3    H137831   5.146   2.438   2.186
 5472TIP3    H237832   5.274   2.405   2.259
 5473TIP3   OH237833   5.685   0.424   4.320
 5473TIP3    H137834   5.750   0.384   4.378
 5473TIP3    H237835   5.694   0.376   4.237
 5474TIP3   OH237836   3.223   4.849  10.534
 5474TIP3    H137837   3.210   4.760  10.565
 5474TIP3    H237838   3.135   4.883  10.520
 5475TIP3   OH237839   0.123   5.784  14.515
 5475TIP3    H137840   0.196   5.810  14.570
 5475TIP3    H237841   0.100   5.863  14.466
 5476TIP3   OH237842   4.734   4.906   3.317
 5476TIP3    H137843   4.746   4.842   3.388
 5476TIP3    H237844   4.793   4.978   3.340
 5477TIP3   OH237845   1.197   1.015  15.297
 5477TIP3    H137846   1.190   1.018  15.393
 5477TIP3    H237847   1.176   0.924  15.275
 5478TIP3   OH237848   3.970   2.836  12.942
 5478TIP3    H137849   3.970   2.741  12.935
 5478TIP3    H237850   3.988   2.867  12.853
 5479TIP3   OH237851   5.506   2.212   3.896
 5479TIP3    H137852   5.437   2.177   3.952
 5479TIP3    H237853   5.584   2.212   3.951
 5480TIP3   OH237854   3.064   4.551   4.243
 5480TIP3    H137855   3.081   4.474   4.297
 5480TIP3    H237856   3.008   4.606   4.297
 5481TIP3   OH237857   1.804   6.574   6.182
 5481TIP3    H137858   1.798   6.596   6.089
 5481TIP3    H237859   1.731   6.621   6.222
 5482TIP3   OH237860   2.582   5.313   4.247
 5482TIP3    H137861   2.652   5.259   4.209
 5482TIP3    H237862   2.591   5.301   4.341
 5483TIP3   OH237863   4.156   0.722   0.732
 5483TIP3    H137864   4.199   0.711   0.817
 5483TIP3    H237865   4.162   0.816   0.714
 5484TIP3   OH237866   0.580   3.530   5.192
 5484TIP3    H137867   0.566   3.579   5.110
 5484TIP3    H237868   0.492   3.505   5.220
 5485TIP3   OH237869   0.394   1.971   5.719
 5485TIP3    H137870   0.329   2.033   5.752
 5485TIP3    H237871   0.343   1.911   5.665
 5486TIP3   OH237872   0.000   0.669   0.326
 5486TIP3    H137873   0.057   0.717   0.265
 5486TIP3    H237874   0.037   0.580   0.327
 5487TIP3   OH237875   3.276   2.676  16.776
 5487TIP3    H137876   3.318   2.758  16.802
 5487TIP3    H237877   3.182   2.694  16.779
 5488TIP3   OH237878   4.973   5.129   3.945
 5488TIP3    H137879   4.936   5.214   3.918
 5488TIP3    H237880   4.995   5.085   3.863
 5489TIP3   OH237881   4.528   5.077  16.687
 5489TIP3    H137882   4.494   5.007  16.632
 5489TIP3    H237883   4.553   5.146  16.625
 5490TIP3   OH237884   6.441   3.606  14.809
 5490TIP3    H137885   6.432   3.522  14.854
 5490TIP3    H237886   6.478   3.665  14.875
 5491TIP3   OH237887   4.964   3.486  14.312
 5491TIP3    H137888   4.975   3.574  14.347
 5491TIP3    H237889   5.027   3.481  14.240
 5492TIP3   OH237890   6.335   4.585  16.336
 5492TIP3    H137891   6.285   4.624  16.408
 5492TIP3    H237892   6.426   4.592  16.363
 5493TIP3   OH237893   0.795   2.605   0.139
 5493TIP3    H137894   0.871   2.556   0.110
 5493TIP3    H237895   0.809   2.618   0.233
 5494TIP3   OH237896   0.350   5.245   3.819
 5494TIP3    H137897   0.437   5.216   3.793
 5494TIP3    H237898   0.326   5.190   3.893
 5495TIP3   OH237899   6.112   2.680   4.213
 5495TIP3    H137900   6.028   2.716   4.241
 5495TIP3    H237901   6.164   2.756   4.188
 5496TIP3   OH237902   1.497   2.039   0.836
 5496TIP3    H137903   1.433   2.109   0.832
 5496TIP3    H237904   1.538   2.038   0.749
 5497TIP3   OH237905   2.943   2.463  15.582
 5497TIP3    H137906   2.950   2.527  15.511
 5497TIP3    H237907   2.902   2.512  15.654
 5498TIP3   OH237908   3.906   5.234  14.467
 5498TIP3    H137909   3.813   5.211  14.472
 5498TIP3    H237910   3.907   5.329  14.483
 5499TIP3   OH237911   3.965   3.429  13.984
 5499TIP3    H137912   3.976   3.463  13.895
 5499TIP3    H237913   3.983   3.335  13.975
 5500TIP3   OH237914   0.221   5.980   0.129
 5500TIP3    H137915   0.207   5.961   0.222
 5500TIP3    H237916   0.243   5.896   0.090
 5501TIP3   OH237917   2.498   2.041  10.686
 5501TIP3    H137918   2.445   1.962  10.696
 5501TIP3    H237919   2.440   2.112  10.711
 5502TIP3   OH237920   0.644   5.029  15.410
 5502TIP3    H137921   0.692   5.009  15.491
 5502TIP3    H237922   0.604   5.114  15.426
 5503TIP3   OH237923   4.039   1.857  17.084
 5503TIP3    H137924   4.125   1.844  17.042
 5503TIP3    H237925   4.030   1.782  17.143
 5504TIP3   OH237926   3.238   1.384   4.969
 5504TIP3    H137927   3.209   1.375   4.879
 5504TIP3    H237928   3.334   1.383   4.963
 5505TIP3   OH237929   0.348   5.106   4.079
 5505TIP3    H137930   0.334   5.026   4.129
 5505TIP3    H237931   0.275   5.163   4.101
 5506TIP3   OH237932   6.251   4.471   4.981
 5506TIP3    H137933   6.167   4.483   5.026
 5506TIP3    H237934   6.314   4.455   5.052
 5507TIP3   OH237935   4.331   0.641   4.051
 5507TIP3    H137936   4.375   0.584   4.114
 5507TIP3    H237937   4.250   0.667   4.094
 5508TIP3   OH237938   3.741   5.097  11.018
 5508TIP3    H137939   3.661   5.103  11.071
 5508TIP3    H237940   3.742   5.005  10.989
 5509TIP3   OH237941   5.966   1.985   5.555
 5509TIP3    H137942   5.939   1.925   5.485
 5509TIP3    H237943   5.939   2.071   5.524
 5510TIP3   OH237944   3.759   1.427  15.855
 5510TIP3    H137945   3.788   1.395  15.769
 5510TIP3    H237946   3.809   1.374  15.918
 5511TIP3   OH237947   3.529   2.008   0.928
 5511TIP3    H137948   3.598   1.997   0.862
 5511TIP3    H237949   3.462   1.944   0.904
 5512TIP3   OH237950   0.171   3.151   2.980
 5512TIP3    H137951   0.142   3.096   2.907
 5512TIP3    H237952   0.265   3.163   2.964
 5513TIP3   OH237953   3.475   2.304  13.875
 5513TIP3    H137954   3.502   2.333  13.788
 5513TIP3    H237955   3.503   2.374  13.934
 5514TIP3   OH237956   2.963   0.066   2.984
 5514TIP3    H137957   2.928   0.041   2.898
 5514TIP3    H237958   2.995   0.155   2.972
 5515TIP3   OH237959   2.596   6.032   2.033
 5515TIP3    H137960   2.528   6.024   2.100
 5515TIP3    H237961   2.624   6.123   2.038
 5516TIP3   OH237962   1.025   0.335  12.074
 5516TIP3    H137963   1.096   0.301  12.018
 5516TIP3    H237964   0.950   0.279  12.054
 5517TIP3   OH237965   2.183   0.163   2.382
 5517TIP3    H137966   2.118   0.099   2.411
 5517TIP3    H237967   2.263   0.112   2.368
 5518TIP3   OH237968   3.231   0.353   1.314
 5518TIP3    H137969   3.300   0.373   1.251
 5518TIP3    H237970   3.269   0.287   1.372
 5519TIP3   OH237971   2.592   3.875  12.987
 5519TIP3    H137972   2.624   3.807  13.046
 5519TIP3    H237973   2.625   3.957  13.024
 5520TIP3   OH237974   4.232   0.169  15.273
 5520TIP3    H137975   4.210   0.224  15.197
 5520TIP3    H237976   4.147   0.136  15.303
 5521TIP3   OH237977   0.107   0.821   0.146
 5521TIP3    H137978   0.102   0.793   0.054
 5521TIP3    H237979   0.053   0.900   0.150
 5522TIP3   OH237980   4.141   0.005  16.752
 5522TIP3    H137981   4.198   0.013  16.675
 5522TIP3    H237982   4.053   0.017  16.719
 5523TIP3   OH237983   3.879   5.490   4.047
 5523TIP3    H137984   3.832   5.573   4.041
 5523TIP3    H237985   3.904   5.470   3.957
 5524TIP3   OH237986   3.630   1.194  15.507
 5524TIP3    H137987   3.606   1.109  15.544
 5524TIP3    H237988   3.556   1.217  15.452
 5525TIP3   OH237989   4.439   6.185   0.553
 5525TIP3    H137990   4.523   6.191   0.598
 5525TIP3    H237991   4.422   6.091   0.548
 5526TIP3   OH237992   0.745   2.017  16.379
 5526TIP3    H137993   0.786   1.949  16.325
 5526TIP3    H237994   0.654   1.990  16.386
 5527TIP3   OH237995   1.739   6.646  17.158
 5527TIP3    H137996   1.792   6.665  17.080
 5527TIP3    H237997   1.799   6.658  17.231
 5528TIP3   OH237998   4.857   4.749   6.656
 5528TIP3    H137999   4.861   4.839   6.688
 5528TIP3    H238000   4.944   4.733   6.619
 5529TIP3   OH238001   0.752   0.952  12.325
 5529TIP3    H138002   0.752   1.030  12.381
 5529TIP3    H238003   0.840   0.917  12.332
 5530TIP3   OH238004   2.432   0.147  14.168
 5530TIP3    H138005   2.360   0.207  14.147
 5530TIP3    H238006   2.481   0.192  14.236
 5531TIP3   OH238007   3.250   5.678  12.832
 5531TIP3    H138008   3.164   5.720  12.829
 5531TIP3    H238009   3.236   5.593  12.792
 5532TIP3   OH238010   5.694   1.534  16.912
 5532TIP3    H138011   5.679   1.494  16.997
 5532TIP3    H238012   5.698   1.628  16.929
 5533TIP3   OH238013   4.596   6.517   5.526
 5533TIP3    H138014   4.530   6.560   5.581
 5533TIP3    H238015   4.595   6.566   5.444
 5534TIP3   OH238016   0.960   5.941  12.362
 5534TIP3    H138017   1.018   5.931  12.287
 5534TIP3    H238018   1.018   5.957  12.436
 5535TIP3   OH238019   1.582   3.671  17.192
 5535TIP3    H138020   1.496   3.702  17.163
 5535TIP3    H238021   1.643   3.739  17.162
 5536TIP3   OH238022   0.370   1.004  14.195
 5536TIP3    H138023   0.359   0.911  14.219
 5536TIP3    H238024   0.299   1.048  14.241
 5537TIP3   OH238025   0.057   2.935  16.798
 5537TIP3    H138026   0.045   2.940  16.892
 5537TIP3    H238027  -0.018   2.885  16.766
 5538TIP3   OH238028   0.137   6.338   3.845
 5538TIP3    H138029   0.189   6.349   3.766
 5538TIP3    H238030   0.052   6.377   3.824
 5539TIP3   OH238031   5.900   0.476  16.213
 5539TIP3    H138032   5.816   0.521  16.214
 5539TIP3    H238033   5.950   0.517  16.142
 5540TIP3   OH238034   5.163   2.134   5.629
 5540TIP3    H138035   5.247   2.110   5.668
 5540TIP3    H238036   5.160   2.230   5.637
 5541TIP3   OH238037   4.604   5.737  11.569
 5541TIP3    H138038   4.539   5.798  11.603
 5541TIP3    H238039   4.677   5.743  11.631
 5542TIP3   OH238040   4.701   0.360  13.885
 5542TIP3    H138041   4.689   0.389  13.794
 5542TIP3    H238042   4.697   0.441  13.936
 5543TIP3   OH238043   3.259   4.088  11.667
 5543TIP3    H138044   3.287   4.062  11.755
 5543TIP3    H238045   3.164   4.093  11.672
 5544TIP3   OH238046   1.780   1.822   1.899
 5544TIP3    H138047   1.704   1.765   1.886
 5544TIP3    H238048   1.745   1.911   1.889
 5545TIP3   OH238049   2.896   5.226  15.473
 5545TIP3    H138050   2.842   5.148  15.486
 5545TIP3    H238051   2.985   5.193  15.463
 5546TIP3   OH238052   2.558   4.789  13.062
 5546TIP3    H138053   2.524   4.699  13.055
 5546TIP3    H238054   2.556   4.808  13.155
 5547TIP3   OH238055   4.925   5.886  15.342
 5547TIP3    H138056   4.849   5.940  15.360
 5547TIP3    H238057   4.968   5.875  15.427
 5548TIP3   OH238058   2.128   5.827  17.234
 5548TIP3    H138059   2.043   5.788  17.215
 5548TIP3    H238060   2.189   5.782  17.176
 5549TIP3   OH238061   6.023   2.160   0.136
 5549TIP3    H138062   6.081   2.235   0.154
 5549TIP3    H238063   6.026   2.149   0.041
 5550TIP3   OH238064   3.044   1.756   2.486
 5550TIP3    H138065   3.128   1.712   2.470
 5550TIP3    H238066   3.043   1.829   2.425
 5551TIP3   OH238067   0.100   3.159   3.245
 5551TIP3    H138068   0.036   3.229   3.254
 5551TIP3    H238069   0.118   3.154   3.151
 5552TIP3   OH238070   1.470   3.809   2.900
 5552TIP3    H138071   1.544   3.866   2.882
 5552TIP3    H238072   1.495   3.760   2.978
 5553TIP3   OH238073   1.467   0.518  14.926
 5553TIP3    H138074   1.553   0.540  14.962
 5553TIP3    H238075   1.484   0.452  14.860
 5554TIP3   OH238076   3.007   6.076   2.071
 5554TIP3    H138077   3.040   6.095   2.159
 5554TIP3    H238078   2.943   6.006   2.084
 5555TIP3   OH238079   5.386   3.584   5.048
 5555TIP3    H138080   5.292   3.581   5.032
 5555TIP3    H238081   5.416   3.659   4.996
 5556TIP3   OH238082   1.037   5.835  14.926
 5556TIP3    H138083   1.030   5.899  14.997
 5556TIP3    H238084   0.970   5.770  14.945
 5557TIP3   OH238085   2.346   4.262   2.811
 5557TIP3    H138086   2.334   4.285   2.719
 5557TIP3    H238087   2.381   4.173   2.809
 5558TIP3   OH238088   1.738   5.414  15.038
 5558TIP3    H138089   1.791   5.455  14.970
 5558TIP3    H238090   1.667   5.476  15.053
 5559TIP3   OH238091   6.130   4.744  15.375
 5559TIP3    H138092   6.064   4.755  15.444
 5559TIP3    H238093   6.104   4.664  15.330
 5560TIP3   OH238094   1.453   1.196   5.141
 5560TIP3    H138095   1.467   1.199   5.046
 5560TIP3    H238096   1.417   1.282   5.162
 5561TIP3   OH238097   2.600   4.494  11.313
 5561TIP3    H138098   2.588   4.558  11.243
 5561TIP3    H238099   2.566   4.412  11.277
 5562TIP3   OH238100   5.997   4.056   5.967
 5562TIP3    H138101   6.070   3.997   5.986
 5562TIP3    H238102   5.954   4.069   6.051
 5563TIP3   OH238103   6.598   1.246  16.384
 5563TIP3    H138104   6.619   1.187  16.456
 5563TIP3    H238105   6.648   1.326  16.404
 5564TIP3   OH238106   4.283   0.857  11.838
 5564TIP3    H138107   4.269   0.935  11.785
 5564TIP3    H238108   4.194   0.826  11.860
 5565TIP3   OH238109   6.575   4.480   2.231
 5565TIP3    H138110   6.517   4.404   2.221
 5565TIP3    H238111   6.649   4.446   2.282
 5566TIP3   OH238112   3.595   4.507   4.268
 5566TIP3    H138113   3.582   4.596   4.237
 5566TIP3    H238114   3.525   4.493   4.332
 5567TIP3   OH238115   5.398   1.370   1.561
 5567TIP3    H138116   5.465   1.385   1.628
 5567TIP3    H238117   5.337   1.307   1.601
 5568TIP3   OH238118   6.177   4.026  15.665
 5568TIP3    H138119   6.211   4.113  15.688
 5568TIP3    H238120   6.248   3.986  15.615
 5569TIP3   OH238121   3.410   0.383   5.144
 5569TIP3    H138122   3.392   0.426   5.228
 5569TIP3    H238123   3.353   0.428   5.081
 5570TIP3   OH238124   6.678   4.111  12.622
 5570TIP3    H138125   6.654   4.021  12.600
 5570TIP3    H238126   6.754   4.102  12.679
 5571TIP3   OH238127   2.592   5.923   1.606
 5571TIP3    H138128   2.627   6.010   1.588
 5571TIP3    H238129   2.608   5.873   1.526
 5572TIP3   OH238130   4.969   3.394   2.869
 5572TIP3    H138131   4.878   3.366   2.863
 5572TIP3    H238132   4.978   3.430   2.958
 5573TIP3   OH238133   6.040   1.627   3.058
 5573TIP3    H138134   5.964   1.679   3.033
 5573TIP3    H238135   6.007   1.568   3.126
 5574TIP3   OH238136   2.114   4.981   6.256
 5574TIP3    H138137   2.202   4.982   6.292
 5574TIP3    H238138   2.065   5.044   6.309
 5575TIP3   OH238139   1.804   1.498  11.297
 5575TIP3    H138140   1.740   1.566  11.321
 5575TIP3    H238141   1.795   1.432  11.365
 5576TIP3   OH238142   0.351   6.200   3.527
 5576TIP3    H138143   0.256   6.200   3.528
 5576TIP3    H238144   0.375   6.107   3.518
 5577TIP3   OH238145   2.994   4.017  12.028
 5577TIP3    H138146   3.040   3.970  12.098
 5577TIP3    H238147   3.017   3.970  11.948
 5578TIP3   OH238148   2.769   2.560  15.113
 5578TIP3    H138149   2.735   2.544  15.201
 5578TIP3    H238150   2.841   2.498  15.103
 5579TIP3   OH238151   1.393   6.114   5.277
 5579TIP3    H138152   1.476   6.156   5.302
 5579TIP3    H238153   1.389   6.123   5.182
 5580TIP3   OH238154   4.930   4.567  11.591
 5580TIP3    H138155   4.879   4.491  11.617
 5580TIP3    H238156   4.886   4.599  11.512
 5581TIP3   OH238157   0.230   0.795  12.533
 5581TIP3    H138158   0.280   0.809  12.613
 5581TIP3    H238159   0.163   0.863  12.534
 5582TIP3   OH238160   0.349   2.196   0.193
 5582TIP3    H138161   0.380   2.219   0.281
 5582TIP3    H238162   0.302   2.273   0.163
 5583TIP3   OH238163   0.593   6.571  16.328
 5583TIP3    H138164   0.567   6.651  16.375
 5583TIP3    H238165   0.517   6.549  16.274
 5584TIP3   OH238166   4.001   1.882  10.983
 5584TIP3    H138167   3.958   1.823  10.922
 5584TIP3    H238168   4.088   1.895  10.947
 5585TIP3   OH238169   0.947   2.777  16.646
 5585TIP3    H138170   0.908   2.768  16.732
 5585TIP3    H238171   1.011   2.848  16.656
 5586TIP3   OH238172   1.737   1.952   2.920
 5586TIP3    H138173   1.727   2.046   2.935
 5586TIP3    H238174   1.648   1.919   2.908
 5587TIP3   OH238175   2.308   1.570  15.794
 5587TIP3    H138176   2.245   1.508  15.758
 5587TIP3    H238177   2.266   1.655  15.787
 5588TIP3   OH238178   3.261   3.578   3.859
 5588TIP3    H138179   3.182   3.615   3.896
 5588TIP3    H238180   3.314   3.552   3.934
 5589TIP3   OH238181   4.847   1.197   4.539
 5589TIP3    H138182   4.932   1.171   4.502
 5589TIP3    H238183   4.830   1.284   4.501
 5590TIP3   OH238184   2.362   6.303   0.030
 5590TIP3    H138185   2.297   6.289   0.098
 5590TIP3    H238186   2.344   6.391  -0.003
 5591TIP3   OH238187   2.903   5.832   0.432
 5591TIP3    H138188   2.904   5.888   0.355
 5591TIP3    H238189   2.810   5.823   0.454
 5592TIP3   OH238190   2.045   4.632  15.689
 5592TIP3    H138191   2.116   4.655  15.629
 5592TIP3    H238192   2.004   4.715  15.710
 5593TIP3   OH238193   5.702   4.328   2.480
 5593TIP3    H138194   5.765   4.256   2.468
 5593TIP3    H238195   5.745   4.404   2.440
 5594TIP3   OH238196   4.496   0.054   2.317
 5594TIP3    H138197   4.457  -0.010   2.376
 5594TIP3    H238198   4.447   0.135   2.333
 5595TIP3   OH238199   2.735   0.703   1.123
 5595TIP3    H138200   2.709   0.789   1.090
 5595TIP3    H238201   2.683   0.690   1.202
 5596TIP3   OH238202   3.113   1.166  12.211
 5596TIP3    H138203   3.111   1.130  12.123
 5596TIP3    H238204   3.154   1.252  12.201
 5597TIP3   OH238205   1.191   2.969   5.017
 5597TIP3    H138206   1.116   2.910   5.025
 5597TIP3    H238207   1.176   3.034   5.086
 5598TIP3   OH238208   2.727   6.194  16.132
 5598TIP3    H138209   2.686   6.123  16.083
 5598TIP3    H238210   2.797   6.226  16.075
 5599TIP3   OH238211   2.221   2.046   4.298
 5599TIP3    H138212   2.164   1.980   4.336
 5599TIP3    H238213   2.309   2.021   4.326
 5600TIP3   OH238214   5.493   2.902   0.023
 5600TIP3    H138215   5.532   2.865   0.103
 5600TIP3    H238216   5.495   2.997   0.037
 5601TIP3   OH238217   3.038   3.005   1.250
 5601TIP3    H138218   2.978   3.075   1.225
 5601TIP3    H238219   3.110   3.013   1.187
 5602TIP3   OH238220   6.512   6.364  14.187
 5602TIP3    H138221   6.470   6.431  14.241
 5602TIP3    H238222   6.470   6.282  14.214
 5603TIP3   OH238223   4.501   0.042   1.807
 5603TIP3    H138224   4.520   0.106   1.876
 5603TIP3    H238225   4.434   0.084   1.753
 5604TIP3   OH238226   6.656   5.912  16.114
 5604TIP3    H138227   6.615   5.983  16.064
 5604TIP3    H238228   6.707   5.864  16.048
 5605TIP3   OH238229   4.657   0.128  11.095
 5605TIP3    H138230   4.678   0.137  11.188
 5605TIP3    H238231   4.637   0.035  11.084
 5606TIP3   OH238232   4.943   3.211  14.357
 5606TIP3    H138233   4.948   3.306  14.347
 5606TIP3    H238234   4.977   3.176  14.275
 5607TIP3   OH238235   6.182   1.552  13.315
 5607TIP3    H138236   6.174   1.569  13.222
 5607TIP3    H238237   6.160   1.636  13.357
 5608TIP3   OH238238   2.210   0.945  13.713
 5608TIP3    H138239   2.204   1.024  13.767
 5608TIP3    H238240   2.246   0.879  13.772
 5609TIP3   OH238241   1.999   6.015   3.283
 5609TIP3    H138242   2.059   5.975   3.346
 5609TIP3    H238243   1.954   5.941   3.242
 5610TIP3   OH238244   1.174   5.488  12.822
 5610TIP3    H138245   1.198   5.402  12.854
 5610TIP3    H238246   1.255   5.526  12.789
 5611TIP3   OH238247   4.974   1.291   5.063
 5611TIP3    H138248   4.944   1.260   4.978
 5611TIP3    H238249   5.054   1.340   5.044
 5612TIP3   OH238250   1.018   2.105  15.904
 5612TIP3    H138251   1.105   2.086  15.938
 5612TIP3    H238252   0.960   2.097  15.979
 5613TIP3   OH238253   1.911   2.432   2.931
 5613TIP3    H138254   1.949   2.352   2.966
 5613TIP3    H238255   1.975   2.500   2.952
 5614TIP3   OH238256   1.146   3.232  11.344
 5614TIP3    H138257   1.205   3.302  11.371
 5614TIP3    H238258   1.068   3.243  11.398
 5615TIP3   OH238259   1.056   0.855   1.383
 5615TIP3    H138260   1.103   0.781   1.344
 5615TIP3    H238261   1.125   0.919   1.401
 5616TIP3   OH238262   5.642   1.575  16.596
 5616TIP3    H138263   5.550   1.550  16.600
 5616TIP3    H238264   5.689   1.492  16.588
 5617TIP3   OH238265   5.992   1.842  13.940
 5617TIP3    H138266   5.930   1.847  13.867
 5617TIP3    H238267   5.947   1.887  14.012
 5618TIP3   OH238268   2.643   6.029  12.921
 5618TIP3    H138269   2.693   5.949  12.931
 5618TIP3    H238270   2.672   6.065  12.837
 5619TIP3   OH238271   2.592   3.935   3.507
 5619TIP3    H138272   2.618   3.920   3.416
 5619TIP3    H238273   2.621   4.025   3.526
 5620TIP3   OH238274   5.061   3.995   1.248
 5620TIP3    H138275   5.119   4.049   1.194
 5620TIP3    H238276   5.104   3.990   1.333
 5621TIP3   OH238277   2.384   0.805  14.421
 5621TIP3    H138278   2.429   0.752  14.353
 5621TIP3    H238279   2.391   0.895  14.389
 5622TIP3   OH238280   4.365   4.423  11.296
 5622TIP3    H138281   4.403   4.497  11.344
 5622TIP3    H238282   4.303   4.464  11.235
 5623TIP3   OH238283   3.229   0.379  16.420
 5623TIP3    H138284   3.243   0.296  16.465
 5623TIP3    H238285   3.198   0.353  16.333
 5624TIP3   OH238286   2.324   0.186  15.273
 5624TIP3    H138287   2.380   0.264  15.270
 5624TIP3    H238288   2.338   0.150  15.361
 5625TIP3   OH238289   3.520   0.432   6.280
 5625TIP3    H138290   3.473   0.359   6.320
 5625TIP3    H238291   3.606   0.396   6.259
 5626TIP3   OH238292   1.823   5.668  11.892
 5626TIP3    H138293   1.780   5.603  11.948
 5626TIP3    H238294   1.915   5.645  11.895
 5627TIP3   OH238295   6.173   4.845  16.366
 5627TIP3    H138296   6.189   4.938  16.382
 5627TIP3    H238297   6.194   4.803  16.449
 5628TIP3   OH238298   4.974   6.700   5.802
 5628TIP3    H138299   4.990   6.609   5.824
 5628TIP3    H238300   5.002   6.709   5.711
 5629TIP3   OH238301   5.306   0.134  12.814
 5629TIP3    H138302   5.342   0.046  12.827
 5629TIP3    H238303   5.239   0.142  12.882
 5630TIP3   OH238304   5.755   4.902  16.651
 5630TIP3    H138305   5.817   4.970  16.680
 5630TIP3    H238306   5.691   4.950  16.598
 5631TIP3   OH238307   0.487   3.380  12.154
 5631TIP3    H138308   0.409   3.324  12.146
 5631TIP3    H238309   0.554   3.335  12.102
 5632TIP3   OH238310   2.130   1.710   2.472
 5632TIP3    H138311   2.133   1.711   2.377
 5632TIP3    H238312   2.072   1.782   2.495
 5633TIP3   OH238313   4.865   2.107  11.895
 5633TIP3    H138314   4.818   2.149  11.967
 5633TIP3    H238315   4.847   2.162  11.819
 5634TIP3   OH238316   6.345   0.353   1.128
 5634TIP3    H138317   6.357   0.447   1.114
 5634TIP3    H238318   6.433   0.318   1.138
 5635TIP3   OH238319   2.947   5.824  15.310
 5635TIP3    H138320   2.944   5.797  15.218
 5635TIP3    H238321   2.860   5.804  15.344
 5636TIP3   OH238322   5.428   2.399   2.963
 5636TIP3    H138323   5.487   2.439   2.899
 5636TIP3    H238324   5.350   2.376   2.913
 5637TIP3   OH238325   4.150   2.500  15.803
 5637TIP3    H138326   4.115   2.415  15.829
 5637TIP3    H238327   4.104   2.563  15.857
 5638TIP3   OH238328   6.075   2.259   4.247
 5638TIP3    H138329   6.052   2.177   4.291
 5638TIP3    H238330   6.154   2.238   4.197
 5639TIP3   OH238331   3.841   0.249   5.380
 5639TIP3    H138332   3.891   0.186   5.432
 5639TIP3    H238333   3.890   0.331   5.388
 5640TIP3   OH238334   6.176   0.014   0.047
 5640TIP3    H138335   6.256  -0.021   0.007
 5640TIP3    H238336   6.135   0.064  -0.023
 5641TIP3   OH238337   4.580   4.977  11.310
 5641TIP3    H138338   4.513   5.027  11.263
 5641TIP3    H238339   4.576   4.889  11.272
 5642TIP3   OH238340   2.559   1.768  15.462
 5642TIP3    H138341   2.483   1.814  15.499
 5642TIP3    H238342   2.630   1.787  15.523
 5643TIP3   OH238343   2.803   4.128   5.910
 5643TIP3    H138344   2.762   4.157   5.829
 5643TIP3    H238345   2.825   4.208   5.956
 5644TIP3   OH238346   1.532   3.999  16.967
 5644TIP3    H138347   1.607   3.960  16.921
 5644TIP3    H238348   1.571   4.056  17.033
 5645TIP3   OH238349   0.560   1.934   3.772
 5645TIP3    H138350   0.635   1.984   3.740
 5645TIP3    H238351   0.543   1.870   3.703
 5646TIP3   OH238352   1.235   6.108  15.431
 5646TIP3    H138353   1.264   6.042  15.368
 5646TIP3    H238354   1.234   6.062  15.515
 5647TIP3   OH238355   4.970   2.793   0.790
 5647TIP3    H138356   4.885   2.793   0.746
 5647TIP3    H238357   5.009   2.877   0.767
 5648TIP3   OH238358   6.769   2.976  13.952
 5648TIP3    H138359   6.848   3.012  13.992
 5648TIP3    H238360   6.741   3.043  13.889
 5649TIP3   OH238361   2.975   0.517   4.338
 5649TIP3    H138362   3.059   0.479   4.311
 5649TIP3    H238363   2.943   0.562   4.259
 5650TIP3   OH238364   6.340   3.438   0.205
 5650TIP3    H138365   6.361   3.388   0.283
 5650TIP3    H238366   6.414   3.422   0.146
 5651TIP3   OH238367   2.574   2.661   3.240
 5651TIP3    H138368   2.531   2.646   3.324
 5651TIP3    H238369   2.644   2.724   3.260
 5652TIP3   OH238370   1.977   2.790   0.701
 5652TIP3    H138371   1.905   2.730   0.719
 5652TIP3    H238372   2.041   2.738   0.652
 5653TIP3   OH238373   5.875   5.217   5.897
 5653TIP3    H138374   5.790   5.188   5.930
 5653TIP3    H238375   5.855   5.297   5.847
 5654TIP3   OH238376   1.287   0.841  11.759
 5654TIP3    H138377   1.366   0.878  11.719
 5654TIP3    H238378   1.236   0.810  11.684
 5655TIP3   OH238379   4.924   1.583  16.621
 5655TIP3    H138380   4.944   1.633  16.542
 5655TIP3    H238381   4.862   1.515  16.592
 5656TIP3   OH238382   5.785   4.315   5.539
 5656TIP3    H138383   5.733   4.395   5.536
 5656TIP3    H238384   5.801   4.300   5.632
 5657TIP3   OH238385   1.310   3.979  14.733
 5657TIP3    H138386   1.341   4.006  14.820
 5657TIP3    H238387   1.237   4.038  14.714
 5658TIP3   OH238388   5.983   3.753  16.375
 5658TIP3    H138389   6.044   3.695  16.329
 5658TIP3    H238390   6.030   3.836  16.383
 5659TIP3   OH238391   4.679   1.124   2.418
 5659TIP3    H138392   4.756   1.117   2.362
 5659TIP3    H238393   4.620   1.183   2.370
 5660TIP3   OH238394   6.459   0.096  14.359
 5660TIP3    H138395   6.522   0.168  14.368
 5660TIP3    H238396   6.383   0.125  14.410
 5661TIP3   OH238397   3.170   5.818  14.443
 5661TIP3    H138398   3.180   5.912  14.433
 5661TIP3    H238399   3.110   5.808  14.517
 5662TIP3   OH238400   3.165   1.951   4.160
 5662TIP3    H138401   3.238   1.996   4.202
 5662TIP3    H238402   3.091   2.011   4.169
 5663TIP3   OH238403   2.441   1.149   1.570
 5663TIP3    H138404   2.531   1.170   1.598
 5663TIP3    H238405   2.407   1.231   1.536
 5664TIP3   OH238406   6.648   2.091  11.896
 5664TIP3    H138407   6.572   2.111  11.842
 5664TIP3    H238408   6.628   2.130  11.981
 5665TIP3   OH238409   1.070   5.112   2.142
 5665TIP3    H138410   1.130   5.187   2.138
 5665TIP3    H238411   1.026   5.112   2.057
 5666TIP3   OH238412   4.389   3.728  15.816
 5666TIP3    H138413   4.339   3.670  15.875
 5666TIP3    H238414   4.369   3.816  15.847
 5667TIP3   OH238415   6.101   2.781  15.560
 5667TIP3    H138416   6.104   2.690  15.589
 5667TIP3    H238417   6.193   2.809  15.561
 5668TIP3   OH238418   4.249   3.547  14.945
 5668TIP3    H138419   4.186   3.618  14.930
 5668TIP3    H238420   4.332   3.582  14.912
 5669TIP3   OH238421   1.932   4.599  15.394
 5669TIP3    H138422   1.922   4.532  15.461
 5669TIP3    H238423   2.026   4.613  15.387
 5670TIP3   OH238424   4.043   3.246   2.882
 5670TIP3    H138425   3.967   3.187   2.883
 5670TIP3    H238426   4.005   3.333   2.874
 5671TIP3   OH238427   2.197   1.714   3.583
 5671TIP3    H138428   2.191   1.621   3.561
 5671TIP3    H238429   2.173   1.759   3.502
 5672TIP3   OH238430   0.684   2.448  14.141
 5672TIP3    H138431   0.706   2.541  14.133
 5672TIP3    H238432   0.702   2.411  14.055
 5673TIP3   OH238433   3.621   4.409  13.589
 5673TIP3    H138434   3.705   4.453  13.603
 5673TIP3    H238435   3.572   4.425  13.670
 5674TIP3   OH238436   1.760   5.404  12.110
 5674TIP3    H138437   1.687   5.455  12.144
 5674TIP3    H238438   1.750   5.318  12.150
 5675TIP3   OH238439   1.083   2.798   1.173
 5675TIP3    H138440   1.034   2.845   1.105
 5675TIP3    H238441   1.018   2.742   1.216
 5676TIP3   OH238442   4.965   5.457   0.904
 5676TIP3    H138443   4.889   5.417   0.947
 5676TIP3    H238444   5.037   5.397   0.924
 5677TIP3   OH238445   3.107   4.628   4.866
 5677TIP3    H138446   3.099   4.604   4.959
 5677TIP3    H238447   3.035   4.690   4.851
 5678TIP3   OH238448   4.107   6.063  14.295
 5678TIP3    H138449   4.157   5.999  14.244
 5678TIP3    H238450   4.029   6.016  14.324
 5679TIP3   OH238451   6.621   5.096  15.074
 5679TIP3    H138452   6.699   5.071  15.025
 5679TIP3    H238453   6.655   5.147  15.148
 5680TIP3   OH238454   5.943   4.489   3.091
 5680TIP3    H138455   6.033   4.497   3.122
 5680TIP3    H238456   5.890   4.528   3.161
 5681TIP3   OH238457   2.189   1.922   6.241
 5681TIP3    H138458   2.147   1.997   6.198
 5681TIP3    H238459   2.137   1.847   6.213
 5682TIP3   OH238460   5.185   0.266  14.326
 5682TIP3    H138461   5.227   0.273  14.240
 5682TIP3    H238462   5.097   0.300  14.313
 5683TIP3   OH238463   4.721   2.137   1.516
 5683TIP3    H138464   4.653   2.171   1.458
 5683TIP3    H238465   4.803   2.158   1.473
 5684TIP3   OH238466   0.222   4.032  11.504
 5684TIP3    H138467   0.238   4.125  11.486
 5684TIP3    H238468   0.208   3.994  11.418
 5685TIP3   OH238469   2.664   3.280   1.320
 5685TIP3    H138470   2.655   3.376   1.319
 5685TIP3    H238471   2.683   3.259   1.411
 5686TIP3   OH238472   1.193   4.490  11.501
 5686TIP3    H138473   1.250   4.555  11.461
 5686TIP3    H238474   1.251   4.417  11.522
 5687TIP3   OH238475   2.203   3.132   3.826
 5687TIP3    H138476   2.243   3.161   3.745
 5687TIP3    H238477   2.153   3.053   3.803
 5688TIP3   OH238478   3.128   2.101   2.931
 5688TIP3    H138479   3.033   2.106   2.946
 5688TIP3    H238480   3.148   2.182   2.884
 5689TIP3   OH238481   1.033   0.937  12.799
 5689TIP3    H138482   1.064   0.934  12.890
 5689TIP3    H238483   1.007   0.848  12.779
 5690TIP3   OH238484   6.501   4.101   2.406
 5690TIP3    H138485   6.466   4.155   2.335
 5690TIP3    H238486   6.575   4.055   2.366
 5691TIP3   OH238487   5.007   5.433  11.664
 5691TIP3    H138488   5.051   5.376  11.601
 5691TIP3    H238489   4.918   5.397  11.670
 5692TIP3   OH238490   0.051   6.329   0.111
 5692TIP3    H138491   0.041   6.321   0.016
 5692TIP3    H238492  -0.038   6.319   0.146
 5693TIP3   OH238493   0.494   0.314  15.522
 5693TIP3    H138494   0.470   0.230  15.483
 5693TIP3    H238495   0.576   0.338  15.480
 5694TIP3   OH238496   1.226   1.004   3.715
 5694TIP3    H138497   1.306   1.054   3.727
 5694TIP3    H238498   1.158   1.059   3.754
 5695TIP3   OH238499   5.363   4.857   2.667
 5695TIP3    H138500   5.306   4.883   2.594
 5695TIP3    H238501   5.305   4.856   2.743
 5696TIP3   OH238502   0.337   0.425   4.134
 5696TIP3    H138503   0.312   0.470   4.053
 5696TIP3    H238504   0.331   0.493   4.201
 5697TIP3   OH238505   0.560   5.313   0.880
 5697TIP3    H138506   0.654   5.329   0.876
 5697TIP3    H238507   0.526   5.386   0.931
 5698TIP3   OH238508   2.325   5.076  16.961
 5698TIP3    H138509   2.385   5.005  16.984
 5698TIP3    H238510   2.275   5.042  16.887
 5699TIP3   OH238511   4.653   3.130   2.907
 5699TIP3    H138512   4.727   3.079   2.941
 5699TIP3    H238513   4.624   3.184   2.980
 5700TIP3   OH238514   6.403   6.541  16.291
 5700TIP3    H138515   6.410   6.594  16.212
 5700TIP3    H238516   6.459   6.586  16.355
 5701TIP3   OH238517   3.711   3.731  15.175
 5701TIP3    H138518   3.679   3.816  15.203
 5701TIP3    H238519   3.645   3.669  15.206
 5702TIP3   OH238520   1.931   4.394  15.614
 5702TIP3    H138521   1.972   4.473  15.648
 5702TIP3    H238522   1.896   4.349  15.691
 5703TIP3   OH238523   1.983   4.264  15.910
 5703TIP3    H138524   2.066   4.286  15.867
 5703TIP3    H238525   1.985   4.316  15.991
 5704TIP3   OH238526   5.753   6.308  15.133
 5704TIP3    H138527   5.849   6.319  15.130
 5704TIP3    H238528   5.738   6.223  15.093
 5705TIP3   OH238529   2.690   5.628   4.245
 5705TIP3    H138530   2.709   5.682   4.321
 5705TIP3    H238531   2.677   5.540   4.280
 5706TIP3   OH238532   0.067   5.385   5.417
 5706TIP3    H138533   0.120   5.450   5.370
 5706TIP3    H238534   0.104   5.301   5.392
 5707TIP3   OH238535   2.218   6.229  14.807
 5707TIP3    H138536   2.157   6.288  14.851
 5707TIP3    H238537   2.176   6.208  14.724
 5708TIP3   OH238538   4.261   2.305  16.434
 5708TIP3    H138539   4.270   2.300  16.529
 5708TIP3    H238540   4.291   2.394  16.412
 5709TIP3   OH238541   3.655   4.754   2.310
 5709TIP3    H138542   3.715   4.690   2.349
 5709TIP3    H238543   3.590   4.701   2.264
 5710TIP3   OH238544   3.486   1.952   4.393
 5710TIP3    H138545   3.434   2.013   4.341
 5710TIP3    H238546   3.459   1.865   4.363
 5711TIP3   OH238547   1.240   0.959   5.834
 5711TIP3    H138548   1.246   0.865   5.848
 5711TIP3    H238549   1.324   0.984   5.795
 5712TIP3   OH238550   3.279   0.894   1.508
 5712TIP3    H138551   3.282   0.914   1.415
 5712TIP3    H238552   3.198   0.935   1.539
 5713TIP3   OH238553   0.621   0.764   3.080
 5713TIP3    H138554   0.526   0.765   3.075
 5713TIP3    H238555   0.647   0.685   3.033
 5714TIP3   OH238556   1.740   3.173  10.495
 5714TIP3    H138557   1.743   3.266  10.519
 5714TIP3    H238558   1.647   3.154  10.486
 5715TIP3   OH238559   6.016   0.326  14.641
 5715TIP3    H138560   6.023   0.420  14.624
 5715TIP3    H238561   5.927   0.303  14.615
 5716TIP3   OH238562   3.372   4.988   5.098
 5716TIP3    H138563   3.347   4.952   5.182
 5716TIP3    H238564   3.373   4.913   5.038
 5717TIP3   OH238565   3.870   1.145   0.641
 5717TIP3    H138566   3.785   1.115   0.610
 5717TIP3    H238567   3.868   1.129   0.736
 5718TIP3   OH238568   5.570   3.424   4.282
 5718TIP3    H138569   5.599   3.401   4.194
 5718TIP3    H238570   5.651   3.426   4.334
 5719TIP3   OH238571   3.990   3.374   2.224
 5719TIP3    H138572   3.922   3.343   2.164
 5719TIP3    H238573   4.031   3.295   2.258
 5720TIP3   OH238574   0.451   4.509  13.677
 5720TIP3    H138575   0.519   4.446  13.652
 5720TIP3    H238576   0.371   4.457  13.681
 5721TIP3   OH238577   0.728   3.075   4.657
 5721TIP3    H138578   0.680   3.141   4.607
 5721TIP3    H238579   0.755   3.010   4.591
 5722TIP3   OH238580   6.167   3.161  16.347
 5722TIP3    H138581   6.141   3.069  16.355
 5722TIP3    H238582   6.180   3.174  16.253
 5723TIP3   OH238583   2.610   3.250   5.546
 5723TIP3    H138584   2.531   3.274   5.594
 5723TIP3    H238585   2.682   3.282   5.599
 5724TIP3   OH238586   3.395   4.643  13.202
 5724TIP3    H138587   3.436   4.674  13.283
 5724TIP3    H238588   3.458   4.667  13.133
 5725TIP3   OH238589   6.227   6.341  12.344
 5725TIP3    H138590   6.210   6.430  12.375
 5725TIP3    H238591   6.167   6.330  12.271
 5726TIP3   OH238592   1.343   5.059  14.911
 5726TIP3    H138593   1.393   5.024  14.837
 5726TIP3    H238594   1.407   5.112  14.959
 5727TIP3   OH238595   0.067   2.980  16.474
 5727TIP3    H138596   0.068   3.035  16.395
 5727TIP3    H238597   0.124   2.906  16.452
 5728TIP3   OH238598   2.044   4.768   0.980
 5728TIP3    H138599   2.057   4.742   1.071
 5728TIP3    H238600   1.955   4.740   0.959
 5729TIP3   OH238601   5.935   4.913   2.466
 5729TIP3    H138602   5.959   4.896   2.375
 5729TIP3    H238603   5.872   4.844   2.488
 5730TIP3   OH238604   2.376   6.110  12.031
 5730TIP3    H138605   2.409   6.189  11.987
 5730TIP3    H238606   2.332   6.142  12.109
 5731TIP3   OH238607   3.700   0.770  12.615
 5731TIP3    H138608   3.662   0.818  12.542
 5731TIP3    H238609   3.628   0.760  12.678
 5732TIP3   OH238610   5.181   2.854  14.036
 5732TIP3    H138611   5.271   2.863  14.066
 5732TIP3    H238612   5.183   2.780  13.975
 5733TIP3   OH238613   1.672   4.591   4.455
 5733TIP3    H138614   1.666   4.668   4.512
 5733TIP3    H238615   1.766   4.581   4.439
 5734TIP3   OH238616   6.747   5.280   3.573
 5734TIP3    H138617   6.763   5.373   3.558
 5734TIP3    H238618   6.734   5.273   3.668
 5735TIP3   OH238619   2.529   4.474  15.736
 5735TIP3    H138620   2.542   4.559  15.695
 5735TIP3    H238621   2.455   4.488  15.796
 5736TIP3   OH238622   0.666   4.855   3.417
 5736TIP3    H138623   0.576   4.821   3.421
 5736TIP3    H238624   0.661   4.930   3.358
 5737TIP3   OH238625   3.567   3.830  12.833
 5737TIP3    H138626   3.524   3.773  12.897
 5737TIP3    H238627   3.583   3.773  12.758
 5738TIP3   OH238628   5.452   5.901   1.383
 5738TIP3    H138629   5.548   5.898   1.381
 5738TIP3    H238630   5.427   5.826   1.438
 5739TIP3   OH238631   5.021   5.934  10.181
 5739TIP3    H138632   4.927   5.943  10.167
 5739TIP3    H238633   5.029   5.894  10.268
 5740TIP3   OH238634   3.986   6.459   0.009
 5740TIP3    H138635   4.008   6.542   0.051
 5740TIP3    H238636   4.040   6.394   0.053
 5741TIP3   OH238637   2.860   3.897  11.776
 5741TIP3    H138638   2.776   3.934  11.805
 5741TIP3    H238639   2.893   3.960  11.712
 5742TIP3   OH238640   2.895   1.754   3.659
 5742TIP3    H138641   2.849   1.675   3.687
 5742TIP3    H238642   2.827   1.810   3.622
 5743TIP3   OH238643   0.153   4.105  10.598
 5743TIP3    H138644   0.190   4.026  10.561
 5743TIP3    H238645   0.058   4.093  10.591
 5744TIP3   OH238646   6.013   1.926  13.568
 5744TIP3    H138647   5.986   1.867  13.497
 5744TIP3    H238648   5.949   1.910  13.637
 5745TIP3   OH238649   5.351   0.393  11.673
 5745TIP3    H138650   5.392   0.476  11.697
 5745TIP3    H238651   5.283   0.418  11.609
 5746TIP3   OH238652   1.203   2.505   4.088
 5746TIP3    H138653   1.161   2.429   4.047
 5746TIP3    H238654   1.151   2.580   4.058
 5747TIP3   OH238655   0.042   4.092   6.419
 5747TIP3    H138656   0.000   4.036   6.484
 5747TIP3    H238657   0.135   4.069   6.423
 5748TIP3   OH238658   6.587   2.627   0.383
 5748TIP3    H138659   6.570   2.704   0.330
 5748TIP3    H238660   6.501   2.598   0.413
 5749TIP3   OH238661   0.581   0.468  10.355
 5749TIP3    H138662   0.530   0.544  10.326
 5749TIP3    H238663   0.515   0.402  10.375
 5750TIP3   OH238664   1.337   2.913  14.016
 5750TIP3    H138665   1.351   2.849  14.085
 5750TIP3    H238666   1.253   2.889  13.977
 5751TIP3   OH238667   3.024   4.215   3.785
 5751TIP3    H138668   3.072   4.175   3.712
 5751TIP3    H238669   3.092   4.260   3.835
 5752TIP3   OH238670   6.200   3.307   2.846
 5752TIP3    H138671   6.193   3.270   2.934
 5752TIP3    H238672   6.158   3.242   2.789
 5753TIP3   OH238673   0.186   1.400  14.727
 5753TIP3    H138674   0.155   1.444  14.806
 5753TIP3    H238675   0.153   1.455  14.655
 5754TIP3   OH238676   1.241   6.026   5.856
 5754TIP3    H138677   1.247   6.118   5.830
 5754TIP3    H238678   1.182   6.027   5.931
 5755TIP3   OH238679   2.052   4.936  11.252
 5755TIP3    H138680   1.962   4.956  11.229
 5755TIP3    H238681   2.104   4.983  11.187
 5756TIP3   OH238682   5.282   4.794   6.148
 5756TIP3    H138683   5.372   4.809   6.119
 5756TIP3    H238684   5.290   4.727   6.216
 5757TIP3   OH238685   4.807   5.888   1.272
 5757TIP3    H138686   4.889   5.841   1.253
 5757TIP3    H238687   4.802   5.888   1.368
 5758TIP3   OH238688   5.368   3.187  10.909
 5758TIP3    H138689   5.457   3.187  10.874
 5758TIP3    H238690   5.319   3.244  10.851
 5759TIP3   OH238691   6.160   0.707  13.670
 5759TIP3    H138692   6.248   0.736  13.697
 5759TIP3    H238693   6.102   0.778  13.699
 5760TIP3   OH238694   0.947   0.658   4.199
 5760TIP3    H138695   0.889   0.644   4.275
 5760TIP3    H238696   0.970   0.570   4.170
 5761TIP3   OH238697   4.776   0.156  14.975
 5761TIP3    H138698   4.853   0.198  14.935
 5761TIP3    H238699   4.808   0.126  15.060
 5762TIP3   OH238700   2.734   5.838  14.266
 5762TIP3    H138701   2.683   5.907  14.224
 5762TIP3    H238702   2.803   5.817  14.203
 5763TIP3   OH238703   5.517   3.506  15.616
 5763TIP3    H138704   5.587   3.509  15.682
 5763TIP3    H238705   5.484   3.416  15.621
 5764TIP3   OH238706   3.398   1.925  10.588
 5764TIP3    H138707   3.339   1.944  10.515
 5764TIP3    H238708   3.397   2.005  10.641
 5765TIP3   OH238709   1.800   4.459   1.192
 5765TIP3    H138710   1.822   4.550   1.214
 5765TIP3    H238711   1.708   4.450   1.216
 5766TIP3   OH238712   2.148   4.248   5.380
 5766TIP3    H138713   2.219   4.284   5.433
 5766TIP3    H238714   2.192   4.197   5.312
 5767TIP3   OH238715   1.871   1.155   4.517
 5767TIP3    H138716   1.937   1.192   4.576
 5767TIP3    H238717   1.886   1.060   4.522
 5768TIP3   OH238718   2.221   0.726  16.594
 5768TIP3    H138719   2.268   0.643  16.604
 5768TIP3    H238720   2.221   0.764  16.682
 5769TIP3   OH238721   0.449   3.438  16.853
 5769TIP3    H138722   0.465   3.512  16.795
 5769TIP3    H238723   0.511   3.450  16.925
 5770TIP3   OH238724   4.824   1.110   5.243
 5770TIP3    H138725   4.900   1.158   5.209
 5770TIP3    H238726   4.764   1.107   5.168
 5771TIP3   OH238727   5.888   2.005   4.187
 5771TIP3    H138728   5.829   1.987   4.113
 5771TIP3    H238729   5.964   1.949   4.171
 5772TIP3   OH238730   2.863   1.463  15.887
 5772TIP3    H138731   2.945   1.473  15.938
 5772TIP3    H238732   2.891   1.473  15.796
 5773TIP3   OH238733   0.666   1.642  10.161
 5773TIP3    H138734   0.581   1.601  10.175
 5773TIP3    H238735   0.721   1.608  10.231
 5774TIP3   OH238736   4.653   0.965  12.763
 5774TIP3    H138737   4.599   1.037  12.729
 5774TIP3    H238738   4.644   0.971  12.858
 5775TIP3   OH238739   4.492   3.662  16.502
 5775TIP3    H138740   4.412   3.704  16.470
 5775TIP3    H238741   4.533   3.625  16.424
 5776TIP3   OH238742   5.868   4.428   2.215
 5776TIP3    H138743   5.877   4.412   2.121
 5776TIP3    H238744   5.855   4.341   2.253
 5777TIP3   OH238745   2.214   4.885  15.218
 5777TIP3    H138746   2.198   4.798  15.254
 5777TIP3    H238747   2.218   4.943  15.294
 5778TIP3   OH238748   1.375   5.196  16.165
 5778TIP3    H138749   1.471   5.199  16.168
 5778TIP3    H238750   1.350   5.146  16.243
 5779TIP3   OH238751   4.862   6.624   1.877
 5779TIP3    H138752   4.843   6.539   1.916
 5779TIP3    H238753   4.951   6.645   1.908
 5780TIP3   OH238754   0.587   5.092  12.776
 5780TIP3    H138755   0.521   5.155  12.747
 5780TIP3    H238756   0.588   5.025  12.708
 5781TIP3   OH238757   1.102   1.333  14.871
 5781TIP3    H138758   1.067   1.296  14.952
 5781TIP3    H238759   1.041   1.305  14.803
 5782TIP3   OH238760   5.322   1.677  13.871
 5782TIP3    H138761   5.346   1.589  13.842
 5782TIP3    H238762   5.267   1.712  13.800
 5783TIP3   OH238763   3.185   2.259   2.000
 5783TIP3    H138764   3.218   2.274   2.089
 5783TIP3    H238765   3.250   2.201   1.960
 5784TIP3   OH238766   3.953   2.910  12.608
 5784TIP3    H138767   3.912   2.872  12.531
 5784TIP3    H238768   4.026   2.851  12.628
 5785TIP3   OH238769   6.623   4.385   0.236
 5785TIP3    H138770   6.583   4.315   0.185
 5785TIP3    H238771   6.555   4.413   0.297
 5786TIP3   OH238772   2.246   4.917   6.903
 5786TIP3    H138773   2.264   5.009   6.924
 5786TIP3    H238774   2.302   4.899   6.827
 5787TIP3   OH238775   4.242   1.070   3.709
 5787TIP3    H138776   4.208   1.055   3.620
 5787TIP3    H238777   4.210   0.995   3.760
 5788TIP3   OH238778   3.131   4.377   3.428
 5788TIP3    H138779   3.053   4.354   3.479
 5788TIP3    H238780   3.122   4.471   3.412
 5789TIP3   OH238781   6.097   5.181   3.893
 5789TIP3    H138782   6.147   5.262   3.878
 5789TIP3    H238783   6.085   5.178   3.988
 5790TIP3   OH238784   5.888   1.281  11.410
 5790TIP3    H138785   5.929   1.270  11.324
 5790TIP3    H238786   5.814   1.220  11.409
 5791TIP3   OH238787   0.924   5.140  14.502
 5791TIP3    H138788   0.890   5.055  14.475
 5791TIP3    H238789   0.975   5.122  14.581
 5792TIP3   OH238790   1.043   1.215   0.300
 5792TIP3    H138791   1.080   1.301   0.281
 5792TIP3    H238792   1.050   1.206   0.395
 5793TIP3   OH238793   1.556   1.254  10.857
 5793TIP3    H138794   1.518   1.275  10.772
 5793TIP3    H238795   1.646   1.288  10.853
 5794TIP3   OH238796   5.483   5.972   2.311
 5794TIP3    H138797   5.447   5.900   2.363
 5794TIP3    H238798   5.434   5.969   2.229
 5795TIP3   OH238799   5.452   0.371  15.392
 5795TIP3    H138800   5.485   0.439  15.451
 5795TIP3    H238801   5.528   0.314  15.377
 5796TIP3   OH238802   4.741   3.456   1.143
 5796TIP3    H138803   4.803   3.405   1.196
 5796TIP3    H238804   4.795   3.500   1.078
 5797TIP3   OH238805   3.565   3.849   1.145
 5797TIP3    H138806   3.641   3.806   1.184
 5797TIP3    H238807   3.490   3.800   1.178
 5798TIP3   OH238808   0.369   0.040   6.056
 5798TIP3    H138809   0.347  -0.053   6.050
 5798TIP3    H238810   0.444   0.044   6.115
 5799TIP3   OH238811   2.407   3.206  14.143
 5799TIP3    H138812   2.362   3.141  14.197
 5799TIP3    H238813   2.341   3.272  14.124
 5800TIP3   OH238814   1.466   1.762   0.435
 5800TIP3    H138815   1.511   1.784   0.516
 5800TIP3    H238816   1.520   1.693   0.396
 5801TIP3   OH238817   5.039   5.512   0.346
 5801TIP3    H138818   4.965   5.469   0.389
 5801TIP3    H238819   5.096   5.541   0.417
 5802TIP3   OH238820   1.629   5.880  13.855
 5802TIP3    H138821   1.588   5.934  13.788
 5802TIP3    H238822   1.710   5.849  13.815
 5803TIP3   OH238823   3.796   2.215   5.668
 5803TIP3    H138824   3.838   2.301   5.661
 5803TIP3    H238825   3.766   2.197   5.579
 5804TIP3   OH238826   6.609   5.829   3.173
 5804TIP3    H138827   6.594   5.905   3.230
 5804TIP3    H238828   6.681   5.782   3.214
 5805TIP3   OH238829   3.638   3.135  15.923
 5805TIP3    H138830   3.572   3.086  15.972
 5805TIP3    H238831   3.719   3.123  15.973
 5806TIP3   OH238832   2.627   5.477   3.934
 5806TIP3    H138833   2.628   5.391   3.976
 5806TIP3    H238834   2.718   5.507   3.940
 5807TIP3   OH238835   4.478   6.068   1.867
 5807TIP3    H138836   4.492   6.060   1.772
 5807TIP3    H238837   4.512   6.154   1.890
 5808TIP3   OH238838   2.002   3.462  13.830
 5808TIP3    H138839   1.989   3.386  13.774
 5808TIP3    H238840   2.073   3.437  13.890
 5809TIP3   OH238841   4.307   0.681   4.957
 5809TIP3    H138842   4.384   0.625   4.947
 5809TIP3    H238843   4.254   0.637   5.024
 5810TIP3   OH238844   0.977   5.721   2.623
 5810TIP3    H138845   1.044   5.667   2.666
 5810TIP3    H238846   0.977   5.691   2.532
 5811TIP3   OH238847   3.226   0.826   0.140
 5811TIP3    H138848   3.312   0.836   0.181
 5811TIP3    H238849   3.232   0.878   0.060
 5812TIP3   OH238850   5.672   6.471   0.862
 5812TIP3    H138851   5.675   6.502   0.953
 5812TIP3    H238852   5.607   6.400   0.863
 5813TIP3   OH238853   0.256   2.613   4.209
 5813TIP3    H138854   0.294   2.607   4.121
 5813TIP3    H238855   0.332   2.628   4.267
 5814TIP3   OH238856   2.002   1.638  11.548
 5814TIP3    H138857   2.027   1.553  11.512
 5814TIP3    H238858   2.068   1.656  11.615
 5815TIP3   OH238859   1.538   0.157   6.113
 5815TIP3    H138860   1.610   0.216   6.132
 5815TIP3    H238861   1.555   0.080   6.167
 5816TIP3   OH238862   6.187   2.397   5.852
 5816TIP3    H138863   6.211   2.432   5.938
 5816TIP3    H238864   6.212   2.305   5.855
 5817TIP3   OH238865   4.590   6.346   1.985
 5817TIP3    H138866   4.517   6.391   1.943
 5817TIP3    H238867   4.555   6.316   2.068
 5818TIP3   OH238868   4.853   5.404   4.057
 5818TIP3    H138869   4.910   5.473   4.025
 5818TIP3    H238870   4.788   5.392   3.987
 5819TIP3   OH238871   4.288   6.442  14.415
 5819TIP3    H138872   4.353   6.383  14.377
 5819TIP3    H238873   4.320   6.459  14.504
 5820TIP3   OH238874   5.023   5.488  13.435
 5820TIP3    H138875   5.045   5.556  13.499
 5820TIP3    H238876   5.107   5.447  13.414
 5821TIP3   OH238877   6.203   4.267  11.849
 5821TIP3    H138878   6.182   4.287  11.940
 5821TIP3    H238879   6.199   4.171  11.843
 5822TIP3   OH238880   5.329   1.561  12.930
 5822TIP3    H138881   5.346   1.508  13.008
 5822TIP3    H238882   5.270   1.630  12.960
 5823TIP3   OH238883   1.021   5.343  14.722
 5823TIP3    H138884   1.104   5.389  14.736
 5823TIP3    H238885   1.047   5.258  14.687
 5824TIP3   OH238886   2.690   6.062   4.842
 5824TIP3    H138887   2.609   6.112   4.831
 5824TIP3    H238888   2.759   6.128   4.851
 5825TIP3   OH238889   5.411   0.756   0.111
 5825TIP3    H138890   5.380   0.803   0.188
 5825TIP3    H238891   5.369   0.801   0.037
 5826TIP3   OH238892   1.837   0.073  13.394
 5826TIP3    H138893   1.901   0.086  13.464
 5826TIP3    H238894   1.802   0.160  13.376
 5827TIP3   OH238895   3.302   0.974   1.262
 5827TIP3    H138896   3.222   1.024   1.278
 5827TIP3    H238897   3.362   1.038   1.222
 5828TIP3   OH238898   4.964   2.814  11.778
 5828TIP3    H138899   5.012   2.773  11.706
 5828TIP3    H238900   4.916   2.886  11.738
 5829TIP3   OH238901   5.633   1.838  14.849
 5829TIP3    H138902   5.624   1.745  14.871
 5829TIP3    H238903   5.544   1.866  14.828
 5830TIP3   OH238904   0.161   2.775   1.758
 5830TIP3    H138905   0.208   2.757   1.839
 5830TIP3    H238906   0.210   2.727   1.691
 5831TIP3   OH238907   5.650   5.744  12.568
 5831TIP3    H138908   5.655   5.826  12.617
 5831TIP3    H238909   5.561   5.745  12.531
 5832TIP3   OH238910   5.616   4.631   5.997
 5832TIP3    H138911   5.711   4.625   6.000
 5832TIP3    H238912   5.597   4.723   6.018
 5833TIP3   OH238913   1.893   0.869   0.913
 5833TIP3    H138914   1.944   0.834   0.840
 5833TIP3    H238915   1.804   0.877   0.878
 5834TIP3   OH238916   1.236   1.906  13.931
 5834TIP3    H138917   1.316   1.907  13.878
 5834TIP3    H238918   1.206   1.815  13.927
 5835TIP3   OH238919   1.847   5.112   1.678
 5835TIP3    H138920   1.847   5.120   1.582
 5835TIP3    H238921   1.903   5.184   1.707
 5836TIP3   OH238922   2.894   6.698  14.586
 5836TIP3    H138923   2.842   6.699  14.506
 5836TIP3    H238924   2.865   6.776  14.634
 5837TIP3   OH238925   0.899   6.458  11.956
 5837TIP3    H138926   0.949   6.402  11.897
 5837TIP3    H238927   0.900   6.411  12.040
 5838TIP3   OH238928   6.410   1.149   6.374
 5838TIP3    H138929   6.476   1.082   6.396
 5838TIP3    H238930   6.327   1.102   6.379
 5839TIP3   OH238931   0.976   4.636  16.057
 5839TIP3    H138932   0.987   4.729  16.039
 5839TIP3    H238933   0.887   4.628  16.090
 5840TIP3   OH238934   4.568   3.396  12.419
 5840TIP3    H138935   4.544   3.485  12.445
 5840TIP3    H238936   4.533   3.340  12.488
 5841TIP3   OH238937   4.927   3.364   5.940
 5841TIP3    H138938   4.928   3.286   5.995
 5841TIP3    H238939   5.019   3.387   5.927
 5842TIP3   OH238940   4.615   3.856   0.544
 5842TIP3    H138941   4.558   3.927   0.516
 5842TIP3    H238942   4.555   3.782   0.560
 5843TIP3   OH238943   2.628   2.324   0.394
 5843TIP3    H138944   2.603   2.272   0.470
 5843TIP3    H238945   2.721   2.305   0.381
 5844TIP3   OH238946   3.757   0.361  12.171
 5844TIP3    H138947   3.785   0.353  12.263
 5844TIP3    H238948   3.740   0.271  12.144
 5845TIP3   OH238949   3.140   3.870  14.822
 5845TIP3    H138950   3.060   3.858  14.874
 5845TIP3    H238951   3.191   3.791  14.840
 5846TIP3   OH238952   6.001   1.338   5.919
 5846TIP3    H138953   6.053   1.335   5.999
 5846TIP3    H238954   5.910   1.342   5.948
 5847TIP3   OH238955   2.939   5.498   1.877
 5847TIP3    H138956   2.955   5.467   1.787
 5847TIP3    H238957   2.969   5.588   1.877
 5848TIP3   OH238958   6.649   4.486  15.052
 5848TIP3    H138959   6.677   4.477  15.143
 5848TIP3    H238960   6.612   4.401  15.030
 5849TIP3   OH238961   0.938   3.931  12.229
 5849TIP3    H138962   1.015   3.898  12.182
 5849TIP3    H238963   0.931   4.023  12.203
 5850TIP3   OH238964   2.624   3.707  11.663
 5850TIP3    H138965   2.694   3.668  11.715
 5850TIP3    H238966   2.608   3.644  11.593
 5851TIP3   OH238967   3.861   2.605   1.321
 5851TIP3    H138968   3.950   2.631   1.297
 5851TIP3    H238969   3.867   2.579   1.413
 5852TIP3   OH238970   6.603   2.315  12.500
 5852TIP3    H138971   6.650   2.397  12.486
 5852TIP3    H238972   6.529   2.320  12.440
 5853TIP3   OH238973   5.867   2.892   3.810
 5853TIP3    H138974   5.773   2.877   3.798
 5853TIP3    H238975   5.909   2.820   3.764
 5854TIP3   OH238976   5.767   1.742  16.036
 5854TIP3    H138977   5.830   1.698  15.980
 5854TIP3    H238978   5.805   1.740  16.124
 5855TIP3   OH238979   0.655   1.039  13.595
 5855TIP3    H138980   0.602   0.987  13.535
 5855TIP3    H238981   0.714   0.977  13.637
 5856TIP3   OH238982   3.230   5.397   3.734
 5856TIP3    H138983   3.162   5.401   3.667
 5856TIP3    H238984   3.287   5.326   3.705
 5857TIP3   OH238985   1.186   6.450   1.709
 5857TIP3    H138986   1.279   6.466   1.693
 5857TIP3    H238987   1.184   6.372   1.765
 5858TIP3   OH238988   3.851   4.514  13.681
 5858TIP3    H138989   3.934   4.476  13.651
 5858TIP3    H238990   3.861   4.608  13.666
 5859TIP3   OH238991   6.010   0.915  14.909
 5859TIP3    H138992   5.968   0.838  14.948
 5859TIP3    H238993   6.062   0.879  14.836
 5860TIP3   OH238994   0.358   2.785   4.517
 5860TIP3    H138995   0.411   2.853   4.559
 5860TIP3    H238996   0.419   2.738   4.461
 5861TIP3   OH238997   3.206   4.948  11.300
 5861TIP3    H138998   3.276   4.883  11.305
 5861TIP3    H238999   3.249   5.031  11.319
 5862TIP3   OH239000   4.091   4.628   0.804
 5862TIP3    H139001   4.166   4.607   0.859
 5862TIP3    H239002   4.119   4.609   0.715
 5863TIP3   OH239003   5.154   5.143  16.097
 5863TIP3    H139004   5.151   5.058  16.139
 5863TIP3    H239005   5.131   5.125  16.005
 5864TIP3   OH239006   3.481   2.198  16.165
 5864TIP3    H139007   3.484   2.293  16.160
 5864TIP3    H239008   3.481   2.169  16.074
 5865TIP3   OH239009   3.200   2.225  11.359
 5865TIP3    H139010   3.166   2.144  11.398
 5865TIP3    H239011   3.200   2.208  11.265
 5866TIP3   OH239012   6.359   2.572  12.471
 5866TIP3    H139013   6.415   2.610  12.538
 5866TIP3    H239014   6.370   2.629  12.394
 5867TIP3   OH239015   0.409   4.134   0.338
 5867TIP3    H139016   0.479   4.192   0.311
 5867TIP3    H239017   0.438   4.047   0.311
 5868TIP3   OH239018   5.586   4.146   4.353
 5868TIP3    H139019   5.672   4.184   4.370
 5868TIP3    H239020   5.599   4.052   4.366
 5869TIP3   OH239021   0.644   0.499  17.220
 5869TIP3    H139022   0.636   0.548  17.302
 5869TIP3    H239023   0.724   0.534  17.179
 5870TIP3   OH239024   2.699   1.382  11.589
 5870TIP3    H139025   2.707   1.307  11.648
 5870TIP3    H239026   2.613   1.370  11.547
 5871TIP3   OH239027   2.812   4.665   4.712
 5871TIP3    H139028   2.807   4.571   4.730
 5871TIP3    H239029   2.745   4.704   4.769
 5872TIP3   OH239030   5.519   1.734   4.257
 5872TIP3    H139031   5.506   1.719   4.351
 5872TIP3    H239032   5.498   1.826   4.244
 5873TIP3   OH239033   1.402   3.703   1.992
 5873TIP3    H139034   1.314   3.665   1.989
 5873TIP3    H239035   1.461   3.629   1.981
 5874TIP3   OH239036   0.786   1.176   5.846
 5874TIP3    H139037   0.715   1.112   5.838
 5874TIP3    H239038   0.856   1.142   5.790
 5875TIP3   OH239039   4.141   0.710  12.919
 5875TIP3    H139040   4.113   0.675  12.835
 5875TIP3    H239041   4.078   0.674  12.982
 5876TIP3   OH239042   5.890   1.975  14.820
 5876TIP3    H139043   5.801   1.942  14.833
 5876TIP3    H239044   5.878   2.065  14.789
 5877TIP3   OH239045   6.772   5.319  13.593
 5877TIP3    H139046   6.732   5.262  13.658
 5877TIP3    H239047   6.796   5.260  13.521
 5878TIP3   OH239048   3.613   2.655  12.123
 5878TIP3    H139049   3.561   2.624  12.197
 5878TIP3    H239050   3.616   2.580  12.063
 5879TIP3   OH239051   6.526   5.740   4.823
 5879TIP3    H139052   6.601   5.699   4.780
 5879TIP3    H239053   6.556   5.828   4.845
 5880TIP3   OH239054   1.619   3.996   4.616
 5880TIP3    H139055   1.614   3.973   4.523
 5880TIP3    H239056   1.588   4.087   4.619
 5881TIP3   OH239057   6.437   1.784   1.293
 5881TIP3    H139058   6.443   1.694   1.260
 5881TIP3    H239059   6.424   1.774   1.388
 5882TIP3   OH239060   4.334   4.465   5.713
 5882TIP3    H139061   4.256   4.493   5.761
 5882TIP3    H239062   4.404   4.523   5.744
 5883TIP3   OH239063   2.493   0.317  16.975
 5883TIP3    H139064   2.576   0.314  16.927
 5883TIP3    H239065   2.428   0.285  16.912
 5884TIP3   OH239066   0.480   2.943   4.721
 5884TIP3    H139067   0.557   2.998   4.708
 5884TIP3    H239068   0.487   2.913   4.812
 5885TIP3   OH239069   2.831   3.656   4.631
 5885TIP3    H139070   2.762   3.626   4.690
 5885TIP3    H239071   2.902   3.594   4.643
 5886TIP3   OH239072   2.135   1.184  11.843
 5886TIP3    H139073   2.136   1.091  11.821
 5886TIP3    H239074   2.080   1.191  11.921
 5887TIP3   OH239075   6.182   6.288   5.675
 5887TIP3    H139076   6.228   6.300   5.758
 5887TIP3    H239077   6.205   6.365   5.623
 5888TIP3   OH239078   6.434   0.866  16.567
 5888TIP3    H139079   6.375   0.855  16.492
 5888TIP3    H239080   6.493   0.936  16.541
 5889TIP3   OH239081   3.915   2.069   0.718
 5889TIP3    H139082   3.905   2.124   0.640
 5889TIP3    H239083   3.853   2.105   0.781
 5890TIP3   OH239084   1.295   1.980   0.315
 5890TIP3    H139085   1.378   1.975   0.268
 5890TIP3    H239086   1.307   1.923   0.390
 5891TIP3   OH239087   1.515   2.741  16.351
 5891TIP3    H139088   1.539   2.683  16.279
 5891TIP3    H239089   1.422   2.759  16.337
 5892TIP3   OH239090   4.267   5.303   4.960
 5892TIP3    H139091   4.187   5.337   5.000
 5892TIP3    H239092   4.252   5.309   4.866
 5893TIP3   OH239093   0.789   2.559   6.114
 5893TIP3    H139094   0.825   2.642   6.146
 5893TIP3    H239095   0.758   2.514   6.192
 5894TIP3   OH239096   5.787   3.752  16.145
 5894TIP3    H139097   5.851   3.802  16.094
 5894TIP3    H239098   5.837   3.716  16.218
 5895TIP3   OH239099   3.479   2.746   0.673
 5895TIP3    H139100   3.447   2.670   0.722
 5895TIP3    H239101   3.466   2.723   0.581
 5896TIP3   OH239102   0.670   0.033   5.605
 5896TIP3    H139103   0.613  -0.039   5.580
 5896TIP3    H239104   0.749  -0.009   5.638
 5897TIP3   OH239105   0.482   3.365   5.515
 5897TIP3    H139106   0.451   3.378   5.425
 5897TIP3    H239107   0.458   3.275   5.536
 5898TIP3   OH239108   4.197   6.643  13.288
 5898TIP3    H139109   4.201   6.703  13.362
 5898TIP3    H239110   4.150   6.691  13.220
 5899TIP3   OH239111   4.718   4.578   2.359
 5899TIP3    H139112   4.783   4.593   2.291
 5899TIP3    H239113   4.745   4.496   2.400
 5900TIP3   OH239114   3.852   5.578  16.195
 5900TIP3    H139115   3.859   5.609  16.105
 5900TIP3    H239116   3.881   5.652  16.249
 5901TIP3   OH239117   6.733   6.047   3.788
 5901TIP3    H139118   6.804   6.019   3.847
 5901TIP3    H239119   6.671   5.974   3.789
 5902TIP3   OH239120   5.325   0.727  15.329
 5902TIP3    H139121   5.345   0.657  15.266
 5902TIP3    H239122   5.410   0.765  15.351
 5903TIP3   OH239123   6.480   1.597  17.079
 5903TIP3    H139124   6.433   1.677  17.101
 5903TIP3    H239125   6.520   1.568  17.161
 5904TIP3   OH239126   6.478   4.786  17.104
 5904TIP3    H139127   6.496   4.736  17.183
 5904TIP3    H239128   6.482   4.878  17.132
 5905TIP3   OH239129   0.174   3.459   3.153
 5905TIP3    H139130   0.181   3.366   3.131
 5905TIP3    H239131   0.088   3.484   3.122
 5906TIP3   OH239132   3.396   5.574  10.946
 5906TIP3    H139133   3.431   5.488  10.924
 5906TIP3    H239134   3.335   5.557  11.018
 5907TIP3   OH239135   0.957   0.882  11.314
 5907TIP3    H139136   0.897   0.899  11.387
 5907TIP3    H239137   0.944   0.790  11.292
 5908TIP3   OH239138   5.881   5.402  11.875
 5908TIP3    H139139   5.802   5.393  11.821
 5908TIP3    H239140   5.860   5.472  11.937
 5909TIP3   OH239141   3.312   2.551   0.251
 5909TIP3    H139142   3.307   2.514   0.163
 5909TIP3    H239143   3.304   2.475   0.309
 5910TIP3   OH239144   0.595   5.171   1.718
 5910TIP3    H139145   0.654   5.175   1.793
 5910TIP3    H239146   0.527   5.109   1.745
 5911TIP3   OH239147   5.699   1.510  15.807
 5911TIP3    H139148   5.647   1.498  15.887
 5911TIP3    H239149   5.637   1.547  15.744
 5912TIP3   OH239150   5.725   2.625  11.376
 5912TIP3    H139151   5.689   2.653  11.292
 5912TIP3    H239152   5.651   2.585  11.422
 5913TIP3   OH239153   4.508   0.739   6.440
 5913TIP3    H139154   4.516   0.668   6.376
 5913TIP3    H239155   4.487   0.816   6.388
 5914TIP3   OH239156   1.539   6.441  14.468
 5914TIP3    H139157   1.575   6.355  14.491
 5914TIP3    H239158   1.591   6.503  14.519
 5915TIP3   OH239159   0.888   3.989  11.719
 5915TIP3    H139160   0.912   4.060  11.660
 5915TIP3    H239161   0.927   4.014  11.803
 5916TIP3   OH239162   1.103   6.127  14.197
 5916TIP3    H139163   1.064   6.214  14.205
 5916TIP3    H239164   1.033   6.072  14.161
 5917TIP3   OH239165   2.260   2.597   5.238
 5917TIP3    H139166   2.328   2.540   5.202
 5917TIP3    H239167   2.266   2.677   5.185
 5918TIP3   OH239168   4.547   3.239  12.624
 5918TIP3    H139169   4.615   3.243  12.691
 5918TIP3    H239170   4.468   3.214  12.671
 5919TIP3   OH239171   6.475   4.379  11.763
 5919TIP3    H139172   6.398   4.325  11.743
 5919TIP3    H239173   6.536   4.361  11.692
 5920TIP3   OH239174   1.237   6.090  12.412
 5920TIP3    H139175   1.317   6.073  12.463
 5920TIP3    H239176   1.264   6.082  12.321
 5921TIP3   OH239177   6.278   0.432   0.633
 5921TIP3    H139178   6.242   0.447   0.721
 5921TIP3    H239179   6.366   0.470   0.637
 5922TIP3   OH239180   6.080   2.758   0.370
 5922TIP3    H139181   6.090   2.820   0.298
 5922TIP3    H239182   6.003   2.707   0.348
 5923TIP3   OH239183   0.796   6.754   3.025
 5923TIP3    H139184   0.731   6.822   3.047
 5923TIP3    H239185   0.746   6.673   3.021
 5924TIP3   OH239186   3.257   2.854   4.724
 5924TIP3    H139187   3.318   2.817   4.787
 5924TIP3    H239188   3.310   2.912   4.669
 5925TIP3   OH239189   3.565   0.078  14.776
 5925TIP3    H139190   3.601  -0.003  14.739
 5925TIP3    H239191   3.491   0.099  14.720
 5926TIP3   OH239192   2.070   1.938  13.020
 5926TIP3    H139193   2.089   1.918  12.928
 5926TIP3    H239194   2.096   2.030  13.031
 5927TIP3   OH239195   5.784   4.199   4.081
 5927TIP3    H139196   5.705   4.191   4.134
 5927TIP3    H239197   5.827   4.278   4.113
 5928TIP3   OH239198   5.336   3.248   2.365
 5928TIP3    H139199   5.305   3.334   2.392
 5928TIP3    H239200   5.330   3.194   2.443
 5929TIP3   OH239201   1.978   1.826   2.887
 5929TIP3    H139202   1.893   1.860   2.915
 5929TIP3    H239203   1.977   1.734   2.914
 5930TIP3   OH239204   2.853   5.675  11.015
 5930TIP3    H139205   2.890   5.588  11.000
 5930TIP3    H239206   2.839   5.710  10.926
 5931TIP3   OH239207   5.772   1.744  14.162
 5931TIP3    H139208   5.798   1.676  14.224
 5931TIP3    H239209   5.699   1.789  14.206
 5932TIP3   OH239210   6.631   5.712   1.805
 5932TIP3    H139211   6.576   5.685   1.879
 5932TIP3    H239212   6.634   5.808   1.810
 5933TIP3   OH239213   0.960   1.443   1.698
 5933TIP3    H139214   0.994   1.396   1.621
 5933TIP3    H239215   0.925   1.374   1.755
 5934TIP3   OH239216   4.989   1.927  15.317
 5934TIP3    H139217   4.895   1.942  15.306
 5934TIP3    H239218   5.005   1.843  15.275
 5935TIP3   OH239219   0.575   6.332  15.794
 5935TIP3    H139220   0.489   6.373  15.794
 5935TIP3    H239221   0.623   6.379  15.863
 5936TIP3   OH239222   2.076   0.165   5.412
 5936TIP3    H139223   2.038   0.101   5.352
 5936TIP3    H239224   2.002   0.192   5.466
 5937TIP3   OH239225   4.667   2.694  14.385
 5937TIP3    H139226   4.631   2.639  14.314
 5937TIP3    H239227   4.756   2.713  14.357
 5938TIP3   OH239228   0.327   5.588   0.820
 5938TIP3    H139229   0.347   5.551   0.905
 5938TIP3    H239230   0.287   5.673   0.839
 5939TIP3   OH239231   0.533   2.704  11.878
 5939TIP3    H139232   0.514   2.617  11.841
 5939TIP3    H239233   0.628   2.709  11.880
 5940TIP3   OH239234   0.650   4.075   3.617
 5940TIP3    H139235   0.610   4.161   3.616
 5940TIP3    H239236   0.600   4.025   3.682
 5941TIP3   OH239237   4.446   0.710  11.594
 5941TIP3    H139238   4.462   0.805  11.597
 5941TIP3    H239239   4.377   0.699  11.530
 5942TIP3   OH239240   4.450   5.958   2.479
 5942TIP3    H139241   4.420   5.868   2.466
 5942TIP3    H239242   4.373   6.012   2.459
 5943TIP3   OH239243   4.014   6.593   5.056
 5943TIP3    H139244   4.066   6.536   5.000
 5943TIP3    H239245   4.049   6.578   5.144
 5944TIP3   OH239246   5.158   5.386   5.206
 5944TIP3    H139247   5.063   5.376   5.216
 5944TIP3    H239248   5.172   5.481   5.211
 5945TIP3   OH239249   3.521   1.490   0.418
 5945TIP3    H139250   3.599   1.470   0.469
 5945TIP3    H239251   3.461   1.531   0.481
 5946TIP3   OH239252   4.345   1.868   2.376
 5946TIP3    H139253   4.415   1.930   2.398
 5946TIP3    H239254   4.366   1.838   2.288
 5947TIP3   OH239255   6.082   3.477   2.666
 5947TIP3    H139256   6.112   3.424   2.739
 5947TIP3    H239257   6.129   3.443   2.590
 5948TIP3   OH239258   3.227   6.360   2.513
 5948TIP3    H139259   3.156   6.378   2.574
 5948TIP3    H239260   3.303   6.403   2.551
 5949TIP3   OH239261   0.589   3.110  12.875
 5949TIP3    H139262   0.501   3.098  12.911
 5949TIP3    H239263   0.602   3.035  12.817
 5950TIP3   OH239264   3.783   0.342   3.312
 5950TIP3    H139265   3.708   0.349   3.252
 5950TIP3    H239266   3.830   0.264   3.282
 5951TIP3   OH239267   3.201   2.605  15.899
 5951TIP3    H139268   3.237   2.694  15.905
 5951TIP3    H239269   3.133   2.612  15.831
 5952TIP3   OH239270   1.217   4.719  13.647
 5952TIP3    H139271   1.136   4.761  13.618
 5952TIP3    H239272   1.214   4.725  13.743
 5953TIP3   OH239273   1.606   6.251   4.752
 5953TIP3    H139274   1.691   6.286   4.779
 5953TIP3    H239275   1.573   6.316   4.690
 5954TIP3   OH239276   2.762   1.610  13.103
 5954TIP3    H139277   2.854   1.629  13.125
 5954TIP3    H239278   2.756   1.627  13.009
 5955TIP3   OH239279   2.430   2.931  17.195
 5955TIP3    H139280   2.432   2.964  17.105
 5955TIP3    H239281   2.362   2.864  17.195
 5956TIP3   OH239282   0.093   2.922   0.326
 5956TIP3    H139283   0.048   2.849   0.370
 5956TIP3    H239284   0.153   2.956   0.392
 5957TIP3   OH239285   0.627   1.646   5.318
 5957TIP3    H139286   0.717   1.614   5.314
 5957TIP3    H239287   0.573   1.567   5.318
 5958TIP3   OH239288   1.185   6.142   4.910
 5958TIP3    H139289   1.123   6.187   4.967
 5958TIP3    H239290   1.160   6.050   4.915
 5959TIP3   OH239291   4.478   1.889  16.335
 5959TIP3    H139292   4.518   1.832  16.401
 5959TIP3    H239293   4.494   1.844  16.252
 5960TIP3   OH239294   3.560   1.814  15.588
 5960TIP3    H139295   3.588   1.906  15.582
 5960TIP3    H239296   3.594   1.774  15.508
 5961TIP3   OH239297   5.471   4.613   3.791
 5961TIP3    H139298   5.387   4.584   3.827
 5961TIP3    H239299   5.536   4.590   3.857
 5962TIP3   OH239300   4.815   6.102   5.584
 5962TIP3    H139301   4.898   6.059   5.565
 5962TIP3    H239302   4.807   6.170   5.517
 5963TIP3   OH239303   3.128   3.860  12.186
 5963TIP3    H139304   3.069   3.785  12.198
 5963TIP3    H239305   3.206   3.838  12.238
 5964TIP3   OH239306   0.379   3.806   5.815
 5964TIP3    H139307   0.416   3.776   5.732
 5964TIP3    H239308   0.434   3.765   5.882
 5965TIP3   OH239309   0.492   6.173   3.774
 5965TIP3    H139310   0.534   6.213   3.698
 5965TIP3    H239311   0.428   6.113   3.737
 5966TIP3   OH239312   2.831   3.111  14.412
 5966TIP3    H139313   2.738   3.130  14.399
 5966TIP3    H239314   2.832   3.023  14.451
 5967TIP3   OH239315   0.232   6.476   0.928
 5967TIP3    H139316   0.270   6.391   0.952
 5967TIP3    H239317   0.190   6.506   1.008
 5968TIP3   OH239318   0.394   4.448  13.992
 5968TIP3    H139319   0.461   4.500  13.949
 5968TIP3    H239320   0.312   4.471  13.947
 5969TIP3   OH239321   2.366   4.203   2.500
 5969TIP3    H139322   2.389   4.196   2.408
 5969TIP3    H239323   2.338   4.294   2.511
 5970TIP3   OH239324   0.283   4.185   4.805
 5970TIP3    H139325   0.245   4.264   4.844
 5970TIP3    H239326   0.290   4.205   4.712
 5971TIP3   OH239327   2.071   6.161  14.578
 5971TIP3    H139328   2.058   6.240  14.526
 5971TIP3    H239329   2.034   6.091  14.524
 5972TIP3   OH239330   4.497   5.561  12.845
 5972TIP3    H139331   4.514   5.571  12.939
 5972TIP3    H239332   4.502   5.650  12.810
 5973TIP3   OH239333   2.835   3.665   3.029
 5973TIP3    H139334   2.817   3.605   2.957
 5973TIP3    H239335   2.755   3.717   3.037
 5974TIP3   OH239336   1.440   1.697   3.502
 5974TIP3    H139337   1.384   1.713   3.427
 5974TIP3    H239338   1.529   1.699   3.466
 5975TIP3   OH239339   3.654   5.524  13.180
 5975TIP3    H139340   3.564   5.538  13.150
 5975TIP3    H239341   3.709   5.568  13.114
 5976TIP3   OH239342   0.258   5.101   0.057
 5976TIP3    H139343   0.300   5.168   0.003
 5976TIP3    H239344   0.232   5.146   0.137
 5977TIP3   OH239345   0.680   4.300  12.815
 5977TIP3    H139346   0.655   4.371  12.873
 5977TIP3    H239347   0.620   4.229  12.835
 5978TIP3   OH239348   4.276   4.402   3.048
 5978TIP3    H139349   4.345   4.412   3.114
 5978TIP3    H239350   4.323   4.404   2.965
 5979TIP3   OH239351   0.316   6.449   3.648
 5979TIP3    H139352   0.359   6.365   3.635
 5979TIP3    H239353   0.363   6.509   3.590
 5980TIP3   OH239354   1.903   5.176  11.156
 5980TIP3    H139355   1.992   5.187  11.124
 5980TIP3    H239356   1.852   5.150  11.079
 5981TIP3   OH239357   1.726   2.066  14.088
 5981TIP3    H139358   1.691   2.044  14.174
 5981TIP3    H239359   1.771   2.150  14.102
 5982TIP3   OH239360   4.789   5.174  13.067
 5982TIP3    H139361   4.830   5.240  13.122
 5982TIP3    H239362   4.860   5.115  13.043
 5983TIP3   OH239363   0.509   2.319   4.978
 5983TIP3    H139364   0.553   2.326   5.062
 5983TIP3    H239365   0.576   2.344   4.913
 5984TIP3   OH239366   4.788   6.653  14.914
 5984TIP3    H139367   4.782   6.747  14.899
 5984TIP3    H239368   4.786   6.615  14.826
 5985TIP3   OH239369   4.157   0.759   5.771
 5985TIP3    H139370   4.112   0.816   5.832
 5985TIP3    H239371   4.232   0.725   5.821
 5986TIP3   OH239372   5.331   2.938   4.137
 5986TIP3    H139373   5.252   2.938   4.190
 5986TIP3    H239374   5.309   2.881   4.062
 5987TIP3   OH239375   5.768   5.343  11.181
 5987TIP3    H139376   5.840   5.327  11.242
 5987TIP3    H239377   5.695   5.369  11.237
 5988TIP3   OH239378   5.444   0.894  15.841
 5988TIP3    H139379   5.491   0.846  15.772
 5988TIP3    H239380   5.453   0.838  15.918
 5989TIP3   OH239381   0.804   1.355  14.250
 5989TIP3    H139382   0.750   1.277  14.234
 5989TIP3    H239383   0.846   1.338  14.334
 5990TIP3   OH239384   5.755   2.760  14.442
 5990TIP3    H139385   5.831   2.722  14.486
 5990TIP3    H239386   5.692   2.688  14.436
 5991TIP3   OH239387   3.803   2.978   2.055
 5991TIP3    H139388   3.798   2.910   2.122
 5991TIP3    H239389   3.750   3.049   2.089
 5992TIP3   OH239390   0.651   5.495   5.786
 5992TIP3    H139391   0.633   5.424   5.848
 5992TIP3    H239392   0.740   5.478   5.756
 5993TIP3   OH239393   0.222   1.738  11.552
 5993TIP3    H139394   0.202   1.644  11.557
 5993TIP3    H239395   0.179   1.768  11.472
 5994TIP3   OH239396   0.247   4.396   6.017
 5994TIP3    H139397   0.291   4.359   6.093
 5994TIP3    H239398   0.188   4.463   6.052
 5995TIP3   OH239399   0.473   3.905   3.801
 5995TIP3    H139400   0.420   3.879   3.876
 5995TIP3    H239401   0.423   3.876   3.725
 5996TIP3   OH239402   6.152   5.910   2.587
 5996TIP3    H139403   6.161   5.837   2.527
 5996TIP3    H239404   6.238   5.917   2.629
 5997TIP3   OH239405   3.057   0.075   5.257
 5997TIP3    H139406   3.149   0.048   5.256
 5997TIP3    H239407   3.042   0.108   5.168
 5998TIP3   OH239408   2.092   6.528   5.091
 5998TIP3    H139409   2.121   6.559   5.005
 5998TIP3    H239410   2.088   6.433   5.082
 5999TIP3   OH239411   5.634   5.187  16.750
 5999TIP3    H139412   5.638   5.268  16.800
 5999TIP3    H239413   5.547   5.151  16.770
 6000TIP3   OH239414   3.314   0.166   2.307
 6000TIP3    H139415   3.312   0.260   2.327
 6000TIP3    H239416   3.282   0.160   2.217
 6001TIP3   OH239417   1.123   4.969   6.335
 6001TIP3    H139418   1.199   5.026   6.349
 6001TIP3    H239419   1.146   4.916   6.259
 6002TIP3   OH239420   2.545   5.091  15.242
 6002TIP3    H139421   2.532   5.134  15.327
 6002TIP3    H239422   2.493   5.143  15.181
 6003TIP3   OH239423   2.053   6.374  14.186
 6003TIP3    H139424   2.115   6.348  14.117
 6003TIP3    H239425   2.109   6.409  14.256
 6004TIP3   OH239426   1.296   4.881  16.123
 6004TIP3    H139427   1.297   4.871  16.028
 6004TIP3    H239428   1.266   4.971  16.138
 6005TIP3   OH239429   5.965   5.467   1.457
 6005TIP3    H139430   5.872   5.486   1.444
 6005TIP3    H239431   6.009   5.549   1.437
 6006TIP3   OH239432   1.562   2.178  15.263
 6006TIP3    H139433   1.655   2.158  15.269
 6006TIP3    H239434   1.537   2.205  15.352
 6007TIP3   OH239435   1.938   6.520  12.258
 6007TIP3    H139436   1.980   6.587  12.205
 6007TIP3    H239437   1.854   6.505  12.215
 6008TIP3   OH239438   2.602   5.733  12.272
 6008TIP3    H139439   2.692   5.720  12.303
 6008TIP3    H239440   2.613   5.766  12.182
 6009TIP3   OH239441   4.573   6.609   1.672
 6009TIP3    H139442   4.639   6.581   1.736
 6009TIP3    H239443   4.538   6.690   1.708
 6010TIP3   OH239444   0.105   1.541  14.485
 6010TIP3    H139445   0.177   1.554  14.423
 6010TIP3    H239446   0.027   1.533  14.430
 6011TIP3   OH239447   3.906   3.037  15.980
 6011TIP3    H139448   3.931   3.031  15.888
 6011TIP3    H239449   3.976   3.088  16.020
 6012TIP3   OH239450   0.393   0.670  13.635
 6012TIP3    H139451   0.376   0.674  13.729
 6012TIP3    H239452   0.307   0.659  13.596
 6013TIP3   OH239453   6.592   1.115  10.968
 6013TIP3    H139454   6.561   1.195  11.010
 6013TIP3    H239455   6.516   1.081  10.921
 6014TIP3   OH239456   1.291   4.495  16.207
 6014TIP3    H139457   1.331   4.446  16.279
 6014TIP3    H239458   1.261   4.576  16.248
 6015TIP3   OH239459   3.454   5.588  15.376
 6015TIP3    H139460   3.463   5.570  15.282
 6015TIP3    H239461   3.513   5.662  15.392
 6016TIP3   OH239462   4.704   0.365  12.283
 6016TIP3    H139463   4.693   0.433  12.216
 6016TIP3    H239464   4.775   0.397  12.338
 6017TIP3   OH239465   0.298   0.112  14.101
 6017TIP3    H139466   0.302   0.205  14.080
 6017TIP3    H239467   0.348   0.102  14.181
 6018TIP3   OH239468   5.948   1.028   3.365
 6018TIP3    H139469   6.043   1.025   3.377
 6018TIP3    H239470   5.924   0.938   3.342
 6019TIP3   OH239471   0.693   4.694   5.843
 6019TIP3    H139472   0.741   4.677   5.925
 6019TIP3    H239473   0.619   4.634   5.846
 6020TIP3   OH239474   2.629   6.338   5.460
 6020TIP3    H139475   2.669   6.270   5.405
 6020TIP3    H239476   2.686   6.414   5.450
 6021TIP3   OH239477   0.092   5.856  10.613
 6021TIP3    H139478   0.006   5.833  10.577
 6021TIP3    H239479   0.130   5.773  10.640
 6022TIP3   OH239480   1.380   1.249   2.631
 6022TIP3    H139481   1.388   1.326   2.687
 6022TIP3    H239482   1.328   1.188   2.683
 6023TIP3   OH239483   2.001   1.563  16.018
 6023TIP3    H139484   1.966   1.536  15.933
 6023TIP3    H239485   2.092   1.533  16.018
 6024TIP3   OH239486   1.732   4.687   0.633
 6024TIP3    H139487   1.807   4.669   0.576
 6024TIP3    H239488   1.765   4.672   0.722
 6025TIP3   OH239489   5.406   2.281  13.632
 6025TIP3    H139490   5.469   2.211  13.615
 6025TIP3    H239491   5.452   2.341  13.691
 6026TIP3   OH239492   6.502   2.020   6.185
 6026TIP3    H139493   6.555   2.081   6.237
 6026TIP3    H239494   6.415   2.025   6.223
 6027TIP3   OH239495   6.716   4.270  16.881
 6027TIP3    H139496   6.707   4.364  16.893
 6027TIP3    H239497   6.712   4.234  16.970
 6028TIP3   OH239498   0.763   1.179   0.195
 6028TIP3    H139499   0.734   1.120   0.264
 6028TIP3    H239500   0.847   1.213   0.225
 6029TIP3   OH239501   2.197   2.369  16.709
 6029TIP3    H139502   2.102   2.382  16.715
 6029TIP3    H239503   2.213   2.291  16.763
 6030TIP3   OH239504   0.588   4.894  16.889
 6030TIP3    H139505   0.501   4.870  16.920
 6030TIP3    H239506   0.604   4.981  16.925
 6031TIP3   OH239507   4.975   0.187   6.301
 6031TIP3    H139508   4.926   0.164   6.380
 6031TIP3    H239509   5.023   0.267   6.325
 6032TIP3   OH239510   3.746   4.595  12.291
 6032TIP3    H139511   3.768   4.526  12.354
 6032TIP3    H239512   3.650   4.598  12.292
 6033TIP3   OH239513   0.253   6.732  10.967
 6033TIP3    H139514   0.203   6.697  11.040
 6033TIP3    H239515   0.329   6.775  11.007
 6034TIP3   OH239516   4.188   6.714  11.903
 6034TIP3    H139517   4.272   6.672  11.882
 6034TIP3    H239518   4.142   6.648  11.955
 6035TIP3   OH239519   6.428   2.730  14.266
 6035TIP3    H139520   6.420   2.645  14.223
 6035TIP3    H239521   6.484   2.713  14.342
 6036TIP3   OH239522   6.215   2.121   5.620
 6036TIP3    H139523   6.160   2.043   5.623
 6036TIP3    H239524   6.285   2.103   5.682
 6037TIP3   OH239525   1.538   0.088   0.351
 6037TIP3    H139526   1.543   0.163   0.410
 6037TIP3    H239527   1.581   0.017   0.398
 6038TIP3   OH239528   1.715   1.158  16.901
 6038TIP3    H139529   1.697   1.214  16.976
 6038TIP3    H239530   1.634   1.159  16.849
 6039TIP3   OH239531   0.165   4.323  11.792
 6039TIP3    H139532   0.251   4.305  11.831
 6039TIP3    H239533   0.123   4.237  11.789
 6040TIP3   OH239534   4.916   3.516   0.938
 6040TIP3    H139535   4.911   3.456   0.864
 6040TIP3    H239536   5.002   3.499   0.977
 6041TIP3   OH239537   0.025   5.705   3.319
 6041TIP3    H139538   0.040   5.790   3.359
 6041TIP3    H239539   0.108   5.682   3.278
 6042TIP3   OH239540   3.297   0.725   2.017
 6042TIP3    H139541   3.251   0.809   2.011
 6042TIP3    H239542   3.311   0.699   1.926
 6043TIP3   OH239543   2.106   5.442  10.938
 6043TIP3    H139544   2.100   5.371  11.002
 6043TIP3    H239545   2.199   5.466  10.937
 6044TIP3   OH239546   6.644   2.169   6.342
 6044TIP3    H139547   6.614   2.099   6.400
 6044TIP3    H239548   6.671   2.239   6.402
 6045TIP3   OH239549   3.172   5.563   4.248
 6045TIP3    H139550   3.162   5.470   4.227
 6045TIP3    H239551   3.242   5.565   4.313
 6046TIP3   OH239552   3.365   2.305  12.278
 6046TIP3    H139553   3.299   2.343  12.336
 6046TIP3    H239554   3.328   2.220  12.252
 6047TIP3   OH239555   2.180   5.000   2.241
 6047TIP3    H139556   2.211   4.917   2.275
 6047TIP3    H239557   2.095   5.014   2.284
 6048TIP3   OH239558   2.326   3.259  16.576
 6048TIP3    H139559   2.375   3.293  16.651
 6048TIP3    H239560   2.246   3.222  16.615
 6049TIP3   OH239561   0.035   4.571   6.601
 6049TIP3    H139562   0.113   4.536   6.644
 6049TIP3    H239563   0.008   4.503   6.539
 6050TIP3   OH239564   1.929   6.757   0.701
 6050TIP3    H139565   1.999   6.695   0.684
 6050TIP3    H239566   1.967   6.821   0.761
 6051TIP3   OH239567   0.532   2.689  13.926
 6051TIP3    H139568   0.614   2.647  13.903
 6051TIP3    H239569   0.487   2.625  13.982
 6052TIP3   OH239570   0.896   6.627  11.270
 6052TIP3    H139571   0.828   6.588  11.326
 6052TIP3    H239572   0.866   6.610  11.181
 6053TIP3   OH239573   4.106   1.970  16.227
 6053TIP3    H139574   4.044   1.932  16.289
 6053TIP3    H239575   4.134   1.896  16.173
 6054TIP3   OH239576   3.818   2.473  17.194
 6054TIP3    H139577   3.755   2.481  17.266
 6054TIP3    H239578   3.770   2.503  17.117
 6055TIP3   OH239579   6.333   1.580  14.142
 6055TIP3    H139580   6.297   1.625  14.219
 6055TIP3    H239581   6.257   1.563  14.086
 6056TIP3   OH239582   4.364   6.772  13.795
 6056TIP3    H139583   4.404   6.689  13.822
 6056TIP3    H239584   4.417   6.839  13.838
 6057TIP3   OH239585   0.881   2.993   4.137
 6057TIP3    H139586   0.919   3.076   4.106
 6057TIP3    H239587   0.791   2.994   4.104
 6058TIP3   OH239588   4.295   5.320  10.147
 6058TIP3    H139589   4.347   5.372  10.086
 6058TIP3    H239590   4.205   5.331  10.117
 6059TIP3   OH239591   0.975   1.570   1.354
 6059TIP3    H139592   0.880   1.578   1.370
 6059TIP3    H239593   0.999   1.655   1.316
 6060TIP3   OH239594   4.438   2.541   2.041
 6060TIP3    H139595   4.450   2.475   2.109
 6060TIP3    H239596   4.456   2.624   2.085
 6061TIP3   OH239597   1.608   0.799   1.802
 6061TIP3    H139598   1.691   0.830   1.767
 6061TIP3    H239599   1.628   0.776   1.893
 6062TIP3   OH239600   0.162   5.117   0.992
 6062TIP3    H139601   0.181   5.061   0.917
 6062TIP3    H239602   0.125   5.197   0.954
 6063TIP3   OH239603   3.828   2.153  14.284
 6063TIP3    H139604   3.780   2.216  14.337
 6063TIP3    H239605   3.766   2.125  14.217
 6064TIP3   OH239606   1.388   0.303  12.664
 6064TIP3    H139607   1.294   0.292  12.678
 6064TIP3    H239608   1.425   0.216  12.678
 6065TIP3   OH239609   6.111   0.917   1.523
 6065TIP3    H139610   6.122   0.883   1.612
 6065TIP3    H239611   6.160   0.999   1.522
 6066TIP3   OH239612   6.354   1.677   1.542
 6066TIP3    H139613   6.421   1.625   1.586
 6066TIP3    H239614   6.282   1.682   1.605
 6067TIP3   OH239615   5.006   3.624   4.469
 6067TIP3    H139616   5.045   3.547   4.511
 6067TIP3    H239617   4.957   3.588   4.395
 6068TIP3   OH239618   0.742   2.866  13.138
 6068TIP3    H139619   0.682   2.917  13.193
 6068TIP3    H239620   0.707   2.777  13.139
 6069TIP3   OH239621   0.454   0.231  11.438
 6069TIP3    H139622   0.437   0.196  11.526
 6069TIP3    H239623   0.400   0.310  11.433
 6070TIP3   OH239624   6.545   3.980   1.627
 6070TIP3    H139625   6.546   3.956   1.719
 6070TIP3    H239626   6.457   4.017   1.613
 6071TIP3   OH239627   1.050   6.127  16.342
 6071TIP3    H139628   1.048   6.217  16.310
 6071TIP3    H239629   1.073   6.075  16.265
 6072TIP3   OH239630   6.504   2.968   1.873
 6072TIP3    H139631   6.459   2.954   1.957
 6072TIP3    H239632   6.546   2.884   1.855
 6073TIP3   OH239633   4.126   4.780  11.420
 6073TIP3    H139634   4.090   4.696  11.391
 6073TIP3    H239635   4.050   4.832  11.444
 6074TIP3   OH239636   6.748   3.475   1.573
 6074TIP3    H139637   6.800   3.402   1.606
 6074TIP3    H239638   6.770   3.480   1.480
 6075TIP3   OH239639   5.330   2.398  16.899
 6075TIP3    H139640   5.357   2.313  16.935
 6075TIP3    H239641   5.388   2.461  16.940
 6076TIP3   OH239642   6.050   5.716   1.421
 6076TIP3    H139643   6.017   5.725   1.332
 6076TIP3    H239644   6.013   5.790   1.469
 6077TIP3   OH239645   5.739   5.072  16.223
 6077TIP3    H139646   5.823   5.073  16.178
 6077TIP3    H239647   5.744   5.144  16.286
 6078TIP3   OH239648   5.433   0.573   5.776
 6078TIP3    H139649   5.341   0.569   5.803
 6078TIP3    H239650   5.456   0.483   5.755
 6079TIP3   OH239651   2.275   3.660   2.906
 6079TIP3    H139652   2.270   3.584   2.848
 6079TIP3    H239653   2.210   3.643   2.974
 6080TIP3   OH239654   1.566   4.431  11.819
 6080TIP3    H139655   1.628   4.463  11.884
 6080TIP3    H239656   1.580   4.488  11.743
 6081TIP3   OH239657   6.487   0.886   3.212
 6081TIP3    H139658   6.484   0.935   3.129
 6081TIP3    H239659   6.484   0.794   3.186
 6082TIP3   OH239660   5.630   4.839   2.366
 6082TIP3    H139661   5.597   4.799   2.286
 6082TIP3    H239662   5.613   4.774   2.435
 6083TIP3   OH239663   4.425   0.768   2.576
 6083TIP3    H139664   4.350   0.789   2.631
 6083TIP3    H239665   4.489   0.836   2.596
 6084TIP3   OH239666   3.450   0.553   0.378
 6084TIP3    H139667   3.539   0.587   0.386
 6084TIP3    H239668   3.454   0.465   0.416
 6085TIP3   OH239669   1.870   5.100   3.885
 6085TIP3    H139670   1.900   5.115   3.795
 6085TIP3    H239671   1.778   5.076   3.875
 6086TIP3   OH239672   5.285   4.701  12.495
 6086TIP3    H139673   5.212   4.733  12.442
 6086TIP3    H239674   5.332   4.781  12.522
 6087TIP3   OH239675   3.786   4.570  11.583
 6087TIP3    H139676   3.728   4.496  11.602
 6087TIP3    H239677   3.746   4.612  11.506
 6088TIP3   OH239678   4.275   6.692   4.378
 6088TIP3    H139679   4.274   6.614   4.322
 6088TIP3    H239680   4.355   6.682   4.430
 6089TIP3   OH239681   4.809   5.648  15.791
 6089TIP3    H139682   4.878   5.706  15.824
 6089TIP3    H239683   4.731   5.703  15.788
 6090TIP3   OH239684   1.154   2.485  15.392
 6090TIP3    H139685   1.116   2.570  15.370
 6090TIP3    H239686   1.079   2.431  15.417
 6091TIP3   OH239687   0.568   2.796   1.938
 6091TIP3    H139688   0.624   2.752   1.874
 6091TIP3    H239689   0.600   2.764   2.023
 6092TIP3   OH239690   3.911   1.093  15.930
 6092TIP3    H139691   3.919   1.081  15.835
 6092TIP3    H239692   3.994   1.134  15.956
 6093TIP3   OH239693   6.301   5.713   6.245
 6093TIP3    H139694   6.340   5.674   6.323
 6093TIP3    H239695   6.297   5.641   6.181
 6094TIP3   OH239696   4.227   6.488   5.966
 6094TIP3    H139697   4.253   6.563   6.020
 6094TIP3    H239698   4.250   6.411   6.019
 6095TIP3   OH239699   4.574   2.009   6.070
 6095TIP3    H139700   4.513   2.020   6.143
 6095TIP3    H239701   4.630   1.937   6.096
 6096TIP3   OH239702   5.449   5.489   4.034
 6096TIP3    H139703   5.522   5.431   4.016
 6096TIP3    H239704   5.377   5.431   4.058
 6097TIP3   OH239705   0.630   6.420   3.677
 6097TIP3    H139706   0.683   6.429   3.598
 6097TIP3    H239707   0.591   6.506   3.690
 6098TIP3   OH239708   4.258   1.260  10.917
 6098TIP3    H139709   4.346   1.223  10.906
 6098TIP3    H239710   4.208   1.225  10.843
 6099TIP3   OH239711   0.934   0.091  13.577
 6099TIP3    H139712   1.003   0.077  13.512
 6099TIP3    H239713   0.854   0.058  13.536
 6100TIP3   OH239714   6.686   3.720   4.311
 6100TIP3    H139715   6.638   3.644   4.277
 6100TIP3    H239716   6.636   3.795   4.278
 6101TIP3   OH239717   1.708   6.048   5.779
 6101TIP3    H139718   1.788   6.052   5.830
 6101TIP3    H239719   1.648   6.108   5.823
 6102TIP3   OH239720   4.053   6.540  15.395
 6102TIP3    H139721   3.965   6.572  15.417
 6102TIP3    H239722   4.045   6.507  15.305
 6103TIP3   OH239723   0.968   1.605  16.366
 6103TIP3    H139724   1.056   1.592  16.331
 6103TIP3    H239725   0.920   1.526  16.342
 6104TIP3   OH239726   1.490   1.977   3.160
 6104TIP3    H139727   1.531   2.008   3.079
 6104TIP3    H239728   1.515   1.885   3.166
 6105TIP3   OH239729   5.174   3.114   5.872
 6105TIP3    H139730   5.092   3.079   5.908
 6105TIP3    H239731   5.242   3.067   5.919
 6106TIP3   OH239732   2.489   2.754   3.844
 6106TIP3    H139733   2.397   2.753   3.869
 6106TIP3    H239734   2.532   2.697   3.907
 6107TIP3   OH239735   2.644   6.223   4.148
 6107TIP3    H139736   2.593   6.236   4.069
 6107TIP3    H239737   2.628   6.132   4.173
 6108TIP3   OH239738   3.698   4.406  14.630
 6108TIP3    H139739   3.657   4.398  14.716
 6108TIP3    H239740   3.686   4.321  14.589
 6109TIP3   OH239741   3.907   1.728   2.380
 6109TIP3    H139742   3.968   1.795   2.350
 6109TIP3    H239743   3.946   1.694   2.461
 6110TIP3   OH239744   5.226   6.538   0.362
 6110TIP3    H139745   5.173   6.598   0.310
 6110TIP3    H239746   5.288   6.500   0.299
 6111TIP3   OH239747   0.927   6.117   0.795
 6111TIP3    H139748   0.897   6.173   0.723
 6111TIP3    H239749   0.980   6.050   0.752
 6112TIP3   OH239750   3.416   0.871   4.613
 6112TIP3    H139751   3.341   0.861   4.671
 6112TIP3    H239752   3.456   0.784   4.610
 6113TIP3   OH239753   6.786   1.834   5.074
 6113TIP3    H139754   6.843   1.810   5.147
 6113TIP3    H239755   6.788   1.930   5.074
 6114TIP3   OH239756   2.477   3.166  11.585
 6114TIP3    H139757   2.553   3.216  11.616
 6114TIP3    H239758   2.509   3.118  11.509
 6115TIP3   OH239759   2.045   2.423  14.618
 6115TIP3    H139760   2.077   2.391  14.534
 6115TIP3    H239761   2.110   2.395  14.681
 6116TIP3   OH239762   6.675   4.666   0.438
 6116TIP3    H139763   6.642   4.618   0.514
 6116TIP3    H239764   6.604   4.660   0.373
 6117TIP3   OH239765   3.677   1.384  16.380
 6117TIP3    H139766   3.725   1.325  16.438
 6117TIP3    H239767   3.667   1.335  16.298
 6118TIP3   OH239768   5.863   2.065   0.799
 6118TIP3    H139769   5.876   2.079   0.705
 6118TIP3    H239770   5.938   2.011   0.825
 6119TIP3   OH239771   4.643   4.107  16.774
 6119TIP3    H139772   4.566   4.120  16.830
 6119TIP3    H239773   4.667   4.016  16.787
 6120TIP3   OH239774   3.782   2.537   0.852
 6120TIP3    H139775   3.748   2.563   0.937
 6120TIP3    H239776   3.744   2.450   0.836
 6121TIP3   OH239777   6.591   6.321  14.578
 6121TIP3    H139778   6.513   6.276  14.545
 6121TIP3    H239779   6.648   6.251  14.609
 6122TIP3   OH239780   4.144   3.609   2.137
 6122TIP3    H139781   4.193   3.688   2.117
 6122TIP3    H239782   4.197   3.538   2.102
 6123TIP3   OH239783   1.195   5.986   5.575
 6123TIP3    H139784   1.261   5.943   5.519
 6123TIP3    H239785   1.199   5.938   5.657
 6124TIP3   OH239786   4.778   4.808   5.204
 6124TIP3    H139787   4.727   4.867   5.259
 6124TIP3    H239788   4.864   4.849   5.197
 6125TIP3   OH239789   1.084   2.319  15.745
 6125TIP3    H139790   1.024   2.266  15.797
 6125TIP3    H239791   1.164   2.324  15.798
 6126TIP3   OH239792   3.918   1.797   1.790
 6126TIP3    H139793   3.981   1.851   1.743
 6126TIP3    H239794   3.940   1.809   1.882
 6127TIP3   OH239795   5.521   2.217  11.072
 6127TIP3    H139796   5.470   2.245  11.147
 6127TIP3    H239797   5.522   2.121  11.079
 6128TIP3   OH239798   5.686   0.492  11.926
 6128TIP3    H139799   5.714   0.496  12.018
 6128TIP3    H239800   5.654   0.403  11.915
 6129TIP3   OH239801   5.131   5.922  10.933
 6129TIP3    H139802   5.143   5.830  10.957
 6129TIP3    H239803   5.069   5.956  10.998
 6130TIP3   OH239804   6.280   5.102  16.441
 6130TIP3    H139805   6.358   5.124  16.390
 6130TIP3    H239806   6.311   5.040  16.507
 6131TIP3   OH239807   1.091   2.947   6.424
 6131TIP3    H139808   1.041   2.944   6.342
 6131TIP3    H239809   1.069   3.032   6.463
 6132TIP3   OH239810   3.827   6.597   5.539
 6132TIP3    H139811   3.778   6.567   5.615
 6132TIP3    H239812   3.780   6.560   5.464
 6133TIP3   OH239813   3.581   2.916   2.828
 6133TIP3    H139814   3.551   2.967   2.753
 6133TIP3    H239815   3.504   2.910   2.885
 6134TIP3   OH239816   3.183   0.436  11.451
 6134TIP3    H139817   3.153   0.394  11.371
 6134TIP3    H239818   3.244   0.374  11.490
 6135TIP3   OH239819   0.244   3.089  14.021
 6135TIP3    H139820   0.212   3.173  14.054
 6135TIP3    H239821   0.318   3.111  13.964
 6136TIP3   OH239822   1.358   1.287  16.597
 6136TIP3    H139823   1.425   1.329  16.543
 6136TIP3    H239824   1.283   1.277  16.538
 6137TIP3   OH239825   1.594   6.720   5.737
 6137TIP3    H139826   1.570   6.789   5.675
 6137TIP3    H239827   1.679   6.748   5.773
 6138TIP3   OH239828   0.128   6.669  16.954
 6138TIP3    H139829   0.096   6.634  16.870
 6138TIP3    H239830   0.050   6.672  17.010
 6139TIP3   OH239831   4.048   6.118  13.428
 6139TIP3    H139832   3.994   6.168  13.489
 6139TIP3    H239833   4.094   6.185  13.377
 6140TIP3   OH239834   4.514   1.682   2.975
 6140TIP3    H139835   4.448   1.617   3.000
 6140TIP3    H239836   4.582   1.631   2.931
 6141TIP3   OH239837   0.602   2.113   5.873
 6141TIP3    H139838   0.540   2.049   5.837
 6141TIP3    H239839   0.556   2.153   5.946
 6142TIP3   OH239840   6.437   0.782  15.557
 6142TIP3    H139841   6.524   0.785  15.517
 6142TIP3    H239842   6.430   0.694  15.593
 6143TIP3   OH239843   0.818   6.670   0.761
 6143TIP3    H139844   0.724   6.661   0.776
 6143TIP3    H239845   0.825   6.687   0.667
 6144TIP3   OH239846   2.932   5.712  13.145
 6144TIP3    H139847   2.943   5.800  13.181
 6144TIP3    H239848   2.848   5.716  13.099
 6145TIP3   OH239849   1.683   3.688   3.596
 6145TIP3    H139850   1.604   3.652   3.636
 6145TIP3    H239851   1.652   3.748   3.529
 6146TIP3   OH239852   1.264   4.303   1.097
 6146TIP3    H139853   1.194   4.259   1.145
 6146TIP3    H239854   1.273   4.253   1.016
 6147TIP3   OH239855   1.644   4.355   0.871
 6147TIP3    H139856   1.630   4.312   0.787
 6147TIP3    H239857   1.696   4.293   0.921
 6148TIP3   OH239858   2.691   0.238  12.646
 6148TIP3    H139859   2.772   0.190  12.663
 6148TIP3    H239860   2.623   0.170  12.642
 6149TIP3   OH239861   4.815   0.447  13.251
 6149TIP3    H139862   4.791   0.391  13.178
 6149TIP3    H239863   4.737   0.448  13.307
 6150TIP3   OH239864   3.634   3.976  15.267
 6150TIP3    H139865   3.563   4.002  15.326
 6150TIP3    H239866   3.713   4.012  15.307
 6151TIP3   OH239867   1.364   4.636  11.352
 6151TIP3    H139868   1.339   4.727  11.368
 6151TIP3    H239869   1.396   4.635  11.262
 6152TIP3   OH239870   0.821   3.586  12.851
 6152TIP3    H139871   0.837   3.668  12.804
 6152TIP3    H239872   0.746   3.547  12.806
 6153TIP3   OH239873   1.664   5.011  13.106
 6153TIP3    H139874   1.575   4.980  13.090
 6153TIP3    H239875   1.661   5.049  13.194
 6154TIP3   OH239876   2.942   2.535   3.887
 6154TIP3    H139877   2.876   2.481   3.844
 6154TIP3    H239878   2.962   2.604   3.824
 6155TIP3   OH239879   2.951   6.323   2.590
 6155TIP3    H139880   2.917   6.412   2.586
 6155TIP3    H239881   2.959   6.304   2.683
 6156TIP3   OH239882   5.840   6.117   6.573
 6156TIP3    H139883   5.817   6.060   6.499
 6156TIP3    H239884   5.763   6.173   6.584
 6157TIP3   OH239885   2.846   3.939  10.621
 6157TIP3    H139886   2.817   3.874  10.685
 6157TIP3    H239887   2.773   4.000  10.613
 6158TIP3   OH239888   2.539   4.727  12.604
 6158TIP3    H139889   2.554   4.649  12.658
 6158TIP3    H239890   2.529   4.693  12.515
 6159TIP3   OH239891   6.717   5.492  12.718
 6159TIP3    H139892   6.714   5.532  12.631
 6159TIP3    H239893   6.679   5.558  12.776
 6160TIP3   OH239894   5.467   6.543  12.228
 6160TIP3    H139895   5.401   6.534  12.297
 6160TIP3    H239896   5.551   6.532  12.272
 6161TIP3   OH239897   0.364   1.778  13.490
 6161TIP3    H139898   0.310   1.711  13.534
 6161TIP3    H239899   0.304   1.852  13.478
 6162TIP3   OH239900   1.904   2.875  11.830
 6162TIP3    H139901   1.863   2.820  11.896
 6162TIP3    H239902   1.949   2.814  11.772
 6163TIP3   OH239903   2.160   4.424  13.513
 6163TIP3    H139904   2.120   4.407  13.428
 6163TIP3    H239905   2.113   4.366  13.573
 6164TIP3   OH239906   0.293   5.445  16.820
 6164TIP3    H139907   0.231   5.398  16.764
 6164TIP3    H239908   0.341   5.502  16.759
 6165TIP3   OH239909   0.930   3.119   4.844
 6165TIP3    H139910   0.873   3.092   4.772
 6165TIP3    H239911   0.973   3.199   4.813
 6166TIP3   OH239912   1.138   5.320   2.549
 6166TIP3    H139913   1.169   5.311   2.639
 6166TIP3    H239914   1.213   5.296   2.495
 6167TIP3   OH239915   2.000   3.837  13.098
 6167TIP3    H139916   2.023   3.927  13.073
 6167TIP3    H239917   2.082   3.788  13.089
 6168TIP3   OH239918   0.344   0.314  12.709
 6168TIP3    H139919   0.295   0.334  12.629
 6168TIP3    H239920   0.411   0.383  12.713
 6169TIP3   OH239921   3.669   1.253   3.693
 6169TIP3    H139922   3.599   1.188   3.682
 6169TIP3    H239923   3.740   1.204   3.735
 6170TIP3   OH239924   2.531   3.130   2.489
 6170TIP3    H139925   2.511   3.120   2.582
 6170TIP3    H239926   2.447   3.151   2.448
 6171TIP3   OH239927   1.177   3.252   2.018
 6171TIP3    H139928   1.153   3.278   1.929
 6171TIP3    H239929   1.104   3.199   2.048
 6172TIP3   OH239930   6.379   0.246  12.781
 6172TIP3    H139931   6.296   0.265  12.825
 6172TIP3    H239932   6.433   0.205  12.849
 6173TIP3   OH239933   2.510   3.523  14.107
 6173TIP3    H139934   2.447   3.594  14.093
 6173TIP3    H239935   2.495   3.463  14.034
 6174TIP3   OH239936   4.205   5.809   5.263
 6174TIP3    H139937   4.197   5.856   5.181
 6174TIP3    H239938   4.131   5.749   5.265
 6175TIP3   OH239939   2.877   0.747  15.287
 6175TIP3    H139940   2.784   0.731  15.302
 6175TIP3    H239941   2.919   0.663  15.303
 6176TIP3   OH239942   2.027   1.337  11.592
 6176TIP3    H139943   1.956   1.284  11.628
 6176TIP3    H239944   2.103   1.314  11.645
 6177TIP3   OH239945   0.966   4.901  16.863
 6177TIP3    H139946   1.015   4.906  16.945
 6177TIP3    H239947   1.030   4.871  16.798
 6178TIP3   OH239948   3.337   1.824   2.281
 6178TIP3    H139949   3.287   1.899   2.249
 6178TIP3    H239950   3.405   1.811   2.215
 6179TIP3   OH239951   2.760   6.679   4.816
 6179TIP3    H139952   2.760   6.651   4.907
 6179TIP3    H239953   2.668   6.679   4.791
 6180TIP3   OH239954   4.649   5.030   4.374
 6180TIP3    H139955   4.689   5.066   4.295
 6180TIP3    H239956   4.614   5.107   4.420
 6181TIP3   OH239957   1.743   0.049  12.103
 6181TIP3    H139958   1.832   0.019  12.085
 6181TIP3    H239959   1.695  -0.030  12.128
 6182TIP3   OH239960   1.009   5.927   2.427
 6182TIP3    H139961   1.057   5.873   2.490
 6182TIP3    H239962   1.072   5.946   2.358
 6183TIP3   OH239963   3.803   1.728  13.028
 6183TIP3    H139964   3.730   1.690  13.078
 6183TIP3    H239965   3.880   1.709  13.081
 6184TIP3   OH239966   4.161   0.415  15.748
 6184TIP3    H139967   4.197   0.439  15.833
 6184TIP3    H239968   4.219   0.458  15.684
 6185TIP3   OH239969   5.125   0.836   4.675
 6185TIP3    H139970   5.034   0.821   4.703
 6185TIP3    H239971   5.155   0.910   4.729
 6186TIP3   OH239972   1.217   0.470  13.897
 6186TIP3    H139973   1.300   0.427  13.919
 6186TIP3    H239974   1.241   0.559  13.873
 6187TIP3   OH239975   6.510   6.670   4.868
 6187TIP3    H139976   6.521   6.728   4.943
 6187TIP3    H239977   6.570   6.597   4.886
 6188TIP3   OH239978   4.441   3.887  12.318
 6188TIP3    H139979   4.514   3.930  12.273
 6188TIP3    H239980   4.464   3.892  12.411
 6189TIP3   OH239981   5.302   0.961   1.205
 6189TIP3    H139982   5.345   0.898   1.147
 6189TIP3    H239983   5.371   1.023   1.228
 6190TIP3   OH239984   2.559   3.231   4.642
 6190TIP3    H139985   2.464   3.226   4.655
 6190TIP3    H239986   2.591   3.279   4.718
 6191TIP3   OH239987   5.249   6.192   4.902
 6191TIP3    H139988   5.301   6.116   4.928
 6191TIP3    H239989   5.276   6.209   4.812
 6192TIP3   OH239990   5.632   1.650   1.054
 6192TIP3    H139991   5.576   1.596   0.998
 6192TIP3    H239992   5.719   1.646   1.014
 6193TIP3   OH239993   5.050   1.337  13.317
 6193TIP3    H139994   5.101   1.293  13.385
 6193TIP3    H239995   5.050   1.429  13.342
 6194TIP3   OH239996   2.373   2.787   2.770
 6194TIP3    H139997   2.431   2.775   2.695
 6194TIP3    H239998   2.420   2.848   2.827
 6195TIP3   OH239999   1.192   2.118   6.295
 6195TIP3    H140000   1.163   2.192   6.348
 6195TIP3    H240001   1.117   2.096   6.240
 6196TIP3   OH240002   1.606   5.275  13.787
 6196TIP3    H140003   1.595   5.369  13.805
 6196TIP3    H240004   1.663   5.272  13.710
 6197TIP3   OH240005   2.124   4.577  12.364
 6197TIP3    H140006   2.142   4.538  12.279
 6197TIP3    H240007   2.029   4.581  12.369
 6198TIP3   OH240008   4.574   4.456  12.627
 6198TIP3    H140009   4.638   4.395  12.664
 6198TIP3    H240010   4.505   4.461  12.692
 6199TIP3   OH240011   0.162   0.199  12.901
 6199TIP3    H140012   0.124   0.282  12.930
 6199TIP3    H240013   0.234   0.224  12.843
 6200TIP3   OH240014   3.378   2.954  15.353
 6200TIP3    H140015   3.338   3.039  15.333
 6200TIP3    H240016   3.417   2.966  15.439
 6201TIP3   OH240017   2.753   0.816   3.524
 6201TIP3    H140018   2.666   0.840   3.492
 6201TIP3    H240019   2.755   0.720   3.519
 6202TIP3   OH240020   2.613   4.748   0.791
 6202TIP3    H140021   2.654   4.671   0.750
 6202TIP3    H240022   2.549   4.778   0.726
 6203TIP3   OH240023   5.873   4.981  12.016
 6203TIP3    H140024   5.876   4.939  12.102
 6203TIP3    H240025   5.964   4.981  11.986
 6204TIP3   OH240026   0.174   0.537  13.554
 6204TIP3    H140027   0.252   0.483  13.566
 6204TIP3    H240028   0.101   0.475  13.558
 6205TIP3   OH240029   2.805   4.146   2.885
 6205TIP3    H140030   2.837   4.068   2.839
 6205TIP3    H240031   2.879   4.173   2.939
 6206TIP3   OH240032   5.999   2.181  15.555
 6206TIP3    H140033   6.055   2.215  15.624
 6206TIP3    H240034   5.966   2.260  15.510
 6207TIP3   OH240035   1.899   4.728  16.022
 6207TIP3    H140036   1.877   4.716  16.115
 6207TIP3    H240037   1.940   4.814  16.018
 6208TIP3   OH240038   5.754   3.740   0.808
 6208TIP3    H140039   5.722   3.824   0.774
 6208TIP3    H240040   5.675   3.695   0.838
 6209TIP3   OH240041   6.165   5.127   1.271
 6209TIP3    H140042   6.155   5.106   1.178
 6209TIP3    H240043   6.256   5.155   1.280
 6210TIP3   OH240044   2.006   3.171  13.753
 6210TIP3    H140045   2.055   3.106  13.702
 6210TIP3    H240046   2.062   3.189  13.828
 6211TIP3   OH240047   0.737   0.729  13.223
 6211TIP3    H140048   0.663   0.789  13.206
 6211TIP3    H240049   0.716   0.688  13.306
 6212TIP3   OH240050   5.853   5.694   3.009
 6212TIP3    H140051   5.892   5.780   2.996
 6212TIP3    H240052   5.759   5.710   3.011
 6213TIP3   OH240053   6.331   5.395  14.207
 6213TIP3    H140054   6.252   5.436  14.241
 6213TIP3    H240055   6.299   5.323  14.152
 6214TIP3   OH240056   4.918   3.823  13.661
 6214TIP3    H140057   4.973   3.764  13.712
 6214TIP3    H240058   4.829   3.805  13.692
 6215TIP3   OH240059   5.327   2.522  14.208
 6215TIP3    H140060   5.420   2.537  14.190
 6215TIP3    H240061   5.314   2.428  14.193
 6216TIP3   OH240062   2.804   2.986   5.089
 6216TIP3    H140063   2.825   2.921   5.022
 6216TIP3    H240064   2.742   2.942   5.147
 6217TIP3   OH240065   2.552   5.112  15.896
 6217TIP3    H140066   2.602   5.190  15.874
 6217TIP3    H240067   2.601   5.040  15.855
 6218TIP3   OH240068   4.984   2.916   4.045
 6218TIP3    H140069   4.963   3.009   4.033
 6218TIP3    H240070   5.032   2.893   3.966
 6219TIP3   OH240071   2.796   3.690  12.755
 6219TIP3    H140072   2.725   3.664  12.814
 6219TIP3    H240073   2.754   3.747  12.691
 6220TIP3   OH240074   4.765   6.401   5.703
 6220TIP3    H140075   4.696   6.440   5.649
 6220TIP3    H240076   4.729   6.316   5.729
 6221TIP3   OH240077   0.976   4.888  10.685
 6221TIP3    H140078   1.040   4.919  10.621
 6221TIP3    H240079   0.970   4.794  10.669
 6222TIP3   OH240080   2.764   5.331   2.747
 6222TIP3    H140081   2.836   5.271   2.727
 6222TIP3    H240082   2.779   5.406   2.689
 6223TIP3   OH240083   6.124   6.070   2.848
 6223TIP3    H140084   6.131   5.982   2.884
 6223TIP3    H240085   6.145   6.061   2.755
 6224TIP3   OH240086   1.066   2.089  15.310
 6224TIP3    H140087   1.154   2.067  15.279
 6224TIP3    H240088   1.013   2.094  15.230
 6225TIP3   OH240089   1.246   4.710   1.046
 6225TIP3    H140090   1.267   4.801   1.026
 6225TIP3    H240091   1.311   4.684   1.112
 6226TIP3   OH240092   1.504   0.328   3.019
 6226TIP3    H140093   1.433   0.266   3.030
 6226TIP3    H240094   1.582   0.281   3.050
 6227TIP3   OH240095   1.414   2.956   2.989
 6227TIP3    H140096   1.320   2.973   2.998
 6227TIP3    H240097   1.456   3.037   3.018
 6228TIP3   OH240098   5.132   3.402   4.178
 6228TIP3    H140099   5.213   3.384   4.225
 6228TIP3    H240100   5.150   3.480   4.126
 6229TIP3   OH240101   3.580   2.495  10.638
 6229TIP3    H140102   3.601   2.423  10.579
 6229TIP3    H240103   3.510   2.461  10.693
 6230TIP3   OH240104   0.189   1.438   0.746
 6230TIP3    H140105   0.277   1.468   0.767
 6230TIP3    H240106   0.200   1.385   0.666
 6231TIP3   OH240107   2.770   4.950  15.855
 6231TIP3    H140108   2.794   4.963  15.947
 6231TIP3    H240109   2.838   4.995  15.805
 6232TIP3   OH240110   3.355   4.884   4.636
 6232TIP3    H140111   3.271   4.837   4.633
 6232TIP3    H240112   3.421   4.815   4.631
 6233TIP3   OH240113   6.398   1.301  14.214
 6233TIP3    H140114   6.421   1.264  14.129
 6233TIP3    H240115   6.369   1.390  14.194
 6234TIP3   OH240116   6.542   0.369   0.183
 6234TIP3    H140117   6.497   0.285   0.174
 6234TIP3    H240118   6.631   0.353   0.151
 6235TIP3   OH240119   3.176   1.239  13.393
 6235TIP3    H140120   3.099   1.202  13.436
 6235TIP3    H240121   3.166   1.333  13.403
 6236TIP3   OH240122   1.458   0.117   5.283
 6236TIP3    H140123   1.419   0.039   5.244
 6236TIP3    H240124   1.452   0.184   5.214
 6237TIP3   OH240125   5.126   2.168  13.626
 6237TIP3    H140126   5.129   2.136  13.536
 6237TIP3    H240127   5.218   2.167  13.654
 6238TIP3   OH240128   5.121   3.401   4.564
 6238TIP3    H140129   5.057   3.353   4.618
 6238TIP3    H240130   5.205   3.362   4.587
 6239TIP3   OH240131   6.451   4.741  12.342
 6239TIP3    H140132   6.436   4.822  12.392
 6239TIP3    H240133   6.545   4.727  12.347
 6240TIP3   OH240134   6.572   3.765  16.840
 6240TIP3    H140135   6.587   3.674  16.866
 6240TIP3    H240136   6.531   3.805  16.916
 6241TIP3   OH240137   5.989   5.412   2.605
 6241TIP3    H140138   5.997   5.319   2.587
 6241TIP3    H240139   6.078   5.439   2.630
 6242TIP3   OH240140   0.138   4.984   1.910
 6242TIP3    H140141   0.067   4.971   1.847
 6242TIP3    H240142   0.109   5.059   1.963
 6243TIP3   OH240143   2.741   2.626   2.352
 6243TIP3    H140144   2.696   2.618   2.268
 6243TIP3    H240145   2.744   2.536   2.386
 6244TIP3   OH240146   3.139   0.760   3.434
 6244TIP3    H140147   3.230   0.751   3.406
 6244TIP3    H240148   3.141   0.829   3.500
 6245TIP3   OH240149   2.724   3.521   1.447
 6245TIP3    H140150   2.819   3.534   1.451
 6245TIP3    H240151   2.688   3.609   1.436
 6246TIP3   OH240152   6.158   0.013   4.276
 6246TIP3    H140153   6.170  -0.037   4.195
 6246TIP3    H240154   6.246   0.041   4.300
 6247TIP3   OH240155   5.999   6.511   2.073
 6247TIP3    H140156   6.077   6.456   2.081
 6247TIP3    H240157   5.965   6.492   1.986
 6248TIP3   OH240158   2.252   1.587   6.588
 6248TIP3    H140159   2.276   1.560   6.676
 6248TIP3    H240160   2.277   1.680   6.584
 6249TIP3   OH240161   4.853   2.201   0.559
 6249TIP3    H140162   4.895   2.206   0.474
 6249TIP3    H240163   4.908   2.140   0.610
 6250TIP3   OH240164   3.304   3.347  13.498
 6250TIP3    H140165   3.276   3.256  13.502
 6250TIP3    H240166   3.318   3.372  13.590
 6251TIP3   OH240167   1.139   3.754  16.992
 6251TIP3    H140168   1.061   3.699  16.981
 6251TIP3    H240169   1.116   3.837  16.949
 6252TIP3   OH240170   5.470   0.434  12.230
 6252TIP3    H140171   5.390   0.433  12.284
 6252TIP3    H240172   5.506   0.522  12.242
 6253TIP3   OH240173   3.651   4.016  14.159
 6253TIP3    H140174   3.661   4.069  14.080
 6253TIP3    H240175   3.677   4.074  14.230
 6254TIP3   OH240176   5.274   1.966   3.142
 6254TIP3    H140177   5.194   2.008   3.173
 6254TIP3    H240178   5.343   2.029   3.160
 6255TIP3   OH240179   4.639   6.768   4.871
 6255TIP3    H140180   4.722   6.753   4.826
 6255TIP3    H240181   4.627   6.691   4.927
 6256TIP3   OH240182   0.706   4.927  11.794
 6256TIP3    H140183   0.761   4.853  11.818
 6256TIP3    H240184   0.679   4.966  11.877
 6257TIP3   OH240185   2.081   4.823  12.882
 6257TIP3    H140186   2.027   4.888  12.927
 6257TIP3    H240187   2.169   4.860  12.881
 6258TIP3   OH240188   3.893   4.424   5.820
 6258TIP3    H140189   3.879   4.433   5.915
 6258TIP3    H240190   3.977   4.468   5.805
 6259TIP3   OH240191   3.922   6.309  13.169
 6259TIP3    H140192   3.921   6.367  13.245
 6259TIP3    H240193   3.836   6.268  13.169
 6260TIP3   OH240194   5.740   2.929   1.767
 6260TIP3    H140195   5.729   2.985   1.844
 6260TIP3    H240196   5.727   2.840   1.800
 6261TIP3   OH240197   0.792   1.185   1.352
 6261TIP3    H140198   0.779   1.256   1.289
 6261TIP3    H240199   0.881   1.199   1.386
 6262TIP3   OH240200   1.841   6.669  12.579
 6262TIP3    H140201   1.792   6.587  12.571
 6262TIP3    H240202   1.920   6.655  12.527
 6263TIP3   OH240203   3.008   3.988   6.013
 6263TIP3    H140204   2.930   4.039   5.988
 6263TIP3    H240205   3.041   3.954   5.930
 6264TIP3   OH240206   0.645   1.980   0.062
 6264TIP3    H140207   0.574   1.937   0.109
 6264TIP3    H240208   0.723   1.928   0.085
 6265TIP3   OH240209   2.058   4.974  16.052
 6265TIP3    H140210   1.988   5.032  16.081
 6265TIP3    H240211   2.130   5.032  16.028
 6266TIP3   OH240212   0.252   5.451  12.920
 6266TIP3    H140213   0.317   5.510  12.958
 6266TIP3    H240214   0.168   5.489  12.946
 6267TIP3   OH240215   1.871   3.071   4.326
 6267TIP3    H140216   1.832   3.131   4.390
 6267TIP3    H240217   1.948   3.118   4.293
 6268TIP3   OH240218   5.657   3.230   3.721
 6268TIP3    H140219   5.578   3.175   3.713
 6268TIP3    H240220   5.689   3.213   3.809
 6269TIP3   OH240221   3.727   1.359   4.656
 6269TIP3    H140222   3.775   1.438   4.681
 6269TIP3    H240223   3.773   1.288   4.701
 6270TIP3   OH240224   3.793   1.809  13.488
 6270TIP3    H140225   3.749   1.796  13.404
 6270TIP3    H240226   3.886   1.816  13.466
 6271TIP3   OH240227   5.345   0.765   1.851
 6271TIP3    H140228   5.412   0.829   1.875
 6271TIP3    H240229   5.280   0.816   1.802
 6272TIP3   OH240230   4.060   3.747   5.975
 6272TIP3    H140231   4.012   3.688   6.033
 6272TIP3    H240232   4.073   3.826   6.027
 6273TIP3   OH240233   3.650   5.212   2.849
 6273TIP3    H140234   3.690   5.141   2.900
 6273TIP3    H240235   3.723   5.268   2.824
 6274TIP3   OH240236   4.652   3.878  15.348
 6274TIP3    H140237   4.564   3.909  15.368
 6274TIP3    H240238   4.700   3.886  15.430
 6275TIP3   OH240239   1.943   4.953  17.160
 6275TIP3    H140240   2.000   5.030  17.167
 6275TIP3    H240241   1.996   4.887  17.117
 6276TIP3   OH240242   1.558   0.557  15.616
 6276TIP3    H140243   1.477   0.506  15.611
 6276TIP3    H240244   1.614   0.508  15.676
 6277TIP3   OH240245   5.513   3.234   5.286
 6277TIP3    H140246   5.448   3.269   5.347
 6277TIP3    H240247   5.566   3.310   5.262
 6278TIP3   OH240248   4.762   6.117  14.209
 6278TIP3    H140249   4.694   6.100  14.143
 6278TIP3    H240250   4.844   6.109  14.161
 6279TIP3   OH240251   1.475   3.903   2.172
 6279TIP3    H140252   1.484   3.859   2.256
 6279TIP3    H240253   1.453   3.833   2.110
 6280TIP3   OH240254   3.030   6.724  11.726
 6280TIP3    H140255   2.959   6.752  11.784
 6280TIP3    H240256   3.003   6.752  11.639
 6281TIP3   OH240257   2.044   2.242   0.706
 6281TIP3    H140258   1.960   2.277   0.734
 6281TIP3    H240259   2.061   2.169   0.766
 6282TIP3   OH240260   5.518   0.145   5.444
 6282TIP3    H140261   5.563   0.081   5.499
 6282TIP3    H240262   5.457   0.093   5.391
 6283TIP3   OH240263   6.723   1.642  13.482
 6283TIP3    H140264   6.673   1.564  13.460
 6283TIP3    H240265   6.665   1.692  13.540
 6284TIP3   OH240266   1.821   0.157   0.241
 6284TIP3    H140267   1.845   0.210   0.317
 6284TIP3    H240268   1.736   0.118   0.265
 6285TIP3   OH240269   3.485   4.107   2.926
 6285TIP3    H140270   3.527   4.026   2.899
 6285TIP3    H240271   3.556   4.160   2.963
 6286TIP3   OH240272   6.635   2.532   3.046
 6286TIP3    H140273   6.695   2.462   3.020
 6286TIP3    H240274   6.595   2.501   3.127
 6287TIP3   OH240275   0.377   5.072  11.084
 6287TIP3    H140276   0.459   5.031  11.109
 6287TIP3    H240277   0.342   5.109  11.166
 6288TIP3   OH240278   4.663   2.840   5.344
 6288TIP3    H140279   4.599   2.911   5.350
 6288TIP3    H240280   4.716   2.861   5.267
 6289TIP3   OH240281   1.255   4.120   4.486
 6289TIP3    H140282   1.337   4.157   4.518
 6289TIP3    H240283   1.278   4.076   4.404
 6290TIP3   OH240284   5.410   0.439   3.384
 6290TIP3    H140285   5.442   0.529   3.370
 6290TIP3    H240286   5.435   0.419   3.474
 6291TIP3   OH240287   0.056   6.695   3.946
 6291TIP3    H140288   0.090   6.643   4.018
 6291TIP3    H240289   0.111   6.773   3.945
 6292TIP3   OH240290   0.441   5.366  11.023
 6292TIP3    H140291   0.482   5.282  11.045
 6292TIP3    H240292   0.509   5.415  10.978
 6293TIP3   OH240293   2.057   1.863   0.584
 6293TIP3    H140294   2.111   1.935   0.555
 6293TIP3    H240295   2.082   1.789   0.528
 6294TIP3   OH240296   3.238   3.221   0.606
 6294TIP3    H140297   3.170   3.275   0.647
 6294TIP3    H240298   3.286   3.282   0.549
 6295TIP3   OH240299   5.912   4.032  16.681
 6295TIP3    H140300   5.868   3.956  16.644
 6295TIP3    H240301   5.993   3.997  16.719
 6296TIP3   OH240302   2.252   1.129  12.754
 6296TIP3    H140303   2.285   1.196  12.695
 6296TIP3    H240304   2.329   1.079  12.780
 6297TIP3   OH240305   4.232   4.698  11.826
 6297TIP3    H140306   4.196   4.784  11.806
 6297TIP3    H240307   4.201   4.679  11.915
 6298TIP3   OH240308   1.534   1.114  16.691
 6298TIP3    H140309   1.596   1.121  16.618
 6298TIP3    H240310   1.475   1.188  16.678
 6299TIP3   OH240311   2.039   5.890   5.219
 6299TIP3    H140312   1.995   5.974   5.203
 6299TIP3    H240313   2.001   5.858   5.300
 6300TIP3   OH240314   1.846   2.490  10.575
 6300TIP3    H140315   1.930   2.511  10.532
 6300TIP3    H240316   1.857   2.399  10.602
 6301TIP3   OH240317   4.929   1.245  14.546
 6301TIP3    H140318   4.910   1.163  14.591
 6301TIP3    H240319   4.874   1.243  14.468
 6302TIP3   OH240320   3.791   0.026  13.725
 6302TIP3    H140321   3.748   0.093  13.779
 6302TIP3    H240322   3.884   0.039  13.739
 6303TIP3   OH240323   1.704   4.827  11.117
 6303TIP3    H140324   1.785   4.788  11.150
 6303TIP3    H240325   1.642   4.754  11.115
 6304TIP3   OH240326   5.232   2.086  13.912
 6304TIP3    H140327   5.159   2.033  13.881
 6304TIP3    H240328   5.307   2.054  13.862
 6305TIP3   OH240329   2.498   6.058   3.409
 6305TIP3    H140330   2.589   6.087   3.407
 6305TIP3    H240331   2.448   6.137   3.428
 6306TIP3   OH240332   5.490   3.378  14.804
 6306TIP3    H140333   5.523   3.378  14.714
 6306TIP3    H240334   5.564   3.407  14.857
 6307TIP3   OH240335   1.043   0.934   0.194
 6307TIP3    H140336   1.046   1.018   0.239
 6307TIP3    H240337   1.073   0.953   0.105
 6308TIP3   OH240338   0.013   6.312  17.081
 6308TIP3    H140339   0.015   6.218  17.064
 6308TIP3    H240340  -0.070   6.341  17.044
 6309TIP3   OH240341   6.234   5.496   2.617
 6309TIP3    H140342   6.265   5.501   2.708
 6309TIP3    H240343   6.288   5.559   2.570
 6310TIP3   OH240344   2.556   6.397  16.257
 6310TIP3    H140345   2.636   6.348  16.277
 6310TIP3    H240346   2.536   6.376  16.166
 6311TIP3   OH240347   2.703   6.074   3.801
 6311TIP3    H140348   2.700   5.995   3.747
 6311TIP3    H240349   2.790   6.071   3.842
 6312TIP3   OH240350   2.862   2.074   2.346
 6312TIP3    H140351   2.810   2.052   2.424
 6312TIP3    H240352   2.833   2.012   2.280
 6313TIP3   OH240353   3.586   1.757  10.676
 6313TIP3    H140354   3.660   1.818  10.685
 6313TIP3    H240355   3.517   1.810  10.636
 6314TIP3   OH240356   5.198   2.128  14.715
 6314TIP3    H140357   5.130   2.159  14.654
 6314TIP3    H240358   5.258   2.078  14.660
 6315TIP3   OH240359   6.259   3.549   5.835
 6315TIP3    H140360   6.208   3.562   5.756
 6315TIP3    H240361   6.282   3.456   5.834
 6316TIP3   OH240362   3.791   1.251  14.325
 6316TIP3    H140363   3.730   1.222  14.393
 6316TIP3    H240364   3.878   1.234  14.362
 6317TIP3   OH240365   5.302   3.463   1.163
 6317TIP3    H140366   5.303   3.375   1.201
 6317TIP3    H240367   5.289   3.448   1.069
 6318TIP3   OH240368   2.868   6.220  15.160
 6318TIP3    H140369   2.829   6.296  15.202
 6318TIP3    H240370   2.809   6.200  15.088
 6319TIP3   OH240371   3.331   4.771   4.902
 6319TIP3    H140372   3.400   4.712   4.872
 6319TIP3    H240373   3.254   4.715   4.911
 6320TIP3   OH240374   0.321   0.471  11.403
 6320TIP3    H140375   0.367   0.474  11.487
 6320TIP3    H240376   0.250   0.534  11.413
 6321TIP3   OH240377   5.234   2.750   3.958
 6321TIP3    H140378   5.157   2.733   4.012
 6321TIP3    H240379   5.252   2.668   3.913
 6322TIP3   OH240380   5.530   0.956  13.616
 6322TIP3    H140381   5.579   0.921  13.690
 6322TIP3    H240382   5.555   0.900  13.542
 6323TIP3   OH240383   6.077   1.743  16.063
 6323TIP3    H140384   6.104   1.760  15.973
 6323TIP3    H240385   6.088   1.826  16.108
 6324TIP3   OH240386   5.972   4.681  16.248
 6324TIP3    H140387   6.030   4.756  16.234
 6324TIP3    H240388   6.014   4.609  16.202
 6325TIP3   OH240389   4.360   0.489   0.267
 6325TIP3    H140390   4.337   0.543   0.344
 6325TIP3    H240391   4.396   0.552   0.205
 6326TIP3   OH240392   2.848   6.589  12.189
 6326TIP3    H140393   2.857   6.633  12.273
 6326TIP3    H240394   2.785   6.519  12.205
 6327TIP3   OH240395   1.384   5.585  16.151
 6327TIP3    H140396   1.308   5.612  16.100
 6327TIP3    H240397   1.347   5.529  16.220
 6328TIP3   OH240398   2.244   3.416   0.663
 6328TIP3    H140399   2.195   3.489   0.702
 6328TIP3    H240400   2.229   3.342   0.722
 6329TIP3   OH240401   5.672   3.340  17.211
 6329TIP3    H140402   5.619   3.419  17.225
 6329TIP3    H240403   5.619   3.269  17.247
 6330TIP3   OH240404   3.809   5.029  11.849
 6330TIP3    H140405   3.829   5.029  11.942
 6330TIP3    H240406   3.811   4.936  11.825
 6331TIP3   OH240407   5.463   5.554  14.723
 6331TIP3    H140408   5.513   5.620  14.770
 6331TIP3    H240409   5.493   5.471  14.758
 6332TIP3   OH240410   4.354   0.595  11.197
 6332TIP3    H140411   4.379   0.668  11.140
 6332TIP3    H240412   4.434   0.543  11.206
 6333TIP3   OH240413   6.261   6.089  12.406
 6333TIP3    H140414   6.201   6.091  12.481
 6333TIP3    H240415   6.264   6.179  12.375
 6334TIP3   OH240416   6.278   0.793  15.923
 6334TIP3    H140417   6.231   0.817  16.003
 6334TIP3    H240418   6.292   0.875  15.877
 6335TIP3   OH240419   0.632   4.996   2.449
 6335TIP3    H140420   0.549   5.040   2.432
 6335TIP3    H240421   0.682   5.007   2.368
 6336TIP3   OH240422   3.934   0.485  16.010
 6336TIP3    H140423   4.016   0.481  16.060
 6336TIP3    H240424   3.939   0.412  15.949
 6337TIP3   OH240425   0.332   5.235  14.950
 6337TIP3    H140426   0.296   5.200  15.031
 6337TIP3    H240427   0.331   5.161  14.889
 6338TIP3   OH240428   0.726   0.366  14.607
 6338TIP3    H140429   0.644   0.401  14.574
 6338TIP3    H240430   0.780   0.355  14.529
 6339TIP3   OH240431   5.756   1.241   1.731
 6339TIP3    H140432   5.740   1.171   1.668
 6339TIP3    H240433   5.770   1.195   1.814
 6340TIP3   OH240434   0.578   1.773  14.720
 6340TIP3    H140435   0.560   1.813  14.805
 6340TIP3    H240436   0.493   1.771  14.676
 6341TIP3   OH240437   2.235   6.346   5.405
 6341TIP3    H140438   2.297   6.358   5.334
 6341TIP3    H240439   2.207   6.255   5.398
 6342TIP3   OH240440   3.898   4.789   1.817
 6342TIP3    H140441   3.903   4.800   1.722
 6342TIP3    H240442   3.977   4.832   1.851
 6343TIP3   OH240443   3.704   6.663  17.193
 6343TIP3    H140444   3.681   6.737  17.137
 6343TIP3    H240445   3.796   6.678  17.217
 6344TIP3   OH240446   0.177   5.816  11.370
 6344TIP3    H140447   0.087   5.790  11.387
 6344TIP3    H240448   0.220   5.811  11.456
 6345TIP3   OH240449   4.169   6.407   1.539
 6345TIP3    H140450   4.261   6.432   1.532
 6345TIP3    H240451   4.134   6.462   1.609
 6346TIP3   OH240452   2.030   1.565   0.825
 6346TIP3    H140453   2.101   1.533   0.881
 6346TIP3    H240454   1.981   1.626   0.881
 6347TIP3   OH240455   3.208   2.067  12.264
 6347TIP3    H140456   3.184   2.020  12.344
 6347TIP3    H240457   3.124   2.091  12.224
 6348TIP3   OH240458   3.779   4.860   4.525
 6348TIP3    H140459   3.801   4.951   4.504
 6348TIP3    H240460   3.815   4.846   4.612
 6349TIP3   OH240461   0.555   5.279   4.177
 6349TIP3    H140462   0.525   5.369   4.165
 6349TIP3    H240463   0.480   5.225   4.153
 6350TIP3   OH240464   6.151   2.106   2.865
 6350TIP3    H140465   6.151   2.185   2.811
 6350TIP3    H240466   6.225   2.055   2.834
 6351TIP3   OH240467   5.809   0.663  11.075
 6351TIP3    H140468   5.756   0.585  11.088
 6351TIP3    H240469   5.755   0.718  11.017
 6352TIP3   OH240470   3.746   2.695   2.669
 6352TIP3    H140471   3.660   2.731   2.692
 6352TIP3    H240472   3.809   2.750   2.717
 6353TIP3   OH240473   0.000   2.107   5.028
 6353TIP3    H140474  -0.081   2.125   4.981
 6353TIP3    H240475   0.050   2.189   5.024
 6354TIP3   OH240476   3.386   0.973  12.158
 6354TIP3    H140477   3.393   1.066  12.178
 6354TIP3    H240478   3.465   0.952  12.109
 6355TIP3   OH240479   6.568   3.261  10.703
 6355TIP3    H140480   6.519   3.280  10.782
 6355TIP3    H240481   6.659   3.280  10.725
 6356TIP3   OH240482   4.085   0.303  10.267
 6356TIP3    H140483   4.145   0.283  10.339
 6356TIP3    H240484   4.102   0.395  10.246
 6357TIP3   OH240485   4.157   2.228  16.185
 6357TIP3    H140486   4.168   2.263  16.273
 6357TIP3    H240487   4.147   2.133  16.197
 6358TIP3   OH240488   2.738   3.991  12.119
 6358TIP3    H140489   2.691   3.953  12.045
 6358TIP3    H240490   2.829   3.994  12.091
 6359TIP3   OH240491   4.543   6.522   5.028
 6359TIP3    H140492   4.523   6.430   5.044
 6359TIP3    H240493   4.474   6.570   5.074
 6360TIP3   OH240494   4.984   6.476   3.861
 6360TIP3    H140495   4.910   6.490   3.802
 6360TIP3    H240496   4.969   6.390   3.898
 6361TIP3   OH240497   3.272   4.247  12.255
 6361TIP3    H140498   3.362   4.272  12.273
 6361TIP3    H240499   3.237   4.220  12.340
 6362TIP3   OH240500   0.905   2.624  13.052
 6362TIP3    H140501   0.907   2.718  13.032
 6362TIP3    H240502   0.842   2.588  12.989
 6363TIP3   OH240503   5.518   2.628   5.700
 6363TIP3    H140504   5.546   2.541   5.728
 6363TIP3    H240505   5.599   2.674   5.678
 6364TIP3   OH240506   6.310   3.110   4.543
 6364TIP3    H140507   6.397   3.083   4.575
 6364TIP3    H240508   6.294   3.053   4.468
 6365TIP3   OH240509   4.336   5.990   4.183
 6365TIP3    H140510   4.323   5.912   4.130
 6365TIP3    H240511   4.340   5.959   4.273
 6366TIP3   OH240512   5.386   6.348  16.756
 6366TIP3    H140513   5.392   6.438  16.724
 6366TIP3    H240514   5.466   6.336  16.807
 6367TIP3   OH240515   5.447   1.487  11.943
 6367TIP3    H140516   5.517   1.490  11.878
 6367TIP3    H240517   5.475   1.550  12.010
 6368TIP3   OH240518   2.272   0.927   0.624
 6368TIP3    H140519   2.286   0.841   0.663
 6368TIP3    H240520   2.186   0.954   0.657
 6369TIP3   OH240521   4.841   2.167  12.524
 6369TIP3    H140522   4.781   2.117  12.470
 6369TIP3    H240523   4.806   2.256  12.523
 6370TIP3   OH240524   6.302   2.020  16.745
 6370TIP3    H140525   6.369   2.038  16.811
 6370TIP3    H240526   6.294   1.924  16.746
 6371TIP3   OH240527   2.831   6.070   1.082
 6371TIP3    H140528   2.797   5.982   1.102
 6371TIP3    H240529   2.921   6.054   1.055
 6372TIP3   OH240530   5.349   6.311   5.414
 6372TIP3    H140531   5.325   6.220   5.399
 6372TIP3    H240532   5.323   6.328   5.505
 6373TIP3   OH240533   1.400   2.834   3.567
 6373TIP3    H140534   1.341   2.863   3.638
 6373TIP3    H240535   1.365   2.876   3.489
 6374TIP3   OH240536   6.060   6.018  16.912
 6374TIP3    H140537   6.015   6.095  16.947
 6374TIP3    H240538   6.038   6.017  16.819
 6375TIP3   OH240539   4.208   3.190   2.655
 6375TIP3    H140540   4.191   3.096   2.662
 6375TIP3    H240541   4.150   3.230   2.720
 6376TIP3   OH240542   1.360   4.402   4.360
 6376TIP3    H140543   1.316   4.408   4.445
 6376TIP3    H240544   1.289   4.394   4.297
 6377TIP3   OH240545   3.090   5.478  11.952
 6377TIP3    H140546   3.036   5.524  11.887
 6377TIP3    H240547   3.152   5.428  11.900
 6378TIP3   OH240548   6.373   1.049  16.055
 6378TIP3    H140549   6.316   1.102  16.000
 6378TIP3    H240550   6.426   1.112  16.103
 6379TIP3   OH240551   2.055   1.230  14.212
 6379TIP3    H140552   1.965   1.254  14.186
 6379TIP3    H240553   2.071   1.280  14.292
 6380TIP3   OH240554   2.659   0.688   2.654
 6380TIP3    H140555   2.745   0.730   2.649
 6380TIP3    H240556   2.608   0.730   2.585
 6381TIP3   OH240557   0.325   4.307  10.687
 6381TIP3    H140558   0.286   4.231  10.644
 6381TIP3    H240559   0.285   4.383  10.644
 6382TIP3   OH240560   1.029   4.433   4.869
 6382TIP3    H140561   1.010   4.497   4.800
 6382TIP3    H240562   0.959   4.368   4.862
 6383TIP3   OH240563   3.833   5.031   1.295
 6383TIP3    H140564   3.906   4.973   1.276
 6383TIP3    H240565   3.872   5.107   1.338
 6384TIP3   OH240566   2.571   6.104   2.514
 6384TIP3    H140567   2.650   6.099   2.461
 6384TIP3    H240568   2.602   6.140   2.598
 6385TIP3   OH240569   6.000   6.236  15.034
 6385TIP3    H140570   6.037   6.240  14.946
 6385TIP3    H240571   6.072   6.263  15.091
 6386TIP3   OH240572   5.516   5.741   2.078
 6386TIP3    H140573   5.553   5.719   2.163
 6386TIP3    H240574   5.572   5.811   2.044
 6387TIP3   OH240575   4.047   1.463   0.987
 6387TIP3    H140576   4.094   1.429   1.063
 6387TIP3    H240577   4.094   1.543   0.964
 6388TIP3   OH240578   3.788   4.913   2.104
 6388TIP3    H140579   3.747   4.880   2.184
 6388TIP3    H240580   3.863   4.856   2.090
 6389TIP3   OH240581   2.451   5.331  13.722
 6389TIP3    H140582   2.427   5.386  13.796
 6389TIP3    H240583   2.539   5.360  13.698
 6390TIP3   OH240584   1.381   2.574   2.505
 6390TIP3    H140585   1.321   2.645   2.485
 6390TIP3    H240586   1.425   2.555   2.422
 6391TIP3   OH240587   5.082   3.760   2.619
 6391TIP3    H140588   5.177   3.774   2.629
 6391TIP3    H240589   5.054   3.723   2.702
 6392TIP3   OH240590   2.148   6.615   0.567
 6392TIP3    H140591   2.227   6.594   0.618
 6392TIP3    H240592   2.136   6.539   0.510
 6393TIP3   OH240593   0.942   0.252   4.683
 6393TIP3    H140594   1.017   0.308   4.702
 6393TIP3    H240595   0.963   0.211   4.599
 6394TIP3   OH240596   5.155   6.779  10.373
 6394TIP3    H140597   5.115   6.842  10.314
 6394TIP3    H240598   5.171   6.828  10.454
 6395TIP3   OH240599   0.904   2.884  15.482
 6395TIP3    H140600   0.956   2.842  15.549
 6395TIP3    H240601   0.952   2.964  15.460
 6396TIP3   OH240602   5.347   4.620  13.072
 6396TIP3    H140603   5.263   4.612  13.027
 6396TIP3    H240604   5.356   4.714  13.089
 6397TIP3   OH240605   4.637   5.420  11.132
 6397TIP3    H140606   4.632   5.455  11.221
 6397TIP3    H240607   4.555   5.374  11.120
 6398TIP3   OH240608   4.011   1.954  10.591
 6398TIP3    H140609   4.087   1.919  10.544
 6398TIP3    H240610   4.008   2.046  10.566
 6399TIP3   OH240611   4.921   3.168   2.205
 6399TIP3    H140612   4.988   3.213   2.154
 6399TIP3    H240613   4.885   3.235   2.262
 6400TIP3   OH240614   2.360   4.263   3.533
 6400TIP3    H140615   2.358   4.261   3.437
 6400TIP3    H240616   2.313   4.343   3.556
 6401TIP3   OH240617   1.679   3.597   1.984
 6401TIP3    H140618   1.727   3.514   1.992
 6401TIP3    H240619   1.739   3.656   1.939
 6402TIP3   OH240620   6.251   6.516  15.635
 6402TIP3    H140621   6.273   6.606  15.615
 6402TIP3    H240622   6.260   6.469  15.552
 6403TIP3   OH240623   3.177   3.196   4.165
 6403TIP3    H140624   3.115   3.209   4.237
 6403TIP3    H240625   3.125   3.157   4.095
 6404TIP3   OH240626   5.166   0.020   2.249
 6404TIP3    H140627   5.124  -0.009   2.168
 6404TIP3    H240628   5.258   0.035   2.225
 6405TIP3   OH240629   1.125   1.803   5.482
 6405TIP3    H140630   1.203   1.796   5.537
 6405TIP3    H240631   1.145   1.873   5.421
 6406TIP3   OH240632   2.594   1.455  13.857
 6406TIP3    H140633   2.662   1.518  13.882
 6406TIP3    H240634   2.523   1.510  13.824
 6407TIP3   OH240635   0.845   6.325  13.411
 6407TIP3    H140636   0.843   6.246  13.465
 6407TIP3    H240637   0.834   6.397  13.474
 6408TIP3   OH240638   6.084   1.071  11.590
 6408TIP3    H140639   6.071   1.028  11.505
 6408TIP3    H240640   6.015   1.137  11.594
 6409TIP3   OH240641   0.162   3.831  16.961
 6409TIP3    H140642   0.124   3.809  17.046
 6409TIP3    H240643   0.101   3.795  16.897
 6410TIP3   OH240644   3.739   2.309  16.076
 6410TIP3    H140645   3.760   2.216  16.062
 6410TIP3    H240646   3.717   2.314  16.169
 6411TIP3   OH240647   6.390   5.238   0.372
 6411TIP3    H140648   6.325   5.273   0.311
 6411TIP3    H240649   6.391   5.299   0.445
 6412TIP3   OH240650   2.396   6.137   1.175
 6412TIP3    H140651   2.430   6.221   1.206
 6412TIP3    H240652   2.302   6.141   1.193
 6413TIP3   OH240653   6.585   3.989  16.342
 6413TIP3    H140654   6.563   3.896  16.341
 6413TIP3    H240655   6.534   4.026  16.415
 6414TIP3   OH240656   3.084   6.355  17.221
 6414TIP3    H140657   3.120   6.356  17.309
 6414TIP3    H240658   3.119   6.434  17.180
 6415TIP3   OH240659   2.421   4.142  14.271
 6415TIP3    H140660   2.482   4.074  14.241
 6415TIP3    H240661   2.363   4.156  14.197
 6416TIP3   OH240662   0.289   4.719   5.953
 6416TIP3    H140663   0.345   4.665   6.009
 6416TIP3    H240664   0.325   4.808   5.961
 6417TIP3   OH240665   2.435   6.661  11.907
 6417TIP3    H140666   2.399   6.732  11.959
 6417TIP3    H240667   2.513   6.699  11.865
 6418TIP3   OH240668   6.006   2.802   0.106
 6418TIP3    H140669   6.078   2.849   0.063
 6418TIP3    H240670   5.937   2.798   0.040
 6419TIP3   OH240671   3.280   1.809   1.208
 6419TIP3    H140672   3.217   1.866   1.253
 6419TIP3    H240673   3.296   1.853   1.124
 6420TIP3   OH240674   5.754   6.474   3.870
 6420TIP3    H140675   5.792   6.451   3.955
 6420TIP3    H240676   5.677   6.418   3.863
 6421TIP3   OH240677   1.223   5.805   1.401
 6421TIP3    H140678   1.227   5.876   1.337
 6421TIP3    H240679   1.146   5.825   1.454
 6422TIP3   OH240680   2.452   3.834   0.250
 6422TIP3    H140681   2.384   3.810   0.312
 6422TIP3    H240682   2.521   3.769   0.264
 6423TIP3   OH240683   5.933   0.427   2.234
 6423TIP3    H140684   5.924   0.501   2.292
 6423TIP3    H240685   5.876   0.359   2.271
 6424TIP3   OH240686   5.991   0.958  11.291
 6424TIP3    H140687   5.963   0.880  11.244
 6424TIP3    H240688   5.913   0.989  11.337
 6425TIP3   OH240689   2.161   4.087   5.937
 6425TIP3    H140690   2.101   4.092   6.012
 6425TIP3    H240691   2.208   4.170   5.937
 6426TIP3   OH240692   0.055   1.314  13.157
 6426TIP3    H140693   0.124   1.293  13.095
 6426TIP3    H240694   0.102   1.346  13.234
 6427TIP3   OH240695   4.204   4.205  10.980
 6427TIP3    H140696   4.161   4.269  11.036
 6427TIP3    H240697   4.134   4.170  10.925
 6428TIP3   OH240698   5.513   5.926  10.814
 6428TIP3    H140699   5.595   5.927  10.766
 6428TIP3    H240700   5.459   5.992  10.771
 6429TIP3   OH240701   4.129   1.704  16.089
 6429TIP3    H140702   4.132   1.680  15.997
 6429TIP3    H240703   4.113   1.622  16.135
 6430TIP3   OH240704   3.930   2.747  12.359
 6430TIP3    H140705   3.883   2.811  12.305
 6430TIP3    H240706   4.011   2.730  12.313
 6431TIP3   OH240707   3.703   3.900  16.477
 6431TIP3    H140708   3.656   3.886  16.559
 6431TIP3    H240709   3.680   3.824  16.423
 6432TIP3   OH240710   2.085   6.430   2.336
 6432TIP3    H140711   2.081   6.454   2.428
 6432TIP3    H240712   2.033   6.497   2.291
 6433TIP3   OH240713   0.691   6.307   5.898
 6433TIP3    H140714   0.610   6.258   5.915
 6433TIP3    H240715   0.745   6.292   5.975
 6434TIP3   OH240716   1.338   4.151   0.200
 6434TIP3    H140717   1.277   4.112   0.136
 6434TIP3    H240718   1.343   4.085   0.270
 6435TIP3   OH240719   0.935   6.344   2.262
 6435TIP3    H140720   0.843   6.370   2.270
 6435TIP3    H240721   0.976   6.416   2.214
 6436TIP3   OH240722   5.418   1.787  13.410
 6436TIP3    H140723   5.491   1.780  13.471
 6436TIP3    H240724   5.365   1.710  13.427
 6437TIP3   OH240725   4.246   0.300   2.080
 6437TIP3    H140726   4.172   0.271   2.026
 6437TIP3    H240727   4.260   0.391   2.054
 6438TIP3   OH240728   3.833   6.729  14.948
 6438TIP3    H140729   3.778   6.728  14.870
 6438TIP3    H240730   3.772   6.729  15.021
 6439TIP3   OH240731   3.482   3.634  15.297
 6439TIP3    H140732   3.497   3.683  15.378
 6439TIP3    H240733   3.477   3.542  15.326
 6440TIP3   OH240734   2.704   4.735  11.706
 6440TIP3    H140735   2.679   4.748  11.798
 6440TIP3    H240736   2.784   4.684  11.711
 6441TIP3   OH240737   4.147   1.272  17.193
 6441TIP3    H140738   4.186   1.327  17.125
 6441TIP3    H240739   4.187   1.302  17.275
 6442TIP3   OH240740   2.395   3.750   4.147
 6442TIP3    H140741   2.440   3.666   4.142
 6442TIP3    H240742   2.347   3.757   4.065
 6443TIP3   OH240743   6.247   6.689  12.859
 6443TIP3    H140744   6.266   6.597  12.842
 6443TIP3    H240745   6.202   6.689  12.943
 6444TIP3   OH240746   6.195   6.459  16.796
 6444TIP3    H140747   6.101   6.454  16.778
 6444TIP3    H240748   6.236   6.427  16.715
 6445TIP3   OH240749   3.836   2.681   3.339
 6445TIP3    H140750   3.802   2.603   3.297
 6445TIP3    H240751   3.823   2.751   3.275
 6446TIP3   OH240752   0.853   4.353   6.325
 6446TIP3    H140753   0.771   4.334   6.370
 6446TIP3    H240754   0.910   4.279   6.346
 6447TIP3   OH240755   0.436   3.321  13.444
 6447TIP3    H140756   0.461   3.259  13.512
 6447TIP3    H240757   0.504   3.388  13.446
 6448TIP3   OH240758   4.004   2.108  11.396
 6448TIP3    H140759   4.025   2.121  11.304
 6448TIP3    H240760   4.084   2.072  11.434
 6449TIP3   OH240761   6.138   5.773   4.486
 6449TIP3    H140762   6.231   5.792   4.500
 6449TIP3    H240763   6.108   5.842   4.427
 6450TIP3   OH240764   3.970   6.735  10.612
 6450TIP3    H140765   3.938   6.767  10.527
 6450TIP3    H240766   3.896   6.745  10.671
 6451TIP3   OH240767   5.390   1.970   4.283
 6451TIP3    H140768   5.409   2.032   4.354
 6451TIP3    H240769   5.333   1.905   4.323
 6452TIP3   OH240770   3.748   4.067   2.608
 6452TIP3    H140771   3.713   3.990   2.652
 6452TIP3    H240772   3.833   4.082   2.650
 6453TIP3   OH240773   1.719   1.805   5.610
 6453TIP3    H140774   1.707   1.823   5.703
 6453TIP3    H240775   1.810   1.776   5.602
 6454TIP3   OH240776   0.819   4.488   4.350
 6454TIP3    H140777   0.896   4.543   4.338
 6454TIP3    H240778   0.758   4.516   4.282
 6455TIP3   OH240779   3.327   5.707   2.472
 6455TIP3    H140780   3.418   5.685   2.452
 6455TIP3    H240781   3.284   5.623   2.486
 6456TIP3   OH240782   0.572   4.954   6.221
 6456TIP3    H140783   0.521   4.916   6.293
 6456TIP3    H240784   0.514   4.949   6.145
 6457TIP3   OH240785   1.175   0.928  16.758
 6457TIP3    H140786   1.180   0.836  16.783
 6457TIP3    H240787   1.192   0.975  16.840
 6458TIP3   OH240788   3.329   6.312   2.137
 6458TIP3    H140789   3.414   6.282   2.105
 6458TIP3    H240790   3.273   6.313   2.060
 6459TIP3   OH240791   6.478   0.479   1.873
 6459TIP3    H140792   6.485   0.477   1.777
 6459TIP3    H240793   6.566   0.504   1.903
 6460TIP3   OH240794   6.148   4.116  12.161
 6460TIP3    H140795   6.213   4.046  12.171
 6460TIP3    H240796   6.190   4.193  12.198
 6461TIP3   OH240797   0.623   1.214  12.779
 6461TIP3    H140798   0.576   1.157  12.717
 6461TIP3    H240799   0.676   1.155  12.831
 6462TIP3   OH240800   5.838   3.079   5.962
 6462TIP3    H140801   5.845   3.153   6.023
 6462TIP3    H240802   5.744   3.064   5.953
 6463TIP3   OH240803   1.077   2.770  15.309
 6463TIP3    H140804   1.167   2.790  15.332
 6463TIP3    H240805   1.027   2.846  15.338
 6464TIP3   OH240806   6.733   6.626  13.993
 6464TIP3    H140807   6.667   6.647  13.927
 6464TIP3    H240808   6.729   6.531  14.001
 6465TIP3   OH240809   3.627   2.291  13.237
 6465TIP3    H140810   3.532   2.304  13.244
 6465TIP3    H240811   3.640   2.198  13.256
 6466TIP3   OH240812   4.209   2.768   3.014
 6466TIP3    H140813   4.191   2.841   3.073
 6466TIP3    H240814   4.234   2.696   3.073
 6467TIP3   OH240815   5.526   5.016  16.441
 6467TIP3    H140816   5.601   5.059  16.401
 6467TIP3    H240817   5.507   4.943  16.381
 6468TIP3   OH240818   5.453   4.509  12.356
 6468TIP3    H140819   5.393   4.576  12.387
 6468TIP3    H240820   5.432   4.498  12.264
 6469TIP3   OH240821   5.706   3.980  15.189
 6469TIP3    H140822   5.683   3.927  15.112
 6469TIP3    H240823   5.648   4.056  15.183
 6470TIP3   OH240824   0.781   2.382  17.060
 6470TIP3    H140825   0.728   2.353  16.987
 6470TIP3    H240826   0.870   2.354  17.038
 6471TIP3   OH240827   5.789   4.971   5.742
 6471TIP3    H140828   5.764   4.960   5.834
 6471TIP3    H240829   5.850   4.900   5.725
 6472TIP3   OH240830   2.411   0.320   3.676
 6472TIP3    H140831   2.318   0.316   3.700
 6472TIP3    H240832   2.413   0.301   3.582
 6473TIP3   OH240833   5.904   4.558   1.913
 6473TIP3    H140834   5.872   4.622   1.977
 6473TIP3    H240835   5.827   4.538   1.859
 6474TIP3   OH240836   0.719   5.710   1.948
 6474TIP3    H140837   0.704   5.772   2.019
 6474TIP3    H240838   0.796   5.661   1.975
 6475TIP3   OH240839   3.474   4.858  11.675
 6475TIP3    H140840   3.416   4.910  11.731
 6475TIP3    H240841   3.562   4.889  11.695
 6476TIP3   OH240842   1.542   0.325   4.030
 6476TIP3    H140843   1.637   0.330   4.014
 6476TIP3    H240844   1.504   0.379   3.961
 6477TIP3   OH240845   6.013   1.619  16.740
 6477TIP3    H140846   6.016   1.611  16.835
 6477TIP3    H240847   5.949   1.688  16.724
 6478TIP3   OH240848   2.890   3.135   2.995
 6478TIP3    H140849   2.837   3.068   3.038
 6478TIP3    H240850   2.833   3.170   2.926
 6479TIP3   OH240851   1.375   0.532  13.264
 6479TIP3    H140852   1.414   0.450  13.294
 6479TIP3    H240853   1.409   0.544  13.175
 6480TIP3   OH240854   3.615   0.495  14.023
 6480TIP3    H140855   3.562   0.563  13.982
 6480TIP3    H240856   3.583   0.492  14.114
 6481TIP3   OH240857   6.131   6.330   4.660
 6481TIP3    H140858   6.152   6.251   4.610
 6481TIP3    H240859   6.208   6.345   4.715
 6482TIP3   OH240860   0.587   3.346   2.224
 6482TIP3    H140861   0.679   3.358   2.201
 6482TIP3    H240862   0.563   3.263   2.182
 6483TIP3   OH240863   3.388   6.107   0.518
 6483TIP3    H140864   3.454   6.044   0.547
 6483TIP3    H240865   3.397   6.109   0.422
 6484TIP3   OH240866   4.040   3.653   6.239
 6484TIP3    H140867   3.967   3.598   6.268
 6484TIP3    H240868   4.098   3.659   6.315
 6485TIP3   OH240869   0.451   6.272   5.517
 6485TIP3    H140870   0.462   6.235   5.429
 6485TIP3    H240871   0.536   6.258   5.559
 6486TIP3   OH240872   6.267   4.925  14.625
 6486TIP3    H140873   6.270   5.008  14.577
 6486TIP3    H240874   6.349   4.881  14.601
 6487TIP3   OH240875   5.949   1.333  12.652
 6487TIP3    H140876   5.990   1.383  12.581
 6487TIP3    H240877   5.889   1.394  12.694
 6488TIP3   OH240878   4.016   0.773  14.663
 6488TIP3    H140879   4.070   0.705  14.704
 6488TIP3    H240880   3.927   0.753  14.692
 6489TIP3   OH240881   0.937   5.607   1.398
 6489TIP3    H140882   0.843   5.611   1.415
 6489TIP3    H240883   0.952   5.672   1.330
 6490TIP3   OH240884   3.644   3.190   5.286
 6490TIP3    H140885   3.678   3.246   5.355
 6490TIP3    H240886   3.653   3.241   5.206
 6491TIP3   OH240887   6.325   0.320  13.882
 6491TIP3    H140888   6.324   0.349  13.973
 6491TIP3    H240889   6.366   0.234  13.884
 6492TIP3   OH240890   1.105   3.018   2.937
 6492TIP3    H140891   1.029   2.980   2.893
 6492TIP3    H240892   1.100   2.985   3.026
 6493TIP3   OH240893   3.209   2.293   1.367
 6493TIP3    H140894   3.216   2.332   1.280
 6493TIP3    H240895   3.281   2.230   1.371
 6494TIP3   OH240896   4.016   1.245  14.501
 6494TIP3    H140897   4.037   1.175  14.562
 6494TIP3    H240898   4.087   1.244  14.438
 6495TIP3   OH240899   2.542   2.313   4.325
 6495TIP3    H140900   2.617   2.256   4.308
 6495TIP3    H240901   2.486   2.303   4.248
 6496TIP3   OH240902   0.441   5.989   6.173
 6496TIP3    H140903   0.451   6.073   6.128
 6496TIP3    H240904   0.522   5.942   6.152
 6497TIP3   OH240905   5.042   0.477  16.150
 6497TIP3    H140906   5.063   0.384  16.161
 6497TIP3    H240907   5.018   0.506  16.238
 6498TIP3   OH240908   0.169   6.074  11.855
 6498TIP3    H140909   0.087   6.096  11.810
 6498TIP3    H240910   0.159   6.109  11.943
 6499TIP3   OH240911   4.266   4.264   0.577
 6499TIP3    H140912   4.335   4.291   0.638
 6499TIP3    H240913   4.267   4.330   0.508
 6500TIP3   OH240914   1.686   2.192  11.871
 6500TIP3    H140915   1.678   2.178  11.965
 6500TIP3    H240916   1.652   2.280  11.857
 6501TIP3   OH240917   3.969   5.610   2.754
 6501TIP3    H140918   3.915   5.687   2.775
 6501TIP3    H240919   4.049   5.624   2.805
 6502TIP3   OH240920   3.435   2.583  16.559
 6502TIP3    H140921   3.393   2.623  16.636
 6502TIP3    H240922   3.486   2.511  16.595
 6503TIP3   OH240923   1.122   4.182  12.387
 6503TIP3    H140924   1.143   4.272  12.361
 6503TIP3    H240925   1.083   4.191  12.474
 6504TIP3   OH240926   5.232   3.606  15.348
 6504TIP3    H140927   5.252   3.517  15.319
 6504TIP3    H240928   5.247   3.605  15.443
 6505TIP3   OH240929   3.874   0.127   0.610
 6505TIP3    H140930   3.787   0.100   0.580
 6505TIP3    H240931   3.919   0.155   0.530
 6506TIP3   OH240932   3.462   4.810   1.957
 6506TIP3    H140933   3.407   4.813   1.879
 6506TIP3    H240934   3.494   4.899   1.968
 6507TIP3   OH240935   2.570   3.133  13.537
 6507TIP3    H140936   2.480   3.165  13.537
 6507TIP3    H240937   2.561   3.038  13.549
 6508TIP3   OH240938   1.237   4.256  16.651
 6508TIP3    H140939   1.238   4.160  16.645
 6508TIP3    H240940   1.144   4.280  16.647
 6509TIP3   OH240941   4.048   2.449   0.811
 6509TIP3    H140942   4.038   2.410   0.724
 6509TIP3    H240943   3.968   2.501   0.824
 6510TIP3   OH240944   4.673   4.544  16.888
 6510TIP3    H140945   4.751   4.505  16.849
 6510TIP3    H240946   4.694   4.551  16.981
 6511TIP3   OH240947   1.721   4.537   2.845
 6511TIP3    H140948   1.717   4.488   2.763
 6511TIP3    H240949   1.661   4.611   2.832
 6512TIP3   OH240950   1.564   0.317   0.493
 6512TIP3    H140951   1.486   0.328   0.548
 6512TIP3    H240952   1.596   0.405   0.477
 6513TIP3   OH240953   1.112   2.328  13.809
 6513TIP3    H140954   1.158   2.277  13.744
 6513TIP3    H240955   1.181   2.370  13.861
 6514TIP3   OH240956   5.268   3.935  12.254
 6514TIP3    H140957   5.290   3.866  12.191
 6514TIP3    H240958   5.339   3.933  12.318
 6515TIP3   OH240959   4.371   1.075   1.286
 6515TIP3    H140960   4.428   0.999   1.270
 6515TIP3    H240961   4.289   1.053   1.242
 6516TIP3   OH240962   2.246   1.851   5.398
 6516TIP3    H140963   2.322   1.872   5.345
 6516TIP3    H240964   2.221   1.934   5.439
 6517TIP3   OH240965   1.031   5.290   5.343
 6517TIP3    H140966   1.112   5.334   5.367
 6517TIP3    H240967   1.057   5.201   5.320
 6518TIP3   OH240968   2.654   5.173  17.093
 6518TIP3    H140969   2.588   5.142  17.155
 6518TIP3    H240970   2.691   5.094  17.055
 6519TIP3   OH240971   2.104   1.103   2.718
 6519TIP3    H140972   2.123   1.037   2.651
 6519TIP3    H240973   2.174   1.092   2.782
 6520TIP3   OH240974   4.341   4.778  12.472
 6520TIP3    H140975   4.364   4.867  12.497
 6520TIP3    H240976   4.280   4.749  12.540
 6521TIP3   OH240977   4.642   6.118  16.247
 6521TIP3    H140978   4.638   6.128  16.343
 6521TIP3    H240979   4.707   6.048  16.233
 6522TIP3   OH240980   2.412   0.895  12.575
 6522TIP3    H140981   2.478   0.836  12.539
 6522TIP3    H240982   2.462   0.971  12.607
 6523TIP3   OH240983   4.120   2.676   1.278
 6523TIP3    H140984   4.170   2.752   1.247
 6523TIP3    H240985   4.155   2.658   1.365
 6524TIP3   OH240986   1.614   1.183   4.425
 6524TIP3    H140987   1.705   1.190   4.456
 6524TIP3    H240988   1.618   1.122   4.352
 6525TIP3   OH240989   4.070   4.920  12.745
 6525TIP3    H140990   4.122   4.843  12.722
 6525TIP3    H240991   4.090   4.936  12.837
 6526TIP3   OH240992   0.520   5.682   4.352
 6526TIP3    H140993   0.456   5.623   4.311
 6526TIP3    H240994   0.503   5.767   4.311
 6527TIP3   OH240995   5.604   6.090  17.028
 6527TIP3    H140996   5.523   6.040  17.042
 6527TIP3    H240997   5.648   6.044  16.956
 6528TIP3   OH240998   1.172   3.406  16.393
 6528TIP3    H140999   1.077   3.399  16.405
 6528TIP3    H241000   1.207   3.410  16.482
 6529TIP3   OH241001   3.008   0.733  15.660
 6529TIP3    H141002   3.038   0.763  15.574
 6529TIP3    H241003   3.053   0.790  15.722
 6530TIP3   OH241004   2.647   6.472   2.573
 6530TIP3    H141005   2.718   6.528   2.541
 6530TIP3    H241006   2.676   6.445   2.660
 6531TIP3   OH241007   5.908   4.213   4.665
 6531TIP3    H141008   5.972   4.263   4.717
 6531TIP3    H241009   5.835   4.199   4.725
 6532TIP3   OH241010   3.464   0.948  16.249
 6532TIP3    H141011   3.468   0.911  16.161
 6532TIP3    H241012   3.440   0.874  16.306
 6533TIP3   OH241013   4.463   4.365  15.144
 6533TIP3    H141014   4.383   4.368  15.195
 6533TIP3    H241015   4.517   4.435  15.179
 6534TIP3   OH241016   5.555   3.941  12.753
 6534TIP3    H141017   5.627   3.951  12.691
 6534TIP3    H241018   5.594   3.961  12.838
 6535TIP3   OH241019   3.376   6.596  13.571
 6535TIP3    H141020   3.415   6.550  13.496
 6535TIP3    H241021   3.295   6.548  13.588
 6536TIP3   OH241022   3.927   2.652   6.020
 6536TIP3    H141023   3.868   2.593   6.067
 6536TIP3    H241024   4.003   2.661   6.077
 6537TIP3   OH241025   0.404   2.497   0.808
 6537TIP3    H141026   0.486   2.466   0.848
 6537TIP3    H241027   0.390   2.584   0.845
 6538TIP3   OH241028   3.893   2.675  16.603
 6538TIP3    H141029   3.838   2.598  16.619
 6538TIP3    H241030   3.949   2.650  16.529
 6539TIP3   OH241031   4.383   5.040  12.891
 6539TIP3    H141032   4.293   5.018  12.915
 6539TIP3    H241033   4.404   5.116  12.945
 6540TIP3   OH241034   2.679   0.712  11.538
 6540TIP3    H141035   2.587   0.732  11.556
 6540TIP3    H241036   2.681   0.691  11.444
 6541TIP3   OH241037   4.797   5.217   6.532
 6541TIP3    H141038   4.799   5.247   6.441
 6541TIP3    H241039   4.741   5.281   6.576
 6542TIP3   OH241040   4.274   2.843  15.717
 6542TIP3    H141041   4.190   2.887  15.727
 6542TIP3    H241042   4.275   2.814  15.626
 6543TIP3   OH241043   4.080   4.788  13.896
 6543TIP3    H141044   4.148   4.829  13.951
 6543TIP3    H241045   4.092   4.694  13.911
 6544TIP3   OH241046   2.767   5.766  10.750
 6544TIP3    H141047   2.684   5.722  10.735
 6544TIP3    H241048   2.819   5.746  10.672
 6545TIP3   OH241049   1.921   6.156  16.984
 6545TIP3    H141050   1.979   6.131  17.056
 6545TIP3    H241051   1.916   6.077  16.930
 6546TIP3   OH241052   5.566   2.543   1.726
 6546TIP3    H141053   5.559   2.457   1.767
 6546TIP3    H241054   5.479   2.559   1.689
 6547TIP3   OH241055   2.967   4.308   0.832
 6547TIP3    H141056   2.937   4.227   0.873
 6547TIP3    H241057   3.060   4.293   0.815
 6548TIP3   OH241058   2.136   3.471   5.261
 6548TIP3    H141059   2.146   3.527   5.338
 6548TIP3    H241060   2.140   3.532   5.187
 6549TIP3   OH241061   2.260   0.140  13.111
 6549TIP3    H141062   2.329   0.110  13.052
 6549TIP3    H241063   2.185   0.084  13.091
 6550TIP3   OH241064   3.884   3.453  15.863
 6550TIP3    H141065   3.878   3.446  15.959
 6550TIP3    H241066   3.945   3.525  15.848
 6551TIP3   OH241067   2.156   1.653   3.274
 6551TIP3    H141068   2.239   1.607   3.263
 6551TIP3    H241069   2.179   1.745   3.274
 6552TIP3   OH241070   2.908   2.756   2.157
 6552TIP3    H141071   2.954   2.839   2.150
 6552TIP3    H241072   2.897   2.743   2.252
 6553TIP3   OH241073   0.456   4.658  13.260
 6553TIP3    H141074   0.364   4.631  13.271
 6553TIP3    H241075   0.477   4.633  13.170
 6554TIP3   OH241076   5.583   2.423   1.460
 6554TIP3    H141077   5.546   2.505   1.492
 6554TIP3    H241078   5.517   2.357   1.482
 6555TIP3   OH241079   4.077   2.238   4.326
 6555TIP3    H141080   4.051   2.275   4.241
 6555TIP3    H241081   4.012   2.170   4.344
 6556TIP3   OH241082   6.376   4.647   0.827
 6556TIP3    H141083   6.304   4.585   0.841
 6556TIP3    H241084   6.333   4.732   0.820
 6557TIP3   OH241085   4.774   5.454  10.318
 6557TIP3    H141086   4.854   5.503  10.298
 6557TIP3    H241087   4.768   5.388  10.248
 6558TIP3   OH241088   6.597   4.363  14.091
 6558TIP3    H141089   6.573   4.381  14.182
 6558TIP3    H241090   6.520   4.321  14.053
 6559TIP3   OH241091   5.258   4.022  14.031
 6559TIP3    H141092   5.228   4.062  13.949
 6559TIP3    H241093   5.221   4.078  14.099
 6560TIP3   OH241094   1.761   5.820   1.906
 6560TIP3    H141095   1.688   5.759   1.893
 6560TIP3    H241096   1.738   5.867   1.986
 6561TIP3   OH241097   1.532   5.627   0.223
 6561TIP3    H141098   1.594   5.565   0.262
 6561TIP3    H241099   1.585   5.706   0.207
 6562TIP3   OH241100   2.243   4.597  12.926
 6562TIP3    H141101   2.243   4.608  12.831
 6562TIP3    H241102   2.191   4.670  12.959
 6563TIP3   OH241103   4.756   3.362  17.120
 6563TIP3    H141104   4.756   3.357  17.216
 6563TIP3    H241105   4.798   3.446  17.101
 6564TIP3   OH241106   5.283   0.623   4.493
 6564TIP3    H141107   5.355   0.686   4.507
 6564TIP3    H241108   5.204   0.677   4.489
 6565TIP3   OH241109   2.766   1.697   1.724
 6565TIP3    H141110   2.857   1.722   1.738
 6565TIP3    H241111   2.771   1.622   1.664
 6566TIP3   OH241112   5.272   1.161   2.036
 6566TIP3    H141113   5.308   1.097   2.097
 6566TIP3    H241114   5.269   1.243   2.086
 6567TIP3   OH241115   3.547   2.892  11.655
 6567TIP3    H141116   3.623   2.844  11.688
 6567TIP3    H241117   3.567   2.910  11.564
 6568TIP3   OH241118   2.827   2.173  11.243
 6568TIP3    H141119   2.781   2.227  11.307
 6568TIP3    H241120   2.810   2.215  11.159
 6569TIP3   OH241121   5.661   2.135  13.832
 6569TIP3    H141122   5.633   2.085  13.909
 6569TIP3    H241123   5.657   2.072  13.760
 6570TIP3   OH241124   2.571   4.805   0.342
 6570TIP3    H141125   2.662   4.819   0.369
 6570TIP3    H241126   2.527   4.887   0.364
 6571TIP3   OH241127   1.123   2.378  13.426
 6571TIP3    H141128   1.128   2.297  13.478
 6571TIP3    H241129   1.049   2.426  13.463
 6572TIP3   OH241130   5.321   1.123  11.883
 6572TIP3    H141131   5.247   1.067  11.905
 6572TIP3    H241132   5.348   1.093  11.796
 6573TIP3   OH241133   0.085   1.147  16.218
 6573TIP3    H141134   0.062   1.211  16.286
 6573TIP3    H241135   0.175   1.122  16.237
 6574TIP3   OH241136   4.746   4.825   0.855
 6574TIP3    H141137   4.828   4.864   0.826
 6574TIP3    H241138   4.767   4.732   0.868
 6575TIP3   OH241139   6.752   6.625  11.511
 6575TIP3    H141140   6.707   6.565  11.451
 6575TIP3    H241141   6.812   6.674  11.455
 6576TIP3   OH241142   0.213   6.268   1.797
 6576TIP3    H141143   0.170   6.221   1.727
 6576TIP3    H241144   0.269   6.332   1.753
 6577TIP3   OH241145   6.129   1.125  11.900
 6577TIP3    H141146   6.102   1.122  11.808
 6577TIP3    H241147   6.165   1.038  11.917
 6578TIP3   OH241148   4.126   1.963  12.756
 6578TIP3    H141149   4.063   1.911  12.705
 6578TIP3    H241150   4.211   1.936  12.722
 6579TIP3   OH241151   3.054   3.400  13.648
 6579TIP3    H141152   3.009   3.478  13.616
 6579TIP3    H241153   3.128   3.389  13.589
 6580TIP3   OH241154   2.232   6.357  11.479
 6580TIP3    H141155   2.201   6.432  11.429
 6580TIP3    H241156   2.294   6.394  11.543
 6581TIP3   OH241157   4.839   0.353  11.110
 6581TIP3    H141158   4.794   0.270  11.093
 6581TIP3    H241159   4.820   0.407  11.034
 6582TIP3   OH241160   1.024   4.610  14.310
 6582TIP3    H141161   1.104   4.573  14.348
 6582TIP3    H241162   1.006   4.554  14.234
 6583TIP3   OH241163   4.128   1.441   5.120
 6583TIP3    H141164   4.080   1.522   5.136
 6583TIP3    H241165   4.196   1.440   5.188
 6584TIP3   OH241166   3.572   1.944   6.103
 6584TIP3    H141167   3.621   2.008   6.155
 6584TIP3    H241168   3.627   1.930   6.026
 6585TIP3   OH241169   4.828   4.469   1.382
 6585TIP3    H141170   4.868   4.540   1.333
 6585TIP3    H241171   4.876   4.391   1.355
 6586TIP3   OH241172   6.091   5.050  14.262
 6586TIP3    H141173   6.128   5.090  14.341
 6586TIP3    H241174   5.997   5.068  14.268
 6587TIP3   OH241175   2.088   4.078  14.262
 6587TIP3    H141176   2.159   4.122  14.216
 6587TIP3    H241177   2.130   4.037  14.337
 6588TIP3   OH241178   5.469   4.369  14.862
 6588TIP3    H141179   5.467   4.285  14.815
 6588TIP3    H241180   5.407   4.424  14.815
 6589TIP3   OH241181   2.548   6.237  11.555
 6589TIP3    H141182   2.568   6.207  11.467
 6589TIP3    H241183   2.535   6.332  11.546
 6590TIP3   OH241184   6.350   6.445  12.800
 6590TIP3    H141185   6.380   6.414  12.885
 6590TIP3    H241186   6.272   6.393  12.781
 6591TIP3   OH241187   2.469   6.484   4.198
 6591TIP3    H141188   2.478   6.524   4.285
 6591TIP3    H241189   2.488   6.392   4.212
 6592TIP3   OH241190   4.153   4.669  16.670
 6592TIP3    H141191   4.114   4.615  16.601
 6592TIP3    H241192   4.178   4.750  16.626
 6593TIP3   OH241193   6.599   0.180   4.182
 6593TIP3    H141194   6.582   0.115   4.251
 6593TIP3    H241195   6.525   0.170   4.122
 6594TIP3   OH241196   0.599   2.611   3.833
 6594TIP3    H141197   0.555   2.690   3.802
 6594TIP3    H241198   0.636   2.571   3.755
 6595TIP3   OH241199   4.437   1.314  13.403
 6595TIP3    H141200   4.472   1.265  13.328
 6595TIP3    H241201   4.421   1.248  13.470
 6596TIP3   OH241202   3.290   6.070  16.045
 6596TIP3    H141203   3.244   6.123  15.980
 6596TIP3    H241204   3.309   5.987  16.001
 6597TIP3   OH241205   6.229   4.590   2.730
 6597TIP3    H141206   6.226   4.677   2.690
 6597TIP3    H241207   6.138   4.572   2.756
 6598TIP3   OH241208   0.522   6.744   2.714
 6598TIP3    H141209   0.504   6.650   2.716
 6598TIP3    H241210   0.438   6.785   2.734
 6599TIP3   OH241211   5.172   6.697  14.839
 6599TIP3    H141212   5.205   6.720  14.752
 6599TIP3    H241213   5.136   6.609  14.829
 6600TIP3   OH241214   0.302   0.889   1.089
 6600TIP3    H141215   0.352   0.822   1.043
 6600TIP3    H241216   0.338   0.972   1.058
 6601TIP3   OH241217   5.650   1.242  11.230
 6601TIP3    H141218   5.610   1.311  11.179
 6601TIP3    H241219   5.712   1.200  11.170
 6602TIP3   OH241220   1.884   5.838   3.120
 6602TIP3    H141221   1.893   5.748   3.088
 6602TIP3    H241222   1.790   5.854   3.120
 6603TIP3   OH241223   2.301   0.541  14.458
 6603TIP3    H141224   2.342   0.627  14.451
 6603TIP3    H241225   2.310   0.503  14.370
 6604TIP3   OH241226   1.492   5.362  14.690
 6604TIP3    H141227   1.413   5.319  14.657
 6604TIP3    H241228   1.519   5.420  14.618
 6605TIP3   OH241229   3.065   5.750   6.455
 6605TIP3    H141230   2.995   5.693   6.424
 6605TIP3    H241231   3.140   5.728   6.399
 6606TIP3   OH241232   2.609   5.422   5.991
 6606TIP3    H141233   2.696   5.462   6.002
 6606TIP3    H241234   2.626   5.328   5.990
 6607TIP3   OH241235   2.556   4.396  13.417
 6607TIP3    H141236   2.645   4.362  13.409
 6607TIP3    H241237   2.524   4.362  13.500
 6608TIP3   OH241238   3.029   3.649   3.975
 6608TIP3    H141239   3.002   3.575   4.030
 6608TIP3    H241240   2.979   3.723   4.009
 6609TIP3   OH241241   0.215   0.815   4.544
 6609TIP3    H141242   0.292   0.773   4.582
 6609TIP3    H241243   0.156   0.744   4.521
 6610TIP3   OH241244   4.165   3.452   2.572
 6610TIP3    H141245   4.240   3.504   2.599
 6610TIP3    H241246   4.189   3.362   2.594
 6611TIP3   OH241247   6.022   0.868  10.998
 6611TIP3    H141248   5.990   0.778  11.006
 6611TIP3    H241249   6.112   0.864  11.032
 6612TIP3   OH241250   0.907   1.502   3.755
 6612TIP3    H141251   0.992   1.465   3.731
 6612TIP3    H241252   0.867   1.527   3.672
 6613TIP3   OH241253   3.881   0.081  11.810
 6613TIP3    H141254   3.945   0.011  11.798
 6613TIP3    H241255   3.931   0.155  11.843
 6614TIP3   OH241256   5.755   0.992  11.471
 6614TIP3    H141257   5.679   1.049  11.479
 6614TIP3    H241258   5.793   0.989  11.558
 6615TIP3   OH241259   5.180   3.750   6.485
 6615TIP3    H141260   5.159   3.657   6.490
 6615TIP3    H241261   5.115   3.792   6.542
 6616TIP3   OH241262   5.467   5.177   2.542
 6616TIP3    H141263   5.434   5.088   2.547
 6616TIP3    H241264   5.430   5.212   2.461
 6617TIP3   OH241265   5.432   1.238  14.679
 6617TIP3    H141266   5.337   1.235  14.685
 6617TIP3    H241267   5.461   1.148  14.693
 6618TIP3   OH241268   1.811   2.904  15.745
 6618TIP3    H141269   1.891   2.916  15.695
 6618TIP3    H241270   1.801   2.985  15.795
 6619TIP3   OH241271   3.686   4.184   5.932
 6619TIP3    H141272   3.676   4.180   6.028
 6619TIP3    H241273   3.749   4.254   5.918
 6620TIP3   OH241274   2.560   2.587  11.541
 6620TIP3    H141275   2.506   2.577  11.620
 6620TIP3    H241276   2.504   2.636  11.480
 6621TIP3   OH241277   6.049   0.936  12.364
 6621TIP3    H141278   6.007   0.988  12.295
 6621TIP3    H241279   5.991   0.944  12.439
 6622TIP3   OH241280   4.236   3.400  15.188
 6622TIP3    H141281   4.259   3.448  15.109
 6622TIP3    H241282   4.145   3.424  15.206
 6623TIP3   OH241283   4.566   0.541   4.412
 6623TIP3    H141284   4.538   0.592   4.488
 6623TIP3    H241285   4.486   0.497   4.382
 6624TIP3   OH241286   3.867   3.549   4.570
 6624TIP3    H141287   3.882   3.643   4.553
 6624TIP3    H241288   3.876   3.540   4.665
 6625TIP3   OH241289   6.589   2.054   2.233
 6625TIP3    H141290   6.496   2.060   2.255
 6625TIP3    H241291   6.604   2.122   2.168
 6626TIP3   OH241292   1.142   0.458  12.557
 6626TIP3    H141293   1.196   0.464  12.478
 6626TIP3    H241294   1.052   0.456  12.524
 6627TIP3   OH241295   1.448   2.269  16.158
 6627TIP3    H141296   1.527   2.324  16.162
 6627TIP3    H241297   1.414   2.270  16.248
 6628TIP3   OH241298   3.740   3.266  11.861
 6628TIP3    H141299   3.678   3.197  11.839
 6628TIP3    H241300   3.811   3.255  11.799
 6629TIP3   OH241301   4.647   2.872   2.036
 6629TIP3    H141302   4.644   2.828   1.951
 6629TIP3    H241303   4.715   2.939   2.025
 6630TIP3   OH241304   4.208   5.111  14.155
 6630TIP3    H141305   4.202   5.017  14.173
 6630TIP3    H241306   4.134   5.128  14.097
 6631TIP3   OH241307   4.138   4.804  16.169
 6631TIP3    H141308   4.224   4.846  16.172
 6631TIP3    H241309   4.118   4.796  16.076
 6632TIP3   OH241310   1.109   3.878  16.163
 6632TIP3    H141311   1.185   3.935  16.176
 6632TIP3    H241312   1.049   3.903  16.234
 6633TIP3   OH241313   4.710   2.830  14.855
 6633TIP3    H141314   4.800   2.840  14.886
 6633TIP3    H241315   4.663   2.906  14.890
 6634TIP3   OH241316   3.668   2.438   5.117
 6634TIP3    H141317   3.761   2.460   5.115
 6634TIP3    H241318   3.658   2.374   5.046
 6635TIP3   OH241319   0.836   1.383   1.178
 6635TIP3    H141320   0.900   1.416   1.241
 6635TIP3    H241321   0.805   1.461   1.133
 6636TIP3   OH241322   3.201   0.531   0.639
 6636TIP3    H141323   3.278   0.544   0.694
 6636TIP3    H241324   3.205   0.601   0.574
 6637TIP3   OH241325   3.890   3.258   0.600
 6637TIP3    H141326   3.809   3.223   0.563
 6637TIP3    H241327   3.881   3.243   0.694
 6638TIP3   OH241328   5.707   0.640  15.797
 6638TIP3    H141329   5.683   0.644  15.890
 6638TIP3    H241330   5.746   0.726  15.779
 6639TIP3   OH241331   4.515   3.570   6.770
 6639TIP3    H141332   4.463   3.503   6.816
 6639TIP3    H241333   4.452   3.613   6.712
 6640TIP3   OH241334   3.068   3.147   0.329
 6640TIP3    H141335   3.064   3.234   0.291
 6640TIP3    H241336   3.123   3.097   0.268
 6641TIP3   OH241337   3.479   6.352  16.190
 6641TIP3    H141338   3.400   6.354  16.243
 6641TIP3    H241339   3.519   6.267  16.210
 6642TIP3   OH241340   0.858   6.725  12.549
 6642TIP3    H141341   0.929   6.784  12.576
 6642TIP3    H241342   0.807   6.776  12.486
 6643TIP3   OH241343   6.588   2.311   2.736
 6643TIP3    H141344   6.662   2.310   2.675
 6643TIP3    H241345   6.625   2.340   2.819
 6644TIP3   OH241346   4.895   1.236   5.693
 6644TIP3    H141347   4.873   1.279   5.775
 6644TIP3    H241348   4.815   1.191   5.667
 6645TIP3   OH241349   1.030   4.071   5.075
 6645TIP3    H141350   1.071   4.058   5.160
 6645TIP3    H241351   1.080   4.015   5.015
 6646TIP3   OH241352   1.570   0.398  12.294
 6646TIP3    H141353   1.521   0.474  12.326
 6646TIP3    H241354   1.625   0.373  12.369
 6647TIP3   OH241355   1.312   6.034   3.897
 6647TIP3    H141356   1.283   6.026   3.988
 6647TIP3    H241357   1.257   5.972   3.849
 6648TIP3   OH241358   0.600   5.316   6.007
 6648TIP3    H141359   0.513   5.285   5.983
 6648TIP3    H241360   0.585   5.402   6.047
 6649TIP3   OH241361   0.467   3.697  14.939
 6649TIP3    H141362   0.493   3.705  15.031
 6649TIP3    H241363   0.377   3.664  14.942
 6650TIP3   OH241364   6.713   2.809  12.318
 6650TIP3    H141365   6.795   2.859  12.317
 6650TIP3    H241366   6.665   2.841  12.242
 6651TIP3   OH241367   6.717   4.816   1.224
 6651TIP3    H141368   6.799   4.819   1.173
 6651TIP3    H241369   6.673   4.899   1.203
 6652TIP3   OH241370   1.555   2.435  14.393
 6652TIP3    H141371   1.503   2.485  14.330
 6652TIP3    H241372   1.584   2.500  14.458
 6653TIP3   OH241373   3.522   6.633  16.209
 6653TIP3    H141374   3.432   6.658  16.231
 6653TIP3    H241375   3.513   6.550  16.162
 6654TIP3   OH241376   4.151   6.221  14.911
 6654TIP3    H141377   4.214   6.202  14.841
 6654TIP3    H241378   4.139   6.316  14.907
 6655TIP3   OH241379   0.392   4.363  10.955
 6655TIP3    H141380   0.381   4.351  10.861
 6655TIP3    H241381   0.339   4.293  10.994
 6656TIP3   OH241382   0.531   2.281   6.078
 6656TIP3    H141383   0.490   2.202   6.114
 6656TIP3    H241384   0.547   2.337   6.154
 6657TIP3   OH241385   0.162   2.213  11.515
 6657TIP3    H141386   0.148   2.160  11.437
 6657TIP3    H241387   0.097   2.179  11.578
 6658TIP3   OH241388   1.773   1.519  14.068
 6658TIP3    H141389   1.722   1.578  14.013
 6658TIP3    H241390   1.803   1.573  14.140
 6659TIP3   OH241391   2.813   5.059  15.155
 6659TIP3    H141392   2.854   5.003  15.221
 6659TIP3    H241393   2.719   5.044  15.166
 6660TIP3   OH241394   2.155   6.204  16.201
 6660TIP3    H141395   2.100   6.255  16.141
 6660TIP3    H241396   2.237   6.191  16.152
 6661TIP3   OH241397   2.404   5.017  14.482
 6661TIP3    H141398   2.369   5.022  14.570
 6661TIP3    H241399   2.490   5.058  14.487
 6662TIP3   OH241400   4.492   2.720   4.665
 6662TIP3    H141401   4.464   2.637   4.626
 6662TIP3    H241402   4.411   2.758   4.700
 6663TIP3   OH241403   3.358   2.617  11.140
 6663TIP3    H141404   3.323   2.645  11.055
 6663TIP3    H241405   3.404   2.535  11.120
 6664TIP3   OH241406   3.467   0.806   4.955
 6664TIP3    H141407   3.479   0.803   4.860
 6664TIP3    H241408   3.554   0.786   4.991
 6665TIP3   OH241409   2.276   3.444  13.906
 6665TIP3    H141410   2.363   3.462  13.869
 6665TIP3    H241411   2.279   3.351  13.927
 6666TIP3   OH241412   0.142   2.047  12.995
 6666TIP3    H141413   0.186   2.019  13.075
 6666TIP3    H241414   0.166   2.139  12.985
 6667TIP3   OH241415   0.599   5.134  16.990
 6667TIP3    H141416   0.575   5.219  17.029
 6667TIP3    H241417   0.683   5.151  16.946
 6668TIP3   OH241418   0.605   3.265  13.121
 6668TIP3    H141419   0.601   3.216  13.038
 6668TIP3    H241420   0.601   3.198  13.189
 6669TIP3   OH241421   4.520   5.517  16.931
 6669TIP3    H141422   4.594   5.488  16.878
 6669TIP3    H241423   4.559   5.552  17.011
 6670TIP3   OH241424   2.453   1.611  13.636
 6670TIP3    H141425   2.517   1.660  13.585
 6670TIP3    H241426   2.380   1.672  13.649
 6671TIP3   OH241427   3.722   5.418   6.121
 6671TIP3    H141428   3.761   5.505   6.133
 6671TIP3    H241429   3.666   5.406   6.198
 6672TIP3   OH241430   2.366   6.705   0.825
 6672TIP3    H141431   2.343   6.669   0.911
 6672TIP3    H241432   2.462   6.706   0.826
 6673TIP3   OH241433   0.709   2.664   1.773
 6673TIP3    H141434   0.730   2.574   1.796
 6673TIP3    H241435   0.647   2.657   1.700
 6674TIP3   OH241436   0.329   1.377  12.784
 6674TIP3    H141437   0.409   1.331  12.759
 6674TIP3    H241438   0.355   1.435  12.855
 6675TIP3   OH241439   4.122   4.545  15.925
 6675TIP3    H141440   4.100   4.636  15.907
 6675TIP3    H241441   4.213   4.536  15.898
 6676TIP3   OH241442   5.567   0.294  13.687
 6676TIP3    H141443   5.476   0.305  13.658
 6676TIP3    H241444   5.588   0.203  13.668
 6677TIP3   OH241445   5.918   5.648   2.444
 6677TIP3    H141446   5.936   5.555   2.460
 6677TIP3    H241447   5.903   5.685   2.530
 6678TIP3   OH241448   4.795   0.185  10.812
 6678TIP3    H141449   4.717   0.239  10.797
 6678TIP3    H241450   4.763   0.110  10.863
 6679TIP3   OH241451   5.632   6.083   3.341
 6679TIP3    H141452   5.583   6.132   3.274
 6679TIP3    H241453   5.644   6.145   3.412
 6680TIP3   OH241454   4.721   0.823   1.199
 6680TIP3    H141455   4.795   0.808   1.259
 6680TIP3    H241456   4.755   0.883   1.134
 6681TIP3   OH241457   3.392   0.201  11.815
 6681TIP3    H141458   3.297   0.211  11.817
 6681TIP3    H241459   3.424   0.269  11.875
 6682TIP3   OH241460   5.681   0.195  14.289
 6682TIP3    H141461   5.674   0.281  14.331
 6682TIP3    H241462   5.690   0.214  14.196
 6683TIP3   OH241463   5.096   5.339   0.630
 6683TIP3    H141464   5.167   5.388   0.589
 6683TIP3    H241465   5.043   5.406   0.674
 6684TIP3   OH241466   5.266   0.932  17.189
 6684TIP3    H141467   5.323   0.981  17.249
 6684TIP3    H241468   5.196   0.994  17.167
 6685TIP3   OH241469   0.966   0.582   3.437
 6685TIP3    H141470   1.029   0.523   3.397
 6685TIP3    H241471   1.007   0.669   3.431
 6686TIP3   OH241472   0.677   0.214   3.094
 6686TIP3    H141473   0.676   0.304   3.063
 6686TIP3    H241474   0.587   0.198   3.124
 6687TIP3   OH241475   0.059   2.900   2.822
 6687TIP3    H141476   0.064   2.844   2.900
 6687TIP3    H241477   0.023   2.843   2.754
 6688TIP3   OH241478   5.840   3.374  15.834
 6688TIP3    H141479   5.785   3.307  15.792
 6688TIP3    H241480   5.924   3.331  15.848
 6689TIP3   OH241481   0.083   5.700  14.990
 6689TIP3    H141482   0.054   5.632  15.050
 6689TIP3    H241483   0.144   5.656  14.930
 6690TIP3   OH241484   1.066   4.082  12.669
 6690TIP3    H141485   1.075   3.988  12.686
 6690TIP3    H241486   0.985   4.089  12.619
 6691TIP3   OH241487   4.216   0.835  11.428
 6691TIP3    H141488   4.237   0.925  11.453
 6691TIP3    H241489   4.222   0.834  11.333
 6692TIP3   OH241490   4.869   4.814  11.069
 6692TIP3    H141491   4.918   4.844  10.992
 6692TIP3    H241492   4.936   4.778  11.128
 6693TIP3   OH241493   5.182   5.654   5.247
 6693TIP3    H141494   5.278   5.654   5.250
 6693TIP3    H241495   5.156   5.645   5.339
 6694TIP3   OH241496   4.038   0.871  14.110
 6694TIP3    H141497   4.107   0.807  14.131
 6694TIP3    H241498   3.996   0.888  14.194
 6695TIP3   OH241499   2.128   6.144   5.661
 6695TIP3    H141500   2.124   6.192   5.744
 6695TIP3    H241501   2.221   6.125   5.650
 6696TIP3   OH241502   6.335   5.469  13.541
 6696TIP3    H141503   6.284   5.535  13.589
 6696TIP3    H241504   6.420   5.511  13.525
 6697TIP3   OH241505   5.934   5.108  15.575
 6697TIP3    H141506   5.907   5.058  15.652
 6697TIP3    H241507   5.983   5.182  15.610
 6698TIP3   OH241508   3.657   4.299   1.452
 6698TIP3    H141509   3.668   4.225   1.511
 6698TIP3    H241510   3.614   4.262   1.375
 6699TIP3   OH241511   6.520   4.514  11.212
 6699TIP3    H141512   6.497   4.421  11.219
 6699TIP3    H241513   6.495   4.539  11.123
 6700TIP3   OH241514   4.033   1.978  14.181
 6700TIP3    H141515   3.960   2.039  14.184
 6700TIP3    H241516   4.026   1.928  14.262
 6701TIP3   OH241517   0.841   3.849  14.559
 6701TIP3    H141518   0.880   3.763  14.543
 6701TIP3    H241519   0.781   3.835  14.633
 6702TIP3   OH241520   5.226   5.065   4.171
 6702TIP3    H141521   5.158   5.123   4.205
 6702TIP3    H241522   5.188   4.977   4.178
 6703TIP3   OH241523   2.678   3.864   2.936
 6703TIP3    H141524   2.751   3.889   2.880
 6703TIP3    H241525   2.600   3.901   2.894
 6704TIP3   OH241526   0.288   1.090  10.892
 6704TIP3    H141527   0.355   1.024  10.876
 6704TIP3    H241528   0.292   1.148  10.816
 6705TIP3   OH241529   0.142   4.835  12.208
 6705TIP3    H141530   0.235   4.815  12.209
 6705TIP3    H241531   0.115   4.820  12.118
 6706TIP3   OH241532   4.439   6.650   0.967
 6706TIP3    H141533   4.441   6.745   0.977
 6706TIP3    H241534   4.409   6.618   1.052
 6707TIP3   OH241535   0.751   4.910   0.196
 6707TIP3    H141536   0.840   4.895   0.164
 6707TIP3    H241537   0.696   4.906   0.118
 6708TIP3   OH241538   0.983   0.074  16.745
 6708TIP3    H141539   0.956   0.009  16.809
 6708TIP3    H241540   0.923   0.148  16.759
 6709TIP3   OH241541   2.847   5.940  16.611
 6709TIP3    H141542   2.795   5.867  16.578
 6709TIP3    H241543   2.937   5.908  16.611
 6710TIP3   OH241544   4.439   3.423   5.623
 6710TIP3    H141545   4.452   3.451   5.532
 6710TIP3    H241546   4.506   3.356   5.636
 6711TIP3   OH241547   2.663   6.751  15.975
 6711TIP3    H141548   2.655   6.784  16.065
 6711TIP3    H241549   2.757   6.739  15.962
 6712TIP3   OH241550   2.620   4.732   0.052
 6712TIP3    H141551   2.689   4.684   0.098
 6712TIP3    H241552   2.556   4.752   0.120
 6713TIP3   OH241553   5.365   2.405  12.644
 6713TIP3    H141554   5.415   2.327  12.670
 6713TIP3    H241555   5.305   2.421  12.717
 6714TIP3   OH241556   5.080   2.982  16.272
 6714TIP3    H141557   5.165   3.020  16.292
 6714TIP3    H241558   5.017   3.048  16.301
 6715TIP3   OH241559   5.458   0.528   1.674
 6715TIP3    H141560   5.404   0.569   1.742
 6715TIP3    H241561   5.504   0.457   1.719
 6716TIP3   OH241562   5.172   4.536   4.201
 6716TIP3    H141563   5.170   4.452   4.247
 6716TIP3    H241564   5.191   4.512   4.110
 6717TIP3   OH241565   0.689   5.744   3.648
 6717TIP3    H141566   0.632   5.723   3.722
 6717TIP3    H241567   0.654   5.692   3.575
 6718TIP3   OH241568   5.430   3.461  13.078
 6718TIP3    H141569   5.506   3.489  13.129
 6718TIP3    H241570   5.429   3.518  13.002
 6719TIP3   OH241571   4.014   4.441   4.864
 6719TIP3    H141572   4.014   4.445   4.959
 6719TIP3    H241573   4.107   4.442   4.840
 6720TIP3   OH241574   1.946   5.657  11.088
 6720TIP3    H141575   1.971   5.676  11.179
 6720TIP3    H241576   2.004   5.585  11.062
 6721TIP3   OH241577   2.847   6.450  11.864
 6721TIP3    H141578   2.845   6.456  11.768
 6721TIP3    H241579   2.809   6.364  11.883
 6722TIP3   OH241580   6.027   4.068  14.061
 6722TIP3    H141581   5.935   4.062  14.088
 6722TIP3    H241582   6.024   4.053  13.966
 6723TIP3   OH241583   6.245   1.632   2.631
 6723TIP3    H141584   6.338   1.610   2.623
 6723TIP3    H241585   6.245   1.720   2.669
 6724TIP3   OH241586   0.298   4.409   2.405
 6724TIP3    H141587   0.282   4.499   2.379
 6724TIP3    H241588   0.297   4.360   2.323
 6725TIP3   OH241589   5.416   5.100   3.276
 6725TIP3    H141590   5.408   5.045   3.354
 6725TIP3    H241591   5.471   5.173   3.304
 6726TIP3   OH241592   1.610   0.195  16.363
 6726TIP3    H141593   1.668   0.267  16.336
 6726TIP3    H241594   1.651   0.162  16.444
 6727TIP3   OH241595   0.712   2.704   2.153
 6727TIP3    H141596   0.776   2.720   2.084
 6727TIP3    H241597   0.762   2.662   2.223
 6728TIP3   OH241598   3.049   2.652  17.075
 6728TIP3    H141599   3.059   2.710  17.000
 6728TIP3    H241600   2.964   2.676  17.112
 6729TIP3   OH241601   2.677   1.422   3.118
 6729TIP3    H141602   2.743   1.445   3.183
 6729TIP3    H241603   2.697   1.478   3.043
 6730TIP3   OH241604   3.036   0.640   1.215
 6730TIP3    H141605   2.959   0.620   1.162
 6730TIP3    H241606   3.016   0.606   1.302
 6731TIP3   OH241607   5.836   4.824  17.048
 6731TIP3    H141608   5.882   4.903  17.020
 6731TIP3    H241609   5.896   4.782  17.110
 6732TIP3   OH241610   5.250   3.106   2.163
 6732TIP3    H141611   5.204   3.168   2.106
 6732TIP3    H241612   5.281   3.160   2.236
 6733TIP3   OH241613   3.181   1.457  10.106
 6733TIP3    H141614   3.151   1.398  10.175
 6733TIP3    H241615   3.223   1.530  10.153
 6734TIP3   OH241616   1.028   2.646   3.301
 6734TIP3    H141617   0.944   2.646   3.347
 6734TIP3    H241618   1.088   2.601   3.361
 6735TIP3   OH241619   2.333   4.039  12.541
 6735TIP3    H141620   2.364   4.065  12.454
 6735TIP3    H241621   2.358   4.111  12.598
 6736TIP3   OH241622   0.577   0.440  16.805
 6736TIP3    H141623   0.658   0.491  16.795
 6736TIP3    H241624   0.520   0.472  16.735
 6737TIP3   OH241625   6.437   1.216   4.415
 6737TIP3    H141626   6.372   1.161   4.369
 6737TIP3    H241627   6.453   1.288   4.355
 6738TIP3   OH241628   3.401   6.036   0.211
 6738TIP3    H141629   3.421   5.949   0.248
 6738TIP3    H241630   3.343   6.017   0.137
 6739TIP3   OH241631   2.212   2.812  13.966
 6739TIP3    H141632   2.220   2.796  14.060
 6739TIP3    H241633   2.299   2.843  13.940
 6740TIP3   OH241634   2.186   5.428   5.420
 6740TIP3    H141635   2.231   5.357   5.373
 6740TIP3    H241636   2.257   5.482   5.454
 6741TIP3   OH241637   2.686   0.098  12.210
 6741TIP3    H141638   2.762   0.070  12.261
 6741TIP3    H241639   2.623   0.027  12.219
 6742TIP3   OH241640   1.849   4.547  12.390
 6742TIP3    H141641   1.808   4.622  12.432
 6742TIP3    H241642   1.796   4.472  12.417
 6743TIP3   OH241643   2.607   1.874  16.093
 6743TIP3    H141644   2.588   1.830  16.175
 6743TIP3    H241645   2.664   1.947  16.117
 6744TIP3   OH241646   2.697   5.466  13.856
 6744TIP3    H141647   2.682   5.532  13.789
 6744TIP3    H241648   2.789   5.442  13.847
 6745TIP3   OH241649   2.296   3.595  10.864
 6745TIP3    H141650   2.372   3.584  10.920
 6745TIP3    H241651   2.331   3.632  10.783
 6746TIP3   OH241652   3.441   3.944   1.963
 6746TIP3    H141653   3.495   3.865   1.968
 6746TIP3    H241654   3.351   3.911   1.962
 6747TIP3   OH241655   1.972   6.238   3.877
 6747TIP3    H141656   1.931   6.322   3.857
 6747TIP3    H241657   2.054   6.260   3.921
 6748TIP3   OH241658   4.670   5.661   1.545
 6748TIP3    H141659   4.673   5.737   1.604
 6748TIP3    H241660   4.584   5.667   1.504
 6749TIP3   OH241661   4.732   1.205  12.610
 6749TIP3    H141662   4.741   1.240  12.699
 6749TIP3    H241663   4.816   1.165  12.591
 6750TIP3   OH241664   1.589   0.354   4.298
 6750TIP3    H141665   1.557   0.432   4.343
 6750TIP3    H241666   1.563   0.365   4.207
 6751TIP3   OH241667   3.748   0.128  12.661
 6751TIP3    H141668   3.668   0.089  12.626
 6751TIP3    H241669   3.773   0.070  12.733
 6752TIP3   OH241670   1.507   4.747  12.088
 6752TIP3    H141671   1.436   4.731  12.027
 6752TIP3    H241672   1.483   4.698  12.167
 6753TIP3   OH241673   3.794   6.545   2.621
 6753TIP3    H141674   3.877   6.586   2.645
 6753TIP3    H241675   3.751   6.607   2.563
 6754TIP3   OH241676   3.375   5.706  12.073
 6754TIP3    H141677   3.390   5.761  12.150
 6754TIP3    H241678   3.374   5.617  12.108
 6755TIP3   OH241679   2.653   2.722  14.752
 6755TIP3    H141680   2.693   2.751  14.835
 6755TIP3    H241681   2.720   2.665  14.713
 6756TIP3   OH241682   1.533   2.538   2.221
 6756TIP3    H141683   1.583   2.477   2.166
 6756TIP3    H241684   1.600   2.592   2.264
 6757TIP3   OH241685   4.292   5.030   0.815
 6757TIP3    H141686   4.236   5.024   0.738
 6757TIP3    H241687   4.243   5.083   0.877
 6758TIP3   OH241688   3.218   6.747   4.571
 6758TIP3    H141689   3.265   6.716   4.494
 6758TIP3    H241690   3.187   6.667   4.614
 6759TIP3   OH241691   6.528   2.678   4.482
 6759TIP3    H141692   6.483   2.609   4.529
 6759TIP3    H241693   6.576   2.633   4.413
 6760TIP3   OH241694   5.637   3.818   3.707
 6760TIP3    H141695   5.682   3.746   3.662
 6760TIP3    H241696   5.707   3.874   3.739
 6761TIP3   OH241697   0.046   4.656   2.110
 6761TIP3    H141698   0.065   4.653   2.016
 6761TIP3    H241699  -0.020   4.588   2.123
 6762TIP3   OH241700   4.406   4.209  14.428
 6762TIP3    H141701   4.428   4.273  14.361
 6762TIP3    H241702   4.483   4.206  14.485
 6763TIP3   OH241703   0.894   2.591  15.183
 6763TIP3    H141704   0.849   2.611  15.101
 6763TIP3    H241705   0.941   2.671  15.205
 6764TIP3   OH241706   1.942   0.754   2.445
 6764TIP3    H141707   1.849   0.771   2.463
 6764TIP3    H241708   1.941   0.706   2.362
 6765TIP3   OH241709   1.864   5.344  12.759
 6765TIP3    H141710   1.928   5.313  12.823
 6765TIP3    H241711   1.795   5.278  12.761
 6766TIP3   OH241712   4.603   2.045   3.980
 6766TIP3    H141713   4.656   2.080   3.908
 6766TIP3    H241714   4.657   1.976   4.017
 6767TIP3   OH241715   6.384   4.405   3.628
 6767TIP3    H141716   6.392   4.485   3.679
 6767TIP3    H241717   6.292   4.381   3.634
 6768TIP3   OH241718   6.331   4.082   1.859
 6768TIP3    H141719   6.327   4.178   1.860
 6768TIP3    H241720   6.421   4.062   1.885
 6769TIP3   OH241721   2.149   5.427  14.083
 6769TIP3    H141722   2.094   5.442  14.159
 6769TIP3    H241723   2.088   5.419  14.010
 6770TIP3   OH241724   3.163   4.149   6.185
 6770TIP3    H141725   3.111   4.085   6.136
 6770TIP3    H241726   3.156   4.119   6.276
 6771TIP3   OH241727   2.055   4.483   5.542
 6771TIP3    H141728   2.065   4.577   5.529
 6771TIP3    H241729   2.074   4.445   5.456
 6772TIP3   OH241730   1.199   0.717  16.122
 6772TIP3    H141731   1.196   0.751  16.033
 6772TIP3    H241732   1.285   0.676  16.130
 6773TIP3   OH241733   5.128   0.960   3.275
 6773TIP3    H141734   5.206   1.009   3.300
 6773TIP3    H241735   5.057   1.003   3.324
 6774TIP3   OH241736   2.197   0.702   5.738
 6774TIP3    H141737   2.232   0.790   5.750
 6774TIP3    H241738   2.102   0.713   5.744
 6775TIP3   OH241739   4.235   5.968   4.921
 6775TIP3    H141740   4.244   5.881   4.882
 6775TIP3    H241741   4.293   6.023   4.869
 6776TIP3   OH241742   6.311   0.346  14.202
 6776TIP3    H141743   6.307   0.334  14.297
 6776TIP3    H241744   6.265   0.269  14.167
 6777TIP3   OH241745   4.064   3.728   0.511
 6777TIP3    H141746   4.015   3.721   0.429
 6777TIP3    H241747   4.068   3.638   0.544
 6778TIP3   OH241748   5.703   3.386   5.848
 6778TIP3    H141749   5.737   3.312   5.796
 6778TIP3    H241750   5.725   3.364   5.938
 6779TIP3   OH241751   3.184   1.361   3.934
 6779TIP3    H141752   3.141   1.399   4.011
 6779TIP3    H241753   3.258   1.419   3.917
 6780TIP3   OH241754   5.738   5.486   2.708
 6780TIP3    H141755   5.770   5.430   2.779
 6780TIP3    H241756   5.805   5.478   2.640
 6781TIP3   OH241757   4.423   6.267  13.761
 6781TIP3    H141758   4.428   6.348  13.811
 6781TIP3    H241759   4.353   6.217  13.803
 6782TIP3   OH241760   0.383   6.758  13.177
 6782TIP3    H141761   0.343   6.827  13.230
 6782TIP3    H241762   0.434   6.804  13.111
 6783TIP3   OH241763   6.683   0.143   0.457
 6783TIP3    H141764   6.707   0.058   0.494
 6783TIP3    H241765   6.687   0.130   0.363
 6784TIP3   OH241766   1.939   2.563   3.447
 6784TIP3    H141767   1.894   2.602   3.372
 6784TIP3    H241768   2.001   2.501   3.408
 6785TIP3   OH241769   0.713   3.005  15.298
 6785TIP3    H141770   0.779   2.950  15.338
 6785TIP3    H241771   0.724   2.991  15.204
 6786TIP3   OH241772   6.014   0.726   2.726
 6786TIP3    H141773   5.968   0.807   2.747
 6786TIP3    H241774   5.970   0.659   2.778
 6787TIP3   OH241775   1.254   5.003  15.423
 6787TIP3    H141776   1.200   5.027  15.348
 6787TIP3    H241777   1.343   5.027  15.397
 6788TIP3   OH241778   3.069   3.438   0.695
 6788TIP3    H141779   2.986   3.392   0.711
 6788TIP3    H241780   3.071   3.508   0.760
 6789TIP3   OH241781   6.145   3.174   1.067
 6789TIP3    H141782   6.068   3.131   1.102
 6789TIP3    H241783   6.113   3.226   0.993
 6790TIP3   OH241784   6.650   1.658   5.373
 6790TIP3    H141785   6.590   1.597   5.416
 6790TIP3    H241786   6.612   1.745   5.389
 6791TIP3   OH241787   1.098   5.291   4.695
 6791TIP3    H141788   1.146   5.359   4.647
 6791TIP3    H241789   1.006   5.306   4.671
 6792TIP3   OH241790   1.940   3.761   3.664
 6792TIP3    H141791   1.985   3.692   3.713
 6792TIP3    H241792   1.849   3.731   3.658
 6793TIP3   OH241793   0.617   6.466   0.243
 6793TIP3    H141794   0.649   6.423   0.163
 6793TIP3    H241795   0.618   6.396   0.309
 6794TIP3   OH241796   4.813   6.294   2.888
 6794TIP3    H141797   4.747   6.225   2.900
 6794TIP3    H241798   4.896   6.251   2.909
 6795TIP3   OH241799   0.766   6.367   2.017
 6795TIP3    H141800   0.677   6.353   2.049
 6795TIP3    H241801   0.768   6.322   1.932
 6796TIP3   OH241802   2.835   5.432   2.501
 6796TIP3    H141803   2.907   5.371   2.485
 6796TIP3    H241804   2.757   5.384   2.473
 6797TIP3   OH241805   3.564   4.289  12.074
 6797TIP3    H141806   3.615   4.223  12.028
 6797TIP3    H241807   3.593   4.283  12.165
 6798TIP3   OH241808   5.855   3.125   3.544
 6798TIP3    H141809   5.804   3.052   3.509
 6798TIP3    H241810   5.803   3.159   3.616
 6799TIP3   OH241811   5.599   6.177  10.921
 6799TIP3    H141812   5.536   6.195  10.851
 6799TIP3    H241813   5.548   6.131  10.988
 6800TIP3   OH241814   2.077   2.471  11.904
 6800TIP3    H141815   2.012   2.496  11.838
 6800TIP3    H241816   2.159   2.511  11.873
 6801TIP3   OH241817   1.133   2.673   5.138
 6801TIP3    H141818   1.185   2.671   5.218
 6801TIP3    H241819   1.046   2.701   5.167
 6802TIP3   OH241820   3.233   3.465   1.704
 6802TIP3    H141821   3.150   3.417   1.701
 6802TIP3    H241822   3.282   3.434   1.628
 6803TIP3   OH241823   1.572   2.428  16.593
 6803TIP3    H141824   1.660   2.392  16.604
 6803TIP3    H241825   1.533   2.422  16.680
 6804TIP3   OH241826   2.364   5.425   2.636
 6804TIP3    H141827   2.370   5.479   2.715
 6804TIP3    H241828   2.415   5.473   2.570
 6805TIP3   OH241829   5.154   4.276   4.302
 6805TIP3    H141830   5.224   4.247   4.243
 6805TIP3    H241831   5.100   4.198   4.315
 6806TIP3   OH241832   0.306   2.712  11.437
 6806TIP3    H141833   0.248   2.643  11.469
 6806TIP3    H241834   0.352   2.673  11.363
 6807TIP3   OH241835   2.067   3.882  16.727
 6807TIP3    H141836   2.012   3.954  16.696
 6807TIP3    H241837   2.153   3.900  16.689
 6808TIP3   OH241838   2.744   3.746  10.754
 6808TIP3    H141839   2.808   3.700  10.699
 6808TIP3    H241840   2.728   3.685  10.826
 6809TIP3   OH241841   5.588   4.530   5.590
 6809TIP3    H141842   5.496   4.501   5.595
 6809TIP3    H241843   5.583   4.624   5.578
 6810TIP3   OH241844   2.526   0.424  11.065
 6810TIP3    H141845   2.518   0.493  10.999
 6810TIP3    H241846   2.548   0.346  11.014
 6811TIP3   OH241847   2.164   1.698   1.266
 6811TIP3    H141848   2.152   1.703   1.361
 6811TIP3    H241849   2.246   1.745   1.250
 6812TIP3   OH241850   0.095   5.908   5.729
 6812TIP3    H141851   0.150   5.878   5.656
 6812TIP3    H241852   0.142   5.983   5.765
 6813TIP3   OH241853   2.000   6.081  11.016
 6813TIP3    H141854   2.048   6.163  11.023
 6813TIP3    H241855   1.928   6.089  11.078
 6814TIP3   OH241856   4.545   1.880  17.058
 6814TIP3    H141857   4.627   1.927  17.071
 6814TIP3    H241858   4.569   1.788  17.055
 6815TIP3   OH241859   1.787   6.589   4.579
 6815TIP3    H141860   1.737   6.575   4.499
 6815TIP3    H241861   1.842   6.512   4.587
 6816TIP3   OH241862   2.133   0.120   5.701
 6816TIP3    H141863   2.130   0.200   5.648
 6816TIP3    H241864   2.152   0.050   5.639
 6817TIP3   OH241865   5.878   1.024  13.282
 6817TIP3    H141866   5.787   1.051  13.284
 6817TIP3    H241867   5.886   0.959  13.351
 6818TIP3   OH241868   1.455   4.076  14.531
 6818TIP3    H141869   1.399   4.022  14.586
 6818TIP3    H241870   1.452   4.163  14.572
 6819TIP3   OH241871   4.539   0.181   2.593
 6819TIP3    H141872   4.534   0.155   2.685
 6819TIP3    H241873   4.632   0.169   2.571
 6820TIP3   OH241874   1.894   3.845  14.338
 6820TIP3    H141875   1.944   3.926  14.326
 6820TIP3    H241876   1.809   3.874  14.371
 6821TIP3   OH241877   5.700   0.714  16.082
 6821TIP3    H141878   5.782   0.734  16.127
 6821TIP3    H241879   5.641   0.785  16.106
 6822TIP3   OH241880   6.552   0.465  12.828
 6822TIP3    H141881   6.498   0.389  12.811
 6822TIP3    H241882   6.600   0.479  12.746
 6823TIP3   OH241883   1.924   3.788   5.225
 6823TIP3    H141884   1.971   3.723   5.172
 6823TIP3    H241885   1.992   3.830   5.278
 6824TIP3   OH241886   0.626   1.428  15.511
 6824TIP3    H141887   0.644   1.522  15.508
 6824TIP3    H241888   0.678   1.392  15.439
 6825TIP3   OH241889   4.372   2.037   1.744
 6825TIP3    H141890   4.376   2.114   1.801
 6825TIP3    H241891   4.338   2.070   1.661
 6826TIP3   OH241892   0.242   6.722  16.314
 6826TIP3    H141893   0.194   6.805  16.323
 6826TIP3    H241894   0.332   6.745  16.338
 6827TIP3   OH241895   6.609   4.078  15.429
 6827TIP3    H141896   6.616   4.057  15.522
 6827TIP3    H241897   6.700   4.088  15.401
 6828TIP3   OH241898   4.229   5.614   1.231
 6828TIP3    H141899   4.175   5.538   1.254
 6828TIP3    H241900   4.168   5.687   1.230
 6829TIP3   OH241901   5.151   2.898   3.631
 6829TIP3    H141902   5.203   2.863   3.559
 6829TIP3    H241903   5.146   2.826   3.694
 6830TIP3   OH241904   4.774   3.151   5.874
 6830TIP3    H141905   4.839   3.092   5.913
 6830TIP3    H241906   4.814   3.238   5.880
 6831TIP3   OH241907   3.920   0.799   0.521
 6831TIP3    H141908   3.963   0.885   0.525
 6831TIP3    H241909   3.978   0.740   0.568
 6832TIP3   OH241910   5.508   3.392  11.378
 6832TIP3    H141911   5.434   3.442  11.413
 6832TIP3    H241912   5.479   3.364  11.291
 6833TIP3   OH241913   1.253   3.544   0.419
 6833TIP3    H141914   1.282   3.632   0.395
 6833TIP3    H241915   1.309   3.519   0.492
 6834TIP3   OH241916   3.434   2.190  12.961
 6834TIP3    H141917   3.452   2.260  13.024
 6834TIP3    H241918   3.370   2.134  13.005
 6835TIP3   OH241919   4.204   5.490   0.503
 6835TIP3    H141920   4.144   5.415   0.504
 6835TIP3    H241921   4.289   5.453   0.526
 6836TIP3   OH241922   6.055   3.321   3.670
 6836TIP3    H141923   6.056   3.240   3.722
 6836TIP3    H241924   6.020   3.387   3.729
 6837TIP3   OH241925   2.441   2.687   1.538
 6837TIP3    H141926   2.354   2.670   1.576
 6837TIP3    H241927   2.496   2.709   1.613
 6838TIP3   OH241928   6.735   1.356  11.600
 6838TIP3    H141929   6.810   1.409  11.574
 6838TIP3    H241930   6.765   1.308  11.677
 6839TIP3   OH241931   4.315   5.297   0.249
 6839TIP3    H141932   4.260   5.248   0.310
 6839TIP3    H241933   4.257   5.318   0.176
 6840TIP3   OH241934   6.125   6.360  14.441
 6840TIP3    H141935   6.145   6.270  14.467
 6840TIP3    H241936   6.195   6.413  14.480
 6841TIP3   OH241937   5.186   2.200  12.274
 6841TIP3    H141938   5.191   2.185  12.368
 6841TIP3    H241939   5.235   2.281  12.260
 6842TIP3   OH241940   5.372   5.302   5.348
 6842TIP3    H141941   5.293   5.318   5.297
 6842TIP3    H241942   5.397   5.212   5.327
 6843TIP3   OH241943   4.871   2.288   0.878
 6843TIP3    H141944   4.909   2.295   0.790
 6843TIP3    H241945   4.805   2.219   0.869
 6844TIP3   OH241946   0.015   1.106  15.938
 6844TIP3    H141947   0.065   1.159  15.876
 6844TIP3    H241948   0.038   1.141  16.024
 6845TIP3   OH241949   1.599   6.081   2.802
 6845TIP3    H141950   1.629   5.993   2.781
 6845TIP3    H241951   1.679   6.134   2.804
 6846TIP3   OH241952   5.145   3.174   6.613
 6846TIP3    H141953   5.062   3.217   6.590
 6846TIP3    H241954   5.160   3.200   6.704
 6847TIP3   OH241955   5.637   2.281  15.502
 6847TIP3    H141956   5.578   2.220  15.460
 6847TIP3    H241957   5.676   2.231  15.574
 6848TIP3   OH241958   5.200   3.378   5.899
 6848TIP3    H141959   5.280   3.400   5.852
 6848TIP3    H241960   5.198   3.283   5.900
 6849TIP3   OH241961   3.366   3.326  11.568
 6849TIP3    H141962   3.317   3.289  11.641
 6849TIP3    H241963   3.431   3.383  11.609
 6850TIP3   OH241964   6.702   0.369  17.066
 6850TIP3    H141965   6.766   0.381  17.137
 6850TIP3    H241966   6.623   0.414  17.097
 6851TIP3   OH241967   5.487   1.873   1.905
 6851TIP3    H141968   5.428   1.835   1.841
 6851TIP3    H241969   5.516   1.955   1.864
 6852TIP3   OH241970   3.823   6.335   2.417
 6852TIP3    H141971   3.836   6.389   2.339
 6852TIP3    H241972   3.729   6.337   2.432
 6853TIP3   OH241973   5.005   0.370   3.337
 6853TIP3    H141974   4.970   0.282   3.351
 6853TIP3    H241975   4.945   0.411   3.274
 6854TIP3   OH241976   4.317   1.054  14.102
 6854TIP3    H141977   4.367   0.973  14.110
 6854TIP3    H241978   4.367   1.108  14.042
 6855TIP3   OH241979   6.094   5.547   4.609
 6855TIP3    H141980   6.186   5.521   4.621
 6855TIP3    H241981   6.099   5.623   4.551
 6856TIP3   OH241982   0.484   4.766   0.668
 6856TIP3    H141983   0.539   4.732   0.739
 6856TIP3    H241984   0.456   4.688   0.620
 6857TIP3   OH241985   3.457   1.224  13.309
 6857TIP3    H141986   3.518   1.222  13.383
 6857TIP3    H241987   3.370   1.224  13.350
 6858TIP3   OH241988   4.055   5.274  12.223
 6858TIP3    H141989   4.089   5.295  12.310
 6858TIP3    H241990   3.969   5.235  12.240
 6859TIP3   OH241991   3.765   0.810   4.988
 6859TIP3    H141992   3.805   0.751   5.052
 6859TIP3    H241993   3.783   0.768   4.904
 6860TIP3   OH241994   4.319   5.715   4.805
 6860TIP3    H141995   4.382   5.685   4.870
 6860TIP3    H241996   4.365   5.707   4.721
 6861TIP3   OH241997   3.455   5.298  12.934
 6861TIP3    H141998   3.477   5.386  12.964
 6861TIP3    H241999   3.386   5.269  12.994
 6862TIP3   OH242000   6.058   3.447  12.259
 6862TIP3    H142001   6.005   3.438  12.337
 6862TIP3    H242002   6.091   3.537  12.263
 6863TIP3   OH242003   0.725   0.082   4.444
 6863TIP3    H142004   0.785   0.054   4.375
 6863TIP3    H242005   0.657   0.014   4.446
 6864TIP3   OH242006   6.321   5.809   1.427
 6864TIP3    H142007   6.235   5.771   1.445
 6864TIP3    H242008   6.330   5.879   1.491
 6865TIP3   OH242009   4.045   0.790  11.938
 6865TIP3    H142010   4.011   0.786  12.028
 6865TIP3    H242011   3.975   0.831  11.888
 6866TIP3   OH242012   5.842   6.310  11.387
 6866TIP3    H142013   5.844   6.406  11.383
 6866TIP3    H242014   5.882   6.282  11.305
 6867TIP3   OH242015   4.585   4.181  14.859
 6867TIP3    H142016   4.674   4.150  14.876
 6867TIP3    H242017   4.532   4.139  14.927
 6868TIP3   OH242018   4.278   4.870   2.436
 6868TIP3    H142019   4.214   4.810   2.397
 6868TIP3    H242020   4.351   4.814   2.462
 6869TIP3   OH242021   0.224   5.070   3.477
 6869TIP3    H142022   0.165   5.062   3.402
 6869TIP3    H242023   0.210   5.158   3.510
 6870TIP3   OH242024   4.468   2.611  13.790
 6870TIP3    H142025   4.415   2.543  13.831
 6870TIP3    H242026   4.555   2.601  13.830
 6871TIP3   OH242027   3.665   2.867   0.833
 6871TIP3    H142028   3.582   2.850   0.789
 6871TIP3    H242029   3.730   2.822   0.778
 6872TIP3   OH242030   1.806   5.463   5.590
 6872TIP3    H142031   1.812   5.371   5.564
 6872TIP3    H242032   1.716   5.488   5.571
 6873TIP3   OH242033   2.492   3.045   0.695
 6873TIP3    H142034   2.585   3.027   0.708
 6873TIP3    H242035   2.458   2.965   0.655
 6874TIP3   OH242036   1.868   5.835   4.469
 6874TIP3    H142037   1.911   5.914   4.501
 6874TIP3    H242038   1.857   5.779   4.546
 6875TIP3   OH242039   0.316   2.833   5.250
 6875TIP3    H142040   0.338   2.742   5.228
 6875TIP3    H242041   0.221   2.833   5.258
 6876TIP3   OH242042   4.575   0.394  13.386
 6876TIP3    H142043   4.548   0.447  13.461
 6876TIP3    H242044   4.496   0.345  13.362
 6877TIP3   OH242045   3.012   5.877  17.170
 6877TIP3    H142046   2.960   5.947  17.210
 6877TIP3    H242047   3.058   5.837  17.243
 6878TIP3   OH242048   6.234   1.006   5.140
 6878TIP3    H142049   6.191   0.987   5.057
 6878TIP3    H242050   6.195   0.946   5.203
 6879TIP3   OH242051   1.755   2.568   0.466
 6879TIP3    H142052   1.829   2.508   0.450
 6879TIP3    H242053   1.768   2.597   0.556
 6880TIP3   OH242054   2.533   3.228   0.447
 6880TIP3    H142055   2.534   3.172   0.524
 6880TIP3    H242056   2.610   3.202   0.397
 6881TIP3   OH242057   5.476   6.694  13.088
 6881TIP3    H142058   5.463   6.667  12.997
 6881TIP3    H242059   5.402   6.655  13.135
 6882TIP3   OH242060   5.066   5.905  16.242
 6882TIP3    H142061   5.084   5.959  16.165
 6882TIP3    H242062   5.141   5.918  16.299
 6883TIP3   OH242063   2.326   5.493  14.331
 6883TIP3    H142064   2.281   5.513  14.413
 6883TIP3    H242065   2.306   5.568  14.274
 6884TIP3   OH242066   4.100   2.093   3.190
 6884TIP3    H142067   4.122   2.124   3.102
 6884TIP3    H242068   4.178   2.046   3.219
 6885TIP3   OH242069   5.883   5.461  17.073
 6885TIP3    H142070   5.843   5.493  16.992
 6885TIP3    H242071   5.843   5.376  17.088
 6886TIP3   OH242072   3.537   5.242  14.216
 6886TIP3    H142073   3.592   5.310  14.178
 6886TIP3    H242074   3.506   5.279  14.299
 6887TIP3   OH242075   1.163   0.810  14.572
 6887TIP3    H142076   1.117   0.858  14.504
 6887TIP3    H242077   1.104   0.737  14.594
 6888TIP3   OH242078   6.541   1.152   3.705
 6888TIP3    H142079   6.629   1.181   3.679
 6888TIP3    H242080   6.556   1.069   3.751
 6889TIP3   OH242081   1.623   1.667   3.721
 6889TIP3    H142082   1.714   1.673   3.690
 6889TIP3    H242083   1.598   1.758   3.738
 6890TIP3   OH242084   4.678   0.063   0.490
 6890TIP3    H142085   4.612   0.131   0.474
 6890TIP3    H242086   4.634  -0.018   0.467
 6891TIP3   OH242087   0.495   0.608   3.520
 6891TIP3    H142088   0.448   0.663   3.583
 6891TIP3    H242089   0.472   0.644   3.435
 6892TIP3   OH242090   4.239   6.681  15.843
 6892TIP3    H142091   4.147   6.705  15.855
 6892TIP3    H242092   4.280   6.761  15.811
 6893TIP3   OH242093   3.262   1.267  14.316
 6893TIP3    H142094   3.210   1.191  14.292
 6893TIP3    H242095   3.212   1.310  14.385
 6894TIP3   OH242096   6.683   1.885  15.059
 6894TIP3    H142097   6.656   1.955  15.001
 6894TIP3    H242098   6.636   1.808  15.028
 6895TIP3   OH242099   5.902   6.199  15.874
 6895TIP3    H142100   5.920   6.278  15.824
 6895TIP3    H242101   5.987   6.158  15.886
 6896TIP3   OH242102   1.668   2.412  16.220
 6896TIP3    H142103   1.737   2.407  16.286
 6896TIP3    H242104   1.698   2.479  16.158
 6897TIP3   OH242105   5.130   1.335  16.062
 6897TIP3    H142106   5.097   1.355  16.150
 6897TIP3    H242107   5.135   1.240  16.060
 6898TIP3   OH242108   3.918   4.048   1.134
 6898TIP3    H142109   3.926   4.132   1.180
 6898TIP3    H242110   3.980   4.054   1.062
 6899TIP3   OH242111   0.914   0.031   4.836
 6899TIP3    H142112   0.921  -0.044   4.777
 6899TIP3    H242113   0.930   0.107   4.781
 6900TIP3   OH242114   5.513   4.736   5.256
 6900TIP3    H142115   5.426   4.776   5.258
 6900TIP3    H242116   5.544   4.740   5.347
 6901TIP3   OH242117   5.302   5.562  10.747
 6901TIP3    H142118   5.233   5.589  10.687
 6901TIP3    H242119   5.355   5.500  10.697
 6902TIP3   OH242120   3.289   1.699  17.111
 6902TIP3    H142121   3.318   1.732  17.026
 6902TIP3    H242122   3.244   1.774  17.152
 6903TIP3   OH242123   1.112   4.153  12.930
 6903TIP3    H142124   1.080   4.148  12.840
 6903TIP3    H242125   1.118   4.062  12.958
 6904TIP3   OH242126   4.173   0.920   2.342
 6904TIP3    H142127   4.126   0.962   2.270
 6904TIP3    H242128   4.251   0.973   2.354
 6905TIP3   OH242129   0.240   0.252  14.562
 6905TIP3    H142130   0.185   0.181  14.596
 6905TIP3    H242131   0.198   0.279  14.481
 6906TIP3   OH242132   4.675   2.632   1.237
 6906TIP3    H142133   4.617   2.689   1.187
 6906TIP3    H242134   4.616   2.581   1.293
 6907TIP3   OH242135   2.470   2.537   2.142
 6907TIP3    H142136   2.411   2.613   2.143
 6907TIP3    H242137   2.550   2.569   2.101
 6908TIP3   OH242138   3.494   0.330   3.571
 6908TIP3    H142139   3.408   0.302   3.540
 6908TIP3    H242140   3.532   0.252   3.611
 6909TIP3   OH242141   3.884   3.037   2.545
 6909TIP3    H142142   3.956   2.976   2.561
 6909TIP3    H242143   3.922   3.104   2.487
 6910TIP3   OH242144   1.970   2.543  16.556
 6910TIP3    H142145   1.940   2.495  16.633
 6910TIP3    H242146   1.996   2.475  16.493
 6911TIP3   OH242147   3.281   2.516  17.197
 6911TIP3    H142148   3.351   2.578  17.174
 6911TIP3    H242149   3.205   2.546  17.148
 6912TIP3   OH242150   4.563   1.294   1.788
 6912TIP3    H142151   4.637   1.248   1.749
 6912TIP3    H242152   4.526   1.346   1.717
 6913TIP3   OH242153   2.669   5.735  14.786
 6913TIP3    H142154   2.655   5.651  14.742
 6913TIP3    H242155   2.582   5.764  14.812
 6914TIP3   OH242156   0.404   1.246  14.587
 6914TIP3    H142157   0.352   1.316  14.627
 6914TIP3    H242158   0.493   1.281  14.586
 6915TIP3   OH242159   4.361   1.693   4.079
 6915TIP3    H142160   4.273   1.732   4.084
 6915TIP3    H242161   4.416   1.749   4.134
 6916TIP3   OH242162   6.667   0.242  11.395
 6916TIP3    H142163   6.656   0.245  11.490
 6916TIP3    H242164   6.759   0.264  11.381
 6917TIP3   OH242165   0.059   2.567   3.813
 6917TIP3    H142166   0.106   2.586   3.732
 6917TIP3    H242167   0.047   2.653   3.854
 6918TIP3   OH242168   4.830   0.584  10.899
 6918TIP3    H142169   4.765   0.652  10.881
 6918TIP3    H242170   4.903   0.604  10.840
 6919TIP3   OH242171   0.942   2.886   2.550
 6919TIP3    H142172   0.954   2.970   2.505
 6919TIP3    H242173   0.910   2.909   2.637
 6920TIP3   OH242174   4.387   5.331   5.319
 6920TIP3    H142175   4.378   5.305   5.410
 6920TIP3    H242176   4.305   5.304   5.278
 6921TIP3   OH242177   6.703   5.925  12.696
 6921TIP3    H142178   6.694   5.849  12.639
 6921TIP3    H242179   6.645   5.991  12.658
 6922TIP3   OH242180   5.460   4.339  12.755
 6922TIP3    H142181   5.476   4.433  12.768
 6922TIP3    H242182   5.480   4.324  12.663
 6923TIP3   OH242183   2.956   5.353  13.866
 6923TIP3    H142184   2.996   5.331  13.950
 6923TIP3    H242185   3.003   5.299  13.803
 6924TIP3   OH242186   3.132   6.480  13.935
 6924TIP3    H142187   3.063   6.543  13.955
 6924TIP3    H242188   3.181   6.472  14.017
 6925TIP3   OH242189   2.701   1.337  13.566
 6925TIP3    H142190   2.658   1.251  13.564
 6925TIP3    H242191   2.647   1.389  13.626
 6926TIP3   OH242192   1.735   3.024  13.662
 6926TIP3    H142193   1.733   3.079  13.583
 6926TIP3    H242194   1.798   3.067  13.720
 6927TIP3   OH242195   6.460   6.212  15.143
 6927TIP3    H142196   6.388   6.258  15.187
 6927TIP3    H242197   6.454   6.122  15.174
 6928TIP3   OH242198   3.606   3.827   2.708
 6928TIP3    H142199   3.552   3.880   2.649
 6928TIP3    H242200   3.547   3.808   2.782
 6929TIP3   OH242201   3.458   5.123  16.365
 6929TIP3    H142202   3.425   5.207  16.396
 6929TIP3    H242203   3.550   5.139  16.342
 6930TIP3   OH242204   4.260   5.484   5.958
 6930TIP3    H142205   4.229   5.549   6.021
 6930TIP3    H242206   4.181   5.449   5.917
 6931TIP3   OH242207   1.074   1.357  15.805
 6931TIP3    H142208   1.057   1.288  15.741
 6931TIP3    H242209   1.013   1.427  15.783
 6932TIP3   OH242210   5.343   3.672   0.359
 6932TIP3    H142211   5.373   3.740   0.299
 6932TIP3    H242212   5.295   3.719   0.427
 6933TIP3   OH242213   0.286   5.165  13.975
 6933TIP3    H142214   0.352   5.137  14.038
 6933TIP3    H242215   0.295   5.260  13.970
 6934TIP3   OH242216   0.019   0.799   3.051
 6934TIP3    H142217   0.004   0.890   3.028
 6934TIP3    H242218   0.067   0.803   3.134
 6935TIP3   OH242219   1.436   1.969  14.313
 6935TIP3    H142220   1.520   1.966  14.360
 6935TIP3    H242221   1.378   2.018  14.371
 6936TIP3   OH242222   5.015   5.738  13.545
 6936TIP3    H142223   4.998   5.832  13.545
 6936TIP3    H242224   5.097   5.728  13.593
 6937TIP3   OH242225   4.948   6.482  11.439
 6937TIP3    H142226   5.005   6.557  11.456
 6937TIP3    H242227   4.869   6.519  11.401
 6938TIP3   OH242228   2.993   2.327   6.253
 6938TIP3    H142229   2.947   2.395   6.303
 6938TIP3    H242230   3.078   2.321   6.296
 6939TIP3   OH242231   2.796   6.394   4.561
 6939TIP3    H142232   2.818   6.330   4.493
 6939TIP3    H242233   2.736   6.346   4.619
 6940TIP3   OH242234   4.178   5.789  15.454
 6940TIP3    H142235   4.256   5.822  15.497
 6940TIP3    H242236   4.162   5.851  15.382
 6941TIP3   OH242237   1.332   1.637   5.408
 6941TIP3    H142238   1.273   1.710   5.390
 6941TIP3    H242239   1.275   1.567   5.438
 6942TIP3   OH242240   4.953   5.749  16.814
 6942TIP3    H142241   5.015   5.677  16.825
 6942TIP3    H242242   4.993   5.806  16.748
 6943TIP3   OH242243   6.406   5.987   5.165
 6943TIP3    H142244   6.498   5.961   5.168
 6943TIP3    H242245   6.370   5.937   5.091
 6944TIP3   OH242246   4.452   0.195   5.624
 6944TIP3    H142247   4.380   0.144   5.588
 6944TIP3    H242248   4.531   0.154   5.588
 6945TIP3   OH242249   1.041   4.952   3.779
 6945TIP3    H142250   1.068   4.907   3.859
 6945TIP3    H242251   0.959   4.910   3.754
 6946TIP3   OH242252   2.639   4.078  11.869
 6946TIP3    H142253   2.695   4.152  11.890
 6946TIP3    H242254   2.562   4.117  11.827
 6947TIP3   OH242255   0.152   1.342   5.946
 6947TIP3    H142256   0.092   1.267   5.952
 6947TIP3    H242257   0.150   1.366   5.853
 6948TIP3   OH242258   3.989   1.702  13.256
 6948TIP3    H142259   4.061   1.650  13.219
 6948TIP3    H242260   4.030   1.784  13.284
 6949TIP3   OH242261   3.348   6.461   1.426
 6949TIP3    H142262   3.256   6.440   1.413
 6949TIP3    H242263   3.347   6.532   1.491
 6950TIP3   OH242264   5.109   4.652  16.756
 6950TIP3    H142265   5.170   4.587  16.722
 6950TIP3    H242266   5.132   4.659  16.849
 6951TIP3   OH242267   6.736   4.442   2.727
 6951TIP3    H142268   6.686   4.503   2.781
 6951TIP3    H242269   6.746   4.486   2.643
 6952TIP3   OH242270   3.913   5.772  16.379
 6952TIP3    H142271   4.008   5.787  16.378
 6952TIP3    H242272   3.897   5.726  16.462
 6953TIP3   OH242273   1.734   1.040   0.497
 6953TIP3    H142274   1.733   1.059   0.403
 6953TIP3    H242275   1.699   1.119   0.538
 6954TIP3   OH242276   3.827   2.371  14.654
 6954TIP3    H142277   3.869   2.397  14.572
 6954TIP3    H242278   3.771   2.445  14.677
 6955TIP3   OH242279   0.650   0.092   1.410
 6955TIP3    H142280   0.645   0.051   1.496
 6955TIP3    H242281   0.591   0.040   1.355
 6956TIP3   OH242282   5.206   0.350  15.058
 6956TIP3    H142283   5.172   0.374  14.972
 6956TIP3    H242284   5.270   0.418  15.079
 6957TIP3   OH242285   5.005   3.727   1.154
 6957TIP3    H142286   5.021   3.817   1.182
 6957TIP3    H242287   5.075   3.677   1.196
 6958TIP3   OH242288   0.710   0.087  12.346
 6958TIP3    H142289   0.633   0.029  12.348
 6958TIP3    H242290   0.682   0.161  12.292
 6959TIP3   OH242291   6.452   2.237  14.350
 6959TIP3    H142292   6.502   2.301  14.400
 6959TIP3    H242293   6.447   2.273  14.262
 6960TIP3   OH242294   4.256   3.325  16.803
 6960TIP3    H142295   4.208   3.276  16.736
 6960TIP3    H242296   4.347   3.326  16.772
 6961TIP3   OH242297   5.491   2.097  15.368
 6961TIP3    H142298   5.399   2.098  15.342
 6961TIP3    H242299   5.539   2.104  15.285
 6962TIP3   OH242300   0.630   3.605   2.343
 6962TIP3    H142301   0.632   3.509   2.348
 6962TIP3    H242302   0.560   3.624   2.281
 6963TIP3   OH242303   2.381   6.572   2.521
 6963TIP3    H142304   2.470   6.539   2.519
 6963TIP3    H242305   2.376   6.634   2.449
 6964TIP3   OH242306   5.236   1.215   1.744
 6964TIP3    H142307   5.223   1.134   1.693
 6964TIP3    H242308   5.263   1.185   1.830
 6965TIP3   OH242309   3.521   5.835   2.778
 6965TIP3    H142310   3.449   5.775   2.796
 6965TIP3    H242311   3.551   5.811   2.690
 6966TIP3   OH242312   6.364   1.181   3.499
 6966TIP3    H142313   6.413   1.231   3.433
 6966TIP3    H242314   6.427   1.166   3.570
 6967TIP3   OH242315   2.404   3.122  13.003
 6967TIP3    H142316   2.390   3.032  13.031
 6967TIP3    H242317   2.495   3.141  13.026
 6968TIP3   OH242318   5.517   3.064  16.981
 6968TIP3    H142319   5.467   3.142  17.008
 6968TIP3    H242320   5.546   3.025  17.064
 6969TIP3   OH242321   4.432   0.056  16.087
 6969TIP3    H142322   4.375   0.045  16.010
 6969TIP3    H242323   4.436   0.150  16.101
 6970TIP3   OH242324   3.031   0.746  16.364
 6970TIP3    H142325   3.052   0.692  16.441
 6970TIP3    H242326   2.938   0.766  16.373
 6971TIP3   OH242327   2.641   6.338  11.334
 6971TIP3    H142328   2.731   6.364  11.354
 6971TIP3    H242329   2.603   6.413  11.290
 6972TIP3   OH242330   6.179   2.747   5.007
 6972TIP3    H142331   6.208   2.662   4.975
 6972TIP3    H242332   6.200   2.746   5.100
 6973TIP3   OH242333   0.635   3.151  15.547
 6973TIP3    H142334   0.605   3.218  15.485
 6973TIP3    H242335   0.636   3.070  15.496
 6974TIP3   OH242336   6.102   6.237   1.395
 6974TIP3    H142337   6.089   6.331   1.403
 6974TIP3    H242338   6.134   6.225   1.306
 6975TIP3   OH242339   0.637   6.045  11.817
 6975TIP3    H142340   0.585   5.993  11.878
 6975TIP3    H242341   0.617   6.136  11.840
 6976TIP3   OH242342   4.737   5.928   2.115
 6976TIP3    H142343   4.732   6.008   2.168
 6976TIP3    H242344   4.808   5.945   2.053
 6977TIP3   OH242345   3.603   4.579  15.153
 6977TIP3    H142346   3.685   4.537  15.127
 6977TIP3    H242347   3.606   4.665  15.113
 6978TIP3   OH242348   6.349   0.469  15.103
 6978TIP3    H142349   6.433   0.470  15.148
 6978TIP3    H242350   6.293   0.413  15.157
 6979TIP3   OH242351   0.338   4.979   4.474
 6979TIP3    H142352   0.344   4.979   4.379
 6979TIP3    H242353   0.425   5.005   4.503
 6980TIP3   OH242354   3.614   3.471   2.162
 6980TIP3    H142355   3.551   3.520   2.109
 6980TIP3    H242356   3.693   3.525   2.161
 6981TIP3   OH242357   1.759   5.974   5.497
 6981TIP3    H142358   1.849   5.943   5.501
 6981TIP3    H242359   1.735   5.992   5.588
 6982TIP3   OH242360   6.601   0.482   2.228
 6982TIP3    H142361   6.531   0.432   2.186
 6982TIP3    H242362   6.658   0.509   2.156
 6983TIP3   OH242363   4.634   3.327   4.569
 6983TIP3    H142364   4.590   3.329   4.483
 6983TIP3    H242365   4.726   3.309   4.548
 6984TIP3   OH242366   0.180   6.592   4.160
 6984TIP3    H142367   0.176   6.517   4.218
 6984TIP3    H242368   0.266   6.631   4.177
 6985TIP3   OH242369   6.329   4.926   0.856
 6985TIP3    H142370   6.416   4.959   0.832
 6985TIP3    H242371   6.280   4.926   0.773
 6986TIP3   OH242372   1.226   6.018   2.262
 6986TIP3    H142373   1.261   5.932   2.238
 6986TIP3    H242374   1.183   6.050   2.183
 6987TIP3   OH242375   2.388   2.788   0.654
 6987TIP3    H142376   2.300   2.752   0.652
 6987TIP3    H242377   2.439   2.726   0.707
 6988TIP3   OH242378   4.467   6.474  15.181
 6988TIP3    H142379   4.389   6.530  15.183
 6988TIP3    H242380   4.515   6.496  15.261
 6989TIP3   OH242381   3.087   5.817   2.653
 6989TIP3    H142382   3.140   5.818   2.573
 6989TIP3    H242383   3.081   5.725   2.676
 6990TIP3   OH242384   3.773   1.252  14.026
 6990TIP3    H142385   3.856   1.219  13.993
 6990TIP3    H242386   3.743   1.312  13.958
 6991TIP3   OH242387   5.675   2.649   6.251
 6991TIP3    H142388   5.741   2.643   6.321
 6991TIP3    H242389   5.664   2.559   6.221
 6992TIP3   OH242390   2.268   4.327   5.933
 6992TIP3    H142391   2.240   4.362   6.018
 6992TIP3    H242392   2.233   4.388   5.869
 6993TIP3   OH242393   0.834   0.247   1.573
 6993TIP3    H142394   0.747   0.228   1.539
 6993TIP3    H242395   0.856   0.171   1.626
 6994TIP3   OH242396   1.366   3.084   4.626
 6994TIP3    H142397   1.400   3.033   4.700
 6994TIP3    H242398   1.277   3.050   4.613
 6995TIP3   OH242399   2.218   1.489   5.273
 6995TIP3    H142400   2.137   1.516   5.231
 6995TIP3    H242401   2.285   1.545   5.234
 6996TIP3   OH242402   4.961   1.152  11.511
 6996TIP3    H142403   4.986   1.218  11.576
 6996TIP3    H242404   5.037   1.094  11.506
 6997TIP3   OH242405   3.699   0.933  16.801
 6997TIP3    H142406   3.638   0.948  16.873
 6997TIP3    H242407   3.759   1.008  16.804
 6998TIP3   OH242408   2.867   0.595   0.404
 6998TIP3    H142409   2.848   0.508   0.369
 6998TIP3    H242410   2.960   0.607   0.390
 6999TIP3   OH242411   5.322   4.237   0.194
 6999TIP3    H142412   5.407   4.238   0.150
 6999TIP3    H242413   5.266   4.292   0.139
 7000TIP3   OH242414   4.163   2.293  13.115
 7000TIP3    H142415   4.156   2.249  13.030
 7000TIP3    H242416   4.126   2.380  13.101
 7001TIP3   OH242417   4.751   3.299  15.506
 7001TIP3    H142418   4.671   3.317  15.554
 7001TIP3    H242419   4.801   3.241  15.563
 7002TIP3   OH242420   3.680   2.315  15.590
 7002TIP3    H142421   3.776   2.311  15.583
 7002TIP3    H242422   3.656   2.393  15.540
 7003TIP3   OH242423   4.006   4.269  17.071
 7003TIP3    H142424   4.041   4.358  17.071
 7003TIP3    H242425   4.071   4.217  17.119
 7004TIP3   OH242426   2.650   6.769  15.678
 7004TIP3    H142427   2.647   6.752  15.772
 7004TIP3    H242428   2.678   6.861  15.671
 7005TIP3   OH242429   3.973   0.478   1.970
 7005TIP3    H142430   3.881   0.455   1.978
 7005TIP3    H242431   3.973   0.562   1.924
 7006TIP3   OH242432   0.833   2.267   3.375
 7006TIP3    H142433   0.754   2.239   3.421
 7006TIP3    H242434   0.847   2.201   3.308
 7007TIP3   OH242435   2.473   1.956  14.325
 7007TIP3    H142436   2.381   1.954  14.300
 7007TIP3    H242437   2.473   1.955  14.421
 7008TIP3   OH242438   4.596   2.838  11.373
 7008TIP3    H142439   4.581   2.927  11.341
 7008TIP3    H242440   4.616   2.787  11.294
 7009TIP3   OH242441   0.486   1.607  16.338
 7009TIP3    H142442   0.517   1.667  16.405
 7009TIP3    H242443   0.390   1.610  16.345
 7010TIP3   OH242444   4.078   4.265  15.154
 7010TIP3    H142445   4.012   4.220  15.101
 7010TIP3    H242446   4.136   4.306  15.089
 7011TIP3   OH242447   2.404   1.941  13.930
 7011TIP3    H142448   2.495   1.911  13.927
 7011TIP3    H242449   2.379   1.934  14.022
 7012TIP3   OH242450   6.043   2.015  13.148
 7012TIP3    H142451   6.004   2.091  13.192
 7012TIP3    H242452   6.125   2.000  13.195
 7013TIP3   OH242453   0.931   2.788   1.957
 7013TIP3    H142454   0.895   2.788   1.869
 7013TIP3    H242455   1.015   2.743   1.949
 7014TIP3   OH242456   3.742   1.710  12.594
 7014TIP3    H142457   3.756   1.616  12.601
 7014TIP3    H242458   3.824   1.749  12.622
 7015TIP3   OH242459   5.594   0.564   0.511
 7015TIP3    H142460   5.557   0.615   0.583
 7015TIP3    H242461   5.520   0.518   0.473
 7016TIP3   OH242462   4.592   0.426   1.308
 7016TIP3    H142463   4.635   0.489   1.365
 7016TIP3    H242464   4.655   0.408   1.238
 7017TIP3   OH242465   3.826   4.541  16.850
 7017TIP3    H142466   3.887   4.497  16.791
 7017TIP3    H242467   3.877   4.557  16.930
 7018TIP3   OH242468   3.293   0.955   3.242
 7018TIP3    H142469   3.373   1.000   3.216
 7018TIP3    H242470   3.323   0.875   3.284
 7019TIP3   OH242471   1.710   4.107  17.169
 7019TIP3    H142472   1.765   4.126  17.093
 7019TIP3    H242473   1.768   4.120  17.244
 7020TIP3   OH242474   5.011   3.107  12.270
 7020TIP3    H142475   4.945   3.170  12.297
 7020TIP3    H242476   4.972   3.062  12.194
 7021TIP3   OH242477   4.529   3.345  13.592
 7021TIP3    H142478   4.551   3.252  13.601
 7021TIP3    H242479   4.595   3.390  13.644
 7022TIP3   OH242480   5.130   4.579  10.417
 7022TIP3    H142481   5.162   4.541  10.499
 7022TIP3    H242482   5.037   4.557  10.415
 7023TIP3   OH242483   3.797   4.906   3.708
 7023TIP3    H142484   3.773   4.954   3.788
 7023TIP3    H242485   3.799   4.973   3.640
 7024TIP3   OH242486   2.530   0.804  15.403
 7024TIP3    H142487   2.603   0.837  15.456
 7024TIP3    H242488   2.486   0.741  15.460
 7025TIP3   OH242489   5.262   6.427   1.787
 7025TIP3    H142490   5.208   6.416   1.866
 7025TIP3    H242491   5.209   6.389   1.717
 7026TIP3   OH242492   1.142   1.477   0.666
 7026TIP3    H142493   1.236   1.484   0.678
 7026TIP3    H242494   1.104   1.531   0.735
 7027TIP3   OH242495   6.513   3.097  15.180
 7027TIP3    H142496   6.605   3.113  15.201
 7027TIP3    H242497   6.513   3.012  15.135
 7028TIP3   OH242498   2.641   2.864  13.153
 7028TIP3    H142499   2.708   2.919  13.111
 7028TIP3    H242500   2.680   2.838  13.236
 7029TIP3   OH242501   1.552   6.001   1.385
 7029TIP3    H142502   1.591   6.002   1.473
 7029TIP3    H242503   1.594   5.927   1.341
 7030TIP3   OH242504   0.552   0.132   4.674
 7030TIP3    H142505   0.637   0.117   4.633
 7030TIP3    H242506   0.564   0.106   4.765
 7031TIP3   OH242507   6.302   2.805  11.673
 7031TIP3    H142508   6.298   2.740  11.743
 7031TIP3    H242509   6.211   2.822  11.651
 7032TIP3   OH242510   2.676   2.223   2.658
 7032TIP3    H142511   2.683   2.315   2.633
 7032TIP3    H242512   2.613   2.222   2.730
 7033TIP3   OH242513   1.649   1.680   5.071
 7033TIP3    H142514   1.676   1.730   4.994
 7033TIP3    H242515   1.625   1.745   5.136
 7034TIP3   OH242516   5.404   1.579  14.129
 7034TIP3    H142517   5.308   1.588  14.126
 7034TIP3    H242518   5.430   1.578  14.036
 7035TIP3   OH242519   3.804   1.971   4.021
 7035TIP3    H142520   3.739   2.036   3.993
 7035TIP3    H242521   3.878   1.986   3.962
 7036TIP3   OH242522   3.727   5.234   0.791
 7036TIP3    H142523   3.636   5.227   0.762
 7036TIP3    H242524   3.762   5.309   0.744
 7037TIP3   OH242525   0.078   4.133   3.844
 7037TIP3    H142526   0.056   4.087   3.763
 7037TIP3    H242527   0.149   4.193   3.819
 7038TIP3   OH242528   5.549   3.855  17.036
 7038TIP3    H142529   5.542   3.943  17.074
 7038TIP3    H242530   5.581   3.869  16.947
 7039TIP3   OH242531   6.572   1.814   3.379
 7039TIP3    H142532   6.578   1.734   3.432
 7039TIP3    H242533   6.582   1.784   3.289
 7040TIP3   OH242534   0.174   2.777   5.752
 7040TIP3    H142535   0.165   2.740   5.664
 7040TIP3    H242536   0.085   2.783   5.786
 7041TIP3   OH242537   5.242   3.561  13.555
 7041TIP3    H142538   5.196   3.531  13.633
 7041TIP3    H242539   5.332   3.577  13.584
 7042TIP3   OH242540   4.255   1.110  11.410
 7042TIP3    H142541   4.188   1.168  11.445
 7042TIP3    H242542   4.217   1.076  11.329
 7043TIP3   OH242543   3.977   6.106  15.082
 7043TIP3    H142544   4.047   6.147  15.031
 7043TIP3    H242545   3.898   6.119  15.029
 7044TIP3   OH242546   0.772   3.983  12.922
 7044TIP3    H142547   0.787   3.920  12.992
 7044TIP3    H242548   0.743   4.063  12.967
 7045TIP3   OH242549   6.699   1.456   4.390
 7045TIP3    H142550   6.701   1.368   4.428
 7045TIP3    H242551   6.790   1.483   4.388
 7046TIP3   OH242552   1.468   2.636   1.627
 7046TIP3    H142553   1.396   2.577   1.606
 7046TIP3    H242554   1.435   2.689   1.699
 7047TIP3   OH242555   2.701   2.803  16.969
 7047TIP3    H142556   2.662   2.748  17.037
 7047TIP3    H242557   2.795   2.789  16.978
 7048TIP3   OH242558   4.447   1.085   5.471
 7048TIP3    H142559   4.406   1.089   5.557
 7048TIP3    H242560   4.383   1.042   5.415
 7049TIP3   OH242561   4.691   3.803  11.566
 7049TIP3    H142562   4.709   3.791  11.473
 7049TIP3    H242563   4.596   3.814  11.571
 7050TIP3   OH242564   2.114   5.322  11.380
 7050TIP3    H142565   2.033   5.319  11.329
 7050TIP3    H242566   2.184   5.321  11.314
 7051TIP3   OH242567   0.740   4.632  14.426
 7051TIP3    H142568   0.718   4.566  14.491
 7051TIP3    H242569   0.833   4.619  14.408
 7052TIP3   OH242570   4.116   4.155  12.519
 7052TIP3    H142571   4.078   4.155  12.607
 7052TIP3    H242572   4.092   4.070  12.483
 7053TIP3   OH242573   0.632   5.881   4.557
 7053TIP3    H142574   0.663   5.963   4.519
 7053TIP3    H242575   0.544   5.901   4.589
 7054TIP3   OH242576   4.896   2.497  15.750
 7054TIP3    H142577   4.870   2.406  15.767
 7054TIP3    H242578   4.878   2.510  15.656
 7055TIP3   OH242579   0.866   1.677   1.032
 7055TIP3    H142580   0.775   1.674   1.062
 7055TIP3    H242581   0.907   1.745   1.087
 7056TIP3   OH242582   2.387   5.566  15.384
 7056TIP3    H142583   2.297   5.554  15.352
 7056TIP3    H242584   2.441   5.523  15.318
 7057TIP3   OH242585   0.648   4.361  13.311
 7057TIP3    H142586   0.677   4.423  13.244
 7057TIP3    H242587   0.693   4.389  13.391
 7058TIP3   OH242588   1.701   3.180   2.057
 7058TIP3    H142589   1.610   3.210   2.064
 7058TIP3    H242590   1.740   3.238   1.991
 7059TIP3   OH242591   0.198   3.356  14.116
 7059TIP3    H142592   0.145   3.395  14.186
 7059TIP3    H242593   0.275   3.411  14.110
 7060TIP3   OH242594   3.200   2.229  13.821
 7060TIP3    H142595   3.227   2.312  13.782
 7060TIP3    H242596   3.278   2.198  13.867
 7061TIP3   OH242597   0.325   3.207  15.595
 7061TIP3    H142598   0.358   3.297  15.600
 7061TIP3    H242599   0.334   3.182  15.503
 7062TIP3   OH242600   0.142   1.165  14.875
 7062TIP3    H142601   0.226   1.121  14.882
 7062TIP3    H242602   0.161   1.250  14.836
 7063TIP3   OH242603   6.382   4.971  14.101
 7063TIP3    H142604   6.389   4.953  14.195
 7063TIP3    H242605   6.426   5.055  14.089
 7064TIP3   OH242606   0.969   5.020  16.338
 7064TIP3    H142607   0.919   4.997  16.417
 7064TIP3    H242608   0.912   5.081  16.291
 7065TIP3   OH242609   5.755   6.052  16.403
 7065TIP3    H142610   5.766   6.142  16.432
 7065TIP3    H242611   5.663   6.046  16.377
 7066TIP3   OH242612   5.311   6.561   4.425
 7066TIP3    H142613   5.254   6.638   4.419
 7066TIP3    H242614   5.285   6.507   4.351
 7067TIP3   OH242615   1.361   4.225   2.894
 7067TIP3    H142616   1.336   4.153   2.836
 7067TIP3    H242617   1.449   4.200   2.925
 7068TIP3   OH242618   4.883   6.445  16.443
 7068TIP3    H142619   4.890   6.521  16.501
 7068TIP3    H242620   4.794   6.449  16.408
 7069TIP3   OH242621   5.803   5.461  13.764
 7069TIP3    H142622   5.745   5.448  13.689
 7069TIP3    H242623   5.752   5.428  13.839
 7070TIP3   OH242624   4.121   6.270  16.538
 7070TIP3    H142625   4.200   6.216  16.543
 7070TIP3    H242626   4.154   6.360  16.541
 7071TIP3   OH242627   3.750   3.756   0.822
 7071TIP3    H142628   3.745   3.852   0.829
 7071TIP3    H242629   3.679   3.732   0.763
 7072TIP3   OH242630   1.759   3.863  11.363
 7072TIP3    H142631   1.790   3.786  11.412
 7072TIP3    H242632   1.736   3.828  11.277
 7073TIP3   OH242633   3.858   0.160  14.750
 7073TIP3    H142634   3.792   0.106  14.794
 7073TIP3    H242635   3.901   0.099  14.689
 7074TIP3   OH242636   1.036   4.477  13.621
 7074TIP3    H142637   1.106   4.514  13.675
 7074TIP3    H242638   1.080   4.408  13.570
 7075TIP3   OH242639   0.180   4.876   1.136
 7075TIP3    H142640   0.234   4.949   1.108
 7075TIP3    H242641   0.241   4.817   1.180
 7076TIP3   OH242642   5.999   5.252  13.066
 7076TIP3    H142643   6.076   5.282  13.114
 7076TIP3    H242644   6.005   5.293  12.981
 7077TIP3   OH242645   1.699   2.688   1.248
 7077TIP3    H142646   1.635   2.621   1.222
 7077TIP3    H242647   1.649   2.747   1.304
 7078TIP3   OH242648   0.851   1.107   5.345
 7078TIP3    H142649   0.872   1.130   5.255
 7078TIP3    H242650   0.936   1.094   5.387
 7079TIP3   OH242651   5.214   5.165   1.952
 7079TIP3    H142652   5.273   5.169   1.876
 7079TIP3    H242653   5.136   5.213   1.925
 7080TIP3   OH242654   3.310   0.094  14.609
 7080TIP3    H142655   3.292   0.001  14.610
 7080TIP3    H242656   3.228   0.135  14.581
 7081TIP3   OH242657   5.068   0.808   0.184
 7081TIP3    H142658   5.052   0.849   0.099
 7081TIP3    H242659   4.980   0.790   0.218
 7082TIP3   OH242660   1.528   6.513  11.343
 7082TIP3    H142661   1.608   6.566  11.340
 7082TIP3    H242662   1.478   6.542  11.267
 7083TIP3   OH242663   4.307   4.488  14.950
 7083TIP3    H142664   4.373   4.551  14.922
 7083TIP3    H242665   4.348   4.439  15.021
 7084TIP3   OH242666   4.374   5.871   4.421
 7084TIP3    H142667   4.299   5.821   4.453
 7084TIP3    H242668   4.390   5.936   4.490
 7085TIP3   OH242669   5.050   6.758  11.443
 7085TIP3    H142670   5.105   6.764  11.520
 7085TIP3    H242671   5.085   6.824  11.383
 7086TIP3   OH242672   0.089   2.502  13.129
 7086TIP3    H142673   0.098   2.417  13.086
 7086TIP3    H242674   0.173   2.515  13.174
 7087TIP3   OH242675   3.597   0.536   2.506
 7087TIP3    H142676   3.608   0.566   2.416
 7087TIP3    H242677   3.504   0.547   2.524
 7088TIP3   OH242678   3.925   3.268   0.313
 7088TIP3    H142679   3.872   3.213   0.371
 7088TIP3    H242680   3.964   3.206   0.251
 7089TIP3   OH242681   4.519   1.897   5.058
 7089TIP3    H142682   4.509   1.814   5.011
 7089TIP3    H242683   4.610   1.922   5.045
 7090TIP3   OH242684   0.233   6.458  10.413
 7090TIP3    H142685   0.163   6.474  10.476
 7090TIP3    H242686   0.246   6.543  10.370
 7091TIP3   OH242687   1.645   5.575  11.584
 7091TIP3    H142688   1.647   5.637  11.511
 7091TIP3    H242689   1.730   5.587  11.627
 7092TIP3   OH242690   2.726   2.304  11.000
 7092TIP3    H142691   2.739   2.301  10.905
 7092TIP3    H242692   2.732   2.397  11.022
 7093TIP3   OH242693   1.796   5.799  12.412
 7093TIP3    H142694   1.824   5.720  12.366
 7093TIP3    H242695   1.831   5.871  12.359
 7094TIP3   OH242696   0.146   6.394  16.045
 7094TIP3    H142697   0.054   6.394  16.069
 7094TIP3    H242698   0.161   6.307  16.007
 7095TIP3   OH242699   1.067   2.927   5.586
 7095TIP3    H142700   1.056   2.963   5.497
 7095TIP3    H242701   1.129   2.855   5.576
 7096TIP3   OH242702   4.462   6.599  12.185
 7096TIP3    H142703   4.482   6.630  12.273
 7096TIP3    H242704   4.537   6.546  12.160
 7097TIP3   OH242705   2.269   4.750   0.029
 7097TIP3    H142706   2.211   4.776  -0.042
 7097TIP3    H242707   2.274   4.655   0.023
 7098TIP3   OH242708   0.783   6.087  13.525
 7098TIP3    H142709   0.803   6.076  13.618
 7098TIP3    H242710   0.772   5.998  13.492
 7099TIP3   OH242711   1.308   2.678   4.406
 7099TIP3    H142712   1.378   2.695   4.343
 7099TIP3    H242713   1.274   2.765   4.427
 7100TIP3   OH242714   1.947   4.845  16.382
 7100TIP3    H142715   1.998   4.786  16.438
 7100TIP3    H242716   1.875   4.790  16.350
 7101TIP3   OH242717   0.128   1.718   6.321
 7101TIP3    H142718   0.071   1.789   6.293
 7101TIP3    H242719   0.216   1.746   6.295
 7102TIP3   OH242720   1.254   0.072  11.990
 7102TIP3    H142721   1.237  -0.018  12.017
 7102TIP3    H242722   1.332   0.098  12.039
 7103TIP3   OH242723   6.689   0.184  11.805
 7103TIP3    H142724   6.636   0.129  11.747
 7103TIP3    H242725   6.635   0.194  11.884
 7104TIP3   OH242726   3.735   1.847  16.242
 7104TIP3    H142727   3.772   1.764  16.213
 7104TIP3    H242728   3.789   1.874  16.316
 7105TIP3   OH242729   3.614   4.812  15.016
 7105TIP3    H142730   3.560   4.782  14.943
 7105TIP3    H242731   3.699   4.833  14.975
 7106TIP3   OH242732   4.951   0.485  16.748
 7106TIP3    H142733   4.967   0.404  16.796
 7106TIP3    H242734   4.855   0.489  16.738
 7107TIP3   OH242735   4.063   6.136  12.047
 7107TIP3    H142736   4.146   6.143  11.999
 7107TIP3    H242737   4.076   6.060  12.105
 7108TIP3   OH242738   0.408   6.207  12.529
 7108TIP3    H142739   0.467   6.234  12.600
 7108TIP3    H242740   0.451   6.240  12.450
 7109TIP3   OH242741   1.945   2.577  15.513
 7109TIP3    H142742   1.897   2.589  15.595
 7109TIP3    H242743   2.009   2.508  15.532
 7110TIP3   OH242744   5.440   6.162  11.902
 7110TIP3    H142745   5.395   6.230  11.852
 7110TIP3    H242746   5.440   6.085  11.846
 7111TIP3   OH242747   3.080   2.685  11.512
 7111TIP3    H142748   3.128   2.731  11.581
 7111TIP3    H242749   2.988   2.705  11.529
 7112TIP3   OH242750   2.051   4.211   2.418
 7112TIP3    H142751   2.131   4.204   2.471
 7112TIP3    H242752   2.004   4.285   2.456
 7113TIP3   OH242753   5.013   6.183  11.597
 7113TIP3    H142754   5.085   6.214  11.541
 7113TIP3    H242755   4.987   6.261  11.647
 7114TIP3   OH242756   0.472   5.107   3.179
 7114TIP3    H142757   0.437   5.170   3.241
 7114TIP3    H242758   0.566   5.106   3.196
 7115TIP3   OH242759   3.433   5.897  13.544
 7115TIP3    H142760   3.453   5.868  13.455
 7115TIP3    H242761   3.348   5.857  13.563
 7116TIP3   OH242762   0.028   1.957   6.191
 7116TIP3    H142763  -0.031   1.982   6.263
 7116TIP3    H242764   0.112   1.997   6.214
 7117TIP3   OH242765   2.463   2.283  15.369
 7117TIP3    H142766   2.404   2.236  15.428
 7117TIP3    H242767   2.405   2.341  15.319
 7118TIP3   OH242768   5.200   3.651  14.690
 7118TIP3    H142769   5.146   3.572  14.691
 7118TIP3    H242770   5.285   3.622  14.658
 7119TIP3   OH242771   1.654   0.931   0.813
 7119TIP3    H142772   1.685   1.018   0.838
 7119TIP3    H242773   1.567   0.925   0.852
 7120TIP3   OH242774   1.261   2.978   2.273
 7120TIP3    H142775   1.323   3.051   2.275
 7120TIP3    H242776   1.209   2.992   2.194
 7121TIP3   OH242777   2.476   0.514  16.355
 7121TIP3    H142778   2.406   0.452  16.334
 7121TIP3    H242779   2.450   0.596  16.312
 7122TIP3   OH242780   1.531   4.519   3.618
 7122TIP3    H142781   1.514   4.457   3.690
 7122TIP3    H242782   1.455   4.577   3.617
 7123TIP3   OH242783   5.313   4.986  15.639
 7123TIP3    H142784   5.222   4.962  15.657
 7123TIP3    H242785   5.366   4.928  15.693
 7124TIP3   OH242786   6.088   2.133  15.214
 7124TIP3    H142787   6.021   2.186  15.257
 7124TIP3    H242788   6.152   2.114  15.282
 7125TIP3   OH242789   4.652   1.537  13.511
 7125TIP3    H142790   4.590   1.524  13.582
 7125TIP3    H242791   4.631   1.624  13.476
 7126TIP3   OH242792   1.484   2.296  13.145
 7126TIP3    H142793   1.571   2.330  13.165
 7126TIP3    H242794   1.435   2.305  13.227
 7127TIP3   OH242795   3.163   3.651   3.417
 7127TIP3    H142796   3.147   3.710   3.343
 7127TIP3    H242797   3.078   3.641   3.458
 7128TIP3   OH242798   4.271   2.151   5.966
 7128TIP3    H142799   4.205   2.212   5.932
 7128TIP3    H242800   4.229   2.108   6.040
 7129TIP3   OH242801   1.764   2.441  13.433
 7129TIP3    H142802   1.723   2.475  13.353
 7129TIP3    H242803   1.845   2.400  13.403
 7130TIP3   OH242804   5.200   5.051  13.235
 7130TIP3    H142805   5.149   5.090  13.306
 7130TIP3    H242806   5.268   5.116  13.217
 7131TIP3   OH242807   4.632   2.315  11.780
 7131TIP3    H142808   4.617   2.339  11.689
 7131TIP3    H242809   4.577   2.238  11.793
 7132TIP3   OH242810   4.870   4.712   5.880
 7132TIP3    H142811   4.876   4.663   5.962
 7132TIP3    H242812   4.936   4.671   5.823
 7133TIP3   OH242813   0.586   6.498  15.415
 7133TIP3    H142814   0.638   6.570  15.452
 7133TIP3    H242815   0.539   6.462  15.491
 7134TIP3   OH242816   6.294   3.741   1.122
 7134TIP3    H142817   6.217   3.693   1.092
 7134TIP3    H242818   6.365   3.678   1.116
 7135TIP3   OH242819   4.409   1.022  11.074
 7135TIP3    H142820   4.363   0.939  11.064
 7135TIP3    H242821   4.435   1.046  10.985
 7136TIP3   OH242822   1.720   1.626  11.023
 7136TIP3    H142823   1.720   1.644  10.929
 7136TIP3    H242824   1.789   1.561  11.035
 7137TIP3   OH242825   2.807   2.134   4.459
 7137TIP3    H142826   2.717   2.116   4.483
 7137TIP3    H242827   2.810   2.228   4.443
 7138TIP3   OH242828   6.767   1.123   5.933
 7138TIP3    H142829   6.776   1.030   5.953
 7138TIP3    H242830   6.729   1.161   6.013
 7139TIP3   OH242831   4.802   1.600   2.931
 7139TIP3    H142832   4.882   1.651   2.927
 7139TIP3    H242833   4.787   1.584   3.024
 7140TIP3   OH242834   0.131   4.263  12.409
 7140TIP3    H142835   0.145   4.237  12.500
 7140TIP3    H242836   0.036   4.270  12.400
 7141TIP3   OH242837   5.379   3.084   3.702
 7141TIP3    H142838   5.339   3.107   3.785
 7141TIP3    H242839   5.307   3.048   3.650
 7142TIP3   OH242840   2.793   1.398  16.465
 7142TIP3    H142841   2.808   1.450  16.544
 7142TIP3    H242842   2.708   1.357  16.479
 7143TIP3   OH242843   6.709   2.058  14.493
 7143TIP3    H142844   6.695   2.067  14.399
 7143TIP3    H242845   6.625   2.082  14.533
 7144TIP3   OH242846   1.872   4.845  11.846
 7144TIP3    H142847   1.866   4.827  11.940
 7144TIP3    H242848   1.793   4.897  11.827
 7145TIP3   OH242849   1.683   2.533  12.126
 7145TIP3    H142850   1.623   2.555  12.197
 7145TIP3    H242851   1.634   2.472  12.071
 7146TIP3   OH242852   4.816   1.091  10.802
 7146TIP3    H142853   4.880   1.097  10.731
 7146TIP3    H242854   4.750   1.157  10.781
 7147TIP3   OH242855   5.266   4.100  16.411
 7147TIP3    H142856   5.355   4.100  16.445
 7147TIP3    H242857   5.264   4.172  16.347
 7148TIP3   OH242858   6.386   0.287   4.857
 7148TIP3    H142859   6.296   0.310   4.879
 7148TIP3    H242860   6.401   0.203   4.901
 7149TIP3   OH242861   5.614   3.692   1.979
 7149TIP3    H142862   5.645   3.773   1.939
 7149TIP3    H242863   5.609   3.710   2.072
 7150TIP3   OH242864   2.310   3.433   2.266
 7150TIP3    H142865   2.226   3.459   2.303
 7150TIP3    H242866   2.375   3.486   2.313
 7151TIP3   OH242867   6.440   5.871   2.255
 7151TIP3    H142868   6.358   5.864   2.206
 7151TIP3    H242869   6.508   5.843   2.194
 7152TIP3   OH242870   1.142   4.439  12.278
 7152TIP3    H142871   1.101   4.438  12.192
 7152TIP3    H242872   1.207   4.509  12.273
 7153TIP3   OH242873   3.176   3.664  13.495
 7153TIP3    H142874   3.226   3.662  13.413
 7153TIP3    H242875   3.223   3.725  13.551
 7154TIP3   OH242876   2.304   0.209  10.620
 7154TIP3    H142877   2.240   0.138  10.618
 7154TIP3    H242878   2.367   0.187  10.552
 7155TIP3   OH242879   5.660   4.982  15.427
 7155TIP3    H142880   5.637   4.978  15.520
 7155TIP3    H242881   5.705   5.066  15.417
 7156TIP3   OH242882   3.381   4.818   2.535
 7156TIP3    H142883   3.394   4.808   2.441
 7156TIP3    H242884   3.416   4.737   2.573
 7157TIP3   OH242885   2.145   4.738   5.432
 7157TIP3    H142886   2.198   4.810   5.468
 7157TIP3    H242887   2.055   4.760   5.456
 7158TIP3   OH242888   4.602   4.837  13.582
 7158TIP3    H142889   4.638   4.912  13.535
 7158TIP3    H242890   4.678   4.797  13.625
 7159TIP3   OH242891   6.670   4.542   3.858
 7159TIP3    H142892   6.677   4.533   3.763
 7159TIP3    H242893   6.600   4.605   3.872
 7160TIP3   OH242894   5.302   1.126  11.391
 7160TIP3    H142895   5.236   1.063  11.420
 7160TIP3    H242896   5.355   1.078  11.327
 7161TIP3   OH242897   5.716   1.202   5.285
 7161TIP3    H142898   5.758   1.177   5.368
 7161TIP3    H242899   5.638   1.147   5.280
 7162TIP3   OH242900   3.687   4.536   3.956
 7162TIP3    H142901   3.683   4.632   3.947
 7162TIP3    H242902   3.772   4.520   3.998
 7163TIP3   OH242903   0.020   0.542   5.065
 7163TIP3    H142904   0.040   0.563   4.974
 7163TIP3    H242905  -0.071   0.569   5.077
 7164TIP3   OH242906   1.960   5.620  16.254
 7164TIP3    H142907   1.917   5.555  16.198
 7164TIP3    H242908   1.966   5.699  16.200
 7165TIP3   OH242909   2.272   4.831   0.297
 7165TIP3    H142910   2.265   4.816   0.203
 7165TIP3    H242911   2.226   4.914   0.313
 7166TIP3   OH242912   0.270   5.903  13.741
 7166TIP3    H142913   0.342   5.840  13.732
 7166TIP3    H242914   0.313   5.986  13.763
 7167TIP3   OH242915   4.537   1.151   6.601
 7167TIP3    H142916   4.472   1.219   6.619
 7167TIP3    H242917   4.592   1.188   6.531
 7168TIP3   OH242918   5.572   0.048   4.656
 7168TIP3    H142919   5.480   0.068   4.638
 7168TIP3    H242920   5.597  -0.014   4.587
 7169TIP3   OH242921   4.832   5.443  17.128
 7169TIP3    H142922   4.889   5.518  17.146
 7169TIP3    H242923   4.879   5.368  17.163
 7170TIP3   OH242924   6.331   2.091   3.916
 7170TIP3    H142925   6.284   2.148   3.856
 7170TIP3    H242926   6.269   2.021   3.937
 7171TIP3   OH242927   3.623   1.370  11.561
 7171TIP3    H142928   3.529   1.377  11.546
 7171TIP3    H242929   3.631   1.340  11.651
 7172TIP3   OH242930   1.150   1.805  16.547
 7172TIP3    H142931   1.120   1.889  16.582
 7172TIP3    H242932   1.069   1.761  16.520
 7173TIP3   OH242933   5.198   0.331  17.039
 7173TIP3    H142934   5.196   0.394  17.111
 7173TIP3    H242935   5.261   0.265  17.066
 7174TIP3   OH242936   2.791   2.764   2.613
 7174TIP3    H142937   2.875   2.791   2.651
 7174TIP3    H242938   2.763   2.838   2.560
 7175TIP3   OH242939   5.706   1.509   2.241
 7175TIP3    H142940   5.746   1.570   2.303
 7175TIP3    H242941   5.772   1.499   2.173
 7176TIP3   OH242942   2.629   5.218   3.045
 7176TIP3    H142943   2.572   5.295   3.052
 7176TIP3    H242944   2.598   5.173   2.966
 7177TIP3   OH242945   5.969   6.476   1.798
 7177TIP3    H142946   5.928   6.557   1.768
 7177TIP3    H242947   6.062   6.496   1.802
 7178TIP3   OH242948   3.418   6.055  15.513
 7178TIP3    H142949   3.494   6.017  15.557
 7178TIP3    H242950   3.418   6.147  15.541
 7179TIP3   OH242951   1.783   1.036  14.355
 7179TIP3    H142952   1.755   1.118  14.313
 7179TIP3    H242953   1.769   0.969  14.288
 7180TIP3   OH242954   0.805   0.757   5.873
 7180TIP3    H142955   0.761   0.692   5.819
 7180TIP3    H242956   0.896   0.756   5.844
 7181TIP3   OH242957   2.545   2.940  11.787
 7181TIP3    H142958   2.471   2.965  11.731
 7181TIP3    H242959   2.553   3.012  11.850
 7182TIP3   OH242960   0.187   3.264   1.191
 7182TIP3    H142961   0.223   3.308   1.114
 7182TIP3    H242962   0.191   3.171   1.170
 7183TIP3   OH242963   1.606   6.354   6.187
 7183TIP3    H142964   1.669   6.306   6.240
 7183TIP3    H242965   1.650   6.438   6.168
 7184TIP3   OH242966   5.045   1.203   3.517
 7184TIP3    H142967   5.087   1.117   3.528
 7184TIP3    H242968   4.972   1.202   3.579
 7185TIP3   OH242969   5.472   1.754  16.008
 7185TIP3    H142970   5.556   1.756  16.053
 7185TIP3    H242971   5.425   1.681  16.048
 7186TIP3   OH242972   5.028   3.721   3.464
 7186TIP3    H142973   4.941   3.683   3.455
 7186TIP3    H242974   5.085   3.665   3.411
 7187TIP3   OH242975   5.792   4.020  16.080
 7187TIP3    H142976   5.878   3.979  16.090
 7187TIP3    H242977   5.810   4.101  16.033
 7188TIP3   OH242978   3.568   4.056   3.912
 7188TIP3    H142979   3.588   4.135   3.962
 7188TIP3    H242980   3.606   4.073   3.825
 7189TIP3   OH242981   5.604   5.409   5.086
 7189TIP3    H142982   5.653   5.437   5.162
 7189TIP3    H242983   5.512   5.424   5.110
 7190TIP3   OH242984   3.023   2.477  14.180
 7190TIP3    H142985   3.110   2.439  14.197
 7190TIP3    H242986   3.020   2.487  14.085
 7191TIP3   OH242987   4.438   6.347  12.371
 7191TIP3    H142988   4.365   6.367  12.312
 7191TIP3    H242989   4.507   6.409  12.346
 7192TIP3   OH242990   2.041   2.202  13.714
 7192TIP3    H142991   1.999   2.141  13.774
 7192TIP3    H242992   1.974   2.268  13.696
 7193TIP3   OH242993   2.273   0.122  11.562
 7193TIP3    H142994   2.244   0.049  11.617
 7193TIP3    H242995   2.333   0.171  11.617
 7194TIP3   OH242996   3.918   5.224   2.202
 7194TIP3    H142997   3.865   5.233   2.281
 7194TIP3    H242998   3.944   5.132   2.200
 7195TIP3   OH242999   4.666   1.493  11.513
 7195TIP3    H143000   4.620   1.410  11.507
 7195TIP3    H243001   4.711   1.503  11.429
 7196TIP3   OH243002   2.912   1.446  12.070
 7196TIP3    H143003   2.989   1.414  12.116
 7196TIP3    H243004   2.848   1.463  12.139
 7197TIP3   OH243005   2.234   2.531   2.743
 7197TIP3    H143006   2.236   2.449   2.793
 7197TIP3    H243007   2.305   2.584   2.780
 7198TIP3   OH243008   0.521   2.549   6.451
 7198TIP3    H143009   0.443   2.497   6.470
 7198TIP3    H243010   0.512   2.626   6.507
 7199TIP3   OH243011   3.002   1.923  15.536
 7199TIP3    H143012   2.962   1.883  15.458
 7199TIP3    H243013   3.082   1.964  15.504
 7200TIP3   OH243014   5.697   2.858  12.345
 7200TIP3    H143015   5.754   2.825  12.414
 7200TIP3    H243016   5.751   2.857  12.266
 7201TIP3   OH243017   5.552   4.079   5.752
 7201TIP3    H143018   5.476   4.107   5.700
 7201TIP3    H243019   5.514   4.025   5.822
 7202TIP3   OH243020   2.573   0.174  16.671
 7202TIP3    H143021   2.624   0.245  16.709
 7202TIP3    H243022   2.593   0.098  16.724
 7203TIP3   OH243023   4.454   5.189   5.579
 7203TIP3    H143024   4.527   5.152   5.628
 7203TIP3    H243025   4.424   5.263   5.633
 7204TIP3   OH243026   2.704   4.668   4.077
 7204TIP3    H143027   2.695   4.739   4.140
 7204TIP3    H243028   2.788   4.685   4.033
 7205TIP3   OH243029   5.090   5.559   1.911
 7205TIP3    H143030   5.055   5.647   1.927
 7205TIP3    H243031   5.099   5.552   1.816
 7206TIP3   OH243032   5.119   6.728   0.770
 7206TIP3    H143033   5.189   6.781   0.731
 7206TIP3    H243034   5.065   6.703   0.695
 7207TIP3   OH243035   2.808   2.412  10.746
 7207TIP3    H143036   2.896   2.417  10.784
 7207TIP3    H243037   2.820   2.362  10.665
 7208TIP3   OH243038   1.190   3.482  10.881
 7208TIP3    H143039   1.253   3.549  10.856
 7208TIP3    H243040   1.149   3.455  10.799
 7209TIP3   OH243041   5.530   6.248   1.148
 7209TIP3    H143042   5.521   6.203   1.232
 7209TIP3    H243043   5.572   6.331   1.171
 7210TIP3   OH243044   4.547   3.851   5.194
 7210TIP3    H143045   4.505   3.935   5.213
 7210TIP3    H243046   4.516   3.793   5.264
 7211TIP3   OH243047   6.171   3.187  16.083
 7211TIP3    H143048   6.085   3.157  16.113
 7211TIP3    H243049   6.185   3.139  16.002
 7212TIP3   OH243050   6.071   6.241  17.220
 7212TIP3    H143051   5.990   6.195  17.242
 7212TIP3    H243052   6.061   6.328  17.258
 7213TIP3   OH243053   1.645   2.123  14.628
 7213TIP3    H143054   1.634   2.127  14.533
 7213TIP3    H243055   1.569   2.073  14.659
 7214TIP3   OH243056   1.185   0.915  16.450
 7214TIP3    H143057   1.228   0.989  16.407
 7214TIP3    H243058   1.204   0.926  16.543
 7215TIP3   OH243059   2.807   1.520  16.701
 7215TIP3    H143060   2.843   1.436  16.729
 7215TIP3    H243061   2.862   1.586  16.745
 7216TIP3   OH243062   2.121   1.804   4.396
 7216TIP3    H143063   2.048   1.751   4.364
 7216TIP3    H243064   2.135   1.775   4.486
 7217TIP3   OH243065   5.236   1.561   6.591
 7217TIP3    H143066   5.268   1.534   6.505
 7217TIP3    H243067   5.192   1.644   6.575
 7218TIP3   OH243068   1.308   5.772   5.819
 7218TIP3    H143069   1.262   5.856   5.825
 7218TIP3    H243070   1.400   5.796   5.805
 7219TIP3   OH243071   5.991   0.442   5.578
 7219TIP3    H143072   5.948   0.426   5.662
 7219TIP3    H243073   5.941   0.389   5.515
 7220TIP3   OH243074   2.074   2.551   4.640
 7220TIP3    H143075   2.040   2.463   4.656
 7220TIP3    H243076   2.165   2.549   4.670
 7221TIP3   OH243077   6.474   6.258  16.321
 7221TIP3    H143078   6.450   6.349  16.337
 7221TIP3    H243079   6.532   6.260  16.246
 7222TIP3   OH243080   4.976   3.077  17.011
 7222TIP3    H143081   5.025   3.036  17.082
 7222TIP3    H243082   4.997   3.024  16.934
 7223TIP3   OH243083   0.379   5.672  16.689
 7223TIP3    H143084   0.422   5.729  16.753
 7223TIP3    H243085   0.298   5.718  16.665
 7224TIP3   OH243086   0.321   2.366   1.048
 7224TIP3    H143087   0.356   2.340   1.134
 7224TIP3    H243088   0.398   2.379   0.994
 7225TIP3   OH243089   4.097   2.893   2.022
 7225TIP3    H143090   4.189   2.909   2.000
 7225TIP3    H243091   4.053   2.975   2.001
 7226TIP3   OH243092   5.404   1.086   1.426
 7226TIP3    H143093   5.438   1.160   1.476
 7226TIP3    H243094   5.343   1.043   1.486
 7227TIP3   OH243095   5.564   6.685   4.395
 7227TIP3    H143096   5.595   6.652   4.311
 7227TIP3    H243097   5.485   6.634   4.413
 7228TIP3   OH243098   4.596   6.592   1.240
 7228TIP3    H143099   4.507   6.594   1.205
 7228TIP3    H243100   4.620   6.499   1.240
 7229TIP3   OH243101   2.376   2.732  14.918
 7229TIP3    H143102   2.357   2.640  14.935
 7229TIP3    H243103   2.456   2.731  14.865
 7230TIP3   OH243104   1.720   3.746   3.240
 7230TIP3    H143105   1.792   3.696   3.279
 7230TIP3    H243106   1.641   3.700   3.269
 7231TIP3   OH243107   3.395   3.255  12.764
 7231TIP3    H143108   3.324   3.199  12.796
 7231TIP3    H243109   3.350   3.331  12.727
 7232TIP3   OH243110   1.520   0.674  16.485
 7232TIP3    H143111   1.600   0.712  16.449
 7232TIP3    H243112   1.519   0.703  16.576
 7233TIP3   OH243113   6.112   4.684  12.314
 7233TIP3    H143114   6.139   4.624  12.245
 7233TIP3    H243115   6.163   4.657  12.390
 7234TIP3   OH243116   1.095   3.326   4.778
 7234TIP3    H143117   1.118   3.382   4.852
 7234TIP3    H243118   1.015   3.365   4.742
 7235TIP3   OH243119   6.076   3.502   4.475
 7235TIP3    H143120   6.011   3.499   4.545
 7235TIP3    H243121   6.098   3.410   4.460
 7236TIP3   OH243122   5.103   4.856  15.741
 7236TIP3    H143123   5.117   4.762  15.742
 7236TIP3    H243124   5.069   4.877  15.828
 7237TIP3   OH243125   2.219   5.973  13.249
 7237TIP3    H143126   2.303   5.986  13.206
 7237TIP3    H243127   2.155   6.006  13.186
 7238TIP3   OH243128   1.668   4.366  14.718
 7238TIP3    H143129   1.757   4.342  14.694
 7238TIP3    H243130   1.679   4.424  14.794
 7239TIP3   OH243131   1.234   2.804  16.676
 7239TIP3    H143132   1.241   2.825  16.769
 7239TIP3    H243133   1.321   2.770  16.653
 7240TIP3   OH243134   5.883   6.451  16.735
 7240TIP3    H143135   5.803   6.497  16.758
 7240TIP3    H243136   5.911   6.491  16.653
 7241TIP3   OH243137   1.716   4.212  16.096
 7241TIP3    H143138   1.648   4.238  16.035
 7241TIP3    H243139   1.797   4.216  16.045
 7242TIP3   OH243140   3.978   6.518  12.033
 7242TIP3    H143141   3.895   6.553  12.067
 7242TIP3    H243142   3.954   6.434  11.993
 7243TIP3   OH243143   5.934   3.425  14.365
 7243TIP3    H143144   5.847   3.385  14.374
 7243TIP3    H243145   5.990   3.353  14.334
 7244TIP3   OH243146   5.919   4.379   6.610
 7244TIP3    H143147   5.986   4.403   6.674
 7244TIP3    H243148   5.857   4.453   6.613
 7245TIP3   OH243149   4.628   2.421   2.781
 7245TIP3    H143150   4.706   2.470   2.757
 7245TIP3    H243151   4.648   2.330   2.759
 7246TIP3   OH243152   1.224   4.689   0.551
 7246TIP3    H143153   1.231   4.648   0.465
 7246TIP3    H243154   1.314   4.695   0.583
 7247TIP3   OH243155   4.833   5.855   3.654
 7247TIP3    H143156   4.866   5.770   3.682
 7247TIP3    H243157   4.739   5.841   3.640
 7248TIP3   OH243158   1.310   6.193  13.941
 7248TIP3    H143159   1.309   6.286  13.922
 7248TIP3    H243160   1.228   6.160  13.904
 7249TIP3   OH243161   3.430   0.432  12.813
 7249TIP3    H143162   3.358   0.401  12.867
 7249TIP3    H243163   3.494   0.466  12.876
 7250TIP3   OH243164   2.042   2.241  15.559
 7250TIP3    H143165   2.064   2.316  15.614
 7250TIP3    H243166   1.949   2.227  15.573
 7251TIP3   OH243167   5.988   5.320  13.610
 7251TIP3    H143168   5.912   5.369  13.578
 7251TIP3    H243169   6.007   5.359  13.695
 7252TIP3   OH243170   2.190   6.133  12.549
 7252TIP3    H143171   2.098   6.105  12.548
 7252TIP3    H243172   2.230   6.079  12.618
 7253TIP3   OH243173   4.948   0.540  16.407
 7253TIP3    H143174   4.861   0.573  16.429
 7253TIP3    H243175   5.007   0.584  16.468
 7254TIP3   OH243176   5.816   2.347   2.836
 7254TIP3    H143177   5.760   2.270   2.850
 7254TIP3    H243178   5.806   2.399   2.916
 7255TIP3   OH243179   2.076   3.168  11.424
 7255TIP3    H143180   2.111   3.250  11.387
 7255TIP3    H243181   1.987   3.191  11.451
 7256TIP3   OH243182   1.051   2.481  11.103
 7256TIP3    H143183   1.048   2.392  11.066
 7256TIP3    H243184   1.142   2.491  11.132
 7257TIP3   OH243185   2.964   3.423   1.956
 7257TIP3    H143186   3.027   3.429   2.028
 7257TIP3    H243187   2.929   3.512   1.947
 7258TIP3   OH243188   4.357   2.952   2.398
 7258TIP3    H143189   4.405   2.972   2.478
 7258TIP3    H243190   4.270   2.926   2.428
 7259TIP3   OH243191   1.772   5.245  11.580
 7259TIP3    H143192   1.688   5.253  11.535
 7259TIP3    H243193   1.778   5.325  11.632
 7260TIP3   OH243194   2.683   4.204   5.679
 7260TIP3    H143195   2.597   4.184   5.644
 7260TIP3    H243196   2.711   4.283   5.632
 7261TIP3   OH243197   5.275   2.713   4.472
 7261TIP3    H143198   5.247   2.791   4.424
 7261TIP3    H243199   5.287   2.744   4.562
 7262TIP3   OH243200   1.367   2.317   2.090
 7262TIP3    H143201   1.304   2.386   2.111
 7262TIP3    H243202   1.398   2.287   2.175
 7263TIP3   OH243203   0.333   4.950  14.828
 7263TIP3    H143204   0.402   4.968  14.764
 7263TIP3    H243205   0.370   4.882  14.885
 7264TIP3   OH243206   4.802   4.568   0.934
 7264TIP3    H143207   4.838   4.543   0.849
 7264TIP3    H243208   4.799   4.485   0.983
 7265TIP3   OH243209   2.871   0.179   4.782
 7265TIP3    H143210   2.826   0.097   4.805
 7265TIP3    H243211   2.851   0.191   4.689
 7266TIP3   OH243212   4.645   1.064  13.362
 7266TIP3    H143213   4.713   1.121  13.398
 7266TIP3    H243214   4.665   0.977  13.397
 7267TIP3   OH243215   2.782   3.895  15.283
 7267TIP3    H143216   2.816   3.967  15.337
 7267TIP3    H243217   2.690   3.887  15.310
 7268TIP3   OH243218   3.186   6.516  15.500
 7268TIP3    H143219   3.192   6.529  15.405
 7268TIP3    H243220   3.188   6.422  15.512
 7269TIP3   OH243221   0.771   1.188  16.044
 7269TIP3    H143222   0.761   1.098  16.015
 7269TIP3    H243223   0.752   1.241  15.967
 7270TIP3   OH243224   1.919   6.153   5.244
 7270TIP3    H143225   1.920   6.176   5.337
 7270TIP3    H243226   1.834   6.182   5.213
 7271TIP3   OH243227   4.102   0.114   0.185
 7271TIP3    H143228   4.036   0.172   0.223
 7271TIP3    H243229   4.175   0.172   0.165
 7272TIP3   OH243230   2.188   4.132  11.952
 7272TIP3    H143231   2.134   4.150  12.029
 7272TIP3    H243232   2.272   4.103  11.988
 7273TIP3   OH243233   2.667   4.010   2.035
 7273TIP3    H143234   2.656   4.006   1.940
 7273TIP3    H243235   2.610   3.940   2.068
 7274TIP3   OH243236   4.121   2.285   6.495
 7274TIP3    H143237   4.111   2.260   6.587
 7274TIP3    H243238   4.042   2.335   6.475
 7275TIP3   OH243239   0.897   4.522   0.483
 7275TIP3    H143240   0.887   4.588   0.552
 7275TIP3    H243241   0.861   4.442   0.522
 7276TIP3   OH243242   4.665   1.315  15.105
 7276TIP3    H143243   4.622   1.393  15.139
 7276TIP3    H243244   4.702   1.273  15.183
 7277TIP3   OH243245   4.221   4.263   7.036
 7277TIP3    H143246   4.133   4.300   7.046
 7277TIP3    H243247   4.248   4.288   6.948
 7278TIP3   OH243248   0.787   2.786   0.645
 7278TIP3    H143249   0.735   2.778   0.725
 7278TIP3    H243250   0.878   2.776   0.675
 7279TIP3   OH243251   6.578   6.027  13.291
 7279TIP3    H143252   6.668   6.023  13.261
 7279TIP3    H243253   6.527   5.986  13.220
 7280TIP3   OH243254   0.580   5.006   0.552
 7280TIP3    H143255   0.565   4.933   0.613
 7280TIP3    H243256   0.533   4.981   0.473
 7281TIP3   OH243257   0.900   6.484  11.605
 7281TIP3    H143258   0.914   6.414  11.669
 7281TIP3    H243259   0.870   6.439  11.526
 7282TIP3   OH243260   5.355   3.645   2.844
 7282TIP3    H143261   5.364   3.655   2.939
 7282TIP3    H243262   5.264   3.666   2.827
 7283TIP3   OH243263   3.025   0.853  12.257
 7283TIP3    H143264   3.018   0.928  12.197
 7283TIP3    H243265   3.116   0.825  12.248
 7284TIP3   OH243266   4.310   0.180   1.678
 7284TIP3    H143267   4.234   0.197   1.623
 7284TIP3    H243268   4.385   0.190   1.619
 7285TIP3   OH243269   3.206   0.752   4.751
 7285TIP3    H143270   3.192   0.661   4.723
 7285TIP3    H243271   3.177   0.754   4.842
 7286TIP3   OH243272   4.113   6.248  14.516
 7286TIP3    H143273   4.200   6.281  14.492
 7286TIP3    H243274   4.060   6.262  14.437
 7287TIP3   OH243275   2.979   1.691  16.862
 7287TIP3    H143276   2.971   1.670  16.955
 7287TIP3    H243277   3.067   1.661  16.837
 7288TIP3   OH243278   3.293   5.729   0.947
 7288TIP3    H143279   3.353   5.753   0.877
 7288TIP3    H243280   3.214   5.698   0.902
 7289TIP3   OH243281   4.799   1.779  15.006
 7289TIP3    H143282   4.848   1.832  14.944
 7289TIP3    H243283   4.740   1.840  15.050
 7290TIP3   OH243284   0.275   4.311   3.746
 7290TIP3    H143285   0.252   4.402   3.765
 7290TIP3    H243286   0.369   4.313   3.730
 7291TIP3   OH243287   3.173   5.307   4.615
 7291TIP3    H143288   3.220   5.269   4.540
 7291TIP3    H243289   3.159   5.233   4.674
 7292TIP3   OH243290   4.787   5.410   0.436
 7292TIP3    H143291   4.695   5.434   0.431
 7292TIP3    H243292   4.813   5.431   0.525
 7293TIP3   OH243293   1.648   0.731  13.680
 7293TIP3    H143294   1.592   0.657  13.703
 7293TIP3    H243295   1.610   0.766  13.600
 7294TIP3   OH243296   4.185   2.794  12.700
 7294TIP3    H143297   4.223   2.711  12.671
 7294TIP3    H243298   4.249   2.860  12.673
 7295TIP3   OH243299   6.546   6.320  13.421
 7295TIP3    H143300   6.625   6.360  13.385
 7295TIP3    H243301   6.561   6.318  13.516
 7296TIP3   OH243302   0.143   6.268  15.065
 7296TIP3    H143303   0.171   6.186  15.025
 7296TIP3    H243304   0.070   6.243  15.122
 7297TIP3   OH243305   1.403   0.271  11.727
 7297TIP3    H143306   1.451   0.246  11.806
 7297TIP3    H243307   1.451   0.347  11.694
 7298TIP3   OH243308   3.100   5.361  16.303
 7298TIP3    H143309   3.091   5.410  16.385
 7298TIP3    H243310   3.194   5.343  16.296
 7299TIP3   OH243311   5.386   3.429  16.611
 7299TIP3    H143312   5.468   3.405  16.653
 7299TIP3    H243313   5.386   3.525  16.611
 7300TIP3   OH243314   3.330   4.829  14.651
 7300TIP3    H143315   3.242   4.797  14.673
 7300TIP3    H243316   3.389   4.776  14.705
 7301TIP3   OH243317   1.438   2.093   4.944
 7301TIP3    H143318   1.387   2.051   4.874
 7301TIP3    H243319   1.512   2.133   4.898
 7302TIP3   OH243320   4.653   4.576   5.724
 7302TIP3    H143321   4.678   4.508   5.786
 7302TIP3    H243322   4.735   4.621   5.704
 7303TIP3   OH243323   2.177   2.993   1.199
 7303TIP3    H143324   2.149   2.952   1.117
 7303TIP3    H243325   2.115   2.962   1.265
 7304TIP3   OH243326   6.620   5.394   2.473
 7304TIP3    H143327   6.576   5.476   2.451
 7304TIP3    H243328   6.690   5.420   2.533
 7305TIP3   OH243329   0.752   1.885   4.961
 7305TIP3    H143330   0.717   1.965   5.000
 7305TIP3    H243331   0.844   1.884   4.986
 7306TIP3   OH243332   2.537   0.155   2.227
 7306TIP3    H143333   2.587   0.181   2.305
 7306TIP3    H243334   2.502   0.238   2.194
 7307TIP3   OH243335   2.317   1.232  15.166
 7307TIP3    H143336   2.239   1.182  15.140
 7307TIP3    H243337   2.317   1.308  15.108
 7308TIP3   OH243338   4.764   6.730  12.054
 7308TIP3    H143339   4.825   6.769  12.116
 7308TIP3    H243340   4.734   6.650  12.096
 7309TIP3   OH243341   4.622   2.057  14.092
 7309TIP3    H143342   4.617   1.984  14.153
 7309TIP3    H243343   4.687   2.116  14.131
 7310TIP3   OH243344   2.900   4.889   1.662
 7310TIP3    H143345   2.814   4.920   1.690
 7310TIP3    H243346   2.934   4.960   1.606
 7311TIP3   OH243347   4.375   1.000  13.348
 7311TIP3    H143348   4.328   1.006  13.431
 7311TIP3    H243349   4.461   1.037  13.367
 7312TIP3   OH243350   3.522   1.677   6.041
 7312TIP3    H143351   3.574   1.660   5.963
 7312TIP3    H243352   3.563   1.625   6.110
 7313TIP3   OH243353   4.282   4.684  16.911
 7313TIP3    H143354   4.260   4.763  16.961
 7313TIP3    H243355   4.223   4.685  16.836
 7314TIP3   OH243356   0.614   2.992  10.496
 7314TIP3    H143357   0.595   2.973  10.405
 7314TIP3    H243358   0.630   2.907  10.536
 7315TIP3   OH243359   1.977   0.959   0.594
 7315TIP3    H143360   1.885   0.977   0.576
 7315TIP3    H243361   1.994   0.875   0.552
 7316TIP3   OH243362   3.717   2.434  12.572
 7316TIP3    H143363   3.704   2.341  12.593
 7316TIP3    H243364   3.629   2.466  12.552
 7317TIP3   OH243365   5.990   5.341   0.808
 7317TIP3    H143366   5.952   5.272   0.863
 7317TIP3    H243367   6.028   5.294   0.734
 7318TIP3   OH243368   4.397   2.872  13.866
 7318TIP3    H143369   4.435   2.831  13.943
 7318TIP3    H243370   4.400   2.805  13.798
 7319TIP3   OH243371   5.046   6.713   5.536
 7319TIP3    H143372   4.978   6.653   5.505
 7319TIP3    H243373   5.106   6.723   5.462
 7320TIP3   OH243374   2.444   2.881   1.295
 7320TIP3    H143375   2.485   2.842   1.372
 7320TIP3    H243376   2.432   2.973   1.317
 7321TIP3   OH243377   2.555   2.501  13.842
 7321TIP3    H143378   2.520   2.508  13.930
 7321TIP3    H243379   2.563   2.406  13.827
 7322TIP3   OH243380   4.364   2.428   2.700
 7322TIP3    H143381   4.409   2.379   2.630
 7322TIP3    H243382   4.428   2.432   2.771
 7323TIP3   OH243383   6.539   3.982  10.517
 7323TIP3    H143384   6.484   3.979  10.595
 7323TIP3    H243385   6.572   4.072  10.514
 7324TIP3   OH243386   2.843   4.341   2.558
 7324TIP3    H143387   2.856   4.396   2.636
 7324TIP3    H243388   2.849   4.401   2.484
 7325TIP3   OH243389   5.766   0.054  12.424
 7325TIP3    H143390   5.726  -0.028  12.452
 7325TIP3    H243391   5.828   0.075  12.494
 7326TIP3   OH243392   1.786   3.469  12.558
 7326TIP3    H143393   1.778   3.388  12.506
 7326TIP3    H243394   1.841   3.526  12.504
 7327TIP3   OH243395   6.022   3.015   5.032
 7327TIP3    H143396   5.954   3.008   5.099
 7327TIP3    H243397   6.052   2.925   5.018
 7328TIP3   OH243398   2.820   2.633  17.230
 7328TIP3    H143399   2.757   2.565  17.208
 7328TIP3    H243400   2.767   2.704  17.268
 7329TIP3   OH243401   2.158   1.971   4.767
 7329TIP3    H143402   2.107   1.900   4.806
 7329TIP3    H243403   2.122   1.980   4.679
 7330TIP3   OH243404   5.393   2.727  15.828
 7330TIP3    H143405   5.462   2.734  15.894
 7330TIP3    H243406   5.425   2.659  15.768
 7331TIP3   OH243407   3.800   3.021  16.677
 7331TIP3    H143408   3.777   3.011  16.769
 7331TIP3    H243409   3.728   2.978  16.630
 7332TIP3   OH243410   4.302   4.941  12.006
 7332TIP3    H143411   4.235   4.885  12.046
 7332TIP3    H243412   4.266   4.965  11.921
 7333TIP3   OH243413   0.008   4.019   2.340
 7333TIP3    H143414   0.067   3.993   2.269
 7333TIP3    H243415   0.022   3.953   2.408
 7334TIP3   OH243416   0.152   5.139   5.303
 7334TIP3    H143417   0.184   5.096   5.382
 7334TIP3    H243418   0.081   5.082   5.273
 7335TIP3   OH243419   3.233   5.066  16.553
 7335TIP3    H143420   3.324   5.068  16.522
 7335TIP3    H243421   3.239   5.031  16.642
 7336TIP3   OH243422   4.475   5.573   4.971
 7336TIP3    H143423   4.442   5.489   5.001
 7336TIP3    H243424   4.568   5.559   4.956
 7337TIP3   OH243425   1.438   0.149  12.179
 7337TIP3    H143426   1.510   0.094  12.148
 7337TIP3    H243427   1.479   0.213  12.237
 7338TIP3   OH243428   1.485   6.016   4.612
 7338TIP3    H143429   1.474   6.048   4.523
 7338TIP3    H243430   1.528   6.089   4.658
 7339TIP3   OH243431   0.287   5.282   0.262
 7339TIP3    H143432   0.380   5.279   0.240
 7339TIP3    H243433   0.265   5.375   0.264
 7340TIP3   OH243434   5.291   4.183   0.469
 7340TIP3    H143435   5.319   4.184   0.378
 7340TIP3    H243436   5.360   4.229   0.516
 7341TIP3   OH243437   1.020   4.615  15.755
 7341TIP3    H143438   1.026   4.604  15.660
 7341TIP3    H243439   0.955   4.684  15.767
 7342TIP3   OH243440   0.483   1.409   5.598
 7342TIP3    H143441   0.546   1.439   5.663
 7342TIP3    H243442   0.473   1.315   5.615
 7343TIP3   OH243443   0.737   6.541  12.683
 7343TIP3    H143444   0.708   6.558  12.772
 7343TIP3    H243445   0.793   6.615  12.661
 7344TIP3   OH243446   0.242   4.908   1.471
 7344TIP3    H143447   0.284   4.932   1.553
 7344TIP3    H243448   0.310   4.861   1.422
 7345TIP3   OH243449   0.393   0.564   0.236
 7345TIP3    H143450   0.364   0.620   0.164
 7345TIP3    H243451   0.407   0.478   0.196
 7346TIP3   OH243452   5.910   4.447  16.909
 7346TIP3    H143453   5.874   4.415  16.826
 7346TIP3    H243454   5.988   4.496  16.884
 7347TIP3   OH243455   4.573   4.937  14.676
 7347TIP3    H143456   4.491   4.921  14.630
 7347TIP3    H243457   4.547   4.969  14.762
 7348TIP3   OH243458   2.974   2.355  16.772
 7348TIP3    H143459   3.055   2.377  16.727
 7348TIP3    H243460   2.916   2.429  16.755
 7349TIP3   OH243461   6.751   6.184  15.443
 7349TIP3    H143462   6.843   6.165  15.463
 7349TIP3    H243463   6.714   6.099  15.419
 7350TIP3   OH243464   4.090   4.402  14.226
 7350TIP3    H143465   4.082   4.446  14.142
 7350TIP3    H243466   4.163   4.447  14.270
 7351TIP3   OH243467   2.496   3.637   4.396
 7351TIP3    H143468   2.586   3.629   4.364
 7351TIP3    H243469   2.470   3.725   4.370
 7352TIP3   OH243470   2.547   1.935   5.705
 7352TIP3    H143471   2.493   2.011   5.728
 7352TIP3    H243472   2.572   1.950   5.614
 7353TIP3   OH243473   0.162   0.079   0.873
 7353TIP3    H143474   0.130   0.148   0.815
 7353TIP3    H243475   0.090   0.062   0.933
 7354TIP3   OH243476   6.371   2.782  15.208
 7354TIP3    H143477   6.397   2.690  15.204
 7354TIP3    H243478   6.276   2.781  15.207
 7355TIP3   OH243479   4.848   1.532  15.574
 7355TIP3    H143480   4.891   1.489  15.500
 7355TIP3    H243481   4.888   1.619  15.579
 7356TIP3   OH243482   4.746   5.816  10.807
 7356TIP3    H143483   4.787   5.736  10.839
 7356TIP3    H243484   4.727   5.799  10.715
 7357TIP3   OH243485   6.131   0.247   4.717
 7357TIP3    H143486   6.169   0.169   4.759
 7357TIP3    H243487   6.058   0.272   4.774
 7358TIP3   OH243488   4.959   5.335  13.212
 7358TIP3    H143489   4.995   5.262  13.263
 7358TIP3    H243490   4.941   5.403  13.277
 7359TIP3   OH243491   3.622   4.136  14.561
 7359TIP3    H143492   3.621   4.164  14.469
 7359TIP3    H243493   3.531   4.114  14.580
 7360TIP3   OH243494   6.372   3.552  16.208
 7360TIP3    H143495   6.423   3.471  16.208
 7360TIP3    H243496   6.290   3.529  16.252
 7361TIP3   OH243497   5.112   4.171   4.671
 7361TIP3    H143498   5.171   4.195   4.599
 7361TIP3    H243499   5.025   4.192   4.637
 7362TIP3   OH243500   4.201   2.481   5.842
 7362TIP3    H143501   4.210   2.576   5.832
 7362TIP3    H243502   4.207   2.466   5.937
 7363TIP3   OH243503   1.788   3.322   3.263
 7363TIP3    H143504   1.760   3.408   3.296
 7363TIP3    H243505   1.866   3.341   3.212
 7364TIP3   OH243506   4.744   3.163   5.081
 7364TIP3    H143507   4.713   3.196   4.997
 7364TIP3    H243508   4.715   3.072   5.084
 7365TIP3   OH243509   1.681   2.542   2.857
 7365TIP3    H143510   1.671   2.621   2.910
 7365TIP3    H243511   1.769   2.510   2.876
 7366TIP3   OH243512   5.685   4.862  10.417
 7366TIP3    H143513   5.658   4.918  10.490
 7366TIP3    H243514   5.650   4.776  10.438
 7367TIP3   OH243515   4.253   1.905   5.148
 7367TIP3    H143516   4.268   1.926   5.240
 7367TIP3    H243517   4.340   1.881   5.114
 7368TIP3   OH243518   0.321   6.465  15.831
 7368TIP3    H143519   0.293   6.550  15.796
 7368TIP3    H243520   0.269   6.453  15.910
 7369TIP3   OH243521   6.776   3.789   0.705
 7369TIP3    H143522   6.713   3.760   0.771
 7369TIP3    H243523   6.860   3.758   0.737
 7370TIP3   OH243524   5.889   2.555   1.194
 7370TIP3    H143525   5.922   2.474   1.232
 7370TIP3    H243526   5.874   2.613   1.269
 7371TIP3   OH243527   0.370   6.505   3.983
 7371TIP3    H143528   0.351   6.437   3.919
 7371TIP3    H243529   0.301   6.495   4.049
 7372TIP3   OH243530   3.753   3.730   4.932
 7372TIP3    H143531   3.672   3.692   4.897
 7372TIP3    H243532   3.823   3.681   4.889
 7373TIP3   OH243533   6.716   4.980  14.692
 7373TIP3    H143534   6.625   4.999  14.713
 7373TIP3    H243535   6.724   4.885  14.699
 7374TIP3   OH243536   0.648   1.838  11.937
 7374TIP3    H143537   0.632   1.835  11.842
 7374TIP3    H243538   0.663   1.746  11.961
 7375TIP3   OH243539   2.457   3.970  16.899
 7375TIP3    H143540   2.510   4.031  16.848
 7375TIP3    H243541   2.520   3.922  16.953
 7376TIP3   OH243542   0.423   1.758   1.990
 7376TIP3    H143543   0.352   1.761   2.055
 7376TIP3    H243544   0.382   1.787   1.908
 7377TIP3   OH243545   0.039   3.859  10.543
 7377TIP3    H143546  -0.049   3.839  10.512
 7377TIP3    H243547   0.054   3.797  10.615
 7378TIP3   OH243548   6.719   2.134   0.297
 7378TIP3    H143549   6.687   2.194   0.229
 7378TIP3    H243550   6.708   2.047   0.259
 7379TIP3   OH243551   3.234   1.194  15.777
 7379TIP3    H143552   3.190   1.218  15.858
 7379TIP3    H243553   3.318   1.239  15.781
 7380TIP3   OH243554   5.373   1.967  14.868
 7380TIP3    H143555   5.353   1.909  14.941
 7380TIP3    H243556   5.290   2.010  14.849
 7381TIP3   OH243557   1.206   0.525  13.529
 7381TIP3    H143558   1.207   0.441  13.575
 7381TIP3    H243559   1.262   0.512  13.453
 7382TIP3   OH243560   4.753   0.783   0.633
 7382TIP3    H143561   4.744   0.769   0.539
 7382TIP3    H243562   4.793   0.703   0.667
 7383TIP3   OH243563   5.742   3.087  14.103
 7383TIP3    H143564   5.703   3.007  14.068
 7383TIP3    H243565   5.756   3.067  14.196
 7384TIP3   OH243566   2.604   4.344   3.778
 7384TIP3    H143567   2.647   4.406   3.836
 7384TIP3    H243568   2.522   4.386   3.753
 7385TIP3   OH243569   2.669   3.665  13.150
 7385TIP3    H143570   2.594   3.694  13.203
 7385TIP3    H243571   2.745   3.702  13.194
 7386TIP3   OH243572   6.073   0.056   5.960
 7386TIP3    H143573   6.112  -0.023   5.997
 7386TIP3    H243574   6.104   0.127   6.016
 7387TIP3   OH243575   2.311   6.446   3.523
 7387TIP3    H143576   2.265   6.363   3.507
 7387TIP3    H243577   2.244   6.504   3.559
 7388TIP3   OH243578   5.097   2.640   3.702
 7388TIP3    H143579   5.052   2.586   3.767
 7388TIP3    H243580   5.089   2.591   3.620
 7389TIP3   OH243581   1.641   1.332  17.075
 7389TIP3    H143582   1.652   1.407  17.018
 7389TIP3    H243583   1.681   1.359  17.158
 7390TIP3   OH243584   0.845   6.761   4.224
 7390TIP3    H143585   0.778   6.693   4.213
 7390TIP3    H243586   0.924   6.723   4.187
 7391TIP3   OH243587   2.038   5.002  13.828
 7391TIP3    H143588   2.130   5.028  13.835
 7391TIP3    H243589   2.000   5.065  13.767
 7392TIP3   OH243590   4.270   5.293   4.669
 7392TIP3    H143591   4.332   5.366   4.677
 7392TIP3    H243592   4.242   5.296   4.577
 7393TIP3   OH243593   3.871   2.464   1.754
 7393TIP3    H143594   3.896   2.545   1.709
 7393TIP3    H243595   3.847   2.404   1.684
 7394TIP3   OH243596   2.117   2.379   3.330
 7394TIP3    H143597   2.152   2.305   3.380
 7394TIP3    H243598   2.084   2.340   3.250
 7395TIP3   OH243599   4.893   6.345  13.435
 7395TIP3    H143600   4.861   6.404  13.367
 7395TIP3    H243601   4.890   6.396  13.516
 7396TIP3   OH243602   0.658   1.346  14.971
 7396TIP3    H143603   0.633   1.355  14.879
 7396TIP3    H243604   0.659   1.251  14.986
 7397TIP3   OH243605   1.659   0.704  14.653
 7397TIP3    H143606   1.703   0.684  14.736
 7397TIP3    H243607   1.583   0.757  14.679
 7398TIP3   OH243608   6.236   6.210  16.554
 7398TIP3    H143609   6.315   6.257  16.580
 7398TIP3    H243610   6.236   6.214  16.459
 7399TIP3   OH243611   0.491   3.447   4.215
 7399TIP3    H143612   0.561   3.407   4.164
 7399TIP3    H243613   0.426   3.377   4.226
 7400TIP3   OH243614   2.120   0.711   2.985
 7400TIP3    H143615   2.071   0.654   3.044
 7400TIP3    H243616   2.080   0.798   2.998
 7401TIP3   OH243617   3.916   1.186  13.519
 7401TIP3    H143618   3.914   1.269  13.567
 7401TIP3    H243619   3.873   1.123  13.577
 7402TIP3   OH243620   2.518   1.375   6.454
 7402TIP3    H143621   2.431   1.351   6.484
 7402TIP3    H243622   2.525   1.469   6.471
 7403TIP3   OH243623   6.073   3.855  12.877
 7403TIP3    H143624   6.059   3.938  12.922
 7403TIP3    H243625   6.156   3.866  12.831
 7404TIP3   OH243626   2.531   3.914  12.279
 7404TIP3    H143627   2.593   3.972  12.235
 7404TIP3    H243628   2.446   3.936  12.240
 7405TIP3   OH243629   4.636   6.168  13.176
 7405TIP3    H143630   4.690   6.141  13.251
 7405TIP3    H243631   4.636   6.093  13.118
 7406TIP3   OH243632   3.350   3.448  15.023
 7406TIP3    H143633   3.290   3.482  15.089
 7406TIP3    H243634   3.299   3.382  14.975
 7407TIP3   OH243635   1.364   1.558  14.997
 7407TIP3    H143636   1.378   1.620  15.069
 7407TIP3    H243637   1.296   1.499  15.029
 7408TIP3   OH243638   4.640   4.379  16.043
 7408TIP3    H143639   4.724   4.425  16.035
 7408TIP3    H243640   4.642   4.339  16.130
 7409TIP3   OH243641   6.703   6.046   2.906
 7409TIP3    H143642   6.770   6.008   2.963
 7409TIP3    H243643   6.745   6.051   2.820
 7410TIP3   OH243644   0.269   4.043  14.359
 7410TIP3    H143645   0.186   4.090  14.370
 7410TIP3    H243646   0.243   3.951  14.348
 7411TIP3   OH243647   2.469   2.287   5.407
 7411TIP3    H143648   2.395   2.343   5.383
 7411TIP3    H243649   2.531   2.346   5.451
 7412TIP3   OH243650   5.937   6.787  14.887
 7412TIP3    H143651   5.895   6.739  14.959
 7412TIP3    H243652   5.869   6.793  14.819
 7413TIP3   OH243653   1.621   2.220   2.961
 7413TIP3    H143654   1.595   2.284   2.895
 7413TIP3    H243655   1.637   2.272   3.040
 7414TIP3   OH243656   5.740   4.803  11.064
 7414TIP3    H143657   5.817   4.750  11.083
 7414TIP3    H243658   5.666   4.748  11.090
 7415TIP3   OH243659   2.196   0.201  12.549
 7415TIP3    H143660   2.259   0.263  12.585
 7415TIP3    H243661   2.147   0.252  12.484
 7416TIP3   OH243662   6.193   5.362   3.344
 7416TIP3    H143663   6.283   5.332   3.354
 7416TIP3    H243664   6.149   5.333   3.425
 7417TIP3   OH243665   2.057   1.335   1.124
 7417TIP3    H143666   2.026   1.259   1.075
 7417TIP3    H243667   2.103   1.298   1.199
 7418TIP3   OH243668   3.800   2.828  14.980
 7418TIP3    H143669   3.819   2.860  14.892
 7418TIP3    H243670   3.705   2.836  14.988
 7419TIP3   OH243671   6.066   4.937   4.252
 7419TIP3    H143672   6.044   4.985   4.331
 7419TIP3    H243673   6.161   4.947   4.243
 7420TIP3   OH243674   6.780   4.703  15.648
 7420TIP3    H143675   6.822   4.627  15.608
 7420TIP3    H243676   6.707   4.667  15.697
 7421TIP3   OH243677   1.564   0.850   2.744
 7421TIP3    H143678   1.482   0.885   2.777
 7421TIP3    H243679   1.630   0.878   2.808
 7422TIP3   OH243680   2.973   0.448  10.518
 7422TIP3    H143681   2.961   0.362  10.559
 7422TIP3    H243682   2.970   0.430  10.424
 7423TIP3   OH243683   2.222   2.241   0.280
 7423TIP3    H143684   2.303   2.198   0.307
 7423TIP3    H243685   2.152   2.185   0.314
 7424TIP3   OH243686   6.053   5.222  11.339
 7424TIP3    H143687   5.964   5.203  11.370
 7424TIP3    H243688   6.088   5.284  11.402
 7425TIP3   OH243689   0.527   3.809  15.955
 7425TIP3    H143690   0.540   3.873  15.885
 7425TIP3    H243691   0.507   3.861  16.032
 7426TIP3   OH243692   4.816   1.361  12.173
 7426TIP3    H143693   4.853   1.436  12.125
 7426TIP3    H243694   4.892   1.305  12.190
 7427TIP3   OH243695   0.208   0.322  11.651
 7427TIP3    H143696   0.189   0.277  11.568
 7427TIP3    H243697   0.293   0.363  11.636
 7428TIP3   OH243698   2.471   5.467  12.389
 7428TIP3    H143699   2.566   5.465  12.396
 7428TIP3    H243700   2.440   5.458  12.479
 7429TIP3   OH243701   5.586   2.087   4.484
 7429TIP3    H143702   5.580   2.128   4.570
 7429TIP3    H243703   5.675   2.052   4.480
 7430TIP3   OH243704   0.949   4.786  13.501
 7430TIP3    H143705   0.901   4.739  13.570
 7430TIP3    H243706   0.891   4.858  13.477
 7431TIP3   OH243707   0.075   3.429   5.356
 7431TIP3    H143708   0.052   3.378   5.278
 7431TIP3    H243709  -0.009   3.455   5.394
 7432TIP3   OH243710   4.819   3.594  11.667
 7432TIP3    H143711   4.910   3.624  11.669
 7432TIP3    H243712   4.768   3.674  11.649
 7433TIP3   OH243713   3.009   1.439  11.806
 7433TIP3    H143714   2.979   1.436  11.897
 7433TIP3    H243715   3.028   1.347  11.784
 7434TIP3   OH243716   0.307   3.655   0.039
 7434TIP3    H143717   0.322   3.666  -0.055
 7434TIP3    H243718   0.215   3.677   0.051
 7435TIP3   OH243719   5.026   3.626   5.546
 7435TIP3    H143720   5.107   3.611   5.496
 7435TIP3    H243721   4.976   3.545   5.535
 7436TIP3   OH243722   4.513   6.309   2.258
 7436TIP3    H143723   4.423   6.297   2.229
 7436TIP3    H243724   4.524   6.404   2.265
 7437TIP3   OH243725   4.037   0.987   5.857
 7437TIP3    H143726   4.083   1.070   5.844
 7437TIP3    H243727   3.956   1.011   5.902
 7438TIP3   OH243728   0.039   4.106  14.908
 7438TIP3    H143729   0.070   4.048  14.978
 7438TIP3    H243730  -0.012   4.049  14.851
 7439TIP3   OH243731   1.934   2.315   4.707
 7439TIP3    H143732   1.980   2.260   4.644
 7439TIP3    H243733   1.860   2.351   4.659
 7440TIP3   OH243734   2.439   2.448  14.120
 7440TIP3    H143735   2.456   2.495  14.202
 7440TIP3    H243736   2.489   2.367  14.129
 7441TIP3   OH243737   1.522   6.316   4.393
 7441TIP3    H143738   1.556   6.242   4.343
 7441TIP3    H243739   1.598   6.373   4.404
 7442TIP3   OH243740   3.528   0.483   5.823
 7442TIP3    H143741   3.589   0.411   5.808
 7442TIP3    H243742   3.538   0.540   5.747
 7443TIP3   OH243743   1.489   2.390  14.748
 7443TIP3    H143744   1.524   2.319  14.694
 7443TIP3    H243745   1.565   2.429  14.790
 7444TIP3   OH243746   4.497   1.917   4.219
 7444TIP3    H143747   4.415   1.966   4.228
 7444TIP3    H243748   4.550   1.969   4.160
 7445TIP3   OH243749   6.261   3.162   3.919
 7445TIP3    H143750   6.246   3.243   3.969
 7445TIP3    H243751   6.176   3.141   3.881
 7446TIP3   OH243752   1.646   6.251   5.351
 7446TIP3    H143753   1.710   6.318   5.374
 7446TIP3    H243754   1.670   6.175   5.405
 7447TIP3   OH243755   2.263   0.526  15.245
 7447TIP3    H143756   2.228   0.537  15.333
 7447TIP3    H243757   2.321   0.601  15.232
 7448TIP3   OH243758   3.530   4.845  12.024
 7448TIP3    H143759   3.510   4.772  12.083
 7448TIP3    H243760   3.444   4.878  11.997
 7449TIP3   OH243761   5.240   3.468   6.527
 7449TIP3    H143762   5.181   3.393   6.533
 7449TIP3    H243763   5.311   3.447   6.587
 7450TIP3   OH243764   4.626   1.910   1.379
 7450TIP3    H143765   4.699   1.959   1.417
 7450TIP3    H243766   4.613   1.837   1.440
 7451TIP3   OH243767   0.341   1.940  13.738
 7451TIP3    H143768   0.354   1.884  13.815
 7451TIP3    H243769   0.288   2.013  13.770
 7452TIP3   OH243770   1.083   2.106   5.456
 7452TIP3    H143771   1.003   2.056   5.468
 7452TIP3    H243772   1.062   2.194   5.489
 7453TIP3   OH243773   2.124   3.760   3.324
 7453TIP3    H143774   2.145   3.705   3.399
 7453TIP3    H243775   2.109   3.847   3.362
 7454TIP3   OH243776   2.964   0.557   2.286
 7454TIP3    H143777   2.975   0.570   2.380
 7454TIP3    H243778   3.037   0.605   2.246
 7455TIP3   OH243779   5.534   0.420   1.149
 7455TIP3    H143780   5.584   0.433   1.230
 7455TIP3    H243781   5.538   0.325   1.134
 7456TIP3   OH243782   0.259   1.419  17.144
 7456TIP3    H143783   0.166   1.429  17.123
 7456TIP3    H243784   0.285   1.506  17.175
 7457TIP3   OH243785   4.622   4.037  12.186
 7457TIP3    H143786   4.707   3.992  12.189
 7457TIP3    H243787   4.616   4.070  12.096
 7458TIP3   OH243788   0.614   0.350   6.872
 7458TIP3    H143789   0.636   0.377   6.961
 7458TIP3    H243790   0.697   0.325   6.832
 7459TIP3   OH243791   1.082   0.554  16.916
 7459TIP3    H143792   1.108   0.464  16.936
 7459TIP3    H243793   1.148   0.585  16.855
 7460TIP3   OH243794   5.504   4.169  15.348
 7460TIP3    H143795   5.569   4.129  15.406
 7460TIP3    H243796   5.420   4.138  15.380
 7461TIP3   OH243797   0.834   5.982  15.558
 7461TIP3    H143798   0.777   5.977  15.481
 7461TIP3    H243799   0.845   6.076  15.574
 7462TIP3   OH243800   1.805   0.329   0.719
 7462TIP3    H143801   1.796   0.349   0.626
 7462TIP3    H243802   1.825   0.236   0.722
 7463TIP3   OH243803   0.497   5.569   1.041
 7463TIP3    H143804   0.409   5.565   1.077
 7463TIP3    H243805   0.529   5.656   1.066
 7464TIP3   OH243806   4.425   6.506  16.577
 7464TIP3    H143807   4.347   6.546  16.538
 7464TIP3    H243808   4.402   6.414  16.589
 7465TIP3   OH243809   4.895   3.166   1.496
 7465TIP3    H143810   4.812   3.119   1.506
 7465TIP3    H243811   4.945   3.144   1.574
 7466TIP3   OH243812   0.722   5.374  16.396
 7466TIP3    H143813   0.646   5.432  16.396
 7466TIP3    H243814   0.732   5.347  16.487
 7467TIP3   OH243815   5.455   1.032   4.316
 7467TIP3    H143816   5.404   0.965   4.272
 7467TIP3    H243817   5.492   1.086   4.246
 7468TIP3   OH243818   3.875   6.691   3.441
 7468TIP3    H143819   3.837   6.757   3.383
 7468TIP3    H243820   3.920   6.630   3.382
 7469TIP3   OH243821   4.188   0.778   3.728
 7469TIP3    H143822   4.259   0.713   3.725
 7469TIP3    H243823   4.122   0.738   3.785
 7470TIP3   OH243824   2.951   4.802  12.909
 7470TIP3    H143825   3.008   4.744  12.959
 7470TIP3    H243826   2.932   4.754  12.829
 7471TIP3   OH243827   0.537   1.567   2.280
 7471TIP3    H143828   0.469   1.570   2.348
 7471TIP3    H243829   0.546   1.658   2.253
 7472TIP3   OH243830   4.269   4.293   6.772
 7472TIP3    H143831   4.227   4.366   6.728
 7472TIP3    H243832   4.343   4.270   6.715
 7473TIP3   OH243833   5.829   4.553  14.086
 7473TIP3    H143834   5.752   4.591  14.129
 7473TIP3    H243835   5.865   4.491  14.150
 7474TIP3   OH243836   2.952   2.545   0.212
 7474TIP3    H143837   2.908   2.551   0.126
 7474TIP3    H243838   3.045   2.548   0.191
 7475TIP3   OH243839   4.734   0.447  11.989
 7475TIP3    H143840   4.790   0.518  11.957
 7475TIP3    H243841   4.788   0.369  11.982
 7476TIP3   OH243842   4.533   1.361  15.598
 7476TIP3    H143843   4.550   1.455  15.594
 7476TIP3    H243844   4.619   1.320  15.593
 7477TIP3   OH243845   2.322   1.141  14.550
 7477TIP3    H143846   2.319   1.051  14.583
 7477TIP3    H243847   2.317   1.131  14.455
 7478TIP3   OH243848   6.053   2.389  13.602
 7478TIP3    H143849   6.092   2.467  13.562
 7478TIP3    H243850   6.086   2.388  13.692
 7479TIP3   OH243851   0.745   5.041  15.679
 7479TIP3    H143852   0.805   5.100  15.632
 7479TIP3    H243853   0.688   5.100  15.728
 7480TIP3   OH243854   4.009   0.890   2.544
 7480TIP3    H143855   4.087   0.904   2.491
 7480TIP3    H243856   4.042   0.873   2.632
 7481TIP3   OH243857   6.120   1.638   0.746
 7481TIP3    H143858   6.056   1.701   0.713
 7481TIP3    H243859   6.205   1.681   0.733
 7482TIP3   OH243860   3.842   3.128  12.832
 7482TIP3    H143861   3.919   3.100  12.781
 7482TIP3    H243862   3.768   3.097  12.780
 7483TIP3   OH243863   5.036   0.762   0.814
 7483TIP3    H143864   4.977   0.689   0.794
 7483TIP3    H243865   5.124   0.724   0.811
 7484TIP3   OH243866   2.570   5.299  12.659
 7484TIP3    H143867   2.617   5.309  12.742
 7484TIP3    H243868   2.621   5.351  12.597
 7485TIP3   OH243869   1.722   1.193   2.646
 7485TIP3    H143870   1.811   1.178   2.679
 7485TIP3    H243871   1.676   1.232   2.720
 7486TIP3   OH243872   0.506   3.714  12.462
 7486TIP3    H143873   0.446   3.743  12.530
 7486TIP3    H243874   0.453   3.657  12.406
 7487TIP3   OH243875   2.442   0.339   5.752
 7487TIP3    H143876   2.359   0.346   5.706
 7487TIP3    H243877   2.423   0.284   5.828
 7488TIP3   OH243878   2.525   1.000   2.684
 7488TIP3    H143879   2.620   0.986   2.689
 7488TIP3    H243880   2.496   0.943   2.613
 7489TIP3   OH243881   4.430   1.412   3.171
 7489TIP3    H143882   4.396   1.338   3.121
 7489TIP3    H243883   4.386   1.405   3.256
 7490TIP3   OH243884   5.360   5.646   4.899
 7490TIP3    H143885   5.267   5.627   4.908
 7490TIP3    H243886   5.380   5.628   4.808
 7491TIP3   OH243887   2.863   6.645  16.207
 7491TIP3    H143888   2.912   6.651  16.289
 7491TIP3    H243889   2.861   6.552  16.186
 7492TIP3   OH243890   5.630   5.512  12.788
 7492TIP3    H143891   5.546   5.492  12.746
 7492TIP3    H243892   5.612   5.586  12.845
 7493TIP3   OH243893   3.214   2.346  15.319
 7493TIP3    H143894   3.120   2.336  15.303
 7493TIP3    H243895   3.255   2.290  15.253
 7494TIP3   OH243896   2.135   3.419   2.588
 7494TIP3    H143897   2.211   3.397   2.642
 7494TIP3    H243898   2.163   3.496   2.538
 7495TIP3   OH243899   3.768   4.332  12.810
 7495TIP3    H143900   3.798   4.392  12.742
 7495TIP3    H243901   3.819   4.357  12.888
 7496TIP3   OH243902   0.996   0.144  15.752
 7496TIP3    H143903   1.032   0.207  15.814
 7496TIP3    H243904   0.966   0.071  15.807
 7497TIP3   OH243905   2.731   0.949   5.579
 7497TIP3    H143906   2.686   0.865   5.581
 7497TIP3    H243907   2.665   1.010   5.546
 7498TIP3   OH243908   2.906   5.310   4.553
 7498TIP3    H143909   2.878   5.218   4.554
 7498TIP3    H243910   2.994   5.308   4.590
 7499TIP3   OH243911   3.404   2.401   2.643
 7499TIP3    H143912   3.448   2.321   2.614
 7499TIP3    H243913   3.457   2.432   2.717
 7500TIP3   OH243914   5.760   1.009   4.534
 7500TIP3    H143915   5.756   1.030   4.440
 7500TIP3    H243916   5.849   0.975   4.546
 7501TIP3   OH243917   0.792   3.605   0.294
 7501TIP3    H143918   0.748   3.575   0.215
 7501TIP3    H243919   0.844   3.681   0.265
 7502TIP3   OH243920   0.165   0.025  11.710
 7502TIP3    H143921   0.186  -0.028  11.787
 7502TIP3    H243922   0.101   0.089  11.742
 7503TIP3   OH243923   0.317   3.787   4.620
 7503TIP3    H143924   0.307   3.698   4.587
 7503TIP3    H243925   0.411   3.802   4.622
 7504TIP3   OH243926   2.964   2.253   5.382
 7504TIP3    H143927   2.978   2.165   5.348
 7504TIP3    H243928   2.906   2.295   5.318
 7505TIP3   OH243929   4.274   5.864   0.729
 7505TIP3    H143930   4.261   5.958   0.722
 7505TIP3    H243931   4.333   5.853   0.804
 7506TIP3   OH243932   5.102   0.975  16.427
 7506TIP3    H143933   5.145   1.009  16.349
 7506TIP3    H243934   5.097   1.050  16.486
 7507TIP3   OH243935   5.781   4.054  13.578
 7507TIP3    H143936   5.798   4.144  13.552
 7507TIP3    H243937   5.712   4.024  13.518
 7508TIP3   OH243938   4.225   0.334  13.539
 7508TIP3    H143939   4.234   0.378  13.624
 7508TIP3    H243940   4.216   0.406  13.476
 7509TIP3   OH243941   6.480   0.043  13.582
 7509TIP3    H143942   6.426   0.120  13.600
 7509TIP3    H243943   6.502   0.051  13.489
 7510TIP3   OH243944   6.733   5.385  16.923
 7510TIP3    H143945   6.797   5.318  16.945
 7510TIP3    H243946   6.725   5.382  16.828
 7511TIP3   OH243947   0.297   2.168  14.255
 7511TIP3    H143948   0.327   2.100  14.195
 7511TIP3    H243949   0.377   2.211  14.285
 7512TIP3   OH243950   5.284   4.184  12.420
 7512TIP3    H143951   5.305   4.107  12.368
 7512TIP3    H243952   5.370   4.217  12.449
 7513TIP3   OH243953   1.445   6.539  12.444
 7513TIP3    H143954   1.366   6.588  12.467
 7513TIP3    H243955   1.455   6.476  12.515
 7514TIP3   OH243956   1.933   6.273   5.518
 7514TIP3    H143957   2.000   6.224   5.566
 7514TIP3    H243958   1.852   6.256   5.565
 7515TIP3   OH243959   3.276   3.811  15.164
 7515TIP3    H143960   3.327   3.737  15.199
 7515TIP3    H243961   3.188   3.775  15.151
 7516TIP3   OH243962   4.250   1.101  16.201
 7516TIP3    H143963   4.211   1.109  16.114
 7516TIP3    H243964   4.328   1.047  16.188
 7517TIP3   OH243965   4.045   2.270   6.226
 7517TIP3    H143966   4.089   2.280   6.310
 7517TIP3    H243967   4.057   2.178   6.203
 7518TIP3   OH243968   2.818   1.800   4.827
 7518TIP3    H143969   2.908   1.802   4.796
 7518TIP3    H243970   2.767   1.776   4.749
 7519TIP3   OH243971   4.936   2.336  14.002
 7519TIP3    H143972   4.894   2.288  13.930
 7519TIP3    H243973   5.029   2.336  13.979
 7520TIP3   OH243974   2.072   5.105   4.461
 7520TIP3    H143975   1.981   5.092   4.488
 7520TIP3    H243976   2.117   5.127   4.543
 7521TIP3   OH243977   3.383   6.775   3.003
 7521TIP3    H143978   3.317   6.819   3.057
 7521TIP3    H243979   3.434   6.724   3.066
 7522TIP3   OH243980   3.879   1.537  11.546
 7522TIP3    H143981   3.863   1.488  11.626
 7522TIP3    H243982   3.899   1.626  11.575
 7523TIP3   OH243983   4.324   6.233   2.073
 7523TIP3    H143984   4.293   6.260   1.987
 7523TIP3    H243985   4.378   6.156   2.056
 7524TIP3   OH243986   6.154   1.441   4.260
 7524TIP3    H143987   6.207   1.364   4.238
 7524TIP3    H243988   6.167   1.451   4.355
 7525TIP3   OH243989   2.216   5.343  12.129
 7525TIP3    H143990   2.174   5.330  12.044
 7525TIP3    H243991   2.254   5.431  12.124
 7526TIP3   OH243992   1.473   5.677  12.853
 7526TIP3    H143993   1.497   5.588  12.827
 7526TIP3    H243994   1.429   5.666  12.937
 7527TIP3   OH243995   4.157   1.260   4.926
 7527TIP3    H143996   4.237   1.211   4.946
 7527TIP3    H243997   4.153   1.328   4.992
 7528TIP3   OH243998   3.649   3.643  12.617
 7528TIP3    H143999   3.664   3.607  12.529
 7528TIP3    H244000   3.711   3.596  12.672
 7529TIP3   OH244001   6.310   3.942   4.148
 7529TIP3    H144002   6.241   3.888   4.111
 7529TIP3    H244003   6.328   3.902   4.234
 7530TIP3   OH244004   6.730   1.678   1.642
 7530TIP3    H144005   6.730   1.697   1.549
 7530TIP3    H244006   6.668   1.606   1.652
 7531TIP3   OH244007   1.301   3.907   0.367
 7531TIP3    H144008   1.347   3.843   0.312
 7531TIP3    H244009   1.306   3.869   0.455
 7532TIP3   OH244010   4.449   2.593  16.717
 7532TIP3    H144011   4.531   2.544  16.706
 7532TIP3    H244012   4.438   2.641  16.635
 7533TIP3   OH244013   4.173   5.208   3.857
 7533TIP3    H144014   4.168   5.221   3.951
 7533TIP3    H244015   4.260   5.172   3.841
 7534TIP3   OH244016   1.974   5.656   4.940
 7534TIP3    H144017   1.977   5.625   5.030
 7534TIP3    H244018   1.946   5.747   4.947
 7535TIP3   OH244019   0.149   3.631   3.561
 7535TIP3    H144020   0.063   3.665   3.584
 7535TIP3    H244021   0.136   3.536   3.554
 7536TIP3   OH244022   4.441   1.197   0.043
 7536TIP3    H144023   4.532   1.168   0.054
 7536TIP3    H244024   4.430   1.204  -0.052
 7537TIP3   OH244025   3.933   6.022  11.730
 7537TIP3    H144026   3.850   6.008  11.686
 7537TIP3    H244027   3.937   5.952  11.795
 7538TIP3   OH244028   6.137   1.465  11.719
 7538TIP3    H144029   6.177   1.550  11.739
 7538TIP3    H244030   6.136   1.419  11.803
 7539TIP3   OH244031   2.055   0.250  15.784
 7539TIP3    H144032   2.142   0.214  15.804
 7539TIP3    H244033   2.007   0.243  15.866
 7540TIP3   OH244034   2.149   3.918  14.503
 7540TIP3    H144035   2.190   3.839  14.538
 7540TIP3    H244036   2.079   3.938  14.565
 7541TIP3   OH244037   2.018   0.939   3.098
 7541TIP3    H144038   2.063   1.024   3.102
 7541TIP3    H244039   1.960   0.939   3.174
 7542TIP3   OH244040   2.603   3.063   3.850
 7542TIP3    H144041   2.594   2.977   3.890
 7542TIP3    H244042   2.688   3.061   3.807
 7543TIP3   OH244043   3.814   2.947   5.249
 7543TIP3    H144044   3.804   2.977   5.339
 7543TIP3    H244045   3.754   3.001   5.199
 7544TIP3   OH244046   6.392   2.764  12.283
 7544TIP3    H144047   6.304   2.786  12.254
 7544TIP3    H244048   6.433   2.849  12.301
 7545TIP3   OH244049   5.857   0.053   4.131
 7545TIP3    H144050   5.837   0.037   4.039
 7545TIP3    H244051   5.949   0.028   4.141
 7546TIP3   OH244052   6.562   4.798  11.758
 7546TIP3    H144053   6.597   4.803  11.669
 7546TIP3    H244054   6.496   4.867  11.762
 7547TIP3   OH244055   5.798   0.297   5.440
 7547TIP3    H144056   5.785   0.229   5.374
 7547TIP3    H244057   5.778   0.254   5.523
 7548TIP3   OH244058   1.290   5.335  12.568
 7548TIP3    H144059   1.317   5.334  12.477
 7548TIP3    H244060   1.194   5.328  12.565
 7549TIP3   OH244061   4.906   5.642  12.839
 7549TIP3    H144062   4.927   5.559  12.797
 7549TIP3    H244063   4.862   5.694  12.772
 7550TIP3   OH244064   6.135   3.713   0.742
 7550TIP3    H144065   6.214   3.661   0.754
 7550TIP3    H244066   6.090   3.709   0.827
 7551TIP3   OH244067   5.834   0.801  10.794
 7551TIP3    H144068   5.911   0.847  10.827
 7551TIP3    H244069   5.863   0.712  10.779
 7552TIP3   OH244070   5.286   5.985   1.170
 7552TIP3    H144071   5.366   5.958   1.215
 7552TIP3    H244072   5.296   5.952   1.081
 7553TIP3   OH244073   1.009   6.684   3.176
 7553TIP3    H144074   0.972   6.689   3.265
 7553TIP3    H244075   0.936   6.709   3.119
 7554TIP3   OH244076   1.386   4.514   1.232
 7554TIP3    H144077   1.469   4.485   1.271
 7554TIP3    H244078   1.351   4.435   1.191
 7555TIP3   OH244079   3.480   5.397   3.433
 7555TIP3    H144080   3.514   5.352   3.356
 7555TIP3    H244081   3.433   5.330   3.482
 7556TIP3   OH244082   6.463   1.207  11.266
 7556TIP3    H144083   6.374   1.173  11.259
 7556TIP3    H244084   6.472   1.265  11.190
 7557TIP3   OH244085   0.208   1.082  11.986
 7557TIP3    H144086   0.190   1.174  12.003
 7557TIP3    H244087   0.302   1.073  12.002
 7558TIP3   OH244088   6.447   4.185   0.190
 7558TIP3    H144089   6.429   4.099   0.227
 7558TIP3    H244090   6.378   4.199   0.126
 7559TIP3   OH244091   2.426   1.343  12.603
 7559TIP3    H144092   2.364   1.415  12.610
 7559TIP3    H244093   2.464   1.352  12.516
 7560TIP3   OH244094   2.631   6.604  11.491
 7560TIP3    H144095   2.615   6.606  11.396
 7560TIP3    H244096   2.637   6.696  11.516
 7561TIP3   OH244097   6.364   5.041   6.159
 7561TIP3    H144098   6.299   4.982   6.196
 7561TIP3    H244099   6.391   5.096   6.233
 7562TIP3   OH244100   0.642   4.214   5.881
 7562TIP3    H144101   0.630   4.170   5.965
 7562TIP3    H244102   0.578   4.173   5.823
 7563TIP3   OH244103   6.221   2.830   2.299
 7563TIP3    H144104   6.293   2.784   2.341
 7563TIP3    H244105   6.189   2.768   2.233
 7564TIP3   OH244106   3.272   1.128   5.622
 7564TIP3    H144107   3.282   1.089   5.535
 7564TIP3    H244108   3.254   1.220   5.605
 7565TIP3   OH244109   0.237   3.087   5.915
 7565TIP3    H144110   0.168   3.087   5.848
 7565TIP3    H244111   0.190   3.098   5.998
 7566TIP3   OH244112   3.056   5.545  16.506
 7566TIP3    H144113   2.960   5.551  16.507
 7566TIP3    H244114   3.085   5.635  16.497
 7567TIP3   OH244115   4.773   2.183   3.714
 7567TIP3    H144116   4.696   2.241   3.714
 7567TIP3    H244117   4.820   2.206   3.634
 7568TIP3   OH244118   4.620   3.297  16.122
 7568TIP3    H144119   4.712   3.326  16.122
 7568TIP3    H244120   4.621   3.214  16.075
 7569TIP3   OH244121   2.021   0.564   0.520
 7569TIP3    H144122   2.060   0.651   0.513
 7569TIP3    H244123   2.050   0.518   0.441
 7570TIP3   OH244124   4.647   6.741   3.630
 7570TIP3    H144125   4.713   6.687   3.672
 7570TIP3    H244126   4.564   6.714   3.670
 7571TIP3   OH244127   4.209   2.861   5.302
 7571TIP3    H144128   4.168   2.940   5.266
 7571TIP3    H244129   4.264   2.895   5.373
 7572TIP3   OH244130   5.083   1.390  16.349
 7572TIP3    H144131   5.108   1.379  16.441
 7572TIP3    H244132   5.053   1.481  16.343
 7573TIP3   OH244133   5.253   4.725   1.937
 7573TIP3    H144134   5.187   4.772   1.989
 7573TIP3    H244135   5.230   4.633   1.946
 7574TIP3   OH244136   3.801   3.615  11.856
 7574TIP3    H144137   3.845   3.680  11.802
 7574TIP3    H244138   3.738   3.574  11.797
 7575TIP3   OH244139   4.583   2.963   0.149
 7575TIP3    H144140   4.551   2.903   0.082
 7575TIP3    H244141   4.659   3.005   0.110
 7576TIP3   OH244142   3.042   0.896   5.431
 7576TIP3    H144143   2.982   0.829   5.466
 7576TIP3    H244144   2.986   0.955   5.381
 7577TIP3   OH244145   4.813   3.486  14.819
 7577TIP3    H144146   4.843   3.465  14.730
 7577TIP3    H244147   4.880   3.448  14.876
 7578TIP3   OH244148   5.932   5.500  16.198
 7578TIP3    H144149   5.972   5.458  16.274
 7578TIP3    H244150   6.000   5.497  16.130
 7579TIP3   OH244151   1.812   1.047   1.408
 7579TIP3    H144152   1.792   1.087   1.324
 7579TIP3    H244153   1.746   1.083   1.468
 7580TIP3   OH244154   0.255   4.720   0.180
 7580TIP3    H144155   0.188   4.747   0.117
 7580TIP3    H244156   0.206   4.687   0.255
 7581TIP3   OH244157   3.433   3.158   2.311
 7581TIP3    H144158   3.363   3.126   2.368
 7581TIP3    H244159   3.514   3.134   2.355
 7582TIP3   OH244160   4.390   0.382   1.833
 7582TIP3    H144161   4.337   0.439   1.776
 7582TIP3    H244162   4.361   0.294   1.812
 7583TIP3   OH244163   0.178   5.936  16.175
 7583TIP3    H144164   0.229   5.912  16.252
 7583TIP3    H244165   0.098   5.976  16.210
 7584TIP3   OH244166   5.094   6.171   1.118
 7584TIP3    H144167   5.045   6.110   1.064
 7584TIP3    H244168   5.175   6.125   1.140
 7585TIP3   OH244169   4.874   6.138   4.702
 7585TIP3    H144170   4.919   6.109   4.781
 7585TIP3    H244171   4.798   6.187   4.735
 7586TIP3   OH244172   5.934   1.429  13.341
 7586TIP3    H144173   5.960   1.446  13.250
 7586TIP3    H244174   5.998   1.477  13.394
 7587TIP3   OH244175   4.250   1.680  12.809
 7587TIP3    H144176   4.301   1.759  12.789
 7587TIP3    H244177   4.270   1.620  12.737
 7588TIP3   OH244178   5.571   1.210   4.492
 7588TIP3    H144179   5.659   1.237   4.465
 7588TIP3    H244180   5.555   1.129   4.444
 7589TIP3   OH244181   4.210   3.832  13.047
 7589TIP3    H144182   4.243   3.746  13.076
 7589TIP3    H244183   4.138   3.851  13.106
 7590TIP3   OH244184   0.708   6.235   5.610
 7590TIP3    H144185   0.770   6.164   5.598
 7590TIP3    H244186   0.709   6.252   5.704
 7591TIP3   OH244187   4.581   4.446  14.777
 7591TIP3    H144188   4.561   4.353  14.792
 7591TIP3    H244189   4.592   4.482  14.865
 7592TIP3   OH244190   6.660   6.229   0.468
 7592TIP3    H144191   6.743   6.233   0.516
 7592TIP3    H244192   6.612   6.306   0.498
 7593TIP3   OH244193   4.405   2.570  11.868
 7593TIP3    H144194   4.400   2.644  11.928
 7593TIP3    H244195   4.352   2.596  11.793
 7594TIP3   OH244196   1.958   4.048   2.999
 7594TIP3    H144197   2.000   4.056   3.084
 7594TIP3    H244198   1.989   4.124   2.949
 7595TIP3   OH244199   3.566   6.336  11.766
 7595TIP3    H144200   3.649   6.332  11.813
 7595TIP3    H244201   3.581   6.398  11.695
 7596TIP3   OH244202   3.093   3.743  15.566
 7596TIP3    H144203   3.186   3.759  15.551
 7596TIP3    H244204   3.069   3.678  15.500
 7597TIP3   OH244205   5.655   5.630  15.662
 7597TIP3    H144206   5.588   5.585  15.713
 7597TIP3    H244207   5.612   5.652  15.579
 7598TIP3   OH244208   1.584   0.816  12.977
 7598TIP3    H144209   1.596   0.852  12.889
 7598TIP3    H244210   1.583   0.721  12.964
 7599TIP3   OH244211   3.455   5.398   6.222
 7599TIP3    H144212   3.420   5.316   6.187
 7599TIP3    H244213   3.427   5.465   6.159
 7600TIP3   OH244214   6.144   2.070  11.945
 7600TIP3    H144215   6.057   2.035  11.927
 7600TIP3    H244216   6.195   1.994  11.974
 7601TIP3   OH244217   0.017   3.971   0.190
 7601TIP3    H144218  -0.062   4.023   0.180
 7601TIP3    H244219   0.006   3.926   0.274
 7602TIP3   OH244220   5.422   1.104   3.663
 7602TIP3    H144221   5.496   1.109   3.602
 7602TIP3    H244222   5.357   1.050   3.618
 7603TIP3   OH244223   5.110   3.256   6.293
 7603TIP3    H144224   5.069   3.208   6.222
 7603TIP3    H244225   5.038   3.287   6.347
 7604TIP3   OH244226   2.294   3.550  11.606
 7604TIP3    H144227   2.238   3.627  11.608
 7604TIP3    H244228   2.311   3.535  11.513
 7605TIP3   OH244229   3.736   4.480   2.350
 7605TIP3    H144230   3.741   4.427   2.270
 7605TIP3    H244231   3.788   4.432   2.414
 7606TIP3   OH244232   6.677   5.278   3.044
 7606TIP3    H144233   6.581   5.277   3.044
 7606TIP3    H244234   6.700   5.352   3.101
 7607TIP3   OH244235   0.758   6.151  12.418
 7607TIP3    H144236   0.742   6.164  12.511
 7607TIP3    H244237   0.789   6.060  12.412
 7608TIP3   OH244238   0.217   3.704   3.278
 7608TIP3    H144239   0.202   3.614   3.249
 7608TIP3    H244240   0.162   3.713   3.356
 7609TIP3   OH244241   1.007   4.491   2.636
 7609TIP3    H144242   1.092   4.477   2.678
 7609TIP3    H244243   0.971   4.568   2.679
 7610TIP3   OH244244   3.118   4.497   1.069
 7610TIP3    H144245   3.170   4.464   0.996
 7610TIP3    H244246   3.140   4.441   1.143
 7611TIP3   OH244247   5.933   6.040   1.821
 7611TIP3    H144248   5.911   6.113   1.763
 7611TIP3    H244249   5.848   6.007   1.851
 7612TIP3   OH244250   3.133   5.973  12.791
 7612TIP3    H144251   3.072   5.907  12.758
 7612TIP3    H244252   3.206   5.972  12.729
 7613TIP3   OH244253   5.281   0.160  12.545
 7613TIP3    H144254   5.353   0.220  12.524
 7613TIP3    H244255   5.274   0.164  12.641
 7614TIP3   OH244256   0.108   0.757  14.266
 7614TIP3    H144257   0.061   0.840  14.252
 7614TIP3    H244258   0.040   0.697  14.298
 7615TIP3   OH244259   1.680   4.170   5.392
 7615TIP3    H144260   1.665   4.079   5.415
 7615TIP3    H244261   1.592   4.206   5.376
 7616TIP3   OH244262   4.262   3.640   5.529
 7616TIP3    H144263   4.299   3.553   5.512
 7616TIP3    H244264   4.332   3.700   5.504
 7617TIP3   OH244265   3.627   4.400   5.697
 7617TIP3    H144266   3.608   4.320   5.648
 7617TIP3    H244267   3.716   4.387   5.731
 7618TIP3   OH244268   1.779   3.370  11.786
 7618TIP3    H144269   1.813   3.294  11.834
 7618TIP3    H244270   1.849   3.394  11.726
 7619TIP3   OH244271   0.043   4.680  14.050
 7619TIP3    H144272  -0.046   4.657  14.074
 7619TIP3    H244273   0.098   4.623  14.104
 7620TIP3   OH244274   1.687   3.431   4.525
 7620TIP3    H144275   1.767   3.462   4.482
 7620TIP3    H244276   1.661   3.504   4.582
 7621TIP3   OH244277   0.618   3.936  11.347
 7621TIP3    H144278   0.712   3.924  11.363
 7621TIP3    H244279   0.594   4.011  11.402
 7622TIP3   OH244280   6.693   2.598   5.847
 7622TIP3    H144281   6.681   2.690   5.872
 7622TIP3    H244282   6.615   2.554   5.879
 7623TIP3   OH244283   0.519   6.253  16.355
 7623TIP3    H144284   0.586   6.233  16.291
 7623TIP3    H244285   0.482   6.337  16.326
 7624TIP3   OH244286   0.308   2.740   3.132
 7624TIP3    H144287   0.226   2.737   3.082
 7624TIP3    H244288   0.324   2.650   3.158
 7625TIP3   OH244289   0.768   2.035  17.018
 7625TIP3    H144290   0.724   1.997  17.094
 7625TIP3    H244291   0.737   1.982  16.944
 7626TIP3   OH244292   6.397   2.718   3.930
 7626TIP3    H144293   6.433   2.648   3.876
 7626TIP3    H244294   6.345   2.772   3.869
 7627TIP3   OH244295   1.141   0.295   2.689
 7627TIP3    H144296   1.123   0.248   2.771
 7627TIP3    H244297   1.225   0.338   2.704
 7628TIP3   OH244298   5.907   0.986   3.887
 7628TIP3    H144299   5.843   1.057   3.874
 7628TIP3    H244300   5.872   0.913   3.836
 7629TIP3   OH244301   2.536   1.664   6.473
 7629TIP3    H144302   2.566   1.711   6.396
 7629TIP3    H244303   2.447   1.695   6.488
 7630TIP3   OH244304   4.587   3.202   5.669
 7630TIP3    H144305   4.656   3.195   5.735
 7630TIP3    H244306   4.510   3.162   5.710
 7631TIP3   OH244307   0.966   4.886   1.593
 7631TIP3    H144308   0.930   4.864   1.508
 7631TIP3    H244309   0.924   4.825   1.654
 7632TIP3   OH244310   2.919   1.471   4.710
 7632TIP3    H144311   2.919   1.494   4.617
 7632TIP3    H244312   2.996   1.415   4.721
 7633TIP3   OH244313   2.701   4.173  14.023
 7633TIP3    H144314   2.753   4.238  14.071
 7633TIP3    H244315   2.641   4.226  13.970
 7634TIP3   OH244316   2.518   2.689  15.836
 7634TIP3    H144317   2.564   2.649  15.910
 7634TIP3    H244318   2.457   2.622  15.806
 7635TIP3   OH244319   1.341   6.352  11.903
 7635TIP3    H144320   1.314   6.318  11.988
 7635TIP3    H244321   1.432   6.323  11.892
 7636TIP3   OH244322   6.705   2.745  13.659
 7636TIP3    H144323   6.625   2.761  13.710
 7636TIP3    H244324   6.774   2.787  13.709
 7637TIP3   OH244325   5.455   0.661   5.289
 7637TIP3    H144326   5.421   0.627   5.207
 7637TIP3    H244327   5.547   0.682   5.270
 7638TIP3   OH244328   1.112   1.971  15.584
 7638TIP3    H144329   1.160   2.034  15.637
 7638TIP3    H244330   1.111   2.010  15.496
 7639TIP3   OH244331   2.330   4.919  12.933
 7639TIP3    H144332   2.389   4.935  12.859
 7639TIP3    H244333   2.385   4.876  12.998
 7640TIP3   OH244334   1.144   2.104  16.617
 7640TIP3    H144335   1.222   2.102  16.673
 7640TIP3    H244336   1.131   2.196  16.596
 7641TIP3   OH244337   4.809   2.679  11.971
 7641TIP3    H144338   4.775   2.720  12.051
 7641TIP3    H244339   4.836   2.753  11.916
 7642TIP3   OH244340   4.253   3.719  14.514
 7642TIP3    H144341   4.180   3.694  14.456
 7642TIP3    H244342   4.282   3.804  14.480
 7643TIP3   OH244343   1.489   1.376   4.600
 7643TIP3    H144344   1.545   1.331   4.538
 7643TIP3    H244345   1.442   1.441   4.548
 7644TIP3   OH244346   0.385   3.473  14.440
 7644TIP3    H144347   0.352   3.476  14.530
 7644TIP3    H244348   0.395   3.380  14.421
 7645TIP3   OH244349   1.118   4.979   0.318
 7645TIP3    H144350   1.142   5.072   0.317
 7645TIP3    H244351   1.099   4.960   0.410
 7646TIP3   OH244352   6.075   1.036  15.161
 7646TIP3    H144353   6.032   1.118  15.138
 7646TIP3    H244354   6.119   1.009  15.081
 7647TIP3   OH244355   3.226   6.163  12.439
 7647TIP3    H144356   3.316   6.132  12.443
 7647TIP3    H244357   3.234   6.258  12.434
 7648TIP3   OH244358   2.208   4.216   6.409
 7648TIP3    H144359   2.229   4.285   6.345
 7648TIP3    H244360   2.278   4.223   6.475
 7649TIP3   OH244361   5.106   0.141  13.006
 7649TIP3    H144362   5.091   0.051  13.036
 7649TIP3    H244363   5.022   0.185  13.019
 7650TIP3   OH244364   6.081   5.365   3.052
 7650TIP3    H144365   6.093   5.281   3.007
 7650TIP3    H244366   6.128   5.355   3.134
 7651TIP3   OH244367   1.587   1.976   3.482
 7651TIP3    H144368   1.503   1.997   3.442
 7651TIP3    H244369   1.631   1.920   3.418
 7652TIP3   OH244370   0.347   0.973   0.229
 7652TIP3    H144371   0.271   0.942   0.180
 7652TIP3    H244372   0.340   1.068   0.227
 7653TIP3   OH244373   0.074   3.776  14.857
 7653TIP3    H144374  -0.020   3.793  14.853
 7653TIP3    H244375   0.081   3.687  14.891
 7654TIP3   OH244376   2.468   5.687  16.599
 7654TIP3    H144377   2.419   5.609  16.573
 7654TIP3    H244378   2.500   5.666  16.687
 7655TIP3   OH244379   4.553   0.083  16.665
 7655TIP3    H144380   4.646   0.103  16.679
 7655TIP3    H244381   4.553   0.020  16.593
 7656TIP3   OH244382   1.826   1.117  10.996
 7656TIP3    H144383   1.866   1.069  10.923
 7656TIP3    H244384   1.797   1.200  10.957
 7657TIP3   OH244385   3.714   3.987  11.095
 7657TIP3    H144386   3.699   3.987  11.001
 7657TIP3    H244387   3.666   3.911  11.127
 7658TIP3   OH244388   0.090   6.535   4.860
 7658TIP3    H144389   0.064   6.595   4.790
 7658TIP3    H244390   0.023   6.467   4.860
 7659TIP3   OH244391   4.102   4.930   6.164
 7659TIP3    H144392   4.023   4.983   6.181
 7659TIP3    H244393   4.148   4.929   6.248
 7660TIP3   OH244394   5.067   3.632   5.853
 7660TIP3    H144395   5.072   3.597   5.764
 7660TIP3    H244396   5.114   3.567   5.906
 7661TIP3   OH244397   1.280   3.059  16.101
 7661TIP3    H144398   1.294   3.092  16.190
 7661TIP3    H244399   1.192   3.021  16.104
 7662TIP3   OH244400   0.789   0.909   5.144
 7662TIP3    H144401   0.801   0.924   5.238
 7662TIP3    H244402   0.705   0.950   5.124
 7663TIP3   OH244403   4.203   0.476   5.119
 7663TIP3    H144404   4.225   0.392   5.078
 7663TIP3    H244405   4.254   0.478   5.200
 7664TIP3   OH244406   3.458   6.402   1.007
 7664TIP3    H144407   3.447   6.363   0.921
 7664TIP3    H244408   3.511   6.340   1.056
 7665TIP3   OH244409   2.942   5.709   6.711
 7665TIP3    H144410   2.992   5.696   6.631
 7665TIP3    H244411   2.854   5.678   6.690
 7666TIP3   OH244412   4.052   3.864  14.101
 7666TIP3    H144413   3.966   3.851  14.060
 7666TIP3    H244414   4.036   3.928  14.171
 7667TIP3   OH244415   4.758   4.331   5.882
 7667TIP3    H144416   4.829   4.323   5.818
 7667TIP3    H244417   4.769   4.255   5.939
 7668TIP3   OH244418   0.771   3.174   3.684
 7668TIP3    H144419   0.816   3.166   3.768
 7668TIP3    H244420   0.719   3.254   3.692
 7669TIP3   OH244421   3.776   0.859   5.307
 7669TIP3    H144422   3.806   0.774   5.273
 7669TIP3    H244423   3.686   0.867   5.276
 7670TIP3   OH244424   3.000   3.683   5.203
 7670TIP3    H144425   3.054   3.702   5.280
 7670TIP3    H244426   2.910   3.682   5.237
 7671TIP3   OH244427   3.400   0.380  10.351
 7671TIP3    H144428   3.325   0.419  10.304
 7671TIP3    H244429   3.438   0.453  10.400
 7672TIP3   OH244430   5.137   1.482  14.068
 7672TIP3    H144431   5.156   1.391  14.091
 7672TIP3    H244432   5.171   1.492  13.979
 7673TIP3   OH244433   0.732   5.877  12.049
 7673TIP3    H144434   0.764   5.795  12.087
 7673TIP3    H244435   0.657   5.901  12.104
 7674TIP3   OH244436   4.517   5.219  16.983
 7674TIP3    H144437   4.519   5.241  17.076
 7674TIP3    H244438   4.490   5.300  16.940
 7675TIP3   OH244439   6.647   2.534   2.020
 7675TIP3    H144440   6.652   2.576   2.106
 7675TIP3    H244441   6.657   2.607   1.958
 7676TIP3   OH244442   2.053   0.064  14.644
 7676TIP3    H144443   2.098   0.147  14.662
 7676TIP3    H244444   1.986   0.087  14.580
 7677TIP3   OH244445   1.894   5.992   4.165
 7677TIP3    H144446   1.923   5.964   4.078
 7677TIP3    H244447   1.958   5.955   4.225
 7678TIP3   OH244448   0.736   1.956   0.643
 7678TIP3    H144449   0.826   1.966   0.674
 7678TIP3    H244450   0.743   1.893   0.570
 7679TIP3   OH244451   0.553   0.741   0.990
 7679TIP3    H144452   0.521   0.684   0.921
 7679TIP3    H244453   0.625   0.692   1.030
 7680TIP3   OH244454   1.035   1.315   6.033
 7680TIP3    H144455   0.970   1.382   6.056
 7680TIP3    H244456   0.987   1.233   6.035
 7681TIP3   OH244457   3.315   0.460  10.813
 7681TIP3    H144458   3.354   0.389  10.864
 7681TIP3    H244459   3.388   0.499  10.765
 7682TIP3   OH244460   2.070   5.563   3.788
 7682TIP3    H144461   2.017   5.489   3.818
 7682TIP3    H244462   2.160   5.538   3.806
 7683TIP3   OH244463   5.401   3.467  12.773
 7683TIP3    H144464   5.478   3.520  12.790
 7683TIP3    H244465   5.327   3.524  12.795
 7684TIP3   OH244466   2.978   3.042  14.692
 7684TIP3    H144467   2.939   3.019  14.607
 7684TIP3    H244468   2.998   2.958  14.733
 7685TIP3   OH244469   4.081   2.216  12.854
 7685TIP3    H144470   4.099   2.137  12.803
 7685TIP3    H244471   3.985   2.224  12.853
 7686TIP3   OH244472   1.285   4.897  11.410
 7686TIP3    H144473   1.272   4.955  11.335
 7686TIP3    H244474   1.225   4.929  11.477
 7687TIP3   OH244475   0.084   1.264  13.715
 7687TIP3    H144476   0.071   1.293  13.625
 7687TIP3    H244477   0.121   1.176  13.706
 7688TIP3   OH244478   3.296   3.940   0.020
 7688TIP3    H144479   3.224   3.985  -0.026
 7688TIP3    H244480   3.295   3.978   0.108
 7689TIP3   OH244481   6.012   5.365  12.784
 7689TIP3    H144482   5.969   5.419  12.718
 7689TIP3    H244483   6.074   5.311  12.735
 7690TIP3   OH244484   1.527   1.799   0.003
 7690TIP3    H144485   1.543   1.813  -0.090
 7690TIP3    H244486   1.480   1.716   0.007
 7691TIP3   OH244487   0.118   3.889   5.505
 7691TIP3    H144488   0.134   3.796   5.523
 7691TIP3    H244489   0.083   3.890   5.416
 7692TIP3   OH244490   0.627   4.557   0.856
 7692TIP3    H144491   0.612   4.462   0.852
 7692TIP3    H244492   0.715   4.566   0.891
 7693TIP3   OH244493   0.430   1.092  12.612
 7693TIP3    H144494   0.476   1.144  12.546
 7693TIP3    H244495   0.337   1.110  12.595
 7694TIP3   OH244496   4.675   6.248   1.004
 7694TIP3    H144497   4.598   6.273   1.056
 7694TIP3    H244498   4.718   6.331   0.983
 7695TIP3   OH244499   2.190   0.246  11.331
 7695TIP3    H144500   2.212   0.235  11.423
 7695TIP3    H244501   2.220   0.166  11.289
 7696TIP3   OH244502   0.798   6.753   3.911
 7696TIP3    H144503   0.735   6.688   3.941
 7696TIP3    H244504   0.765   6.782   3.827
 7697TIP3   OH244505   0.096   4.498  16.341
 7697TIP3    H144506   0.182   4.465  16.367
 7697TIP3    H244507   0.103   4.593  16.350
 7698TIP3   OH244508   1.390   4.836  12.855
 7698TIP3    H144509   1.419   4.751  12.888
 7698TIP3    H244510   1.298   4.842  12.883
 7699TIP3   OH244511   4.628   4.514   4.476
 7699TIP3    H144512   4.572   4.577   4.431
 7699TIP3    H244513   4.655   4.453   4.407
 7700TIP3   OH244514   1.776   2.904  13.190
 7700TIP3    H144515   1.870   2.909  13.169
 7700TIP3    H244516   1.733   2.955  13.121
 7701TIP3   OH244517   6.244   2.991  15.892
 7701TIP3    H144518   6.269   3.001  15.800
 7701TIP3    H244519   6.214   2.900  15.898
 7702TIP3   OH244520   4.004   1.535  16.518
 7702TIP3    H144521   3.991   1.441  16.503
 7702TIP3    H244522   3.951   1.578  16.452
 7703TIP3   OH244523   5.714   5.132  13.972
 7703TIP3    H144524   5.794   5.120  13.920
 7703TIP3    H244525   5.736   5.202  14.034
 7704TIP3   OH244526   5.914   1.282   4.621
 7704TIP3    H144527   5.904   1.366   4.577
 7704TIP3    H244528   6.009   1.271   4.630
 7705TIP3   OH244529   6.516   3.824  15.821
 7705TIP3    H144530   6.441   3.765  15.808
 7705TIP3    H244531   6.476   3.909  15.839
 7706TIP3   OH244532   6.575   4.858  13.872
 7706TIP3    H144533   6.496   4.822  13.832
 7706TIP3    H244534   6.575   4.823  13.961
 7707TIP3   OH244535   2.372   2.192  14.260
 7707TIP3    H144536   2.433   2.223  14.194
 7707TIP3    H244537   2.411   2.112  14.293
 7708TIP3   OH244538   4.040   0.226   1.914
 7708TIP3    H144539   4.030   0.320   1.926
 7708TIP3    H244540   4.005   0.209   1.826
 7709TIP3   OH244541   0.479   1.028  11.907
 7709TIP3    H144542   0.514   0.979  11.981
 7709TIP3    H244543   0.552   1.083  11.877
 7710TIP3   OH244544   5.134   5.506   1.274
 7710TIP3    H144545   5.169   5.444   1.338
 7710TIP3    H244546   5.077   5.453   1.218
 7711TIP3   OH244547   4.828   5.578  10.927
 7711TIP3    H144548   4.884   5.598  11.002
 7711TIP3    H244549   4.740   5.569  10.964
 7712TIP3   OH244550   5.849   2.459   3.093
 7712TIP3    H144551   5.773   2.443   3.148
 7712TIP3    H244552   5.914   2.497   3.151
 7713TIP3   OH244553   0.675   4.586   3.360
 7713TIP3    H144554   0.659   4.677   3.385
 7713TIP3    H244555   0.720   4.592   3.275
 7714TIP3   OH244556   1.929   6.091   4.591
 7714TIP3    H144557   1.928   6.137   4.508
 7714TIP3    H244558   2.014   6.115   4.631
 7715TIP3   OH244559   6.376   2.433  15.860
 7715TIP3    H144560   6.373   2.529  15.857
 7715TIP3    H244561   6.350   2.412  15.950
 7716TIP3   OH244562   4.752   4.011   5.954
 7716TIP3    H144563   4.817   4.061   6.004
 7716TIP3    H244564   4.775   3.919   5.970
 7717TIP3   OH244565   2.207   1.721   4.663
 7717TIP3    H144566   2.267   1.674   4.720
 7717TIP3    H244567   2.124   1.720   4.709
 7718TIP3   OH244568   2.352   4.937   1.611
 7718TIP3    H144569   2.299   4.980   1.543
 7718TIP3    H244570   2.345   4.995   1.687
 7719TIP3   OH244571   1.121   0.764  11.063
 7719TIP3    H144572   1.138   0.744  10.970
 7719TIP3    H244573   1.191   0.824  11.088
 7720TIP3   OH244574   5.609   4.602  11.227
 7720TIP3    H144575   5.559   4.565  11.155
 7720TIP3    H244576   5.587   4.549  11.303
 7721TIP3   OH244577   0.875   1.348  13.748
 7721TIP3    H144578   0.911   1.428  13.786
 7721TIP3    H244579   0.808   1.378  13.687
 7722TIP3   OH244580   4.579   0.383  13.071
 7722TIP3    H144581   4.553   0.390  13.163
 7722TIP3    H244582   4.532   0.453  13.026
 7723TIP3   OH244583   1.234   4.208  11.793
 7723TIP3    H144584   1.189   4.168  11.718
 7723TIP3    H244585   1.299   4.265  11.753
 7724TIP3   OH244586   6.076   1.917   2.556
 7724TIP3    H144587   6.123   1.962   2.486
 7724TIP3    H244588   5.986   1.951   2.550
 7725TIP3   OH244589   6.443   4.032  13.274
 7725TIP3    H144590   6.369   3.998  13.223
 7725TIP3    H244591   6.403   4.091  13.338
 7726TIP3   OH244592   6.471   1.487  13.792
 7726TIP3    H144593   6.468   1.579  13.819
 7726TIP3    H244594   6.410   1.482  13.718
 7727TIP3   OH244595   4.615   5.372  14.884
 7727TIP3    H144596   4.662   5.329  14.955
 7727TIP3    H244597   4.549   5.426  14.927
 7728TIP3   OH244598   0.795   4.903  14.468
 7728TIP3    H144599   0.731   4.944  14.411
 7728TIP3    H244600   0.765   4.812  14.477
 7729TIP3   OH244601   2.434   5.369  16.284
 7729TIP3    H144602   2.450   5.442  16.224
 7729TIP3    H244603   2.339   5.363  16.290
 7730TIP3   OH244604   6.521   0.867   1.915
 7730TIP3    H144605   6.531   0.905   2.003
 7730TIP3    H244606   6.592   0.905   1.864
 7731TIP3   OH244607   1.456   0.978  17.030
 7731TIP3    H144608   1.541   0.934  17.032
 7731TIP3    H244609   1.394   0.913  17.062
 7732TIP3   OH244610   2.991   1.672   5.687
 7732TIP3    H144611   2.953   1.760   5.689
 7732TIP3    H244612   2.917   1.613   5.696
 7733TIP3   OH244613   4.676   1.844   0.210
 7733TIP3    H144614   4.700   1.884   0.293
 7733TIP3    H244615   4.667   1.917   0.149
 7734TIP3   OH244616   5.376   6.005  12.264
 7734TIP3    H144617   5.412   6.062  12.196
 7734TIP3    H244618   5.359   5.922  12.219
 7735TIP3   OH244619   1.818   5.366  11.336
 7735TIP3    H144620   1.792   5.325  11.418
 7735TIP3    H244621   1.848   5.294  11.281
 7736TIP3   OH244622   0.606   4.638  13.860
 7736TIP3    H144623   0.550   4.715  13.869
 7736TIP3    H244624   0.569   4.590  13.786
 7737TIP3   OH244625   0.906   4.392  12.687
 7737TIP3    H144626   0.822   4.357  12.718
 7737TIP3    H244627   0.943   4.322  12.633
 7738TIP3   OH244628   3.525   6.505  13.793
 7738TIP3    H144629   3.479   6.523  13.711
 7738TIP3    H244630   3.616   6.492  13.767
 7739TIP3   OH244631   1.869   5.296  16.196
 7739TIP3    H144632   1.897   5.248  16.118
 7739TIP3    H244633   1.878   5.234  16.268
 7740TIP3   OH244634   5.145   6.199  16.744
 7740TIP3    H144635   5.231   6.236  16.728
 7740TIP3    H244636   5.133   6.208  16.839
 7741TIP3   OH244637   6.056   4.151  17.117
 7741TIP3    H144638   6.018   4.153  17.029
 7741TIP3    H244639   6.021   4.072  17.157
 7742TIP3   OH244640   3.511   5.279  15.355
 7742TIP3    H144641   3.557   5.348  15.402
 7742TIP3    H244642   3.419   5.292  15.378
 7743TIP3   OH244643   3.661   4.070  11.938
 7743TIP3    H144644   3.654   4.032  11.851
 7743TIP3    H244645   3.730   4.020  11.981
 7744TIP3   OH244646   2.647   5.498  14.122
 7744TIP3    H144647   2.661   5.464  14.034
 7744TIP3    H244648   2.627   5.421  14.175
 7745TIP3   OH244649   6.314   2.993   1.696
 7745TIP3    H144650   6.387   2.976   1.756
 7745TIP3    H244651   6.237   2.997   1.752
 7746TIP3   OH244652   2.808   0.628   4.158
 7746TIP3    H144653   2.853   0.676   4.087
 7746TIP3    H244654   2.715   0.634   4.135
 7747TIP3   OH244655   4.803   2.681   2.937
 7747TIP3    H144656   4.818   2.658   3.029
 7747TIP3    H244657   4.710   2.705   2.934
 7748TIP3   OH244658   0.880   1.101   1.095
 7748TIP3    H144659   0.902   1.159   1.168
 7748TIP3    H244660   0.930   1.137   1.021
 7749TIP3   OH244661   3.983   5.772   1.172
 7749TIP3    H144662   3.966   5.862   1.145
 7749TIP3    H244663   3.915   5.753   1.236
 7750TIP3   OH244664   1.890   2.447  15.061
 7750TIP3    H144665   1.829   2.468  15.131
 7750TIP3    H244666   1.970   2.493  15.086
 7751TIP3   OH244667   5.822   3.314   5.549
 7751TIP3    H144668   5.806   3.394   5.599
 7751TIP3    H244669   5.885   3.340   5.482
 7752TIP3   OH244670   6.320   4.534  14.178
 7752TIP3    H144671   6.285   4.476  14.111
 7752TIP3    H244672   6.252   4.539  14.244
 7753TIP3   OH244673   3.289   2.456   3.981
 7753TIP3    H144674   3.353   2.417   4.040
 7753TIP3    H244675   3.215   2.480   4.037
 7754TIP3   OH244676   6.335   5.690  16.950
 7754TIP3    H144677   6.416   5.718  16.993
 7754TIP3    H244678   6.352   5.600  16.924
 7755TIP3   OH244679   0.364   6.566   6.067
 7755TIP3    H144680   0.292   6.503   6.065
 7755TIP3    H244681   0.405   6.551   6.152
 7756TIP3   OH244682   5.456   1.453   0.810
 7756TIP3    H144683   5.363   1.474   0.795
 7756TIP3    H244684   5.497   1.464   0.724
 7757TIP3   OH244685   0.758   2.780  11.029
 7757TIP3    H144686   0.756   2.722  11.105
 7757TIP3    H244687   0.720   2.729  10.958
 7758TIP3   OH244688   4.746   0.810  12.201
 7758TIP3    H144689   4.696   0.778  12.126
 7758TIP3    H244690   4.736   0.905  12.198
 7759TIP3   OH244691   2.699   2.119  15.337
 7759TIP3    H144692   2.682   2.050  15.400
 7759TIP3    H244693   2.632   2.185  15.355
 7760TIP3   OH244694   4.805   3.603   3.869
 7760TIP3    H144695   4.893   3.641   3.861
 7760TIP3    H244696   4.746   3.679   3.866
 7761TIP3   OH244697   6.219   3.947  13.179
 7761TIP3    H144698   6.142   3.986  13.221
 7761TIP3    H244699   6.211   3.972  13.087
 7762TIP3   OH244700   3.378   4.164   5.946
 7762TIP3    H144701   3.312   4.158   6.015
 7762TIP3    H244702   3.460   4.141   5.990
 7763TIP3   OH244703   4.943   1.595   3.681
 7763TIP3    H144704   5.011   1.570   3.618
 7763TIP3    H244705   4.861   1.565   3.643
 7764TIP3   OH244706   5.407   5.516  13.800
 7764TIP3    H144707   5.432   5.572  13.874
 7764TIP3    H244708   5.486   5.466  13.781
 7765TIP3   OH244709   6.338   3.126  13.438
 7765TIP3    H144710   6.375   3.096  13.355
 7765TIP3    H244711   6.270   3.063  13.460
 7766TIP3   OH244712   4.469   1.911  15.443
 7766TIP3    H144713   4.560   1.893  15.421
 7766TIP3    H244714   4.426   1.923  15.359
 7767TIP3   OH244715   6.117   6.194  12.132
 7767TIP3    H144716   6.178   6.121  12.140
 7767TIP3    H244717   6.092   6.196  12.040
 7768TIP3   OH244718   4.860   3.663  16.999
 7768TIP3    H144719   4.834   3.744  16.956
 7768TIP3    H244720   4.907   3.693  17.078
 7769TIP3   OH244721   5.039   6.697  13.285
 7769TIP3    H144722   4.945   6.684  13.269
 7769TIP3    H244723   5.049   6.791  13.294
 7770TIP3   OH244724   5.943   6.401  13.768
 7770TIP3    H144725   5.898   6.365  13.844
 7770TIP3    H244726   6.029   6.358  13.769
 7771TIP3   OH244727   1.457   2.084  16.619
 7771TIP3    H144728   1.434   2.151  16.555
 7771TIP3    H244729   1.492   2.133  16.694
 7772TIP3   OH244730   2.508   2.983   5.999
 7772TIP3    H144731   2.587   3.001   5.947
 7772TIP3    H244732   2.522   3.032   6.080
 7773TIP3   OH244733   5.618   1.611  16.280
 7773TIP3    H144734   5.537   1.615  16.332
 7773TIP3    H244735   5.680   1.667  16.326
 7774TIP3   OH244736   1.794   6.313  13.133
 7774TIP3    H144737   1.746   6.247  13.183
 7774TIP3    H244738   1.831   6.372  13.200
 7775TIP3   OH244739   2.796   6.279  17.042
 7775TIP3    H144740   2.712   6.234  17.034
 7775TIP3    H244741   2.775   6.365  17.078
 7776TIP3   OH244742   2.731   1.546   3.774
 7776TIP3    H144743   2.792   1.486   3.815
 7776TIP3    H244744   2.648   1.499   3.772
 7777TIP3   OH244745   5.579   3.030  14.563
 7777TIP3    H144746   5.601   3.049  14.654
 7777TIP3    H244747   5.529   2.948  14.566
 7778TIP3   OH244748   2.257   4.082  13.205
 7778TIP3    H144749   2.233   4.045  13.289
 7778TIP3    H244750   2.245   4.011  13.142
 7779TIP3   OH244751   4.873   5.012   6.708
 7779TIP3    H144752   4.859   5.068   6.632
 7779TIP3    H244753   4.848   5.066   6.783
 7780TIP3   OH244754   0.030   1.129  13.435
 7780TIP3    H144755   0.100   1.123  13.370
 7780TIP3    H244756   0.021   1.039  13.468
 7781TIP3   OH244757   0.431   5.461   2.718
 7781TIP3    H144758   0.486   5.415   2.655
 7781TIP3    H244759   0.399   5.393   2.777
 7782TIP3   OH244760   4.072   1.876   5.627
 7782TIP3    H144761   3.983   1.910   5.617
 7782TIP3    H244762   4.061   1.781   5.628
 7783TIP3   OH244763   4.037   1.868  14.988
 7783TIP3    H144764   4.057   1.810  14.915
 7783TIP3    H244765   4.101   1.938  14.981
 7784TIP3   OH244766   1.914   3.745  15.755
 7784TIP3    H144767   1.903   3.840  15.765
 7784TIP3    H244768   1.875   3.708  15.834
 7785TIP3   OH244769   3.320   3.749   5.786
 7785TIP3    H144770   3.346   3.724   5.875
 7785TIP3    H244771   3.232   3.786   5.797
 7786TIP3   OH244772   1.039   0.688  12.692
 7786TIP3    H144773   1.123   0.686  12.646
 7786TIP3    H244774   0.976   0.658  12.627
 7787TIP3   OH244775   5.421   0.876   2.415
 7787TIP3    H144776   5.423   0.796   2.363
 7787TIP3    H244777   5.331   0.881   2.448
 7788TIP3   OH244778   1.016   1.939   3.836
 7788TIP3    H144779   1.104   1.978   3.834
 7788TIP3    H244780   1.030   1.852   3.874
 7789TIP3   OH244781   6.108   3.275  15.388
 7789TIP3    H144782   6.035   3.216  15.408
 7789TIP3    H244783   6.081   3.360  15.425
 7790TIP3   OH244784   2.412   1.828   2.373
 7790TIP3    H144785   2.422   1.919   2.346
 7790TIP3    H244786   2.379   1.833   2.462
 7791TIP3   OH244787   2.530   0.369  13.735
 7791TIP3    H144788   2.529   0.309  13.810
 7791TIP3    H244789   2.439   0.369  13.704
 7792TIP3   OH244790   6.667   2.259   0.851
 7792TIP3    H144791   6.602   2.228   0.914
 7792TIP3    H244792   6.652   2.354   0.847
 7793TIP3   OH244793   2.941   1.254   3.196
 7793TIP3    H144794   2.899   1.168   3.197
 7793TIP3    H244795   2.889   1.308   3.255
 7794TIP3   OH244796   2.428   0.707  17.028
 7794TIP3    H144797   2.507   0.703  17.082
 7794TIP3    H244798   2.459   0.740  16.943
 7795TIP3   OH244799   6.019   0.291   3.529
 7795TIP3    H144800   5.931   0.327   3.517
 7795TIP3    H244801   6.076   0.367   3.526
 7796TIP3   OH244802   4.611   1.324   4.080
 7796TIP3    H144803   4.654   1.332   3.995
 7796TIP3    H244804   4.607   1.229   4.096
 7797TIP3   OH244805   0.421   0.542  11.673
 7797TIP3    H144806   0.490   0.488  11.712
 7797TIP3    H244807   0.361   0.560  11.745
 7798TIP3   OH244808   3.879   4.237  14.839
 7798TIP3    H144809   3.972   4.253  14.853
 7798TIP3    H244810   3.857   4.291  14.763
 7799TIP3   OH244811   4.313   6.538   0.030
 7799TIP3    H144812   4.398   6.521  -0.010
 7799TIP3    H244813   4.283   6.452   0.059
 7800TIP3   OH244814   3.071   4.729   4.611
 7800TIP3    H144815   3.081   4.652   4.666
 7800TIP3    H244816   2.979   4.731   4.587
 7801TIP3   OH244817   2.785   2.722   4.486
 7801TIP3    H144818   2.860   2.776   4.461
 7801TIP3    H244819   2.749   2.765   4.564
 7802TIP3   OH244820   5.281   2.586   5.983
 7802TIP3    H144821   5.345   2.657   5.980
 7802TIP3    H244822   5.297   2.543   6.067
 7803TIP3   OH244823   4.776   1.029   3.992
 7803TIP3    H144824   4.817   1.009   4.076
 7803TIP3    H244825   4.701   0.969   3.987
 7804TIP3   OH244826   4.019   3.782   4.760
 7804TIP3    H144827   4.105   3.744   4.778
 7804TIP3    H244828   4.020   3.867   4.804
 7805TIP3   OH244829   4.801   6.735  15.654
 7805TIP3    H144830   4.855   6.802  15.696
 7805TIP3    H244831   4.737   6.784  15.603
 7806TIP3   OH244832   0.631   1.608   1.113
 7806TIP3    H144833   0.586   1.580   1.193
 7806TIP3    H244834   0.601   1.697   1.099
 7807TIP3   OH244835   5.665   3.395   4.813
 7807TIP3    H144836   5.730   3.409   4.882
 7807TIP3    H244837   5.634   3.482   4.791
 7808TIP3   OH244838   4.078   2.236  13.388
 7808TIP3    H144839   4.096   2.255  13.296
 7808TIP3    H244840   4.100   2.317  13.434
 7809TIP3   OH244841   2.606   6.608   0.876
 7809TIP3    H144842   2.546   6.537   0.853
 7809TIP3    H244843   2.651   6.629   0.794
 7810TIP3   OH244844   3.768   3.536  14.170
 7810TIP3    H144845   3.811   3.469  14.116
 7810TIP3    H244846   3.703   3.575  14.111
 7811TIP3   OH244847   1.571   2.360  15.504
 7811TIP3    H144848   1.534   2.406  15.579
 7811TIP3    H244849   1.583   2.428  15.438
 7812TIP3   OH244850   1.184   2.996  11.663
 7812TIP3    H144851   1.265   3.032  11.627
 7812TIP3    H244852   1.144   3.069  11.710
 7813TIP3   OH244853   4.810   1.771  12.065
 7813TIP3    H144854   4.735   1.808  12.019
 7813TIP3    H244855   4.884   1.787  12.008
 7814TIP3   OH244856   1.974   2.006   5.634
 7814TIP3    H144857   1.963   2.080   5.574
 7814TIP3    H244858   1.922   2.030   5.711
 7815TIP3   OH244859   5.803   0.454   3.495
 7815TIP3    H144860   5.790   0.533   3.441
 7815TIP3    H244861   5.730   0.456   3.557
 7816TIP3   OH244862   3.189   2.311   2.476
 7816TIP3    H144863   3.154   2.355   2.399
 7816TIP3    H244864   3.255   2.372   2.510
 7817TIP3   OH244865   4.047   0.686   2.185
 7817TIP3    H144866   4.117   0.705   2.248
 7817TIP3    H244867   4.087   0.625   2.123
 7818TIP3   OH244868   3.364   6.638  14.096
 7818TIP3    H144869   3.414   6.588  14.032
 7818TIP3    H244870   3.335   6.574  14.160
 7819TIP3   OH244871   4.949   4.129   6.099
 7819TIP3    H144872   5.016   4.169   6.044
 7819TIP3    H244873   4.998   4.088   6.171
 7820TIP3   OH244874   0.903   1.921  16.646
 7820TIP3    H144875   0.959   1.998  16.656
 7820TIP3    H244876   0.820   1.955  16.614
 7821TIP3   OH244877   3.374   4.372  16.833
 7821TIP3    H144878   3.435   4.347  16.902
 7821TIP3    H244879   3.301   4.311  16.842
 7822TIP3   OH244880   4.804   1.986   5.108
 7822TIP3    H144881   4.817   2.041   5.185
 7822TIP3    H244882   4.881   2.001   5.054
 7823TIP3   OH244883   3.152   3.107  12.879
 7823TIP3    H144884   3.124   3.029  12.832
 7823TIP3    H244885   3.071   3.146  12.913
 7824TIP3   OH244886   6.214   0.910   3.742
 7824TIP3    H144887   6.277   0.864   3.687
 7824TIP3    H244888   6.130   0.872   3.719
 7825TIP3   OH244889   4.953   0.925   5.416
 7825TIP3    H144890   4.942   0.943   5.322
 7825TIP3    H244891   5.036   0.878   5.422
 7826TIP3   OH244892   2.037   5.695  14.717
 7826TIP3    H144893   1.956   5.744  14.734
 7826TIP3    H244894   2.079   5.686  14.802
 7827TIP3   OH244895   1.919   4.657  11.155
 7827TIP3    H144896   1.978   4.704  11.215
 7827TIP3    H244897   1.978   4.620  11.089
 7828TIP3   OH244898   0.715   4.717   1.109
 7828TIP3    H144899   0.685   4.656   1.177
 7828TIP3    H244900   0.804   4.690   1.090
 7829TIP3   OH244901   0.481   1.474   3.462
 7829TIP3    H144902   0.402   1.430   3.431
 7829TIP3    H244903   0.456   1.566   3.468
 7830TIP3   OH244904   6.395   6.680   4.066
 7830TIP3    H144905   6.386   6.775   4.062
 7830TIP3    H244906   6.485   6.663   4.039
 7831TIP3   OH244907   1.237   0.839   1.754
 7831TIP3    H144908   1.318   0.885   1.733
 7831TIP3    H244909   1.169   0.905   1.741
 7832TIP3   OH244910   4.663   6.314  11.139
 7832TIP3    H144911   4.739   6.356  11.099
 7832TIP3    H244912   4.652   6.359  11.223
 7833TIP3   OH244913   2.515   3.528   2.452
 7833TIP3    H144914   2.441   3.489   2.500
 7833TIP3    H244915   2.555   3.588   2.514
 7834TIP3   OH244916   0.578   4.520   1.254
 7834TIP3    H144917   0.497   4.510   1.304
 7834TIP3    H244918   0.631   4.445   1.281
 7835TIP3   OH244919   3.186   0.200  14.344
 7835TIP3    H144920   3.268   0.150  14.337
 7835TIP3    H244921   3.120   0.141  14.308
 7836TIP3   OH244922   3.985   1.603  15.818
 7836TIP3    H144923   3.916   1.553  15.862
 7836TIP3    H244924   3.941   1.641  15.742
 7837TIP3   OH244925   0.659   3.685   1.279
 7837TIP3    H144926   0.752   3.686   1.303
 7837TIP3    H244927   0.652   3.747   1.207
 7838TIP3   OH244928   6.168   6.241  13.718
 7838TIP3    H144929   6.228   6.200  13.780
 7838TIP3    H244930   6.104   6.173  13.698
 7839TIP3   OH244931   6.667   1.477  15.983
 7839TIP3    H144932   6.748   1.528  15.976
 7839TIP3    H244933   6.606   1.521  15.923
 7840TIP3   OH244934   2.528   2.739   0.263
 7840TIP3    H144935   2.538   2.669   0.328
 7840TIP3    H244936   2.450   2.787   0.291
 7841TIP3   OH244937   4.688   0.721  12.613
 7841TIP3    H144938   4.674   0.652  12.678
 7841TIP3    H244939   4.662   0.802  12.658
 7842TIP3   OH244940   0.119   6.354  13.670
 7842TIP3    H144941   0.039   6.396  13.639
 7842TIP3    H244942   0.096   6.261  13.677
 7843TIP3   OH244943   5.390   2.140  16.341
 7843TIP3    H144944   5.388   2.079  16.267
 7843TIP3    H244945   5.304   2.130  16.383
 7844TIP3   OH244946   5.861   1.750  16.289
 7844TIP3    H144947   5.884   1.662  16.258
 7844TIP3    H244948   5.918   1.764  16.365
 7845TIP3   OH244949   1.514   2.464  12.895
 7845TIP3    H144950   1.489   2.398  12.959
 7845TIP3    H244951   1.433   2.486  12.849
 7846TIP3   OH244952   2.350   4.898  11.728
 7846TIP3    H144953   2.392   4.852  11.655
 7846TIP3    H244954   2.264   4.922  11.694
 7847TIP3   OH244955   1.420   6.046  14.378
 7847TIP3    H144956   1.505   6.020  14.344
 7847TIP3    H244957   1.405   5.991  14.454
 7848TIP3   OH244958   0.536   3.231   3.171
 7848TIP3    H144959   0.493   3.301   3.121
 7848TIP3    H244960   0.614   3.273   3.208
 7849TIP3   OH244961   4.916   2.794   4.735
 7849TIP3    H144962   4.943   2.729   4.670
 7849TIP3    H244963   4.894   2.743   4.813
 7850TIP3   OH244964   3.472   0.719  13.937
 7850TIP3    H144965   3.472   0.785  14.006
 7850TIP3    H244966   3.383   0.682  13.940
 7851TIP3   OH244967   0.467   6.065  17.016
 7851TIP3    H144968   0.483   6.083  17.109
 7851TIP3    H244969   0.374   6.083  17.004
 7852TIP3   OH244970   4.909   1.048  11.075
 7852TIP3    H144971   4.869   1.065  10.990
 7852TIP3    H244972   4.994   1.008  11.054
 7853TIP3   OH244973   5.409   4.781  16.290
 7853TIP3    H144974   5.498   4.755  16.312
 7853TIP3    H244975   5.358   4.700  16.301
 7854TIP3   OH244976   5.138   4.393   3.654
 7854TIP3    H144977   5.224   4.368   3.619
 7854TIP3    H244978   5.094   4.309   3.670
 7855TIP3   OH244979   4.534   3.655   1.150
 7855TIP3    H144980   4.508   3.662   1.058
 7855TIP3    H244981   4.599   3.585   1.152
 7856TIP3   OH244982   4.203   4.469  17.037
 7856TIP3    H144983   4.255   4.408  16.984
 7856TIP3    H244984   4.243   4.555  17.021
 7857TIP3   OH244985   5.332   5.732   4.626
 7857TIP3    H144986   5.379   5.757   4.546
 7857TIP3    H244987   5.277   5.808   4.646
 7858TIP3   OH244988   0.404   2.023  13.180
 7858TIP3    H144989   0.399   2.070  13.263
 7858TIP3    H244990   0.361   1.939  13.198
 7859TIP3   OH244991   2.553   5.375   5.542
 7859TIP3    H144992   2.516   5.397   5.627
 7859TIP3    H244993   2.554   5.458   5.494
 7860TIP3   OH244994   5.207   4.036  17.173
 7860TIP3    H144995   5.245   4.124  17.172
 7860TIP3    H244996   5.180   4.023  17.264
 7861TIP3   OH244997   3.934   4.637   2.112
 7861TIP3    H144998   3.902   4.608   2.026
 7861TIP3    H244999   3.926   4.560   2.168
 7862TIP3   OH245000   1.454   1.899   3.725
 7862TIP3    H145001   1.500   1.951   3.659
 7862TIP3    H245002   1.417   1.826   3.676
 7863TIP3   OH245003   0.827   5.201   3.596
 7863TIP3    H145004   0.826   5.169   3.506
 7863TIP3    H245005   0.916   5.184   3.626
 7864TIP3   OH245006   3.640   1.611   4.135
 7864TIP3    H145007   3.593   1.527   4.135
 7864TIP3    H245008   3.581   1.671   4.089
 7865TIP3   OH245009   5.463   2.270  12.193
 7865TIP3    H145010   5.404   2.321  12.138
 7865TIP3    H245011   5.549   2.312  12.183
 7866TIP3   OH245012   2.205   4.862   3.547
 7866TIP3    H145013   2.269   4.881   3.478
 7866TIP3    H245014   2.252   4.805   3.608
 7867TIP3   OH245015   2.999   5.203  16.106
 7867TIP3    H145016   3.090   5.191  16.133
 7867TIP3    H245017   2.966   5.272  16.164
 7868TIP3   OH245018   0.619   0.856  13.864
 7868TIP3    H145019   0.641   0.799  13.789
 7868TIP3    H245020   0.613   0.796  13.938
 7869TIP3   OH245021   5.513   3.181   0.136
 7869TIP3    H145022   5.562   3.207   0.214
 7869TIP3    H245023   5.422   3.199   0.158
 7870TIP3   OH245024   0.991   2.405   1.270
 7870TIP3    H145025   0.958   2.495   1.274
 7870TIP3    H245026   0.964   2.366   1.353
 7871TIP3   OH245027   0.338   2.029  15.079
 7871TIP3    H145028   0.243   2.015  15.085
 7871TIP3    H245029   0.356   2.031  14.985
 7872TIP3   OH245030   3.028   6.082  15.662
 7872TIP3    H145031   3.074   6.068  15.579
 7872TIP3    H245032   3.051   6.006  15.715
 7873TIP3   OH245033   0.476   6.242  12.258
 7873TIP3    H145034   0.571   6.229  12.261
 7873TIP3    H245035   0.452   6.224  12.167
 7874TIP3   OH245036   3.238   1.347  11.114
 7874TIP3    H145037   3.194   1.329  11.031
 7874TIP3    H245038   3.225   1.440  11.129
 7875TIP3   OH245039   0.156   2.429   6.393
 7875TIP3    H145040   0.068   2.396   6.409
 7875TIP3    H245041   0.184   2.385   6.313
 7876TIP3   OH245042   4.659   4.612   1.835
 7876TIP3    H145043   4.693   4.592   1.748
 7876TIP3    H245044   4.705   4.551   1.893
 7877TIP3   OH245045   1.274   0.632  16.760
 7877TIP3    H145046   1.337   0.561  16.753
 7877TIP3    H245047   1.323   0.711  16.737
 7878TIP3   OH245048   2.810   1.891  14.582
 7878TIP3    H145049   2.805   1.852  14.669
 7878TIP3    H245050   2.903   1.909  14.569
 7879TIP3   OH245051   0.958   1.251   0.856
 7879TIP3    H145052   0.930   1.341   0.840
 7879TIP3    H245053   1.054   1.254   0.850
 7880TIP3   OH245054   2.841   1.742  12.541
 7880TIP3    H145055   2.750   1.713  12.549
 7880TIP3    H245056   2.841   1.801  12.465
 7881TIP3   OH245057   5.318   0.222   1.568
 7881TIP3    H145058   5.279   0.251   1.486
 7881TIP3    H245059   5.247   0.223   1.632
 7882TIP3   OH245060   6.308   0.759   2.320
 7882TIP3    H145061   6.360   0.791   2.246
 7882TIP3    H245062   6.222   0.799   2.308
 7883TIP3   OH245063   2.947   5.153   2.114
 7883TIP3    H145064   2.956   5.213   2.188
 7883TIP3    H245065   2.928   5.210   2.040
 7884TIP3   OH245066   4.713   0.748   3.848
 7884TIP3    H145067   4.731   0.656   3.868
 7884TIP3    H245068   4.671   0.782   3.927
 7885TIP3   OH245069   2.858   3.969  15.000
 7885TIP3    H145070   2.866   4.054  14.957
 7885TIP3    H245071   2.869   3.987  15.093
 7886TIP3   OH245072   1.218   4.661  17.223
 7886TIP3    H145073   1.293   4.647  17.166
 7886TIP3    H245074   1.142   4.634  17.171
 7887TIP3   OH245075   4.397   5.187  11.742
 7887TIP3    H145076   4.369   5.270  11.705
 7887TIP3    H245077   4.486   5.174  11.707
 7888TIP3   OH245078   2.625   4.915   1.504
 7888TIP3    H145079   2.555   4.953   1.557
 7888TIP3    H245080   2.631   4.824   1.534
 7889TIP3   OH245081   4.973   1.897   2.604
 7889TIP3    H145082   5.021   1.954   2.664
 7889TIP3    H245083   5.007   1.809   2.623
 7890TIP3   OH245084   2.457   3.559   0.717
 7890TIP3    H145085   2.384   3.515   0.674
 7890TIP3    H245086   2.468   3.513   0.800
 7891TIP3   OH245087   0.874   4.188  13.080
 7891TIP3    H145088   0.951   4.201  13.024
 7891TIP3    H245089   0.908   4.140  13.155
 7892TIP3   OH245090   6.429   2.126  16.503
 7892TIP3    H145091   6.499   2.178  16.544
 7892TIP3    H245092   6.365   2.112  16.573
 7893TIP3   OH245093   3.939   4.621  11.200
 7893TIP3    H145094   3.908   4.648  11.115
 7893TIP3    H245095   3.877   4.658  11.262
 7894TIP3   OH245096   1.074   1.092  11.184
 7894TIP3    H145097   1.049   1.003  11.209
 7894TIP3    H245098   1.026   1.148  11.246
 7895TIP3   OH245099   3.941   1.181   4.755
 7895TIP3    H145100   3.979   1.233   4.825
 7895TIP3    H245101   3.997   1.103   4.750
 7896TIP3   OH245102   1.686   1.792  11.827
 7896TIP3    H145103   1.594   1.819  11.825
 7896TIP3    H245104   1.692   1.736  11.905
 7897TIP3   OH245105   4.798   4.824  14.841
 7897TIP3    H145106   4.722   4.871  14.808
 7897TIP3    H245107   4.860   4.893  14.865
 7898TIP3   OH245108   1.301   1.278  13.874
 7898TIP3    H145109   1.352   1.220  13.817
 7898TIP3    H245110   1.367   1.324  13.926
 7899TIP3   OH245111   2.325   3.082   3.369
 7899TIP3    H145112   2.285   3.018   3.427
 7899TIP3    H245113   2.415   3.092   3.401
 7900TIP3   OH245114   4.149   6.541  16.585
 7900TIP3    H145115   4.076   6.521  16.644
 7900TIP3    H245116   4.151   6.636  16.580
 7901TIP3   OH245117   3.026   5.328   3.568
 7901TIP3    H145118   3.061   5.244   3.598
 7901TIP3    H245119   3.036   5.326   3.473
 7902TIP3   OH245120   5.166   5.418  13.938
 7902TIP3    H145121   5.119   5.501  13.948
 7902TIP3    H245122   5.250   5.444  13.899
 7903TIP3   OH245123   4.767   0.437   2.554
 7903TIP3    H145124   4.859   0.411   2.562
 7903TIP3    H245125   4.768   0.532   2.570
 7904TIP3   OH245126   5.282   0.066  13.939
 7904TIP3    H145127   5.319   0.143  13.981
 7904TIP3    H245128   5.231   0.023  14.007
 7905TIP3   OH245129   1.144   0.074   3.672
 7905TIP3    H145130   1.136   0.134   3.598
 7905TIP3    H245131   1.209   0.009   3.644
 7906TIP3   OH245132   0.162   6.065   1.987
 7906TIP3    H145133   0.069   6.085   1.982
 7906TIP3    H245134   0.206   6.140   1.948
 7907TIP3   OH245135   6.262   4.730  12.765
 7907TIP3    H145136   6.344   4.720  12.814
 7907TIP3    H245137   6.284   4.700  12.676
 7908TIP3   OH245138   5.611   3.221  15.691
 7908TIP3    H145139   5.644   3.147  15.740
 7908TIP3    H245140   5.530   3.189  15.651
 7909TIP3   OH245141   5.011   2.426  16.877
 7909TIP3    H145142   5.101   2.443  16.849
 7909TIP3    H245143   4.960   2.495  16.834
 7910TIP3   OH245144   1.981   4.616  12.107
 7910TIP3    H145145   2.022   4.697  12.135
 7910TIP3    H245146   2.029   4.591  12.028
 7911TIP3   OH245147   5.183   5.588   0.567
 7911TIP3    H145148   5.147   5.642   0.636
 7911TIP3    H245149   5.275   5.578   0.590
 7912TIP3   OH245150   1.888   4.521  14.468
 7912TIP3    H145151   1.976   4.557  14.456
 7912TIP3    H245152   1.901   4.426  14.471
 7913TIP3   OH245153   5.188   4.113  13.785
 7913TIP3    H145154   5.228   4.109  13.699
 7913TIP3    H245155   5.095   4.129  13.767
 7914TIP3   OH245156   5.842   0.568   3.958
 7914TIP3    H145157   5.839   0.474   3.977
 7914TIP3    H245158   5.762   0.604   3.997
 7915TIP3   OH245159   1.844   0.666  13.448
 7915TIP3    H145160   1.838   0.743  13.505
 7915TIP3    H245161   1.830   0.700  13.360
 7916TIP3   OH245162   3.238   3.353   3.700
 7916TIP3    H145163   3.271   3.296   3.770
 7916TIP3    H245164   3.246   3.442   3.736
 7917TIP3   OH245165   4.655   3.775  13.760
 7917TIP3    H145166   4.592   3.830  13.713
 7917TIP3    H245167   4.601   3.712  13.808
 7918TIP3   OH245168   4.287   1.131   5.688
 7918TIP3    H145169   4.258   1.193   5.755
 7918TIP3    H245170   4.353   1.078   5.733
 7919TIP3   OH245171   3.446   4.132  15.385
 7919TIP3    H145172   3.362   4.151  15.343
 7919TIP3    H245173   3.423   4.096  15.470
 7920TIP3   OH245174   2.184   1.424   4.280
 7920TIP3    H145175   2.154   1.473   4.356
 7920TIP3    H245176   2.279   1.421   4.288
 7921TIP3   OH245177   6.070   1.373   1.138
 7921TIP3    H145178   6.103   1.452   1.096
 7921TIP3    H245179   6.055   1.312   1.065
 7922TIP3   OH245180   0.861   2.758  15.969
 7922TIP3    H145181   0.876   2.694  15.899
 7922TIP3    H245182   0.766   2.770  15.969
 7923TIP3   OH245183   4.003   0.578  14.069
 7923TIP3    H145184   4.089   0.616  14.081
 7923TIP3    H245185   4.011   0.526  13.989
 7924TIP3   OH245186   3.901   0.211  11.229
 7924TIP3    H145187   3.835   0.154  11.267
 7924TIP3    H245188   3.860   0.245  11.149
 7925TIP3   OH245189   5.597   3.493   5.223
 7925TIP3    H145190   5.559   3.548   5.154
 7925TIP3    H245191   5.624   3.555   5.291
 7926TIP3   OH245192   5.651   6.144  11.498
 7926TIP3    H145193   5.734   6.181  11.468
 7926TIP3    H245194   5.585   6.210  11.477
 7927TIP3   OH245195   3.592   0.321   4.766
 7927TIP3    H145196   3.499   0.305   4.782
 7927TIP3    H245197   3.595   0.351   4.675
 7928TIP3   OH245198   6.155   6.094  15.871
 7928TIP3    H145199   6.221   6.155  15.839
 7928TIP3    H245200   6.204   6.014  15.892
 7929TIP3   OH245201   0.401   1.831  15.833
 7929TIP3    H145202   0.491   1.823  15.865
 7929TIP3    H245203   0.410   1.856  15.741
 7930TIP3   OH245204   5.896   6.049   3.243
 7930TIP3    H145205   5.804   6.060   3.270
 7930TIP3    H245206   5.930   5.981   3.300
 7931TIP3   OH245207   4.733   6.024  11.385
 7931TIP3    H145208   4.637   6.026  11.383
 7931TIP3    H245209   4.756   6.063  11.470
 7932TIP3   OH245210   6.587   4.438  12.794
 7932TIP3    H145211   6.554   4.503  12.856
 7932TIP3    H245212   6.655   4.392  12.843
 7933TIP3   OH245213   4.977   1.882   2.312
 7933TIP3    H145214   4.980   1.894   2.407
 7933TIP3    H245215   5.063   1.912   2.281
 7934TIP3   OH245216   2.609   1.970   2.834
 7934TIP3    H145217   2.552   1.907   2.878
 7934TIP3    H245218   2.685   1.919   2.807
 7935TIP3   OH245219   2.720   4.161  16.875
 7935TIP3    H145220   2.781   4.134  16.944
 7935TIP3    H245221   2.775   4.171  16.797
 7936TIP3   OH245222   5.881   3.560   1.616
 7936TIP3    H145223   5.806   3.516   1.576
 7936TIP3    H245224   5.928   3.599   1.542
 7937TIP3   OH245225   2.586   0.475  12.546
 7937TIP3    H145226   2.632   0.397  12.576
 7937TIP3    H245227   2.507   0.442  12.504
 7938TIP3   OH245228   5.311   2.919  10.973
 7938TIP3    H145229   5.373   2.872  10.917
 7938TIP3    H245230   5.316   3.010  10.942
 7939TIP3   OH245231   1.014   6.275   5.144
 7939TIP3    H145232   1.027   6.312   5.231
 7939TIP3    H245233   1.037   6.183   5.153
 7940TIP3   OH245234   2.557   3.591  16.425
 7940TIP3    H145235   2.566   3.687  16.427
 7940TIP3    H245236   2.503   3.571  16.501
 7941TIP3   OH245237   3.603   0.329  17.022
 7941TIP3    H145238   3.627   0.250  16.973
 7941TIP3    H245239   3.603   0.399  16.957
 7942TIP3   OH245240   5.196   4.375  12.128
 7942TIP3    H145241   5.171   4.282  12.131
 7942TIP3    H245242   5.291   4.374  12.120
 7943TIP3   OH245243   1.918   4.333  12.890
 7943TIP3    H145244   1.922   4.423  12.924
 7943TIP3    H245245   1.825   4.314  12.883
 7944TIP3   OH245246   5.461   4.377  13.133
 7944TIP3    H145247   5.412   4.456  13.111
 7944TIP3    H245248   5.549   4.394  13.100
 7945TIP3   OH245249   3.656   0.764   0.492
 7945TIP3    H145250   3.627   0.856   0.496
 7945TIP3    H245251   3.750   0.770   0.474
 7946TIP3   OH245252   1.612   2.128  17.019
 7946TIP3    H145253   1.550   2.115  17.091
 7946TIP3    H245254   1.686   2.174  17.059
 7947TIP3   OH245255   6.236   1.740  14.351
 7947TIP3    H145256   6.250   1.834  14.366
 7947TIP3    H245257   6.140   1.730  14.353
 7948TIP3   OH245258   6.616   5.182  12.335
 7948TIP3    H145259   6.663   5.219  12.261
 7948TIP3    H245260   6.533   5.229  12.337
 7949TIP3   OH245261   3.868   4.782  12.587
 7949TIP3    H145262   3.781   4.820  12.601
 7949TIP3    H245263   3.911   4.844  12.527
 7950TIP3   OH245264   0.714   5.457   0.377
 7950TIP3    H145265   0.700   5.441   0.284
 7950TIP3    H245266   0.634   5.427   0.420
 7951TIP3   OH245267   6.784   2.819  11.249
 7951TIP3    H145268   6.777   2.827  11.344
 7951TIP3    H245269   6.698   2.844  11.215
 7952TIP3   OH245270   3.590   2.331  14.321
 7952TIP3    H145271   3.566   2.380  14.242
 7952TIP3    H245272   3.573   2.392  14.393
 7953TIP3   OH245273   2.482   0.547   4.460
 7953TIP3    H145274   2.552   0.607   4.484
 7953TIP3    H245275   2.473   0.489   4.536
 7954TIP3   OH245276   1.434   2.773   5.259
 7954TIP3    H145277   1.522   2.736   5.270
 7954TIP3    H245278   1.400   2.732   5.180
 7955TIP3   OH245279   3.620   2.535   5.709
 7955TIP3    H145280   3.692   2.597   5.713
 7955TIP3    H245281   3.551   2.582   5.660
 7956TIP3   OH245282   4.580   4.637  14.975
 7956TIP3    H145283   4.657   4.651  14.921
 7956TIP3    H245284   4.600   4.680  15.058
 7957TIP3   OH245285   2.480   5.609  13.229
 7957TIP3    H145286   2.385   5.614  13.218
 7957TIP3    H245287   2.502   5.683  13.286
 7958TIP3   OH245288   0.429   6.248   0.952
 7958TIP3    H145289   0.381   6.224   0.873
 7958TIP3    H245290   0.519   6.223   0.934
 7959TIP3   OH245291   6.646   5.550   3.467
 7959TIP3    H145292   6.582   5.511   3.407
 7959TIP3    H245293   6.704   5.601   3.410
 7960TIP3   OH245294   0.152   3.877  13.323
 7960TIP3    H145295   0.131   3.823  13.248
 7960TIP3    H245296   0.093   3.847  13.392
 7961TIP3   OH245297   5.781   4.809   2.062
 7961TIP3    H145298   5.762   4.833   1.971
 7961TIP3    H245299   5.695   4.806   2.104
 7962TIP3   OH245300   2.362   3.805   3.602
 7962TIP3    H145301   2.311   3.879   3.635
 7962TIP3    H245302   2.435   3.845   3.555
 7963TIP3   OH245303   6.506   5.605   1.380
 7963TIP3    H145304   6.461   5.527   1.411
 7963TIP3    H245305   6.445   5.644   1.316
 7964TIP3   OH245306   1.508   2.028  15.049
 7964TIP3    H145307   1.587   1.978  15.027
 7964TIP3    H245308   1.539   2.103  15.100
 7965TIP3   OH245309   6.523   5.586   0.670
 7965TIP3    H145310   6.586   5.617   0.605
 7965TIP3    H245311   6.569   5.517   0.717
 7966TIP3   OH245312   1.552   4.319  14.082
 7966TIP3    H145313   1.624   4.377  14.107
 7966TIP3    H245314   1.585   4.271  14.006
 7967TIP3   OH245315   2.849   4.213  13.261
 7967TIP3    H145316   2.789   4.167  13.202
 7967TIP3    H245317   2.905   4.145  13.298
 7968TIP3   OH245318   4.630   1.242   4.729
 7968TIP3    H145319   4.628   1.146   4.723
 7968TIP3    H245320   4.680   1.269   4.652
 7969TIP3   OH245321   5.892   5.740  13.786
 7969TIP3    H145322   5.872   5.653  13.751
 7969TIP3    H245323   5.877   5.732  13.880
 7970TIP3   OH245324   1.880   4.254  16.774
 7970TIP3    H145325   1.836   4.325  16.727
 7970TIP3    H245326   1.863   4.177  16.721
 7971TIP3   OH245327   1.362   1.624  13.266
 7971TIP3    H145328   1.312   1.562  13.319
 7971TIP3    H245329   1.367   1.583  13.180
 7972TIP3   OH245330   4.930   1.790  15.555
 7972TIP3    H145331   4.935   1.856  15.625
 7972TIP3    H245332   4.995   1.819  15.491
 7973TIP3   OH245333   5.927   6.680  14.077
 7973TIP3    H145334   5.962   6.678  13.987
 7973TIP3    H245335   6.003   6.662  14.132
 7974TIP3   OH245336   6.179   2.537  15.598
 7974TIP3    H145337   6.240   2.508  15.530
 7974TIP3    H245338   6.176   2.465  15.661
 7975TIP3   OH245339   6.534   0.816   6.171
 7975TIP3    H145340   6.514   0.828   6.078
 7975TIP3    H245341   6.465   0.757   6.202
 7976TIP3   OH245342   2.306   5.618   4.794
 7976TIP3    H145343   2.249   5.543   4.781
 7976TIP3    H245344   2.332   5.612   4.887
 7977TIP3   OH245345   3.516   0.234  13.566
 7977TIP3    H145346   3.451   0.165  13.578
 7977TIP3    H245347   3.490   0.302  13.628
 7978TIP3   OH245348   6.474   6.767   0.771
 7978TIP3    H145349   6.409   6.724   0.716
 7978TIP3    H245350   6.550   6.709   0.769
 7979TIP3   OH245351   1.897   0.034  13.131
 7979TIP3    H145352   1.868   0.012  13.219
 7979TIP3    H245353   1.923  -0.050  13.093
 7980TIP3   OH245354   6.423   4.803  15.604
 7980TIP3    H145355   6.509   4.823  15.568
 7980TIP3    H245356   6.384   4.889  15.621
 7981TIP3   OH245357   3.021   5.241   2.416
 7981TIP3    H145358   3.025   5.147   2.398
 7981TIP3    H245359   3.074   5.282   2.348
 7982TIP3   OH245360   1.365   5.356   0.138
 7982TIP3    H145361   1.381   5.305   0.059
 7982TIP3    H245362   1.451   5.391   0.162
 7983TIP3   OH245363   1.628   0.900   3.583
 7983TIP3    H145364   1.582   0.984   3.577
 7983TIP3    H245365   1.650   0.890   3.676
 7984TIP3   OH245366   6.260   0.909  14.765
 7984TIP3    H145367   6.298   0.925  14.852
 7984TIP3    H245368   6.315   0.960  14.705
 7985TIP3   OH245369   2.346   1.667  17.224
 7985TIP3    H145370   2.292   1.621  17.289
 7985TIP3    H245371   2.430   1.680  17.267
 7986TIP3   OH245372   1.006   0.680   2.335
 7986TIP3    H145373   1.026   0.647   2.423
 7986TIP3    H245374   1.004   0.601   2.281
 7987TIP3   OH245375   4.775   6.599  14.235
 7987TIP3    H145376   4.744   6.649  14.310
 7987TIP3    H245377   4.740   6.646  14.159
 7988TIP3   OH245378   2.827   5.457  11.232
 7988TIP3    H145379   2.755   5.518  11.217
 7988TIP3    H245380   2.884   5.467  11.156
 7989TIP3   OH245381   6.488   5.050   1.457
 7989TIP3    H145382   6.496   5.080   1.366
 7989TIP3    H245383   6.536   5.114   1.508
 7990TIP3   OH245384   4.735   3.316  15.825
 7990TIP3    H145385   4.705   3.252  15.888
 7990TIP3    H245386   4.829   3.323  15.841
 7991TIP3   OH245387   5.179   1.172  14.634
 7991TIP3    H145388   5.193   1.105  14.567
 7991TIP3    H245389   5.102   1.220  14.603
 7992TIP3   OH245390   3.341   0.539  11.689
 7992TIP3    H145391   3.324   0.469  11.752
 7992TIP3    H245392   3.275   0.525  11.621
 7993TIP3   OH245393   3.459   1.907  16.208
 7993TIP3    H145394   3.445   1.999  16.189
 7993TIP3    H245395   3.553   1.898  16.222
 7994TIP3   OH245396   5.058   2.523  16.533
 7994TIP3    H145397   5.116   2.453  16.566
 7994TIP3    H245398   5.097   2.604  16.567
 7995TIP3   OH245399   2.981   0.677   1.750
 7995TIP3    H145400   2.893   0.641   1.746
 7995TIP3    H245401   3.026   0.640   1.674
 7996TIP3   OH245402   6.480   4.163   4.393
 7996TIP3    H145403   6.387   4.170   4.412
 7996TIP3    H245404   6.514   4.252   4.402
 7997TIP3   OH245405   4.491   5.791  15.243
 7997TIP3    H145406   4.513   5.762  15.331
 7997TIP3    H245407   4.477   5.885  15.251
 7998TIP3   OH245408   0.625   4.030  12.125
 7998TIP3    H145409   0.643   4.007  12.034
 7998TIP3    H245410   0.712   4.045  12.163
 7999TIP3   OH245411   2.165   4.125  13.836
 7999TIP3    H145412   2.193   4.039  13.802
 7999TIP3    H245413   2.190   4.187  13.767
 8000TIP3   OH245414   2.043   1.565   2.934
 8000TIP3    H145415   2.032   1.480   2.891
 8000TIP3    H245416   2.135   1.587   2.921
 8001TIP3   OH245417   0.103   6.315  12.048
 8001TIP3    H145418   0.104   6.333  12.142
 8001TIP3    H245419   0.021   6.353  12.017
 8002TIP3   OH245420   3.078   4.818   0.868
 8002TIP3    H145421   2.999   4.768   0.888
 8002TIP3    H245422   3.080   4.888   0.932
 8003TIP3   OH245423   0.862   4.962   2.609
 8003TIP3    H145424   0.777   4.995   2.579
 8003TIP3    H245425   0.923   4.988   2.541
 8004TIP3   OH245426   2.075   4.471  10.937
 8004TIP3    H145427   2.102   4.460  11.028
 8004TIP3    H245428   2.153   4.448  10.886
 8005TIP3   OH245429   3.102   4.213   4.951
 8005TIP3    H145430   3.139   4.289   4.996
 8005TIP3    H245431   3.053   4.166   5.018
 8006TIP3   OH245432   0.633   3.372  16.490
 8006TIP3    H145433   0.606   3.300  16.547
 8006TIP3    H245434   0.694   3.423  16.544
 8007TIP3   OH245435   0.910   5.414   5.680
 8007TIP3    H145436   0.981   5.409   5.744
 8007TIP3    H245437   0.915   5.332   5.632
 8008TIP3   OH245438   4.062   3.855  16.707
 8008TIP3    H145439   4.114   3.777  16.685
 8008TIP3    H245440   4.064   3.908  16.627
 8009TIP3   OH245441   2.910   3.003   1.811
 8009TIP3    H145442   2.915   2.911   1.784
 8009TIP3    H245443   3.001   3.032   1.811
 8010TIP3   OH245444   3.043   6.019   5.407
 8010TIP3    H145445   3.086   6.040   5.324
 8010TIP3    H245446   3.012   6.103   5.440
 8011TIP3   OH245447   4.758   0.052  16.318
 8011TIP3    H145448   4.775   0.130  16.370
 8011TIP3    H245449   4.845   0.017  16.297
 8012TIP3   OH245450   0.894   6.736  16.464
 8012TIP3    H145451   0.906   6.815  16.411
 8012TIP3    H245452   0.907   6.766  16.554
 8013TIP3   OH245453   3.480   6.221  14.075
 8013TIP3    H145454   3.390   6.188  14.073
 8013TIP3    H245455   3.500   6.230  14.168
 8014TIP3   OH245456   3.881   1.109  16.227
 8014TIP3    H145457   3.888   1.081  16.136
 8014TIP3    H245458   3.847   1.033  16.273
 8015TIP3   OH245459   6.145   2.778   5.896
 8015TIP3    H145460   6.109   2.845   5.838
 8015TIP3    H245461   6.082   2.771   5.967
 8016TIP3   OH245462   2.146   1.607  16.772
 8016TIP3    H145463   2.091   1.612  16.695
 8016TIP3    H245464   2.085   1.600  16.845
 8017TIP3   OH245465   0.404   0.538   2.552
 8017TIP3    H145466   0.479   0.513   2.499
 8017TIP3    H245467   0.420   0.629   2.576
 8018TIP3   OH245468   4.119   0.082   4.012
 8018TIP3    H145469   4.134   0.107   3.921
 8018TIP3    H245470   4.123  -0.014   4.011
 8019TIP3   OH245471   4.848   6.148  16.864
 8019TIP3    H145472   4.796   6.129  16.786
 8019TIP3    H245473   4.930   6.184  16.830
 8020TIP3   OH245474   4.948   0.496   4.683
 8020TIP3    H145475   4.965   0.528   4.771
 8020TIP3    H245476   4.991   0.411   4.680
 8021TIP3   OH245477   4.012   0.790   4.432
 8021TIP3    H145478   3.968   0.745   4.505
 8021TIP3    H245479   3.970   0.876   4.429
 8022TIP3   OH245480   3.453   5.098   0.941
 8022TIP3    H145481   3.547   5.115   0.938
 8022TIP3    H245482   3.438   5.057   1.026
 8023TIP3   OH245483   3.743   2.187  16.474
 8023TIP3    H145484   3.666   2.133  16.491
 8023TIP3    H245485   3.817   2.133  16.503
 8024TIP3   OH245486   0.608   1.910  11.660
 8024TIP3    H145487   0.546   1.963  11.609
 8024TIP3    H245488   0.691   1.918  11.612
 8025TIP3   OH245489   4.773   5.989  12.860
 8025TIP3    H145490   4.741   5.971  12.948
 8025TIP3    H245491   4.761   5.907  12.812
 8026TIP3   OH245492   5.396   6.267   2.116
 8026TIP3    H145493   5.450   6.217   2.054
 8026TIP3    H245494   5.411   6.225   2.200
 8027TIP3   OH245495   2.670   3.610   4.834
 8027TIP3    H145496   2.589   3.661   4.835
 8027TIP3    H245497   2.720   3.643   4.909
 8028TIP3   OH245498   2.439   4.855   4.654
 8028TIP3    H145499   2.501   4.812   4.712
 8028TIP3    H245500   2.362   4.871   4.709
 8029TIP3   OH245501   5.544   3.737   2.255
 8029TIP3    H145502   5.560   3.643   2.252
 8029TIP3    H245503   5.448   3.745   2.257
 8030TIP3   OH245504   1.684   3.363  12.100
 8030TIP3    H145505   1.671   3.337  12.009
 8030TIP3    H245506   1.635   3.298  12.151
 8031TIP3   OH245507   5.102   4.145  11.080
 8031TIP3    H145508   5.131   4.117  11.167
 8031TIP3    H245509   5.171   4.113  11.021
 8032TIP3   OH245510   0.793   3.825  15.066
 8032TIP3    H145511   0.877   3.870  15.077
 8032TIP3    H245512   0.736   3.890  15.027
 8033TIP3   OH245513   2.436   1.196  11.111
 8033TIP3    H145514   2.447   1.239  11.027
 8033TIP3    H245515   2.494   1.120  11.107
 8034TIP3   OH245516   5.128   3.601  12.262
 8034TIP3    H145517   5.151   3.668  12.197
 8034TIP3    H245518   5.122   3.649  12.345
 8035TIP3   OH245519   2.543   1.231  17.207
 8035TIP3    H145520   2.504   1.192  17.285
 8035TIP3    H245521   2.527   1.167  17.137
 8036TIP3   OH245522   6.229   0.303  15.332
 8036TIP3    H145523   6.223   0.328  15.424
 8036TIP3    H245524   6.297   0.236  15.330
 8037TIP3   OH245525   0.023   0.363  12.226
 8037TIP3    H145526   0.048   0.311  12.303
 8037TIP3    H245527   0.091   0.430  12.219
 8038TIP3   OH245528   4.844   6.071  12.420
 8038TIP3    H145529   4.875   5.995  12.369
 8038TIP3    H245530   4.901   6.073  12.496
 8039TIP3   OH245531   0.375   2.513  12.874
 8039TIP3    H145532   0.457   2.473  12.846
 8039TIP3    H245533   0.372   2.597  12.827
 8040TIP3   OH245534   0.152   1.952  16.358
 8040TIP3    H145535   0.086   1.989  16.417
 8040TIP3    H245536   0.199   2.028  16.324
 8041TIP3   OH245537   6.170   0.473  14.885
 8041TIP3    H145538   6.246   0.483  14.943
 8041TIP3    H245539   6.147   0.381  14.891
 8042TIP3   OH245540   2.363   4.442   1.988
 8042TIP3    H145541   2.363   4.503   2.061
 8042TIP3    H245542   2.275   4.406   1.987
 8043TIP3   OH245543   5.992   5.004   3.221
 8043TIP3    H145544   5.936   4.926   3.218
 8043TIP3    H245545   5.932   5.075   3.243
 8044TIP3   OH245546   4.394   4.521  13.991
 8044TIP3    H145547   4.341   4.555  14.062
 8044TIP3    H245548   4.436   4.598  13.953
 8045TIP3   OH245549   6.659   0.230  10.780
 8045TIP3    H145550   6.623   0.163  10.837
 8045TIP3    H245551   6.742   0.193  10.749
 8046TIP3   OH245552   3.716   4.057  10.714
 8046TIP3    H145553   3.642   4.083  10.659
 8046TIP3    H245554   3.724   4.127  10.779
 8047TIP3   OH245555   1.183   4.222  14.341
 8047TIP3    H145556   1.125   4.279  14.390
 8047TIP3    H245557   1.228   4.279  14.279
 8048TIP3   OH245558   3.101   5.103   1.836
 8048TIP3    H145559   3.115   5.147   1.752
 8048TIP3    H245560   3.010   5.124   1.859
 8049TIP3   OH245561   1.837   2.694  17.218
 8049TIP3    H145562   1.905   2.629  17.203
 8049TIP3    H245563   1.792   2.664  17.297
 8050TIP3   OH245564   1.683   5.841   3.568
 8050TIP3    H145565   1.724   5.796   3.641
 8050TIP3    H245566   1.720   5.930   3.571
 8051TIP3   OH245567   5.722   4.558  12.455
 8051TIP3    H145568   5.789   4.521  12.396
 8051TIP3    H245569   5.643   4.560  12.402
 8052TIP3   OH245570   6.358   2.988   2.105
 8052TIP3    H145571   6.297   3.062   2.109
 8052TIP3    H245572   6.331   2.931   2.176
 8053TIP3   OH245573   2.247   5.488  16.524
 8053TIP3    H145574   2.273   5.516  16.437
 8053TIP3    H245575   2.160   5.451  16.513
 8054TIP3   OH245576   2.659   4.097   1.730
 8054TIP3    H145577   2.642   4.096   1.636
 8054TIP3    H245578   2.755   4.090   1.737
 8055TIP3   OH245579   2.673   0.351   1.945
 8055TIP3    H145580   2.767   0.359   1.961
 8055TIP3    H245581   2.659   0.258   1.925
 8056TIP3   OH245582   1.969   4.894  14.501
 8056TIP3    H145583   2.007   4.936  14.424
 8056TIP3    H245584   1.875   4.896  14.485
 8057TIP3   OH245585   2.044   3.348   5.571
 8057TIP3    H145586   2.040   3.307   5.484
 8057TIP3    H245587   2.117   3.304   5.615
 8058TIP3   OH245588   3.013   5.277  12.614
 8058TIP3    H145589   3.092   5.223  12.611
 8058TIP3    H245590   3.044   5.364  12.639
 8059TIP3   OH245591   2.914   4.710   2.451
 8059TIP3    H145592   2.940   4.784   2.395
 8059TIP3    H245593   2.976   4.641   2.429
 8060TIP3   OH245594   4.123   3.992   1.878
 8060TIP3    H145595   4.166   3.962   1.958
 8060TIP3    H245596   4.031   3.966   1.889
 8061TIP3   OH245597   1.370   1.870  16.747
 8061TIP3    H145598   1.316   1.817  16.687
 8061TIP3    H245599   1.401   1.943  16.693
 8062TIP3   OH245600   0.486   5.772  11.703
 8062TIP3    H145601   0.512   5.817  11.623
 8062TIP3    H245602   0.543   5.695  11.706
 8063TIP3   OH245603   5.928   0.882   1.037
 8063TIP3    H145604   5.973   0.847   1.113
 8063TIP3    H245605   5.951   0.975   1.035
 8064TIP3   OH245606   5.866   5.392   3.645
 8064TIP3    H145607   5.804   5.324   3.670
 8064TIP3    H245608   5.831   5.472   3.685
 8065TIP3   OH245609   6.630   3.053   2.892
 8065TIP3    H145610   6.711   3.002   2.889
 8065TIP3    H245611   6.586   3.022   2.971
 8066TIP3   OH245612   1.748   0.390  12.491
 8066TIP3    H145613   1.800   0.318  12.528
 8066TIP3    H245614   1.715   0.437  12.568
 8067TIP3   OH245615   1.792   3.212  16.955
 8067TIP3    H145616   1.761   3.270  17.024
 8067TIP3    H245617   1.869   3.169  16.993
 8068TIP3   OH245618   0.434   3.819   2.686
 8068TIP3    H145619   0.403   3.806   2.776
 8068TIP3    H245620   0.429   3.733   2.646
 8069TIP3   OH245621   4.651   5.985   1.025
 8069TIP3    H145622   4.723   5.980   1.088
 8069TIP3    H245623   4.621   6.076   1.029
 8070TIP3   OH245624   3.940   4.462   5.546
 8070TIP3    H145625   3.900   4.442   5.631
 8070TIP3    H245626   3.959   4.556   5.549
 8071TIP3   OH245627   0.221   2.988   2.193
 8071TIP3    H145628   0.156   3.033   2.139
 8071TIP3    H245629   0.171   2.950   2.265
 8072TIP3   OH245630   5.769   4.680  16.030
 8072TIP3    H145631   5.837   4.671  16.096
 8072TIP3    H245632   5.722   4.759  16.056
 8073TIP3   OH245633   0.258   2.271   2.787
 8073TIP3    H145634   0.318   2.248   2.859
 8073TIP3    H245635   0.315   2.304   2.718
 8074TIP3   OH245636   6.629   4.905  11.499
 8074TIP3    H145637   6.711   4.955  11.497
 8074TIP3    H245638   6.560   4.971  11.491
 8075TIP3   OH245639   4.003   1.093   5.078
 8075TIP3    H145640   4.078   1.036   5.062
 8075TIP3    H245641   4.015   1.166   5.016
 8076TIP3   OH245642   3.409   6.249  14.374
 8076TIP3    H145643   3.395   6.223  14.465
 8076TIP3    H245644   3.329   6.221  14.329
 8077TIP3   OH245645   2.468   0.997   5.193
 8077TIP3    H145646   2.511   1.007   5.107
 8077TIP3    H245647   2.375   1.012   5.175
 8078TIP3   OH245648   4.553   4.567  16.573
 8078TIP3    H145649   4.548   4.523  16.658
 8078TIP3    H245650   4.482   4.530  16.522
 8079TIP3   OH245651   1.302   2.059   2.665
 8079TIP3    H145652   1.224   2.111   2.648
 8079TIP3    H245653   1.277   1.970   2.641
 8080TIP3   OH245654   0.280   4.158  15.434
 8080TIP3    H145655   0.228   4.078  15.447
 8080TIP3    H245656   0.288   4.166  15.339
 8081TIP3   OH245657   4.379   6.722   0.369
 8081TIP3    H145658   4.340   6.773   0.440
 8081TIP3    H245659   4.433   6.656   0.413
 8082TIP3   OH245660   2.781   2.641   3.527
 8082TIP3    H145661   2.857   2.699   3.532
 8082TIP3    H245662   2.798   2.586   3.450
 8083TIP3   OH245663   3.503   3.846  14.983
 8083TIP3    H145664   3.577   3.804  15.028
 8083TIP3    H245665   3.445   3.873  15.054
 8084TIP3   OH245666   4.009   5.364   6.225
 8084TIP3    H145667   3.985   5.387   6.315
 8084TIP3    H245668   3.967   5.280   6.209
 8085TIP3   OH245669   4.382   5.706   1.985
 8085TIP3    H145670   4.335   5.630   2.020
 8085TIP3    H245671   4.392   5.764   2.060
 8086TIP3   OH245672   4.880   6.574  16.965
 8086TIP3    H145673   4.886   6.479  16.977
 8086TIP3    H245674   4.828   6.605  17.039
 8087TIP3   OH245675   2.438   5.009   4.057
 8087TIP3    H145676   2.395   5.094   4.066
 8087TIP3    H245677   2.405   4.958   4.132
 8088TIP3   OH245678   4.818   5.263   2.813
 8088TIP3    H145679   4.781   5.338   2.859
 8088TIP3    H245680   4.898   5.242   2.861
 8089TIP3   OH245681   3.241   0.051  15.318
 8089TIP3    H145682   3.257   0.131  15.267
 8089TIP3    H245683   3.278  -0.019  15.265
 8090TIP3   OH245684   0.561   4.302  14.729
 8090TIP3    H145685   0.475   4.267  14.707
 8090TIP3    H245686   0.623   4.248  14.680
 8091TIP3   OH245687   4.889   5.292   5.195
 8091TIP3    H145688   4.798   5.313   5.215
 8091TIP3    H245689   4.883   5.230   5.122
 8092TIP3   OH245690   5.348   1.951   0.434
 8092TIP3    H145691   5.364   1.906   0.351
 8092TIP3    H245692   5.403   2.029   0.430
 8093TIP3   OH245693   1.842   1.163  10.527
 8093TIP3    H145694   1.923   1.206  10.504
 8093TIP3    H245695   1.775   1.231  10.521
 8094TIP3   OH245696   5.574   2.583  16.017
 8094TIP3    H145697   5.540   2.546  16.098
 8094TIP3    H245698   5.565   2.513  15.953
 8095TIP3   OH245699   1.633   1.144   3.281
 8095TIP3    H145700   1.699   1.207   3.253
 8095TIP3    H245701   1.556   1.163   3.228
 8096TIP3   OH245702   2.220   6.530   3.125
 8096TIP3    H145703   2.312   6.546   3.102
 8096TIP3    H245704   2.202   6.442   3.092
 8097TIP3   OH245705   6.476   2.632   6.352
 8097TIP3    H145706   6.450   2.716   6.390
 8097TIP3    H245707   6.470   2.570   6.425
 8098TIP3   OH245708   6.574   0.233   2.312
 8098TIP3    H145709   6.613   0.320   2.304
 8098TIP3    H245710   6.496   0.247   2.366
 8099TIP3   OH245711   4.929   4.341  14.318
 8099TIP3    H145712   4.862   4.385  14.267
 8099TIP3    H245713   4.897   4.251  14.328
 8100TIP3   OH245714   6.127   5.943  14.228
 8100TIP3    H145715   6.167   5.864  14.191
 8100TIP3    H245716   6.033   5.923  14.230
 8101TIP3   OH245717   1.897   0.171  12.561
 8101TIP3    H145718   1.988   0.198  12.550
 8101TIP3    H245719   1.902   0.080  12.589
 8102TIP3   OH245720   5.318   2.982   3.144
 8102TIP3    H145721   5.251   2.937   3.195
 8102TIP3    H245722   5.303   3.075   3.162
 8103TIP3   OH245723   4.151   1.790  12.549
 8103TIP3    H145724   4.193   1.860  12.499
 8103TIP3    H245725   4.211   1.716  12.542
 8104TIP3   OH245726   6.431   2.001  13.629
 8104TIP3    H145727   6.340   2.023  13.610
 8104TIP3    H245728   6.456   2.060  13.700
 8105TIP3   OH245729   4.616   5.742  15.492
 8105TIP3    H145730   4.531   5.727  15.533
 8105TIP3    H245731   4.667   5.665  15.515
 8106TIP3   OH245732   0.069   4.721  16.643
 8106TIP3    H145733   0.058   4.628  16.621
 8106TIP3    H245734   0.161   4.740  16.622
 8107TIP3   OH245735   1.423   3.210  14.906
 8107TIP3    H145736   1.481   3.135  14.891
 8107TIP3    H245737   1.482   3.284  14.921
 8108TIP3   OH245738   0.933   4.360   3.186
 8108TIP3    H145739   0.954   4.342   3.095
 8108TIP3    H245740   0.851   4.313   3.202
 8109TIP3   OH245741   1.433   5.783  11.158
 8109TIP3    H145742   1.426   5.704  11.105
 8109TIP3    H245743   1.352   5.831  11.140
 8110TIP3   OH245744   1.279   4.134  13.992
 8110TIP3    H145745   1.296   4.215  14.041
 8110TIP3    H245746   1.337   4.140  13.916
 8111TIP3   OH245747   3.640   1.191   2.190
 8111TIP3    H145748   3.575   1.206   2.258
 8111TIP3    H245749   3.613   1.247   2.117
 8112TIP3   OH245750   4.866   2.572   5.118
 8112TIP3    H145751   4.860   2.665   5.142
 8112TIP3    H245752   4.912   2.571   5.034
 8113TIP3   OH245753   1.447   0.344  13.979
 8113TIP3    H145754   1.422   0.252  13.975
 8113TIP3    H245755   1.416   0.374  14.064
 8114TIP3   OH245756   3.733   6.702   4.347
 8114TIP3    H145757   3.713   6.613   4.377
 8114TIP3    H245758   3.702   6.705   4.257
 8115TIP3   OH245759   0.298   5.128   2.598
 8115TIP3    H145760   0.361   5.186   2.555
 8115TIP3    H245761   0.255   5.082   2.526
 8116TIP3   OH245762   3.985   5.547   0.951
 8116TIP3    H145763   3.958   5.598   1.027
 8116TIP3    H245764   3.992   5.611   0.880
 8117TIP3   OH245765   1.820   4.624   3.133
 8117TIP3    H145766   1.790   4.574   3.058
 8117TIP3    H245767   1.815   4.563   3.207
 8118TIP3   OH245768   6.581   6.750  16.371
 8118TIP3    H145769   6.603   6.751  16.464
 8118TIP3    H245770   6.631   6.822  16.333
 8119TIP3   OH245771   1.676   0.115   5.025
 8119TIP3    H145772   1.754   0.123   4.970
 8119TIP3    H245773   1.687   0.031   5.070
 8120TIP3   OH245774   1.887   5.493   4.453
 8120TIP3    H145775   1.896   5.545   4.533
 8120TIP3    H245776   1.799   5.513   4.421
 8121TIP3   OH245777   5.004   4.514   3.286
 8121TIP3    H145778   5.090   4.554   3.273
 8121TIP3    H245779   4.946   4.562   3.227
 8122TIP3   OH245780   4.600   5.726  11.993
 8122TIP3    H145781   4.520   5.676  11.974
 8122TIP3    H245782   4.660   5.704  11.922
 8123TIP3   OH245783   5.068   4.685   2.484
 8123TIP3    H145784   5.001   4.701   2.550
 8123TIP3    H245785   5.077   4.768   2.438
 8124TIP3   OH245786   5.861   2.644   2.368
 8124TIP3    H145787   5.866   2.572   2.430
 8124TIP3    H245788   5.943   2.638   2.318
 8125TIP3   OH245789   2.928   4.343  15.325
 8125TIP3    H145790   2.929   4.414  15.260
 8125TIP3    H245791   2.852   4.363  15.380
 8126TIP3   OH245792   1.618   5.403   3.660
 8126TIP3    H145793   1.667   5.468   3.710
 8126TIP3    H245794   1.576   5.349   3.727
 8127TIP3   OH245795   1.085   2.093   2.262
 8127TIP3    H145796   0.994   2.064   2.258
 8127TIP3    H245797   1.125   2.058   2.182
 8128TIP3   OH245798   5.301   2.461  13.128
 8128TIP3    H145799   5.314   2.408  13.049
 8128TIP3    H245800   5.210   2.492  13.121
 8129TIP3   OH245801   3.407   3.025   4.577
 8129TIP3    H145802   3.503   3.018   4.577
 8129TIP3    H245803   3.387   3.072   4.496
 8130TIP3   OH245804   6.783   2.522   6.805
 8130TIP3    H145805   6.782   2.587   6.734
 8130TIP3    H245806   6.700   2.536   6.850
 8131TIP3   OH245807   1.484   4.610  16.725
 8131TIP3    H145808   1.403   4.632  16.679
 8131TIP3    H245809   1.545   4.585  16.655
 8132TIP3   OH245810   2.506   4.742   2.169
 8132TIP3    H145811   2.558   4.718   2.246
 8132TIP3    H245812   2.421   4.701   2.184
 8133TIP3   OH245813   5.659   0.308  12.790
 8133TIP3    H145814   5.643   0.389  12.839
 8133TIP3    H245815   5.654   0.239  12.857
 8134TIP3   OH245816   1.245   6.165  17.020
 8134TIP3    H145817   1.251   6.090  16.961
 8134TIP3    H245818   1.162   6.206  16.997
 8135TIP3   OH245819   2.877   0.071   5.456
 8135TIP3    H145820   2.865   0.165   5.467
 8135TIP3    H245821   2.955   0.064   5.401
 8136TIP3   OH245822   0.007   5.155   3.834
 8136TIP3    H145823   0.029   5.063   3.842
 8136TIP3    H245824   0.064   5.199   3.897
 8137TIP3   OH245825   4.646   6.683  17.122
 8137TIP3    H145826   4.624   6.774  17.142
 8137TIP3    H245827   4.599   6.665  17.040
 8138TIP3   OH245828   1.521   6.640  16.721
 8138TIP3    H145829   1.450   6.685  16.767
 8138TIP3    H245830   1.476   6.586  16.656
 8139TIP3   OH245831   1.607   6.088   3.843
 8139TIP3    H145832   1.610   6.120   3.753
 8139TIP3    H245833   1.519   6.053   3.853
 8140TIP3   OH245834   6.502   1.082   2.676
 8140TIP3    H145835   6.504   1.172   2.644
 8140TIP3    H245836   6.496   1.029   2.596
 8141TIP3   OH245837   0.062   0.774   5.276
 8141TIP3    H145838   0.041   0.691   5.233
 8141TIP3    H245839  -0.018   0.799   5.321
 8142TIP3   OH245840   6.226   5.829  12.649
 8142TIP3    H145841   6.210   5.923  12.644
 8142TIP3    H245842   6.253   5.813  12.739
 8143TIP3   OH245843   0.927   5.595   0.130
 8143TIP3    H145844   0.918   5.684   0.164
 8143TIP3    H245845   0.838   5.561   0.128
 8144TIP3   OH245846   0.570   6.012   2.001
 8144TIP3    H145847   0.645   6.067   2.022
 8144TIP3    H245848   0.546   5.972   2.084
 8145TIP3   OH245849   0.995   4.618   1.145
 8145TIP3    H145850   1.087   4.639   1.129
 8145TIP3    H245851   0.991   4.522   1.143
 8146TIP3   OH245852   5.405   5.851   1.759
 8146TIP3    H145853   5.350   5.838   1.682
 8146TIP3    H245854   5.465   5.776   1.759
 8147TIP3   OH245855   1.642   6.732  12.958
 8147TIP3    H145856   1.679   6.794  13.021
 8147TIP3    H245857   1.560   6.702  12.998
 8148TIP3   OH245858   4.602   6.411  14.090
 8148TIP3    H145859   4.529   6.388  14.147
 8148TIP3    H245860   4.676   6.426  14.149
 8149TIP3   OH245861   6.125   6.266   4.364
 8149TIP3    H145862   6.106   6.242   4.274
 8149TIP3    H245863   6.187   6.339   4.358
 8150TIP3   OH245864   4.962   1.946  14.842
 8150TIP3    H145865   4.931   1.894  14.768
 8150TIP3    H245866   5.010   2.018  14.801
 8151TIP3   OH245867   0.325   5.805  15.170
 8151TIP3    H145868   0.320   5.724  15.220
 8151TIP3    H245869   0.309   5.779  15.079
 8152TIP3   OH245870   3.602   2.635  12.775
 8152TIP3    H145871   3.530   2.591  12.731
 8152TIP3    H245872   3.670   2.568  12.782
 8153TIP3   OH245873   0.667   3.470  13.392
 8153TIP3    H145874   0.670   3.563  13.415
 8153TIP3    H245875   0.713   3.464  13.308
 8154TIP3   OH245876   0.686   5.591   0.715
 8154TIP3    H145877   0.751   5.531   0.679
 8154TIP3    H245878   0.604   5.541   0.714
 8155TIP3   OH245879   0.199   6.177   5.571
 8155TIP3    H145880   0.196   6.174   5.666
 8155TIP3    H245881   0.289   6.201   5.551
 8156TIP3   OH245882   4.700   4.812  15.194
 8156TIP3    H145883   4.776   4.754  15.201
 8156TIP3    H245884   4.724   4.889  15.245
 8157TIP3   OH245885   1.997   3.862   3.962
 8157TIP3    H145886   2.049   3.910   3.898
 8157TIP3    H245887   2.000   3.917   4.041
 8158TIP3   OH245888   0.551   4.875  16.605
 8158TIP3    H145889   0.570   4.888  16.698
 8158TIP3    H245890   0.468   4.827  16.605
 8159TIP3   OH245891   1.615   2.466  17.109
 8159TIP3    H145892   1.707   2.455  17.082
 8159TIP3    H245893   1.565   2.451  17.028
 8160TIP3   OH245894   3.930   2.864  14.727
 8160TIP3    H145895   3.992   2.828  14.791
 8160TIP3    H245896   3.984   2.923  14.674
 8161TIP3   OH245897   3.894   6.520   3.215
 8161TIP3    H145898   3.883   6.434   3.255
 8161TIP3    H245899   3.806   6.557   3.213
 8162TIP3   OH245900   1.050   3.830   3.676
 8162TIP3    H145901   1.011   3.870   3.754
 8162TIP3    H245902   1.104   3.900   3.638
 8163TIP3   OH245903   3.437   3.029  14.960
 8163TIP3    H145904   3.437   2.938  14.929
 8163TIP3    H245905   3.460   3.022  15.053
 8164TIP3   OH245906   4.039   4.802   3.533
 8164TIP3    H145907   3.971   4.765   3.589
 8164TIP3    H245908   4.093   4.728   3.508
 8165TIP3   OH245909   0.454   2.660  15.747
 8165TIP3    H145910   0.369   2.703  15.737
 8165TIP3    H245911   0.506   2.694  15.675
 8166TIP3   OH245912   0.294   4.969  16.445
 8166TIP3    H145913   0.307   5.000  16.355
 8166TIP3    H245914   0.342   4.886  16.448
 8167TIP3   OH245915   5.989   0.380  15.795
 8167TIP3    H145916   5.987   0.450  15.860
 8167TIP3    H245917   5.967   0.423  15.712
 8168TIP3   OH245918   2.881   0.821  12.822
 8168TIP3    H145919   2.812   0.853  12.879
 8168TIP3    H245920   2.919   0.900  12.784
 8169TIP3   OH245921   2.178   2.778  13.254
 8169TIP3    H145922   2.205   2.775  13.346
 8169TIP3    H245923   2.095   2.730  13.251
 8170TIP3   OH245924   2.448   5.903   5.097
 8170TIP3    H145925   2.538   5.922   5.123
 8170TIP3    H245926   2.439   5.809   5.108
 8171TIP3   OH245927   2.625   3.630   2.666
 8171TIP3    H145928   2.555   3.587   2.714
 8171TIP3    H245929   2.706   3.594   2.702
 8172TIP3   OH245930   3.903   3.708   0.290
 8172TIP3    H145931   3.847   3.784   0.274
 8172TIP3    H245932   3.844   3.633   0.287
 8173TIP3   OH245933   5.557   1.526  15.561
 8173TIP3    H145934   5.522   1.600  15.511
 8173TIP3    H245935   5.488   1.460  15.556
 8174TIP3   OH245936   4.776   5.097  16.912
 8174TIP3    H145937   4.701   5.092  16.853
 8174TIP3    H245938   4.737   5.108  16.999
 8175TIP3   OH245939   5.197   1.154  16.688
 8175TIP3    H145940   5.150   1.224  16.734
 8175TIP3    H245941   5.142   1.076  16.700
 8176TIP3   OH245942   6.753   1.426   1.273
 8176TIP3    H145943   6.738   1.345   1.224
 8176TIP3    H245944   6.847   1.425   1.293
 8177TIP3   OH245945   5.419   0.987   3.110
 8177TIP3    H145946   5.456   0.934   3.040
 8177TIP3    H245947   5.476   0.973   3.185
 8178TIP3   OH245948   1.157   4.684  12.121
 8178TIP3    H145949   1.202   4.740  12.185
 8178TIP3    H245950   1.064   4.693  12.143
 8179TIP3   OH245951   4.418   4.767   5.771
 8179TIP3    H145952   4.403   4.747   5.864
 8179TIP3    H245953   4.492   4.712   5.746
 8180TIP3   OH245954   1.944   0.659   3.357
 8180TIP3    H145955   2.037   0.643   3.371
 8180TIP3    H245956   1.923   0.614   3.275
 8181TIP3   OH245957   3.258   4.033  15.866
 8181TIP3    H145958   3.186   4.087  15.897
 8181TIP3    H245959   3.293   3.992  15.946
 8182TIP3   OH245960   6.785   0.710   3.515
 8182TIP3    H145961   6.742   0.659   3.584
 8182TIP3    H245962   6.802   0.795   3.556
 8183TIP3   OH245963   5.154   3.624  15.081
 8183TIP3    H145964   5.202   3.615  15.164
 8183TIP3    H245965   5.081   3.683  15.102
 8184TIP3   OH245966   3.279   5.101   5.533
 8184TIP3    H145967   3.321   5.125   5.450
 8184TIP3    H245968   3.352   5.083   5.592
 8185TIP3   OH245969   3.578   3.635   5.412
 8185TIP3    H145970   3.606   3.580   5.486
 8185TIP3    H245971   3.650   3.627   5.349
 8186TIP3   OH245972   0.500   4.669  12.467
 8186TIP3    H145973   0.421   4.621  12.490
 8186TIP3    H245974   0.564   4.601  12.443
 8187TIP3   OH245975   4.756   2.878  16.822
 8187TIP3    H145976   4.751   2.960  16.872
 8187TIP3    H245977   4.734   2.903  16.733
 8188TIP3   OH245978   5.023   5.595   5.470
 8188TIP3    H145979   4.951   5.531   5.467
 8188TIP3    H245980   5.045   5.602   5.562
 8189TIP3   OH245981   1.191   0.689   1.977
 8189TIP3    H145982   1.223   0.734   1.899
 8189TIP3    H245983   1.101   0.720   1.988
 8190TIP3   OH245984   2.645   1.959  16.723
 8190TIP3    H145985   2.694   1.926  16.798
 8190TIP3    H245986   2.644   1.887  16.660
 8191TIP3   OH245987   1.778   2.202  15.603
 8191TIP3    H145988   1.735   2.262  15.541
 8191TIP3    H245989   1.750   2.115  15.574
 8192TIP3   OH245990   2.836   0.334  10.855
 8192TIP3    H145991   2.830   0.289  10.771
 8192TIP3    H245992   2.758   0.306  10.904
 8193TIP3   OH245993   2.728   0.825  14.296
 8193TIP3    H145994   2.662   0.797  14.232
 8193TIP3    H245995   2.700   0.913  14.321
 8194TIP3   OH245996   0.455   6.299  10.477
 8194TIP3    H145997   0.373   6.348  10.474
 8194TIP3    H245998   0.430   6.208  10.460
 8195TIP3   OH245999   2.222   2.614  14.399
 8195TIP3    H146000   2.215   2.649  14.487
 8195TIP3    H246001   2.315   2.599  14.385
 8196TIP3   OH246002   1.782   2.862  16.120
 8196TIP3    H146003   1.788   2.909  16.203
 8196TIP3    H246004   1.689   2.867  16.096
 8197TIP3   OH246005   1.672   0.725  15.244
 8197TIP3    H146006   1.741   0.791  15.253
 8197TIP3    H246007   1.707   0.647  15.287
 8198TIP3   OH246008   0.968   1.079  14.359
 8198TIP3    H146009   0.965   0.986  14.337
 8198TIP3    H246010   1.053   1.092  14.401
 8199TIP3   OH246011   1.198   6.573   2.810
 8199TIP3    H146012   1.178   6.480   2.819
 8199TIP3    H246013   1.238   6.581   2.723
 8200TIP3   OH246014   4.278   0.032   3.058
 8200TIP3    H146015   4.270  -0.062   3.075
 8200TIP3    H246016   4.271   0.039   2.963
 8201TIP3   OH246017   5.885   2.765  12.515
 8201TIP3    H146018   5.955   2.701  12.525
 8201TIP3    H246019   5.912   2.839  12.570
 8202TIP3   OH246020   5.368   0.512  13.281
 8202TIP3    H146021   5.408   0.499  13.195
 8202TIP3    H246022   5.274   0.505  13.266
 8203TIP3   OH246023   4.244   5.113   1.891
 8203TIP3    H146024   4.249   5.198   1.847
 8203TIP3    H246025   4.205   5.132   1.976
 8204TIP3   OH246026   3.755   5.093  14.923
 8204TIP3    H146027   3.793   5.005  14.927
 8204TIP3    H246028   3.727   5.111  15.012
 8205TIP3   OH246029   0.021   3.276   5.096
 8205TIP3    H146030  -0.071   3.249   5.105
 8205TIP3    H246031   0.047   3.245   5.009
 8206TIP3   OH246032   5.681   3.619  10.516
 8206TIP3    H146033   5.602   3.666  10.491
 8206TIP3    H246034   5.649   3.541  10.562
 8207TIP3   OH246035   5.155   3.389  15.649
 8207TIP3    H146036   5.092   3.437  15.596
 8207TIP3    H246037   5.125   3.299  15.648
 8208TIP3   OH246038   1.026   4.412  12.011
 8208TIP3    H146039   1.119   4.388  12.009
 8208TIP3    H246040   1.002   4.427  11.919
 8209TIP3   OH246041   1.184   1.297  14.530
 8209TIP3    H146042   1.214   1.270  14.617
 8209TIP3    H246043   1.200   1.220  14.474
 8210TIP3   OH246044   4.092   4.546   0.546
 8210TIP3    H146045   4.123   4.488   0.477
 8210TIP3    H246046   4.003   4.515   0.565
 8211TIP3   OH246047   5.021   4.604  12.117
 8211TIP3    H146048   5.032   4.623  12.024
 8211TIP3    H246049   5.079   4.529  12.133
 8212TIP3   OH246050   3.742   1.117  16.531
 8212TIP3    H146051   3.757   1.036  16.482
 8212TIP3    H246052   3.819   1.126  16.587
 8213TIP3   OH246053   3.681   2.822   5.706
 8213TIP3    H146054   3.586   2.834   5.710
 8213TIP3    H246055   3.713   2.852   5.790
 8214TIP3   OH246056   2.141   0.247  17.061
 8214TIP3    H146057   2.215   0.301  17.088
 8214TIP3    H246058   2.101   0.218  17.144
 8215TIP3   OH246059   4.331   1.744  13.663
 8215TIP3    H146060   4.391   1.709  13.729
 8215TIP3    H246061   4.311   1.669  13.607
 8216TIP3   OH246062   2.129   6.716   4.823
 8216TIP3    H146063   2.106   6.705   4.731
 8216TIP3    H246064   2.152   6.809   4.831
 8217TIP3   OH246065   4.910   4.301   1.757
 8217TIP3    H146066   4.987   4.353   1.780
 8217TIP3    H246067   4.865   4.286   1.840
 8218TIP3   OH246068   3.764   2.304   6.409
 8218TIP3    H146069   3.669   2.306   6.416
 8218TIP3    H246070   3.792   2.392   6.434
 8219TIP3   OH246071   0.961   3.895   6.154
 8219TIP3    H146072   0.971   3.801   6.171
 8219TIP3    H246073   0.924   3.900   6.066
 8220TIP3   OH246074   1.310   4.067   6.336
 8220TIP3    H146075   1.318   3.999   6.403
 8220TIP3    H246076   1.287   4.146   6.385
 8221TIP3   OH246077   4.005   4.110   0.166
 8221TIP3    H146078   4.037   4.034   0.213
 8221TIP3    H246079   3.942   4.150   0.225
 8222TIP3   OH246080   3.077   0.389  12.846
 8222TIP3    H146081   2.982   0.382  12.839
 8222TIP3    H246082   3.098   0.475  12.809
 8223TIP3   OH246083   4.811   0.745   4.560
 8223TIP3    H146084   4.763   0.794   4.627
 8223TIP3    H246085   4.831   0.661   4.601
 8224TIP3   OH246086   5.034   5.318   2.996
 8224TIP3    H146087   5.013   5.375   3.071
 8224TIP3    H246088   5.106   5.263   3.027
 8225TIP3   OH246089   3.852   2.789   0.651
 8225TIP3    H146090   3.817   2.808   0.564
 8225TIP3    H246091   3.876   2.697   0.648
 8226TIP3   OH246092   6.281   1.395   2.408
 8226TIP3    H146093   6.219   1.437   2.468
 8226TIP3    H246094   6.234   1.392   2.325
 8227TIP3   OH246095   4.237   1.658  10.833
 8227TIP3    H146096   4.218   1.751  10.842
 8227TIP3    H246097   4.157   1.614  10.860
 8228TIP3   OH246098   0.759   5.207  10.972
 8228TIP3    H146099   0.719   5.283  10.930
 8228TIP3    H246100   0.743   5.135  10.911
 8229TIP3   OH246101   3.931   3.435   5.681
 8229TIP3    H146102   3.935   3.529   5.695
 8229TIP3    H246103   3.905   3.399   5.766
 8230TIP3   OH246104   2.526   0.217   3.410
 8230TIP3    H146105   2.549   0.254   3.325
 8230TIP3    H246106   2.609   0.211   3.457
 8231TIP3   OH246107   0.146   5.550  13.587
 8231TIP3    H146108   0.103   5.469  13.612
 8231TIP3    H246109   0.180   5.586  13.668
 8232TIP3   OH246110   4.654   2.623  11.727
 8232TIP3    H146111   4.579   2.670  11.692
 8232TIP3    H246112   4.722   2.631  11.659
 8233TIP3   OH246113   4.778   6.086  17.185
 8233TIP3    H146114   4.760   6.008  17.237
 8233TIP3    H246115   4.760   6.159  17.244
 8234TIP3   OH246116   3.888   1.505  17.063
 8234TIP3    H146117   3.799   1.495  17.096
 8234TIP3    H246118   3.878   1.557  16.983
 8235TIP3   OH246119   1.089   0.713   3.102
 8235TIP3    H146120   1.037   0.634   3.085
 8235TIP3    H246121   1.175   0.680   3.127
 8236TIP3   OH246122   4.710   2.927   0.624
 8236TIP3    H146123   4.639   2.953   0.565
 8236TIP3    H246124   4.732   3.006   0.673
 8237TIP3   OH246125   4.741   0.917  11.797
 8237TIP3    H146126   4.712   0.931  11.707
 8237TIP3    H246127   4.760   1.004  11.830
 8238TIP3   OH246128   0.012   4.991   4.077
 8238TIP3    H146129   0.036   5.083   4.072
 8238TIP3    H246130   0.048   4.952   3.997
 8239TIP3   OH246131   0.594   5.120  16.425
 8239TIP3    H146132   0.570   5.180  16.496
 8239TIP3    H246133   0.531   5.049  16.432
 8240TIP3   OH246134   0.208   1.880   4.564
 8240TIP3    H146135   0.300   1.868   4.544
 8240TIP3    H246136   0.200   1.851   4.655
 8241TIP3   OH246137   2.196   3.419   0.146
 8241TIP3    H146138   2.215   3.352   0.081
 8241TIP3    H246139   2.214   3.378   0.230
 8242TIP3   OH246140   2.738   1.872   1.505
 8242TIP3    H146141   2.795   1.845   1.433
 8242TIP3    H246142   2.753   1.808   1.574
 8243TIP3   OH246143   4.391   1.081   3.368
 8243TIP3    H146144   4.398   1.007   3.428
 8243TIP3    H246145   4.468   1.073   3.311
 8244TIP3   OH246146   6.656   1.812  16.972
 8244TIP3    H146147   6.749   1.786  16.973
 8244TIP3    H246148   6.609   1.730  16.987
 8245TIP3   OH246149   0.515   4.339   3.632
 8245TIP3    H146150   0.552   4.427   3.644
 8245TIP3    H246151   0.476   4.342   3.545
 8246TIP3   OH246152   1.608   1.983   4.019
 8246TIP3    H146153   1.548   1.992   4.093
 8246TIP3    H246154   1.609   1.889   4.000
 8247TIP3   OH246155   0.980   6.573   1.195
 8247TIP3    H146156   0.982   6.657   1.150
 8247TIP3    H246157   0.939   6.591   1.280
 8248TIP3   OH246158   1.100   3.672  13.876
 8248TIP3    H146159   1.147   3.631  13.948
 8248TIP3    H246160   1.042   3.735  13.918
 8249TIP3   OH246161   1.381   5.695   5.435
 8249TIP3    H146162   1.429   5.622   5.475
 8249TIP3    H246163   1.412   5.772   5.482
 8250TIP3   OH246164   2.194   0.577  16.899
 8250TIP3    H146165   2.254   0.513  16.860
 8250TIP3    H246166   2.235   0.601  16.982
 8251TIP3   OH246167   2.502   5.269   5.223
 8251TIP3    H146168   2.580   5.320   5.204
 8251TIP3    H246169   2.523   5.221   5.303
 8252TIP3   OH246170   1.702   3.641   1.479
 8252TIP3    H146171   1.798   3.635   1.474
 8252TIP3    H246172   1.685   3.729   1.513
 8253TIP3   OH246173   6.015   4.589  16.543
 8253TIP3    H146174   5.993   4.659  16.481
 8253TIP3    H246175   6.001   4.509  16.493
 8254TIP3   OH246176   1.719   2.888   4.730
 8254TIP3    H146177   1.756   2.892   4.818
 8254TIP3    H246178   1.625   2.880   4.745
 8255TIP3   OH246179   6.386   5.994   0.122
 8255TIP3    H146180   6.326   6.001   0.048
 8255TIP3    H246181   6.373   5.905   0.155
 8256TIP3   OH246182   2.534   4.594  12.365
 8256TIP3    H146183   2.468   4.526  12.354
 8256TIP3    H246184   2.539   4.636  12.279
 8257TIP3   OH246185   2.714   1.967  11.797
 8257TIP3    H146186   2.698   1.952  11.704
 8257TIP3    H246187   2.629   1.996  11.832
 8258TIP3   OH246188   4.927   1.591  14.244
 8258TIP3    H146189   4.994   1.533  14.209
 8258TIP3    H246190   4.848   1.569  14.194
 8259TIP3   OH246191   3.166   2.150  13.325
 8259TIP3    H146192   3.078   2.152  13.362
 8259TIP3    H246193   3.223   2.127  13.399
 8260TIP3   OH246194   0.991   5.233   1.850
 8260TIP3    H146195   0.999   5.280   1.768
 8260TIP3    H246196   0.896   5.230   1.867
 8261TIP3   OH246197   4.013   4.272   4.021
 8261TIP3    H146198   3.975   4.358   4.005
 8261TIP3    H246199   3.969   4.239   4.100
 8262TIP3   OH246200   4.933   4.534   4.351
 8262TIP3    H146201   4.851   4.564   4.312
 8262TIP3    H246202   4.999   4.549   4.283
 8263TIP3   OH246203   4.514   4.804  12.221
 8263TIP3    H146204   4.465   4.778  12.299
 8263TIP3    H246205   4.448   4.847  12.165
 8264TIP3   OH246206   3.801   2.440   4.587
 8264TIP3    H146207   3.876   2.496   4.605
 8264TIP3    H246208   3.727   2.487   4.627
 8265TIP3   OH246209   0.162   2.877  13.767
 8265TIP3    H146210   0.162   2.949  13.829
 8265TIP3    H246211   0.255   2.855  13.756
 8266TIP3   OH246212   5.575   1.730   1.543
 8266TIP3    H146213   5.601   1.673   1.615
 8266TIP3    H246214   5.496   1.689   1.508
 8267TIP3   OH246215   4.949   2.648  14.024
 8267TIP3    H146216   4.990   2.703  13.957
 8267TIP3    H246217   5.022   2.603  14.067
 8268TIP3   OH246218   3.729   5.377   1.119
 8268TIP3    H146219   3.647   5.373   1.069
 8268TIP3    H246220   3.796   5.396   1.053
 8269TIP3   OH246221   5.859   5.976  14.339
 8269TIP3    H146222   5.807   6.020  14.272
 8269TIP3    H246223   5.884   6.045  14.399
 8270TIP3   OH246224   1.326   3.986   2.748
 8270TIP3    H146225   1.351   3.910   2.800
 8270TIP3    H246226   1.372   3.974   2.665
 8271TIP3   OH246227   2.690   3.813   0.744
 8271TIP3    H146228   2.762   3.874   0.728
 8271TIP3    H246229   2.653   3.841   0.828
 8272TIP3   OH246230   4.442   0.897  15.731
 8272TIP3    H146231   4.374   0.845  15.774
 8272TIP3    H246232   4.449   0.859  15.643
 8273TIP3   OH246233   4.813   6.465   0.890
 8273TIP3    H146234   4.856   6.496   0.970
 8273TIP3    H246235   4.883   6.428   0.837
 8274TIP3   OH246236   2.961   3.131  16.172
 8274TIP3    H146237   2.866   3.126  16.179
 8274TIP3    H246238   2.990   3.166  16.257
 8275TIP3   OH246239   6.102   5.203   0.592
 8275TIP3    H146240   6.112   5.142   0.520
 8275TIP3    H246241   6.151   5.281   0.565
 8276TIP3   OH246242   4.323   1.399   4.056
 8276TIP3    H146243   4.403   1.349   4.043
 8276TIP3    H246244   4.353   1.487   4.081
 8277TIP3   OH246245   6.782   0.291  15.881
 8277TIP3    H146246   6.854   0.294  15.818
 8277TIP3    H246247   6.732   0.214  15.855
 8278TIP3   OH246248   4.097   4.987  14.990
 8278TIP3    H146249   4.027   4.931  14.957
 8278TIP3    H246250   4.178   4.943  14.964
 8279TIP3   OH246251   0.368   0.571  16.227
 8279TIP3    H146252   0.283   0.553  16.268
 8279TIP3    H246253   0.412   0.486  16.226
 8280TIP3   OH246254   1.790   4.892  12.119
 8280TIP3    H146255   1.736   4.820  12.152
 8280TIP3    H246256   1.878   4.872  12.152
 8281TIP3   OH246257   0.883   6.125   5.422
 8281TIP3    H146258   0.948   6.101   5.356
 8281TIP3    H246259   0.826   6.187   5.377
 8282TIP3   OH246260   5.534   5.240  13.760
 8282TIP3    H146261   5.606   5.194  13.716
 8282TIP3    H246262   5.544   5.218  13.852
 8283TIP3   OH246263   1.089   4.465  13.171
 8283TIP3    H146264   1.095   4.404  13.245
 8283TIP3    H246265   1.090   4.552  13.211
 8284TIP3   OH246266   4.269   1.260  14.313
 8284TIP3    H146267   4.322   1.322  14.264
 8284TIP3    H246268   4.282   1.177  14.268
 8285TIP3   OH246269   1.623   5.552  13.805
 8285TIP3    H146270   1.682   5.628  13.809
 8285TIP3    H246271   1.538   5.590  13.783
 8286TIP3   OH246272   1.971   5.598  14.337
 8286TIP3    H146273   2.049   5.642  14.300
 8286TIP3    H246274   2.001   5.564  14.421
 8287TIP3   OH246275   3.684   0.124   5.192
 8287TIP3    H146276   3.602   0.155   5.231
 8287TIP3    H246277   3.752   0.157   5.250
 8288TIP3   OH246278   1.187   2.426   3.362
 8288TIP3    H146279   1.211   2.426   3.270
 8288TIP3    H246280   1.269   2.440   3.409
 8289TIP3   OH246281   1.271   6.414   6.615
 8289TIP3    H146282   1.179   6.414   6.641
 8289TIP3    H246283   1.319   6.398   6.696
 8290TIP3   OH246284   2.127   2.565  13.470
 8290TIP3    H146285   2.055   2.618  13.435
 8290TIP3    H246286   2.110   2.561  13.564
 8291TIP3   OH246287   3.621   4.624   3.705
 8291TIP3    H146288   3.653   4.568   3.776
 8291TIP3    H246289   3.525   4.617   3.711
 8292TIP3   OH246290   3.066   6.569   4.230
 8292TIP3    H146291   3.085   6.497   4.170
 8292TIP3    H246292   3.110   6.545   4.312
 8293TIP3   OH246293   6.620   2.704   1.209
 8293TIP3    H146294   6.695   2.726   1.263
 8293TIP3    H246295   6.602   2.783   1.158
 8294TIP3   OH246296   4.613   0.718  11.086
 8294TIP3    H146297   4.679   0.759  11.142
 8294TIP3    H246298   4.640   0.739  10.997
 8295TIP3   OH246299   3.475   0.472  12.523
 8295TIP3    H146300   3.525   0.442  12.598
 8295TIP3    H246301   3.437   0.555  12.551
 8296TIP3   OH246302   3.220   4.892  12.757
 8296TIP3    H146303   3.219   4.806  12.800
 8296TIP3    H246304   3.302   4.932  12.784
 8297TIP3   OH246305   0.609   0.826   4.745
 8297TIP3    H146306   0.592   0.919   4.765
 8297TIP3    H246307   0.701   0.814   4.766
 8298TIP3   OH246308   4.853   5.631  13.190
 8298TIP3    H146309   4.885   5.602  13.276
 8298TIP3    H246310   4.932   5.653  13.141
 8299TIP3   OH246311   5.040   1.856  13.238
 8299TIP3    H146312   4.954   1.895  13.222
 8299TIP3    H246313   5.089   1.926  13.281
 8300TIP3   OH246314   0.629   6.724  10.517
 8300TIP3    H146315   0.698   6.744  10.579
 8300TIP3    H246316   0.561   6.790  10.533
 8301TIP3   OH246317   0.395   6.065   0.680
 8301TIP3    H146318   0.391   6.050   0.585
 8301TIP3    H246319   0.459   6.001   0.711
 8302TIP3   OH246320   3.224   5.382   5.097
 8302TIP3    H146321   3.159   5.399   5.166
 8302TIP3    H246322   3.292   5.447   5.112
 8303TIP3   OH246323   0.243   2.792  16.412
 8303TIP3    H146324   0.236   2.698  16.396
 8303TIP3    H246325   0.286   2.826  16.333
 8304TIP3   OH246326   6.749   4.281  12.960
 8304TIP3    H146327   6.816   4.336  13.001
 8304TIP3    H246328   6.719   4.223  13.031
 8305TIP3   OH246329   2.660   2.093  15.076
 8305TIP3    H146330   2.666   2.015  15.022
 8305TIP3    H246331   2.705   2.070  15.157
 8306TIP3   OH246332   0.773   2.661  14.724
 8306TIP3    H146333   0.815   2.575  14.725
 8306TIP3    H246334   0.803   2.701  14.643
 8307TIP3   OH246335   0.386   1.842  11.988
 8307TIP3    H146336   0.478   1.862  11.969
 8307TIP3    H246337   0.338   1.879  11.914
 8308TIP3   OH246338   0.520   2.875  12.190
 8308TIP3    H146339   0.501   2.884  12.284
 8308TIP3    H246340   0.539   2.782  12.179
 8309TIP3   OH246341   4.467   2.706   5.644
 8309TIP3    H146342   4.426   2.682   5.561
 8309TIP3    H246343   4.427   2.790   5.668
 8310TIP3   OH246344   5.461   5.729   2.458
 8310TIP3    H146345   5.432   5.683   2.537
 8310TIP3    H246346   5.552   5.701   2.447
 8311TIP3   OH246347   0.827   5.752   0.873
 8311TIP3    H146348   0.741   5.712   0.861
 8311TIP3    H246349   0.889   5.680   0.858
 8312TIP3   OH246350   4.075   6.095   2.847
 8312TIP3    H146351   4.014   6.126   2.915
 8312TIP3    H246352   4.045   6.006   2.827
 8313TIP3   OH246353   4.992   1.250  11.244
 8313TIP3    H146354   4.970   1.176  11.188
 8313TIP3    H246355   4.948   1.231  11.327
 8314TIP3   OH246356   2.247   6.250   2.785
 8314TIP3    H146357   2.290   6.331   2.810
 8314TIP3    H246358   2.237   6.256   2.690
 8315TIP3   OH246359   2.446   3.171   1.970
 8315TIP3    H146360   2.516   3.232   1.994
 8315TIP3    H246361   2.491   3.087   1.958
 8316TIP3   OH246362   6.045   1.986   2.041
 8316TIP3    H146363   5.952   2.001   2.022
 8316TIP3    H246364   6.075   2.068   2.079
 8317TIP3   OH246365   0.122   0.733   4.019
 8317TIP3    H146366   0.142   0.812   3.970
 8317TIP3    H246367   0.078   0.764   4.098
 8318TIP3   OH246368   5.892   2.274  12.298
 8318TIP3    H146369   5.955   2.234  12.357
 8318TIP3    H246370   5.843   2.335  12.353
 8319TIP3   OH246371   0.544   2.367  16.556
 8319TIP3    H146372   0.532   2.447  16.505
 8319TIP3    H246373   0.474   2.309  16.526
 8320TIP3   OH246374   3.388   0.238  11.520
 8320TIP3    H146375   3.388   0.194  11.605
 8320TIP3    H246376   3.480   0.247  11.497
 8321TIP3   OH246377   0.140   4.988   2.901
 8321TIP3    H146378   0.099   4.987   2.815
 8321TIP3    H246379   0.233   5.004   2.884
 8322TIP3   OH246380   5.122   2.331   1.530
 8322TIP3    H146381   5.096   2.422   1.542
 8322TIP3    H246382   5.045   2.290   1.491
 8323TIP3   OH246383   3.133   5.821  16.453
 8323TIP3    H146384   3.166   5.903  16.490
 8323TIP3    H246385   3.142   5.833  16.358
 8324TIP3   OH246386   3.877   3.387  14.804
 8324TIP3    H146387   3.877   3.482  14.791
 8324TIP3    H246388   3.969   3.366  14.824
 8325TIP3   OH246389   3.768   4.039   4.610
 8325TIP3    H146390   3.760   4.012   4.702
 8325TIP3    H246391   3.678   4.041   4.578
 8326TIP3   OH246392   2.369   1.276   4.717
 8326TIP3    H146393   2.289   1.226   4.702
 8326TIP3    H246394   2.395   1.306   4.630
 8327TIP3   OH246395   5.994   2.056   3.555
 8327TIP3    H146396   5.974   2.127   3.617
 8327TIP3    H246397   5.911   2.012   3.541
 8328TIP3   OH246398   6.263   5.638  11.956
 8328TIP3    H146399   6.238   5.720  11.913
 8328TIP3    H246400   6.238   5.570  11.894
 8329TIP3   OH246401   1.647   5.772   1.255
 8329TIP3    H146402   1.620   5.815   1.174
 8329TIP3    H246403   1.738   5.748   1.240
 8330TIP3   OH246404   1.183   4.834  16.718
 8330TIP3    H146405   1.161   4.794  16.634
 8330TIP3    H246406   1.265   4.879  16.702
 8331TIP3   OH246407   4.861   5.195  13.659
 8331TIP3    H146408   4.816   5.164  13.738
 8331TIP3    H246409   4.953   5.176  13.676
 8332TIP3   OH246410   2.905   0.594  12.561
 8332TIP3    H146411   2.959   0.666  12.594
 8332TIP3    H246412   2.966   0.535  12.518
 8333TIP3   OH246413   2.446   2.655  12.552
 8333TIP3    H146414   2.400   2.639  12.470
 8333TIP3    H246415   2.390   2.617  12.620
 8334TIP3   OH246416   4.002   6.170   5.473
 8334TIP3    H146417   4.069   6.198   5.411
 8334TIP3    H246418   3.920   6.180   5.425
 8335TIP3   OH246419   3.112   4.560  13.893
 8335TIP3    H146420   3.048   4.626  13.870
 8335TIP3    H246421   3.172   4.604  13.954
 8336TIP3   OH246422   5.367   1.264  11.598
 8336TIP3    H146423   5.335   1.218  11.521
 8336TIP3    H246424   5.406   1.194  11.652
 8337TIP3   OH246425   2.279   6.624  16.158
 8337TIP3    H146426   2.252   6.598  16.246
 8337TIP3    H246427   2.372   6.601  16.154
 8338TIP3   OH246428   4.741   1.243   3.323
 8338TIP3    H146429   4.807   1.192   3.370
 8338TIP3    H246430   4.724   1.192   3.243
 8339TIP3   OH246431   1.308   6.782   0.473
 8339TIP3    H146432   1.383   6.808   0.420
 8339TIP3    H246433   1.328   6.692   0.501
 8340TIP3   OH246434   1.634   3.009  15.546
 8340TIP3    H146435   1.588   2.954  15.609
 8340TIP3    H246436   1.725   2.977  15.548
 8341TIP3   OH246437   0.027   2.312  14.042
 8341TIP3    H146438   0.079   2.376  13.993
 8341TIP3    H246439  -0.002   2.249  13.976
 8342TIP3   OH246440   2.203   0.528  14.169
 8342TIP3    H146441   2.159   0.455  14.212
 8342TIP3    H246442   2.229   0.494  14.084
 8343TIP3   OH246443   2.943   5.649  16.763
 8343TIP3    H146444   3.022   5.690  16.729
 8343TIP3    H246445   2.974   5.569  16.805
 8344TIP3   OH246446   1.081   2.832  11.428
 8344TIP3    H146447   1.110   2.907  11.481
 8344TIP3    H246448   1.007   2.796  11.476
 8345TIP3   OH246449   4.534   0.372  10.814
 8345TIP3    H146450   4.538   0.353  10.720
 8345TIP3    H246451   4.499   0.461  10.820
 8346TIP3   OH246452   5.607   1.710  13.233
 8346TIP3    H146453   5.537   1.724  13.296
 8346TIP3    H246454   5.679   1.766  13.262
 8347TIP3   OH246455   1.794   3.427   2.961
 8347TIP3    H146456   1.845   3.346   2.956
 8347TIP3    H246457   1.858   3.496   2.943
 8348TIP3   OH246458   5.559   2.986   4.249
 8348TIP3    H146459   5.597   3.050   4.189
 8348TIP3    H246460   5.470   2.973   4.218
 8349TIP3   OH246461   0.933   4.373   2.906
 8349TIP3    H146462   1.015   4.364   2.857
 8349TIP3    H246463   0.867   4.393   2.839
 8350TIP3   OH246464   1.248   6.640   3.472
 8350TIP3    H146465   1.181   6.595   3.524
 8350TIP3    H246466   1.307   6.571   3.444
 8351TIP3   OH246467   1.878   4.528   6.449
 8351TIP3    H146468   1.837   4.488   6.372
 8351TIP3    H246469   1.816   4.595   6.478
 8352TIP3   OH246470   2.549   1.650   0.160
 8352TIP3    H146471   2.527   1.621   0.249
 8352TIP3    H246472   2.644   1.663   0.161
 8353TIP3   OH246473   2.420   5.791  14.844
 8353TIP3    H146474   2.411   5.774  14.750
 8353TIP3    H246475   2.375   5.874  14.858
 8354TIP3   OH246476   0.287   0.595  17.149
 8354TIP3    H146477   0.277   0.684  17.115
 8354TIP3    H246478   0.297   0.541  17.071
 8355TIP3   OH246479   3.645   1.122  12.034
 8355TIP3    H146480   3.640   1.155  12.124
 8355TIP3    H246481   3.720   1.062  12.035
 8356TIP3   OH246482   0.464   5.989   5.385
 8356TIP3    H146483   0.514   6.068   5.364
 8356TIP3    H246484   0.530   5.922   5.400
 8357TIP3   OH246485   4.071   3.703   4.185
 8357TIP3    H146486   4.028   3.644   4.247
 8357TIP3    H246487   4.153   3.660   4.163
 8358TIP3   OH246488   1.869   4.190   5.178
 8358TIP3    H146489   1.953   4.211   5.219
 8358TIP3    H246490   1.813   4.167   5.252
 8359TIP3   OH246491   1.002   4.117   6.340
 8359TIP3    H146492   1.010   4.030   6.302
 8359TIP3    H246493   1.091   4.139   6.370
 8360TIP3   OH246494   5.870   0.364  13.383
 8360TIP3    H146495   5.824   0.283  13.405
 8360TIP3    H246496   5.849   0.424  13.455
 8361TIP3   OH246497   5.934   2.565  11.948
 8361TIP3    H146498   5.968   2.476  11.942
 8361TIP3    H246499   5.911   2.588  11.858
 8362TIP3   OH246500   5.441   4.783  11.521
 8362TIP3    H146501   5.505   4.853  11.509
 8362TIP3    H246502   5.483   4.721  11.580
 8363TIP3   OH246503   3.713   6.169  14.339
 8363TIP3    H146504   3.784   6.203  14.285
 8363TIP3    H246505   3.662   6.246  14.364
 8364TIP3   OH246506   4.063   0.004   2.355
 8364TIP3    H146507   3.984   0.057   2.352
 8364TIP3    H246508   4.096   0.005   2.265
 8365TIP3   OH246509   6.071   4.682  14.075
 8365TIP3    H146510   5.988   4.635  14.072
 8365TIP3    H246511   6.136   4.618  14.045
 8366TIP3   OH246512   5.342   3.630   4.659
 8366TIP3    H146513   5.285   3.576   4.714
 8366TIP3    H246514   5.288   3.706   4.637
 8367TIP3   OH246515   3.565   4.192  12.656
 8367TIP3    H146516   3.607   4.110  12.631
 8367TIP3    H246517   3.607   4.216  12.739
 8368TIP3   OH246518   5.560   2.740   1.317
 8368TIP3    H146519   5.626   2.759   1.384
 8368TIP3    H246520   5.480   2.782   1.349
 8369TIP3   OH246521   5.855   6.139  12.597
 8369TIP3    H146522   5.940   6.099  12.582
 8369TIP3    H246523   5.821   6.156  12.509
 8370TIP3   OH246524   6.263   5.676   5.041
 8370TIP3    H146525   6.232   5.590   5.012
 8370TIP3    H246526   6.193   5.736   5.015
 8371TIP3   OH246527   2.735   2.025   0.323
 8371TIP3    H146528   2.749   1.967   0.398
 8371TIP3    H246529   2.822   2.058   0.302
 8372TIP3   OH246530   4.576   6.572   2.259
 8372TIP3    H146531   4.671   6.561   2.253
 8372TIP3    H246532   4.564   6.648   2.316
 8373TIP3   OH246533   3.860   5.207   1.926
 8373TIP3    H146534   3.854   5.113   1.909
 8373TIP3    H246535   3.907   5.213   2.009
 8374TIP3   OH246536   5.453   4.788   1.393
 8374TIP3    H146537   5.369   4.759   1.430
 8374TIP3    H246538   5.502   4.707   1.381
 8375TIP3   OH246539   0.373   4.044   0.953
 8375TIP3    H146540   0.367   4.139   0.956
 8375TIP3    H246541   0.460   4.027   0.916
 8376TIP3   OH246542   5.781   5.860  13.575
 8376TIP3    H146543   5.818   5.815  13.651
 8376TIP3    H246544   5.700   5.900  13.607
 8377TIP3   OH246545   1.850   2.775  15.053
 8377TIP3    H146546   1.773   2.728  15.023
 8377TIP3    H246547   1.837   2.787  15.147
 8378TIP3   OH246548   4.386   4.099  11.673
 8378TIP3    H146549   4.308   4.126  11.721
 8378TIP3    H246550   4.434   4.181  11.658
 8379TIP3   OH246551   5.249   4.289  15.743
 8379TIP3    H146552   5.268   4.233  15.817
 8379TIP3    H246553   5.324   4.280  15.685
 8380TIP3   OH246554   4.155   1.327   6.189
 8380TIP3    H146555   4.206   1.355   6.265
 8380TIP3    H246556   4.065   1.355   6.208
 8381TIP3   OH246557   5.478   2.284   0.698
 8381TIP3    H146558   5.436   2.358   0.743
 8381TIP3    H246559   5.414   2.256   0.632
 8382TIP3   OH246560   4.007   5.103  13.933
 8382TIP3    H146561   3.956   5.082  13.855
 8382TIP3    H246562   3.945   5.147  13.991
 8383TIP3   OH246563   4.986   2.136   0.315
 8383TIP3    H146564   4.955   2.048   0.338
 8383TIP3    H246565   5.077   2.123   0.289
 8384TIP3   OH246566   2.310   5.680   3.066
 8384TIP3    H146567   2.350   5.761   3.098
 8384TIP3    H246568   2.225   5.677   3.109
 8385TIP3   OH246569   3.022   1.161  11.721
 8385TIP3    H146570   3.056   1.136  11.635
 8385TIP3    H246571   2.945   1.105  11.734
 8386TIP3   OH246572   6.478   2.548   2.733
 8386TIP3    H146573   6.385   2.546   2.756
 8386TIP3    H246574   6.506   2.456   2.737
 8387TIP3   OH246575   3.102   2.854   3.965
 8387TIP3    H146576   3.159   2.908   4.019
 8387TIP3    H246577   3.021   2.847   4.015
 8388TIP3   OH246578   6.265   0.095   2.758
 8388TIP3    H146579   6.232   0.041   2.830
 8388TIP3    H246580   6.204   0.079   2.687
 8389TIP3   OH246581   4.653   1.063   6.143
 8389TIP3    H146582   4.658   1.132   6.210
 8389TIP3    H246583   4.744   1.040   6.126
 8390TIP3   OH246584   4.207   0.524   2.501
 8390TIP3    H146585   4.130   0.561   2.457
 8390TIP3    H246586   4.231   0.589   2.567
 8391TIP3   OH246587   6.028   3.886  10.812
 8391TIP3    H146588   6.051   3.798  10.844
 8391TIP3    H246589   5.954   3.871  10.753
 8392TIP3   OH246590   6.692   5.095  10.683
 8392TIP3    H146591   6.621   5.134  10.631
 8392TIP3    H246592   6.647   5.048  10.753
 8393TIP3   OH246593   1.326   5.497  14.386
 8393TIP3    H146594   1.320   5.404  14.406
 8393TIP3    H246595   1.342   5.501  14.292
 8394TIP3   OH246596   5.624   4.265   3.876
 8394TIP3    H146597   5.706   4.252   3.924
 8394TIP3    H246598   5.589   4.348   3.908
 8395TIP3   OH246599   6.757   6.672  12.002
 8395TIP3    H146600   6.752   6.705  12.091
 8395TIP3    H246601   6.851   6.673  11.981
 8396TIP3   OH246602   1.123   3.572  13.406
 8396TIP3    H146603   1.105   3.501  13.345
 8396TIP3    H246604   1.116   3.532  13.493
 8397TIP3   OH246605   1.868   0.608  14.466
 8397TIP3    H146606   1.811   0.614  14.543
 8397TIP3    H246607   1.928   0.536  14.487
 8398TIP3   OH246608   5.499   5.436   2.220
 8398TIP3    H146609   5.444   5.454   2.143
 8398TIP3    H246610   5.531   5.347   2.207
 8399TIP3   OH246611   6.291   5.716   0.135
 8399TIP3    H146612   6.308   5.706   0.229
 8399TIP3    H246613   6.374   5.696   0.093
 8400TIP3   OH246614   5.833   2.669  13.482
 8400TIP3    H146615   5.757   2.623  13.519
 8400TIP3    H246616   5.821   2.760  13.508
 8401TIP3   OH246617   0.509   6.670   4.833
 8401TIP3    H146618   0.533   6.605   4.899
 8401TIP3    H246619   0.480   6.618   4.758
 8402TIP3   OH246620   3.089   3.903   5.764
 8402TIP3    H146621   3.130   3.979   5.723
 8402TIP3    H246622   3.000   3.902   5.729
 8403TIP3   OH246623   3.006   6.020  13.207
 8403TIP3    H146624   3.068   6.076  13.254
 8403TIP3    H246625   2.938   6.001  13.272
 8404TIP3   OH246626   2.104   2.557   0.291
 8404TIP3    H146627   2.166   2.558   0.218
 8404TIP3    H246628   2.063   2.643   0.289
 8405TIP3   OH246629   6.449   5.635  11.090
 8405TIP3    H146630   6.507   5.694  11.139
 8405TIP3    H246631   6.387   5.602  11.155
 8406TIP3   OH246632   5.308   3.994  16.794
 8406TIP3    H146633   5.347   4.061  16.849
 8406TIP3    H246634   5.358   3.996  16.712
 8407TIP3   OH246635   5.194   6.778   4.307
 8407TIP3    H146636   5.128   6.732   4.256
 8407TIP3    H246637   5.255   6.813   4.242
 8408TIP3   OH246638   1.699   5.629  11.308
 8408TIP3    H146639   1.785   5.589  11.318
 8408TIP3    H246640   1.638   5.556  11.313
 8409TIP3   OH246641   0.713   3.398  14.499
 8409TIP3    H146642   0.781   3.465  14.502
 8409TIP3    H246643   0.760   3.318  14.471
 8410TIP3   OH246644   2.959   2.533   1.994
 8410TIP3    H146645   3.021   2.582   2.048
 8410TIP3    H246646   2.922   2.467   2.053
 8411TIP3   OH246647   2.964   3.881  16.809
 8411TIP3    H146648   2.945   3.964  16.765
 8411TIP3    H246649   3.058   3.883  16.825
 8412TIP3   OH246650   0.348   2.263  13.696
 8412TIP3    H146651   0.368   2.354  13.719
 8412TIP3    H246652   0.270   2.243  13.748
 8413TIP3   OH246653   1.310   2.214  16.844
 8413TIP3    H146654   1.342   2.303  16.833
 8413TIP3    H246655   1.325   2.195  16.937
 8414TIP3   OH246656   4.850   5.229  11.137
 8414TIP3    H146657   4.777   5.287  11.114
 8414TIP3    H246658   4.918   5.249  11.074
 8415TIP3   OH246659   3.231   1.849  16.635
 8415TIP3    H146660   3.192   1.924  16.679
 8415TIP3    H246661   3.185   1.845  16.550
 8416TIP3   OH246662   0.140   3.822   1.060
 8416TIP3    H146663   0.170   3.816   0.969
 8416TIP3    H246664   0.115   3.914   1.070
 8417TIP3   OH246665   1.159   0.349   3.353
 8417TIP3    H146666   1.072   0.338   3.317
 8417TIP3    H246667   1.217   0.304   3.292
 8418TIP3   OH246668   5.818   3.456   3.134
 8418TIP3    H146669   5.819   3.414   3.220
 8418TIP3    H246670   5.742   3.419   3.089
 8419TIP3   OH246671   3.986   5.179  11.693
 8419TIP3    H146672   3.912   5.137  11.735
 8419TIP3    H246673   3.984   5.269  11.726
 8420TIP3   OH246674   2.686   4.215   6.717
 8420TIP3    H146675   2.735   4.229   6.799
 8420TIP3    H246676   2.751   4.178   6.657
 8421TIP3   OH246677   3.181   0.904  14.097
 8421TIP3    H146678   3.207   0.843  14.027
 8421TIP3    H246679   3.099   0.867  14.131
 8422TIP3   OH246680   0.882   0.010   1.722
 8422TIP3    H146681   0.839  -0.067   1.683
 8422TIP3    H246682   0.842   0.018   1.809
 8423TIP3   OH246683   5.834   5.254   2.272
 8423TIP3    H146684   5.929   5.270   2.267
 8423TIP3    H246685   5.819   5.232   2.364
 8424TIP3   OH246686   4.063   3.253  13.560
 8424TIP3    H146687   3.969   3.233  13.569
 8424TIP3    H246688   4.068   3.308  13.482
 8425TIP3   OH246689   3.312   0.138   0.077
 8425TIP3    H146690   3.303   0.128  -0.018
 8425TIP3    H246691   3.346   0.226   0.089
 8426TIP3   OH246692   5.643   2.521   0.536
 8426TIP3    H146693   5.549   2.502   0.538
 8426TIP3    H246694   5.673   2.505   0.626
 8427TIP3   OH246695   0.356   2.774  13.216
 8427TIP3    H146696   0.361   2.680  13.199
 8427TIP3    H246697   0.263   2.794  13.217
 8428TIP3   OH246698   6.267   0.220  13.601
 8428TIP3    H146699   6.259   0.305  13.558
 8428TIP3    H246700   6.262   0.240  13.695
 8429TIP3   OH246701   1.439   6.717   4.283
 8429TIP3    H146702   1.379   6.684   4.217
 8429TIP3    H246703   1.390   6.786   4.329
 8430TIP3   OH246704   0.935   4.154  14.813
 8430TIP3    H146705   0.971   4.192  14.733
 8430TIP3    H246706   1.012   4.132  14.866
 8431TIP3   OH246707   5.795   1.795   1.236
 8431TIP3    H146708   5.724   1.757   1.185
 8431TIP3    H246709   5.805   1.736   1.310
 8432TIP3   OH246710   1.520   4.423  14.382
 8432TIP3    H146711   1.586   4.493  14.385
 8432TIP3    H246712   1.572   4.342  14.379
 8433TIP3   OH246713   1.070   4.614   4.358
 8433TIP3    H146714   1.129   4.666   4.413
 8433TIP3    H246715   1.127   4.567   4.298
 8434TIP3   OH246716   1.366   0.729  15.823
 8434TIP3    H146717   1.341   0.674  15.749
 8434TIP3    H246718   1.290   0.785  15.838
 8435TIP3   OH246719   5.889   0.843  15.789
 8435TIP3    H146720   5.876   0.915  15.727
 8435TIP3    H246721   5.878   0.884  15.875
 8436TIP3   OH246722   1.035   5.070   2.415
 8436TIP3    H146723   1.018   5.098   2.325
 8436TIP3    H246724   1.041   5.152   2.465
 8437TIP3   OH246725   3.846   0.473   4.737
 8437TIP3    H146726   3.913   0.404   4.732
 8437TIP3    H246727   3.793   0.460   4.658
 8438TIP3   OH246728   5.167   4.454   1.833
 8438TIP3    H146729   5.221   4.490   1.762
 8438TIP3    H246730   5.096   4.517   1.844
 8439TIP3   OH246731   0.216   5.681   5.031
 8439TIP3    H146732   0.263   5.683   4.948
 8439TIP3    H246733   0.146   5.618   5.019
 8440TIP3   OH246734   1.979   4.925  15.752
 8440TIP3    H146735   2.045   4.963  15.694
 8440TIP3    H246736   2.000   4.961  15.838
 8441TIP3   OH246737   5.581   0.305   1.798
 8441TIP3    H146738   5.653   0.294   1.736
 8441TIP3    H246739   5.530   0.224   1.789
 8442TIP3   OH246740   0.200   5.003   3.191
 8442TIP3    H146741   0.181   5.010   3.097
 8442TIP3    H246742   0.296   5.009   3.196
 8443TIP3   OH246743   2.852   1.810   1.155
 8443TIP3    H146744   2.870   1.828   1.063
 8443TIP3    H246745   2.763   1.777   1.156
 8444TIP3   OH246746   0.072   5.267   3.321
 8444TIP3    H146747   0.044   5.297   3.407
 8444TIP3    H246748  -0.003   5.220   3.286
 8445TIP3   OH246749   4.388   2.147  10.987
 8445TIP3    H146750   4.377   2.160  10.892
 8445TIP3    H246751   4.471   2.101  10.995
 8446TIP3   OH246752   0.072   5.538  14.654
 8446TIP3    H146753   0.157   5.581  14.665
 8446TIP3    H246754   0.026   5.592  14.591
 8447TIP3   OH246755   1.408   5.337   1.773
 8447TIP3    H146756   1.379   5.246   1.776
 8447TIP3    H246757   1.410   5.359   1.680
 8448TIP3   OH246758   6.409   1.597   0.268
 8448TIP3    H146759   6.475   1.608   0.336
 8448TIP3    H246760   6.452   1.624   0.187
 8449TIP3   OH246761   5.378   1.417   3.483
 8449TIP3    H146762   5.319   1.423   3.559
 8449TIP3    H246763   5.454   1.369   3.516
 8450TIP3   OH246764   4.912   2.232   6.693
 8450TIP3    H146765   4.892   2.310   6.745
 8450TIP3    H246766   5.002   2.245   6.662
 8451TIP3   OH246767   5.419   6.508  14.823
 8451TIP3    H146768   5.403   6.419  14.854
 8451TIP3    H246769   5.437   6.558  14.902
 8452TIP3   OH246770   6.185   0.690   3.381
 8452TIP3    H146771   6.094   0.692   3.353
 8452TIP3    H246772   6.204   0.780   3.408
 8453TIP3   OH246773   5.680   5.461   1.376
 8453TIP3    H146774   5.657   5.524   1.308
 8453TIP3    H246775   5.618   5.389   1.365
 8454TIP3   OH246776   3.257   5.860  10.814
 8454TIP3    H146777   3.289   5.949  10.799
 8454TIP3    H246778   3.313   5.805  10.759
 8455TIP3   OH246779   1.318   6.013   3.498
 8455TIP3    H146780   1.317   6.089   3.440
 8455TIP3    H246781   1.229   5.978   3.492
 8456TIP3   OH246782   6.754   0.686   0.951
 8456TIP3    H146783   6.760   0.701   0.856
 8456TIP3    H246784   6.690   0.751   0.981
 8457TIP3   OH246785   3.949   0.573   3.142
 8457TIP3    H146786   3.960   0.489   3.096
 8457TIP3    H246787   3.981   0.555   3.231
 8458TIP3   OH246788   0.887   0.284   3.277
 8458TIP3    H146789   0.834   0.235   3.214
 8458TIP3    H246790   0.823   0.325   3.336
 8459TIP3   OH246791   5.398   2.201   2.075
 8459TIP3    H146792   5.338   2.128   2.091
 8459TIP3    H246793   5.366   2.271   2.132
 8460TIP3   OH246794   4.061   5.607   0.007
 8460TIP3    H146795   4.007   5.678  -0.028
 8460TIP3    H246796   4.142   5.610  -0.044
 8461TIP3   OH246797   3.085   5.674  15.516
 8461TIP3    H146798   3.088   5.717  15.430
 8461TIP3    H246799   3.006   5.707  15.557
 8462TIP3   OH246800   4.071   4.298  15.430
 8462TIP3    H146801   4.104   4.387  15.447
 8462TIP3    H246802   4.085   4.286  15.336
 8463TIP3   OH246803   3.300   2.574  13.067
 8463TIP3    H146804   3.246   2.644  13.029
 8463TIP3    H246805   3.384   2.616  13.085
 8464TIP3   OH246806   2.869   6.187   1.861
 8464TIP3    H146807   2.938   6.169   1.924
 8464TIP3    H246808   2.916   6.214   1.782
 8465TIP3   OH246809   2.403   5.606   2.019
 8465TIP3    H146810   2.496   5.609   1.998
 8465TIP3    H246811   2.364   5.674   1.965
 8466TIP3   OH246812   0.759   5.988  13.830
 8466TIP3    H146813   0.797   6.075  13.838
 8466TIP3    H246814   0.738   5.962  13.920
 8467TIP3   OH246815   3.174   1.752   4.450
 8467TIP3    H146816   3.196   1.703   4.529
 8467TIP3    H246817   3.256   1.755   4.400
 8468TIP3   OH246818   1.408   6.571  12.760
 8468TIP3    H146819   1.398   6.476  12.770
 8468TIP3    H246820   1.319   6.604  12.754
 8469TIP3   OH246821   6.575   2.048  14.807
 8469TIP3    H146822   6.519   2.087  14.740
 8469TIP3    H246823   6.633   1.990  14.758
 8470TIP3   OH246824   6.329   0.835   4.632
 8470TIP3    H146825   6.400   0.776   4.608
 8470TIP3    H246826   6.264   0.778   4.675
 8471TIP3   OH246827   6.121   2.187  12.561
 8471TIP3    H146828   6.169   2.224  12.635
 8471TIP3    H246829   6.029   2.197  12.585
 8472TIP3   OH246830   3.341   4.528  15.003
 8472TIP3    H146831   3.262   4.561  15.046
 8472TIP3    H246832   3.403   4.514  15.074
 8473TIP3   OH246833   4.099   5.064  16.617
 8473TIP3    H146834   4.034   5.103  16.558
 8473TIP3    H246835   4.160   5.020  16.559
 8474TIP3   OH246836   5.980   5.023  10.160
 8474TIP3    H146837   6.060   5.002  10.112
 8474TIP3    H246838   5.964   5.115  10.142
 8475TIP3   OH246839   3.124   2.080  16.756
 8475TIP3    H146840   3.200   2.138  16.762
 8475TIP3    H246841   3.051   2.138  16.734
 8476TIP3   OH246842   2.333   0.477  16.628
 8476TIP3    H146843   2.406   0.506  16.574
 8476TIP3    H246844   2.350   0.384  16.645
 8477TIP3   OH246845   3.750   1.453  15.563
 8477TIP3    H146846   3.751   1.502  15.481
 8477TIP3    H246847   3.707   1.370  15.540
 8478TIP3   OH246848   5.466   3.853  12.406
 8478TIP3    H146849   5.460   3.778  12.466
 8478TIP3    H246850   5.552   3.891  12.425
 8479TIP3   OH246851   2.328   2.138   5.810
 8479TIP3    H146852   2.394   2.195   5.850
 8479TIP3    H246853   2.252   2.194   5.798
 8480TIP3   OH246854   3.734   2.083  11.448
 8480TIP3    H146855   3.828   2.099  11.439
 8480TIP3    H246856   3.694   2.140  11.383
 8481TIP3   OH246857   0.604   3.699   2.921
 8481TIP3    H146858   0.569   3.788   2.923
 8481TIP3    H246859   0.695   3.709   2.892
 8482TIP3   OH246860   1.238   0.151  10.384
 8482TIP3    H146861   1.260   0.244  10.375
 8482TIP3    H246862   1.144   0.147  10.367
 8483TIP3   OH246863   2.168   2.021   2.906
 8483TIP3    H146864   2.138   1.931   2.916
 8483TIP3    H246865   2.123   2.053   2.828
 8484TIP3   OH246866   4.341   3.555   4.145
 8484TIP3    H146867   4.364   3.541   4.237
 8484TIP3    H246868   4.389   3.487   4.098
 8485TIP3   OH246869   3.555   2.553   2.814
 8485TIP3    H146870   3.531   2.625   2.872
 8485TIP3    H246871   3.645   2.572   2.787
 8486TIP3   OH246872   6.571   3.114  15.762
 8486TIP3    H146873   6.590   3.183  15.826
 8486TIP3    H246874   6.615   3.142  15.682
 8487TIP3   OH246875   3.617   1.934  14.981
 8487TIP3    H146876   3.582   1.899  14.899
 8487TIP3    H246877   3.712   1.935  14.968
 8488TIP3   OH246878   1.109   5.005  15.679
 8488TIP3    H146879   1.167   5.001  15.603
 8488TIP3    H246880   1.023   5.026  15.642
 8489TIP3   OH246881   2.645   5.793   5.530
 8489TIP3    H146882   2.706   5.721   5.517
 8489TIP3    H246883   2.698   5.862   5.571
 8490TIP3   OH246884   1.401   2.473  16.808
 8490TIP3    H146885   1.307   2.491  16.813
 8490TIP3    H246886   1.438   2.554  16.773
 8491TIP3   OH246887   4.376   6.365   4.395
 8491TIP3    H146888   4.446   6.430   4.400
 8491TIP3    H246889   4.297   6.414   4.419
 8492TIP3   OH246890   1.288   1.848   5.898
 8492TIP3    H146891   1.348   1.919   5.924
 8492TIP3    H246892   1.248   1.819   5.980
 8493TIP3   OH246893   6.245   3.467   1.254
 8493TIP3    H146894   6.254   3.453   1.348
 8493TIP3    H246895   6.156   3.437   1.234
 8494TIP3   OH246896   4.161   6.048  17.190
 8494TIP3    H146897   4.201   6.097  17.118
 8494TIP3    H246898   4.236   6.015  17.240
 8495TIP3   OH246899   6.331   5.918   1.665
 8495TIP3    H146900   6.253   5.920   1.721
 8495TIP3    H246901   6.392   5.978   1.708
 8496TIP3   OH246902   3.241   4.599  16.883
 8496TIP3    H146903   3.277   4.514  16.857
 8496TIP3    H246904   3.249   4.654  16.806
 8497TIP3   OH246905   3.895   0.824   6.635
 8497TIP3    H146906   3.811   0.798   6.598
 8497TIP3    H246907   3.917   0.754   6.697
 8498TIP3   OH246908   3.008   4.723   6.046
 8498TIP3    H146909   3.044   4.687   6.127
 8498TIP3    H246910   2.917   4.742   6.067
 8499TIP3   OH246911   6.532   1.488   1.663
 8499TIP3    H146912   6.593   1.438   1.610
 8499TIP3    H246913   6.475   1.423   1.704
 8500TIP3   OH246914   3.338   2.444   3.190
 8500TIP3    H146915   3.353   2.516   3.251
 8500TIP3    H246916   3.301   2.487   3.112
 8501TIP3   OH246917   1.537   2.785  13.283
 8501TIP3    H146918   1.609   2.823  13.233
 8501TIP3    H246919   1.480   2.859  13.303
 8502TIP3   OH246920   1.537   6.705   0.757
 8502TIP3    H146921   1.528   6.621   0.803
 8502TIP3    H246922   1.589   6.683   0.679
 8503TIP3   OH246923   6.725   5.096  11.896
 8503TIP3    H146924   6.629   5.092  11.890
 8503TIP3    H246925   6.742   5.139  11.980
 8504TIP3   OH246926   4.859   4.282  12.665
 8504TIP3    H146927   4.811   4.222  12.608
 8504TIP3    H246928   4.937   4.305  12.615
 8505TIP3   OH246929   6.580   2.647  16.761
 8505TIP3    H146930   6.654   2.627  16.704
 8505TIP3    H246931   6.542   2.726  16.724
 8506TIP3   OH246932   5.837   1.687   5.534
 8506TIP3    H146933   5.856   1.596   5.513
 8506TIP3    H246934   5.866   1.698   5.624
 8507TIP3   OH246935   2.052   2.029   0.351
 8507TIP3    H146936   1.970   1.994   0.315
 8507TIP3    H246937   2.110   1.953   0.356
 8508TIP3   OH246938   5.645   3.646   2.801
 8508TIP3    H146939   5.716   3.585   2.782
 8508TIP3    H246940   5.573   3.618   2.745
 8509TIP3   OH246941   4.955   1.530   5.957
 8509TIP3    H146942   4.969   1.444   5.996
 8509TIP3    H246943   4.937   1.587   6.032
 8510TIP3   OH246944   5.231   0.560   0.012
 8510TIP3    H146945   5.254   0.481   0.061
 8510TIP3    H246946   5.288   0.628   0.049
 8511TIP3   OH246947   2.662   2.508  15.374
 8511TIP3    H146948   2.627   2.419  15.381
 8511TIP3    H246949   2.687   2.530  15.464
 8512TIP3   OH246950   2.426   0.855  13.527
 8512TIP3    H146951   2.458   0.942  13.550
 8512TIP3    H246952   2.338   0.852  13.563
 8513TIP3   OH246953   2.596   0.405  10.732
 8513TIP3    H146954   2.553   0.474  10.783
 8513TIP3    H246955   2.594   0.329  10.789
 8514TIP3   OH246956   6.548   1.279  15.839
 8514TIP3    H146957   6.597   1.200  15.862
 8514TIP3    H246958   6.580   1.346  15.899
 8515TIP3   OH246959   6.169   0.665  14.692
 8515TIP3    H146960   6.200   0.603  14.758
 8515TIP3    H246961   6.209   0.748  14.715
 8516TIP3   OH246962   5.416   6.597   3.919
 8516TIP3    H146963   5.380   6.641   3.997
 8516TIP3    H246964   5.365   6.632   3.846
 8517TIP3   OH246965   3.907   0.733   1.910
 8517TIP3    H146966   3.981   0.787   1.939
 8517TIP3    H246967   3.851   0.794   1.862
 8518TIP3   OH246968   5.709   1.468   6.158
 8518TIP3    H146969   5.659   1.539   6.198
 8518TIP3    H246970   5.788   1.510   6.125
 8519TIP3   OH246971   2.175   1.117   4.993
 8519TIP3    H146972   2.109   1.186   4.998
 8519TIP3    H246973   2.168   1.084   4.903
 8520TIP3   OH246974   3.853   3.710  12.258
 8520TIP3    H146975   3.873   3.642  12.323
 8520TIP3    H246976   3.937   3.753  12.242
 8521TIP3   OH246977   4.759   0.698   4.249
 8521TIP3    H146978   4.680   0.691   4.196
 8521TIP3    H246979   4.729   0.687   4.339
 8522TIP3   OH246980   3.478   2.007   0.291
 8522TIP3    H146981   3.470   1.934   0.229
 8522TIP3    H246982   3.541   1.976   0.357
 8523TIP3   OH246983   4.308   0.614  17.172
 8523TIP3    H146984   4.245   0.542  17.165
 8523TIP3    H246985   4.264   0.679  17.226
 8524TIP3   OH246986   4.165   6.668  14.639
 8524TIP3    H146987   4.238   6.606  14.639
 8524TIP3    H246988   4.203   6.750  14.671
 8525TIP3   OH246989   2.496   0.954   1.271
 8525TIP3    H146990   2.419   0.907   1.241
 8525TIP3    H246991   2.486   0.961   1.365
 8526TIP3   OH246992   2.227   0.957   0.173
 8526TIP3    H146993   2.174   1.032   0.198
 8526TIP3    H246994   2.180   0.916   0.101
 8527TIP3   OH246995   4.464   1.246   2.234
 8527TIP3    H146996   4.408   1.263   2.310
 8527TIP3    H246997   4.428   1.300   2.164
 8528TIP3   OH246998   2.478   2.004  13.498
 8528TIP3    H146999   2.512   2.079  13.448
 8528TIP3    H247000   2.440   1.947  13.432
 8529TIP3   OH247001   4.379   4.037   7.003
 8529TIP3    H147002   4.349   4.030   6.912
 8529TIP3    H247003   4.351   4.124   7.031
 8530TIP3   OH247004   3.549   4.986  17.016
 8530TIP3    H147005   3.570   4.926  16.945
 8530TIP3    H247006   3.556   4.932  17.095
 8531TIP3   OH247007   0.828   0.817   0.392
 8531TIP3    H147008   0.912   0.861   0.401
 8531TIP3    H247009   0.819   0.766   0.472
 8532TIP3   OH247010   5.728   2.111   2.061
 8532TIP3    H147011   5.667   2.159   2.116
 8532TIP3    H247012   5.790   2.177   2.030
 8533TIP3   OH247013   5.936   2.340   3.658
 8533TIP3    H147014   5.953   2.404   3.728
 8533TIP3    H247015   5.883   2.273   3.701
 8534TIP3   OH247016   0.048   0.868   5.997
 8534TIP3    H147017   0.015   0.865   6.087
 8534TIP3    H247018  -0.000   0.798   5.952
 8535TIP3   OH247019   0.787   3.325   5.624
 8535TIP3    H147020   0.805   3.232   5.610
 8535TIP3    H247021   0.741   3.353   5.545
 8536TIP3   OH247022   6.115   5.918  13.858
 8536TIP3    H147023   6.065   5.839  13.876
 8536TIP3    H247024   6.109   5.969  13.939
 8537TIP3   OH247025   5.163   5.943   4.679
 8537TIP3    H147026   5.105   5.939   4.755
 8537TIP3    H247027   5.105   5.931   4.604
 8538TIP3   OH247028   0.338   0.274   4.521
 8538TIP3    H147029   0.294   0.234   4.446
 8538TIP3    H247030   0.412   0.216   4.539
 8539TIP3   OH247031   1.396   2.729   3.191
 8539TIP3    H147032   1.411   2.745   3.098
 8539TIP3    H247033   1.456   2.659   3.214
 8540TIP3   OH247034   2.256   4.569  12.644
 8540TIP3    H147035   2.221   4.538  12.560
 8540TIP3    H247036   2.344   4.531  12.649
 8541TIP3   OH247037   3.193   0.798  13.674
 8541TIP3    H147038   3.161   0.881  13.709
 8541TIP3    H247039   3.179   0.735  13.744
 8542TIP3   OH247040   6.785   0.895   4.802
 8542TIP3    H147041   6.825   0.811   4.828
 8542TIP3    H247042   6.724   0.915   4.873
 8543TIP3   OH247043   2.179   3.857   0.423
 8543TIP3    H147044   2.123   3.906   0.483
 8543TIP3    H247045   2.140   3.770   0.420
 8544TIP3   OH247046   3.721   5.678  15.661
 8544TIP3    H147047   3.815   5.693  15.650
 8544TIP3    H247048   3.684   5.694  15.574
 8545TIP3   OH247049   4.147   1.017  11.175
 8545TIP3    H147050   4.074   0.988  11.120
 8545TIP3    H247051   4.197   1.076  11.119
 8546TIP3   OH247052   5.451   5.356  12.264
 8546TIP3    H147053   5.502   5.390  12.190
 8546TIP3    H247054   5.431   5.266  12.239
 8547TIP3   OH247055   4.717   1.822   2.203
 8547TIP3    H147056   4.712   1.727   2.218
 8547TIP3    H247057   4.809   1.843   2.216
 8548TIP3   OH247058   4.291   5.000   1.429
 8548TIP3    H147059   4.301   5.096   1.431
 8548TIP3    H247060   4.373   4.968   1.393
 8549TIP3   OH247061   2.654   6.461   1.608
 8549TIP3    H147062   2.729   6.425   1.562
 8549TIP3    H247063   2.616   6.524   1.547
 8550TIP3   OH247064   5.590   2.714   3.952
 8550TIP3    H147065   5.578   2.720   4.047
 8550TIP3    H247066   5.536   2.639   3.926
 8551TIP3   OH247067   4.875   2.677   3.356
 8551TIP3    H147068   4.959   2.635   3.339
 8551TIP3    H247069   4.896   2.753   3.411
 8552TIP3   OH247070   5.749   2.240   0.555
 8552TIP3    H147071   5.697   2.269   0.629
 8552TIP3    H247072   5.686   2.227   0.485
 8553TIP3   OH247073   5.441   3.593  14.598
 8553TIP3    H147074   5.478   3.508  14.575
 8553TIP3    H247075   5.505   3.656  14.566
 8554TIP3   OH247076   3.307   1.714  12.953
 8554TIP3    H147077   3.252   1.758  13.017
 8554TIP3    H247078   3.390   1.761  12.956
 8555TIP3   OH247079   4.177   1.001  14.953
 8555TIP3    H147080   4.264   1.041  14.956
 8555TIP3    H247081   4.129   1.052  14.888
 8556TIP3   OH247082   4.694   3.913   3.031
 8556TIP3    H147083   4.648   3.991   3.001
 8556TIP3    H247084   4.698   3.923   3.126
 8557TIP3   OH247085   6.220   5.985  15.054
 8557TIP3    H147086   6.261   6.034  14.982
 8557TIP3    H247087   6.225   5.894  15.026
 8558TIP3   OH247088   1.689   1.584  12.543
 8558TIP3    H147089   1.670   1.678  12.550
 8558TIP3    H247090   1.704   1.556  12.633
 8559TIP3   OH247091   0.156   4.982  10.547
 8559TIP3    H147092   0.064   5.003  10.562
 8559TIP3    H247093   0.202   5.065  10.559
 8560TIP3   OH247094   6.660   3.607   2.483
 8560TIP3    H147095   6.687   3.526   2.439
 8560TIP3    H247096   6.742   3.656   2.494
 8561TIP3   OH247097   5.446   4.780  14.329
 8561TIP3    H147098   5.532   4.738  14.332
 8561TIP3    H247099   5.393   4.732  14.392
 8562TIP3   OH247100   5.852   6.783   1.087
 8562TIP3    H147101   5.869   6.769   0.993
 8562TIP3    H247102   5.916   6.728   1.131
 8563TIP3   OH247103   4.726   2.428  15.018
 8563TIP3    H147104   4.680   2.475  14.948
 8563TIP3    H247105   4.813   2.412  14.984
 8564TIP3   OH247106   6.235   2.581  12.177
 8564TIP3    H147107   6.189   2.573  12.261
 8564TIP3    H247108   6.325   2.601  12.201
 8565TIP3   OH247109   0.867   5.005   6.389
 8565TIP3    H147110   0.833   5.081   6.341
 8565TIP3    H247111   0.959   5.000   6.364
 8566TIP3   OH247112   3.583   1.586  15.055
 8566TIP3    H147113   3.585   1.534  14.975
 8566TIP3    H247114   3.668   1.630  15.058
 8567TIP3   OH247115   3.679   5.216  15.789
 8567TIP3    H147116   3.702   5.300  15.750
 8567TIP3    H247117   3.729   5.213  15.871
 8568TIP3   OH247118   5.674   6.762  15.865
 8568TIP3    H147119   5.665   6.787  15.773
 8568TIP3    H247120   5.594   6.794  15.907
 8569TIP3   OH247121   4.783   4.009   0.747
 8569TIP3    H147122   4.709   4.005   0.686
 8569TIP3    H247123   4.747   3.978   0.830
 8570TIP3   OH247124   2.851   0.429  14.115
 8570TIP3    H147125   2.900   0.492  14.168
 8570TIP3    H247126   2.876   0.344  14.151
 8571TIP3   OH247127   3.054   2.997   2.197
 8571TIP3    H147128   3.108   2.940   2.251
 8571TIP3    H247129   3.114   3.064   2.164
 8572TIP3   OH247130   0.596   3.675  14.473
 8572TIP3    H147131   0.679   3.627  14.473
 8572TIP3    H247132   0.529   3.606  14.472
 8573TIP3   OH247133   5.423   2.295  16.565
 8573TIP3    H147134   5.329   2.297  16.582
 8573TIP3    H247135   5.431   2.261  16.476
 8574TIP3   OH247136   5.254   3.328   3.776
 8574TIP3    H147137   5.174   3.362   3.814
 8574TIP3    H247138   5.300   3.287   3.849
 8575TIP3   OH247139   4.231   6.125   0.825
 8575TIP3    H147140   4.275   6.209   0.838
 8575TIP3    H247141   4.140   6.142   0.850
 8576TIP3   OH247142   0.448   5.386  12.127
 8576TIP3    H147143   0.536   5.370  12.093
 8576TIP3    H247144   0.458   5.389  12.222
 8577TIP3   OH247145   5.754   1.282  16.219
 8577TIP3    H147146   5.834   1.324  16.189
 8577TIP3    H247147   5.684   1.342  16.194
 8578TIP3   OH247148   5.459   2.391  15.265
 8578TIP3    H147149   5.530   2.417  15.207
 8578TIP3    H247150   5.472   2.444  15.344
 8579TIP3   OH247151   2.736   3.493  13.722
 8579TIP3    H147152   2.796   3.423  13.748
 8579TIP3    H247153   2.790   3.552  13.669
 8580TIP3   OH247154   3.990   4.679   4.359
 8580TIP3    H147155   3.934   4.602   4.362
 8580TIP3    H247156   3.949   4.742   4.418
 8581TIP3   OH247157   3.454   6.444  12.058
 8581TIP3    H147158   3.390   6.494  12.008
 8581TIP3    H247159   3.404   6.373  12.097
 8582TIP3   OH247160   3.227   4.532  13.397
 8582TIP3    H147161   3.250   4.511  13.307
 8582TIP3    H247162   3.152   4.476  13.417
 8583TIP3   OH247163   3.093   1.130   1.169
 8583TIP3    H147164   3.031   1.059   1.188
 8583TIP3    H247165   3.038   1.208   1.162
 8584TIP3   OH247166   6.710   2.080  12.176
 8584TIP3    H147167   6.778   2.143  12.154
 8584TIP3    H247168   6.716   2.070  12.271
 8585TIP3   OH247169   4.146   2.325   3.375
 8585TIP3    H147170   4.153   2.394   3.308
 8585TIP3    H247171   4.084   2.263   3.337
 8586TIP3   OH247172   0.306   4.840  15.802
 8586TIP3    H147173   0.286   4.756  15.843
 8586TIP3    H247174   0.295   4.825  15.708
 8587TIP3   OH247175   4.016   5.231  15.094
 8587TIP3    H147176   4.053   5.150  15.060
 8587TIP3    H247177   3.948   5.255  15.030
 8588TIP3   OH247178   3.621   6.713  16.474
 8588TIP3    H147179   3.581   6.690  16.390
 8588TIP3    H247180   3.624   6.808  16.475
 8589TIP3   OH247181   4.432   1.583   3.838
 8589TIP3    H147182   4.511   1.633   3.859
 8589TIP3    H247183   4.368   1.610   3.904
 8590TIP3   OH247184   1.518   0.495   5.339
 8590TIP3    H147185   1.424   0.512   5.343
 8590TIP3    H247186   1.528   0.428   5.271
 8591TIP3   OH247187   5.001   0.946  15.593
 8591TIP3    H147188   5.075   0.886  15.595
 8591TIP3    H247189   4.982   0.964  15.685
 8592TIP3   OH247190   0.225   5.528  11.695
 8592TIP3    H147191   0.294   5.481  11.742
 8592TIP3    H247192   0.217   5.611  11.741
 8593TIP3   OH247193   5.342   3.319   5.066
 8593TIP3    H147194   5.384   3.402   5.045
 8593TIP3    H247195   5.395   3.283   5.137
 8594TIP3   OH247196   4.121   4.030   3.242
 8594TIP3    H147197   4.106   3.973   3.317
 8594TIP3    H247198   4.201   3.997   3.202
 8595TIP3   OH247199   0.272   2.191   4.891
 8595TIP3    H147200   0.330   2.262   4.919
 8595TIP3    H247201   0.272   2.129   4.963
 8596TIP3   OH247202   0.436   1.242   2.203
 8596TIP3    H147203   0.489   1.282   2.272
 8596TIP3    H247204   0.471   1.279   2.122
 8597TIP3   OH247205   2.253   4.136  11.238
 8597TIP3    H147206   2.248   4.055  11.188
 8597TIP3    H247207   2.347   4.156  11.243
 8598TIP3   OH247208   2.705   2.760   5.275
 8598TIP3    H147209   2.725   2.670   5.302
 8598TIP3    H247210   2.747   2.815   5.341
 8599TIP3   OH247211   3.871   1.098   2.408
 8599TIP3    H147212   3.923   1.032   2.455
 8599TIP3    H247213   3.787   1.055   2.392
 8600TIP3   OH247214   6.393   0.913  16.943
 8600TIP3    H147215   6.401   1.006  16.962
 8600TIP3    H247216   6.428   0.870  17.021
 8601TIP3   OH247217   5.612   4.878   1.081
 8601TIP3    H147218   5.582   4.787   1.084
 8601TIP3    H247219   5.646   4.889   0.992
 8602TIP3   OH247220   3.158   5.018  15.127
 8602TIP3    H147221   3.105   5.006  15.205
 8602TIP3    H247222   3.139   4.941  15.073
 8603TIP3   OH247223   5.819   4.181   5.788
 8603TIP3    H147224   5.731   4.146   5.800
 8603TIP3    H247225   5.874   4.131   5.849
 8604TIP3   OH247226   0.275   6.371   0.507
 8604TIP3    H147227   0.238   6.429   0.573
 8604TIP3    H247228   0.370   6.377   0.519
 8605TIP3   OH247229   1.602   3.898  15.408
 8605TIP3    H147230   1.654   3.956  15.353
 8605TIP3    H247231   1.512   3.931  15.399
 8606TIP3   OH247232   1.008   0.444   0.087
 8606TIP3    H147233   1.088   0.401   0.056
 8606TIP3    H247234   1.039   0.517   0.141
 8607TIP3   OH247235   1.238   2.022  14.684
 8607TIP3    H147236   1.318   1.973  14.668
 8607TIP3    H247237   1.237   2.038  14.778
 8608TIP3   OH247238   1.913   2.083   3.243
 8608TIP3    H147239   1.863   2.007   3.213
 8608TIP3    H247240   1.898   2.086   3.337
 8609TIP3   OH247241   6.005   6.169  10.508
 8609TIP3    H147242   5.977   6.187  10.598
 8609TIP3    H247243   5.946   6.222  10.454
 8610TIP3   OH247244   6.090   1.511  14.927
 8610TIP3    H147245   6.035   1.526  14.849
 8610TIP3    H247246   6.112   1.599  14.957
 8611TIP3   OH247247   0.398   6.003  10.788
 8611TIP3    H147248   0.347   6.063  10.843
 8611TIP3    H247249   0.377   6.028  10.698
 8612TIP3   OH247250   3.346   3.605  11.265
 8612TIP3    H147251   3.334   3.633  11.174
 8612TIP3    H247252   3.438   3.579  11.270
 8613TIP3   OH247253   6.166   3.929   6.505
 8613TIP3    H147254   6.117   4.011   6.518
 8613TIP3    H247255   6.256   3.951   6.531
 8614TIP3   OH247256   6.264   6.660   2.422
 8614TIP3    H147257   6.302   6.637   2.338
 8614TIP3    H247258   6.339   6.682   2.477
 8615TIP3   OH247259   2.509   0.095   0.036
 8615TIP3    H147260   2.437   0.154   0.058
 8615TIP3    H247261   2.552   0.136  -0.039
 8616TIP3   OH247262   0.018   2.153  12.415
 8616TIP3    H147263  -0.047   2.197  12.470
 8616TIP3    H247264   0.087   2.218  12.403
 8617TIP3   OH247265   1.958   2.978   4.962
 8617TIP3    H147266   1.924   3.022   4.884
 8617TIP3    H247267   2.045   3.016   4.974
 8618TIP3   OH247268   2.925   1.738   3.063
 8618TIP3    H147269   2.998   1.761   3.006
 8618TIP3    H247270   2.936   1.794   3.140
 8619TIP3   OH247271   1.630   6.109   4.189
 8619TIP3    H147272   1.711   6.063   4.208
 8619TIP3    H247273   1.613   6.092   4.096
 8620TIP3   OH247274   3.884   1.800  11.240
 8620TIP3    H147275   3.946   1.867  11.209
 8620TIP3    H247276   3.934   1.719  11.236
 8621TIP3   OH247277   0.153   6.787   3.403
 8621TIP3    H147278   0.136   6.850   3.334
 8621TIP3    H247279   0.186   6.710   3.357
 8622TIP3   OH247280   2.834   0.970   2.628
 8622TIP3    H147281   2.896   0.968   2.555
 8622TIP3    H247282   2.886   1.002   2.703
 8623TIP3   OH247283   6.579   2.625  14.905
 8623TIP3    H147284   6.673   2.635  14.919
 8623TIP3    H247285   6.570   2.551  14.845
 8624TIP3   OH247286   3.175   3.910   5.336
 8624TIP3    H147287   3.241   3.868   5.391
 8624TIP3    H247288   3.127   3.967   5.395
 8625TIP3   OH247289   1.422   4.323  14.632
 8625TIP3    H147290   1.510   4.320  14.670
 8625TIP3    H247291   1.427   4.389  14.564
 8626TIP3   OH247292   1.734   5.325   5.126
 8626TIP3    H147293   1.703   5.271   5.053
 8626TIP3    H247294   1.828   5.308   5.129
 8627TIP3   OH247295   6.134   6.293  12.899
 8627TIP3    H147296   6.135   6.232  12.974
 8627TIP3    H247297   6.058   6.348  12.914
 8628TIP3   OH247298   5.166   4.299  16.581
 8628TIP3    H147299   5.117   4.341  16.511
 8628TIP3    H247300   5.180   4.209  16.552
 8629TIP3   OH247301   4.554   1.085   3.122
 8629TIP3    H147302   4.475   1.127   3.088
 8629TIP3    H247303   4.557   1.001   3.077
 8630TIP3   OH247304   2.127   5.570  13.656
 8630TIP3    H147305   2.151   5.518  13.579
 8630TIP3    H247306   2.198   5.555  13.718
 8631TIP3   OH247307   2.033   0.696   4.537
 8631TIP3    H147308   2.014   0.644   4.615
 8631TIP3    H247309   2.061   0.632   4.472
 8632TIP3   OH247310   4.289   4.531   4.155
 8632TIP3    H147311   4.324   4.591   4.090
 8632TIP3    H247312   4.356   4.463   4.164
 8633TIP3   OH247313   1.088   4.093   2.141
 8633TIP3    H147314   1.146   4.128   2.074
 8633TIP3    H247315   1.000   4.122   2.114
 8634TIP3   OH247316   1.020   1.985  11.097
 8634TIP3    H147317   1.078   1.991  11.172
 8634TIP3    H247318   0.937   2.019  11.128
 8635TIP3   OH247319   4.060   2.242  14.778
 8635TIP3    H147320   3.974   2.281  14.761
 8635TIP3    H247321   4.121   2.298  14.730
 8636TIP3   OH247322   2.833   2.440   4.745
 8636TIP3    H147323   2.918   2.465   4.782
 8636TIP3    H247324   2.835   2.344   4.744
 8637TIP3   OH247325   3.704   5.334  12.290
 8637TIP3    H147326   3.608   5.331  12.291
 8637TIP3    H247327   3.729   5.318  12.381
 8638TIP3   OH247328   4.161   5.106   1.058
 8638TIP3    H147329   4.068   5.100   1.038
 8638TIP3    H247330   4.181   5.026   1.105
 8639TIP3   OH247331   3.103   1.378   2.740
 8639TIP3    H147332   3.063   1.465   2.747
 8639TIP3    H247333   3.090   1.339   2.826
 8640TIP3   OH247334   1.514   6.464  14.860
 8640TIP3    H147335   1.480   6.376  14.844
 8640TIP3    H247336   1.436   6.520  14.860
 8641TIP3   OH247337   3.410   4.823   0.233
 8641TIP3    H147338   3.477   4.884   0.204
 8641TIP3    H247339   3.432   4.805   0.324
 8642TIP3   OH247340   5.584   2.601   2.436
 8642TIP3    H147341   5.550   2.685   2.465
 8642TIP3    H247342   5.674   2.620   2.410
 8643TIP3   OH247343   6.570   1.976   3.745
 8643TIP3    H147344   6.509   1.975   3.671
 8643TIP3    H247345   6.514   1.989   3.822
 8644TIP3   OH247346   2.501   0.376   4.248
 8644TIP3    H147347   2.422   0.324   4.234
 8644TIP3    H247348   2.477   0.441   4.314
 8645TIP3   OH247349   2.401   2.984  13.279
 8645TIP3    H147350   2.353   2.902  13.294
 8645TIP3    H247351   2.485   2.956  13.243
 8646TIP3   OH247352   5.052   2.742   0.295
 8646TIP3    H147353   5.093   2.660   0.267
 8646TIP3    H247354   5.013   2.778   0.215
 8647TIP3   OH247355   1.710   4.499   3.386
 8647TIP3    H147356   1.644   4.504   3.455
 8647TIP3    H247357   1.663   4.465   3.310
 8648TIP3   OH247358   0.527   5.243  14.188
 8648TIP3    H147359   0.455   5.285  14.236
 8648TIP3    H247360   0.596   5.230  14.253
 8649TIP3   OH247361   3.814   0.537   1.686
 8649TIP3    H147362   3.730   0.563   1.649
 8649TIP3    H247363   3.855   0.620   1.712
 8650TIP3   OH247364   1.335   4.587  14.510
 8650TIP3    H147365   1.355   4.677  14.537
 8650TIP3    H247366   1.396   4.571  14.437
 8651TIP3   OH247367   2.024   5.308   0.425
 8651TIP3    H147368   2.095   5.366   0.453
 8651TIP3    H247369   1.982   5.355   0.353
 8652TIP3   OH247370   1.363   0.657   4.124
 8652TIP3    H147371   1.284   0.648   4.070
 8652TIP3    H247372   1.356   0.745   4.162
 8653TIP3   OH247373   5.106   4.942   3.186
 8653TIP3    H147374   5.142   5.021   3.145
 8653TIP3    H247375   5.129   4.951   3.278
 8654TIP3   OH247376   2.023   1.695  13.440
 8654TIP3    H147377   2.008   1.700  13.346
 8654TIP3    H247378   2.072   1.775  13.461
 8655TIP3   OH247379   2.920   0.689  11.353
 8655TIP3    H147380   2.979   0.673  11.427
 8655TIP3    H247381   2.940   0.620  11.291
 8656TIP3   OH247382   5.356   2.260  11.302
 8656TIP3    H147383   5.342   2.266  11.397
 8656TIP3    H247384   5.269   2.242  11.267
 8657TIP3   OH247385   5.034   1.822  11.309
 8657TIP3    H147386   5.046   1.913  11.279
 8657TIP3    H247387   5.123   1.787  11.316
 8658TIP3   OH247388   5.881   4.277  13.487
 8658TIP3    H147389   5.972   4.246  13.488
 8658TIP3    H247390   5.874   4.333  13.564
 8659TIP3   OH247391   3.421   2.784  14.209
 8659TIP3    H147392   3.332   2.792  14.244
 8659TIP3    H247393   3.437   2.868  14.166
 8660TIP3   OH247394   2.938   5.677   4.362
 8660TIP3    H147395   2.986   5.612   4.311
 8660TIP3    H247396   2.958   5.761   4.321
 8661TIP3   OH247397   2.640   3.320   2.327
 8661TIP3    H147398   2.618   3.397   2.380
 8661TIP3    H247399   2.624   3.246   2.385
 8662TIP3   OH247400   0.536   6.057   1.686
 8662TIP3    H147401   0.577   6.037   1.602
 8662TIP3    H247402   0.543   5.975   1.736
 8663TIP3   OH247403   6.011   2.356  12.925
 8663TIP3    H147404   5.923   2.351  12.963
 8663TIP3    H247405   5.995   2.375  12.832
 8664TIP3   OH247406   3.222   4.696  16.337
 8664TIP3    H147407   3.261   4.620  16.380
 8664TIP3    H247408   3.230   4.677  16.243
 8665TIP3   OH247409   5.959   2.658   3.599
 8665TIP3    H147410   5.890   2.616   3.651
 8665TIP3    H247411   6.040   2.640   3.648
 8666TIP3   OH247412   4.083   1.341   3.915
 8666TIP3    H147413   4.020   1.372   3.979
 8666TIP3    H247414   4.168   1.365   3.951
 8667TIP3   OH247415   6.372   4.469   1.577
 8667TIP3    H147416   6.285   4.499   1.603
 8667TIP3    H247417   6.397   4.526   1.504
 8668TIP3   OH247418   5.118   4.637   6.000
 8668TIP3    H147419   5.177   4.699   6.044
 8668TIP3    H247420   5.059   4.606   6.069
 8669TIP3   OH247421   6.341   1.248  16.477
 8669TIP3    H147422   6.314   1.157  16.468
 8669TIP3    H247423   6.413   1.258  16.415
 8670TIP3   OH247424   0.013   5.482   4.983
 8670TIP3    H147425   0.018   5.388   4.996
 8670TIP3    H247426  -0.080   5.503   4.997
 8671TIP3   OH247427   0.988   6.551   2.528
 8671TIP3    H147428   0.896   6.573   2.540
 8671TIP3    H247429   1.033   6.594   2.601
 8672TIP3   OH247430   6.287   1.902   2.731
 8672TIP3    H147431   6.360   1.911   2.670
 8672TIP3    H247432   6.211   1.935   2.682
 8673TIP3   OH247433   4.874   0.078   0.865
 8673TIP3    H147434   4.847   0.066   0.956
 8673TIP3    H247435   4.942   0.012   0.852
 8674TIP3   OH247436   6.640   6.403   1.357
 8674TIP3    H147437   6.670   6.320   1.319
 8674TIP3    H247438   6.721   6.451   1.375
 8675TIP3   OH247439   4.119   2.158   2.917
 8675TIP3    H147440   4.058   2.087   2.899
 8675TIP3    H247441   4.200   2.113   2.942
 8676TIP3   OH247442   0.859   6.658  13.316
 8676TIP3    H147443   0.865   6.749  13.285
 8676TIP3    H247444   0.950   6.633  13.331
 8677TIP3   OH247445   2.064   0.078  13.543
 8677TIP3    H147446   2.123   0.129  13.488
 8677TIP3    H247447   2.063   0.124  13.627
 8678TIP3   OH247448   5.201   1.773   5.080
 8678TIP3    H147449   5.269   1.742   5.141
 8678TIP3    H247450   5.119   1.760   5.127
 8679TIP3   OH247451   1.803   1.904  12.881
 8679TIP3    H147452   1.874   1.861  12.833
 8679TIP3    H247453   1.769   1.836  12.939
 8680TIP3   OH247454   1.712   4.625  14.312
 8680TIP3    H147455   1.790   4.595  14.358
 8680TIP3    H247456   1.730   4.607  14.220
 8681TIP3   OH247457   3.858   0.254  15.139
 8681TIP3    H147458   3.952   0.239  15.137
 8681TIP3    H247459   3.839   0.306  15.061
 8682TIP3   OH247460   3.676   6.190   0.663
 8682TIP3    H147461   3.709   6.101   0.654
 8682TIP3    H247462   3.752   6.242   0.690
 8683TIP3   OH247463   5.879   0.335   1.076
 8683TIP3    H147464   5.919   0.286   1.004
 8683TIP3    H247465   5.953   0.372   1.123
 8684TIP3   OH247466   5.635   3.777  12.030
 8684TIP3    H147467   5.659   3.754  12.120
 8684TIP3    H247468   5.622   3.872  12.033
 8685TIP3   OH247469   4.069   5.444  11.055
 8685TIP3    H147470   4.067   5.430  10.961
 8685TIP3    H247471   4.085   5.357  11.092
 8686TIP3   OH247472   0.567   5.000  14.697
 8686TIP3    H147473   0.605   5.023  14.612
 8686TIP3    H247474   0.612   5.058  14.759
 8687TIP3   OH247475   2.481   3.133  16.960
 8687TIP3    H147476   2.521   3.208  17.005
 8687TIP3    H247477   2.505   3.146  16.868
 8688TIP3   OH247478   5.801   4.715  15.416
 8688TIP3    H147479   5.748   4.795  15.411
 8688TIP3    H247480   5.813   4.689  15.324
 8689TIP3   OH247481   3.387   2.604  11.459
 8689TIP3    H147482   3.309   2.591  11.405
 8689TIP3    H247483   3.355   2.651  11.536
 8690TIP3   OH247484   0.596   6.625  11.721
 8690TIP3    H147485   0.541   6.703  11.721
 8690TIP3    H247486   0.576   6.581  11.804
 8691TIP3   OH247487   5.120   0.481   0.531
 8691TIP3    H147488   5.032   0.516   0.512
 8691TIP3    H247489   5.106   0.414   0.597
 8692TIP3   OH247490   4.584   3.780  16.018
 8692TIP3    H147491   4.540   3.858  16.052
 8692TIP3    H247492   4.610   3.804  15.929
 8693TIP3   OH247493   5.903   5.919   6.044
 8693TIP3    H147494   5.829   5.978   6.056
 8693TIP3    H247495   5.872   5.854   5.980
 8694TIP3   OH247496   5.689   0.037  13.697
 8694TIP3    H147497   5.743  -0.040  13.713
 8694TIP3    H247498   5.605   0.002  13.667
 8695TIP3   OH247499   4.274   6.294   5.394
 8695TIP3    H147500   4.285   6.345   5.474
 8695TIP3    H247501   4.360   6.298   5.351
 8696TIP3   OH247502   0.881   5.773   5.640
 8696TIP3    H147503   0.921   5.723   5.711
 8696TIP3    H247504   0.915   5.862   5.650
 8697TIP3   OH247505   3.865   4.619   1.414
 8697TIP3    H147506   3.953   4.604   1.379
 8697TIP3    H247507   3.874   4.695   1.471
 8698TIP3   OH247508   6.092   3.919  10.494
 8698TIP3    H147509   6.015   3.939  10.442
 8698TIP3    H247510   6.089   3.982  10.566
 8699TIP3   OH247511   1.192   0.179  12.289
 8699TIP3    H147512   1.279   0.152  12.259
 8699TIP3    H247513   1.165   0.246  12.226
 8700TIP3   OH247514   4.123   5.492   3.561
 8700TIP3    H147515   4.189   5.448   3.508
 8700TIP3    H247516   4.043   5.486   3.510
 8701TIP3   OH247517   3.841   1.322   1.798
 8701TIP3    H147518   3.813   1.244   1.750
 8701TIP3    H247519   3.828   1.394   1.736
 8702TIP3   OH247520   3.724   0.603  13.263
 8702TIP3    H147521   3.657   0.562  13.318
 8702TIP3    H247522   3.771   0.661  13.322
 8703TIP3   OH247523   0.258   1.585   3.239
 8703TIP3    H147524   0.212   1.544   3.313
 8703TIP3    H247525   0.341   1.615   3.276
 8704TIP3   OH247526   4.374   4.646  17.172
 8704TIP3    H147527   4.368   4.724  17.227
 8704TIP3    H247528   4.421   4.676  17.094
 8705TIP3   OH247529   0.678   5.981   0.940
 8705TIP3    H147530   0.762   5.938   0.958
 8705TIP3    H247531   0.653   5.948   0.853
 8706TIP3   OH247532   2.942   1.393   5.914
 8706TIP3    H147533   2.893   1.449   5.854
 8706TIP3    H247534   2.976   1.453   5.980
 8707TIP3   OH247535   5.176   6.157   1.948
 8707TIP3    H147536   5.269   6.157   1.970
 8707TIP3    H247537   5.132   6.129   2.029
 8708TIP3   OH247538   6.334   5.272   5.102
 8708TIP3    H147539   6.365   5.345   5.047
 8708TIP3    H247540   6.254   5.305   5.143
 8709TIP3   OH247541   0.532   1.699   0.144
 8709TIP3    H147542   0.510   1.776   0.196
 8709TIP3    H247543   0.451   1.676   0.098
 8710TIP3   OH247544   0.891   3.011  11.878
 8710TIP3    H147545   0.839   3.004  11.959
 8710TIP3    H247546   0.901   2.921  11.848
 8711TIP3   OH247547   2.300   2.746  16.426
 8711TIP3    H147548   2.318   2.706  16.341
 8711TIP3    H247549   2.359   2.701  16.486
 8712TIP3   OH247550   3.777   2.078   0.405
 8712TIP3    H147551   3.841   2.041   0.345
 8712TIP3    H247552   3.718   2.006   0.426
 8713TIP3   OH247553   4.676   1.433  13.238
 8713TIP3    H147554   4.656   1.430  13.332
 8713TIP3    H247555   4.722   1.516  13.226
 8714TIP3   OH247556   5.758   4.847   1.793
 8714TIP3    H147557   5.698   4.791   1.744
 8714TIP3    H247558   5.840   4.845   1.743
 8715TIP3   OH247559   3.981   1.429  13.636
 8715TIP3    H147560   3.983   1.525  13.640
 8715TIP3    H247561   4.064   1.402  13.673
 8716TIP3   OH247562   4.079   2.781  13.332
 8716TIP3    H147563   4.111   2.858  13.379
 8716TIP3    H247564   4.114   2.790  13.243
 8717TIP3   OH247565   0.507   0.250  11.092
 8717TIP3    H147566   0.543   0.260  11.180
 8717TIP3    H247567   0.561   0.306  11.037
 8718TIP3   OH247568   3.782   4.464  13.047
 8718TIP3    H147569   3.690   4.469  13.073
 8718TIP3    H247570   3.830   4.460  13.129
 8719TIP3   OH247571   1.024   6.027  15.141
 8719TIP3    H147572   1.052   6.108  15.098
 8719TIP3    H247573   0.959   6.055  15.205
 8720TIP3   OH247574   1.854   2.603  11.298
 8720TIP3    H147575   1.810   2.668  11.352
 8720TIP3    H247576   1.814   2.520  11.321
 8721TIP3   OH247577   0.258   1.940  11.761
 8721TIP3    H147578   0.316   1.993  11.707
 8721TIP3    H247579   0.244   1.860  11.710
 8722TIP3   OH247580   6.239   4.762   4.008
 8722TIP3    H147581   6.271   4.808   4.086
 8722TIP3    H247582   6.318   4.730   3.965
 8723TIP3   OH247583   1.226   4.325   2.270
 8723TIP3    H147584   1.131   4.331   2.282
 8723TIP3    H247585   1.242   4.362   2.183
 8724TIP3   OH247586   4.331   3.601   3.134
 8724TIP3    H147587   4.298   3.591   3.224
 8724TIP3    H247588   4.288   3.530   3.086
 8725TIP3   OH247589   4.119   4.297   6.397
 8725TIP3    H147590   4.054   4.302   6.467
 8725TIP3    H247591   4.090   4.360   6.332
 8726TIP3   OH247592   5.693   2.770   5.026
 8726TIP3    H147593   5.772   2.811   5.060
 8726TIP3    H247594   5.625   2.794   5.089
 8727TIP3   OH247595   5.284   1.748  11.592
 8727TIP3    H147596   5.281   1.675  11.654
 8727TIP3    H247597   5.268   1.706  11.507
 8728TIP3   OH247598   4.235   0.957   5.360
 8728TIP3    H147599   4.175   0.976   5.432
 8728TIP3    H247600   4.183   0.977   5.281
 8729TIP3   OH247601   2.810   1.876  16.948
 8729TIP3    H147602   2.762   1.794  16.957
 8729TIP3    H247603   2.894   1.851  16.910
 8730TIP3   OH247604   6.423   6.714  15.482
 8730TIP3    H147605   6.506   6.707  15.529
 8730TIP3    H247606   6.441   6.775  15.410
 8731TIP3   OH247607   2.025   0.648  13.884
 8731TIP3    H147608   2.037   0.738  13.915
 8731TIP3    H247609   1.991   0.601  13.959
 8732TIP3   OH247610   4.753   0.460  16.130
 8732TIP3    H147611   4.826   0.442  16.189
 8732TIP3    H247612   4.751   0.555  16.123
 8733TIP3   OH247613   2.909   1.682  14.009
 8733TIP3    H147614   2.915   1.643  13.922
 8733TIP3    H247615   2.877   1.771  13.993
 8734TIP3   OH247616   5.891   5.190   6.235
 8734TIP3    H147617   5.948   5.247   6.183
 8734TIP3    H247618   5.820   5.166   6.176
 8735TIP3   OH247619   3.317   4.160  13.525
 8735TIP3    H147620   3.359   4.156  13.610
 8735TIP3    H247621   3.280   4.248  13.520
 8736TIP3   OH247622   4.777   5.430  11.422
 8736TIP3    H147623   4.688   5.466  11.420
 8736TIP3    H247624   4.766   5.341  11.458
 8737TIP3   OH247625   0.270   3.866  11.918
 8737TIP3    H147626   0.182   3.873  11.956
 8737TIP3    H247627   0.290   3.954  11.887
 8738TIP3   OH247628   0.909   3.950  11.328
 8738TIP3    H147629   0.958   3.876  11.363
 8738TIP3    H247630   0.928   4.023  11.386
 8739TIP3   OH247631   4.792   0.262   1.594
 8739TIP3    H147632   4.707   0.229   1.623
 8739TIP3    H247633   4.833   0.186   1.551
 8740TIP3   OH247634   2.368   3.666   5.141
 8740TIP3    H147635   2.407   3.584   5.171
 8740TIP3    H247636   2.334   3.707   5.221
 8741TIP3   OH247637   4.884   5.392  15.779
 8741TIP3    H147638   4.874   5.487  15.784
 8741TIP3    H247639   4.966   5.379  15.732
 8742TIP3   OH247640   4.818   5.114  15.871
 8742TIP3    H147641   4.832   5.209  15.868
 8742TIP3    H247642   4.761   5.100  15.946
 8743TIP3   OH247643   0.778   5.591   5.108
 8743TIP3    H147644   0.700   5.578   5.162
 8743TIP3    H247645   0.749   5.650   5.038
 8744TIP3   OH247646   0.890   3.579  14.583
 8744TIP3    H147647   0.871   3.606  14.672
 8744TIP3    H247648   0.975   3.536  14.588
 8745TIP3   OH247649   5.089   1.747   1.858
 8745TIP3    H147650   4.994   1.758   1.848
 8745TIP3    H247651   5.100   1.654   1.877
 8746TIP3   OH247652   5.615   5.728   0.368
 8746TIP3    H147653   5.685   5.675   0.404
 8746TIP3    H247654   5.561   5.666   0.318
 8747TIP3   OH247655   0.796   6.682   0.183
 8747TIP3    H147656   0.743   6.603   0.177
 8747TIP3    H247657   0.785   6.725   0.099
 8748TIP3   OH247658   4.865   5.375   3.620
 8748TIP3    H147659   4.809   5.373   3.699
 8748TIP3    H247660   4.861   5.285   3.587
 8749TIP3   OH247661   1.195   1.398   5.444
 8749TIP3    H147662   1.129   1.420   5.510
 8749TIP3    H247663   1.270   1.366   5.495
 8750TIP3   OH247664   3.457   5.747  11.295
 8750TIP3    H147665   3.401   5.794  11.234
 8750TIP3    H247666   3.422   5.657  11.295
 8751TIP3   OH247667   3.544   1.156   1.605
 8751TIP3    H147668   3.600   1.082   1.627
 8751TIP3    H247669   3.455   1.122   1.617
 8752TIP3   OH247670   3.937   0.263  15.826
 8752TIP3    H147671   3.934   0.193  15.761
 8752TIP3    H247672   3.977   0.337  15.780
 8753TIP3   OH247673   2.183   6.624  10.846
 8753TIP3    H147674   2.229   6.541  10.856
 8753TIP3    H247675   2.222   6.682  10.911
 8754TIP3   OH247676   0.349   0.223  16.563
 8754TIP3    H147677   0.372   0.134  16.590
 8754TIP3    H247678   0.295   0.257  16.635
 8755TIP3   OH247679   4.151   3.927   2.889
 8755TIP3    H147680   4.170   3.984   2.815
 8755TIP3    H247681   4.056   3.912   2.884
 8756TIP3   OH247682   3.364   6.010   1.345
 8756TIP3    H147683   3.344   5.919   1.321
 8756TIP3    H247684   3.388   6.005   1.438
 8757TIP3   OH247685   1.849   0.503  12.714
 8757TIP3    H147686   1.913   0.537  12.776
 8757TIP3    H247687   1.822   0.419  12.751
 8758TIP3   OH247688   4.940   6.421   5.907
 8758TIP3    H147689   4.880   6.413   5.980
 8758TIP3    H247690   4.887   6.401   5.829
 8759TIP3   OH247691   2.102   6.112   1.272
 8759TIP3    H147692   2.045   6.183   1.298
 8759TIP3    H247693   2.075   6.090   1.183
 8760TIP3   OH247694   4.448   2.446  15.924
 8760TIP3    H147695   4.439   2.446  16.019
 8760TIP3    H247696   4.359   2.460  15.891
 8761TIP3   OH247697   1.779   0.759   6.078
 8761TIP3    H147698   1.709   0.695   6.068
 8761TIP3    H247699   1.735   0.837   6.113
 8762TIP3   OH247700   1.997   5.755   0.695
 8762TIP3    H147701   2.060   5.778   0.626
 8762TIP3    H247702   2.011   5.662   0.711
 8763TIP3   OH247703   0.201   1.450   1.437
 8763TIP3    H147704   0.216   1.356   1.448
 8763TIP3    H247705   0.199   1.485   1.526
 8764TIP3   OH247706   6.292   5.927   0.573
 8764TIP3    H147707   6.293   6.023   0.569
 8764TIP3    H247708   6.214   5.906   0.624
 8765TIP3   OH247709   3.371   5.084   2.963
 8765TIP3    H147710   3.291   5.036   2.941
 8765TIP3    H247711   3.438   5.049   2.904
 8766TIP3   OH247712   2.426   5.352  17.016
 8766TIP3    H147713   2.514   5.385  17.034
 8766TIP3    H247714   2.439   5.265  16.980
 8767TIP3   OH247715   3.125   2.150   4.771
 8767TIP3    H147716   3.132   2.104   4.688
 8767TIP3    H247717   3.191   2.108   4.827
 8768TIP3   OH247718   2.149   6.039  15.525
 8768TIP3    H147719   2.238   6.036  15.488
 8768TIP3    H247720   2.112   6.121  15.491
 8769TIP3   OH247721   3.264   3.155   2.087
 8769TIP3    H147722   3.236   3.241   2.120
 8769TIP3    H247723   3.339   3.132   2.141
 8770TIP3   OH247724   2.141   3.198   0.817
 8770TIP3    H147725   2.143   3.116   0.868
 8770TIP3    H247726   2.099   3.174   0.735
 8771TIP3   OH247727   5.303   2.903   6.005
 8771TIP3    H147728   5.316   2.864   5.918
 8771TIP3    H247729   5.391   2.907   6.042
 8772TIP3   OH247730   5.074   5.117   3.686
 8772TIP3    H147731   5.122   5.195   3.655
 8772TIP3    H247732   5.131   5.044   3.664
 8773TIP3   OH247733   5.372   5.945  17.076
 8773TIP3    H147734   5.334   5.864  17.041
 8773TIP3    H247735   5.368   5.934  17.171
 8774TIP3   OH247736   3.834   4.527  14.988
 8774TIP3    H147737   3.859   4.495  15.074
 8774TIP3    H247738   3.917   4.551  14.946
 8775TIP3   OH247739   2.460   2.830  15.579
 8775TIP3    H147740   2.472   2.785  15.662
 8775TIP3    H247741   2.382   2.884  15.591
 8776TIP3   OH247742   5.630   3.077   1.044
 8776TIP3    H147743   5.698   3.028   0.998
 8776TIP3    H247744   5.646   3.169   1.021
 8777TIP3   OH247745   0.075   1.220   1.966
 8777TIP3    H147746   0.086   1.310   1.998
 8777TIP3    H247747   0.162   1.194   1.936
 8778TIP3   OH247748   2.964   3.074   2.518
 8778TIP3    H147749   2.910   3.114   2.586
 8778TIP3    H247750   2.901   3.033   2.459
 8779TIP3   OH247751   3.295   0.509   3.091
 8779TIP3    H147752   3.345   0.558   3.156
 8779TIP3    H247753   3.350   0.511   3.012
 8780TIP3   OH247754   1.498   4.788   2.929
 8780TIP3    H147755   1.423   4.732   2.952
 8780TIP3    H247756   1.518   4.835   3.010
 8781TIP3   OH247757   3.310   6.253  11.825
 8781TIP3    H147758   3.251   6.328  11.821
 8781TIP3    H247759   3.397   6.291  11.819
 8782TIP3   OH247760   0.317   0.635  13.909
 8782TIP3    H147761   0.276   0.549  13.906
 8782TIP3    H247762   0.367   0.635  13.990
 8783TIP3   OH247763   2.074   4.266  12.657
 8783TIP3    H147764   2.125   4.223  12.726
 8783TIP3    H247765   2.011   4.319  12.705
 8784TIP3   OH247766   4.154   0.375  11.017
 8784TIP3    H147767   4.240   0.411  11.039
 8784TIP3    H247768   4.165   0.340  10.928
 8785TIP3   OH247769   2.054   2.992  13.548
 8785TIP3    H147770   2.050   3.050  13.472
 8785TIP3    H247771   2.094   2.911  13.515
 8786TIP3   OH247772   5.760   1.059   4.269
 8786TIP3    H147773   5.701   1.053   4.194
 8786TIP3    H247774   5.833   1.112   4.238
 8787TIP3   OH247775   2.842   3.147  13.483
 8787TIP3    H147776   2.850   3.226  13.430
 8787TIP3    H247777   2.750   3.122  13.473
 8788TIP3   OH247778   5.559   3.911  13.768
 8788TIP3    H147779   5.576   3.920  13.674
 8788TIP3    H247780   5.473   3.950  13.780
 8789TIP3   OH247781   3.261   4.581  11.838
 8789TIP3    H147782   3.222   4.498  11.865
 8789TIP3    H247783   3.354   4.561  11.826
 8790TIP3   OH247784   3.777   4.958  16.645
 8790TIP3    H147785   3.797   4.904  16.568
 8790TIP3    H247786   3.852   5.017  16.653
 8791TIP3   OH247787   3.217   1.077  16.500
 8791TIP3    H147788   3.203   0.983  16.503
 8791TIP3    H247789   3.179   1.111  16.580
 8792TIP3   OH247790   4.658   1.106  14.138
 8792TIP3    H147791   4.742   1.062  14.125
 8792TIP3    H247792   4.630   1.130  14.050
 8793TIP3   OH247793   1.411   4.480   0.841
 8793TIP3    H147794   1.490   4.432   0.867
 8793TIP3    H247795   1.410   4.556   0.899
 8794TIP3   OH247796   3.892   3.491   6.418
 8794TIP3    H147797   3.850   3.473   6.502
 8794TIP3    H247798   3.981   3.518   6.441
 8795TIP3   OH247799   1.308   4.797  15.164
 8795TIP3    H147800   1.306   4.719  15.109
 8795TIP3    H247801   1.369   4.774  15.235
 8796TIP3   OH247802   3.262   3.303  14.037
 8796TIP3    H147803   3.354   3.303  14.065
 8796TIP3    H247804   3.223   3.230  14.085
 8797TIP3   OH247805   6.504   1.538   1.179
 8797TIP3    H147806   6.588   1.515   1.221
 8797TIP3    H247807   6.523   1.534   1.085
 8798TIP3   OH247808   0.006   4.135  14.382
 8798TIP3    H147809  -0.010   4.129  14.477
 8798TIP3    H247810  -0.062   4.193  14.350
 8799TIP3   OH247811   4.367   2.311   6.394
 8799TIP3    H147812   4.291   2.282   6.444
 8799TIP3    H247813   4.396   2.234   6.346
 8800TIP3   OH247814   2.111   6.468  14.574
 8800TIP3    H147815   2.065   6.461  14.658
 8800TIP3    H247816   2.054   6.521  14.519
 8801TIP3   OH247817   3.564   0.196   1.971
 8801TIP3    H147818   3.480   0.238   1.993
 8801TIP3    H247819   3.630   0.263   1.990
 8802TIP3   OH247820   6.625   4.608  12.104
 8802TIP3    H147821   6.609   4.536  12.042
 8802TIP3    H247822   6.691   4.662  12.061
 8803TIP3   OH247823   2.779   5.764   1.422
 8803TIP3    H147824   2.739   5.817   1.352
 8803TIP3    H247825   2.872   5.783   1.417
 8804TIP3   OH247826   1.173   2.370  13.155
 8804TIP3    H147827   1.249   2.409  13.200
 8804TIP3    H247828   1.108   2.358  13.224
 8805TIP3   OH247829   1.416   0.585  12.762
 8805TIP3    H147830   1.469   0.541  12.828
 8805TIP3    H247831   1.390   0.515  12.702
 8806TIP3   OH247832   0.591   5.889  12.287
 8806TIP3    H147833   0.520   5.919  12.344
 8806TIP3    H247834   0.640   5.827  12.340
 8807TIP3   OH247835   2.122   6.410  12.836
 8807TIP3    H147836   2.202   6.366  12.865
 8807TIP3    H247837   2.107   6.479  12.901
 8808TIP3   OH247838   5.981   3.368   5.345
 8808TIP3    H147839   6.053   3.431   5.354
 8808TIP3    H247840   6.017   3.299   5.288
 8809TIP3   OH247841   2.107   6.265  15.871
 8809TIP3    H147842   2.092   6.351  15.911
 8809TIP3    H247843   2.181   6.279  15.812
 8810TIP3   OH247844   6.051   0.319   3.789
 8810TIP3    H147845   6.038   0.313   3.694
 8810TIP3    H247846   6.068   0.411   3.806
 8811TIP3   OH247847   3.443   1.434  11.286
 8811TIP3    H147848   3.426   1.382  11.207
 8811TIP3    H247849   3.538   1.431  11.298
 8812TIP3   OH247850   3.117   0.302   5.583
 8812TIP3    H147851   3.142   0.380   5.633
 8812TIP3    H247852   3.034   0.325   5.543
 8813TIP3   OH247853   1.711   4.731   4.061
 8813TIP3    H147854   1.796   4.744   4.103
 8813TIP3    H247855   1.647   4.764   4.125
 8814TIP3   OH247856   5.911   5.450  14.726
 8814TIP3    H147857   5.873   5.519  14.780
 8814TIP3    H247858   6.003   5.477  14.715
 8815TIP3   OH247859   5.302   3.285   3.503
 8815TIP3    H147860   5.396   3.287   3.487
 8815TIP3    H247861   5.293   3.304   3.597
 8816TIP3   OH247862   6.383   2.159  17.079
 8816TIP3    H147863   6.344   2.234  17.035
 8816TIP3    H247864   6.403   2.190  17.167
 8817TIP3   OH247865   4.441   2.749   1.130
 8817TIP3    H147866   4.370   2.690   1.152
 8817TIP3    H247867   4.401   2.816   1.075
 8818TIP3   OH247868   4.464   4.777  13.840
 8818TIP3    H147869   4.432   4.867  13.847
 8818TIP3    H247870   4.511   4.775  13.757
 8819TIP3   OH247871   4.646   1.029  15.897
 8819TIP3    H147872   4.604   0.959  15.848
 8819TIP3    H247873   4.739   1.023  15.874
 8820TIP3   OH247874   6.369   2.290  11.415
 8820TIP3    H147875   6.337   2.310  11.327
 8820TIP3    H247876   6.336   2.362  11.470
 8821TIP3   OH247877   2.455   1.777   2.994
 8821TIP3    H147878   2.383   1.821   3.039
 8821TIP3    H247879   2.520   1.761   3.062
 8822TIP3   OH247880   1.489   2.366   1.848
 8822TIP3    H147881   1.471   2.395   1.938
 8822TIP3    H247882   1.407   2.326   1.819
 8823TIP3   OH247883   5.779   4.818  13.835
 8823TIP3    H147884   5.693   4.830  13.795
 8823TIP3    H247885   5.798   4.725  13.823
 8824TIP3   OH247886   4.041   2.204  12.466
 8824TIP3    H147887   4.014   2.173  12.552
 8824TIP3    H247888   3.960   2.214  12.417
 8825TIP3   OH247889   3.642   0.758  15.654
 8825TIP3    H147890   3.700   0.829  15.680
 8825TIP3    H247891   3.567   0.802  15.613
 8826TIP3   OH247892   3.265   5.178   4.941
 8826TIP3    H147893   3.261   5.255   4.998
 8826TIP3    H247894   3.280   5.105   5.000
 8827TIP3   OH247895   6.697   5.644  12.052
 8827TIP3    H147896   6.640   5.691  12.113
 8827TIP3    H247897   6.717   5.562  12.096
 8828TIP3   OH247898   1.445   5.439  11.708
 8828TIP3    H147899   1.498   5.382  11.764
 8828TIP3    H247900   1.509   5.487  11.656
 8829TIP3   OH247901   0.085   1.506  15.614
 8829TIP3    H147902   0.157   1.533  15.672
 8829TIP3    H247903   0.014   1.483  15.674
 8830TIP3   OH247904   0.411   4.685  11.699
 8830TIP3    H147905   0.321   4.697  11.668
 8830TIP3    H247906   0.440   4.604  11.657
 8831TIP3   OH247907   6.646   1.079  16.596
 8831TIP3    H147908   6.616   1.115  16.679
 8831TIP3    H247909   6.736   1.050  16.613
 8832TIP3   OH247910   3.728   5.380  14.982
 8832TIP3    H147911   3.649   5.427  14.955
 8832TIP3    H247912   3.711   5.289  14.958
 8833TIP3   OH247913   4.279   3.537   3.676
 8833TIP3    H147914   4.234   3.612   3.715
 8833TIP3    H247915   4.250   3.462   3.727
 8834TIP3   OH247916   3.453   0.658   6.155
 8834TIP3    H147917   3.490   0.582   6.199
 8834TIP3    H247918   3.387   0.691   6.216
 8835TIP3   OH247919   1.338   1.494  11.712
 8835TIP3    H147920   1.283   1.513  11.637
 8835TIP3    H247921   1.363   1.579  11.747
 8836TIP3   OH247922   5.936   6.573  11.318
 8836TIP3    H147923   5.958   6.665  11.332
 8836TIP3    H247924   6.020   6.527  11.323
 8837TIP3   OH247925   6.020   1.531  13.598
 8837TIP3    H147926   5.983   1.509  13.683
 8837TIP3    H247927   6.115   1.526  13.612
 8838TIP3   OH247928   4.062   2.242   5.309
 8838TIP3    H147929   3.994   2.211   5.249
 8838TIP3    H247930   4.110   2.163   5.334
 8839TIP3   OH247931   0.906   4.453  15.255
 8839TIP3    H147932   0.932   4.495  15.337
 8839TIP3    H247933   0.887   4.526  15.196
 8840TIP3   OH247934   3.685   4.814   3.967
 8840TIP3    H147935   3.615   4.872   3.935
 8840TIP3    H247936   3.698   4.840   4.058
 8841TIP3   OH247937   5.605   2.041  15.074
 8841TIP3    H147938   5.522   2.076  15.042
 8841TIP3    H247939   5.645   2.000  14.997
 8842TIP3   OH247940   0.410   6.112  13.799
 8842TIP3    H147941   0.452   6.156  13.873
 8842TIP3    H247942   0.414   6.175  13.728
 8843TIP3   OH247943   0.139   5.383  13.308
 8843TIP3    H147944   0.140   5.406  13.401
 8843TIP3    H247945   0.231   5.384  13.283
 8844TIP3   OH247946   1.250   5.535  16.976
 8844TIP3    H147947   1.298   5.613  17.005
 8844TIP3    H247948   1.271   5.528  16.883
 8845TIP3   OH247949   0.192   3.645   4.145
 8845TIP3    H147950   0.149   3.682   4.221
 8845TIP3    H247951   0.206   3.553   4.168
 8846TIP3   OH247952   4.468   3.411  11.680
 8846TIP3    H147953   4.492   3.382  11.768
 8846TIP3    H247954   4.387   3.460  11.692
 8847TIP3   OH247955   4.974   1.587   4.762
 8847TIP3    H147956   5.069   1.587   4.749
 8847TIP3    H247957   4.949   1.494   4.758
 8848TIP3   OH247958   3.921   4.840  14.155
 8848TIP3    H147959   3.902   4.826  14.062
 8848TIP3    H247960   3.855   4.903  14.184
 8849TIP3   OH247961   2.292   3.328  15.944
 8849TIP3    H147962   2.225   3.370  15.890
 8849TIP3    H247963   2.300   3.383  16.021
 8850TIP3   OH247964   0.539   5.670  15.890
 8850TIP3    H147965   0.481   5.604  15.853
 8850TIP3    H247966   0.568   5.632  15.973
 8851TIP3   OH247967   1.380   0.463   2.698
 8851TIP3    H147968   1.357   0.473   2.606
 8851TIP3    H247969   1.474   0.445   2.698
 8852TIP3   OH247970   2.422   2.083   1.118
 8852TIP3    H147971   2.385   2.166   1.148
 8852TIP3    H247972   2.443   2.035   1.199
 8853TIP3   OH247973   0.404   1.476  15.658
 8853TIP3    H147974   0.449   1.481  15.574
 8853TIP3    H247975   0.359   1.391  15.657
 8854TIP3   OH247976   2.406   1.945   1.962
 8854TIP3    H147977   2.441   2.010   2.022
 8854TIP3    H247978   2.456   1.865   1.982
 8855TIP3   OH247979   1.825   1.312  15.426
 8855TIP3    H147980   1.759   1.323  15.358
 8855TIP3    H247981   1.824   1.218  15.446
 8856TIP3   OH247982   0.488   4.310  11.854
 8856TIP3    H147983   0.556   4.334  11.917
 8856TIP3    H247984   0.447   4.231  11.890
 8857TIP3   OH247985   1.507   0.659  12.402
 8857TIP3    H147986   1.506   0.754  12.394
 8857TIP3    H247987   1.571   0.641  12.470
 8858TIP3   OH247988   2.329   1.446  16.058
 8858TIP3    H147989   2.421   1.445  16.084
 8858TIP3    H247990   2.324   1.511  15.988
 8859TIP3   OH247991   1.327   4.695   4.493
 8859TIP3    H147992   1.268   4.643   4.548
 8859TIP3    H247993   1.415   4.670   4.521
 8860TIP3   OH247994   4.742   1.310   1.158
 8860TIP3    H147995   4.688   1.246   1.111
 8860TIP3    H247996   4.786   1.260   1.226
 8861TIP3   OH247997   4.890   0.618   5.263
 8861TIP3    H147998   4.943   0.539   5.256
 8861TIP3    H247999   4.857   0.617   5.353
 8862TIP3   OH248000   0.632   0.197  12.839
 8862TIP3    H148001   0.667   0.198  12.750
 8862TIP3    H248002   0.571   0.271  12.841
 8863TIP3   OH248003   3.842   6.690   1.112
 8863TIP3    H148004   3.759   6.645   1.126
 8863TIP3    H248005   3.817   6.782   1.101
 8864TIP3   OH248006   0.302   5.130  11.434
 8864TIP3    H148007   0.361   5.195  11.473
 8864TIP3    H248008   0.340   5.046  11.458
 8865TIP3   OH248009   6.499   2.727  17.006
 8865TIP3    H148010   6.536   2.647  16.969
 8865TIP3    H248011   6.417   2.740  16.958
 8866TIP3   OH248012   4.275   2.745   0.216
 8866TIP3    H148013   4.189   2.719   0.249
 8866TIP3    H248014   4.305   2.812   0.277
 8867TIP3   OH248015   3.850   0.159   2.351
 8867TIP3    H148016   3.890   0.218   2.416
 8867TIP3    H248017   3.770   0.203   2.324
 8868TIP3   OH248018   4.270   3.124   4.354
 8868TIP3    H148019   4.222   3.207   4.349
 8868TIP3    H248020   4.214   3.066   4.404
 8869TIP3   OH248021   0.404   3.565   2.191
 8869TIP3    H148022   0.346   3.541   2.119
 8869TIP3    H248023   0.417   3.483   2.239
 8870TIP3   OH248024   6.188   0.592  14.032
 8870TIP3    H148025   6.263   0.595  14.091
 8870TIP3    H248026   6.201   0.666  13.973
 8871TIP3   OH248027   6.517   1.768  14.010
 8871TIP3    H148028   6.453   1.699  14.028
 8871TIP3    H248029   6.581   1.760  14.080
 8872TIP3   OH248030   0.840   2.063  12.995
 8872TIP3    H148031   0.896   2.097  12.924
 8872TIP3    H248032   0.818   1.974  12.967
 8873TIP3   OH248033   5.687   6.383  15.814
 8873TIP3    H148034   5.745   6.347  15.881
 8873TIP3    H248035   5.700   6.326  15.738
 8874TIP3   OH248036   3.168   3.594  12.913
 8874TIP3    H148037   3.185   3.687  12.901
 8874TIP3    H248038   3.203   3.553  12.834
 8875TIP3   OH248039   5.186   1.675  16.755
 8875TIP3    H148040   5.103   1.631  16.738
 8875TIP3    H248041   5.221   1.632  16.833
 8876TIP3   OH248042   3.006   3.817  17.147
 8876TIP3    H148043   3.005   3.827  17.242
 8876TIP3    H248044   2.972   3.729  17.131
 8877TIP3   OH248045   6.154   4.669  13.004
 8877TIP3    H148046   6.185   4.738  13.062
 8877TIP3    H248047   6.167   4.704  12.916
 8878TIP3   OH248048   5.682   6.421  11.048
 8878TIP3    H148049   5.641   6.335  11.041
 8878TIP3    H248050   5.623   6.480  11.000
 8879TIP3   OH248051   5.294   4.124  11.311
 8879TIP3    H148052   5.213   4.135  11.359
 8879TIP3    H248053   5.324   4.035  11.333
 8880TIP3   OH248054   4.427   1.279  17.023
 8880TIP3    H148055   4.401   1.369  17.044
 8880TIP3    H248056   4.515   1.287  16.987
 8881TIP3   OH248057   5.052   2.950  12.901
 8881TIP3    H148058   5.142   2.946  12.869
 8881TIP3    H248059   5.004   2.889  12.845
 8882TIP3   OH248060   0.217   5.681  16.052
 8882TIP3    H148061   0.182   5.757  16.098
 8882TIP3    H248062   0.280   5.642  16.113
 8883TIP3   OH248063   0.409   1.137   4.927
 8883TIP3    H148064   0.347   1.090   4.871
 8883TIP3    H248065   0.493   1.131   4.882
 8884TIP3   OH248066   1.970   4.316   4.957
 8884TIP3    H148067   1.918   4.330   4.878
 8884TIP3    H248068   1.912   4.267   5.015
 8885TIP3   OH248069   4.495   1.038   4.438
 8885TIP3    H148070   4.561   1.067   4.501
 8885TIP3    H248071   4.458   0.958   4.477
 8886TIP3   OH248072   4.091   4.488  11.472
 8886TIP3    H148073   4.126   4.399  11.461
 8886TIP3    H248074   4.015   4.491  11.415
 8887TIP3   OH248075   6.223   4.745   3.338
 8887TIP3    H148076   6.218   4.746   3.242
 8887TIP3    H248077   6.212   4.836   3.363
 8888TIP3   OH248078   5.671   2.063  16.007
 8888TIP3    H148079   5.697   2.062  16.099
 8888TIP3    H248080   5.666   1.971  15.982
 8889TIP3   OH248081   3.472   2.589  12.346
 8889TIP3    H148082   3.492   2.530  12.418
 8889TIP3    H248083   3.380   2.575  12.326
 8890TIP3   OH248084   4.883   2.805   0.082
 8890TIP3    H148085   4.833   2.768   0.009
 8890TIP3    H248086   4.851   2.895   0.089
 8891TIP3   OH248087   6.467   5.956   6.191
 8891TIP3    H148088   6.414   6.007   6.252
 8891TIP3    H248089   6.437   5.865   6.202
 8892TIP3   OH248090   6.239   0.444   5.393
 8892TIP3    H148091   6.163   0.448   5.451
 8892TIP3    H248092   6.315   0.443   5.452
 8893TIP3   OH248093   0.223   1.274   2.407
 8893TIP3    H148094   0.278   1.215   2.355
 8893TIP3    H248095   0.281   1.347   2.430
 8894TIP3   OH248096   5.651   5.178  15.822
 8894TIP3    H148097   5.672   5.097  15.777
 8894TIP3    H248098   5.643   5.243  15.752
 8895TIP3   OH248099   5.628   5.184  12.610
 8895TIP3    H148100   5.622   5.123  12.683
 8895TIP3    H248101   5.720   5.209  12.606
 8896TIP3   OH248102   1.904   5.880  13.514
 8896TIP3    H148103   1.886   5.871  13.420
 8896TIP3    H248104   1.859   5.961  13.539
 8897TIP3   OH248105   1.797   5.610  14.583
 8897TIP3    H148106   1.825   5.660  14.507
 8897TIP3    H248107   1.706   5.587  14.565
 8898TIP3   OH248108   1.397   6.079   0.274
 8898TIP3    H148109   1.454   6.084   0.197
 8898TIP3    H248110   1.375   6.170   0.294
 8899TIP3   OH248111   3.958   1.116  14.838
 8899TIP3    H148112   3.983   1.209  14.844
 8899TIP3    H248113   3.863   1.118  14.827
 8900TIP3   OH248114   5.831   5.438   2.987
 8900TIP3    H148115   5.918   5.404   3.005
 8900TIP3    H248116   5.842   5.533   2.982
 8901TIP3   OH248117   4.404   2.684   2.321
 8901TIP3    H148118   4.374   2.770   2.350
 8901TIP3    H248119   4.337   2.623   2.351
 8902TIP3   OH248120   3.961   3.139   4.982
 8902TIP3    H148121   3.945   3.096   4.897
 8902TIP3    H248122   3.907   3.218   4.978
 8903TIP3   OH248123   0.447   0.649  14.626
 8903TIP3    H148124   0.424   0.574  14.572
 8903TIP3    H248125   0.486   0.712  14.564
 8904TIP3   OH248126   4.811   1.349  10.617
 8904TIP3    H148127   4.884   1.325  10.560
 8904TIP3    H248128   4.768   1.422  10.572
 8905TIP3   OH248129   6.650   2.800   3.196
 8905TIP3    H148130   6.573   2.834   3.151
 8905TIP3    H248131   6.662   2.860   3.270
 8906TIP3   OH248132   1.333   6.780   3.248
 8906TIP3    H148133   1.254   6.759   3.299
 8906TIP3    H248134   1.403   6.733   3.293
 8907TIP3   OH248135   1.197   0.302  16.928
 8907TIP3    H148136   1.162   0.214  16.944
 8907TIP3    H248137   1.260   0.291  16.858
 8908TIP3   OH248138   1.736   4.779   1.662
 8908TIP3    H148139   1.814   4.813   1.619
 8908TIP3    H248140   1.756   4.783   1.755
 8909TIP3   OH248141   3.962   6.020   0.648
 8909TIP3    H148142   3.975   5.945   0.590
 8909TIP3    H248143   4.002   6.093   0.601
 8910TIP3   OH248144   5.245   0.829  15.033
 8910TIP3    H148145   5.196   0.750  15.055
 8910TIP3    H248146   5.241   0.883  15.112
 8911TIP3   OH248147   3.404   2.302   0.076
 8911TIP3    H148148   3.464   2.248   0.024
 8911TIP3    H248149   3.357   2.354   0.011
 8912TIP3   OH248150   0.273   3.389   5.743
 8912TIP3    H148151   0.216   3.312   5.751
 8912TIP3    H248152   0.233   3.441   5.673
 8913TIP3   OH248153   4.181   1.692   1.866
 8913TIP3    H148154   4.264   1.698   1.913
 8913TIP3    H248155   4.114   1.707   1.933
 8914TIP3   OH248156   4.893   3.344   2.427
 8914TIP3    H148157   4.824   3.312   2.486
 8914TIP3    H248158   4.965   3.369   2.485
 8915TIP3   OH248159   5.153   3.803  11.413
 8915TIP3    H148160   5.113   3.782  11.497
 8915TIP3    H248161   5.227   3.860  11.435
 8916TIP3   OH248162   1.869   1.987  14.762
 8916TIP3    H148163   1.811   2.031  14.700
 8916TIP3    H248164   1.928   2.055  14.793
 8917TIP3   OH248165   5.726   0.243   2.283
 8917TIP3    H148166   5.689   0.308   2.224
 8917TIP3    H248167   5.715   0.160   2.237
 8918TIP3   OH248168   1.480   4.893   0.622
 8918TIP3    H148169   1.548   4.916   0.686
 8918TIP3    H248170   1.486   4.798   0.613
 8919TIP3   OH248171   0.058   3.281   1.733
 8919TIP3    H148172   0.000   3.225   1.681
 8919TIP3    H248173   0.003   3.315   1.803
 8920TIP3   OH248174   1.571   0.869  13.445
 8920TIP3    H148175   1.641   0.896  13.387
 8920TIP3    H248176   1.508   0.941  13.442
 8921TIP3   OH248177   6.650   0.550  16.466
 8921TIP3    H148178   6.683   0.577  16.381
 8921TIP3    H248179   6.679   0.619  16.526
 8922TIP3   OH248180   4.921   3.180   5.273
 8922TIP3    H148181   4.853   3.172   5.206
 8922TIP3    H248182   4.974   3.101   5.263
 8923TIP3   OH248183   3.437   3.594   3.652
 8923TIP3    H148184   3.365   3.599   3.716
 8923TIP3    H248185   3.516   3.605   3.704
 8924TIP3   OH248186   2.509   3.435   0.948
 8924TIP3    H148187   2.476   3.470   1.031
 8924TIP3    H248188   2.474   3.346   0.944
 8925TIP3   OH248189   3.714   1.982   2.295
 8925TIP3    H148190   3.776   1.981   2.222
 8925TIP3    H248191   3.763   1.948   2.370
 8926TIP3   OH248192   4.891   1.820   1.586
 8926TIP3    H148193   4.881   1.789   1.676
 8926TIP3    H248194   4.972   1.871   1.587
 8927TIP3   OH248195   3.018   2.839   4.395
 8927TIP3    H148196   3.032   2.779   4.468
 8927TIP3    H248197   3.047   2.924   4.428
 8928TIP3   OH248198   5.822   6.114   4.683
 8928TIP3    H148199   5.744   6.063   4.661
 8928TIP3    H248200   5.791   6.204   4.690
 8929TIP3   OH248201   3.397   4.632   6.586
 8929TIP3    H148202   3.419   4.717   6.548
 8929TIP3    H248203   3.481   4.597   6.617
 8930TIP3   OH248204   3.213   3.069   5.204
 8930TIP3    H148205   3.282   3.077   5.269
 8930TIP3    H248206   3.259   3.062   5.120
 8931TIP3   OH248207   2.863   6.449  14.686
 8931TIP3    H148208   2.851   6.526  14.630
 8931TIP3    H248209   2.932   6.399  14.643
 8932TIP3   OH248210   3.352   0.610   2.608
 8932TIP3    H148211   3.330   0.700   2.583
 8932TIP3    H248212   3.268   0.564   2.605
 8933TIP3   OH248213   2.801   6.413  15.968
 8933TIP3    H148214   2.835   6.419  15.879
 8933TIP3    H248215   2.712   6.448  15.962
 8934TIP3   OH248216   4.820   3.523  10.658
 8934TIP3    H148217   4.731   3.556  10.644
 8934TIP3    H248218   4.809   3.429  10.671
 8935TIP3   OH248219   4.483   4.683   1.139
 8935TIP3    H148220   4.442   4.682   1.053
 8935TIP3    H248221   4.479   4.592   1.169
 8936TIP3   OH248222   4.212   5.942   1.911
 8936TIP3    H148223   4.305   5.963   1.920
 8936TIP3    H248224   4.206   5.896   1.827
 8937TIP3   OH248225   3.271   3.922  16.147
 8937TIP3    H148226   3.296   3.936  16.238
 8937TIP3    H248227   3.233   3.834  16.146
 8938TIP3   OH248228   0.558   5.403   5.521
 8938TIP3    H148229   0.624   5.442   5.579
 8938TIP3    H248230   0.525   5.327   5.569
 8939TIP3   OH248231   5.910   3.876   1.254
 8939TIP3    H148232   5.964   3.938   1.302
 8939TIP3    H248233   5.927   3.791   1.296
 8940TIP3   OH248234   3.496   5.263   0.638
 8940TIP3    H148235   3.412   5.218   0.649
 8940TIP3    H248236   3.494   5.297   0.549
 8941TIP3   OH248237   5.141   2.666   5.279
 8941TIP3    H148238   5.179   2.613   5.209
 8941TIP3    H248239   5.061   2.619   5.304
 8942TIP3   OH248240   2.157   6.286   3.049
 8942TIP3    H148241   2.188   6.264   2.961
 8942TIP3    H248242   2.064   6.304   3.038
 8943TIP3   OH248243   6.422   3.467   4.711
 8943TIP3    H148244   6.513   3.439   4.719
 8943TIP3    H248245   6.381   3.402   4.653
 8944TIP3   OH248246   6.309   5.038  17.213
 8944TIP3    H148247   6.318   5.069  17.303
 8944TIP3    H248248   6.367   5.095  17.162
 8945TIP3   OH248249   0.555   5.266  15.503
 8945TIP3    H148250   0.516   5.353  15.515
 8945TIP3    H248251   0.636   5.269  15.554
 8946TIP3   OH248252   4.977   3.319   4.808
 8946TIP3    H148253   5.001   3.273   4.889
 8946TIP3    H248254   4.957   3.249   4.746
 8947TIP3   OH248255   3.743   2.804   4.297
 8947TIP3    H148256   3.676   2.785   4.231
 8947TIP3    H248257   3.803   2.863   4.253
 8948TIP3   OH248258   3.188   6.352   4.693
 8948TIP3    H148259   3.219   6.303   4.769
 8948TIP3    H248260   3.136   6.423   4.730
 8949TIP3   OH248261   3.818   6.623  15.535
 8949TIP3    H148262   3.764   6.582  15.467
 8949TIP3    H248263   3.772   6.705  15.555
 8950TIP3   OH248264   0.080   2.761  13.232
 8950TIP3    H148265   0.016   2.723  13.291
 8950TIP3    H248266   0.106   2.690  13.174
 8951TIP3   OH248267   3.330   3.995  12.496
 8951TIP3    H148268   3.257   4.056  12.495
 8951TIP3    H248269   3.401   4.042  12.539
 8952TIP3   OH248270   1.503   0.215  14.862
 8952TIP3    H148271   1.581   0.270  14.870
 8952TIP3    H248272   1.501   0.190  14.769
 8953TIP3   OH248273   1.092   2.983  13.669
 8953TIP3    H148274   1.121   2.962  13.580
 8953TIP3    H248275   1.095   3.078  13.673
 8954TIP3   OH248276   3.066   4.648   3.421
 8954TIP3    H148277   3.096   4.659   3.512
 8954TIP3    H248278   2.973   4.670   3.425
 8955TIP3   OH248279   3.128   5.728   4.045
 8955TIP3    H148280   3.158   5.662   4.107
 8955TIP3    H248281   3.096   5.800   4.100
 8956TIP3   OH248282   2.770   4.071   2.441
 8956TIP3    H148283   2.695   4.012   2.450
 8956TIP3    H248284   2.757   4.137   2.510
 8957TIP3   OH248285   2.600   5.052  14.801
 8957TIP3    H148286   2.533   4.984  14.796
 8957TIP3    H248287   2.591   5.089  14.889
 8958TIP3   OH248288   5.652   3.537  13.206
 8958TIP3    H148289   5.680   3.490  13.284
 8958TIP3    H248290   5.733   3.561  13.161
 8959TIP3   OH248291   2.270   5.185   0.510
 8959TIP3    H148292   2.200   5.124   0.535
 8959TIP3    H248293   2.236   5.230   0.432
 8960TIP3   OH248294   5.243   2.495   1.217
 8960TIP3    H148295   5.248   2.574   1.162
 8960TIP3    H248296   5.183   2.438   1.171
 8961TIP3   OH248297   5.338   0.492  12.983
 8961TIP3    H148298   5.310   0.480  12.893
 8961TIP3    H248299   5.349   0.403  13.017
 8962TIP3   OH248300   4.202   4.167  13.203
 8962TIP3    H148301   4.261   4.243  13.198
 8962TIP3    H248302   4.260   4.094  13.223
 8963TIP3   OH248303   0.551   2.319  16.234
 8963TIP3    H148304   0.586   2.329  16.145
 8963TIP3    H248305   0.593   2.240  16.267
 8964TIP3   OH248306   0.967   0.911   3.252
 8964TIP3    H148307   1.027   0.931   3.324
 8964TIP3    H248308   1.009   0.841   3.204
 8965TIP3   OH248309   1.019   1.258  12.293
 8965TIP3    H148310   1.060   1.201  12.228
 8965TIP3    H248311   1.069   1.340  12.288
 8966TIP3   OH248312   6.761   1.813  16.031
 8966TIP3    H148313   6.786   1.853  16.114
 8966TIP3    H248314   6.670   1.785  16.045
 8967TIP3   OH248315   1.489   5.700  14.043
 8967TIP3    H148316   1.523   5.740  13.963
 8967TIP3    H248317   1.424   5.636  14.013
 8968TIP3   OH248318   1.757   4.395   2.392
 8968TIP3    H148319   1.662   4.406   2.391
 8968TIP3    H248320   1.782   4.393   2.300
 8969TIP3   OH248321   1.036   4.128  13.883
 8969TIP3    H148322   0.995   4.051  13.922
 8969TIP3    H248323   1.106   4.151  13.945
 8970TIP3   OH248324   2.159   1.981  12.529
 8970TIP3    H148325   2.085   1.934  12.490
 8970TIP3    H248326   2.127   2.006  12.616
 8971TIP3   OH248327   2.585   3.315  15.789
 8971TIP3    H148328   2.520   3.323  15.860
 8971TIP3    H248329   2.650   3.254  15.824
 8972TIP3   OH248330   1.969   0.669   2.172
 8972TIP3    H148331   2.002   0.580   2.179
 8972TIP3    H248332   2.046   0.722   2.154
 8973TIP3   OH248333   0.828   0.255  13.948
 8973TIP3    H148334   0.791   0.208  14.023
 8973TIP3    H248335   0.756   0.308  13.915
 8974TIP3   OH248336   1.298   3.001  11.031
 8974TIP3    H148337   1.319   2.996  10.938
 8974TIP3    H248338   1.323   3.089  11.057
 8975TIP3   OH248339   4.626   5.361  13.445
 8975TIP3    H148340   4.562   5.291  13.452
 8975TIP3    H248341   4.708   5.321  13.474
 8976TIP3   OH248342   4.638   6.504   3.951
 8976TIP3    H148343   4.576   6.462   3.892
 8976TIP3    H248344   4.708   6.440   3.962
 8977TIP3   OH248345   1.065   6.056  12.638
 8977TIP3    H148346   1.053   6.148  12.663
 8977TIP3    H248347   1.144   6.056  12.584
 8978TIP3   OH248348   1.229   3.155   3.755
 8978TIP3    H148349   1.311   3.113   3.729
 8978TIP3    H248350   1.255   3.221   3.819
 8979TIP3   OH248351   3.563   0.709  11.336
 8979TIP3    H148352   3.556   0.649  11.411
 8979TIP3    H248353   3.621   0.779  11.367
 8980TIP3   OH248354   5.945   2.388  15.000
 8980TIP3    H148355   5.923   2.342  15.080
 8980TIP3    H248356   6.037   2.412  15.010
 8981TIP3   OH248357   4.470   4.309   2.075
 8981TIP3    H148358   4.426   4.291   1.992
 8981TIP3    H248359   4.401   4.307   2.140
 8982TIP3   OH248360   1.781   3.044  12.073
 8982TIP3    H148361   1.759   2.957  12.039
 8982TIP3    H248362   1.801   3.029  12.166
 8983TIP3   OH248363   1.487   0.905   4.011
 8983TIP3    H148364   1.555   0.894   4.077
 8983TIP3    H248365   1.516   0.852   3.937
 8984TIP3   OH248366   3.067   5.113   6.364
 8984TIP3    H148367   3.003   5.071   6.307
 8984TIP3    H248368   3.016   5.165   6.425
 8985TIP3   OH248369   1.449   2.853   4.230
 8985TIP3    H148370   1.524   2.897   4.189
 8985TIP3    H248371   1.390   2.924   4.253
 8986TIP3   OH248372   5.641   1.251  15.862
 8986TIP3    H148373   5.581   1.283  15.930
 8986TIP3    H248374   5.670   1.329  15.816
 8987TIP3   OH248375   6.494   4.375  14.351
 8987TIP3    H148376   6.480   4.314  14.423
 8987TIP3    H248377   6.417   4.432  14.353
 8988TIP3   OH248378   3.954   2.121  13.742
 8988TIP3    H148379   4.017   2.176  13.694
 8988TIP3    H248380   3.995   2.035  13.744
 8989TIP3   OH248381   2.655   5.214   3.960
 8989TIP3    H148382   2.749   5.226   3.942
 8989TIP3    H248383   2.639   5.122   3.941
 8990TIP3   OH248384   6.275   5.800  10.524
 8990TIP3    H148385   6.344   5.865  10.537
 8990TIP3    H248386   6.317   5.717  10.547
 8991TIP3   OH248387   4.709   2.316   4.854
 8991TIP3    H148388   4.794   2.286   4.888
 8991TIP3    H248389   4.688   2.255   4.783
 8992TIP3   OH248390   0.232   6.058  14.942
 8992TIP3    H148391   0.200   5.968  14.950
 8992TIP3    H248392   0.316   6.058  14.988
 8993TIP3   OH248393   5.324   1.858  10.615
 8993TIP3    H148394   5.240   1.811  10.616
 8993TIP3    H248395   5.326   1.904  10.699
 8994TIP3   OH248396   3.828   3.571  11.492
 8994TIP3    H148397   3.870   3.618  11.420
 8994TIP3    H248398   3.839   3.629  11.568
 8995TIP3   OH248399   3.185   1.866   0.070
 8995TIP3    H148400   3.172   1.898   0.159
 8995TIP3    H248401   3.134   1.926   0.015
 8996TIP3   OH248402   2.281   1.633   2.215
 8996TIP3    H148403   2.348   1.692   2.250
 8996TIP3    H248404   2.236   1.686   2.148
 8997TIP3   OH248405   4.078   6.268   0.569
 8997TIP3    H148406   4.171   6.254   0.587
 8997TIP3    H248407   4.076   6.341   0.507
 8998TIP3   OH248408   6.697   0.866  15.016
 8998TIP3    H148409   6.689   0.944  14.960
 8998TIP3    H248410   6.724   0.796  14.956
 8999TIP3   OH248411   0.700   2.932  16.569
 8999TIP3    H148412   0.739   2.992  16.506
 8999TIP3    H248413   0.764   2.860  16.576
 9000TIP3   OH248414   5.470   4.469  12.094
 9000TIP3    H148415   5.480   4.401  12.028
 9000TIP3    H248416   5.433   4.543  12.047
 9001TIP3   OH248417   2.149   5.152  17.166
 9001TIP3    H148418   2.207   5.122  17.096
 9001TIP3    H248419   2.134   5.245  17.147
 9002TIP3   OH248420   1.868   4.185   4.046
 9002TIP3    H148421   1.772   4.191   4.045
 9002TIP3    H248422   1.888   4.131   4.122
 9003TIP3   OH248423   2.794   2.685  13.874
 9003TIP3    H148424   2.705   2.667  13.842
 9003TIP3    H248425   2.781   2.732  13.956
 9004TIP3   OH248426   0.625   0.592   1.257
 9004TIP3    H148427   0.530   0.600   1.247
 9004TIP3    H248428   0.641   0.498   1.249
 9005TIP3   OH248429   1.923   5.643  13.098
 9005TIP3    H148430   1.917   5.548  13.087
 9005TIP3    H248431   1.946   5.676  13.010
 9006TIP3   OH248432   1.677   2.146   4.791
 9006TIP3    H148433   1.754   2.189   4.828
 9006TIP3    H248434   1.666   2.188   4.705
 9007TIP3   OH248435   2.694   5.020   1.798
 9007TIP3    H148436   2.675   5.092   1.738
 9007TIP3    H248437   2.685   5.059   1.885
 9008TIP3   OH248438   1.053   3.727   0.155
 9008TIP3    H148439   1.149   3.727   0.152
 9008TIP3    H248440   1.026   3.714   0.063
 9009TIP3   OH248441   3.873   1.387   4.082
 9009TIP3    H148442   3.782   1.360   4.096
 9009TIP3    H248443   3.908   1.399   4.171
 9010TIP3   OH248444   6.125   1.318  15.348
 9010TIP3    H148445   6.199   1.311  15.409
 9010TIP3    H248446   6.051   1.282  15.396
 9011TIP3   OH248447   2.242   0.057   0.201
 9011TIP3    H148448   2.203   0.077   0.286
 9011TIP3    H248449   2.295  -0.022   0.217
 9012TIP3   OH248450   0.057   4.231  12.117
 9012TIP3    H148451   0.077   4.286  12.193
 9012TIP3    H248452  -0.018   4.274  12.076
 9013TIP3   OH248453   5.730   5.541   5.302
 9013TIP3    H148454   5.696   5.615   5.351
 9013TIP3    H248455   5.823   5.563   5.288
 9014TIP3   OH248456   4.323   5.586  17.144
 9014TIP3    H148457   4.412   5.556  17.163
 9014TIP3    H248458   4.299   5.541  17.062
 9015TIP3   OH248459   1.211   0.317  15.228
 9015TIP3    H148460   1.187   0.259  15.301
 9015TIP3    H248461   1.156   0.287  15.155
 9016TIP3   OH248462   4.196   6.311   1.170
 9016TIP3    H148463   4.196   6.406   1.156
 9016TIP3    H248464   4.215   6.274   1.083
 9017TIP3   OH248465   4.927   2.516   1.250
 9017TIP3    H148466   4.841   2.552   1.230
 9017TIP3    H248467   4.967   2.501   1.164
 9018TIP3   OH248468   0.666   6.588   4.101
 9018TIP3    H148469   0.636   6.601   4.191
 9018TIP3    H248470   0.606   6.523   4.064
 9019TIP3   OH248471   1.192   2.799  11.156
 9019TIP3    H148472   1.153   2.837  11.235
 9019TIP3    H248473   1.210   2.875  11.100
 9020TIP3   OH248474   3.559   4.333  14.078
 9020TIP3    H148475   3.513   4.268  14.131
 9020TIP3    H248476   3.510   4.336  13.996
 9021TIP3   OH248477   5.818   5.238  10.942
 9021TIP3    H148478   5.801   5.258  11.034
 9021TIP3    H248479   5.775   5.309  10.894
 9022TIP3   OH248480   4.835   1.073  16.141
 9022TIP3    H148481   4.845   1.038  16.052
 9022TIP3    H248482   4.825   0.995  16.196
 9023TIP3   OH248483   5.998   4.688  11.176
 9023TIP3    H148484   6.080   4.688  11.127
 9023TIP3    H248485   5.988   4.779  11.205
 9024TIP3   OH248486   5.677   3.345   0.976
 9024TIP3    H148487   5.772   3.342   0.963
 9024TIP3    H248488   5.652   3.432   0.944
 9025TIP3   OH248489   1.531   3.267  15.783
 9025TIP3    H148490   1.473   3.334  15.746
 9025TIP3    H248491   1.477   3.187  15.783
 9026TIP3   OH248492   4.542   1.461  10.729
 9026TIP3    H148493   4.603   1.535  10.730
 9026TIP3    H248494   4.572   1.404  10.800
 9027TIP3   OH248495   6.339   2.474  16.581
 9027TIP3    H148496   6.312   2.556  16.623
 9027TIP3    H248497   6.262   2.445  16.533
 9028TIP3   OH248498   2.070   1.702  14.872
 9028TIP3    H148499   2.014   1.690  14.949
 9028TIP3    H248500   2.014   1.680  14.798
 9029TIP3   OH248501   0.349   3.007   1.080
 9029TIP3    H148502   0.368   3.080   1.021
 9029TIP3    H248503   0.285   2.953   1.032
 9030TIP3   OH248504   3.354   3.880  13.514
 9030TIP3    H148505   3.323   3.970  13.522
 9030TIP3    H248506   3.379   3.872  13.422
 9031TIP3   OH248507   2.766   0.095   6.067
 9031TIP3    H148508   2.723   0.012   6.090
 9031TIP3    H248509   2.702   0.162   6.089
 9032TIP3   OH248510   6.176   0.745  11.478
 9032TIP3    H148511   6.100   0.750  11.536
 9032TIP3    H248512   6.140   0.719  11.393
 9033TIP3   OH248513   0.312   6.440  14.615
 9033TIP3    H148514   0.335   6.395  14.697
 9033TIP3    H248515   0.321   6.373  14.548
 9034TIP3   OH248516   2.690   0.430  14.701
 9034TIP3    H148517   2.706   0.524  14.703
 9034TIP3    H248518   2.777   0.390  14.705
 9035TIP3   OH248519   3.912   0.992   1.646
 9035TIP3    H148520   3.922   0.993   1.741
 9035TIP3    H248521   3.827   0.951   1.631
 9036TIP3   OH248522   1.619   3.920  16.633
 9036TIP3    H148523   1.620   3.843  16.575
 9036TIP3    H248524   1.693   3.973  16.603
 9037TIP3   OH248525   5.357   6.475  16.371
 9037TIP3    H148526   5.274   6.463  16.417
 9037TIP3    H248527   5.379   6.567  16.383
 9038TIP3   OH248528   0.864   0.281   1.014
 9038TIP3    H148529   0.825   0.291   0.928
 9038TIP3    H248530   0.915   0.361   1.026
 9039TIP3   OH248531   5.138   2.899   1.349
 9039TIP3    H148532   5.108   2.842   1.419
 9039TIP3    H248533   5.233   2.889   1.347
 9040TIP3   OH248534   3.555   6.752  12.513
 9040TIP3    H148535   3.624   6.703  12.468
 9040TIP3    H248536   3.507   6.796  12.443
 9041TIP3   OH248537   0.393   4.584   1.021
 9041TIP3    H148538   0.463   4.616   0.964
 9041TIP3    H248539   0.322   4.560   0.961
 9042TIP3   OH248540   5.382   3.984  15.714
 9042TIP3    H148541   5.431   3.956  15.791
 9042TIP3    H248542   5.447   3.987  15.643
 9043TIP3   OH248543   3.243   3.074   2.482
 9043TIP3    H148544   3.256   3.157   2.529
 9043TIP3    H248545   3.149   3.058   2.487
 9044TIP3   OH248546   3.101   3.090   3.529
 9044TIP3    H148547   3.108   3.181   3.557
 9044TIP3    H248548   3.186   3.051   3.550
 9045TIP3   OH248549   5.619   3.648  15.379
 9045TIP3    H148550   5.705   3.662  15.419
 9045TIP3    H248551   5.572   3.594  15.442
 9046TIP3   OH248552   2.011   1.033  16.570
 9046TIP3    H148553   1.956   1.007  16.644
 9046TIP3    H248554   1.997   1.128  16.564
 9047TIP3   OH248555   3.438   1.124   2.828
 9047TIP3    H148556   3.353   1.111   2.784
 9047TIP3    H248557   3.425   1.199   2.885
 9048TIP3   OH248558   1.421   5.993   4.332
 9048TIP3    H148559   1.488   6.036   4.279
 9048TIP3    H248560   1.343   6.047   4.319
 9049TIP3   OH248561   2.611   2.119  12.747
 9049TIP3    H148562   2.583   2.196  12.797
 9049TIP3    H248563   2.565   2.128  12.663
 9050TIP3   OH248564   4.162   2.497   1.495
 9050TIP3    H148565   4.118   2.529   1.574
 9050TIP3    H248566   4.251   2.476   1.524
 9051TIP3   OH248567   5.970   3.604   2.392
 9051TIP3    H148568   6.035   3.625   2.459
 9051TIP3    H248569   6.022   3.577   2.316
 9052TIP3   OH248570   5.333   3.277   5.464
 9052TIP3    H148571   5.363   3.320   5.544
 9052TIP3    H248572   5.244   3.248   5.484
 9053TIP3   OH248573   2.026   2.292  12.232
 9053TIP3    H148574   1.933   2.308  12.213
 9053TIP3    H248575   2.067   2.283  12.146
 9054TIP3   OH248576   4.407   4.557  16.109
 9054TIP3    H148577   4.474   4.519  16.052
 9054TIP3    H248578   4.411   4.651  16.090
 9055TIP3   OH248579   3.190   4.566  11.565
 9055TIP3    H148580   3.261   4.628  11.583
 9055TIP3    H248581   3.228   4.481  11.585
 9056TIP3   OH248582   1.734   0.452  14.921
 9056TIP3    H148583   1.819   0.494  14.931
 9056TIP3    H248584   1.752   0.358  14.923
 9057TIP3   OH248585   0.799   4.553  11.904
 9057TIP3    H148586   0.814   4.504  11.985
 9057TIP3    H248587   0.867   4.620  11.903
 9058TIP3   OH248588   0.312   0.987   5.989
 9058TIP3    H148589   0.220   0.960   5.995
 9058TIP3    H248590   0.339   0.961   5.901
 9059TIP3   OH248591   0.946   6.492   6.208
 9059TIP3    H148592   0.963   6.398   6.208
 9059TIP3    H248593   0.859   6.500   6.247
 9060TIP3   OH248594   3.731   1.339   0.094
 9060TIP3    H148595   3.765   1.315   0.008
 9060TIP3    H248596   3.697   1.428   0.084
 9061TIP3   OH248597   4.093   1.121   2.182
 9061TIP3    H148598   4.001   1.136   2.206
 9061TIP3    H248599   4.119   1.200   2.136
 9062TIP3   OH248600   4.781   0.135   5.218
 9062TIP3    H148601   4.738   0.171   5.140
 9062TIP3    H248602   4.772   0.203   5.284
 9063TIP3   OH248603   5.557   2.387  14.983
 9063TIP3    H148604   5.560   2.362  14.891
 9063TIP3    H248605   5.469   2.422  14.995
 9064TIP3   OH248606   6.393   5.361  16.731
 9064TIP3    H148607   6.432   5.303  16.665
 9064TIP3    H248608   6.459   5.429  16.745
 9065TIP3   OH248609   3.750   0.775  13.492
 9065TIP3    H148610   3.667   0.791  13.538
 9065TIP3    H248611   3.755   0.845  13.427
 9066TIP3   OH248612   3.347   2.454  10.855
 9066TIP3    H148613   3.395   2.407  10.923
 9066TIP3    H248614   3.346   2.545  10.884
 9067TIP3   OH248615   1.971   2.137  11.807
 9067TIP3    H148616   1.888   2.138  11.854
 9067TIP3    H248617   1.953   2.182  11.725
 9068TIP3   OH248618   3.743   6.261   1.439
 9068TIP3    H148619   3.833   6.277   1.413
 9068TIP3    H248620   3.696   6.340   1.415
 9069TIP3   OH248621   4.987   5.923  14.280
 9069TIP3    H148622   4.995   5.829  14.266
 9069TIP3    H248623   4.982   5.933  14.375
 9070TIP3   OH248624   0.832   1.198  12.485
 9070TIP3    H148625   0.886   1.169  12.558
 9070TIP3    H248626   0.894   1.220  12.416
 9071TIP3   OH248627   1.807   5.221   0.573
 9071TIP3    H148628   1.783   5.136   0.536
 9071TIP3    H248629   1.894   5.239   0.537
 9072TIP3   OH248630   0.646   0.169  14.784
 9072TIP3    H148631   0.681   0.227  14.716
 9072TIP3    H248632   0.620   0.228  14.855
 9073TIP3   OH248633   5.895   4.337   6.292
 9073TIP3    H148634   5.847   4.263   6.329
 9073TIP3    H248635   5.970   4.348   6.349
 9074TIP3   OH248636   0.494   6.642  11.978
 9074TIP3    H148637   0.447   6.561  11.960
 9074TIP3    H248638   0.545   6.625  12.057
 9075TIP3   OH248639   2.929   6.052  15.973
 9075TIP3    H148640   2.987   6.111  16.022
 9075TIP3    H248641   2.988   5.990  15.931
 9076TIP3   OH248642   3.851   3.921  12.852
 9076TIP3    H148643   3.764   3.885  12.867
 9076TIP3    H248644   3.882   3.947  12.939
 9077TIP3   OH248645   2.148   0.356   3.751
 9077TIP3    H148646   2.138   0.437   3.700
 9077TIP3    H248647   2.078   0.299   3.719
 9078TIP3   OH248648   2.030   5.907   5.553
 9078TIP3    H148649   2.067   5.995   5.561
 9078TIP3    H248650   2.061   5.861   5.630
 9079TIP3   OH248651   3.283   3.453  11.841
 9079TIP3    H148652   3.366   3.418  11.874
 9079TIP3    H248653   3.269   3.533  11.892
 9080TIP3   OH248654   0.950   4.784  11.953
 9080TIP3    H148655   1.037   4.778  11.992
 9080TIP3    H248656   0.896   4.825  12.021
 9081TIP3   OH248657   5.228   6.549  13.132
 9081TIP3    H148658   5.291   6.494  13.179
 9081TIP3    H248659   5.165   6.575  13.199
 9082TIP3   OH248660   2.785   2.841  14.509
 9082TIP3    H148661   2.743   2.845  14.596
 9082TIP3    H248662   2.783   2.749  14.485
 9083TIP3   OH248663   6.548   3.367   0.032
 9083TIP3    H148664   6.484   3.389  -0.036
 9083TIP3    H248665   6.632   3.375  -0.012
 9084TIP3   OH248666   3.323   6.524  16.547
 9084TIP3    H148667   3.243   6.477  16.528
 9084TIP3    H248668   3.330   6.589  16.477
 9085TIP3   OH248669   6.431   5.226  13.429
 9085TIP3    H148670   6.388   5.302  13.468
 9085TIP3    H248671   6.475   5.260  13.352
 9086TIP3   OH248672   3.307   2.143  16.497
 9086TIP3    H148673   3.307   2.238  16.486
 9086TIP3    H248674   3.262   2.110  16.419
 9087TIP3   OH248675   1.350   1.907  12.882
 9087TIP3    H148676   1.335   1.999  12.857
 9087TIP3    H248677   1.266   1.878  12.917
 9088TIP3   OH248678   0.350   4.303   1.048
 9088TIP3    H148679   0.302   4.366   0.996
 9088TIP3    H248680   0.432   4.347   1.071
 9089TIP3   OH248681   3.384   3.586   0.119
 9089TIP3    H148682   3.448   3.649   0.153
 9089TIP3    H248683   3.338   3.634   0.050
 9090TIP3   OH248684   4.009   4.967  13.612
 9090TIP3    H148685   4.089   4.948  13.661
 9090TIP3    H248686   4.024   5.054  13.574
 9091TIP3   OH248687   5.591   5.498  11.329
 9091TIP3    H148688   5.636   5.578  11.358
 9091TIP3    H248689   5.500   5.512  11.353
 9092TIP3   OH248690   6.649   4.299   4.002
 9092TIP3    H148691   6.643   4.370   3.938
 9092TIP3    H248692   6.738   4.266   3.994
 9093TIP3   OH248693   1.260   0.628  16.427
 9093TIP3    H148694   1.355   0.625  16.425
 9093TIP3    H248695   1.238   0.719  16.407
 9094TIP3   OH248696   1.061   6.166   2.064
 9094TIP3    H148697   0.979   6.148   2.019
 9094TIP3    H248698   1.036   6.222   2.138
 9095TIP3   OH248699   1.151   5.051  15.173
 9095TIP3    H148700   1.068   5.053  15.126
 9095TIP3    H248701   1.204   4.986  15.127
 9096TIP3   OH248702   6.483   0.322   4.556
 9096TIP3    H148703   6.457   0.401   4.508
 9096TIP3    H248704   6.474   0.346   4.649
 9097TIP3   OH248705   5.871   0.801  12.723
 9097TIP3    H148706   5.903   0.811  12.812
 9097TIP3    H248707   5.859   0.890  12.691
 9098TIP3   OH248708   4.292   1.966  14.084
 9098TIP3    H148709   4.344   2.013  14.150
 9098TIP3    H248710   4.206   1.954  14.125
 9099TIP3   OH248711   1.836   1.097  15.790
 9099TIP3    H148712   1.761   1.046  15.823
 9099TIP3    H248713   1.888   1.033  15.742
 9100TIP3   OH248714   0.011   4.540  11.856
 9100TIP3    H148715   0.055   4.464  11.819
 9100TIP3    H248716  -0.038   4.578  11.783
 9101TIP3   OH248717   2.899   3.140   4.867
 9101TIP3    H148718   2.970   3.075   4.866
 9101TIP3    H248719   2.857   3.127   4.952
 9102TIP3   OH248720   0.940   3.304  11.510
 9102TIP3    H148721   0.862   3.335  11.463
 9102TIP3    H248722   0.958   3.373  11.574
 9103TIP3   OH248723   0.074   3.388  16.184
 9103TIP3    H148724   0.147   3.397  16.122
 9103TIP3    H248725   0.012   3.456  16.158
 9104TIP3   OH248726   6.474   5.396  15.284
 9104TIP3    H148727   6.449   5.484  15.254
 9104TIP3    H248728   6.393   5.359  15.319
 9105TIP3   OH248729   0.222   4.897  13.244
 9105TIP3    H148730   0.150   4.835  13.256
 9105TIP3    H248731   0.216   4.957  13.318
 9106TIP3   OH248732   5.888   3.256  16.450
 9106TIP3    H148733   5.927   3.334  16.490
 9106TIP3    H248734   5.957   3.221  16.393
 9107TIP3   OH248735   2.882   3.429  11.350
 9107TIP3    H148736   2.970   3.437  11.386
 9107TIP3    H248737   2.880   3.492  11.278
 9108TIP3   OH248738   1.807   5.204   2.119
 9108TIP3    H148739   1.721   5.223   2.155
 9108TIP3    H248740   1.790   5.177   2.029
 9109TIP3   OH248741   3.010   4.734   4.022
 9109TIP3    H148742   3.047   4.646   4.028
 9109TIP3    H248743   3.081   4.792   4.050
 9110TIP3   OH248744   2.307   5.247  15.715
 9110TIP3    H148745   2.392   5.204  15.722
 9110TIP3    H248746   2.251   5.182  15.673
 9111TIP3   OH248747   4.539   3.092   4.294
 9111TIP3    H148748   4.555   3.184   4.274
 9111TIP3    H248749   4.452   3.091   4.334
 9112TIP3   OH248750   6.211   4.062  10.907
 9112TIP3    H148751   6.136   4.005  10.892
 9112TIP3    H248752   6.173   4.144  10.938
 9113TIP3   OH248753   0.781   4.880   4.122
 9113TIP3    H148754   0.816   4.968   4.106
 9113TIP3    H248755   0.837   4.822   4.071
 9114TIP3   OH248756   3.870   4.959  11.215
 9114TIP3    H148757   3.852   5.038  11.163
 9114TIP3    H248758   3.785   4.916  11.224
 9115TIP3   OH248759   6.565   2.411  15.653
 9115TIP3    H148760   6.499   2.439  15.717
 9115TIP3    H248761   6.610   2.491  15.628
 9116TIP3   OH248762   0.603   3.907   0.342
 9116TIP3    H148763   0.666   3.974   0.369
 9116TIP3    H248764   0.648   3.858   0.273
 9117TIP3   OH248765   5.152   4.734  11.608
 9117TIP3    H148766   5.066   4.700  11.584
 9117TIP3    H248767   5.194   4.755  11.525
 9118TIP3   OH248768   6.413   5.233  13.866
 9118TIP3    H148769   6.434   5.324  13.887
 9118TIP3    H248770   6.341   5.210  13.925
 9119TIP3   OH248771   0.317   5.523  13.806
 9119TIP3    H148772   0.346   5.462  13.738
 9119TIP3    H248773   0.395   5.575  13.826
 9120TIP3   OH248774   1.992   5.172  13.620
 9120TIP3    H148775   1.963   5.238  13.682
 9120TIP3    H248776   2.075   5.205  13.587
 9121TIP3   OH248777   1.665   3.740  11.136
 9121TIP3    H148778   1.723   3.666  11.154
 9121TIP3    H248779   1.671   3.753  11.041
 9122TIP3   OH248780   3.357   0.237   0.427
 9122TIP3    H148781   3.375   0.200   0.513
 9122TIP3    H248782   3.369   0.164   0.366
 9123TIP3   OH248783   0.126   6.144   3.232
 9123TIP3    H148784   0.060   6.080   3.259
 9123TIP3    H248785   0.084   6.229   3.246
 9124TIP3   OH248786   2.462   1.206  16.241
 9124TIP3    H148787   2.508   1.203  16.157
 9124TIP3    H248788   2.528   1.236  16.303
 9125TIP3   OH248789   5.103   5.863  11.397
 9125TIP3    H148790   5.038   5.819  11.452
 9125TIP3    H248791   5.052   5.925  11.345
 9126TIP3   OH248792   1.693   2.282   4.555
 9126TIP3    H148793   1.690   2.375   4.535
 9126TIP3    H248794   1.726   2.241   4.474
 9127TIP3   OH248795   0.642   3.934  11.868
 9127TIP3    H148796   0.573   3.962  11.807
 9127TIP3    H248797   0.723   3.944  11.818
 9128TIP3   OH248798   4.310   5.276  16.721
 9128TIP3    H148799   4.239   5.256  16.660
 9128TIP3    H248800   4.370   5.202  16.712
 9129TIP3   OH248801   0.932   2.833   3.613
 9129TIP3    H148802   0.970   2.745   3.604
 9129TIP3    H248803   0.876   2.827   3.690
 9130TIP3   OH248804   5.743   1.079  13.970
 9130TIP3    H148805   5.764   1.166  14.003
 9130TIP3    H248806   5.651   1.086  13.943
 9131TIP3   OH248807   4.560   0.809  11.964
 9131TIP3    H148808   4.494   0.782  11.900
 9131TIP3    H248809   4.631   0.846  11.911
 9132TIP3   OH248810   5.668   6.575  11.271
 9132TIP3    H148811   5.751   6.588  11.316
 9132TIP3    H248812   5.691   6.532  11.189
 9133TIP3   OH248813   1.183   4.335   3.305
 9133TIP3    H148814   1.203   4.253   3.259
 9133TIP3    H248815   1.088   4.347   3.292
 9134TIP3   OH248816   5.251   5.539  14.552
 9134TIP3    H148817   5.181   5.588  14.595
 9134TIP3    H248818   5.328   5.554  14.608
 9135TIP3   OH248819   0.681   5.415  17.075
 9135TIP3    H148820   0.737   5.448  17.005
 9135TIP3    H248821   0.610   5.479  17.081
 9136TIP3   OH248822   2.241   2.257   2.142
 9136TIP3    H148823   2.201   2.344   2.146
 9136TIP3    H248824   2.168   2.196   2.152
 9137TIP3   OH248825   2.592   4.399  16.025
 9137TIP3    H148826   2.508   4.363  16.052
 9137TIP3    H248827   2.607   4.362  15.938
 9138TIP3   OH248828   5.568   5.119   5.651
 9138TIP3    H148829   5.574   5.214   5.653
 9138TIP3    H248830   5.657   5.088   5.669
 9139TIP3   OH248831   0.907   3.735   5.545
 9139TIP3    H148832   0.951   3.663   5.590
 9139TIP3    H248833   0.855   3.692   5.477
 9140TIP3   OH248834   2.826   5.020   6.183
 9140TIP3    H148835   2.824   5.107   6.222
 9140TIP3    H248836   2.734   4.995   6.175
 9141TIP3   OH248837   4.956   5.420   3.244
 9141TIP3    H148838   4.991   5.507   3.262
 9141TIP3    H248839   4.896   5.403   3.316
 9142TIP3   OH248840   3.394   0.860   3.792
 9142TIP3    H148841   3.325   0.849   3.858
 9142TIP3    H248842   3.466   0.902   3.840
 9143TIP3   OH248843   6.091   2.994   1.330
 9143TIP3    H148844   6.002   2.961   1.335
 9143TIP3    H248845   6.099   3.053   1.405
 9144TIP3   OH248846   3.819   3.504  12.794
 9144TIP3    H148847   3.914   3.494  12.791
 9144TIP3    H248848   3.796   3.494  12.886
 9145TIP3   OH248849   1.834   3.157  10.897
 9145TIP3    H148850   1.804   3.220  10.963
 9145TIP3    H248851   1.886   3.094  10.947
 9146TIP3   OH248852   4.907   2.838  13.503
 9146TIP3    H148853   4.856   2.816  13.426
 9146TIP3    H248854   4.900   2.933  13.511
 9147TIP3   OH248855   6.376   2.001  11.419
 9147TIP3    H148856   6.459   1.981  11.461
 9147TIP3    H248857   6.354   2.089  11.450
 9148TIP3   OH248858   3.671   0.231  15.922
 9148TIP3    H148859   3.763   0.228  15.894
 9148TIP3    H248860   3.665   0.165  15.991
 9149TIP3   OH248861   0.335   4.108  14.610
 9149TIP3    H148862   0.313   4.095  14.518
 9149TIP3    H248863   0.352   4.020  14.644
 9150TIP3   OH248864   4.154   5.871  16.353
 9150TIP3    H148865   4.225   5.830  16.304
 9150TIP3    H248866   4.198   5.918  16.424
 9151TIP3   OH248867   6.178   6.022   3.600
 9151TIP3    H148868   6.159   6.108   3.561
 9151TIP3    H248869   6.094   5.976   3.598
 9152TIP3   OH248870   6.779   1.698   5.636
 9152TIP3    H148871   6.843   1.633   5.666
 9152TIP3    H248872   6.749   1.665   5.551
 9153TIP3   OH248873   2.519   4.387  13.997
 9153TIP3    H148874   2.516   4.330  14.074
 9153TIP3    H248875   2.429   4.417  13.986
 9154TIP3   OH248876   1.715   0.512   3.819
 9154TIP3    H148877   1.734   0.418   3.817
 9154TIP3    H248878   1.715   0.534   3.912
 9155TIP3   OH248879   6.505   4.740  12.914
 9155TIP3    H148880   6.490   4.820  12.964
 9155TIP3    H248881   6.585   4.703  12.951
 9156TIP3   OH248882   3.853   0.595  11.207
 9156TIP3    H148883   3.787   0.656  11.240
 9156TIP3    H248884   3.870   0.535  11.279
 9157TIP3   OH248885   1.038   4.998   4.557
 9157TIP3    H148886   1.009   5.047   4.634
 9157TIP3    H248887   1.030   5.061   4.485
 9158TIP3   OH248888   2.249   5.120  12.678
 9158TIP3    H148889   2.220   5.048  12.733
 9158TIP3    H248890   2.186   5.122  12.605
 9159TIP3   OH248891   6.519   6.188  13.810
 9159TIP3    H148892   6.450   6.199  13.875
 9159TIP3    H248893   6.474   6.153  13.733
 9160TIP3   OH248894   2.167   2.613   0.551
 9160TIP3    H148895   2.159   2.599   0.456
 9160TIP3    H248896   2.188   2.526   0.586
 9161TIP3   OH248897   5.542   0.741  11.563
 9161TIP3    H148898   5.570   0.750  11.472
 9161TIP3    H248899   5.582   0.659  11.592
 9162TIP3   OH248900   3.816   6.071   1.231
 9162TIP3    H148901   3.905   6.080   1.197
 9162TIP3    H248902   3.818   6.114   1.316
 9163TIP3   OH248903   1.200   6.781   1.426
 9163TIP3    H148904   1.207   6.820   1.339
 9163TIP3    H248905   1.193   6.687   1.411
 9164TIP3   OH248906   0.070   0.933  11.124
 9164TIP3    H148907   0.113   0.935  11.209
 9164TIP3    H248908   0.008   0.861  11.130
 9165TIP3   OH248909   1.962   0.343   4.572
 9165TIP3    H148910   1.949   0.253   4.543
 9165TIP3    H248911   1.994   0.389   4.495
 9166TIP3   OH248912   3.169   1.387   5.609
 9166TIP3    H148913   3.108   1.406   5.680
 9166TIP3    H248914   3.149   1.452   5.542
 9167TIP3   OH248915   0.694   5.660  14.493
 9167TIP3    H148916   0.695   5.720  14.567
 9167TIP3    H248917   0.665   5.576  14.530
 9168TIP3   OH248918   3.736   6.069  10.988
 9168TIP3    H148919   3.820   6.028  11.010
 9168TIP3    H248920   3.682   5.996  10.958
 9169TIP3   OH248921   4.114   1.897   3.576
 9169TIP3    H148922   4.140   1.943   3.655
 9169TIP3    H248923   4.174   1.822   3.570
 9170TIP3   OH248924   4.999   1.055  10.581
 9170TIP3    H148925   5.059   0.985  10.557
 9170TIP3    H248926   4.978   1.099  10.499
 9171TIP3   OH248927   1.866   5.564  13.418
 9171TIP3    H148928   1.852   5.498  13.350
 9171TIP3    H248929   1.861   5.648  13.372
 9172TIP3   OH248930   1.069   1.688  15.643
 9172TIP3    H148931   1.106   1.624  15.582
 9172TIP3    H248932   1.067   1.770  15.592
 9173TIP3   OH248933   6.398   6.729  17.156
 9173TIP3    H148934   6.413   6.653  17.100
 9173TIP3    H248935   6.485   6.758  17.181
 9174TIP3   OH248936   0.566   1.990   3.071
 9174TIP3    H148937   0.575   1.903   3.033
 9174TIP3    H248938   0.620   1.988   3.150
 9175TIP3   OH248939   1.375   1.386  13.422
 9175TIP3    H148940   1.377   1.430  13.507
 9175TIP3    H248941   1.289   1.344  13.418
 9176TIP3   OH248942   2.555   5.964   4.159
 9176TIP3    H148943   2.492   5.969   4.231
 9176TIP3    H248944   2.504   5.935   4.084
 9177TIP3   OH248945   3.542   3.843   0.160
 9177TIP3    H148946   3.455   3.874   0.137
 9177TIP3    H248947   3.602   3.901   0.113
 9178TIP3   OH248948   0.630   4.953  16.119
 9178TIP3    H148949   0.675   5.006  16.185
 9178TIP3    H248950   0.675   4.869  16.121
 9179TIP3   OH248951   4.818   0.910   1.546
 9179TIP3    H148952   4.820   1.004   1.561
 9179TIP3    H248953   4.869   0.898   1.466
 9180TIP3   OH248954   3.003   3.772   3.222
 9180TIP3    H148955   2.988   3.855   3.266
 9180TIP3    H248956   2.943   3.772   3.147
 9181TIP3   OH248957   0.547   3.671  16.743
 9181TIP3    H148958   0.611   3.709  16.803
 9181TIP3    H248959   0.542   3.734  16.670
 9182TIP3   OH248960   3.463   0.670   3.609
 9182TIP3    H148961   3.527   0.628   3.665
 9182TIP3    H248962   3.418   0.733   3.666
 9183TIP3   OH248963   0.732   4.134  13.474
 9183TIP3    H148964   0.704   4.077  13.546
 9183TIP3    H248965   0.757   4.215  13.517
 9184TIP3   OH248966   3.338   6.450   4.970
 9184TIP3    H148967   3.296   6.437   5.055
 9184TIP3    H248968   3.391   6.529   4.982
 9185TIP3   OH248969   5.066   3.708   1.710
 9185TIP3    H148970   5.102   3.620   1.701
 9185TIP3    H248971   5.025   3.708   1.796
 9186TIP3   OH248972   2.568   2.566   0.457
 9186TIP3    H148973   2.567   2.573   0.552
 9186TIP3    H248974   2.568   2.471   0.440
 9187TIP3   OH248975   3.729   2.165   5.408
 9187TIP3    H148976   3.661   2.133   5.349
 9187TIP3    H248977   3.770   2.237   5.361
 9188TIP3   OH248978   4.983   0.245  16.877
 9188TIP3    H148979   5.075   0.223  16.865
 9188TIP3    H248980   4.975   0.267  16.970
 9189TIP3   OH248981   4.356   5.014  11.133
 9189TIP3    H148982   4.282   4.954  11.135
 9189TIP3    H248983   4.415   4.977  11.068
 9190TIP3   OH248984   4.201   6.446   3.663
 9190TIP3    H148985   4.127   6.400   3.703
 9190TIP3    H248986   4.211   6.406   3.577
 9191TIP3   OH248987   6.055   0.041   2.154
 9191TIP3    H148988   6.123   0.034   2.221
 9191TIP3    H248989   5.990  -0.024   2.180
 9192TIP3   OH248990   1.753   1.290   6.075
 9192TIP3    H148991   1.744   1.241   6.156
 9192TIP3    H248992   1.827   1.250   6.030
 9193TIP3   OH248993   1.853   1.516   0.380
 9193TIP3    H148994   1.843   1.484   0.290
 9193TIP3    H248995   1.947   1.507   0.397
 9194TIP3   OH248996   2.036   0.525   3.958
 9194TIP3    H148997   2.048   0.557   3.868
 9194TIP3    H248998   1.987   0.443   3.947
 9195TIP3   OH248999   4.301   4.723   4.874
 9195TIP3    H149000   4.264   4.674   4.948
 9195TIP3    H249001   4.395   4.723   4.889
 9196TIP3   OH249002   0.614   6.533  14.570
 9196TIP3    H149003   0.539   6.585  14.598
 9196TIP3    H249004   0.668   6.524  14.648
 9197TIP3   OH249005   3.338   5.852  16.774
 9197TIP3    H149006   3.395   5.852  16.697
 9197TIP3    H249007   3.286   5.931  16.765
 9198TIP3   OH249008   2.111   2.222  10.595
 9198TIP3    H149009   2.191   2.218  10.649
 9198TIP3    H249010   2.137   2.185  10.511
 9199TIP3   OH249011   1.032   3.392  15.505
 9199TIP3    H149012   1.050   3.459  15.572
 9199TIP3    H249013   1.092   3.413  15.434
 9200TIP3   OH249014   2.343   0.872   3.952
 9200TIP3    H149015   2.375   0.961   3.963
 9200TIP3    H249016   2.289   0.857   4.030
 9201TIP3   OH249017   2.858   3.560  14.169
 9201TIP3    H149018   2.888   3.513  14.091
 9201TIP3    H249019   2.764   3.573  14.154
 9202TIP3   OH249020   5.965   2.298  12.028
 9202TIP3    H149021   5.942   2.280  12.119
 9202TIP3    H249022   6.014   2.222  12.000
 9203TIP3   OH249023   5.445   5.346   3.725
 9203TIP3    H149024   5.386   5.346   3.800
 9203TIP3    H249025   5.455   5.438   3.702
 9204TIP3   OH249026   5.991   5.789   1.160
 9204TIP3    H149027   5.926   5.759   1.097
 9204TIP3    H249028   5.984   5.885   1.159
 9205TIP3   OH249029   5.179   2.536   6.544
 9205TIP3    H149030   5.171   2.474   6.617
 9205TIP3    H249031   5.102   2.592   6.552
 9206TIP3   OH249032   5.146   2.256   3.777
 9206TIP3    H149033   5.147   2.297   3.864
 9206TIP3    H249034   5.123   2.165   3.794
 9207TIP3   OH249035   0.175   1.858   0.541
 9207TIP3    H149036   0.269   1.843   0.533
 9207TIP3    H249037   0.167   1.946   0.578
 9208TIP3   OH249038   1.494   6.328   2.561
 9208TIP3    H149039   1.569   6.381   2.534
 9208TIP3    H249040   1.464   6.285   2.480
 9209TIP3   OH249041   0.480   5.936   4.175
 9209TIP3    H149042   0.418   5.998   4.213
 9209TIP3    H249043   0.427   5.881   4.118
 9210TIP3   OH249044   4.840   3.907  12.679
 9210TIP3    H149045   4.787   3.957  12.616
 9210TIP3    H249046   4.917   3.961  12.694
 9211TIP3   OH249047   3.703   5.599   3.311
 9211TIP3    H149048   3.723   5.509   3.284
 9211TIP3    H249049   3.610   5.609   3.293
 9212TIP3   OH249050   3.319   1.361   1.610
 9212TIP3    H149051   3.386   1.316   1.560
 9212TIP3    H249052   3.340   1.342   1.702
 9213TIP3   OH249053   3.426   0.777   5.678
 9213TIP3    H149054   3.348   0.833   5.682
 9213TIP3    H249055   3.480   0.806   5.751
 9214TIP3   OH249056   5.146   2.477   0.258
 9214TIP3    H149057   5.230   2.494   0.215
 9214TIP3    H249058   5.118   2.392   0.224
 9215TIP3   OH249059   6.567   5.547   0.080
 9215TIP3    H149060   6.608   5.488   0.144
 9215TIP3    H249061   6.579   5.634   0.117
 9216TIP3   OH249062   6.031   1.504   0.434
 9216TIP3    H149063   5.983   1.424   0.453
 9216TIP3    H249064   6.090   1.515   0.508
 9217TIP3   OH249065   1.315   2.600   3.787
 9217TIP3    H149066   1.375   2.671   3.809
 9217TIP3    H249067   1.355   2.522   3.826
 9218TIP3   OH249068   1.856   4.151  14.968
 9218TIP3    H149069   1.864   4.244  14.949
 9218TIP3    H249070   1.943   4.115  14.952
 9219TIP3   OH249071   5.604   6.700   1.853
 9219TIP3    H149072   5.627   6.676   1.764
 9219TIP3    H249073   5.563   6.621   1.889
 9220TIP3   OH249074   6.466   1.021   2.951
 9220TIP3    H149075   6.497   1.045   2.864
 9220TIP3    H249076   6.377   0.990   2.936
 9221TIP3   OH249077   4.659   3.322  16.763
 9221TIP3    H149078   4.672   3.401  16.815
 9221TIP3    H249079   4.574   3.335  16.721
 9222TIP3   OH249080   3.687   5.287   1.563
 9222TIP3    H149081   3.708   5.220   1.629
 9222TIP3    H249082   3.594   5.272   1.543
 9223TIP3   OH249083   3.986   2.071   5.915
 9223TIP3    H149084   3.927   1.997   5.899
 9223TIP3    H249085   4.021   2.055   6.003
 9224TIP3   OH249086   2.026   4.114  13.004
 9224TIP3    H149087   1.976   4.108  13.085
 9224TIP3    H249088   1.981   4.181  12.953
 9225TIP3   OH249089   6.382   4.088  13.751
 9225TIP3    H149090   6.369   3.994  13.740
 9225TIP3    H249091   6.394   4.121  13.662
 9226TIP3   OH249092   4.478   1.661  11.228
 9226TIP3    H149093   4.458   1.704  11.312
 9226TIP3    H249094   4.412   1.592  11.221
 9227TIP3   OH249095   1.185   5.831  15.977
 9227TIP3    H149096   1.102   5.817  16.022
 9227TIP3    H249097   1.177   5.782  15.895
 9228TIP3   OH249098   0.651   1.274   3.398
 9228TIP3    H149099   0.659   1.218   3.476
 9228TIP3    H249100   0.577   1.332   3.417
 9229TIP3   OH249101   0.115   0.123  10.795
 9229TIP3    H149102   0.150   0.061  10.859
 9229TIP3    H249103   0.192   0.163  10.755
 9230TIP3   OH249104   2.201   1.287  15.481
 9230TIP3    H149105   2.197   1.350  15.553
 9230TIP3    H249106   2.233   1.206  15.521
 9231TIP3   OH249107   0.848   1.256   4.059
 9231TIP3    H149108   0.876   1.227   4.146
 9231TIP3    H249109   0.756   1.280   4.070
 9232TIP3   OH249110   3.778   2.142   2.765
 9232TIP3    H149111   3.707   2.087   2.798
 9232TIP3    H249112   3.773   2.222   2.817
 9233TIP3   OH249113   6.604   1.901  11.544
 9233TIP3    H149114   6.681   1.944  11.582
 9233TIP3    H249115   6.570   1.847  11.615
 9234TIP3   OH249116   1.565   6.549  16.021
 9234TIP3    H149117   1.581   6.596  15.939
 9234TIP3    H249118   1.567   6.618  16.088
 9235TIP3   OH249119   5.689   6.135   5.548
 9235TIP3    H149120   5.780   6.110   5.563
 9235TIP3    H249121   5.662   6.082   5.473
 9236TIP3   OH249122   1.470   4.204   4.641
 9236TIP3    H149123   1.404   4.217   4.709
 9236TIP3    H249124   1.508   4.291   4.627
 9237TIP3   OH249125   0.370   0.688   4.768
 9237TIP3    H149126   0.452   0.736   4.775
 9237TIP3    H249127   0.393   0.596   4.783
 9238TIP3   OH249128   4.297   3.941  14.346
 9238TIP3    H149129   4.329   4.015  14.398
 9238TIP3    H249130   4.222   3.976  14.298
 9239TIP3   OH249131   2.895   3.572  10.595
 9239TIP3    H149132   2.877   3.528  10.511
 9239TIP3    H249133   2.962   3.518  10.636
 9240TIP3   OH249134   5.395   2.364   5.798
 9240TIP3    H149135   5.422   2.313   5.875
 9240TIP3    H249136   5.367   2.448   5.833
 9241TIP3   OH249137   5.821   1.109  16.673
 9241TIP3    H149138   5.778   1.122  16.588
 9241TIP3    H249139   5.880   1.184  16.682
 9242TIP3   OH249140   6.665   1.827   0.721
 9242TIP3    H149141   6.749   1.827   0.676
 9242TIP3    H249142   6.675   1.893   0.789
 9243TIP3   OH249143   2.966   5.768  11.290
 9243TIP3    H149144   3.005   5.703  11.347
 9243TIP3    H249145   2.953   5.723  11.207
 9244TIP3   OH249146   0.272   2.569   6.907
 9244TIP3    H149147   0.183   2.545   6.883
 9244TIP3    H249148   0.326   2.542   6.832
 9245TIP3   OH249149   1.682   1.700   4.026
 9245TIP3    H149150   1.648   1.644   3.956
 9245TIP3    H249151   1.764   1.658   4.053
 9246TIP3   OH249152   3.835   0.975  15.651
 9246TIP3    H149153   3.923   1.001  15.625
 9246TIP3    H249154   3.778   1.014  15.585
 9247TIP3   OH249155   5.588   3.093  16.287
 9247TIP3    H149156   5.642   3.129  16.357
 9247TIP3    H249157   5.571   3.003  16.313
 9248TIP3   OH249158   2.979   5.721  12.736
 9248TIP3    H149159   2.903   5.738  12.681
 9248TIP3    H249160   2.957   5.641  12.784
 9249TIP3   OH249161   2.065   0.536   0.221
 9249TIP3    H149162   2.158   0.548   0.200
 9249TIP3    H249163   2.029   0.625   0.222
 9250TIP3   OH249164   0.036   2.257  15.175
 9250TIP3    H149165   0.053   2.168  15.207
 9250TIP3    H249166  -0.028   2.245  15.105
 9251TIP3   OH249167   5.744   3.944   0.617
 9251TIP3    H149168   5.745   4.032   0.655
 9251TIP3    H249169   5.831   3.910   0.634
 9252TIP3   OH249170   2.973   1.038   5.161
 9252TIP3    H149171   2.963   1.094   5.238
 9252TIP3    H249172   3.058   1.061   5.125
 9253TIP3   OH249173   1.881   5.396  13.967
 9253TIP3    H149174   1.846   5.330  13.907
 9253TIP3    H249175   1.804   5.440  14.002
 9254TIP3   OH249176   2.130   4.861  14.714
 9254TIP3    H149177   2.078   4.874  14.634
 9254TIP3    H249178   2.101   4.931  14.773
 9255TIP3   OH249179   3.113   1.635  15.949
 9255TIP3    H149180   3.169   1.713  15.949
 9255TIP3    H249181   3.081   1.629  16.039
 9256TIP3   OH249182   5.007   2.621  14.610
 9256TIP3    H149183   5.076   2.629  14.545
 9256TIP3    H249184   4.928   2.605  14.559
 9257TIP3   OH249185   1.540   6.228  11.287
 9257TIP3    H149186   1.456   6.222  11.241
 9257TIP3    H249187   1.555   6.322  11.296
 9258TIP3   OH249188   3.331   5.754  17.007
 9258TIP3    H149189   3.258   5.804  17.044
 9258TIP3    H249190   3.331   5.775  16.914
 9259TIP3   OH249191   1.500   0.576   4.848
 9259TIP3    H149192   1.590   0.606   4.860
 9259TIP3    H249193   1.462   0.577   4.936
 9260TIP3   OH249194   2.036   6.604  15.415
 9260TIP3    H149195   2.008   6.597  15.506
 9260TIP3    H249196   2.104   6.537  15.406
 9261TIP3   OH249197   3.706   0.594   2.219
 9261TIP3    H149198   3.786   0.634   2.254
 9261TIP3    H249199   3.671   0.660   2.159
 9262TIP3   OH249200   0.366   4.228   6.590
 9262TIP3    H149201   0.325   4.172   6.524
 9262TIP3    H249202   0.331   4.196   6.673
 9263TIP3   OH249203   2.788   2.764  10.831
 9263TIP3    H149204   2.868   2.789  10.877
 9263TIP3    H249205   2.762   2.844  10.784
 9264TIP3   OH249206   3.470   5.975  13.819
 9264TIP3    H149207   3.411   6.049  13.810
 9264TIP3    H249208   3.450   5.919  13.743
 9265TIP3   OH249209   2.268   4.751  15.596
 9265TIP3    H149210   2.219   4.831  15.579
 9265TIP3    H249211   2.351   4.782  15.633
 9266TIP3   OH249212   5.458   1.297   3.881
 9266TIP3    H149213   5.404   1.238   3.934
 9266TIP3    H249214   5.466   1.252   3.797
 9267TIP3   OH249215   3.270   5.135  12.611
 9267TIP3    H149216   3.364   5.133  12.629
 9267TIP3    H249217   3.237   5.052  12.646
 9268TIP3   OH249218   3.126   3.063   4.476
 9268TIP3    H149219   3.073   3.131   4.434
 9268TIP3    H249220   3.185   3.111   4.533
 9269TIP3   OH249221   4.997   2.501  14.866
 9269TIP3    H149222   4.955   2.440  14.806
 9269TIP3    H249223   4.986   2.587  14.825
 9270TIP3   OH249224   3.337   2.899   3.629
 9270TIP3    H149225   3.423   2.857   3.625
 9270TIP3    H249226   3.282   2.835   3.673
 9271TIP3   OH249227   6.584   5.307   1.600
 9271TIP3    H149228   6.537   5.374   1.649
 9271TIP3    H249229   6.596   5.235   1.662
 9272TIP3   OH249230   1.169   1.946  11.344
 9272TIP3    H149231   1.219   1.865  11.337
 9272TIP3    H249232   1.233   2.015  11.325
 9273TIP3   OH249233   2.568   3.642  16.709
 9273TIP3    H149234   2.527   3.579  16.769
 9273TIP3    H249235   2.644   3.676  16.757
 9274TIP3   OH249236   3.861   1.357   0.450
 9274TIP3    H149237   3.841   1.299   0.524
 9274TIP3    H249238   3.877   1.442   0.490
 9275TIP3   OH249239   6.241   0.626   5.168
 9275TIP3    H149240   6.178   0.627   5.096
 9275TIP3    H249241   6.214   0.552   5.222
 9276TIP3   OH249242   4.948   1.961  10.838
 9276TIP3    H149243   4.868   2.000  10.801
 9276TIP3    H249244   4.917   1.899  10.903
 9277TIP3   OH249245   0.796   1.859  14.442
 9277TIP3    H149246   0.757   1.774  14.462
 9277TIP3    H249247   0.721   1.914  14.419
 9278TIP3   OH249248   5.422   2.873  14.373
 9278TIP3    H149249   5.434   2.910  14.286
 9278TIP3    H249250   5.399   2.947  14.428
 9279TIP3   OH249251   1.799   1.020  11.708
 9279TIP3    H149252   1.857   0.966  11.762
 9279TIP3    H249253   1.846   1.032  11.626
 9280TIP3   OH249254   2.980   6.515   0.558
 9280TIP3    H149255   3.068   6.553   0.566
 9280TIP3    H249256   2.940   6.562   0.485
 9281TIP3   OH249257   3.157   2.169   0.805
 9281TIP3    H149258   3.242   2.205   0.779
 9281TIP3    H249259   3.176   2.077   0.825
 9282TIP3   OH249260   0.333   0.491   0.953
 9282TIP3    H149261   0.277   0.492   0.876
 9282TIP3    H249262   0.422   0.493   0.919
 9283TIP3   OH249263   5.021   2.323  13.187
 9283TIP3    H149264   5.080   2.267  13.137
 9283TIP3    H249265   4.982   2.265  13.253
 9284TIP3   OH249266   4.928   0.055  15.943
 9284TIP3    H149267   4.834   0.055  15.960
 9284TIP3    H249268   4.953  -0.037  15.945
 9285TIP3   OH249269   1.932   0.175   2.144
 9285TIP3    H149270   1.874   0.162   2.219
 9285TIP3    H249271   1.881   0.146   2.069
 9286TIP3   OH249272   4.696   3.261   0.522
 9286TIP3    H149273   4.787   3.269   0.493
 9286TIP3    H249274   4.702   3.248   0.616
 9287TIP3   OH249275   3.195   6.110   4.516
 9287TIP3    H149276   3.107   6.115   4.480
 9287TIP3    H249277   3.189   6.153   4.601
 9288TIP3   OH249278   6.199   4.164  16.020
 9288TIP3    H149279   6.215   4.209  16.103
 9288TIP3    H249280   6.200   4.233  15.954
 9289TIP3   OH249281   3.225   3.900  14.313
 9289TIP3    H149282   3.203   3.953  14.236
 9289TIP3    H249283   3.310   3.863  14.293
 9290TIP3   OH249284   5.983   5.916   0.034
 9290TIP3    H149285   5.931   5.848  -0.008
 9290TIP3    H249286   6.070   5.908  -0.005
 9291TIP3   OH249287   2.264   5.162  15.982
 9291TIP3    H149288   2.257   5.227  15.912
 9291TIP3    H249289   2.345   5.114  15.962
 9292TIP3   OH249290   0.081   3.738  14.555
 9292TIP3    H149291  -0.001   3.689  14.560
 9292TIP3    H249292   0.094   3.772  14.643
 9293TIP3   OH249293   5.856   4.953  13.491
 9293TIP3    H149294   5.926   5.010  13.461
 9293TIP3    H249295   5.842   4.892  13.418
 9294TIP3   OH249296   4.555   6.034   0.269
 9294TIP3    H149297   4.592   5.979   0.338
 9294TIP3    H249298   4.628   6.089   0.241
 9295TIP3   OH249299   2.606   2.218  14.099
 9295TIP3    H149300   2.669   2.168  14.150
 9295TIP3    H249301   2.623   2.194  14.008
 9296TIP3   OH249302   4.584   5.983  12.114
 9296TIP3    H149303   4.570   5.897  12.077
 9296TIP3    H249304   4.496   6.019  12.128
 9297TIP3   OH249305   6.032   1.967  16.422
 9297TIP3    H149306   6.021   1.981  16.328
 9297TIP3    H249307   6.053   1.874  16.429
 9298TIP3   OH249308   1.171   1.701   3.850
 9298TIP3    H149309   1.207   1.631   3.795
 9298TIP3    H249310   1.217   1.692   3.933
 9299TIP3   OH249311   4.693   1.830  11.501
 9299TIP3    H149312   4.726   1.872  11.422
 9299TIP3    H249313   4.639   1.757  11.470
 9300TIP3   OH249314   2.013   5.980  11.641
 9300TIP3    H149315   1.952   5.948  11.708
 9300TIP3    H249316   2.085   6.019  11.690
 9301TIP3   OH249317   0.346   2.037   1.080
 9301TIP3    H149318   0.324   1.960   1.132
 9301TIP3    H249319   0.271   2.095   1.090
 9302TIP3   OH249320   1.194   4.449   4.582
 9302TIP3    H149321   1.102   4.440   4.606
 9302TIP3    H249322   1.238   4.380   4.630
 9303TIP3   OH249323   2.477   4.495   4.001
 9303TIP3    H149324   2.535   4.564   4.031
 9303TIP3    H249325   2.397   4.540   3.974
 9304TIP3   OH249326   6.230   6.723  15.914
 9304TIP3    H149327   6.153   6.668  15.931
 9304TIP3    H249328   6.304   6.665  15.927
 9305TIP3   OH249329   5.306   5.937  14.817
 9305TIP3    H149330   5.358   5.926  14.897
 9305TIP3    H249331   5.264   5.852  14.805
 9306TIP3   OH249332   0.715   4.900  11.513
 9306TIP3    H149333   0.781   4.969  11.504
 9306TIP3    H249334   0.688   4.905  11.604
 9307TIP3   OH249335   2.450   1.333   5.273
 9307TIP3    H149336   2.445   1.314   5.179
 9307TIP3    H249337   2.361   1.356   5.297
 9308TIP3   OH249338   3.340   4.098  12.002
 9308TIP3    H149339   3.435   4.086  12.003
 9308TIP3    H249340   3.318   4.126  12.091
 9309TIP3   OH249341   3.206   1.811  15.073
 9309TIP3    H149342   3.298   1.801  15.050
 9309TIP3    H249343   3.160   1.751  15.014
 9310TIP3   OH249344   4.780   6.539  13.288
 9310TIP3    H149345   4.705   6.570  13.339
 9310TIP3    H249346   4.756   6.558  13.198
 9311TIP3   OH249347   4.720   6.303  11.532
 9311TIP3    H149348   4.723   6.323  11.626
 9311TIP3    H249349   4.793   6.353  11.495
 9312TIP3   OH249350   1.733   0.652   5.303
 9312TIP3    H149351   1.653   0.608   5.330
 9312TIP3    H249352   1.791   0.581   5.276
 9313TIP3   OH249353   4.048   1.286  11.148
 9313TIP3    H149354   3.956   1.263  11.140
 9313TIP3    H249355   4.084   1.275  11.060
 9314TIP3   OH249356   3.823   1.562  14.381
 9314TIP3    H149357   3.832   1.522  14.468
 9314TIP3    H249358   3.902   1.615  14.371
 9315TIP3   OH249359   2.388   4.539  14.692
 9315TIP3    H149360   2.448   4.535  14.617
 9315TIP3    H249361   2.336   4.459  14.685
 9316TIP3   OH249362   4.598   6.108  14.812
 9316TIP3    H149363   4.564   6.174  14.873
 9316TIP3    H249364   4.604   6.028  14.865
 9317TIP3   OH249365   1.025   3.089  14.569
 9317TIP3    H149366   0.954   3.106  14.631
 9317TIP3    H249367   1.102   3.128  14.609
 9318TIP3   OH249368   4.307   0.936   0.606
 9318TIP3    H149369   4.381   0.911   0.662
 9318TIP3    H249370   4.343   0.935   0.517
 9319TIP3   OH249371   0.078   0.948  11.642
 9319TIP3    H149372   0.162   0.991  11.660
 9319TIP3    H249373   0.072   0.946  11.547
 9320TIP3   OH249374   2.295   6.679  16.844
 9320TIP3    H149375   2.201   6.696  16.847
 9320TIP3    H249376   2.336   6.764  16.858
 9321TIP3   OH249377   1.587   6.508   1.851
 9321TIP3    H149378   1.638   6.544   1.923
 9321TIP3    H249379   1.514   6.569   1.840
 9322TIP3   OH249380   2.414   3.200   3.997
 9322TIP3    H149381   2.483   3.157   3.947
 9322TIP3    H249382   2.336   3.191   3.943
 9323TIP3   OH249383   0.950   1.979   4.731
 9323TIP3    H149384   0.952   2.074   4.738
 9323TIP3    H249385   0.884   1.961   4.664
 9324TIP3   OH249386   6.081   6.230   1.977
 9324TIP3    H149387   6.019   6.179   2.029
 9324TIP3    H249388   6.084   6.185   1.893
 9325TIP3   OH249389   4.799   3.541  10.951
 9325TIP3    H149390   4.841   3.466  10.909
 9325TIP3    H249391   4.861   3.568  11.018
 9326TIP3   OH249392   1.655   5.111  14.425
 9326TIP3    H149393   1.699   5.147  14.502
 9326TIP3    H249394   1.679   5.019  14.425
 9327TIP3   OH249395   6.149   3.356  12.883
 9327TIP3    H149396   6.136   3.412  12.960
 9327TIP3    H249397   6.187   3.276  12.918
 9328TIP3   OH249398   6.443   1.424  13.226
 9328TIP3    H149399   6.501   1.407  13.300
 9328TIP3    H249400   6.357   1.441  13.265
 9329TIP3   OH249401   0.609   3.954  14.074
 9329TIP3    H149402   0.699   3.985  14.069
 9329TIP3    H249403   0.557   4.035  14.074
 9330TIP3   OH249404   1.237   2.661  11.944
 9330TIP3    H149405   1.231   2.757  11.936
 9330TIP3    H249406   1.265   2.632  11.858
 9331TIP3   OH249407   4.676   2.036  12.377
 9331TIP3    H149408   4.648   2.083  12.299
 9331TIP3    H249409   4.687   1.946  12.349
 9332TIP3   OH249410   5.317   4.535  16.601
 9332TIP3    H149411   5.408   4.532  16.572
 9332TIP3    H249412   5.273   4.468  16.549
 9333TIP3   OH249413   0.445   0.556  14.891
 9333TIP3    H149414   0.402   0.475  14.864
 9333TIP3    H249415   0.441   0.612  14.813
 9334TIP3   OH249416   2.201   0.409   5.647
 9334TIP3    H149417   2.219   0.410   5.553
 9334TIP3    H249418   2.178   0.499   5.668
 9335TIP3   OH249419   6.281   4.157   3.359
 9335TIP3    H149420   6.332   4.233   3.384
 9335TIP3    H249421   6.345   4.086   3.353
 9336TIP3   OH249422   0.226   6.511  15.173
 9336TIP3    H149423   0.314   6.480  15.194
 9336TIP3    H249424   0.186   6.440  15.123
 9337TIP3   OH249425   1.360   3.646   1.412
 9337TIP3    H149426   1.454   3.652   1.393
 9337TIP3    H249427   1.334   3.561   1.375
 9338TIP3   OH249428   1.803   2.767   0.970
 9338TIP3    H149429   1.765   2.730   1.049
 9338TIP3    H249430   1.876   2.709   0.948
 9339TIP3   OH249431   4.327   5.603  12.016
 9339TIP3    H149432   4.308   5.639  12.103
 9339TIP3    H249433   4.307   5.510  12.023
 9340TIP3   OH249434   0.584   0.223   2.752
 9340TIP3    H149435   0.626   0.210   2.667
 9340TIP3    H249436   0.564   0.135   2.783
 9341TIP3   OH249437   3.711   1.253  12.278
 9341TIP3    H149438   3.730   1.168  12.317
 9341TIP3    H249439   3.779   1.311  12.311
 9342TIP3   OH249440   4.291   5.098  12.450
 9342TIP3    H149441   4.293   5.194  12.443
 9342TIP3    H249442   4.368   5.076  12.501
 9343TIP3   OH249443   2.178   6.041  15.215
 9343TIP3    H149444   2.202   6.051  15.307
 9343TIP3    H249445   2.085   6.063  15.211
 9344TIP3   OH249446   2.385   0.239  11.796
 9344TIP3    H149447   2.401   0.327  11.831
 9344TIP3    H249448   2.456   0.186  11.832
 9345TIP3   OH249449   1.370   5.377  12.280
 9345TIP3    H149450   1.437   5.430  12.322
 9345TIP3    H249451   1.297   5.438  12.265
 9346TIP3   OH249452   6.685   3.684   4.675
 9346TIP3    H149453   6.665   3.734   4.755
 9346TIP3    H249454   6.683   3.748   4.605
 9347TIP3   OH249455   6.156   5.001   3.442
 9347TIP3    H149456   6.101   5.008   3.364
 9347TIP3    H249457   6.154   5.088   3.481
 9348TIP3   OH249458   5.235   3.583   1.394
 9348TIP3    H149459   5.268   3.546   1.312
 9348TIP3    H249460   5.283   3.536   1.462
 9349TIP3   OH249461   1.220   2.311  14.255
 9349TIP3    H149462   1.135   2.340  14.222
 9349TIP3    H249463   1.250   2.246  14.191
 9350TIP3   OH249464   4.182   1.237  12.676
 9350TIP3    H149465   4.125   1.302  12.716
 9350TIP3    H249466   4.204   1.273  12.590
 9351TIP3   OH249467   0.933   0.620  11.209
 9351TIP3    H149468   1.001   0.672  11.166
 9351TIP3    H249469   0.963   0.530  11.200
 9352TIP3   OH249470   4.302   3.409   2.011
 9352TIP3    H149471   4.298   3.450   1.924
 9352TIP3    H249472   4.331   3.320   1.995
 9353TIP3   OH249473   3.821   2.131  13.467
 9353TIP3    H149474   3.863   2.170  13.391
 9353TIP3    H249475   3.891   2.124  13.532
 9354TIP3   OH249476   4.378   3.314  13.368
 9354TIP3    H149477   4.379   3.221  13.349
 9354TIP3    H249478   4.444   3.326  13.436
 9355TIP3   OH249479   4.794   5.387   2.285
 9355TIP3    H149480   4.833   5.305   2.254
 9355TIP3    H249481   4.812   5.387   2.379
 9356TIP3   OH249482   0.799   3.083  16.338
 9356TIP3    H149483   0.847   3.001  16.327
 9356TIP3    H249484   0.799   3.123  16.251
 9357TIP3   OH249485   6.147   0.038   3.006
 9357TIP3    H149486   6.063  -0.003   2.986
 9357TIP3    H249487   6.128   0.132   3.011
 9358TIP3   OH249488   1.571   0.470  12.972
 9358TIP3    H149489   1.662   0.474  12.942
 9358TIP3    H249490   1.556   0.377  12.991
 9359TIP3   OH249491   2.276   5.279  15.250
 9359TIP3    H149492   2.184   5.299  15.236
 9359TIP3    H249493   2.276   5.215  15.322
 9360TIP3   OH249494   5.998   4.484   5.091
 9360TIP3    H149495   5.938   4.559   5.091
 9360TIP3    H249496   5.955   4.419   5.146
 9361TIP3   OH249497   0.641   4.792   2.091
 9361TIP3    H149498   0.641   4.881   2.125
 9361TIP3    H249499   0.549   4.772   2.075
 9362TIP3   OH249500   4.368   6.331  13.333
 9362TIP3    H149501   4.458   6.356  13.357
 9362TIP3    H249502   4.312   6.386  13.388
 9363TIP3   OH249503   2.177   1.026   4.729
 9363TIP3    H149504   2.175   1.031   4.633
 9363TIP3    H249505   2.202   0.936   4.748
 9364TIP3   OH249506   5.224   0.438  13.877
 9364TIP3    H149507   5.283   0.498  13.831
 9364TIP3    H249508   5.169   0.494  13.931
 9365TIP3   OH249509   4.746   5.971  10.255
 9365TIP3    H149510   4.780   6.061  10.253
 9365TIP3    H249511   4.667   5.977  10.309
 9366TIP3   OH249512   0.017   1.634  13.194
 9366TIP3    H149513  -0.036   1.641  13.274
 9366TIP3    H249514  -0.039   1.589  13.131
 9367TIP3   OH249515   3.733   1.509  15.287
 9367TIP3    H149516   3.679   1.588  15.291
 9367TIP3    H249517   3.793   1.525  15.214
 9368TIP3   OH249518   2.581   2.627   2.974
 9368TIP3    H149519   2.516   2.696   2.984
 9368TIP3    H249520   2.625   2.622   3.058
 9369TIP3   OH249521   6.169   3.925   0.018
 9369TIP3    H149522   6.236   3.977   0.063
 9369TIP3    H249523   6.182   3.836   0.051
 9370TIP3   OH249524   3.236   5.364  11.761
 9370TIP3    H149525   3.172   5.320  11.704
 9370TIP3    H249526   3.321   5.340  11.724
 9371TIP3   OH249527   3.484   2.382   3.633
 9371TIP3    H149528   3.562   2.331   3.610
 9371TIP3    H249529   3.517   2.456   3.684
 9372TIP3   OH249530   6.122   0.636  11.229
 9372TIP3    H149531   6.143   0.631  11.135
 9372TIP3    H249532   6.033   0.603  11.235
 9373TIP3   OH249533   0.611   5.380   0.123
 9373TIP3    H149534   0.637   5.375   0.031
 9373TIP3    H249535   0.582   5.291   0.145
 9374TIP3   OH249536   5.390   3.029   0.710
 9374TIP3    H149537   5.364   3.117   0.685
 9374TIP3    H249538   5.386   3.029   0.806
 9375TIP3   OH249539   6.480   3.446  15.173
 9375TIP3    H149540   6.566   3.413  15.149
 9375TIP3    H249541   6.435   3.370  15.211
 9376TIP3   OH249542   4.236   5.608   6.434
 9376TIP3    H149543   4.307   5.668   6.411
 9376TIP3    H249544   4.269   5.522   6.407
 9377TIP3   OH249545   3.018   5.632   1.076
 9377TIP3    H149546   3.041   5.563   1.012
 9377TIP3    H249547   3.045   5.596   1.160
 9378TIP3   OH249548   4.966   0.922   5.757
 9378TIP3    H149549   5.024   0.872   5.814
 9378TIP3    H249550   4.878   0.894   5.783
 9379TIP3   OH249551   2.931   4.262   0.398
 9379TIP3    H149552   2.914   4.185   0.344
 9379TIP3    H249553   3.026   4.262   0.411
 9380TIP3   OH249554   5.227   1.811  17.119
 9380TIP3    H149555   5.296   1.866  17.082
 9380TIP3    H249556   5.273   1.733  17.150
 9381TIP3   OH249557   1.828   5.723  13.729
 9381TIP3    H149558   1.920   5.703  13.747
 9381TIP3    H249559   1.828   5.763  13.642
 9382TIP3   OH249560   2.923   0.860   5.805
 9382TIP3    H149561   3.018   0.857   5.794
 9382TIP3    H249562   2.891   0.915   5.733
 9383TIP3   OH249563   5.795   4.177  12.278
 9383TIP3    H149564   5.845   4.258  12.269
 9383TIP3    H249565   5.859   4.108  12.257
 9384TIP3   OH249566   6.173   4.593  16.881
 9384TIP3    H149567   6.107   4.648  16.838
 9384TIP3    H249568   6.251   4.649  16.885
 9385TIP3   OH249569   4.141   4.017   4.371
 9385TIP3    H149570   4.132   4.077   4.445
 9385TIP3    H249571   4.066   3.957   4.379
 9386TIP3   OH249572   3.864   0.807  12.356
 9386TIP3    H149573   3.940   0.755  12.383
 9386TIP3    H249574   3.798   0.742  12.331
 9387TIP3   OH249575   1.650   4.787   4.659
 9387TIP3    H149576   1.664   4.881   4.661
 9387TIP3    H249577   1.640   4.762   4.751
 9388TIP3   OH249578   0.200   3.980  14.060
 9388TIP3    H149579   0.138   3.939  14.121
 9388TIP3    H249580   0.271   4.013  14.116
 9389TIP3   OH249581   0.869   2.676  11.570
 9389TIP3    H149582   0.787   2.651  11.528
 9389TIP3    H249583   0.934   2.615  11.536
 9390TIP3   OH249584   0.593   5.603  12.905
 9390TIP3    H149585   0.546   5.570  12.981
 9390TIP3    H249586   0.531   5.661  12.862
 9391TIP3   OH249587   4.930   1.172   0.279
 9391TIP3    H149588   5.022   1.148   0.280
 9391TIP3    H249589   4.891   1.121   0.351
 9392TIP3   OH249590   1.177   6.652  13.495
 9392TIP3    H149591   1.168   6.557  13.492
 9392TIP3    H249592   1.265   6.669  13.463
 9393TIP3   OH249593   5.435   0.185  17.040
 9393TIP3    H149594   5.488   0.119  17.085
 9393TIP3    H249595   5.489   0.214  16.966
 9394TIP3   OH249596   3.971   4.074  10.898
 9394TIP3    H149597   3.905   4.138  10.871
 9394TIP3    H249598   3.947   3.994  10.851
 9395TIP3   OH249599   6.634   2.331   5.121
 9395TIP3    H149600   6.662   2.274   5.193
 9395TIP3    H249601   6.637   2.276   5.043
 9396TIP3   OH249602   3.416   5.098  14.717
 9396TIP3    H149603   3.372   5.024  14.676
 9396TIP3    H249604   3.399   5.087  14.811
 9397TIP3   OH249605   4.508   1.399   0.385
 9397TIP3    H149606   4.448   1.472   0.367
 9397TIP3    H249607   4.570   1.433   0.449
 9398TIP3   OH249608   1.595   4.530  11.567
 9398TIP3    H149609   1.663   4.588  11.603
 9398TIP3    H249610   1.543   4.587  11.510
 9399TIP3   OH249611   0.279   6.545   3.291
 9399TIP3    H149612   0.366   6.569   3.259
 9399TIP3    H249613   0.296   6.482   3.361
 9400TIP3   OH249614   1.902   0.072  17.022
 9400TIP3    H149615   1.972   0.100  16.963
 9400TIP3    H249616   1.943   0.071  17.109
 9401TIP3   OH249617   4.026   0.701  11.552
 9401TIP3    H149618   4.051   0.618  11.511
 9401TIP3    H249619   4.096   0.761  11.527
 9402TIP3   OH249620   5.602   2.064   5.896
 9402TIP3    H149621   5.540   2.118   5.945
 9402TIP3    H249622   5.642   2.008   5.962
 9403TIP3   OH249623   3.217   5.503   5.535
 9403TIP3    H149624   3.287   5.455   5.579
 9403TIP3    H249625   3.256   5.586   5.510
 9404TIP3   OH249626   2.263   5.948  11.073
 9404TIP3    H149627   2.302   6.034  11.091
 9404TIP3    H249628   2.174   5.968  11.046
 9405TIP3   OH249629   6.683   6.385  15.303
 9405TIP3    H149630   6.704   6.302  15.345
 9405TIP3    H249631   6.602   6.414  15.344
 9406TIP3   OH249632   3.699   0.485   3.507
 9406TIP3    H149633   3.728   0.429   3.435
 9406TIP3    H249634   3.617   0.445   3.537
 9407TIP3   OH249635   0.648   5.375   4.778
 9407TIP3    H149636   0.638   5.362   4.873
 9407TIP3    H249637   0.573   5.430   4.754
 9408TIP3   OH249638   3.268   5.440  12.703
 9408TIP3    H149639   3.342   5.380  12.693
 9408TIP3    H249640   3.211   5.397  12.768
 9409TIP3   OH249641   6.210   4.151   5.177
 9409TIP3    H149642   6.169   4.077   5.222
 9409TIP3    H249643   6.282   4.111   5.127
 9410TIP3   OH249644   6.240   0.453   3.490
 9410TIP3    H149645   6.323   0.422   3.527
 9410TIP3    H249646   6.255   0.546   3.472
 9411TIP3   OH249647   0.133   0.539  14.553
 9411TIP3    H149648   0.053   0.557  14.504
 9411TIP3    H249649   0.195   0.507  14.487
 9412TIP3   OH249650   5.470   3.587   6.422
 9412TIP3    H149651   5.485   3.598   6.516
 9412TIP3    H249652   5.384   3.545   6.417
 9413TIP3   OH249653   4.695   1.172   1.534
 9413TIP3    H149654   4.751   1.240   1.495
 9413TIP3    H249655   4.630   1.154   1.466
 9414TIP3   OH249656   1.155   2.909   3.222
 9414TIP3    H149657   1.067   2.880   3.243
 9414TIP3    H249658   1.212   2.840   3.257
 9415TIP3   OH249659   4.378   2.167   3.374
 9415TIP3    H149660   4.304   2.224   3.396
 9415TIP3    H249661   4.455   2.222   3.386
 9416TIP3   OH249662   0.493   1.634  13.745
 9416TIP3    H149663   0.564   1.616  13.683
 9416TIP3    H249664   0.537   1.660  13.826
 9417TIP3   OH249665   2.567   0.012   2.637
 9417TIP3    H149666   2.588   0.058   2.555
 9417TIP3    H249667   2.478   0.040   2.658
 9418TIP3   OH249668   2.267   4.219  11.624
 9418TIP3    H149669   2.347   4.246  11.579
 9418TIP3    H249670   2.225   4.302  11.648
 9419TIP3   OH249671   3.240   4.989   1.418
 9419TIP3    H149672   3.282   4.937   1.486
 9419TIP3    H249673   3.150   5.000   1.448
 9420TIP3   OH249674   0.688   1.015  13.140
 9420TIP3    H149675   0.647   1.028  13.226
 9420TIP3    H249676   0.616   0.993  13.082
 9421TIP3   OH249677   3.068   4.149  12.480
 9421TIP3    H149678   3.014   4.210  12.430
 9421TIP3    H249679   3.039   4.062  12.454
 9422TIP3   OH249680   3.883   6.034  12.893
 9422TIP3    H149681   3.790   6.032  12.870
 9422TIP3    H249682   3.927   6.053  12.810
 9423TIP3   OH249683   2.040   2.656   5.396
 9423TIP3    H149684   2.114   2.643   5.337
 9423TIP3    H249685   2.076   2.703   5.471
 9424TIP3   OH249686   0.061   0.251   4.020
 9424TIP3    H149687  -0.033   0.268   4.007
 9424TIP3    H249688   0.082   0.297   4.101
 9425TIP3   OH249689   1.655   2.606   5.557
 9425TIP3    H149690   1.620   2.693   5.577
 9425TIP3    H249691   1.608   2.547   5.615
 9426TIP3   OH249692   0.161   3.957  11.242
 9426TIP3    H149693   0.221   4.008  11.187
 9426TIP3    H249694   0.102   3.915  11.180
 9427TIP3   OH249695   2.376   5.755   1.281
 9427TIP3    H149696   2.404   5.831   1.230
 9427TIP3    H249697   2.396   5.778   1.372
 9428TIP3   OH249698   5.515   6.064   4.024
 9428TIP3    H149699   5.559   6.130   4.078
 9428TIP3    H249700   5.495   5.992   4.084
 9429TIP3   OH249701   3.903   1.557  10.621
 9429TIP3    H149702   3.878   1.466  10.609
 9429TIP3    H249703   3.896   1.596  10.534
 9430TIP3   OH249704   4.825   6.529  14.691
 9430TIP3    H149705   4.918   6.508  14.689
 9430TIP3    H249706   4.787   6.476  14.620
 9431TIP3   OH249707   6.200   2.977   0.014
 9431TIP3    H149708   6.132   3.044   0.007
 9431TIP3    H249709   6.237   2.989   0.101
 9432TIP3   OH249710   5.105   2.387  17.154
 9432TIP3    H149711   5.014   2.359  17.158
 9432TIP3    H249712   5.116   2.418  17.064
 9433TIP3   OH249713   6.749   1.015  12.738
 9433TIP3    H149714   6.711   0.949  12.680
 9433TIP3    H249715   6.680   1.080  12.749
 9434TIP3   OH249716   4.429   3.681  15.556
 9434TIP3    H149717   4.368   3.626  15.508
 9434TIP3    H249718   4.388   3.695  15.641
 9435TIP3   OH249719   4.479   4.602  11.478
 9435TIP3    H149720   4.459   4.688  11.516
 9435TIP3    H249721   4.573   4.590  11.494
 9436TIP3   OH249722   4.378   5.401   3.426
 9436TIP3    H149723   4.412   5.319   3.389
 9436TIP3    H249724   4.406   5.399   3.517
 9437TIP3   OH249725   1.728   2.106  12.737
 9437TIP3    H149726   1.744   2.041  12.806
 9437TIP3    H249727   1.660   2.067  12.682
 9438TIP3   OH249728   0.971   3.116  16.682
 9438TIP3    H149729   0.994   3.179  16.614
 9438TIP3    H249730   1.018   3.146  16.759
 9439TIP3   OH249731   2.265   0.340  13.602
 9439TIP3    H149732   2.178   0.334  13.642
 9439TIP3    H249733   2.249   0.377  13.516
 9440TIP3   OH249734   5.056   5.604  15.035
 9440TIP3    H149735   5.055   5.700  15.033
 9440TIP3    H249736   4.967   5.579  15.009
 9441TIP3   OH249737   5.212   2.698   1.059
 9441TIP3    H149738   5.121   2.723   1.073
 9441TIP3    H249739   5.255   2.777   1.027
 9442TIP3   OH249740   6.177   3.132   1.898
 9442TIP3    H149741   6.238   3.190   1.853
 9442TIP3    H249742   6.115   3.191   1.942
 9443TIP3   OH249743   4.603   5.236  16.449
 9443TIP3    H149744   4.562   5.298  16.389
 9443TIP3    H249745   4.696   5.261  16.449
 9444TIP3   OH249746   5.748   4.600   3.852
 9444TIP3    H149747   5.757   4.535   3.921
 9444TIP3    H249748   5.784   4.680   3.890
 9445TIP3   OH249749   3.010   1.253  14.822
 9445TIP3    H149750   2.968   1.317  14.764
 9445TIP3    H249751   3.084   1.220  14.772
 9446TIP3   OH249752   6.379   2.228   6.002
 9446TIP3    H149753   6.394   2.144   6.046
 9446TIP3    H249754   6.421   2.218   5.917
 9447TIP3   OH249755   0.931   0.586  13.488
 9447TIP3    H149756   1.020   0.594  13.523
 9447TIP3    H249757   0.943   0.549  13.400
 9448TIP3   OH249758   3.677   4.581  14.051
 9448TIP3    H149759   3.599   4.636  14.053
 9448TIP3    H249760   3.649   4.498  14.088
 9449TIP3   OH249761   4.265   3.563  12.731
 9449TIP3    H149762   4.183   3.597  12.764
 9449TIP3    H249763   4.321   3.554  12.808
 9450TIP3   OH249764   0.533   0.860  13.437
 9450TIP3    H149765   0.488   0.835  13.356
 9450TIP3    H249766   0.505   0.794  13.500
 9451TIP3   OH249767   5.357   2.182  14.143
 9451TIP3    H149768   5.329   2.128  14.069
 9451TIP3    H249769   5.295   2.161  14.213
 9452TIP3   OH249770   3.236   0.279   3.500
 9452TIP3    H149771   3.190   0.352   3.459
 9452TIP3    H249772   3.172   0.241   3.561
 9453TIP3   OH249773   3.854   3.884   0.068
 9453TIP3    H149774   3.902   3.806   0.040
 9453TIP3    H249775   3.922   3.950   0.083
 9454TIP3   OH249776   4.095   1.947  13.027
 9454TIP3    H149777   4.182   1.969  13.060
 9454TIP3    H249778   4.105   1.950  12.932
 9455TIP3   OH249779   3.306   2.502  11.995
 9455TIP3    H149780   3.334   2.552  11.918
 9455TIP3    H249781   3.339   2.414  11.979
 9456TIP3   OH249782   3.763   5.020  14.295
 9456TIP3    H149783   3.788   5.101  14.250
 9456TIP3    H249784   3.668   5.028  14.306
 9457TIP3   OH249785   2.829   0.820   5.042
 9457TIP3    H149786   2.765   0.830   5.112
 9457TIP3    H249787   2.899   0.882   5.063
 9458TIP3   OH249788   3.873   5.824   5.799
 9458TIP3    H149789   3.896   5.734   5.775
 9458TIP3    H249790   3.939   5.849   5.863
 9459TIP3   OH249791   3.329   5.445  14.635
 9459TIP3    H149792   3.246   5.437  14.682
 9459TIP3    H249793   3.337   5.539  14.616
 9460TIP3   OH249794   4.078   3.153  13.238
 9460TIP3    H149795   4.086   3.142  13.143
 9460TIP3    H249796   4.001   3.101  13.262
 9461TIP3   OH249797   2.935   4.499  11.365
 9461TIP3    H149798   3.015   4.529  11.322
 9461TIP3    H249799   2.956   4.412  11.399
 9462TIP3   OH249800   4.834   2.423   1.612
 9462TIP3    H149801   4.839   2.369   1.533
 9462TIP3    H249802   4.785   2.501   1.585
 9463TIP3   OH249803   4.626   2.669   3.189
 9463TIP3    H149804   4.696   2.712   3.239
 9463TIP3    H249805   4.564   2.740   3.169
 9464TIP3   OH249806   0.862   0.555  13.878
 9464TIP3    H149807   0.885   0.636  13.832
 9464TIP3    H249808   0.925   0.491  13.846
 9465TIP3   OH249809   6.311   1.689   5.768
 9465TIP3    H149810   6.333   1.751   5.837
 9465TIP3    H249811   6.354   1.607   5.794
 9466TIP3   OH249812   5.830   2.755  15.867
 9466TIP3    H149813   5.767   2.745  15.938
 9466TIP3    H249814   5.808   2.839  15.827
 9467TIP3   OH249815   2.306   0.989   5.517
 9467TIP3    H149816   2.247   1.049   5.561
 9467TIP3    H249817   2.385   1.040   5.500
 9468TIP3   OH249818   3.661   0.734   6.519
 9468TIP3    H149819   3.651   0.794   6.446
 9468TIP3    H249820   3.584   0.677   6.514
 9469TIP3   OH249821   6.314   2.227   4.143
 9469TIP3    H149822   6.351   2.315   4.140
 9469TIP3    H249823   6.346   2.185   4.063
 9470TIP3   OH249824   5.955   1.782  15.583
 9470TIP3    H149825   5.949   1.692  15.551
 9470TIP3    H249826   5.865   1.814  15.583
 9471TIP3   OH249827   2.636   1.604  14.142
 9471TIP3    H149828   2.616   1.675  14.082
 9471TIP3    H249829   2.731   1.612  14.157
 9472TIP3   OH249830   3.417   5.658   3.367
 9472TIP3    H149831   3.422   5.658   3.271
 9472TIP3    H249832   3.414   5.566   3.391
 9473TIP3   OH249833   2.852   4.568  15.636
 9473TIP3    H149834   2.853   4.613  15.721
 9473TIP3    H249835   2.764   4.533  15.627
 9474TIP3   OH249836   0.956   5.819   1.615
 9474TIP3    H149837   0.929   5.832   1.706
 9474TIP3    H249838   0.900   5.749   1.583
 9475TIP3   OH249839   6.480   1.684  14.949
 9475TIP3    H149840   6.414   1.698  14.881
 9475TIP3    H249841   6.432   1.695  15.031
 9476TIP3   OH249842   5.079   4.552   5.741
 9476TIP3    H149843   5.090   4.566   5.835
 9476TIP3    H249844   5.020   4.477   5.734
 9477TIP3   OH249845   4.570   4.856   5.010
 9477TIP3    H149846   4.526   4.936   5.039
 9477TIP3    H249847   4.647   4.848   5.066
 9478TIP3   OH249848   2.738   1.837  15.220
 9478TIP3    H149849   2.830   1.832  15.246
 9478TIP3    H249850   2.690   1.819  15.300
 9479TIP3   OH249851   5.652   4.992   0.538
 9479TIP3    H149852   5.675   5.083   0.558
 9479TIP3    H249853   5.558   4.995   0.519
 9480TIP3   OH249854   3.056   5.909   0.953
 9480TIP3    H149855   3.070   5.876   0.864
 9480TIP3    H249856   3.063   5.831   1.008
 9481TIP3   OH249857   3.899   5.878   2.720
 9481TIP3    H149858   3.853   5.959   2.698
 9481TIP3    H249859   3.930   5.845   2.635
 9482TIP3   OH249860   6.692   6.132   2.019
 9482TIP3    H149861   6.691   6.224   1.994
 9482TIP3    H249862   6.645   6.130   2.103
 9483TIP3   OH249863   0.595   4.326  15.212
 9483TIP3    H149864   0.519   4.312  15.155
 9483TIP3    H249865   0.670   4.316  15.153
 9484TIP3   OH249866   1.441   3.502   4.092
 9484TIP3    H149867   1.509   3.555   4.134
 9484TIP3    H249868   1.390   3.467   4.166
 9485TIP3   OH249869   4.341   2.629   0.557
 9485TIP3    H149870   4.383   2.576   0.624
 9485TIP3    H249871   4.336   2.717   0.596
 9486TIP3   OH249872   0.579   1.940  11.317
 9486TIP3    H149873   0.526   1.923  11.239
 9486TIP3    H249874   0.669   1.945  11.286
 9487TIP3   OH249875   1.239   3.757  11.038
 9487TIP3    H149876   1.310   3.714  10.990
 9487TIP3    H249877   1.279   3.834  11.077
 9488TIP3   OH249878   5.822   6.472  10.605
 9488TIP3    H149879   5.741   6.422  10.605
 9488TIP3    H249880   5.847   6.479  10.697
 9489TIP3   OH249881   6.542   5.933  13.035
 9489TIP3    H149882   6.468   5.873  13.034
 9489TIP3    H249883   6.611   5.888  12.986
 9490TIP3   OH249884   3.202   0.220  12.363
 9490TIP3    H149885   3.237   0.255  12.445
 9490TIP3    H249886   3.172   0.132  12.385
 9491TIP3   OH249887   0.967   5.853  11.886
 9491TIP3    H149888   0.881   5.850  11.928
 9491TIP3    H249889   0.996   5.762  11.885
 9492TIP3   OH249890   4.512   5.356   3.682
 9492TIP3    H149891   4.515   5.312   3.766
 9492TIP3    H249892   4.567   5.433   3.694
 9493TIP3   OH249893   0.621   1.685  17.133
 9493TIP3    H149894   0.684   1.614  17.139
 9493TIP3    H249895   0.611   1.716  17.223
 9494TIP3   OH249896   2.007   1.867   1.116
 9494TIP3    H149897   2.062   1.873   1.037
 9494TIP3    H249898   2.049   1.800   1.169
 9495TIP3   OH249899   2.805   4.345  14.199
 9495TIP3    H149900   2.877   4.338  14.136
 9495TIP3    H249901   2.804   4.438  14.224
 9496TIP3   OH249902   0.090   5.939  10.978
 9496TIP3    H149903   0.167   5.995  10.984
 9496TIP3    H249904   0.049   5.962  10.895
 9497TIP3   OH249905   4.790   3.305  11.643
 9497TIP3    H149906   4.772   3.399  11.652
 9497TIP3    H249907   4.860   3.301  11.578
 9498TIP3   OH249908   3.431   0.105   5.851
 9498TIP3    H149909   3.434   0.019   5.893
 9498TIP3    H249910   3.486   0.161   5.907
 9499TIP3   OH249911   2.916   0.083   4.489
 9499TIP3    H149912   2.914   0.014   4.422
 9499TIP3    H249913   2.991   0.060   4.544
 9500TIP3   OH249914   2.200   3.579   1.890
 9500TIP3    H149915   2.242   3.641   1.831
 9500TIP3    H249916   2.272   3.526   1.925
 9501TIP3   OH249917   2.115   3.934   0.004
 9501TIP3    H149918   2.115   3.890  -0.081
 9501TIP3    H249919   2.035   3.904   0.047
 9502TIP3   OH249920   2.673   4.641   1.506
 9502TIP3    H149921   2.674   4.575   1.575
 9502TIP3    H249922   2.735   4.608   1.440
 9503TIP3   OH249923   3.866   5.107   3.923
 9503TIP3    H149924   3.866   5.181   3.984
 9503TIP3    H249925   3.955   5.072   3.927
 9504TIP3   OH249926   4.285   3.737  16.889
 9504TIP3    H149927   4.232   3.676  16.838
 9504TIP3    H249928   4.338   3.783  16.823
 9505TIP3   OH249929   2.463   4.854   4.384
 9505TIP3    H149930   2.457   4.862   4.479
 9505TIP3    H249931   2.429   4.767   4.364
 9506TIP3   OH249932   2.567   0.176  13.918
 9506TIP3    H149933   2.642   0.158  13.974
 9506TIP3    H249934   2.492   0.180  13.978
 9507TIP3   OH249935   0.922   1.836   0.073
 9507TIP3    H149936   1.006   1.847   0.028
 9507TIP3    H249937   0.910   1.741   0.081
 9508TIP3   OH249938   4.965   4.922   4.816
 9508TIP3    H149939   4.964   4.827   4.827
 9508TIP3    H249940   4.896   4.940   4.752
 9509TIP3   OH249941   1.844   0.180  14.903
 9509TIP3    H149942   1.780   0.119  14.939
 9509TIP3    H249943   1.926   0.131  14.901
 9510TIP3   OH249944   5.913   3.420  16.157
 9510TIP3    H149945   5.829   3.430  16.201
 9510TIP3    H249946   5.903   3.341  16.104
 9511TIP3   OH249947   5.152   5.441  16.778
 9511TIP3    H149948   5.081   5.390  16.738
 9511TIP3    H249949   5.137   5.433  16.873
 9512TIP3   OH249950   6.490   1.736  16.009
 9512TIP3    H149951   6.441   1.817  15.998
 9512TIP3    H249952   6.487   1.694  15.923
 9513TIP3   OH249953   3.659   4.328   4.870
 9513TIP3    H149954   3.608   4.247   4.866
 9513TIP3    H249955   3.701   4.326   4.956
 9514TIP3   OH249956   3.353   2.947  12.985
 9514TIP3    H149957   3.275   3.002  12.979
 9514TIP3    H249958   3.405   2.987  13.055
 9515TIP3   OH249959   1.251   2.767  16.239
 9515TIP3    H149960   1.246   2.863  16.237
 9515TIP3    H249961   1.229   2.740  16.149
 9516TIP3   OH249962   1.725   4.904   1.277
 9516TIP3    H149963   1.811   4.944   1.262
 9516TIP3    H249964   1.743   4.810   1.277
 9517TIP3   OH249965   1.962   0.329  12.075
 9517TIP3    H149966   1.893   0.394  12.091
 9517TIP3    H249967   1.915   0.246  12.065
 9518TIP3   OH249968   6.598   0.280  14.117
 9518TIP3    H149969   6.670   0.221  14.140
 9518TIP3    H249970   6.530   0.261  14.182
 9519TIP3   OH249971   6.719   4.973  13.201
 9519TIP3    H149972   6.626   4.955  13.187
 9519TIP3    H249973   6.742   5.036  13.132
 9520TIP3   OH249974   4.303   2.591   6.461
 9520TIP3    H149975   4.373   2.616   6.521
 9520TIP3    H249976   4.324   2.501   6.436
 9521TIP3   OH249977   1.708   1.657   3.425
 9521TIP3    H149978   1.784   1.683   3.476
 9521TIP3    H249979   1.678   1.576   3.466
 9522TIP3   OH249980   3.905   6.579  12.540
 9522TIP3    H149981   3.986   6.628  12.525
 9522TIP3    H249982   3.842   6.617  12.480
 9523TIP3   OH249983   4.210   0.190  16.306
 9523TIP3    H149984   4.125   0.187  16.262
 9523TIP3    H249985   4.270   0.226  16.240
 9524TIP3   OH249986   6.140   2.664   2.094
 9524TIP3    H149987   6.138   2.591   2.031
 9524TIP3    H249988   6.094   2.735   2.049
 9525TIP3   OH249989   0.218   1.849  14.208
 9525TIP3    H149990   0.300   1.857  14.158
 9525TIP3    H249991   0.241   1.876  14.297
 9526TIP3   OH249992   3.627   6.004  10.713
 9526TIP3    H149993   3.617   6.075  10.650
 9526TIP3    H249994   3.558   6.018  10.777
 9527TIP3   OH249995   4.872   1.243   1.789
 9527TIP3    H149996   4.915   1.159   1.772
 9527TIP3    H249997   4.885   1.257   1.883
 9528TIP3   OH249998   3.098   4.495  15.905
 9528TIP3    H149999   3.043   4.420  15.925
 9528TIP3    H250000   3.037   4.567  15.893
 9529TIP3   OH250001   2.457   1.500  16.726
 9529TIP3    H150002   2.446   1.545  16.809
 9529TIP3    H250003   2.372   1.461  16.708
 9530TIP3   OH250004   5.879   2.043   4.467
 9530TIP3    H150005   5.970   2.051   4.495
 9530TIP3    H250006   5.885   2.018   4.375
 9531TIP3   OH250007   0.109   0.648  11.397
 9531TIP3    H150008   0.051   0.619  11.327
 9531TIP3    H250009   0.075   0.734  11.422
 9532TIP3   OH250010   4.438   1.735  13.996
 9532TIP3    H150011   4.362   1.678  13.990
 9532TIP3    H250012   4.404   1.818  14.030
 9533TIP3   OH250013   1.838   2.400   5.662
 9533TIP3    H150014   1.745   2.408   5.684
 9533TIP3    H250015   1.884   2.414   5.745
 9534TIP3   OH250016   3.935   2.742  11.391
 9534TIP3    H150017   3.941   2.837  11.387
 9534TIP3    H250018   3.921   2.723  11.484
 9535TIP3   OH250019   2.073   5.149   3.286
 9535TIP3    H150020   2.049   5.216   3.350
 9535TIP3    H250021   2.020   5.073   3.309
 9536TIP3   OH250022   5.459   6.045   1.962
 9536TIP3    H150023   5.529   6.070   1.901
 9536TIP3    H250024   5.418   5.969   1.920
 9537TIP3   OH250025   4.978   4.626   1.906
 9537TIP3    H150026   5.015   4.704   1.947
 9537TIP3    H250027   4.916   4.660   1.842
 9538TIP3   OH250028   1.012   1.334  17.125
 9538TIP3    H150029   1.026   1.258  17.181
 9538TIP3    H250030   1.064   1.316  17.046
 9539TIP3   OH250031   3.594   2.278   4.451
 9539TIP3    H150032   3.655   2.300   4.521
 9539TIP3    H250033   3.508   2.298   4.487
 9540TIP3   OH250034   4.703   6.750  13.961
 9540TIP3    H150035   4.621   6.793  13.987
 9540TIP3    H250036   4.769   6.819  13.964
 9541TIP3   OH250037   2.500   2.809  14.190
 9541TIP3    H150038   2.502   2.744  14.260
 9541TIP3    H250039   2.587   2.805  14.151
 9542TIP3   OH250040   5.720   5.979   2.037
 9542TIP3    H150041   5.723   5.955   2.130
 9542TIP3    H250042   5.711   6.074   2.037
 9543TIP3   OH250043   1.628   4.186   2.954
 9543TIP3    H150044   1.709   4.236   2.963
 9543TIP3    H250045   1.652   4.097   2.981
 9544TIP3   OH250046   5.644   5.290  11.805
 9544TIP3    H150047   5.688   5.216  11.763
 9544TIP3    H250048   5.606   5.253  11.885
 9545TIP3   OH250049   3.703   5.710  10.425
 9545TIP3    H150050   3.778   5.702  10.366
 9545TIP3    H250051   3.676   5.620  10.440
 9546TIP3   OH250052   3.784   0.562  15.516
 9546TIP3    H150053   3.708   0.621  15.521
 9546TIP3    H250054   3.858   0.620  15.496
 9547TIP3   OH250055   2.908   5.357   0.420
 9547TIP3    H150056   2.902   5.418   0.493
 9547TIP3    H250057   3.001   5.357   0.396
 9548TIP3   OH250058   0.390   1.311   3.152
 9548TIP3    H150059   0.422   1.226   3.184
 9548TIP3    H250060   0.325   1.338   3.218
 9549TIP3   OH250061   2.684   0.058   0.240
 9549TIP3    H150062   2.614   0.071   0.175
 9549TIP3    H250063   2.646   0.086   0.323
 9550TIP3   OH250064   1.868   5.069  15.559
 9550TIP3    H150065   1.952   5.116  15.553
 9550TIP3    H250066   1.891   4.985  15.599
 9551TIP3   OH250067   4.116   5.956  15.268
 9551TIP3    H150068   4.072   6.001  15.195
 9551TIP3    H250069   4.158   6.027  15.318
 9552TIP3   OH250070   4.783   5.160  15.611
 9552TIP3    H150071   4.779   5.119  15.697
 9552TIP3    H250072   4.830   5.243  15.625
 9553TIP3   OH250073   2.916   4.465  15.076
 9553TIP3    H150074   2.859   4.542  15.080
 9553TIP3    H250075   3.005   4.501  15.077
 9554TIP3   OH250076   6.458   5.070   3.830
 9554TIP3    H150077   6.482   5.045   3.741
 9554TIP3    H250078   6.421   5.158   3.820
 9555TIP3   OH250079   1.041   2.072   3.268
 9555TIP3    H150080   1.112   2.064   3.332
 9555TIP3    H250081   1.082   2.115   3.193
 9556TIP3   OH250082   0.372   3.016  16.210
 9556TIP3    H150083   0.280   3.026  16.183
 9556TIP3    H250084   0.397   3.103  16.242
 9557TIP3   OH250085   2.675   3.013   1.988
 9557TIP3    H150086   2.721   3.014   1.904
 9557TIP3    H250087   2.729   3.068   2.045
 9558TIP3   OH250088   0.363   0.314   5.499
 9558TIP3    H150089   0.288   0.259   5.478
 9558TIP3    H250090   0.334   0.368   5.573
 9559TIP3   OH250091   0.398   4.908  15.381
 9559TIP3    H150092   0.367   4.836  15.436
 9559TIP3    H250093   0.492   4.910  15.396
 9560TIP3   OH250094   4.702   5.906   0.490
 9560TIP3    H150095   4.792   5.872   0.489
 9560TIP3    H250096   4.648   5.832   0.515
 9561TIP3   OH250097   6.762   3.130  13.503
 9561TIP3    H150098   6.685   3.077  13.482
 9561TIP3    H250099   6.730   3.195  13.566
 9562TIP3   OH250100   0.228   3.955   6.000
 9562TIP3    H150101   0.249   3.911   5.918
 9562TIP3    H250102   0.278   3.906   6.066
 9563TIP3   OH250103   2.809   3.216   6.045
 9563TIP3    H150104   2.827   3.299   6.000
 9563TIP3    H250105   2.757   3.241   6.121
 9564TIP3   OH250106   5.679   4.523  14.945
 9564TIP3    H150107   5.731   4.563  14.875
 9564TIP3    H250108   5.598   4.496  14.902
 9565TIP3   OH250109   4.069   3.095   0.116
 9565TIP3    H150110   4.043   3.039   0.043
 9565TIP3    H250111   4.165   3.100   0.109
 9566TIP3   OH250112   5.245   2.987  16.627
 9566TIP3    H150113   5.241   3.079  16.651
 9566TIP3    H250114   5.338   2.972  16.609
 9567TIP3   OH250115   0.695   1.995   4.191
 9567TIP3    H150116   0.684   1.903   4.168
 9567TIP3    H250117   0.755   2.030   4.125
 9568TIP3   OH250118   6.594   4.670   4.608
 9568TIP3    H150119   6.678   4.705   4.637
 9568TIP3    H250120   6.559   4.736   4.549
 9569TIP3   OH250121   3.365   6.670  15.140
 9569TIP3    H150122   3.351   6.742  15.078
 9569TIP3    H250123   3.280   6.625  15.143
 9570TIP3   OH250124   5.348   2.486   0.791
 9570TIP3    H150125   5.260   2.508   0.820
 9570TIP3    H250126   5.364   2.542   0.715
 9571TIP3   OH250127   0.819   5.454   2.171
 9571TIP3    H150128   0.848   5.414   2.253
 9571TIP3    H250129   0.812   5.547   2.191
 9572TIP3   OH250130   3.915   4.100   5.099
 9572TIP3    H150131   4.005   4.127   5.120
 9572TIP3    H250132   3.861   4.174   5.125
 9573TIP3   OH250133   1.776   2.982  12.575
 9573TIP3    H150134   1.827   3.024  12.643
 9573TIP3    H250135   1.773   2.889  12.600
 9574TIP3   OH250136   6.249   0.586  15.747
 9574TIP3    H150137   6.224   0.644  15.675
 9574TIP3    H250138   6.272   0.646  15.818
 9575TIP3   OH250139   5.956   3.263   2.347
 9575TIP3    H150140   5.978   3.174   2.376
 9575TIP3    H250141   5.878   3.286   2.399
 9576TIP3   OH250142   6.763   5.690  16.876
 9576TIP3    H150143   6.734   5.609  16.834
 9576TIP3    H250144   6.683   5.742  16.888
 9577TIP3   OH250145   5.951   0.031   3.678
 9577TIP3    H150146   5.935  -0.031   3.607
 9577TIP3    H250147   5.962   0.116   3.634
 9578TIP3   OH250148   1.133   5.137   5.585
 9578TIP3    H150149   1.188   5.215   5.591
 9578TIP3    H250150   1.158   5.097   5.502
 9579TIP3   OH250151   4.553   3.513   0.720
 9579TIP3    H150152   4.561   3.451   0.793
 9579TIP3    H250153   4.642   3.521   0.686
 9580TIP3   OH250154   3.536   4.950  15.589
 9580TIP3    H150155   3.503   4.898  15.516
 9580TIP3    H250156   3.526   5.041  15.560
 9581TIP3   OH250157   6.509   4.790  14.626
 9581TIP3    H150158   6.453   4.717  14.601
 9581TIP3    H250159   6.594   4.750  14.644
 9582TIP3   OH250160   3.049   1.284  16.348
 9582TIP3    H150161   3.079   1.203  16.390
 9582TIP3    H250162   2.957   1.292  16.374
 9583TIP3   OH250163   3.491   4.932   2.786
 9583TIP3    H150164   3.583   4.907   2.776
 9583TIP3    H250165   3.456   4.928   2.697
 9584TIP3   OH250166   2.150   4.216  15.097
 9584TIP3    H150167   2.206   4.196  15.172
 9584TIP3    H250168   2.186   4.298  15.061
 9585TIP3   OH250169   3.174   5.911  11.449
 9585TIP3    H150170   3.152   5.842  11.386
 9585TIP3    H250171   3.188   5.989  11.395
 9586TIP3   OH250172   2.240   6.062   5.261
 9586TIP3    H150173   2.315   6.045   5.204
 9586TIP3    H250174   2.178   5.991   5.243
 9587TIP3   OH250175   5.467   6.468   5.214
 9587TIP3    H150176   5.435   6.556   5.237
 9587TIP3    H250177   5.428   6.411   5.279
 9588TIP3   OH250178   4.323   3.969   4.732
 9588TIP3    H150179   4.266   4.030   4.686
 9588TIP3    H250180   4.279   3.953   4.815
 9589TIP3   OH250181   0.338   3.258  15.062
 9589TIP3    H150182   0.324   3.352  15.052
 9589TIP3    H250183   0.297   3.219  14.984
 9590TIP3   OH250184   3.239   6.521  11.775
 9590TIP3    H150185   3.313   6.582  11.770
 9590TIP3    H250186   3.163   6.578  11.785
 9591TIP3   OH250187   4.906   4.359  14.748
 9591TIP3    H150188   4.872   4.440  14.786
 9591TIP3    H250189   4.829   4.306  14.731
 9592TIP3   OH250190   2.096   0.954   4.165
 9592TIP3    H150191   2.034   0.886   4.136
 9592TIP3    H250192   2.052   1.037   4.144
 9593TIP3   OH250193   3.895   5.514  14.823
 9593TIP3    H150194   3.850   5.496  14.906
 9593TIP3    H250195   3.900   5.429  14.780
 9594TIP3   OH250196   5.260   2.440  14.709
 9594TIP3    H150197   5.240   2.371  14.773
 9594TIP3    H250198   5.266   2.394  14.625
 9595TIP3   OH250199   6.416   2.362  12.295
 9595TIP3    H150200   6.380   2.412  12.369
 9595TIP3    H250201   6.357   2.287  12.287
 9596TIP3   OH250202   5.694   4.752  16.388
 9596TIP3    H150203   5.775   4.720  16.348
 9596TIP3    H250204   5.723   4.800  16.466
 9597TIP3   OH250205   5.013   3.136   0.359
 9597TIP3    H150206   5.011   3.110   0.268
 9597TIP3    H250207   5.032   3.055   0.407
 9598TIP3   OH250208   3.368   2.330   0.736
 9598TIP3    H150209   3.405   2.411   0.772
 9598TIP3    H250210   3.330   2.356   0.652
 9599TIP3   OH250211   3.296   2.246  10.676
 9599TIP3    H150212   3.313   2.317  10.739
 9599TIP3    H250213   3.318   2.284  10.591
 9600TIP3   OH250214   5.899   2.810   0.611
 9600TIP3    H150215   5.988   2.834   0.588
 9600TIP3    H250216   5.880   2.860   0.691
 9601TIP3   OH250217   3.776   5.157   4.785
 9601TIP3    H150218   3.747   5.248   4.778
 9601TIP3    H250219   3.700   5.105   4.757
 9602TIP3   OH250220   2.234   5.366   1.474
 9602TIP3    H150221   2.318   5.340   1.438
 9602TIP3    H250222   2.240   5.345   1.567
 9603TIP3   OH250223   5.787   3.705   4.509
 9603TIP3    H150224   5.795   3.628   4.452
 9603TIP3    H250225   5.724   3.679   4.576
 9604TIP3   OH250226   2.744   1.972   3.631
 9604TIP3    H150227   2.707   2.057   3.659
 9604TIP3    H250228   2.839   1.985   3.636
 9605TIP3   OH250229   1.695   6.667  15.794
 9605TIP3    H150230   1.701   6.760  15.816
 9605TIP3    H250231   1.784   6.634  15.801
 9606TIP3   OH250232   6.144   0.038  14.453
 9606TIP3    H150233   6.052   0.015  14.440
 9606TIP3    H250234   6.159   0.026  14.546
 9607TIP3   OH250235   0.733   0.192  11.437
 9607TIP3    H150236   0.760   0.283  11.450
 9607TIP3    H250237   0.640   0.192  11.458
 9608TIP3   OH250238   1.333   3.059   0.192
 9608TIP3    H150239   1.281   3.113   0.132
 9608TIP3    H250240   1.272   2.992   0.223
 9609TIP3   OH250241   6.609   0.330  12.048
 9609TIP3    H150242   6.671   0.344  12.120
 9609TIP3    H250243   6.640   0.389  11.979
 9610TIP3   OH250244   5.113   2.361  16.268
 9610TIP3    H150245   5.044   2.421  16.297
 9610TIP3    H250246   5.132   2.307  16.345
 9611TIP3   OH250247   6.496   3.315  14.880
 9611TIP3    H150248   6.577   3.348  14.920
 9611TIP3    H250249   6.524   3.271  14.800
 9612TIP3   OH250250   2.567   1.332   5.818
 9612TIP3    H150251   2.510   1.352   5.744
 9612TIP3    H250252   2.585   1.238   5.810
 9613TIP3   OH250253   1.066   2.677  10.907
 9613TIP3    H150254   1.037   2.587  10.923
 9613TIP3    H250255   1.108   2.703  10.990
 9614TIP3   OH250256   2.891   6.348  13.631
 9614TIP3    H150257   2.827   6.278  13.633
 9614TIP3    H250258   2.920   6.357  13.722
 9615TIP3   OH250259   1.215   3.634  13.136
 9615TIP3    H150260   1.269   3.555  13.136
 9615TIP3    H250261   1.182   3.640  13.226
 9616TIP3   OH250262   3.531   2.518  14.118
 9616TIP3    H150263   3.551   2.547  14.030
 9616TIP3    H250264   3.505   2.597  14.165
 9617TIP3   OH250265   0.750   6.079   4.385
 9617TIP3    H150266   0.736   6.125   4.302
 9617TIP3    H250267   0.826   6.122   4.425
 9618TIP3   OH250268   4.508   0.528   5.208
 9618TIP3    H150269   4.472   0.486   5.286
 9618TIP3    H250270   4.516   0.621   5.232
 9619TIP3   OH250271   0.309   6.074   4.401
 9619TIP3    H150272   0.239   6.088   4.465
 9619TIP3    H250273   0.389   6.103   4.446
 9620TIP3   OH250274   5.758   0.877  12.461
 9620TIP3    H150275   5.688   0.921  12.509
 9620TIP3    H250276   5.733   0.884  12.369
 9621TIP3   OH250277   6.150   4.680  13.775
 9621TIP3    H150278   6.173   4.751  13.835
 9621TIP3    H250279   6.088   4.719  13.714
 9622TIP3   OH250280   1.318   0.725  13.867
 9622TIP3    H150281   1.256   0.782  13.912
 9622TIP3    H250282   1.319   0.757  13.777
 9623TIP3   OH250283   5.818   0.311  16.912
 9623TIP3    H150284   5.803   0.332  17.004
 9623TIP3    H250285   5.784   0.386  16.865
 9624TIP3   OH250286   4.151   3.302   4.615
 9624TIP3    H150287   4.073   3.250   4.635
 9624TIP3    H250288   4.123   3.393   4.622
 9625TIP3   OH250289   3.059   2.889   2.714
 9625TIP3    H150290   3.104   2.805   2.708
 9625TIP3    H250291   3.086   2.937   2.635
 9626TIP3   OH250292   2.671   3.193   2.824
 9626TIP3    H150293   2.603   3.260   2.816
 9626TIP3    H250294   2.623   3.112   2.842
 9627TIP3   OH250295   5.793   0.100   4.384
 9627TIP3    H150296   5.710   0.054   4.401
 9627TIP3    H250297   5.810   0.085   4.291
 9628TIP3   OH250298   2.194   2.022   6.661
 9628TIP3    H150299   2.181   1.966   6.737
 9628TIP3    H250300   2.237   1.965   6.596
 9629TIP3   OH250301   3.831   4.378  15.895
 9629TIP3    H150302   3.864   4.316  15.829
 9629TIP3    H250303   3.801   4.453  15.844
 9630TIP3   OH250304   6.125   3.333  13.275
 9630TIP3    H150305   6.219   3.354  13.273
 9630TIP3    H250306   6.106   3.317  13.367
 9631TIP3   OH250307   6.218   4.578   4.520
 9631TIP3    H150308   6.198   4.533   4.602
 9631TIP3    H250309   6.137   4.572   4.468
 9632TIP3   OH250310   4.528   3.417   3.981
 9632TIP3    H150311   4.608   3.441   3.933
 9632TIP3    H250312   4.487   3.349   3.927
 9633TIP3   OH250313   0.397   4.963   3.675
 9633TIP3    H150314   0.475   5.019   3.679
 9633TIP3    H250315   0.353   4.988   3.594
 9634TIP3   OH250316   3.744   4.516   4.676
 9634TIP3    H150317   3.696   4.450   4.727
 9634TIP3    H250318   3.832   4.515   4.713
 9635TIP3   OH250319   2.409   4.445  15.167
 9635TIP3    H150320   2.480   4.385  15.189
 9635TIP3    H250321   2.443   4.497  15.094
 9636TIP3   OH250322   6.265   1.688  12.436
 9636TIP3    H150323   6.292   1.629  12.506
 9636TIP3    H250324   6.300   1.647  12.356
 9637TIP3   OH250325   5.228   0.814  15.672
 9637TIP3    H150326   5.207   0.720  15.669
 9637TIP3    H250327   5.287   0.822  15.747
 9638TIP3   OH250328   4.638   1.317   2.620
 9638TIP3    H150329   4.650   1.260   2.544
 9638TIP3    H250330   4.715   1.301   2.674
 9639TIP3   OH250331   2.644   0.641   3.111
 9639TIP3    H150332   2.603   0.721   3.079
 9639TIP3    H250333   2.582   0.572   3.087
 9640TIP3   OH250334   6.692   0.600  14.369
 9640TIP3    H150335   6.614   0.655  14.363
 9640TIP3    H250336   6.659   0.511  14.362
 9641TIP3   OH250337   2.726   4.015   3.189
 9641TIP3    H150338   2.674   4.094   3.179
 9641TIP3    H250339   2.683   3.950   3.132
 9642TIP3   OH250340   2.593   4.668   1.089
 9642TIP3    H150341   2.651   4.630   1.023
 9642TIP3    H250342   2.531   4.597   1.108
 9643TIP3   OH250343   1.496   1.141  13.437
 9643TIP3    H150344   1.423   1.109  13.384
 9643TIP3    H250345   1.487   1.236  13.436
 9644TIP3   OH250346   2.960   3.638   3.621
 9644TIP3    H150347   2.989   3.568   3.679
 9644TIP3    H250348   2.867   3.648   3.639
 9645TIP3   OH250349   4.469   5.129  14.214
 9645TIP3    H150350   4.483   5.039  14.244
 9645TIP3    H250351   4.377   5.132  14.189
 9646TIP3   OH250352   1.570   2.995   1.854
 9646TIP3    H150353   1.649   2.964   1.900
 9646TIP3    H250354   1.571   3.090   1.866
 9647TIP3   OH250355   3.875   1.937   1.375
 9647TIP3    H150356   3.909   2.023   1.401
 9647TIP3    H250357   3.952   1.880   1.375
 9648TIP3   OH250358   4.246   1.013   1.016
 9648TIP3    H150359   4.151   1.005   1.028
 9648TIP3    H250360   4.275   0.926   0.991
 9649TIP3   OH250361   2.929   2.537  16.173
 9649TIP3    H150362   3.021   2.513  16.164
 9649TIP3    H250363   2.923   2.625  16.136
 9650TIP3   OH250364   5.865   3.235   2.888
 9650TIP3    H150365   5.903   3.322   2.879
 9650TIP3    H250366   5.874   3.214   2.981
 9651TIP3   OH250367   0.632   5.905   3.953
 9651TIP3    H150368   0.610   5.913   4.046
 9651TIP3    H250369   0.613   5.992   3.917
 9652TIP3   OH250370   0.725   0.719  14.699
 9652TIP3    H150371   0.727   0.777  14.623
 9652TIP3    H250372   0.653   0.658  14.680
 9653TIP3   OH250373   0.255   5.492   1.132
 9653TIP3    H150374   0.226   5.466   1.220
 9653TIP3    H250375   0.193   5.450   1.073
 9654TIP3   OH250376   4.183   4.895  15.659
 9654TIP3    H150377   4.258   4.858  15.612
 9654TIP3    H250378   4.193   4.990  15.648
 9655TIP3   OH250379   0.440   2.621   0.519
 9655TIP3    H150380   0.472   2.592   0.605
 9655TIP3    H250381   0.346   2.631   0.531
 9656TIP3   OH250382   5.856   0.894  15.215
 9656TIP3    H150383   5.797   0.932  15.150
 9656TIP3    H250384   5.930   0.953  15.219
 9657TIP3   OH250385   2.008   6.478  15.668
 9657TIP3    H150386   2.020   6.555  15.723
 9657TIP3    H250387   2.095   6.441  15.658
 9658TIP3   OH250388   4.696   4.630   4.721
 9658TIP3    H150389   4.628   4.619   4.788
 9658TIP3    H250390   4.695   4.548   4.672
 9659TIP3   OH250391   5.819   4.661  11.460
 9659TIP3    H150392   5.911   4.665  11.436
 9659TIP3    H250393   5.772   4.656  11.376
 9660TIP3   OH250394   3.073   6.218   5.061
 9660TIP3    H150395   3.003   6.275   5.028
 9660TIP3    H250396   3.144   6.279   5.084
 9661TIP3   OH250397   0.239   6.655   2.209
 9661TIP3    H150398   0.195   6.620   2.132
 9661TIP3    H250399   0.208   6.745   2.215
 9662TIP3   OH250400   6.389   3.938   0.314
 9662TIP3    H150401   6.307   3.887   0.316
 9662TIP3    H250402   6.424   3.929   0.403
 9663TIP3   OH250403   3.388   1.999   6.387
 9663TIP3    H150404   3.364   2.054   6.461
 9663TIP3    H250405   3.479   1.973   6.405
 9664TIP3   OH250406   0.923   2.532   4.819
 9664TIP3    H150407   0.978   2.507   4.894
 9664TIP3    H250408   0.848   2.576   4.859
 9665TIP3   OH250409   0.884   6.769  11.599
 9665TIP3    H150410   0.835   6.688  11.589
 9665TIP3    H250411   0.832   6.834  11.552
 9666TIP3   OH250412   4.394   2.477  14.542
 9666TIP3    H150413   4.412   2.570  14.555
 9666TIP3    H250414   4.430   2.458  14.455
 9667TIP3   OH250415   2.639   5.807   0.483
 9667TIP3    H150416   2.614   5.717   0.461
 9667TIP3    H250417   2.563   5.860   0.456
 9668TIP3   OH250418   1.940   0.723   5.632
 9668TIP3    H150419   1.847   0.737   5.615
 9668TIP3    H250420   1.943   0.657   5.701
 9669TIP3   OH250421   2.367   3.012   5.357
 9669TIP3    H150422   2.360   3.100   5.394
 9669TIP3    H250423   2.358   2.954   5.432
 9670TIP3   OH250424   6.195   1.383  11.967
 9670TIP3    H150425   6.190   1.290  11.945
 9670TIP3    H250426   6.144   1.392  12.047
 9671TIP3   OH250427   2.776   3.494   6.767
 9671TIP3    H150428   2.781   3.589   6.753
 9671TIP3    H250429   2.700   3.465   6.716
 9672TIP3   OH250430   1.630   6.500  16.952
 9672TIP3    H150431   1.668   6.556  17.020
 9672TIP3    H250432   1.622   6.557  16.875
 9673TIP3   OH250433   5.108   3.618  16.272
 9673TIP3    H150434   5.100   3.670  16.192
 9673TIP3    H250435   5.063   3.669  16.339
 9674TIP3   OH250436   5.430   5.861  13.461
 9674TIP3    H150437   5.405   5.947  13.425
 9674TIP3    H250438   5.451   5.879  13.553
 9675TIP3   OH250439   6.627   6.427  12.010
 9675TIP3    H150440   6.572   6.430  12.088
 9675TIP3    H250441   6.666   6.515  12.005
 9676TIP3   OH250442   4.781   3.630  15.314
 9676TIP3    H150443   4.769   3.724  15.324
 9676TIP3    H250444   4.714   3.603  15.251
 9677TIP3   OH250445   1.773   3.790  12.082
 9677TIP3    H150446   1.726   3.835  12.013
 9677TIP3    H250447   1.705   3.764  12.145
 9678TIP3   OH250448   0.519   5.235   2.137
 9678TIP3    H150449   0.538   5.319   2.177
 9678TIP3    H250450   0.490   5.256   2.048
 9679TIP3   OH250451   5.814   6.121   1.335
 9679TIP3    H150452   5.890   6.119   1.394
 9679TIP3    H250453   5.756   6.186   1.374
 9680TIP3   OH250454   0.599   2.817   0.848
 9680TIP3    H150455   0.633   2.873   0.919
 9680TIP3    H250456   0.511   2.794   0.877
 9681TIP3   OH250457   5.634   4.559   1.743
 9681TIP3    H150458   5.562   4.621   1.751
 9681TIP3    H250459   5.607   4.499   1.673
 9682TIP3   OH250460   3.407   5.391   4.129
 9682TIP3    H150461   3.379   5.480   4.146
 9682TIP3    H250462   3.340   5.355   4.070
 9683TIP3   OH250463   1.081   0.611   4.873
 9683TIP3    H150464   1.136   0.540   4.905
 9683TIP3    H250465   0.996   0.597   4.913
 9684TIP3   OH250466   2.232   2.804   5.577
 9684TIP3    H150467   2.314   2.786   5.532
 9684TIP3    H250468   2.259   2.835   5.664
 9685TIP3   OH250469   5.816   3.057  14.386
 9685TIP3    H150470   5.804   2.963  14.400
 9685TIP3    H250471   5.747   3.098  14.438
 9686TIP3   OH250472   2.969   1.635   2.706
 9686TIP3    H150473   3.046   1.678   2.744
 9686TIP3    H250474   2.970   1.661   2.614
 9687TIP3   OH250475   1.889   3.992   4.988
 9687TIP3    H150476   1.888   4.058   5.057
 9687TIP3    H250477   1.925   3.914   5.030
 9688TIP3   OH250478   1.855   6.162   2.765
 9688TIP3    H150479   1.899   6.182   2.682
 9688TIP3    H250480   1.896   6.080   2.794
 9689TIP3   OH250481   2.028   0.412   1.622
 9689TIP3    H150482   1.939   0.400   1.589
 9689TIP3    H250483   2.085   0.375   1.555
 9690TIP3   OH250484   1.707   1.054  16.446
 9690TIP3    H150485   1.717   1.068  16.352
 9690TIP3    H250486   1.750   0.971  16.463
 9691TIP3   OH250487   6.451   3.698   0.681
 9691TIP3    H150488   6.408   3.776   0.647
 9691TIP3    H250489   6.488   3.726   0.765
 9692TIP3   OH250490   0.570   3.220  12.387
 9692TIP3    H150491   0.652   3.265  12.406
 9692TIP3    H250492   0.560   3.227  12.292
 9693TIP3   OH250493   5.733   6.562  14.220
 9693TIP3    H150494   5.712   6.498  14.153
 9693TIP3    H250495   5.795   6.622  14.178
 9694TIP3   OH250496   6.092   3.237   5.650
 9694TIP3    H150497   6.131   3.270   5.569
 9694TIP3    H250498   6.004   3.275   5.651
 9695TIP3   OH250499   3.651   2.819   0.062
 9695TIP3    H150500   3.617   2.858   0.142
 9695TIP3    H250501   3.696   2.740   0.092
 9696TIP3   OH250502   0.614   3.858   3.359
 9696TIP3    H150503   0.705   3.886   3.347
 9696TIP3    H250504   0.618   3.789   3.425
 9697TIP3   OH250505   3.366   1.709   4.261
 9697TIP3    H150506   3.386   1.616   4.266
 9697TIP3    H250507   3.378   1.731   4.169
 9698TIP3   OH250508   1.039   0.456  14.101
 9698TIP3    H150509   1.109   0.473  14.039
 9698TIP3    H250510   0.959   0.480  14.054
 9699TIP3   OH250511   0.820   0.525   4.932
 9699TIP3    H150512   0.829   0.619   4.917
 9699TIP3    H250513   0.756   0.496   4.867
 9700TIP3   OH250514   1.221   6.053  16.544
 9700TIP3    H150515   1.157   6.057  16.472
 9700TIP3    H250516   1.305   6.072  16.503
 9701TIP3   OH250517   5.077   0.476  14.553
 9701TIP3    H150518   5.146   0.541  14.557
 9701TIP3    H250519   5.087   0.425  14.634
 9702TIP3   OH250520   3.068   5.345   2.919
 9702TIP3    H150521   3.062   5.287   2.843
 9702TIP3    H250522   3.152   5.323   2.959
 9703TIP3   OH250523   3.342   3.125   3.126
 9703TIP3    H150524   3.371   3.057   3.187
 9703TIP3    H250525   3.292   3.077   3.060
 9704TIP3   OH250526   5.578   0.369   2.071
 9704TIP3    H150527   5.566   0.332   1.984
 9704TIP3    H250528   5.489   0.378   2.106
 9705TIP3   OH250529   1.549   5.117   4.555
 9705TIP3    H150530   1.505   5.199   4.534
 9705TIP3    H250531   1.510   5.053   4.496
 9706TIP3   OH250532   3.858   1.412   5.012
 9706TIP3    H150533   3.825   1.365   5.089
 9706TIP3    H250534   3.953   1.404   5.019
 9707TIP3   OH250535   5.802   2.067   1.790
 9707TIP3    H150536   5.820   1.979   1.756
 9707TIP3    H250537   5.759   2.052   1.874
 9708TIP3   OH250538   3.755   2.492  13.141
 9708TIP3    H150539   3.726   2.506  13.051
 9708TIP3    H250540   3.699   2.422  13.174
 9709TIP3   OH250541   2.861   6.724  11.954
 9709TIP3    H150542   2.853   6.702  12.047
 9709TIP3    H250543   2.852   6.639  11.909
 9710TIP3   OH250544   0.713   2.332   2.320
 9710TIP3    H150545   0.633   2.323   2.269
 9710TIP3    H250546   0.739   2.242   2.341
 9711TIP3   OH250547   5.144   4.307  16.871
 9711TIP3    H150548   5.049   4.317  16.862
 9711TIP3    H250549   5.175   4.293  16.781
 9712TIP3   OH250550   1.976   3.345  15.847
 9712TIP3    H150551   1.944   3.422  15.894
 9712TIP3    H250552   2.013   3.380  15.766
 9713TIP3   OH250553   1.222   3.409   6.539
 9713TIP3    H150554   1.177   3.483   6.500
 9713TIP3    H250555   1.169   3.333   6.514
 9714TIP3   OH250556   0.939   3.552  10.533
 9714TIP3    H150557   0.943   3.476  10.592
 9714TIP3    H250558   0.893   3.619  10.584
 9715TIP3   OH250559   3.158   4.094   3.523
 9715TIP3    H150560   3.088   4.029   3.522
 9715TIP3    H250561   3.231   4.050   3.568
 9716TIP3   OH250562   6.012   4.140   6.499
 9716TIP3    H150563   5.953   4.196   6.550
 9716TIP3    H250564   6.094   4.189   6.496
 9717TIP3   OH250565   5.541   5.729   3.919
 9717TIP3    H150566   5.520   5.639   3.941
 9717TIP3    H250567   5.607   5.755   3.983
 9718TIP3   OH250568   3.117   2.312   3.372
 9718TIP3    H150569   3.175   2.388   3.373
 9718TIP3    H250570   3.155   2.253   3.306
 9719TIP3   OH250571   4.459   0.639  10.817
 9719TIP3    H150572   4.394   0.666  10.881
 9719TIP3    H250573   4.493   0.720  10.780
 9720TIP3   OH250574   5.162   4.025   2.106
 9720TIP3    H150575   5.150   4.052   2.197
 9720TIP3    H250576   5.173   4.107   2.058
 9721TIP3   OH250577   5.378   0.750   1.421
 9721TIP3    H150578   5.340   0.779   1.505
 9721TIP3    H250579   5.429   0.825   1.391
 9722TIP3   OH250580   2.297   0.988  16.193
 9722TIP3    H150581   2.351   1.063  16.219
 9722TIP3    H250582   2.310   0.981  16.099
 9723TIP3   OH250583   1.707   3.983   1.901
 9723TIP3    H150584   1.667   4.069   1.893
 9723TIP3    H250585   1.775   3.994   1.967
 9724TIP3   OH250586   2.371   6.257  12.889
 9724TIP3    H150587   2.414   6.212  12.817
 9724TIP3    H250588   2.363   6.191  12.958
 9725TIP3   OH250589   1.724   1.321  14.402
 9725TIP3    H150590   1.750   1.410  14.424
 9725TIP3    H250591   1.760   1.267  14.472
 9726TIP3   OH250592   6.499   5.893   3.782
 9726TIP3    H150593   6.461   5.846   3.857
 9726TIP3    H250594   6.516   5.824   3.718
 9727TIP3   OH250595   6.110   5.245   6.024
 9727TIP3    H150596   6.160   5.165   6.010
 9727TIP3    H250597   6.022   5.225   5.991
 9728TIP3   OH250598   4.410   5.201   0.525
 9728TIP3    H150599   4.450   5.115   0.507
 9728TIP3    H250600   4.320   5.192   0.495
 9729TIP3   OH250601   6.226   5.644  16.344
 9729TIP3    H150602   6.199   5.560  16.308
 9729TIP3    H250603   6.179   5.652  16.426
 9730TIP3   OH250604   1.220   1.339   2.144
 9730TIP3    H150605   1.268   1.275   2.092
 9730TIP3    H250606   1.202   1.411   2.084
 9731TIP3   OH250607   4.991   0.943  12.211
 9731TIP3    H150608   4.966   0.867  12.263
 9731TIP3    H250609   4.909   0.988  12.193
 9732TIP3   OH250610   4.492   0.429  14.668
 9732TIP3    H150611   4.477   0.336  14.685
 9732TIP3    H250612   4.481   0.470  14.754
 9733TIP3   OH250613   4.873   6.275   0.550
 9733TIP3    H150614   4.797   6.317   0.509
 9733TIP3    H250615   4.908   6.217   0.482
 9734TIP3   OH250616   5.652   6.204  12.305
 9734TIP3    H150617   5.683   6.154  12.229
 9734TIP3    H250618   5.570   6.244  12.276
 9735TIP3   OH250619   4.193   4.523  15.533
 9735TIP3    H150620   4.223   4.438  15.564
 9735TIP3    H250621   4.259   4.585  15.564
 9736TIP3   OH250622   6.518   2.559   5.268
 9736TIP3    H150623   6.548   2.584   5.181
 9736TIP3    H250624   6.585   2.497   5.299
 9737TIP3   OH250625   3.580   2.402  16.708
 9737TIP3    H150626   3.586   2.307  16.714
 9737TIP3    H250627   3.670   2.433  16.719
 9738TIP3   OH250628   3.247   2.203  15.544
 9738TIP3    H150629   3.245   2.261  15.620
 9738TIP3    H250630   3.224   2.260  15.470
 9739TIP3   OH250631   3.929   3.035  11.748
 9739TIP3    H150632   4.016   3.062  11.777
 9739TIP3    H250633   3.937   3.024  11.653
 9740TIP3   OH250634   0.231   4.604  15.279
 9740TIP3    H150635   0.251   4.690  15.242
 9740TIP3    H250636   0.209   4.550  15.203
 9741TIP3   OH250637   1.971   3.860  16.394
 9741TIP3    H150638   2.006   3.878  16.307
 9741TIP3    H250639   1.951   3.766  16.392
 9742TIP3   OH250640   4.242   6.785  16.489
 9742TIP3    H150641   4.333   6.774  16.461
 9742TIP3    H250642   4.205   6.850  16.429
 9743TIP3   OH250643   1.844   4.669   0.264
 9743TIP3    H150644   1.755   4.699   0.282
 9743TIP3    H250645   1.897   4.711   0.332
 9744TIP3   OH250646   5.370   3.283  12.585
 9744TIP3    H150647   5.398   3.342  12.655
 9744TIP3    H250648   5.306   3.334  12.535
 9745TIP3   OH250649   2.136   1.725  13.192
 9745TIP3    H150650   2.166   1.660  13.128
 9745TIP3    H250651   2.107   1.799  13.139
 9746TIP3   OH250652   0.583   1.566  12.598
 9746TIP3    H150653   0.617   1.651  12.571
 9746TIP3    H250654   0.611   1.555  12.689
 9747TIP3   OH250655   6.342   3.469   1.949
 9747TIP3    H150656   6.407   3.536   1.971
 9747TIP3    H250657   6.385   3.416   1.881
 9748TIP3   OH250658   2.859   3.545   4.282
 9748TIP3    H150659   2.857   3.494   4.362
 9748TIP3    H250660   2.835   3.634   4.309
 9749TIP3   OH250661   5.965   4.904  15.838
 9749TIP3    H150662   6.047   4.862  15.864
 9749TIP3    H250663   5.942   4.960  15.912
 9750TIP3   OH250664   5.702   1.149  16.441
 9750TIP3    H150665   5.618   1.166  16.485
 9750TIP3    H250666   5.719   1.229  16.391
 9751TIP3   OH250667   5.650   4.019  15.599
 9751TIP3    H150668   5.740   3.990  15.611
 9751TIP3    H250669   5.610   3.951  15.545
 9752TIP3   OH250670   0.931   4.935   2.980
 9752TIP3    H150671   0.931   4.840   2.979
 9752TIP3    H250672   1.023   4.959   2.988
 9753TIP3   OH250673   1.851   2.995  16.373
 9753TIP3    H150674   1.910   2.925  16.404
 9753TIP3    H250675   1.781   2.997  16.437
 9754TIP3   OH250676   6.045   4.234  15.442
 9754TIP3    H150677   6.021   4.143  15.424
 9754TIP3    H250678   6.093   4.262  15.365
 9755TIP3   OH250679   6.435   5.127  11.916
 9755TIP3    H150680   6.400   5.051  11.964
 9755TIP3    H250681   6.412   5.202  11.971
 9756TIP3   OH250682   5.295   5.997  16.396
 9756TIP3    H150683   5.286   6.091  16.377
 9756TIP3    H250684   5.368   5.993  16.459
 9757TIP3   OH250685   3.505   3.082  11.828
 9757TIP3    H150686   3.510   3.023  11.753
 9757TIP3    H250687   3.510   3.024  11.904
 9758TIP3   OH250688   4.769   3.995   2.739
 9758TIP3    H150689   4.742   3.940   2.813
 9758TIP3    H250690   4.773   3.935   2.665
 9759TIP3   OH250691   2.659   2.611   4.002
 9759TIP3    H150692   2.694   2.587   4.088
 9759TIP3    H250693   2.648   2.528   3.957
 9760TIP3   OH250694   1.649   6.571   4.354
 9760TIP3    H150695   1.686   6.624   4.284
 9760TIP3    H250696   1.557   6.598   4.358
 9761TIP3   OH250697   1.356   2.659  14.176
 9761TIP3    H150698   1.315   2.573  14.163
 9761TIP3    H250699   1.320   2.691  14.259
 9762TIP3   OH250700   5.646   5.907   0.113
 9762TIP3    H150701   5.692   5.870   0.188
 9762TIP3    H250702   5.605   5.831   0.071
 9763TIP3   OH250703   3.034   1.460  13.724
 9763TIP3    H150704   3.008   1.409  13.647
 9763TIP3    H250705   3.098   1.523  13.691
 9764TIP3   OH250706   0.402   5.614  13.112
 9764TIP3    H150707   0.466   5.613  13.183
 9764TIP3    H250708   0.335   5.675  13.141
 9765TIP3   OH250709   4.714   0.901   5.058
 9765TIP3    H150710   4.685   0.810   5.059
 9765TIP3    H250711   4.637   0.951   5.085
 9766TIP3   OH250712   5.684   5.990  12.750
 9766TIP3    H150713   5.746   5.997  12.823
 9766TIP3    H250714   5.719   6.049  12.683
 9767TIP3   OH250715   3.298   1.436  15.966
 9767TIP3    H150716   3.243   1.514  15.957
 9767TIP3    H250717   3.249   1.379  16.024
 9768TIP3   OH250718   0.051   5.222  15.576
 9768TIP3    H150719   0.005   5.151  15.619
 9768TIP3    H250720   0.142   5.193  15.572
 9769TIP3   OH250721   3.327   5.413  15.576
 9769TIP3    H150722   3.351   5.467  15.501
 9769TIP3    H250723   3.231   5.413  15.576
 9770TIP3   OH250724   5.825   2.303   4.656
 9770TIP3    H150725   5.796   2.214   4.676
 9770TIP3    H250726   5.809   2.352   4.736
 9771TIP3   OH250727   0.377   5.112  16.854
 9771TIP3    H150728   0.364   5.027  16.897
 9771TIP3    H250729   0.469   5.133  16.871
 9772TIP3   OH250730   6.115   0.133   5.402
 9772TIP3    H150731   6.128   0.225   5.423
 9772TIP3    H250732   6.091   0.092   5.485
 9773TIP3   OH250733   4.287   4.270  15.639
 9773TIP3    H150734   4.360   4.298  15.584
 9773TIP3    H250735   4.249   4.196  15.593
 9774TIP3   OH250736   2.507   4.460  12.714
 9774TIP3    H150737   2.471   4.376  12.743
 9774TIP3    H250738   2.584   4.437  12.662
 9775TIP3   OH250739   5.670   6.215   1.858
 9775TIP3    H150740   5.630   6.297   1.884
 9775TIP3    H250741   5.735   6.239   1.792
 9776TIP3   OH250742   6.162   5.403  11.489
 9776TIP3    H150743   6.148   5.385  11.582
 9776TIP3    H250744   6.189   5.495  11.486
 9777TIP3   OH250745   4.265   6.764   3.545
 9777TIP3    H150746   4.318   6.693   3.508
 9777TIP3    H250747   4.317   6.797   3.618
 9778TIP3   OH250748   1.018   1.188  12.692
 9778TIP3    H150749   1.106   1.225  12.688
 9778TIP3    H250750   1.030   1.104  12.736
 9779TIP3   OH250751   3.293   4.975  17.233
 9779TIP3    H150752   3.370   5.006  17.185
 9779TIP3    H250753   3.324   4.899  17.282
 9780TIP3   OH250754   1.706   2.598   1.893
 9780TIP3    H150755   1.704   2.571   1.985
 9780TIP3    H250756   1.776   2.663   1.889
 9781TIP3   OH250757   4.292   6.428   2.562
 9781TIP3    H150758   4.204   6.412   2.595
 9781TIP3    H250759   4.282   6.429   2.466
 9782TIP3   OH250760   5.301   0.259  14.782
 9782TIP3    H150761   5.366   0.195  14.811
 9782TIP3    H250762   5.342   0.303  14.708
 9783TIP3   OH250763   2.239   4.907   5.219
 9783TIP3    H150764   2.321   4.887   5.173
 9783TIP3    H250765   2.220   4.827   5.268
 9784TIP3   OH250766   2.911   2.717  15.442
 9784TIP3    H150767   2.835   2.771  15.420
 9784TIP3    H250768   2.974   2.735  15.372
 9785TIP3   OH250769   0.932   2.831   0.113
 9785TIP3    H150770   0.912   2.740   0.090
 9785TIP3    H250771   0.978   2.825   0.196
 9786TIP3   OH250772   6.020   2.601  16.899
 9786TIP3    H150773   6.012   2.691  16.929
 9786TIP3    H250774   5.981   2.548  16.968
 9787TIP3   OH250775   5.058   1.777  14.050
 9787TIP3    H150776   5.063   1.819  14.136
 9787TIP3    H250777   5.070   1.684  14.068
 9788TIP3   OH250778   1.094   3.514  16.732
 9788TIP3    H150779   1.136   3.597  16.711
 9788TIP3    H250780   1.143   3.448  16.683
 9789TIP3   OH250781   2.617   5.049   4.642
 9789TIP3    H150782   2.551   4.986   4.616
 9789TIP3    H250783   2.589   5.131   4.601
 9790TIP3   OH250784   1.483   1.310   6.099
 9790TIP3    H150785   1.487   1.336   6.191
 9790TIP3    H250786   1.571   1.327   6.066
 9791TIP3   OH250787   0.055   0.706  14.812
 9791TIP3    H150788   0.135   0.741  14.854
 9791TIP3    H250789   0.081   0.691  14.721
 9792TIP3   OH250790   2.329   6.741  13.353
 9792TIP3    H150791   2.390   6.769  13.421
 9792TIP3    H250792   2.378   6.753  13.271
 9793TIP3   OH250793   0.188   5.572  14.298
 9793TIP3    H150794   0.114   5.514  14.312
 9793TIP3    H250795   0.190   5.628  14.376
 9794TIP3   OH250796   5.243   6.076  15.297
 9794TIP3    H150797   5.172   6.011  15.297
 9794TIP3    H250798   5.201   6.158  15.320
 9795TIP3   OH250799   6.039   6.678   3.227
 9795TIP3    H150800   6.107   6.740   3.256
 9795TIP3    H250801   6.088   6.607   3.186
 9796TIP3   OH250802   0.588   1.168   1.731
 9796TIP3    H150803   0.540   1.150   1.650
 9796TIP3    H250804   0.619   1.083   1.760
 9797TIP3   OH250805   0.918   1.616   5.467
 9797TIP3    H150806   0.931   1.558   5.542
 9797TIP3    H250807   0.981   1.687   5.481
 9798TIP3   OH250808   4.506   1.958  14.785
 9798TIP3    H150809   4.554   1.879  14.760
 9798TIP3    H250810   4.529   2.022  14.717
 9799TIP3   OH250811   0.097   6.214   1.493
 9799TIP3    H150812   0.052   6.174   1.418
 9799TIP3    H250813   0.067   6.164   1.569
 9800TIP3   OH250814   0.795   0.183   2.570
 9800TIP3    H150815   0.822   0.213   2.656
 9800TIP3    H250816   0.864   0.212   2.511
 9801TIP3   OH250817   3.201   4.117   2.134
 9801TIP3    H150818   3.241   4.043   2.180
 9801TIP3    H250819   3.157   4.167   2.203
 9802TIP3   OH250820   2.870   4.738  14.529
 9802TIP3    H150821   2.812   4.801  14.486
 9802TIP3    H250822   2.821   4.709  14.606
 9803TIP3   OH250823   1.776   5.792  15.745
 9803TIP3    H150824   1.868   5.820  15.748
 9803TIP3    H250825   1.731   5.864  15.700
 9804TIP3   OH250826   4.363   4.703  13.499
 9804TIP3    H150827   4.287   4.651  13.472
 9804TIP3    H250828   4.412   4.647  13.558
 9805TIP3   OH250829   2.425   1.040  17.057
 9805TIP3    H150830   2.400   0.950  17.081
 9805TIP3    H250831   2.367   1.063  16.985
 9806TIP3   OH250832   0.769   2.310  14.964
 9806TIP3    H150833   0.829   2.371  14.921
 9806TIP3    H250834   0.807   2.224  14.948
 9807TIP3   OH250835   6.294   1.473  13.575
 9807TIP3    H150836   6.274   1.519  13.494
 9807TIP3    H250837   6.290   1.380  13.552
 9808TIP3   OH250838   5.795   3.227   2.587
 9808TIP3    H150839   5.871   3.168   2.592
 9808TIP3    H250840   5.726   3.172   2.549
 9809TIP3   OH250841   3.669   3.901  13.546
 9809TIP3    H150842   3.579   3.878  13.570
 9809TIP3    H250843   3.717   3.819  13.555
 9810TIP3   OH250844   6.294   1.504  16.896
 9810TIP3    H150845   6.353   1.496  16.971
 9810TIP3    H250846   6.210   1.529  16.935
 9811TIP3   OH250847   4.762   4.532   5.159
 9811TIP3    H150848   4.734   4.530   5.250
 9811TIP3    H250849   4.750   4.623   5.131
 9812TIP3   OH250850   0.228   5.850  11.648
 9812TIP3    H150851   0.318   5.821  11.662
 9812TIP3    H250852   0.207   5.902  11.725
 9813TIP3   OH250853   4.972   1.337   0.987
 9813TIP3    H150854   4.934   1.298   1.066
 9813TIP3    H250855   5.043   1.278   0.962
 9814TIP3   OH250856   2.396   1.170  10.836
 9814TIP3    H150857   2.324   1.166  10.773
 9814TIP3    H250858   2.470   1.203  10.785
 9815TIP3   OH250859   4.028   2.863   4.775
 9815TIP3    H150860   4.120   2.888   4.789
 9815TIP3    H250861   3.997   2.838   4.863
 9816TIP3   OH250862   2.115   3.808  17.005
 9816TIP3    H150863   2.104   3.713  17.002
 9816TIP3    H250864   2.092   3.837  16.917
 9817TIP3   OH250865   3.827   3.433  12.077
 9817TIP3    H150866   3.778   3.509  12.046
 9817TIP3    H250867   3.805   3.363  12.015
 9818TIP3   OH250868   4.376   0.409  14.203
 9818TIP3    H150869   4.428   0.401  14.283
 9818TIP3    H250870   4.286   0.394  14.231
 9819TIP3   OH250871   1.734   3.072  11.724
 9819TIP3    H150872   1.789   3.018  11.780
 9819TIP3    H250873   1.677   3.121  11.784
 9820TIP3   OH250874   0.255   3.445   1.873
 9820TIP3    H150875   0.182   3.426   1.814
 9820TIP3    H250876   0.292   3.360   1.895
 9821TIP3   OH250877   2.716   0.054   1.606
 9821TIP3    H150878   2.764   0.134   1.583
 9821TIP3    H250879   2.668   0.031   1.527
 9822TIP3   OH250880   1.162   3.564  11.249
 9822TIP3    H150881   1.248   3.605  11.259
 9822TIP3    H250882   1.157   3.543  11.156
 9823TIP3   OH250883   6.477   2.540   4.790
 9823TIP3    H150884   6.388   2.544   4.755
 9823TIP3    H250885   6.533   2.520   4.715
 9824TIP3   OH250886   3.197   0.665  15.274
 9824TIP3    H150887   3.209   0.574  15.303
 9824TIP3    H250888   3.112   0.689  15.309
 9825TIP3   OH250889   1.374   5.895  12.651
 9825TIP3    H150890   1.354   5.850  12.569
 9825TIP3    H250891   1.396   5.825  12.712
 9826TIP3   OH250892   4.003   5.268  15.371
 9826TIP3    H150893   4.028   5.256  15.280
 9826TIP3    H250894   3.908   5.284  15.369
 9827TIP3   OH250895   0.790   1.799  12.937
 9827TIP3    H150896   0.754   1.735  12.999
 9827TIP3    H250897   0.783   1.755  12.852
 9828TIP3   OH250898   4.769   0.068   2.209
 9828TIP3    H150899   4.797   0.126   2.139
 9828TIP3    H250900   4.673   0.076   2.209
 9829TIP3   OH250901   3.538   0.745   1.318
 9829TIP3    H150902   3.474   0.735   1.247
 9829TIP3    H250903   3.576   0.831   1.304
 9830TIP3   OH250904   4.384   6.242   3.514
 9830TIP3    H150905   4.439   6.303   3.465
 9830TIP3    H250906   4.382   6.163   3.461
 9831TIP3   OH250907   5.549   6.196  12.916
 9831TIP3    H150908   5.520   6.216  13.004
 9831TIP3    H250909   5.528   6.103  12.904
 9832TIP3   OH250910   6.758   0.250   2.767
 9832TIP3    H150911   6.821   0.202   2.714
 9832TIP3    H250912   6.683   0.262   2.710
 9833TIP3   OH250913   2.162   3.683   5.825
 9833TIP3    H150914   2.077   3.660   5.787
 9833TIP3    H250915   2.184   3.767   5.783
 9834TIP3   OH250916   1.506   0.034   3.980
 9834TIP3    H150917   1.504   0.129   3.991
 9834TIP3    H250918   1.415   0.010   3.966
 9835TIP3   OH250919   4.332   2.346  16.726
 9835TIP3    H150920   4.359   2.437  16.735
 9835TIP3    H250921   4.398   2.296  16.774
 9836TIP3   OH250922   5.258   2.212   4.452
 9836TIP3    H150923   5.299   2.242   4.534
 9836TIP3    H250924   5.253   2.290   4.397
 9837TIP3   OH250925   4.164   5.698   4.523
 9837TIP3    H150926   4.124   5.697   4.610
 9837TIP3    H250927   4.099   5.657   4.466
 9838TIP3   OH250928   0.308   6.591  13.706
 9838TIP3    H150929   0.250   6.515  13.707
 9838TIP3    H250930   0.250   6.666  13.719
 9839TIP3   OH250931   2.618   3.781  17.041
 9839TIP3    H150932   2.694   3.747  16.993
 9839TIP3    H250933   2.616   3.728  17.121
 9840TIP3   OH250934   5.045   0.102   3.640
 9840TIP3    H150935   5.020   0.085   3.549
 9840TIP3    H250936   4.992   0.177   3.667
 9841TIP3   OH250937   4.337   1.201  15.729
 9841TIP3    H150938   4.399   1.261  15.687
 9841TIP3    H250939   4.361   1.114  15.696
 9842TIP3   OH250940   2.174   5.832  14.450
 9842TIP3    H150941   2.143   5.764  14.509
 9842TIP3    H250942   2.269   5.825  14.453
 9843TIP3   OH250943   4.214   2.295   0.973
 9843TIP3    H150944   4.218   2.210   0.928
 9843TIP3    H250945   4.167   2.352   0.912
 9844TIP3   OH250946   1.712   2.367   2.094
 9844TIP3    H150947   1.776   2.313   2.046
 9844TIP3    H250948   1.738   2.358   2.185
 9845TIP3   OH250949   4.976   6.243   0.796
 9845TIP3    H150950   4.958   6.258   0.703
 9845TIP3    H250951   4.956   6.151   0.810
 9846TIP3   OH250952   5.043   0.925  16.856
 9846TIP3    H150953   5.015   0.855  16.915
 9846TIP3    H250954   4.978   0.925  16.786
 9847TIP3   OH250955   5.105   6.592  10.778
 9847TIP3    H150956   5.139   6.536  10.848
 9847TIP3    H250957   5.116   6.681  10.812
 9848TIP3   OH250958   1.610   3.417  14.910
 9848TIP3    H150959   1.689   3.364  14.923
 9848TIP3    H250960   1.616   3.446  14.819
 9849TIP3   OH250961   6.614   2.799  12.808
 9849TIP3    H150962   6.674   2.736  12.848
 9849TIP3    H250963   6.625   2.787  12.714
 9850TIP3   OH250964   6.680   5.371  15.944
 9850TIP3    H150965   6.632   5.316  15.883
 9850TIP3    H250966   6.652   5.341  16.030
 9851TIP3   OH250967   0.940   3.188   2.468
 9851TIP3    H150968   0.934   3.181   2.563
 9851TIP3    H250969   1.027   3.224   2.452
 9852TIP3   OH250970   6.342   5.902   5.537
 9852TIP3    H150971   6.305   5.973   5.485
 9852TIP3    H250972   6.312   5.919   5.627
 9853TIP3   OH250973   4.931   1.651  17.165
 9853TIP3    H150974   4.996   1.711  17.130
 9853TIP3    H250975   4.916   1.682  17.255
 9854TIP3   OH250976   5.756   2.912  12.900
 9854TIP3    H150977   5.829   2.947  12.849
 9854TIP3    H250978   5.679   2.956  12.863
 9855TIP3   OH250979   2.511   2.899   2.264
 9855TIP3    H150980   2.475   2.988   2.272
 9855TIP3    H250981   2.440   2.848   2.225
 9856TIP3   OH250982   1.300   1.482   6.336
 9856TIP3    H150983   1.220   1.437   6.363
 9856TIP3    H250984   1.370   1.434   6.379
 9857TIP3   OH250985   5.960   4.019  15.322
 9857TIP3    H150986   5.884   4.020  15.264
 9857TIP3    H250987   6.029   3.975  15.271
 9858TIP3   OH250988   0.658   5.339  15.176
 9858TIP3    H150989   0.712   5.340  15.255
 9858TIP3    H250990   0.720   5.356  15.105
 9859TIP3   OH250991   4.361   4.979  15.458
 9859TIP3    H150992   4.347   4.911  15.392
 9859TIP3    H250993   4.319   5.057  15.422
 9860TIP3   OH250994   0.192   5.282  10.307
 9860TIP3    H150995   0.097   5.287  10.317
 9860TIP3    H250996   0.205   5.273  10.212
 9861TIP3   OH250997   4.248   2.754   1.720
 9861TIP3    H150998   4.231   2.693   1.792
 9861TIP3    H250999   4.320   2.714   1.671
 9862TIP3   OH251000   5.248   0.124   0.630
 9862TIP3    H151001   5.175   0.183   0.616
 9862TIP3    H251002   5.318   0.180   0.665
 9863TIP3   OH251003   3.515   6.714   3.803
 9863TIP3    H151004   3.422   6.697   3.788
 9863TIP3    H251005   3.516   6.784   3.869
 9864TIP3   OH251006   3.118   4.990   2.898
 9864TIP3    H151007   3.058   5.012   2.969
 9864TIP3    H251008   3.082   4.910   2.860
 9865TIP3   OH251009   4.614   5.763   2.296
 9865TIP3    H151010   4.647   5.821   2.228
 9865TIP3    H251011   4.690   5.747   2.352
 9866TIP3   OH251012   6.297   3.201  15.051
 9866TIP3    H151013   6.365   3.182  15.116
 9866TIP3    H251014   6.340   3.258  14.987
 9867TIP3   OH251015   3.605   3.218  13.513
 9867TIP3    H151016   3.556   3.274  13.573
 9867TIP3    H251017   3.660   3.164  13.569
 9868TIP3   OH251018   0.486   5.195   5.294
 9868TIP3    H151019   0.435   5.139   5.353
 9868TIP3    H251020   0.454   5.172   5.207
 9869TIP3   OH251021   0.252   2.094   4.248
 9869TIP3    H151022   0.200   2.096   4.328
 9869TIP3    H251023   0.214   2.163   4.193
 9870TIP3   OH251024   5.098   0.238   0.132
 9870TIP3    H151025   5.167   0.302   0.153
 9870TIP3    H251026   5.017   0.289   0.138
 9871TIP3   OH251027   2.288   0.147   0.673
 9871TIP3    H151028   2.281   0.199   0.753
 9871TIP3    H251029   2.293   0.057   0.703
 9872TIP3   OH251030   0.654   4.399  12.098
 9872TIP3    H151031   0.644   4.487  12.135
 9872TIP3    H251032   0.578   4.351  12.132
 9873TIP3   OH251033   5.171   1.258  14.239
 9873TIP3    H151034   5.093   1.216  14.202
 9873TIP3    H251035   5.243   1.199  14.218
 9874TIP3   OH251036   6.428   5.513   1.679
 9874TIP3    H151037   6.480   5.585   1.715
 9874TIP3    H251038   6.337   5.542   1.689
 9875TIP3   OH251039   2.026   0.355  12.380
 9875TIP3    H151040   1.933   0.372  12.391
 9875TIP3    H251041   2.036   0.335  12.287
 9876TIP3   OH251042   3.133   1.094  12.486
 9876TIP3    H151043   3.110   1.120  12.396
 9876TIP3    H251044   3.229   1.091  12.486
 9877TIP3   OH251045   1.254   2.077   3.800
 9877TIP3    H151046   1.258   2.146   3.733
 9877TIP3    H251047   1.326   2.018   3.777
 9878TIP3   OH251048   3.152   1.429  14.016
 9878TIP3    H151049   3.084   1.423  13.948
 9878TIP3    H251050   3.151   1.343  14.058
 9879TIP3   OH251051   3.467   2.058   4.658
 9879TIP3    H151052   3.504   2.024   4.576
 9879TIP3    H251053   3.407   1.989   4.687
 9880TIP3   OH251054   0.643   1.567  12.873
 9880TIP3    H151055   0.571   1.590  12.931
 9880TIP3    H251056   0.708   1.526  12.930
 9881TIP3   OH251057   2.162   1.175   3.113
 9881TIP3    H151058   2.245   1.159   3.067
 9881TIP3    H251059   2.161   1.270   3.127
 9882TIP3   OH251060   0.055   4.513   1.568
 9882TIP3    H151061   0.030   4.604   1.552
 9882TIP3    H251062   0.030   4.467   1.489
 9883TIP3   OH251063   0.461   2.778  13.488
 9883TIP3    H151064   0.457   2.858  13.540
 9883TIP3    H251065   0.397   2.791  13.418
 9884TIP3   OH251066   2.943   2.479  12.844
 9884TIP3    H151067   2.919   2.473  12.751
 9884TIP3    H251068   3.027   2.434  12.851
 9885TIP3   OH251069   2.699   3.805   5.706
 9885TIP3    H151070   2.781   3.833   5.665
 9885TIP3    H251071   2.630   3.842   5.651
 9886TIP3   OH251072   0.755   6.333  17.198
 9886TIP3    H151073   0.839   6.338  17.244
 9886TIP3    H251074   0.716   6.251  17.229
 9887TIP3   OH251075   5.250   3.480   2.173
 9887TIP3    H151076   5.281   3.555   2.122
 9887TIP3    H251077   5.270   3.504   2.264
 9888TIP3   OH251078   4.668   4.414  13.060
 9888TIP3    H151079   4.664   4.490  13.001
 9888TIP3    H251080   4.751   4.424  13.107
 9889TIP3   OH251081   4.242   1.341   2.045
 9889TIP3    H151082   4.266   1.359   1.955
 9889TIP3    H251083   4.192   1.419   2.072
 9890TIP3   OH251084   2.706   5.325  15.793
 9890TIP3    H151085   2.694   5.420  15.802
 9890TIP3    H251086   2.775   5.303  15.855
 9891TIP3   OH251087   6.762   6.757  12.273
 9891TIP3    H151088   6.815   6.837  12.271
 9891TIP3    H251089   6.799   6.706  12.345
 9892TIP3   OH251090   1.769   2.322   5.939
 9892TIP3    H151091   1.811   2.293   6.020
 9892TIP3    H251092   1.775   2.247   5.880
 9893TIP3   OH251093   1.371   6.388   1.441
 9893TIP3    H151094   1.316   6.405   1.365
 9893TIP3    H251095   1.354   6.297   1.465
 9894TIP3   OH251096   6.492   3.240   3.713
 9894TIP3    H151097   6.531   3.168   3.763
 9894TIP3    H251098   6.399   3.237   3.736
 9895TIP3   OH251099   1.102   2.817  15.661
 9895TIP3    H151100   1.158   2.740  15.669
 9895TIP3    H251101   1.156   2.890  15.692
 9896TIP3   OH251102   2.062   3.719   4.299
 9896TIP3    H151103   2.099   3.689   4.216
 9896TIP3    H251104   2.138   3.736   4.354
 9897TIP3   OH251105   6.545   5.100   0.162
 9897TIP3    H151106   6.601   5.160   0.113
 9897TIP3    H251107   6.519   5.150   0.240
 9898TIP3   OH251108   5.977   5.683  11.689
 9898TIP3    H151109   5.924   5.756  11.723
 9898TIP3    H251110   6.032   5.722  11.622
 9899TIP3   OH251111   3.394   5.389   1.259
 9899TIP3    H151112   3.457   5.460   1.265
 9899TIP3    H251113   3.410   5.336   1.337
 9900TIP3   OH251114   5.602   6.766  15.589
 9900TIP3    H151115   5.531   6.830  15.601
 9900TIP3    H251116   5.662   6.809  15.528
 9901TIP3   OH251117   1.015   2.397   5.330
 9901TIP3    H151118   1.051   2.465   5.387
 9901TIP3    H251119   1.088   2.336   5.318
 9902TIP3   OH251120   2.598   4.505   5.088
 9902TIP3    H151121   2.550   4.441   5.036
 9902TIP3    H251122   2.551   4.509   5.171
 9903TIP3   OH251123   6.591   5.416  11.561
 9903TIP3    H151124   6.577   5.435  11.653
 9903TIP3    H251125   6.531   5.476  11.515
 9904TIP3   OH251126   6.665   4.165  17.128
 9904TIP3    H151127   6.757   4.143  17.110
 9904TIP3    H251128   6.629   4.085  17.167
 9905TIP3   OH251129   0.948   4.940  16.074
 9905TIP3    H151130   0.980   5.030  16.061
 9905TIP3    H251131   0.937   4.932  16.169
 9906TIP3   OH251132   4.578   5.744  13.328
 9906TIP3    H151133   4.530   5.690  13.391
 9906TIP3    H251134   4.627   5.806  13.382
 9907TIP3   OH251135   6.680   0.357   1.545
 9907TIP3    H151136   6.767   0.355   1.506
 9907TIP3    H251137   6.650   0.447   1.533
 9908TIP3   OH251138   2.691   4.500   0.241
 9908TIP3    H151139   2.597   4.515   0.240
 9908TIP3    H251140   2.708   4.458   0.325
 9909TIP3   OH251141   3.364   2.142  14.227
 9909TIP3    H151142   3.426   2.213  14.244
 9909TIP3    H251143   3.411   2.082  14.168
 9910TIP3   OH251144   3.383   1.477  16.796
 9910TIP3    H151145   3.301   1.471  16.747
 9910TIP3    H251146   3.375   1.410  16.863
 9911TIP3   OH251147   3.953   1.490  10.282
 9911TIP3    H151148   3.914   1.415  10.326
 9911TIP3    H251149   3.894   1.563  10.302
 9912TIP3   OH251150   3.144   1.510  13.444
 9912TIP3    H151151   3.207   1.582  13.445
 9912TIP3    H251152   3.061   1.550  13.472
 9913TIP3   OH251153   4.754   4.286   6.249
 9913TIP3    H151154   4.813   4.226   6.202
 9913TIP3    H251155   4.762   4.261   6.341
 9914TIP3   OH251156   1.871   0.830  12.992
 9914TIP3    H151157   1.896   0.838  13.084
 9914TIP3    H251158   1.807   0.760  12.990
 9915TIP3   OH251159   5.060   4.090  13.394
 9915TIP3    H151160   5.037   4.064  13.305
 9915TIP3    H251161   5.042   4.013  13.447
 9916TIP3   OH251162   5.731   0.892  17.185
 9916TIP3    H151163   5.714   0.880  17.091
 9916TIP3    H251164   5.708   0.807  17.224
 9917TIP3   OH251165   6.169   3.221   3.273
 9917TIP3    H151166   6.154   3.311   3.245
 9917TIP3    H251167   6.263   3.215   3.287
 9918TIP3   OH251168   4.912   2.448   2.215
 9918TIP3    H151169   4.833   2.404   2.247
 9918TIP3    H251170   4.883   2.492   2.135
 9919TIP3   OH251171   2.528   3.735   1.412
 9919TIP3    H151172   2.573   3.810   1.372
 9919TIP3    H251173   2.542   3.745   1.506
 9920TIP3   OH251174   4.474   3.292  17.086
 9920TIP3    H151175   4.558   3.332  17.062
 9920TIP3    H251176   4.490   3.198  17.078
 9921TIP3   OH251177   2.940   6.138  12.227
 9921TIP3    H151178   2.989   6.193  12.166
 9921TIP3    H251179   2.851   6.175  12.227
 9922TIP3   OH251180   4.584   3.873   1.964
 9922TIP3    H151181   4.554   3.896   1.876
 9922TIP3    H251182   4.657   3.932   1.981
 9923TIP3   OH251183   4.105   1.723  14.764
 9923TIP3    H151184   4.118   1.654  14.699
 9923TIP3    H251185   4.120   1.805  14.716
 9924TIP3   OH251186   3.546   0.999  11.484
 9924TIP3    H151187   3.572   0.998  11.576
 9924TIP3    H251188   3.469   1.057  11.482
 9925TIP3   OH251189   3.531   6.339   2.438
 9925TIP3    H151190   3.487   6.298   2.363
 9925TIP3    H251191   3.500   6.429   2.438
 9926TIP3   OH251192   4.334   2.045  16.530
 9926TIP3    H151193   4.299   2.120  16.481
 9926TIP3    H251194   4.363   1.984  16.462
 9927TIP3   OH251195   5.419   1.988   5.704
 9927TIP3    H151196   5.483   2.022   5.767
 9927TIP3    H251197   5.465   1.916   5.661
 9928TIP3   OH251198   1.112   2.033   5.119
 9928TIP3    H151199   1.156   2.115   5.142
 9928TIP3    H251200   1.019   2.057   5.110
 9929TIP3   OH251201   2.759   5.134  11.849
 9929TIP3    H151202   2.727   5.194  11.916
 9929TIP3    H251203   2.809   5.190  11.789
 9930TIP3   OH251204   1.785   6.630  16.670
 9930TIP3    H151205   1.774   6.569  16.598
 9930TIP3    H251206   1.697   6.662  16.689
 9931TIP3   OH251207   1.140   5.610   2.400
 9931TIP3    H151208   1.231   5.620   2.373
 9931TIP3    H251209   1.143   5.554   2.478
 9932TIP3   OH251210   2.427   6.196  16.682
 9932TIP3    H151211   2.396   6.117  16.638
 9932TIP3    H251212   2.422   6.264  16.614
 9933TIP3   OH251213   2.426   6.149  15.709
 9933TIP3    H151214   2.388   6.101  15.635
 9933TIP3    H251215   2.408   6.241  15.689
 9934TIP3   OH251216   0.978   1.162  11.901
 9934TIP3    H151217   1.065   1.190  11.872
 9934TIP3    H251218   0.946   1.235  11.954
 9935TIP3   OH251219   4.264   5.397  11.632
 9935TIP3    H151220   4.231   5.471  11.682
 9935TIP3    H251221   4.224   5.406  11.546
 9936TIP3   OH251222   1.578   4.629  13.676
 9936TIP3    H151223   1.513   4.590  13.734
 9936TIP3    H251224   1.576   4.573  13.598
 9937TIP3   OH251225   3.368   2.334  13.201
 9937TIP3    H151226   3.300   2.281  13.243
 9937TIP3    H251227   3.330   2.422  13.196
 9938TIP3   OH251228   3.826   4.406  15.239
 9938TIP3    H151229   3.769   4.377  15.310
 9938TIP3    H251230   3.875   4.328  15.214
 9939TIP3   OH251231   0.122   0.392   0.360
 9939TIP3    H151232   0.216   0.377   0.366
 9939TIP3    H251233   0.086   0.307   0.333
 9940TIP3   OH251234   5.906   5.801   4.759
 9940TIP3    H151235   5.955   5.737   4.811
 9940TIP3    H251236   5.964   5.876   4.751
 9941TIP3   OH251237   2.073   4.756   4.802
 9941TIP3    H151238   2.082   4.844   4.764
 9941TIP3    H251239   2.149   4.748   4.860
 9942TIP3   OH251240   5.346   1.120  15.235
 9942TIP3    H151241   5.263   1.123  15.283
 9942TIP3    H251242   5.343   1.195  15.176
 9943TIP3   OH251243   4.896   5.821  14.820
 9943TIP3    H151244   4.827   5.782  14.874
 9943TIP3    H251245   4.894   5.914  14.842
 9944TIP3   OH251246   2.934   0.190  11.908
 9944TIP3    H151247   2.904   0.099  11.903
 9944TIP3    H251248   3.021   0.185  11.947
 9945TIP3   OH251249   0.694   1.694  13.529
 9945TIP3    H151250   0.779   1.736  13.515
 9945TIP3    H251251   0.705   1.605  13.498
 9946TIP3   OH251252   1.543   4.360   1.370
 9946TIP3    H151253   1.626   4.319   1.394
 9946TIP3    H251254   1.484   4.339   1.442
 9947TIP3   OH251255   5.033   3.756  14.440
 9947TIP3    H151256   5.034   3.759  14.536
 9947TIP3    H251257   5.112   3.804  14.415
 9948TIP3   OH251258   5.589   3.420  12.043
 9948TIP3    H151259   5.628   3.472  11.973
 9948TIP3    H251260   5.644   3.437  12.119
 9949TIP3   OH251261   0.837   6.666   1.426
 9949TIP3    H151262   0.876   6.701   1.506
 9949TIP3    H251263   0.788   6.739   1.389
 9950TIP3   OH251264   4.430   1.082  14.933
 9950TIP3    H151265   4.501   1.051  14.990
 9950TIP3    H251266   4.432   1.177  14.942
 9951TIP3   OH251267   4.004   3.953   1.462
 9951TIP3    H151268   4.081   3.920   1.507
 9951TIP3    H251269   4.037   4.018   1.400
 9952TIP3   OH251270   4.359   6.511  13.582
 9952TIP3    H151271   4.415   6.565  13.526
 9952TIP3    H251272   4.417   6.443  13.615
 9953TIP3   OH251273   2.055   2.527   1.075
 9953TIP3    H151274   1.995   2.496   1.143
 9953TIP3    H251275   2.109   2.594   1.118
 9954TIP3   OH251276   4.900   1.004  16.632
 9954TIP3    H151277   4.888   1.075  16.570
 9954TIP3    H251278   4.820   0.952  16.625
 9955TIP3   OH251279   2.268   2.188  16.916
 9955TIP3    H151280   2.225   2.170  16.999
 9955TIP3    H251281   2.349   2.137  16.919
 9956TIP3   OH251282   1.261   0.576  11.844
 9956TIP3    H151283   1.283   0.668  11.825
 9956TIP3    H251284   1.337   0.542  11.890
 9957TIP3   OH251285   6.615   0.514   6.298
 9957TIP3    H151286   6.641   0.491   6.209
 9957TIP3    H251287   6.539   0.571   6.287
 9958TIP3   OH251288   4.140   3.300  14.872
 9958TIP3    H151289   4.194   3.378  14.877
 9958TIP3    H251290   4.202   3.227  14.867
 9959TIP3   OH251291   0.784   4.403  10.900
 9959TIP3    H151292   0.723   4.375  10.831
 9959TIP3    H251293   0.731   4.458  10.958
 9960TIP3   OH251294   0.733   3.335  11.753
 9960TIP3    H151295   0.741   3.362  11.662
 9960TIP3    H251296   0.682   3.405  11.794
 9961TIP3   OH251297   2.764   6.239   5.222
 9961TIP3    H151298   2.791   6.249   5.130
 9961TIP3    H251299   2.750   6.145   5.232
 9962TIP3   OH251300   2.616   1.271   1.253
 9962TIP3    H151301   2.616   1.238   1.342
 9962TIP3    H251302   2.534   1.238   1.215
 9963TIP3   OH251303   3.976   0.022  15.681
 9963TIP3    H151304   3.957  -0.053  15.624
 9963TIP3    H251305   4.059   0.056  15.648
 9964TIP3   OH251306   2.602   1.592  11.384
 9964TIP3    H151307   2.598   1.643  11.304
 9964TIP3    H251308   2.528   1.532  11.378
 9965TIP3   OH251309   6.661   2.899   3.439
 9965TIP3    H151310   6.732   2.861   3.492
 9965TIP3    H251311   6.582   2.878   3.487
 9966TIP3   OH251312   1.977   3.900  13.535
 9966TIP3    H151313   1.976   3.951  13.616
 9966TIP3    H251314   1.886   3.903  13.504
 9967TIP3   OH251315   5.199   2.370  13.922
 9967TIP3    H151316   5.193   2.275  13.918
 9967TIP3    H251317   5.285   2.390  13.884
 9968TIP3   OH251318   1.041   4.068  11.935
 9968TIP3    H151319   1.079   3.991  11.977
 9968TIP3    H251320   1.114   4.109  11.890
 9969TIP3   OH251321   2.250   6.180   3.960
 9969TIP3    H151322   2.334   6.211   3.926
 9969TIP3    H251323   2.240   6.093   3.920
 9970TIP3   OH251324   1.472   2.397  13.678
 9970TIP3    H151325   1.499   2.330  13.741
 9970TIP3    H251326   1.540   2.465  13.685
 9971TIP3   OH251327   2.834   2.753   1.124
 9971TIP3    H151328   2.783   2.672   1.130
 9971TIP3    H251329   2.878   2.748   1.040
 9972TIP3   OH251330   5.494   2.628  13.532
 9972TIP3    H151331   5.488   2.575  13.453
 9972TIP3    H251332   5.405   2.628  13.567
 9973TIP3   OH251333   6.771   0.593   1.322
 9973TIP3    H151334   6.764   0.667   1.261
 9973TIP3    H251335   6.788   0.517   1.266
 9974TIP3   OH251336   6.431   0.704  13.418
 9974TIP3    H151337   6.470   0.782  13.458
 9974TIP3    H251338   6.410   0.731  13.329
 9975TIP3   OH251339   3.652   6.399  14.937
 9975TIP3    H151340   3.715   6.387  15.008
 9975TIP3    H251341   3.645   6.313  14.896
 9976TIP3   OH251342   3.552   2.836  13.366
 9976TIP3    H151343   3.542   2.928  13.339
 9976TIP3    H251344   3.639   2.831  13.404
 9977TIP3   OH251345   1.938   4.831   2.769
 9977TIP3    H151346   1.984   4.747   2.771
 9977TIP3    H251347   1.850   4.810   2.739
 9978TIP3   OH251348   3.903   0.499  10.946
 9978TIP3    H151349   3.975   0.437  10.953
 9978TIP3    H251350   3.906   0.548  11.028
 9979TIP3   OH251351   1.440   1.593  11.095
 9979TIP3    H151352   1.399   1.549  11.020
 9979TIP3    H251353   1.532   1.602  11.070
 9980TIP3   OH251354   3.984   3.823  15.148
 9980TIP3    H151355   3.898   3.787  15.170
 9980TIP3    H251356   4.003   3.788  15.061
 9981TIP3   OH251357   2.247   0.271  16.818
 9981TIP3    H151358   2.174   0.316  16.775
 9981TIP3    H251359   2.212   0.245  16.903
 9982TIP3   OH251360   4.916   2.205  12.216
 9982TIP3    H151361   4.867   2.154  12.280
 9982TIP3    H251362   5.008   2.182  12.233
 9983TIP3   OH251363   4.627   2.478   6.436
 9983TIP3    H151364   4.564   2.502   6.367
 9983TIP3    H251365   4.685   2.554   6.442
 9984TIP3   OH251366   6.480   4.348  17.090
 9984TIP3    H151367   6.535   4.275  17.120
 9984TIP3    H251368   6.542   4.413  17.058
 9985TIP3   OH251369   2.526   3.852  15.356
 9985TIP3    H151370   2.491   3.837  15.444
 9985TIP3    H251371   2.448   3.850  15.300
 9986TIP3   OH251372   3.833   4.097   0.419
 9986TIP3    H151373   3.912   4.073   0.467
 9986TIP3    H251374   3.834   4.193   0.416
 9987TIP3   OH251375   0.657   5.769   5.444
 9987TIP3    H151376   0.730   5.767   5.505
 9987TIP3    H251377   0.693   5.739   5.361
 9988TIP3   OH251378   1.785   2.341  13.726
 9988TIP3    H151379   1.748   2.429  13.721
 9988TIP3    H251380   1.755   2.298  13.645
 9989TIP3   OH251381   2.129   4.624   1.186
 9989TIP3    H151382   2.224   4.633   1.201
 9989TIP3    H251383   2.120   4.537   1.147
 9990TIP3   OH251384   0.086   0.627   4.817
 9990TIP3    H151385   0.178   0.641   4.793
 9990TIP3    H251386   0.059   0.550   4.766
 9991TIP3   OH251387   5.168   0.574  13.600
 9991TIP3    H151388   5.089   0.536  13.638
 9991TIP3    H251389   5.137   0.645  13.544
 9992TIP3   OH251390   0.767   3.523   5.406
 9992TIP3    H151391   0.692   3.540   5.348
 9992TIP3    H251392   0.818   3.456   5.360
 9993TIP3   OH251393   2.904   0.842  15.026
 9993TIP3    H151394   2.934   0.931  15.040
 9993TIP3    H251395   2.897   0.805  15.114
 9994TIP3   OH251396   5.701   1.684   0.393
 9994TIP3    H151397   5.696   1.694   0.298
 9994TIP3    H251398   5.778   1.734   0.419
 9995TIP3   OH251399   2.417   5.628   2.794
 9995TIP3    H151400   2.482   5.696   2.780
 9995TIP3    H251401   2.359   5.664   2.861
 9996TIP3   OH251402   0.759   5.561   3.959
 9996TIP3    H151403   0.789   5.518   3.879
 9996TIP3    H251404   0.682   5.611   3.933
 9997TIP3   OH251405   3.845   6.236   2.082
 9997TIP3    H151406   3.898   6.308   2.116
 9997TIP3    H251407   3.902   6.191   2.019
 9998TIP3   OH251408   6.768   2.760   0.545
 9998TIP3    H151409   6.853   2.718   0.557
 9998TIP3    H251410   6.716   2.696   0.496
 9999TIP3   OH251411   6.387   3.725  15.240
 9999TIP3    H151412   6.444   3.775  15.181
 9999TIP3    H251413   6.391   3.636  15.206
10000TIP3   OH251414   3.072   1.804  10.600
10000TIP3    H151415   3.108   1.870  10.542
10000TIP3    H251416   3.040   1.735  10.542
10001TIP3   OH251417   4.807   5.462  12.174
10001TIP3    H151418   4.833   5.389  12.118
10001TIP3    H251419   4.885   5.480  12.226
10002TIP3   OH251420   0.159   5.164   1.574
10002TIP3    H151421   0.223   5.092   1.570
10002TIP3    H251422   0.075   5.121   1.557
10003TIP3   OH251423   0.121   5.117  12.233
10003TIP3    H151424   0.131   5.022  12.239
10003TIP3    H251425   0.086   5.143  12.319
10004TIP3   OH251426   5.298   0.129   2.985
10004TIP3    H151427   5.237   0.125   2.912
10004TIP3    H251428   5.245   0.159   3.059
10005TIP3   OH251429   3.256   0.286  12.643
10005TIP3    H151430   3.335   0.338  12.658
10005TIP3    H251431   3.212   0.285  12.727
10006TIP3   OH251432   3.082   5.071  14.515
10006TIP3    H151433   2.994   5.107  14.527
10006TIP3    H251434   3.096   5.015  14.591
10007TIP3   OH251435   1.817   5.918  16.809
10007TIP3    H151436   1.787   5.940  16.721
10007TIP3    H251437   1.785   5.829  16.823
10008TIP3   OH251438   1.509   4.505  13.003
10008TIP3    H151439   1.442   4.443  12.978
10008TIP3    H251440   1.466   4.564  13.066
10009TIP3   OH251441   4.908   5.614  14.582
10009TIP3    H151442   4.851   5.544  14.611
10009TIP3    H251443   4.904   5.679  14.652
10010TIP3   OH251444   0.758   1.239   2.283
10010TIP3    H151445   0.821   1.306   2.307
10010TIP3    H251446   0.725   1.267   2.197
10011TIP3   OH251447   6.574   4.376   1.933
10011TIP3    H151448   6.577   4.306   1.868
10011TIP3    H251449   6.488   4.367   1.974
10012TIP3   OH251450   1.565   3.945   0.616
10012TIP3    H151451   1.476   3.912   0.601
10012TIP3    H251452   1.561   3.987   0.702
10013TIP3   OH251453   4.472   6.112  15.247
10013TIP3    H151454   4.470   6.181  15.313
10013TIP3    H251455   4.485   6.158  15.164
10014TIP3   OH251456   0.199   1.482   1.982
10014TIP3    H151457   0.268   1.455   1.921
10014TIP3    H251458   0.221   1.571   2.007
10015TIP3   OH251459   6.344   5.957  11.002
10015TIP3    H151460   6.279   6.008  10.954
10015TIP3    H251461   6.382   6.020  11.064
10016TIP3   OH251462   1.893   4.665   6.147
10016TIP3    H151463   1.862   4.576   6.165
10016TIP3    H251464   1.815   4.713   6.119
10017TIP3   OH251465   0.197   5.476   3.915
10017TIP3    H151466   0.241   5.404   3.871
10017TIP3    H251467   0.234   5.477   4.003
10018TIP3   OH251468   6.669   6.527   2.598
10018TIP3    H151469   6.640   6.538   2.507
10018TIP3    H251470   6.610   6.583   2.648
10019TIP3   OH251471   4.376   2.966   2.110
10019TIP3    H151472   4.354   2.984   2.201
10019TIP3    H251473   4.470   2.947   2.111
10020TIP3   OH251474   0.114   3.087  11.830
10020TIP3    H151475   0.113   3.104  11.736
10020TIP3    H251476   0.141   2.995  11.838
10021TIP3   OH251477   2.542   2.007  14.589
10021TIP3    H151478   2.554   2.079  14.528
10021TIP3    H251479   2.629   1.966  14.595
10022TIP3   OH251480   5.930   1.611   5.210
10022TIP3    H151481   5.849   1.630   5.259
10022TIP3    H251482   5.991   1.580   5.276
10023TIP3   OH251483   2.965   3.399   0.037
10023TIP3    H151484   3.048   3.374  -0.004
10023TIP3    H251485   2.985   3.404   0.130
10024TIP3   OH251486   0.175   2.327   4.063
10024TIP3    H151487   0.120   2.391   4.108
10024TIP3    H251488   0.263   2.365   4.063
10025TIP3   OH251489   0.600   4.290  10.715
10025TIP3    H151490   0.584   4.277  10.621
10025TIP3    H251491   0.571   4.380  10.731
10026TIP3   OH251492   5.470   1.705   2.110
10026TIP3    H151493   5.545   1.695   2.168
10026TIP3    H251494   5.506   1.742   2.030
10027TIP3   OH251495   2.145   5.507  14.541
10027TIP3    H151496   2.111   5.555  14.616
10027TIP3    H251497   2.134   5.415  14.565
10028TIP3   OH251498   0.269   2.380  11.183
10028TIP3    H151499   0.253   2.351  11.093
10028TIP3    H251500   0.182   2.381  11.223
10029TIP3   OH251501   2.223   3.316   1.124
10029TIP3    H151502   2.283   3.388   1.144
10029TIP3    H251503   2.279   3.247   1.089
10030TIP3   OH251504   3.458   6.157  11.576
10030TIP3    H151505   3.477   6.223  11.643
10030TIP3    H251506   3.403   6.093  11.621
10031TIP3   OH251507   6.334   6.265  16.074
10031TIP3    H151508   6.341   6.176  16.040
10031TIP3    H251509   6.299   6.254  16.163
10032TIP3   OH251510   1.665   3.929  16.324
10032TIP3    H151511   1.669   4.024  16.314
10032TIP3    H251512   1.719   3.895  16.254
10033TIP3   OH251513   4.025   2.394   5.631
10033TIP3    H151514   4.044   2.304   5.606
10033TIP3    H251515   4.098   2.420   5.687
10034TIP3   OH251516   1.039   0.731   0.845
10034TIP3    H151517   1.121   0.712   0.799
10034TIP3    H251518   1.066   0.787   0.919
10035TIP3   OH251519   0.328   2.395  16.056
10035TIP3    H151520   0.365   2.366  16.139
10035TIP3    H251521   0.404   2.405  15.999
10036TIP3   OH251522   2.603   2.029   5.153
10036TIP3    H151523   2.635   2.113   5.120
10036TIP3    H251524   2.517   2.018   5.113
10037TIP3   OH251525   2.871   4.537  17.017
10037TIP3    H151526   2.776   4.547  17.006
10037TIP3    H251527   2.882   4.521  17.111
10038TIP3   OH251528   4.678   6.447  12.104
10038TIP3    H151529   4.715   6.375  12.154
10038TIP3    H251530   4.725   6.446  12.020
10039TIP3   OH251531   5.022   2.010  16.152
10039TIP3    H151532   4.930   1.984  16.155
10039TIP3    H251533   5.032   2.051  16.065
10040TIP3   OH251534   3.307   0.895   2.599
10040TIP3    H151535   3.258   0.977   2.606
10040TIP3    H251536   3.263   0.836   2.660
10041TIP3   OH251537   1.521   1.991  10.444
10041TIP3    H151538   1.547   1.942  10.522
10041TIP3    H251539   1.451   1.939  10.405
10042TIP3   OH251540   0.916   1.180  13.192
10042TIP3    H151541   0.856   1.106  13.181
10042TIP3    H251542   0.924   1.191  13.287
10043TIP3   OH251543   4.504   2.977   3.155
10043TIP3    H151544   4.477   3.056   3.109
10043TIP3    H251545   4.427   2.953   3.207
10044TIP3   OH251546   2.643   1.456  16.069
10044TIP3    H151547   2.729   1.429  16.037
10044TIP3    H251548   2.599   1.493  15.992
10045TIP3   OH251549   3.959   4.192   4.807
10045TIP3    H151550   3.967   4.287   4.819
10045TIP3    H251551   3.874   4.170   4.845
10046TIP3   OH251552   3.246   6.661  12.057
10046TIP3    H151553   3.182   6.591  12.046
10046TIP3    H251554   3.290   6.667  11.972
10047TIP3   OH251555   3.309   0.050  13.293
10047TIP3    H151556   3.216   0.028  13.302
10047TIP3    H251557   3.355  -0.015  13.345
10048TIP3   OH251558   3.643   5.473  11.465
10048TIP3    H151559   3.724   5.424  11.450
10048TIP3    H251560   3.672   5.562  11.484
10049TIP3   OH251561   2.897   5.093   4.176
10049TIP3    H151562   2.968   5.035   4.205
10049TIP3    H251563   2.911   5.101   4.081
10050TIP3   OH251564   1.617   5.824   2.254
10050TIP3    H151565   1.675   5.853   2.324
10050TIP3    H251566   1.616   5.896   2.192
10051TIP3   OH251567   6.121   5.801   0.757
10051TIP3    H151568   6.045   5.847   0.724
10051TIP3    H251569   6.090   5.757   0.836
10052TIP3   OH251570   4.435   6.465  11.288
10052TIP3    H151571   4.409   6.390  11.234
10052TIP3    H251572   4.451   6.428  11.375
10053TIP3   OH251573   4.859   5.611  16.232
10053TIP3    H151574   4.802   5.680  16.266
10053TIP3    H251575   4.875   5.553  16.306
10054TIP3   OH251576   5.001   6.736   5.129
10054TIP3    H151577   5.038   6.777   5.050
10054TIP3    H251578   4.925   6.791   5.150
10055TIP3   OH251579   1.489   4.417   2.325
10055TIP3    H151580   1.427   4.485   2.353
10055TIP3    H251581   1.435   4.338   2.319
10056TIP3   OH251582   5.335   1.678   3.462
10056TIP3    H151583   5.249   1.680   3.419
10056TIP3    H251584   5.352   1.585   3.477
10057TIP3   OH251585   5.413   5.952   5.483
10057TIP3    H151586   5.382   5.972   5.394
10057TIP3    H251587   5.345   5.895   5.519
10058TIP3   OH251588   0.069   3.609  12.203
10058TIP3    H151589   0.059   3.594  12.109
10058TIP3    H251590   0.163   3.608  12.218
10059TIP3   OH251591   0.172   0.149   2.233
10059TIP3    H151592   0.120   0.167   2.155
10059TIP3    H251593   0.238   0.218   2.234
10060TIP3   OH251594   3.878   4.427   3.659
10060TIP3    H151595   3.886   4.518   3.689
10060TIP3    H251596   3.961   4.408   3.616
10061TIP3   OH251597   5.415   5.657   1.514
10061TIP3    H151598   5.489   5.661   1.575
10061TIP3    H251599   5.380   5.568   1.524
10062TIP3   OH251600   1.549   3.990   0.146
10062TIP3    H151601   1.476   4.051   0.153
10062TIP3    H251602   1.595   4.015   0.066
10063TIP3   OH251603   6.339   4.485  14.801
10063TIP3    H151604   6.365   4.408  14.851
10063TIP3    H251605   6.415   4.505  14.746
10064TIP3   OH251606   1.730   0.975  11.963
10064TIP3    H151607   1.718   1.009  11.874
10064TIP3    H251608   1.786   1.039  12.006
10065TIP3   OH251609   1.713   5.104  12.816
10065TIP3    H151610   1.739   5.045  12.887
10065TIP3    H251611   1.618   5.111  12.824
10066TIP3   OH251612   3.636   4.009   3.669
10066TIP3    H151613   3.662   4.096   3.639
10066TIP3    H251614   3.615   3.961   3.589
10067TIP3   OH251615   1.157   6.356   2.427
10067TIP3    H151616   1.072   6.338   2.388
10067TIP3    H251617   1.136   6.388   2.515
10068TIP3   OH251618   1.917   2.671  13.322
10068TIP3    H151619   1.853   2.641  13.387
10068TIP3    H251620   1.869   2.736  13.270
10069TIP3   OH251621   5.493   0.114  12.283
10069TIP3    H151622   5.586   0.100  12.305
10069TIP3    H251623   5.488   0.206  12.258
10070TIP3   OH251624   4.876   0.731  13.262
10070TIP3    H151625   4.859   0.637  13.261
10070TIP3    H251626   4.857   0.758  13.351
10071TIP3   OH251627   5.806   3.115  12.371
10071TIP3    H151628   5.773   3.046  12.314
10071TIP3    H251629   5.737   3.128  12.436
10072TIP3   OH251630   4.076   1.963   2.298
10072TIP3    H151631   4.163   1.965   2.338
10072TIP3    H251632   4.039   2.049   2.317
10073TIP3   OH251633   3.057   5.533  14.328
10073TIP3    H151634   3.117   5.607  14.327
10073TIP3    H251635   3.099   5.467  14.272
10074TIP3   OH251636   4.782   3.079  11.321
10074TIP3    H151637   4.845   3.040  11.261
10074TIP3    H251638   4.721   3.127  11.264
10075TIP3   OH251639   3.219   2.174  14.451
10075TIP3    H151640   3.258   2.144  14.369
10075TIP3    H251641   3.219   2.269  14.445
10076TIP3   OH251642   1.002   3.295  12.716
10076TIP3    H151643   0.999   3.379  12.761
10076TIP3    H251644   1.005   3.230  12.786
10077TIP3   OH251645   2.479   0.771  16.242
10077TIP3    H151646   2.454   0.854  16.201
10077TIP3    H251647   2.570   0.757  16.212
10078TIP3   OH251648   3.081   1.250   1.912
10078TIP3    H151649   3.020   1.184   1.879
10078TIP3    H251650   3.049   1.270   2.000
10079TIP3   OH251651   0.537   2.678   1.550
10079TIP3    H151652   0.545   2.692   1.456
10079TIP3    H251653   0.445   2.696   1.570
10080TIP3   OH251654   6.267   6.259  11.372
10080TIP3    H151655   6.221   6.176  11.388
10080TIP3    H251656   6.326   6.240  11.299
10081TIP3   OH251657   5.343   6.306   3.391
10081TIP3    H151658   5.316   6.378   3.447
10081TIP3    H251659   5.287   6.233   3.418
10082TIP3   OH251660   1.786   1.418   1.183
10082TIP3    H151661   1.798   1.501   1.230
10082TIP3    H251662   1.875   1.391   1.160
10083TIP3   OH251663   4.551   5.283  10.575
10083TIP3    H151664   4.560   5.249  10.664
10083TIP3    H251665   4.518   5.208  10.525
10084TIP3   OH251666   0.921   3.366   1.520
10084TIP3    H151667   0.853   3.411   1.470
10084TIP3    H251668   0.917   3.407   1.607
10085TIP3   OH251669   5.673   4.921   2.694
10085TIP3    H151670   5.720   4.838   2.686
10085TIP3    H251671   5.581   4.896   2.706
10086TIP3   OH251672   0.326   6.301  14.362
10086TIP3    H151673   0.239   6.275  14.333
10086TIP3    H251674   0.370   6.219  14.382
10087TIP3   OH251675   6.330   6.270  15.781
10087TIP3    H151676   6.334   6.365  15.781
10087TIP3    H251677   6.398   6.243  15.721
10088TIP3   OH251678   2.769   4.168  12.974
10088TIP3    H151679   2.744   4.260  12.977
10088TIP3    H251680   2.776   4.148  12.880
10089TIP3   OH251681   4.661   3.812   4.268
10089TIP3    H151682   4.583   3.783   4.315
10089TIP3    H251683   4.695   3.885   4.321
10090TIP3   OH251684   5.680   2.480  14.705
10090TIP3    H151685   5.630   2.531  14.769
10090TIP3    H251686   5.628   2.484  14.625
10091TIP3   OH251687   1.495   6.495   6.463
10091TIP3    H151688   1.444   6.464   6.538
10091TIP3    H251689   1.586   6.491   6.492
10092TIP3   OH251690   3.108   5.703   5.318
10092TIP3    H151691   3.167   5.735   5.386
10092TIP3    H251692   3.161   5.700   5.238
10093TIP3   OH251693   5.864   1.469  12.209
10093TIP3    H151694   5.958   1.459  12.221
10093TIP3    H251695   5.840   1.541  12.266
10094TIP3   OH251696   4.000   4.511  12.876
10094TIP3    H151697   3.937   4.495  12.946
10094TIP3    H251698   4.082   4.531  12.922
10095TIP3   OH251699   2.137   1.874   3.850
10095TIP3    H151700   2.146   1.819   3.773
10095TIP3    H251701   2.065   1.933   3.830
10096TIP3   OH251702   2.262   6.089  13.617
10096TIP3    H151703   2.190   6.152  13.606
10096TIP3    H251704   2.220   6.004  13.612
10097TIP3   OH251705   4.586   4.391   2.609
10097TIP3    H151706   4.663   4.384   2.552
10097TIP3    H251707   4.612   4.348   2.690
10098TIP3   OH251708   2.521   5.506   4.636
10098TIP3    H151709   2.573   5.446   4.690
10098TIP3    H251710   2.477   5.563   4.699
10099TIP3   OH251711   3.813   2.314  12.905
10099TIP3    H151712   3.736   2.259  12.891
10099TIP3    H251713   3.838   2.299  12.996
10100TIP3   OH251714   4.187   4.446   1.092
10100TIP3    H151715   4.166   4.413   1.004
10100TIP3    H251716   4.279   4.423   1.104
10101TIP3   OH251717   3.765   4.181  13.597
10101TIP3    H151718   3.707   4.106  13.588
10101TIP3    H251719   3.707   4.256  13.610
10102TIP3   OH251720   3.487   0.174   3.930
10102TIP3    H151721   3.534   0.248   3.891
10102TIP3    H251722   3.395   0.192   3.910
10103TIP3   OH251723   0.032   0.812   5.714
10103TIP3    H151724   0.002   0.894   5.675
10103TIP3    H251725  -0.045   0.776   5.757
10104TIP3   OH251726   5.955   3.576  11.170
10104TIP3    H151727   5.879   3.612  11.216
10104TIP3    H251728   5.953   3.483  11.190
10105TIP3   OH251729   0.186   3.994  10.328
10105TIP3    H151730   0.109   4.039  10.295
10105TIP3    H251731   0.153   3.939  10.399
10106TIP3   OH251732   3.481   4.886   3.647
10106TIP3    H151733   3.438   4.832   3.580
10106TIP3    H251734   3.574   4.865   3.638
10107TIP3   OH251735   5.041   0.903   0.460
10107TIP3    H151736   4.974   0.843   0.427
10107TIP3    H251737   5.012   0.926   0.548
10108TIP3   OH251738   4.896   6.390  11.778
10108TIP3    H151739   4.834   6.340  11.832
10108TIP3    H251740   4.841   6.450  11.728
10109TIP3   OH251741   2.149   4.899  13.308
10109TIP3    H151742   2.168   4.973  13.250
10109TIP3    H251743   2.137   4.824  13.249
10110TIP3   OH251744   1.965   5.623  11.623
10110TIP3    H151745   1.968   5.538  11.668
10110TIP3    H251746   2.057   5.646  11.611
10111TIP3   OH251747   1.585   5.020  14.742
10111TIP3    H151748   1.636   5.097  14.767
10111TIP3    H251749   1.642   4.945  14.762
10112TIP3   OH251750   5.538   0.591   3.854
10112TIP3    H151751   5.464   0.615   3.798
10112TIP3    H251752   5.503   0.595   3.943
10113TIP3   OH251753   1.019   2.284  11.283
10113TIP3    H151754   0.925   2.286  11.301
10113TIP3    H251755   1.025   2.297  11.188
10114TIP3   OH251756   1.674   0.811  11.157
10114TIP3    H151757   1.661   0.831  11.065
10114TIP3    H251758   1.676   0.715  11.161
10115TIP3   OH251759   3.873   2.900   5.904
10115TIP3    H151760   3.874   2.815   5.947
10115TIP3    H251761   3.932   2.954   5.956
10116TIP3   OH251762   2.300   4.791  13.913
10116TIP3    H151763   2.358   4.819  13.984
10116TIP3    H251764   2.268   4.873  13.874
10117TIP3   OH251765   6.636   0.604  12.360
10117TIP3    H151766   6.711   0.578  12.306
10117TIP3    H251767   6.566   0.624  12.297
10118TIP3   OH251768   3.198   0.812   5.051
10118TIP3    H151769   3.279   0.831   5.004
10118TIP3    H251770   3.166   0.897   5.080
10119TIP3   OH251771   2.349   2.009   5.061
10119TIP3    H151772   2.254   1.999   5.052
10119TIP3    H251773   2.378   2.039   4.975
10120TIP3   OH251774   0.298   1.015  17.060
10120TIP3    H151775   0.347   1.036  16.981
10120TIP3    H251776   0.359   0.963  17.113
10121TIP3   OH251777   5.115   4.666   6.639
10121TIP3    H151778   5.114   4.579   6.599
10121TIP3    H251779   5.206   4.695   6.632
10122TIP3   OH251780   0.933   0.358  11.159
10122TIP3    H151781   0.941   0.276  11.208
10122TIP3    H251782   0.851   0.349  11.110
10123TIP3   OH251783   5.091   5.000   5.754
10123TIP3    H151784   5.147   5.061   5.706
10123TIP3    H251785   5.072   4.930   5.691
10124TIP3   OH251786   2.244   1.346   0.180
10124TIP3    H151787   2.295   1.267   0.195
10124TIP3    H251788   2.186   1.324   0.107
10125TIP3   OH251789   2.584   5.961   1.277
10125TIP3    H151790   2.550   6.049   1.293
10125TIP3    H251791   2.556   5.940   1.188
10126TIP3   OH251792   1.748   5.181   2.515
10126TIP3    H151793   1.658   5.200   2.540
10126TIP3    H251794   1.797   5.186   2.597
10127TIP3   OH251795   1.019   5.800  13.301
10127TIP3    H151796   0.966   5.845  13.236
10127TIP3    H251797   1.106   5.794  13.261
10128TIP3   OH251798   2.913   0.395   3.710
10128TIP3    H151799   2.829   0.436   3.730
10128TIP3    H251800   2.950   0.451   3.641
10129TIP3   OH251801   1.360   4.305  15.960
10129TIP3    H151802   1.347   4.331  15.869
10129TIP3    H251803   1.285   4.342  16.007
10130TIP3   OH251804   6.486   6.247  11.547
10130TIP3    H151805   6.453   6.246  11.637
10130TIP3    H251806   6.407   6.257  11.493
10131TIP3   OH251807   1.496   2.738  16.744
10131TIP3    H151808   1.530   2.765  16.659
10131TIP3    H251809   1.573   2.731  16.800
10132TIP3   OH251810   2.943   2.600   5.755
10132TIP3    H151811   2.937   2.517   5.708
10132TIP3    H251812   3.036   2.619   5.759
10133TIP3   OH251813   0.488   1.586   1.355
10133TIP3    H151814   0.448   1.502   1.334
10133TIP3    H251815   0.454   1.608   1.442
10134TIP3   OH251816   5.001   5.956   0.157
10134TIP3    H151817   4.926   5.897   0.161
10134TIP3    H251818   5.010   5.975   0.064
10135TIP3   OH251819   4.985   1.866  13.810
10135TIP3    H151820   4.922   1.799  13.784
10135TIP3    H251821   5.006   1.845  13.901
10136TIP3   OH251822   6.083   5.742  13.145
10136TIP3    H151823   6.051   5.711  13.060
10136TIP3    H251824   6.138   5.670  13.177
10137TIP3   OH251825   4.716   0.386   5.893
10137TIP3    H151826   4.764   0.465   5.914
10137TIP3    H251827   4.640   0.387   5.951
10138TIP3   OH251828   2.561   1.959   1.729
10138TIP3    H151829   2.476   1.956   1.772
10138TIP3    H251830   2.583   1.868   1.713
10139TIP3   OH251831   1.149   5.935  13.894
10139TIP3    H151832   1.187   5.877  13.960
10139TIP3    H251833   1.098   5.877  13.837
10140TIP3   OH251834   6.218   3.661   0.090
10140TIP3    H151835   6.185   3.653   0.000
10140TIP3    H251836   6.225   3.571   0.122
10141TIP3   OH251837   0.908   6.630   3.467
10141TIP3    H151838   0.927   6.613   3.559
10141TIP3    H251839   0.825   6.678   3.468
10142TIP3   OH251840   4.385   2.309   5.726
10142TIP3    H151841   4.341   2.392   5.748
10142TIP3    H251842   4.427   2.327   5.642
10143TIP3   OH251843   1.635   1.748  15.198
10143TIP3    H151844   1.705   1.706  15.248
10143TIP3    H251845   1.681   1.795  15.128
10144TIP3   OH251846   5.436   4.790   3.329
10144TIP3    H151847   5.510   4.850   3.323
10144TIP3    H251848   5.463   4.725   3.393
10145TIP3   OH251849   3.900   3.354   5.970
10145TIP3    H151850   3.983   3.392   5.996
10145TIP3    H251851   3.888   3.279   6.029
10146TIP3   OH251852   3.997   6.186   4.849
10146TIP3    H151853   4.058   6.163   4.779
10146TIP3    H251854   3.910   6.184   4.807
10147TIP3   OH251855   1.473   1.876  14.636
10147TIP3    H151856   1.558   1.843  14.606
10147TIP3    H251857   1.421   1.797  14.651
10148TIP3   OH251858   1.810   5.471   0.706
10148TIP3    H151859   1.780   5.551   0.663
10148TIP3    H251860   1.772   5.400   0.655
10149TIP3   OH251861   5.335   3.045  13.617
10149TIP3    H151862   5.270   3.025  13.549
10149TIP3    H251863   5.407   2.985  13.599
10150TIP3   OH251864   3.349   6.554  12.579
10150TIP3    H151865   3.335   6.492  12.508
10150TIP3    H251866   3.435   6.592  12.562
10151TIP3   OH251867   0.907   2.242   1.021
10151TIP3    H151868   0.878   2.299   0.950
10151TIP3    H251869   0.915   2.300   1.097
10152TIP3   OH251870   3.399   2.826  15.790
10152TIP3    H151871   3.334   2.868  15.845
10152TIP3    H251872   3.421   2.892  15.724
10153TIP3   OH251873   3.382   3.813   4.485
10153TIP3    H151874   3.400   3.898   4.523
10153TIP3    H251875   3.454   3.757   4.514
10154TIP3   OH251876   4.519   2.631  12.556
10154TIP3    H151877   4.430   2.598  12.565
10154TIP3    H251878   4.524   2.664  12.466
10155TIP3   OH251879   3.457   3.508   1.851
10155TIP3    H151880   3.525   3.477   1.792
10155TIP3    H251881   3.375   3.485   1.808
10156TIP3   OH251882   6.210   2.981  13.815
10156TIP3    H151883   6.123   2.946  13.794
10156TIP3    H251884   6.209   3.071  13.781
10157TIP3   OH251885   5.732   2.302   1.014
10157TIP3    H151886   5.708   2.393   1.032
10157TIP3    H251887   5.810   2.308   0.960
10158TIP3   OH251888   4.754   5.577   4.419
10158TIP3    H151889   4.840   5.536   4.408
10158TIP3    H251890   4.772   5.671   4.419
10159TIP3   OH251891   3.530   0.864  15.978
10159TIP3    H151892   3.495   0.901  15.897
10159TIP3    H251893   3.518   0.770  15.969
10160TIP3   OH251894   2.286   4.621   0.877
10160TIP3    H151895   2.198   4.638   0.910
10160TIP3    H251896   2.336   4.699   0.900
10161TIP3   OH251897   5.374   3.920  11.481
10161TIP3    H151898   5.362   3.923  11.576
10161TIP3    H251899   5.467   3.900  11.469
10162TIP3   OH251900   5.127   0.507  11.871
10162TIP3    H151901   5.209   0.538  11.833
10162TIP3    H251902   5.118   0.557  11.952
10163TIP3   OH251903   5.875   5.788   1.922
10163TIP3    H151904   5.934   5.753   1.989
10163TIP3    H251905   5.819   5.849   1.969
10164TIP3   OH251906   1.546   1.372  13.698
10164TIP3    H151907   1.521   1.283  13.671
10164TIP3    H251908   1.596   1.359  13.778
10165TIP3   OH251909   5.401   2.099   1.745
10165TIP3    H151910   5.371   2.060   1.662
10165TIP3    H251911   5.329   2.083   1.806
10166TIP3   OH251912   1.560   5.060  16.467
10166TIP3    H151913   1.620   5.055  16.392
10166TIP3    H251914   1.488   5.114  16.436
10167TIP3   OH251915   3.455   6.402  13.366
10167TIP3    H151916   3.467   6.316  13.407
10167TIP3    H251917   3.539   6.446  13.378
10168TIP3   OH251918   5.004   4.085   5.768
10168TIP3    H151919   5.060   4.037   5.829
10168TIP3    H251920   4.944   4.019   5.734
10169TIP3   OH251921   4.759   1.303  14.319
10169TIP3    H151922   4.703   1.244  14.269
10169TIP3    H251923   4.798   1.361  14.254
10170TIP3   OH251924   1.034   4.896  14.232
10170TIP3    H151925   1.114   4.939  14.261
10170TIP3    H251926   1.040   4.807  14.267
10171TIP3   OH251927   0.643   0.599  15.956
10171TIP3    H151928   0.575   0.666  15.969
10171TIP3    H251929   0.665   0.606  15.863
10172TIP3   OH251930   6.763   5.212   5.060
10172TIP3    H151931   6.679   5.221   5.106
10172TIP3    H251932   6.773   5.118   5.046
10173TIP3   OH251933   1.377   1.608   6.115
10173TIP3    H151934   1.375   1.550   6.191
10173TIP3    H251935   1.306   1.670   6.130
10174TIP3   OH251936   5.075   6.597  13.618
10174TIP3    H151937   5.133   6.578  13.692
10174TIP3    H251938   5.095   6.687  13.593
10175TIP3   OH251939   4.282   0.697  15.252
10175TIP3    H151940   4.219   0.732  15.314
10175TIP3    H251941   4.367   0.712  15.293
10176TIP3   OH251942   2.965   6.403  13.357
10176TIP3    H151943   2.886   6.415  13.305
10176TIP3    H251944   2.935   6.358  13.436
10177TIP3   OH251945   3.287   0.753  11.297
10177TIP3    H151946   3.379   0.730  11.302
10177TIP3    H251947   3.251   0.696  11.229
10178TIP3   OH251948   4.184   2.759   5.821
10178TIP3    H151949   4.200   2.836   5.876
10178TIP3    H251950   4.124   2.791   5.753
10179TIP3   OH251951   1.324   6.089   1.588
10179TIP3    H151952   1.388   6.035   1.542
10179TIP3    H251953   1.327   6.059   1.678
10180TIP3   OH251954   6.252   2.409   3.213
10180TIP3    H151955   6.206   2.378   3.291
10180TIP3    H251956   6.268   2.330   3.162
10181TIP3   OH251957   0.474   3.865  13.137
10181TIP3    H151958   0.524   3.945  13.121
10181TIP3    H251959   0.500   3.839  13.225
10182TIP3   OH251960   0.345   2.480   3.219
10182TIP3    H151961   0.429   2.460   3.260
10182TIP3    H251962   0.292   2.402   3.235
10183TIP3   OH251963   0.310   3.667   1.238
10183TIP3    H151964   0.366   3.658   1.316
10183TIP3    H251965   0.346   3.743   1.193
10184TIP3   OH251966   5.089   3.029  15.156
10184TIP3    H151967   5.139   3.015  15.237
10184TIP3    H251968   5.156   3.037  15.088
10185TIP3   OH251969   3.461   4.555   3.337
10185TIP3    H151970   3.422   4.495   3.401
10185TIP3    H251971   3.473   4.501   3.258
10186TIP3   OH251972   2.314   2.916   5.835
10186TIP3    H151973   2.264   2.851   5.885
10186TIP3    H251974   2.392   2.933   5.888
10187TIP3   OH251975   5.993   3.993   6.272
10187TIP3    H151976   6.066   4.050   6.248
10187TIP3    H251977   5.966   4.022   6.359
10188TIP3   OH251978   5.422   0.774  16.105
10188TIP3    H151979   5.417   0.808  16.195
10188TIP3    H251980   5.354   0.707  16.101
10189TIP3   OH251981   0.214   0.123   0.327
10189TIP3    H151982   0.255   0.037   0.333
10189TIP3    H251983   0.272   0.181   0.376
10190TIP3   OH251984   2.865   4.392   4.801
10190TIP3    H151985   2.856   4.431   4.888
10190TIP3    H251986   2.899   4.304   4.819
10191TIP3   OH251987   4.961   5.617   3.555
10191TIP3    H151988   4.953   5.522   3.568
10191TIP3    H251989   5.032   5.644   3.613
10192TIP3   OH251990   0.499   0.809  16.255
10192TIP3    H151991   0.450   0.728  16.242
10192TIP3    H251992   0.519   0.840  16.167
10193TIP3   OH251993   1.401   3.769   5.891
10193TIP3    H151994   1.399   3.827   5.967
10193TIP3    H251995   1.311   3.741   5.879
10194TIP3   OH251996   4.268   2.088   5.449
10194TIP3    H151997   4.356   2.123   5.439
10194TIP3    H251998   4.250   2.094   5.543
10195TIP3   OH251999   4.806   1.714  15.872
10195TIP3    H152000   4.830   1.626  15.899
10195TIP3    H252001   4.889   1.755  15.847
10196TIP3   OH252002   3.499   0.149   3.332
10196TIP3    H152003   3.511   0.233   3.289
10196TIP3    H252004   3.517   0.166   3.425
10197TIP3   OH252005   6.336   0.954   1.093
10197TIP3    H152006   6.285   1.013   1.149
10197TIP3    H252007   6.272   0.888   1.064
10198TIP3   OH252008   3.440   2.831   1.197
10198TIP3    H152009   3.378   2.819   1.269
10198TIP3    H252010   3.522   2.855   1.240
10199TIP3   OH252011   1.006   1.915  11.838
10199TIP3    H152012   1.037   2.000  11.808
10199TIP3    H252013   0.970   1.932  11.925
10200TIP3   OH252014   0.387   0.715  14.275
10200TIP3    H152015   0.298   0.734  14.304
10200TIP3    H252016   0.385   0.624  14.246
10201TIP3   OH252017   3.148   0.547   5.714
10201TIP3    H152018   3.203   0.542   5.792
10201TIP3    H252019   3.156   0.638   5.685
10202TIP3   OH252020   4.325   0.854  14.372
10202TIP3    H152021   4.345   0.793  14.443
10202TIP3    H252022   4.242   0.895  14.398
10203TIP3   OH252023   1.109   2.131  10.471
10203TIP3    H152024   1.178   2.100  10.529
10203TIP3    H252025   1.131   2.222  10.453
10204TIP3   OH252026   0.137   6.254  12.547
10204TIP3    H152027   0.228   6.236  12.523
10204TIP3    H252028   0.112   6.178  12.600
10205TIP3   OH252029   6.743   5.487   1.495
10205TIP3    H152030   6.690   5.544   1.438
10205TIP3    H252031   6.686   5.414   1.515
10206TIP3   OH252032   5.169   4.811   2.940
10206TIP3    H152033   5.130   4.826   3.026
10206TIP3    H252034   5.248   4.760   2.958
10207TIP3   OH252035   4.231   4.774  10.476
10207TIP3    H152036   4.154   4.718  10.467
10207TIP3    H252037   4.284   4.732  10.544
10208TIP3   OH252038   0.771   2.388   1.789
10208TIP3    H152039   0.844   2.374   1.850
10208TIP3    H252040   0.712   2.315   1.806
10209TIP3   OH252041   0.855   1.974   5.497
10209TIP3    H152042   0.838   1.952   5.405
10209TIP3    H252043   0.780   1.937   5.544
10210TIP3   OH252044   0.272   5.271   2.871
10210TIP3    H152045   0.228   5.261   2.786
10210TIP3    H252046   0.333   5.198   2.876
10211TIP3   OH252047   4.743   6.272   0.127
10211TIP3    H152048   4.683   6.344   0.105
10211TIP3    H252049   4.826   6.316   0.147
10212TIP3   OH252050   6.716   1.824  15.416
10212TIP3    H152051   6.714   1.915  15.443
10212TIP3    H252052   6.651   1.781  15.471
10213TIP3   OH252053   6.625   3.249   6.068
10213TIP3    H152054   6.683   3.174   6.056
10213TIP3    H252055   6.588   3.238   6.155
10214TIP3   OH252056   0.763   5.303  14.044
10214TIP3    H152057   0.841   5.280  14.094
10214TIP3    H252058   0.690   5.263  14.092
10215TIP3   OH252059   1.615   0.743  17.009
10215TIP3    H152060   1.676   0.706  16.945
10215TIP3    H252061   1.534   0.695  16.996
10216TIP3   OH252062   2.738   4.898   5.095
10216TIP3    H152063   2.822   4.851   5.100
10216TIP3    H252064   2.705   4.896   5.185
10217TIP3   OH252065   6.179   6.493   3.082
10217TIP3    H152066   6.182   6.408   3.125
10217TIP3    H252067   6.217   6.478   2.995
10218TIP3   OH252068   4.286   5.816   2.718
10218TIP3    H152069   4.381   5.820   2.724
10218TIP3    H252070   4.269   5.766   2.638
10219TIP3   OH252071   4.579   2.538  14.821
10219TIP3    H152072   4.612   2.530  14.732
10219TIP3    H252073   4.528   2.619  14.821
10220TIP3   OH252074   5.242   6.253   5.986
10220TIP3    H152075   5.228   6.341   6.022
10220TIP3    H252076   5.326   6.225   6.022
10221TIP3   OH252077   6.363   3.399  17.072
10221TIP3    H152078   6.294   3.338  17.046
10221TIP3    H252079   6.324   3.486  17.061
10222TIP3   OH252080   4.515   2.437  11.514
10222TIP3    H152081   4.504   2.519  11.563
10222TIP3    H252082   4.542   2.465  11.427
10223TIP3   OH252083   4.650   5.663  12.273
10223TIP3    H152084   4.603   5.690  12.194
10223TIP3    H252085   4.714   5.599  12.242
10224TIP3   OH252086   3.105   2.662   1.156
10224TIP3    H152087   3.112   2.619   1.241
10224TIP3    H252088   3.015   2.692   1.151
10225TIP3   OH252089   3.205   2.171   0.236
10225TIP3    H152090   3.241   2.116   0.306
10225TIP3    H252091   3.282   2.211   0.195
10226TIP3   OH252092   4.132   4.679   2.321
10226TIP3    H152093   4.068   4.685   2.251
10226TIP3    H252094   4.206   4.633   2.282
10227TIP3   OH252095   0.793   4.678  12.564
10227TIP3    H152096   0.702   4.654  12.546
10227TIP3    H252097   0.816   4.628  12.643
10228TIP3   OH252098   4.436   3.849  11.579
10228TIP3    H152099   4.410   3.929  11.625
10228TIP3    H252100   4.422   3.869  11.486
10229TIP3   OH252101   3.905   3.291  15.321
10229TIP3    H152102   3.837   3.232  15.354
10229TIP3    H252103   3.895   3.286  15.225
10230TIP3   OH252104   4.583   3.808   6.649
10230TIP3    H152105   4.600   3.731   6.703
10230TIP3    H252106   4.553   3.773   6.566
10231TIP3   OH252107   3.577   6.333   4.850
10231TIP3    H152108   3.492   6.373   4.870
10231TIP3    H252109   3.560   6.275   4.777
10232TIP3   OH252110   3.224   4.795  14.044
10232TIP3    H152111   3.304   4.744  14.030
10232TIP3    H252112   3.171   4.741  14.102
10233TIP3   OH252113   5.630   1.074   0.726
10233TIP3    H152114   5.577   1.116   0.659
10233TIP3    H252115   5.699   1.028   0.678
10234TIP3   OH252116   5.490   3.657  15.122
10234TIP3    H152117   5.578   3.640  15.155
10234TIP3    H252118   5.502   3.669  15.028
10235TIP3   OH252119   2.055   4.391  13.823
10235TIP3    H152120   2.015   4.356  13.902
10235TIP3    H252121   1.982   4.415  13.767
10236TIP3   OH252122   1.226   3.327  12.562
10236TIP3    H152123   1.154   3.307  12.622
10236TIP3    H252124   1.255   3.415  12.587
10237TIP3   OH252125   4.917   0.076   3.385
10237TIP3    H152126   4.838   0.024   3.371
10237TIP3    H252127   4.954   0.089   3.298
10238TIP3   OH252128   3.988   5.506  12.821
10238TIP3    H152129   3.928   5.567  12.864
10238TIP3    H252130   3.940   5.423  12.817
10239TIP3   OH252131   0.368   5.888  14.648
10239TIP3    H152132   0.396   5.976  14.673
10239TIP3    H252133   0.429   5.863  14.578
10240TIP3   OH252134   1.008   2.526  13.644
10240TIP3    H152135   1.053   2.451  13.681
10240TIP3    H252136   0.963   2.567  13.718
10241TIP3   OH252137   2.537   0.934   3.386
10241TIP3    H152138   2.505   1.007   3.334
10241TIP3    H252139   2.475   0.863   3.368
10242TIP3   OH252140   0.623   4.149  11.541
10242TIP3    H152141   0.637   4.235  11.502
10242TIP3    H252142   0.651   4.158  11.632
10243TIP3   OH252143   6.524   4.344  16.613
10243TIP3    H152144   6.591   4.277  16.598
10243TIP3    H252145   6.509   4.382  16.526
10244TIP3   OH252146   5.836   4.562   5.404
10244TIP3    H152147   5.828   4.591   5.313
10244TIP3    H252148   5.818   4.468   5.401
10245TIP3   OH252149   2.550   4.372  16.931
10245TIP3    H152150   2.611   4.299  16.917
10245TIP3    H252151   2.522   4.362  17.022
10246TIP3   OH252152   0.486   2.629  14.211
10246TIP3    H152153   0.511   2.631  14.303
10246TIP3    H252154   0.517   2.543  14.180
10247TIP3   OH252155   5.265   6.428  10.969
10247TIP3    H152156   5.199   6.444  11.036
10247TIP3    H252157   5.275   6.333  10.965
10248TIP3   OH252158   0.480   3.565  16.373
10248TIP3    H152159   0.437   3.516  16.443
10248TIP3    H252160   0.566   3.524  16.365
10249TIP3   OH252161   1.848   0.942  16.781
10249TIP3    H152162   1.796   1.012  16.822
10249TIP3    H252163   1.882   0.892  16.855
10250TIP3   OH252164   6.312   2.633  11.905
10250TIP3    H152165   6.378   2.575  11.866
10250TIP3    H252166   6.269   2.578  11.971
10251TIP3   OH252167   2.214   4.615  15.357
10251TIP3    H152168   2.263   4.595  15.437
10251TIP3    H252169   2.271   4.589  15.286
10252TIP3   OH252170   5.642   1.331  16.742
10252TIP3    H152171   5.675   1.405  16.793
10252TIP3    H252172   5.691   1.256  16.774
10253TIP3   OH252173   4.418   3.946  13.936
10253TIP3    H152174   4.502   3.975  13.970
10253TIP3    H252175   4.415   3.852  13.956
10254TIP3   OH252176   1.617   0.035   1.508
10254TIP3    H152177   1.683   0.102   1.529
10254TIP3    H252178   1.592   0.053   1.418
10255TIP3   OH252179   1.153   2.223  12.020
10255TIP3    H152180   1.138   2.310  12.055
10255TIP3    H252181   1.117   2.225  11.932
10256TIP3   OH252182   4.423   5.286  11.050
10256TIP3    H152183   4.403   5.307  10.958
10256TIP3    H252184   4.425   5.191  11.053
10257TIP3   OH252185   2.544   3.556   3.044
10257TIP3    H152186   2.591   3.479   3.075
10257TIP3    H252187   2.519   3.535   2.954
10258TIP3   OH252188   6.005   0.743   3.663
10258TIP3    H152189   5.990   0.731   3.569
10258TIP3    H252190   5.917   0.751   3.700
10259TIP3   OH252191   5.985   6.284   5.466
10259TIP3    H152192   6.062   6.236   5.495
10259TIP3    H252193   5.963   6.245   5.381
10260TIP3   OH252194   1.274   6.497  13.091
10260TIP3    H152195   1.298   6.440  13.163
10260TIP3    H252196   1.262   6.438  13.016
10261TIP3   OH252197   4.114   6.612  13.627
10261TIP3    H152198   4.200   6.569  13.623
10261TIP3    H252199   4.126   6.693  13.577
10262TIP3   OH252200   0.931   2.922   6.135
10262TIP3    H152201   0.985   3.002   6.135
10262TIP3    H252202   0.841   2.954   6.132
10263TIP3   OH252203   0.008   3.136   4.156
10263TIP3    H152204  -0.081   3.116   4.186
10263TIP3    H252205  -0.004   3.170   4.068
10264TIP3   OH252206   0.686   3.321   3.386
10264TIP3    H152207   0.704   3.240   3.435
10264TIP3    H252208   0.608   3.357   3.428
10265TIP3   OH252209   2.872   2.440  17.014
10265TIP3    H152210   2.917   2.524  17.028
10265TIP3    H252211   2.921   2.398  16.944
10266TIP3   OH252212   3.146   2.728   0.649
10266TIP3    H152213   3.170   2.690   0.564
10266TIP3    H252214   3.054   2.750   0.640
10267TIP3   OH252215   2.839   3.162   2.153
10267TIP3    H152216   2.916   3.111   2.179
10267TIP3    H252217   2.805   3.197   2.235
10268TIP3   OH252218   2.865   3.218   1.145
10268TIP3    H152219   2.894   3.307   1.164
10268TIP3    H252220   2.793   3.203   1.206
10269TIP3   OH252221   3.356   6.697  15.836
10269TIP3    H152222   3.442   6.658  15.826
10269TIP3    H252223   3.344   6.749  15.756
10270TIP3   OH252224   2.009   4.817   3.038
10270TIP3    H152225   1.941   4.755   3.061
10270TIP3    H252226   1.978   4.858   2.957
10271TIP3   OH252227   0.379   1.566   4.122
10271TIP3    H152228   0.318   1.544   4.052
10271TIP3    H252229   0.362   1.658   4.141
10272TIP3   OH252230   3.928   1.743  12.796
10272TIP3    H152231   3.862   1.709  12.856
10272TIP3    H252232   4.007   1.752  12.850
10273TIP3   OH252233   3.129   0.867   3.046
10273TIP3    H152234   3.177   0.919   3.110
10273TIP3    H252235   3.057   0.828   3.095
10274TIP3   OH252236   5.420   5.564   5.339
10274TIP3    H152237   5.415   5.607   5.424
10274TIP3    H252238   5.403   5.472   5.356
10275TIP3   OH252239   1.703   3.640   5.540
10275TIP3    H152240   1.715   3.546   5.533
10275TIP3    H252241   1.614   3.651   5.575
10276TIP3   OH252242   0.620   1.446   3.881
10276TIP3    H152243   0.666   1.513   3.831
10276TIP3    H252244   0.629   1.473   3.973
10277TIP3   OH252245   4.532   4.829   4.126
10277TIP3    H152246   4.579   4.860   4.049
10277TIP3    H252247   4.477   4.903   4.152
10278TIP3   OH252248   2.969   4.203  11.399
10278TIP3    H152249   3.001   4.215  11.488
10278TIP3    H252250   2.899   4.138  11.406
10279TIP3   OH252251   5.359   0.958   0.880
10279TIP3    H152252   5.434   0.985   0.827
10279TIP3    H252253   5.303   1.036   0.884
10280TIP3   OH252254   1.593   5.429   0.463
10280TIP3    H152255   1.610   5.378   0.384
10280TIP3    H252256   1.502   5.459   0.453
10281TIP3   OH252257   3.848   2.804   1.847
10281TIP3    H152258   3.857   2.848   1.932
10281TIP3    H252259   3.782   2.856   1.801
10282TIP3   OH252260   1.554   2.494  14.011
10282TIP3    H152261   1.558   2.417  13.954
10282TIP3    H252262   1.630   2.546  13.987
10283TIP3   OH252263   3.287   4.255  12.756
10283TIP3    H152264   3.375   4.264  12.718
10283TIP3    H252265   3.277   4.161  12.771
10284TIP3   OH252266   6.213   1.610   5.275
10284TIP3    H152267   6.256   1.676   5.329
10284TIP3    H252268   6.168   1.660   5.206
10285TIP3   OH252269   5.966   1.778  12.873
10285TIP3    H152270   6.000   1.836  12.804
10285TIP3    H252271   5.894   1.828  12.913
10286TIP3   OH252272   5.891   0.543   2.870
10286TIP3    H152273   5.804   0.533   2.909
10286TIP3    H252274   5.889   0.487   2.792
10287TIP3   OH252275   2.990   3.741   2.275
10287TIP3    H152276   2.959   3.829   2.255
10287TIP3    H252277   2.939   3.684   2.218
10288TIP3   OH252278   1.359   2.607   5.772
10288TIP3    H152279   1.407   2.681   5.735
10288TIP3    H252280   1.285   2.647   5.819
10289TIP3   OH252281   0.296   2.567  13.648
10289TIP3    H152282   0.375   2.618  13.628
10289TIP3    H252283   0.254   2.555  13.562
10290TIP3   OH252284   0.781   6.382   1.437
10290TIP3    H152285   0.843   6.311   1.449
10290TIP3    H252286   0.834   6.458   1.414
10291TIP3   OH252287   0.667   2.532  11.462
10291TIP3    H152288   0.637   2.448  11.497
10291TIP3    H252289   0.598   2.557  11.401
10292TIP3   OH252290   4.357   4.131  15.051
10292TIP3    H152291   4.426   4.194  15.073
10292TIP3    H252292   4.352   4.074  15.128
10293TIP3   OH252293   2.304   5.218   0.931
10293TIP3    H152294   2.307   5.313   0.931
10293TIP3    H252295   2.396   5.191   0.922
10294TIP3   OH252296   6.565   5.931   0.604
10294TIP3    H152297   6.470   5.922   0.591
10294TIP3    H252298   6.586   6.017   0.568
10295TIP3   OH252299   1.641   4.224  15.639
10295TIP3    H152300   1.720   4.173  15.658
10295TIP3    H252301   1.619   4.267  15.721
10296TIP3   OH252302   2.413   5.878   2.577
10296TIP3    H152303   2.469   5.947   2.541
10296TIP3    H252304   2.456   5.796   2.552
10297TIP3   OH252305   1.267   0.832   2.874
10297TIP3    H152306   1.193   0.827   2.813
10297TIP3    H252307   1.247   0.766   2.940
10298TIP3   OH252308   1.218   5.493   3.018
10298TIP3    H152309   1.155   5.563   3.035
10298TIP3    H252310   1.262   5.480   3.101
10299TIP3   OH252311   4.516   5.214   0.044
10299TIP3    H152312   4.467   5.216   0.126
10299TIP3    H252313   4.568   5.294   0.045
10300TIP3   OH252314   3.173   3.453  15.229
10300TIP3    H152315   3.127   3.457  15.145
10300TIP3    H252316   3.105   3.470  15.294
10301TIP3   OH252317   0.844   1.509   6.110
10301TIP3    H152318   0.864   1.494   6.202
10301TIP3    H252319   0.864   1.602   6.095
10302TIP3   OH252320   6.060   2.694  14.160
10302TIP3    H152321   6.064   2.691  14.256
10302TIP3    H252322   6.098   2.778  14.137
10303TIP3   OH252323   0.791   3.399  11.246
10303TIP3    H152324   0.727   3.335  11.277
10303TIP3    H252325   0.739   3.476  11.224
10304TIP3   OH252326   4.834   0.499   3.947
10304TIP3    H152327   4.893   0.479   3.874
10304TIP3    H252328   4.842   0.424   4.005
10305TIP3   OH252329   0.214   5.584  16.345
10305TIP3    H152330   0.297   5.564  16.386
10305TIP3    H252331   0.187   5.503  16.303
10306TIP3   OH252332   1.698   0.916   0.024
10306TIP3    H152333   1.605   0.927   0.003
10306TIP3    H252334   1.708   0.821   0.038
10307TIP3   OH252335   0.790   0.398   3.919
10307TIP3    H152336   0.806   0.332   3.987
10307TIP3    H252337   0.695   0.404   3.913
10308TIP3   OH252338   3.730   0.902  16.331
10308TIP3    H152339   3.634   0.898  16.337
10308TIP3    H252340   3.753   0.833  16.269
10309TIP3   OH252341   2.797   3.786  11.438
10309TIP3    H152342   2.740   3.710  11.429
10309TIP3    H252343   2.874   3.754  11.485
10310TIP3   OH252344   0.286   1.055   0.699
10310TIP3    H152345   0.366   1.075   0.651
10310TIP3    H252346   0.244   0.986   0.647
10311TIP3   OH252347   4.455   0.188   4.119
10311TIP3    H152348   4.446   0.113   4.060
10311TIP3    H252349   4.532   0.168   4.172
10312TIP3   OH252350   1.307   4.601   2.120
10312TIP3    H152351   1.305   4.679   2.065
10312TIP3    H252352   1.226   4.555   2.099
10313TIP3   OH252353   2.536   0.583   0.527
10313TIP3    H152354   2.472   0.636   0.478
10313TIP3    H252355   2.570   0.522   0.462
10314TIP3   OH252356   3.059   2.208  10.465
10314TIP3    H152357   3.115   2.285  10.460
10314TIP3    H252358   2.998   2.228  10.536
10315TIP3   OH252359   5.727   0.304   4.082
10315TIP3    H152360   5.805   0.257   4.110
10315TIP3    H252361   5.700   0.260   4.001
10316TIP3   OH252362   0.129   1.241   5.084
10316TIP3    H152363   0.086   1.310   5.033
10316TIP3    H252364   0.194   1.204   5.024
10317TIP3   OH252365   2.449   5.010   5.060
10317TIP3    H152366   2.451   5.074   5.132
10317TIP3    H252367   2.532   5.024   5.014
10318TIP3   OH252368   6.786   1.206  11.842
10318TIP3    H152369   6.799   1.117  11.810
10318TIP3    H252370   6.744   1.195  11.927
10319TIP3   OH252371   2.045   3.634  14.196
10319TIP3    H152372   1.975   3.570  14.187
10319TIP3    H252373   2.000   3.717  14.213
10320TIP3   OH252374   3.586   0.716   2.002
10320TIP3    H152375   3.493   0.733   2.016
10320TIP3    H252376   3.603   0.750   1.914
10321TIP3   OH252377   6.771   4.060   5.642
10321TIP3    H152378   6.764   4.126   5.573
10321TIP3    H252379   6.842   4.004   5.614
10322TIP3   OH252380   1.428   6.730  13.410
10322TIP3    H152381   1.503   6.676  13.432
10322TIP3    H252382   1.464   6.818  13.397
10323TIP3   OH252383   4.065   2.411  17.090
10323TIP3    H152384   3.973   2.422  17.113
10323TIP3    H252385   4.108   2.487  17.130
10324TIP3   OH252386   5.226   4.500   3.938
10324TIP3    H152387   5.166   4.435   3.903
10324TIP3    H252388   5.182   4.584   3.926
10325TIP3   OH252389   3.682   5.710   5.262
10325TIP3    H152390   3.741   5.698   5.187
10325TIP3    H252391   3.705   5.796   5.296
10326TIP3   OH252392   1.869   6.277   3.209
10326TIP3    H152393   1.931   6.205   3.225
10326TIP3    H252394   1.879   6.297   3.116
10327TIP3   OH252395   0.396   5.854   2.955
10327TIP3    H152396   0.374   5.822   2.867
10327TIP3    H252397   0.344   5.934   2.965
10328TIP3   OH252398   4.480   5.127   1.089
10328TIP3    H152399   4.505   5.121   0.997
10328TIP3    H252400   4.439   5.214   1.097
10329TIP3   OH252401   2.766   1.071  14.750
10329TIP3    H152402   2.853   1.071  14.790
10329TIP3    H252403   2.777   1.121  14.669
10330TIP3   OH252404   1.267   6.631  14.823
10330TIP3    H152405   1.279   6.724  14.844
10330TIP3    H252406   1.179   6.611  14.855
10331TIP3   OH252407   0.670   2.359  15.481
10331TIP3    H152408   0.756   2.367  15.521
10331TIP3    H252409   0.647   2.449  15.455
10332TIP3   OH252410   5.755   0.129   0.154
10332TIP3    H152411   5.792   0.045   0.182
10332TIP3    H252412   5.661   0.113   0.146
10333TIP3   OH252413   1.003   3.006   2.091
10333TIP3    H152414   0.924   3.009   2.145
10333TIP3    H252415   0.983   2.942   2.022
10334TIP3   OH252416   0.088   2.253   3.786
10334TIP3    H152417   0.168   2.224   3.743
10334TIP3    H252418   0.115   2.323   3.845
10335TIP3   OH252419   6.248   1.771  13.475
10335TIP3    H152420   6.322   1.810  13.429
10335TIP3    H252421   6.204   1.845  13.518
10336TIP3   OH252422   5.413   3.760   3.139
10336TIP3    H152423   5.441   3.852   3.134
10336TIP3    H252424   5.404   3.744   3.233
10337TIP3   OH252425   2.752   2.206  13.580
10337TIP3    H152426   2.815   2.163  13.637
10337TIP3    H252427   2.793   2.204  13.493
10338TIP3   OH252428   6.667   3.310  11.670
10338TIP3    H152429   6.630   3.227  11.702
10338TIP3    H252430   6.596   3.352  11.623
10339TIP3   OH252431   5.035   0.557  14.056
10339TIP3    H152432   5.067   0.585  14.142
10339TIP3    H252433   4.984   0.478  14.074
10340TIP3   OH252434   1.691   5.446   2.481
10340TIP3    H152435   1.666   5.459   2.389
10340TIP3    H252436   1.723   5.355   2.485
10341TIP3   OH252437   1.206   5.021   5.351
10341TIP3    H152438   1.130   4.966   5.333
10341TIP3    H252439   1.280   4.960   5.346
10342TIP3   OH252440   6.511   3.346   2.566
10342TIP3    H152441   6.430   3.296   2.579
10342TIP3    H252442   6.485   3.437   2.578
10343TIP3   OH252443   1.577   0.692  11.749
10343TIP3    H152444   1.562   0.784  11.730
10343TIP3    H252445   1.558   0.683  11.842
10344TIP3   OH252446   3.573   2.028  13.504
10344TIP3    H152447   3.642   2.087  13.533
10344TIP3    H252448   3.596   2.008  13.413
10345TIP3   OH252449   1.742   5.893  11.418
10345TIP3    H152450   1.735   5.814  11.365
10345TIP3    H252451   1.828   5.886  11.461
10346TIP3   OH252452   1.285   2.685   0.175
10346TIP3    H152453   1.336   2.628   0.232
10346TIP3    H252454   1.334   2.686   0.093
10347TIP3   OH252455   4.475   0.543  13.992
10347TIP3    H152456   4.458   0.480  14.062
10347TIP3    H252457   4.434   0.505  13.914
10348TIP3   OH252458   1.240   5.356  13.899
10348TIP3    H152459   1.144   5.356  13.900
10348TIP3    H252460   1.264   5.406  13.821
10349TIP3   OH252461   0.613   6.262   0.410
10349TIP3    H152462   0.675   6.219   0.351
10349TIP3    H252463   0.557   6.191   0.442
10350TIP3   OH252464   3.848   5.408   5.392
10350TIP3    H152465   3.772   5.392   5.335
10350TIP3    H252466   3.813   5.402   5.481
10351TIP3   OH252467   4.742   6.343   6.097
10351TIP3    H152468   4.678   6.408   6.127
10351TIP3    H252469   4.699   6.259   6.111
10352TIP3   OH252470   5.058   1.831   4.314
10352TIP3    H152471   4.997   1.805   4.383
10352TIP3    H252472   5.081   1.750   4.270
10353TIP3   OH252473   1.260   1.144  12.803
10353TIP3    H152474   1.218   1.117  12.885
10353TIP3    H252475   1.322   1.074  12.783
10354TIP3   OH252476   5.372   2.846  12.527
10354TIP3    H152477   5.317   2.885  12.595
10354TIP3    H252478   5.407   2.767  12.566
10355TIP3   OH252479   1.194   5.599   2.721
10355TIP3    H152480   1.201   5.507   2.748
10355TIP3    H252481   1.247   5.647   2.785
10356TIP3   OH252482   5.901   1.985  14.150
10356TIP3    H152483   5.926   2.046  14.219
10356TIP3    H252484   5.848   1.919  14.194
10357TIP3   OH252485   6.470   3.208   1.013
10357TIP3    H152486   6.396   3.240   0.962
10357TIP3    H252487   6.448   3.117   1.033
10358TIP3   OH252488   4.490   5.617  14.007
10358TIP3    H152489   4.516   5.705  14.034
10358TIP3    H252490   4.496   5.564  14.086
10359TIP3   OH252491   4.245   0.130  12.083
10359TIP3    H152492   4.239   0.069  12.010
10359TIP3    H252493   4.338   0.154  12.088
10360TIP3   OH252494   3.598   3.475   5.646
10360TIP3    H152495   3.657   3.413   5.604
10360TIP3    H252496   3.599   3.450   5.738
10361TIP3   OH252497   1.132   5.293   3.255
10361TIP3    H152498   1.113   5.339   3.337
10361TIP3    H252499   1.227   5.293   3.249
10362TIP3   OH252500   2.977   6.138  11.255
10362TIP3    H152501   3.073   6.132  11.259
10362TIP3    H252502   2.957   6.140  11.162
10363TIP3   OH252503   3.968   5.883  16.010
10363TIP3    H152504   3.899   5.942  16.041
10363TIP3    H252505   4.002   5.924  15.931
10364TIP3   OH252506   1.731   1.159   0.217
10364TIP3    H152507   1.683   1.112   0.149
10364TIP3    H252508   1.716   1.251   0.198
10365TIP3   OH252509   3.052   1.058   1.488
10365TIP3    H152510   3.022   1.148   1.492
10365TIP3    H252511   2.996   1.016   1.423
10366TIP3   OH252512   6.756   5.354  14.349
10366TIP3    H152513   6.773   5.268  14.388
10366TIP3    H252514   6.664   5.372  14.371
10367TIP3   OH252515   2.738   3.324   4.424
10367TIP3    H152516   2.662   3.326   4.366
10367TIP3    H252517   2.710   3.273   4.500
10368TIP3   OH252518   5.238   6.044  13.844
10368TIP3    H152519   5.261   6.136  13.842
10368TIP3    H252520   5.216   6.022  13.753
10369TIP3   OH252521   3.714   0.427   4.989
10369TIP3    H152522   3.636   0.379   4.961
10369TIP3    H252523   3.758   0.449   4.907
10370TIP3   OH252524   2.310   6.566   0.163
10370TIP3    H152525   2.356   6.529   0.238
10370TIP3    H252526   2.219   6.535   0.173
10371TIP3   OH252527   5.540   3.079   6.591
10371TIP3    H152528   5.505   3.031   6.516
10371TIP3    H252529   5.635   3.078   6.578
10372TIP3   OH252530   5.730   1.977   3.510
10372TIP3    H152531   5.700   1.891   3.480
10372TIP3    H252532   5.654   2.016   3.552
10373TIP3   OH252533   1.840   0.659  11.748
10373TIP3    H152534   1.867   0.668  11.839
10373TIP3    H252535   1.745   0.652  11.751
10374TIP3   OH252536   1.902   2.462  17.056
10374TIP3    H152537   1.964   2.396  17.087
10374TIP3    H252538   1.955   2.540  17.041
10375TIP3   OH252539   2.965   4.699  13.203
10375TIP3    H152540   2.972   4.607  13.178
10375TIP3    H252541   3.010   4.747  13.133
10376TIP3   OH252542   2.015   6.657  14.359
10376TIP3    H152543   1.953   6.677  14.429
10376TIP3    H252544   1.961   6.649  14.280
10377TIP3   OH252545   0.024   2.217   2.624
10377TIP3    H152546   0.022   2.141   2.566
10377TIP3    H252547   0.108   2.210   2.670
10378TIP3   OH252548   2.754   0.844  15.581
10378TIP3    H152549   2.777   0.851  15.674
10378TIP3    H252550   2.836   0.823  15.537
10379TIP3   OH252551   5.370   3.319  16.979
10379TIP3    H152552   5.277   3.339  16.984
10379TIP3    H252553   5.414   3.402  16.997
10380TIP3   OH252554   1.037   3.088  15.353
10380TIP3    H152555   1.097   3.027  15.309
10380TIP3    H252556   1.026   3.159  15.289
10381TIP3   OH252557   1.800   2.537   4.585
10381TIP3    H152558   1.892   2.563   4.581
10381TIP3    H252559   1.771   2.565   4.672
10382TIP3   OH252560   5.235   0.604   2.487
10382TIP3    H152561   5.177   0.680   2.483
10382TIP3    H252562   5.196   0.547   2.554
10383TIP3   OH252563   0.699   1.694  15.505
10383TIP3    H152564   0.767   1.718  15.441
10383TIP3    H252565   0.655   1.777  15.524
10384TIP3   OH252566   4.267   2.138   4.929
10384TIP3    H152567   4.251   2.089   5.010
10384TIP3    H252568   4.301   2.072   4.868
10385TIP3   OH252569   5.766   1.647   4.037
10385TIP3    H152570   5.673   1.656   4.055
10385TIP3    H252571   5.805   1.622   4.120
10386TIP3   OH252572   4.448   6.622  11.917
10386TIP3    H152573   4.470   6.715  11.909
10386TIP3    H252574   4.482   6.597  12.003
10387TIP3   OH252575   4.815   4.818  13.739
10387TIP3    H152576   4.791   4.895  13.790
10387TIP3    H252577   4.910   4.816  13.743
10388TIP3   OH252578   6.048   0.428   6.024
10388TIP3    H152579   6.110   0.358   6.046
10388TIP3    H252580   6.101   0.508   6.028
10389TIP3   OH252581   0.098   5.252   4.090
10389TIP3    H152582   0.147   5.331   4.113
10389TIP3    H252583   0.007   5.272   4.113
10390TIP3   OH252584   1.325   0.758  12.152
10390TIP3    H152585   1.282   0.824  12.098
10390TIP3    H252586   1.381   0.808  12.211
10391TIP3   OH252587   5.672   6.390   5.416
10391TIP3    H152588   5.595   6.373   5.362
10391TIP3    H252589   5.676   6.315   5.475
10392TIP3   OH252590   3.778   5.351   0.308
10392TIP3    H152591   3.703   5.395   0.268
10392TIP3    H252592   3.818   5.418   0.364
10393TIP3   OH252593   4.476   4.043  17.007
10393TIP3    H152594   4.388   4.070  16.982
10393TIP3    H252595   4.463   3.976  17.074
10394TIP3   OH252596   0.152   1.998  14.871
10394TIP3    H152597   0.065   1.982  14.835
10394TIP3    H252598   0.161   2.093  14.869
10395TIP3   OH252599   1.051   5.294  11.236
10395TIP3    H152600   1.056   5.368  11.175
10395TIP3    H252601   0.960   5.293  11.265
10396TIP3   OH252602   4.598   5.949   5.338
10396TIP3    H152603   4.683   5.973   5.302
10396TIP3    H252604   4.618   5.886   5.407
10397TIP3   OH252605   3.620   6.600   0.216
10397TIP3    H152606   3.704   6.592   0.262
10397TIP3    H252607   3.645   6.604   0.123
10398TIP3   OH252608   0.373   0.332   1.181
10398TIP3    H152609   0.451   0.301   1.226
10398TIP3    H252610   0.405   0.370   1.099
10399TIP3   OH252611   5.772   0.106   2.909
10399TIP3    H152612   5.704   0.144   2.965
10399TIP3    H252613   5.852   0.154   2.933
10400TIP3   OH252614   2.793   1.752  15.616
10400TIP3    H152615   2.774   1.734  15.708
10400TIP3    H252616   2.852   1.827  15.618
10401TIP3   OH252617   5.039   4.112   5.287
10401TIP3    H152618   5.023   4.168   5.210
10401TIP3    H252619   5.012   4.166   5.361
10402TIP3   OH252620   0.615   5.203  11.196
10402TIP3    H152621   0.686   5.221  11.258
10402TIP3    H252622   0.659   5.186  11.113
10403TIP3   OH252623   1.821   4.255  13.245
10403TIP3    H152624   1.847   4.327  13.188
10403TIP3    H252625   1.828   4.291  13.334
10404TIP3   OH252626   4.163   3.121   0.710
10404TIP3    H152627   4.070   3.135   0.724
10404TIP3    H252628   4.202   3.208   0.711
10405TIP3   OH252629   2.207   0.947  12.160
10405TIP3    H152630   2.191   1.038  12.186
10405TIP3    H252631   2.140   0.897  12.206
10406TIP3   OH252632   1.357   1.514  13.011
10406TIP3    H152633   1.267   1.480  13.014
10406TIP3    H252634   1.407   1.443  12.970
10407TIP3   OH252635   5.767   2.326  15.999
10407TIP3    H152636   5.702   2.286  15.941
10407TIP3    H252637   5.829   2.255  16.016
10408TIP3   OH252638   0.219   2.887  14.247
10408TIP3    H152639   0.267   2.927  14.320
10408TIP3    H252640   0.244   2.938  14.171
10409TIP3   OH252641   0.900   2.347   1.520
10409TIP3    H152642   0.948   2.420   1.559
10409TIP3    H252643   0.895   2.281   1.589
10410TIP3   OH252644   5.162   5.781   0.758
10410TIP3    H152645   5.224   5.784   0.831
10410TIP3    H252646   5.185   5.857   0.705
10411TIP3   OH252647   3.290   6.231   3.045
10411TIP3    H152648   3.274   6.301   2.982
10411TIP3    H252649   3.380   6.203   3.028
10412TIP3   OH252650   6.750   0.486   3.292
10412TIP3    H152651   6.764   0.564   3.344
10412TIP3    H252652   6.680   0.438   3.338
10413TIP3   OH252653   1.214   3.277  15.091
10413TIP3    H152654   1.278   3.278  15.019
10413TIP3    H252655   1.129   3.288  15.048
10414TIP3   OH252656   1.588   0.900   1.187
10414TIP3    H152657   1.561   0.865   1.272
10414TIP3    H252658   1.588   0.824   1.129
10415TIP3   OH252659   6.339   5.182   5.703
10415TIP3    H152660   6.419   5.220   5.738
10415TIP3    H252661   6.352   5.087   5.712
10416TIP3   OH252662   4.343   6.333  16.325
10416TIP3    H152663   4.292   6.414  16.327
10416TIP3    H252664   4.294   6.275  16.268
10417TIP3   OH252665   0.599   5.080   1.233
10417TIP3    H152666   0.547   5.158   1.252
10417TIP3    H252667   0.587   5.067   1.139
10418TIP3   OH252668   1.407   5.976  13.381
10418TIP3    H152669   1.314   5.960  13.368
10418TIP3    H252670   1.450   5.931  13.308
10419TIP3   OH252671   5.337   1.935   2.735
10419TIP3    H152672   5.320   1.870   2.804
10419TIP3    H252673   5.270   2.002   2.748
10420TIP3   OH252674   1.034   5.555   0.960
10420TIP3    H152675   1.025   5.504   0.880
10420TIP3    H252676   1.124   5.537   0.990
10421TIP3   OH252677   1.965   1.485   6.010
10421TIP3    H152678   1.971   1.403   6.059
10421TIP3    H252679   1.990   1.461   5.921
10422TIP3   OH252680   5.316   6.651  14.600
10422TIP3    H152681   5.346   6.588  14.666
10422TIP3    H252682   5.338   6.610  14.517
10423TIP3   OH252683   3.876   4.926  14.541
10423TIP3    H152684   3.850   4.950  14.452
10423TIP3    H252685   3.794   4.910  14.587
10424TIP3   OH252686   3.528   0.498  13.428
10424TIP3    H152687   3.499   0.413  13.462
10424TIP3    H252688   3.590   0.530  13.494
10425TIP3   OH252689   1.653   4.872   3.143
10425TIP3    H152690   1.713   4.938   3.178
10425TIP3    H252691   1.696   4.788   3.162
10426TIP3   OH252692   1.549   1.548  16.160
10426TIP3    H152693   1.642   1.545  16.137
10426TIP3    H252694   1.506   1.495  16.092
10427TIP3   OH252695   3.041   3.992   0.376
10427TIP3    H152696   3.031   3.899   0.395
10427TIP3    H252697   3.125   3.999   0.331
10428TIP3   OH252698   1.143   4.919   4.032
10428TIP3    H152699   1.231   4.882   4.027
10428TIP3    H252700   1.131   4.940   4.125
10429TIP3   OH252701   3.026   0.278   4.139
10429TIP3    H152702   3.005   0.196   4.183
10429TIP3    H252703   2.941   0.314   4.115
10430TIP3   OH252704   1.082   2.479  12.084
10430TIP3    H152705   1.088   2.530  12.004
10430TIP3    H252706   1.081   2.544  12.154
10431TIP3   OH252707   5.682   0.404  11.076
10431TIP3    H152708   5.612   0.378  11.137
10431TIP3    H252709   5.648   0.381  10.989
10432TIP3   OH252710   4.851   0.974   3.401
10432TIP3    H152711   4.823   0.899   3.349
10432TIP3    H252712   4.836   0.947   3.492
10433TIP3   OH252713   5.678   0.980  12.230
10433TIP3    H152714   5.657   1.048  12.167
10433TIP3    H252715   5.599   0.925  12.234
10434TIP3   OH252716   4.843   0.721  16.094
10434TIP3    H152717   4.934   0.747  16.097
10434TIP3    H252718   4.803   0.763  16.171
10435TIP3   OH252719   5.986   1.260   1.386
10435TIP3    H152720   6.004   1.321   1.314
10435TIP3    H252721   5.982   1.316   1.464
10436TIP3   OH252722   1.084   3.204   3.219
10436TIP3    H152723   1.109   3.115   3.192
10436TIP3    H252724   1.090   3.202   3.314
10437TIP3   OH252725   6.085   4.605  13.318
10437TIP3    H152726   6.117   4.539  13.380
10437TIP3    H252727   6.014   4.562  13.271
10438TIP3   OH252728   6.687   6.021  16.948
10438TIP3    H152729   6.691   5.978  16.862
10438TIP3    H252730   6.728   5.958  17.008
10439TIP3   OH252731   5.149   1.955  11.678
10439TIP3    H152732   5.226   1.899  11.687
10439TIP3    H252733   5.123   1.946  11.586
10440TIP3   OH252734   3.023   4.098  14.175
10440TIP3    H152735   3.085   4.118  14.245
10440TIP3    H252736   3.028   4.174  14.117
10441TIP3   OH252737   6.748   4.131  16.643
10441TIP3    H152738   6.799   4.062  16.684
10441TIP3    H252739   6.724   4.189  16.715
10442TIP3   OH252740   2.773   6.341  12.977
10442TIP3    H152741   2.687   6.335  12.934
10442TIP3    H252742   2.834   6.300  12.915
10443TIP3   OH252743   2.130   2.409  13.248
10443TIP3    H152744   2.040   2.396  13.278
10443TIP3    H252745   2.170   2.463  13.316
10444TIP3   OH252746   2.385   3.393   3.379
10444TIP3    H152747   2.367   3.330   3.448
10444TIP3    H252748   2.324   3.465   3.396
10445TIP3   OH252749   5.244   2.640  11.364
10445TIP3    H152750   5.186   2.615  11.292
10445TIP3    H252751   5.294   2.714  11.331
10446TIP3   OH252752   0.321   3.078  12.705
10446TIP3    H152753   0.391   3.020  12.675
10446TIP3    H252754   0.304   3.136  12.631
10447TIP3   OH252755   2.932   4.683  11.991
10447TIP3    H152756   2.967   4.683  11.902
10447TIP3    H252757   2.911   4.591  12.009
10448TIP3   OH252758   1.566   3.172   4.021
10448TIP3    H152759   1.557   3.146   3.929
10448TIP3    H252760   1.576   3.089   4.068
10449TIP3   OH252761   3.702   0.082   4.912
10449TIP3    H152762   3.705   0.127   4.997
10449TIP3    H252763   3.693   0.152   4.848
10450TIP3   OH252764   6.514   3.499   4.239
10450TIP3    H152765   6.420   3.478   4.237
10450TIP3    H252766   6.547   3.457   4.318
10451TIP3   OH252767   5.433   0.345  11.170
10451TIP3    H152768   5.368   0.278  11.148
10451TIP3    H252769   5.381   0.419  11.201
10452TIP3   OH252770   2.499   4.888  17.069
10452TIP3    H152771   2.591   4.905  17.049
10452TIP3    H252772   2.500   4.808  17.120
10453TIP3   OH252773   1.464   3.794   5.615
10453TIP3    H152774   1.370   3.780   5.606
10453TIP3    H252775   1.473   3.849   5.694
10454TIP3   OH252776   6.639   3.596  14.557
10454TIP3    H152777   6.592   3.515  14.538
10454TIP3    H252778   6.578   3.666  14.531
10455TIP3   OH252779   2.920   0.745  11.963
10455TIP3    H152780   2.892   0.804  12.033
10455TIP3    H252781   3.001   0.784  11.929
10456TIP3   OH252782   4.478   4.469   3.230
10456TIP3    H152783   4.574   4.471   3.224
10456TIP3    H252784   4.459   4.387   3.276
10457TIP3   OH252785   3.700   6.097  14.997
10457TIP3    H152786   3.627   6.074  15.055
10457TIP3    H252787   3.666   6.081  14.909
10458TIP3   OH252788   0.329   0.310   1.757
10458TIP3    H152789   0.277   0.367   1.700
10458TIP3    H252790   0.419   0.339   1.743
10459TIP3   OH252791   5.103   4.760  13.723
10459TIP3    H152792   5.196   4.758  13.701
10459TIP3    H252793   5.064   4.694  13.666
10460TIP3   OH252794   4.637   5.464   5.388
10460TIP3    H152795   4.544   5.476   5.371
10460TIP3    H252796   4.679   5.536   5.342
10461TIP3   OH252797   6.579   0.893   3.821
10461TIP3    H152798   6.528   0.850   3.890
10461TIP3    H252799   6.652   0.934   3.868
10462TIP3   OH252800   5.353   3.207   6.382
10462TIP3    H152801   5.332   3.148   6.455
10462TIP3    H252802   5.269   3.243   6.355
10463TIP3   OH252803   5.731   3.479  16.369
10463TIP3    H152804   5.752   3.521  16.453
10463TIP3    H252805   5.778   3.396  16.372
10464TIP3   OH252806   5.750   5.949   3.616
10464TIP3    H152807   5.668   5.999   3.617
10464TIP3    H252808   5.779   5.951   3.707
10465TIP3   OH252809   5.824   0.605  13.995
10465TIP3    H152810   5.789   0.521  14.024
10465TIP3    H252811   5.898   0.622  14.053
10466TIP3   OH252812   3.477   2.352  15.743
10466TIP3    H152813   3.555   2.336  15.690
10466TIP3    H252814   3.432   2.424  15.698
10467TIP3   OH252815   3.444   5.640   3.092
10467TIP3    H152816   3.400   5.666   3.011
10467TIP3    H252817   3.533   5.618   3.064
10468TIP3   OH252818   6.200   3.113  16.621
10468TIP3    H152819   6.125   3.072  16.664
10468TIP3    H252820   6.177   3.116  16.528
10469TIP3   OH252821   4.058   5.761  12.681
10469TIP3    H152822   4.070   5.705  12.758
10469TIP3    H252823   4.120   5.833  12.693
10470TIP3   OH252824   1.801   3.296  15.538
10470TIP3    H152825   1.777   3.341  15.457
10470TIP3    H252826   1.731   3.318  15.600
10471TIP3   OH252827   4.263   6.763  17.105
10471TIP3    H152828   4.293   6.702  17.173
10471TIP3    H252829   4.179   6.727  17.076
10472TIP3   OH252830   6.678   0.167  15.385
10472TIP3    H152831   6.657   0.243  15.331
10472TIP3    H252832   6.770   0.180  15.410
10473TIP3   OH252833   6.347   6.024   4.227
10473TIP3    H152834   6.376   6.064   4.309
10473TIP3    H252835   6.257   6.054   4.216
10474TIP3   OH252836   1.713   6.291  12.446
10474TIP3    H152837   1.758   6.330  12.521
10474TIP3    H252838   1.694   6.364  12.388
10475TIP3   OH252839   6.650   0.158   3.002
10475TIP3    H152840   6.711   0.168   2.929
10475TIP3    H252841   6.583   0.098   2.970
10476TIP3   OH252842   6.671   0.666   5.918
10476TIP3    H152843   6.685   0.573   5.933
10476TIP3    H252844   6.578   0.674   5.900
10477TIP3   OH252845   2.138   5.708  12.177
10477TIP3    H152846   2.107   5.641  12.237
10477TIP3    H252847   2.222   5.676  12.146
10478TIP3   OH252848   6.234   3.449   4.225
10478TIP3    H152849   6.167   3.502   4.269
10478TIP3    H252850   6.196   3.429   4.139
10479TIP3   OH252851   2.560   3.784  11.967
10479TIP3    H152852   2.466   3.786  11.983
10479TIP3    H252853   2.571   3.818  11.878
10480TIP3   OH252854   1.852   0.995   5.729
10480TIP3    H152855   1.921   0.937   5.762
10480TIP3    H252856   1.897   1.053   5.668
10481TIP3   OH252857   2.039   3.255   1.498
10481TIP3    H152858   2.134   3.260   1.509
10481TIP3    H252859   2.026   3.252   1.403
10482TIP3   OH252860   3.857   5.000  15.319
10482TIP3    H152861   3.925   5.067  15.325
10482TIP3    H252862   3.865   4.951  15.401
10483TIP3   OH252863   1.976   3.224  11.976
10483TIP3    H152864   1.919   3.169  12.030
10483TIP3    H252865   2.049   3.167  11.953
10484TIP3   OH252866   3.961   1.188   3.405
10484TIP3    H152867   3.964   1.115   3.344
10484TIP3    H252868   4.037   1.242   3.381
10485TIP3   OH252869   5.647   0.497   0.911
10485TIP3    H152870   5.583   0.507   0.982
10485TIP3    H252871   5.731   0.494   0.956
10486TIP3   OH252872   5.187   6.178  17.035
10486TIP3    H152873   5.119   6.113  17.052
10486TIP3    H252874   5.269   6.132  17.048
10487TIP3   OH252875   3.036   4.208   2.346
10487TIP3    H152876   2.979   4.284   2.353
10487TIP3    H252877   2.999   4.144   2.408
10488TIP3   OH252878   2.222   4.430  14.170
10488TIP3    H152879   2.306   4.460  14.204
10488TIP3    H252880   2.159   4.498  14.195
10489TIP3   OH252881   5.862   6.246   1.660
10489TIP3    H152882   5.794   6.279   1.602
10489TIP3    H252883   5.912   6.324   1.685
10490TIP3   OH252884   4.904   1.248   2.053
10490TIP3    H152885   4.923   1.178   2.115
10490TIP3    H252886   4.971   1.314   2.069
10491TIP3   OH252887   6.653   0.511   2.780
10491TIP3    H152888   6.639   0.562   2.860
10491TIP3    H252889   6.568   0.513   2.736
10492TIP3   OH252890   3.782   6.315   2.762
10492TIP3    H152891   3.702   6.263   2.754
10492TIP3    H252892   3.774   6.383   2.695
10493TIP3   OH252893   4.250   5.344  15.840
10493TIP3    H152894   4.176   5.338  15.900
10493TIP3    H252895   4.301   5.265  15.856
10494TIP3   OH252896   0.537   4.493  15.786
10494TIP3    H152897   0.475   4.421  15.772
10494TIP3    H252898   0.605   4.455  15.842
10495TIP3   OH252899   6.083   3.728  12.288
10495TIP3    H152900   6.103   3.743  12.381
10495TIP3    H252901   6.169   3.728  12.245
10496TIP3   OH252902   6.239   6.509   5.489
10496TIP3    H152903   6.162   6.524   5.433
10496TIP3    H252904   6.295   6.452   5.436
10497TIP3   OH252905   2.360   1.370  13.075
10497TIP3    H152906   2.276   1.325  13.063
10497TIP3    H252907   2.423   1.317  13.026
10498TIP3   OH252908   2.411   1.817   1.274
10498TIP3    H152909   2.491   1.775   1.239
10498TIP3    H252910   2.442   1.899   1.312
10499TIP3   OH252911   3.845   1.784   0.102
10499TIP3    H152912   3.803   1.777   0.016
10499TIP3    H252913   3.927   1.736   0.093
10500TIP3   OH252914   2.447   6.225  15.976
10500TIP3    H152915   2.454   6.318  15.954
10500TIP3    H252916   2.437   6.181  15.892
10501TIP3   OH252917   2.798   6.412  15.456
10501TIP3    H152918   2.702   6.418  15.456
10501TIP3    H252919   2.822   6.420  15.363
10502TIP3   OH252920   3.839   2.562   6.498
10502TIP3    H152921   3.760   2.603   6.464
10502TIP3    H252922   3.911   2.617   6.466
10503TIP3   OH252923   0.786   5.948  16.003
10503TIP3    H152924   0.795   5.939  16.098
10503TIP3    H252925   0.696   5.921  15.985
10504TIP3   OH252926   3.152   0.754  10.311
10504TIP3    H152927   3.125   0.832  10.262
10504TIP3    H252928   3.129   0.773  10.402
10505TIP3   OH252929   0.638   5.239  14.816
10505TIP3    H152930   0.574   5.283  14.871
10505TIP3    H252931   0.720   5.243  14.866
10506TIP3   OH252932   6.396   0.562  16.874
10506TIP3    H152933   6.415   0.539  16.965
10506TIP3    H252934   6.334   0.495  16.844
10507TIP3   OH252935   6.542   3.058  12.887
10507TIP3    H152936   6.608   2.989  12.878
10507TIP3    H252937   6.567   3.104  12.967
10508TIP3   OH252938   2.312   3.816   5.362
10508TIP3    H152939   2.348   3.755   5.426
10508TIP3    H252940   2.222   3.833   5.392
10509TIP3   OH252941   1.922   3.937  14.700
10509TIP3    H152942   1.831   3.915  14.722
10509TIP3    H252943   1.966   3.943  14.785
10510TIP3   OH252944   0.166   5.900  13.992
10510TIP3    H152945   0.184   5.993  13.977
10510TIP3    H252946   0.168   5.861  13.905
10511TIP3   OH252947   3.910   2.030   4.437
10511TIP3    H152948   3.840   2.004   4.378
10511TIP3    H252949   3.881   2.000   4.523
10512TIP3   OH252950   2.496   6.366   2.012
10512TIP3    H152951   2.441   6.409   2.077
10512TIP3    H252952   2.571   6.333   2.061
10513TIP3   OH252953   0.159   4.119   1.112
10513TIP3    H152954   0.242   4.165   1.095
10513TIP3    H252955   0.145   4.128   1.206
10514TIP3   OH252956   2.312   2.279  11.274
10514TIP3    H152957   2.234   2.331  11.294
10514TIP3    H252958   2.323   2.222  11.350
10515TIP3   OH252959   5.430   5.930   3.010
10515TIP3    H152960   5.509   5.982   2.999
10515TIP3    H252961   5.392   5.925   2.922
10516TIP3   OH252962   5.345   0.327   0.182
10516TIP3    H152963   5.365   0.234   0.179
10516TIP3    H252964   5.372   0.355   0.270
10517TIP3   OH252965   1.800   2.361  12.621
10517TIP3    H152966   1.760   2.352  12.534
10517TIP3    H252967   1.746   2.306  12.678
10518TIP3   OH252968   5.556   5.921  13.715
10518TIP3    H152969   5.508   5.866  13.778
10518TIP3    H252970   5.611   5.977  13.769
10519TIP3   OH252971   0.581   0.335  11.791
10519TIP3    H152972   0.590   0.306  11.882
10519TIP3    H252973   0.669   0.327  11.754
10520TIP3   OH252974   2.595   2.037   6.005
10520TIP3    H152975   2.674   2.043   6.058
10520TIP3    H252976   2.624   2.054   5.916
10521TIP3   OH252977   3.725   6.215  17.008
10521TIP3    H152978   3.798   6.256  16.962
10521TIP3    H252979   3.731   6.249  17.098
10522TIP3   OH252980   3.896   2.639   5.721
10522TIP3    H152981   3.922   2.623   5.812
10522TIP3    H252982   3.875   2.732   5.718
10523TIP3   OH252983   2.354   1.178   0.487
10523TIP3    H152984   2.265   1.204   0.512
10523TIP3    H252985   2.355   1.083   0.499
10524TIP3   OH252986   5.155   6.595   2.587
10524TIP3    H152987   5.089   6.535   2.623
10524TIP3    H252988   5.189   6.549   2.510
10525TIP3   OH252989   1.203   6.417   4.095
10525TIP3    H152990   1.111   6.437   4.082
10525TIP3    H252991   1.210   6.399   4.189
10526TIP3   OH252992   2.250   4.919   0.804
10526TIP3    H152993   2.197   4.879   0.873
10526TIP3    H252994   2.268   5.008   0.835
10527TIP3   OH252995   3.093   4.130   5.516
10527TIP3    H152996   3.179   4.155   5.484
10527TIP3    H252997   3.095   4.152   5.609
10528TIP3   OH252998   6.469   4.303  13.099
10528TIP3    H152999   6.424   4.387  13.107
10528TIP3    H253000   6.490   4.279  13.190
10529TIP3   OH253001   4.290   0.105  14.578
10529TIP3    H153002   4.212   0.161  14.581
10529TIP3    H253003   4.283   0.060  14.494
10530TIP3   OH253004   1.957   6.147   1.523
10530TIP3    H153005   1.956   6.109   1.611
10530TIP3    H253006   1.893   6.217   1.526
10531TIP3   OH253007   4.809   1.605   0.167
10531TIP3    H153008   4.751   1.530   0.154
10531TIP3    H253009   4.751   1.678   0.187
10532TIP3   OH253010   4.745   2.279  16.244
10532TIP3    H153011   4.764   2.365  16.208
10532TIP3    H253012   4.651   2.281  16.265
10533TIP3   OH253013   1.924   1.816  14.212
10533TIP3    H153014   1.952   1.893  14.162
10533TIP3    H253015   1.996   1.754  14.204
10534TIP3   OH253016   6.204   4.830  13.231
10534TIP3    H153017   6.154   4.766  13.281
10534TIP3    H253018   6.274   4.857  13.290
10535TIP3   OH253019   4.283   1.430  10.646
10535TIP3    H153020   4.263   1.485  10.722
10535TIP3    H253021   4.378   1.421  10.646
10536TIP3   OH253022   1.957   5.644  10.770
10536TIP3    H153023   1.942   5.580  10.839
10536TIP3    H253024   1.904   5.613  10.696
10537TIP3   OH253025   2.517   0.459  15.029
10537TIP3    H153026   2.473   0.491  14.950
10537TIP3    H253027   2.464   0.492  15.101
10538TIP3   OH253028   3.734   0.105  16.939
10538TIP3    H153029   3.820   0.146  16.944
10538TIP3    H253030   3.751   0.018  16.902
10539TIP3   OH253031   0.049   1.465  14.194
10539TIP3    H153032  -0.025   1.465  14.254
10539TIP3    H253033   0.012   1.437  14.110
10540TIP3   OH253034   4.810   6.086  13.353
10540TIP3    H153035   4.848   6.166  13.389
10540TIP3    H253036   4.861   6.068  13.274
10541TIP3   OH253037   2.028   2.791  14.257
10541TIP3    H153038   2.093   2.728  14.287
10541TIP3    H253039   2.050   2.872  14.302
10542TIP3   OH253040   0.535   1.616   1.625
10542TIP3    H153041   0.589   1.584   1.697
10542TIP3    H253042   0.534   1.711   1.636
10543TIP3   OH253043   4.277   5.320   2.661
10543TIP3    H153044   4.215   5.299   2.732
10543TIP3    H253045   4.224   5.365   2.596
10544TIP3   OH253046   5.080   3.475   3.117
10544TIP3    H153047   5.125   3.407   3.068
10544TIP3    H253048   5.142   3.500   3.186
10545TIP3   OH253049   3.374   4.579   2.391
10545TIP3    H153050   3.406   4.610   2.307
10545TIP3    H253051   3.376   4.483   2.383
10546TIP3   OH253052   2.706   4.897   4.226
10546TIP3    H153053   2.738   4.983   4.197
10546TIP3    H253054   2.614   4.912   4.248
10547TIP3   OH253055   5.943   2.596  12.225
10547TIP3    H153056   5.942   2.565  12.134
10547TIP3    H253057   5.865   2.557  12.264
10548TIP3   OH253058   0.322   0.959  12.307
10548TIP3    H153059   0.300   0.923  12.393
10548TIP3    H253060   0.254   0.925  12.249
10549TIP3   OH253061   2.531   2.037   1.397
10549TIP3    H153062   2.591   1.984   1.450
10549TIP3    H253063   2.490   2.096   1.460
10550TIP3   OH253064   4.601   5.721   9.938
10550TIP3    H153065   4.643   5.803   9.912
10550TIP3    H253066   4.655   5.689  10.010
10551TIP3   OH253067   4.263   6.164   1.395
10551TIP3    H153068   4.227   6.178   1.307
10551TIP3    H253069   4.290   6.251   1.423
10552TIP3   OH253070   5.141   0.280   2.322
10552TIP3    H153071   5.123   0.321   2.406
10552TIP3    H253072   5.187   0.199   2.344
10553TIP3   OH253073   5.328   2.015   1.092
10553TIP3    H153074   5.381   1.935   1.094
10553TIP3    H253075   5.387   2.082   1.057
10554TIP3   OH253076   2.830   0.564  16.916
10554TIP3    H153077   2.840   0.627  16.845
10554TIP3    H253078   2.912   0.570  16.965
10555TIP3   OH253079   4.710   1.085  12.151
10555TIP3    H153080   4.701   1.168  12.198
10555TIP3    H253081   4.754   1.109  12.069
10556TIP3   OH253082   3.270   4.334   3.886
10556TIP3    H153083   3.263   4.428   3.873
10556TIP3    H253084   3.352   4.321   3.933
10557TIP3   OH253085   4.460   6.729  16.925
10557TIP3    H153086   4.403   6.788  16.975
10557TIP3    H253087   4.472   6.773  16.841
10558TIP3   OH253088   1.033   4.832   5.621
10558TIP3    H153089   1.113   4.795   5.583
10558TIP3    H253090   0.969   4.831   5.550
10559TIP3   OH253091   4.120   1.487  16.257
10559TIP3    H153092   4.147   1.548  16.326
10559TIP3    H253093   4.200   1.442  16.232
10560TIP3   OH253094   1.761   6.081  13.631
10560TIP3    H153095   1.671   6.061  13.656
10560TIP3    H253096   1.803   6.110  13.711
10561TIP3   OH253097   1.365   2.571  14.937
10561TIP3    H153098   1.426   2.525  14.879
10561TIP3    H253099   1.368   2.522  15.019
10562TIP3   OH253100   1.330   5.240  15.825
10562TIP3    H153101   1.404   5.229  15.764
10562TIP3    H253102   1.327   5.334  15.842
10563TIP3   OH253103   5.465   3.772   1.098
10563TIP3    H153104   5.502   3.716   1.166
10563TIP3    H253105   5.491   3.861   1.124
10564TIP3   OH253106   3.231   0.416  15.106
10564TIP3    H153107   3.206   0.469  15.182
10564TIP3    H253108   3.153   0.364  15.087
10565TIP3   OH253109   1.065   2.992   5.285
10565TIP3    H153110   1.036   3.079   5.257
10565TIP3    H253111   0.983   2.942   5.294
10566TIP3   OH253112   3.093   0.501  15.782
10566TIP3    H153113   3.043   0.508  15.864
10566TIP3    H253114   3.038   0.544  15.717
10567TIP3   OH253115   6.091   5.423  16.839
10567TIP3    H153116   6.098   5.472  16.921
10567TIP3    H253117   6.179   5.388  16.824
10568TIP3   OH253118   6.110   6.749  11.678
10568TIP3    H153119   6.152   6.717  11.599
10568TIP3    H253120   6.124   6.680  11.743
10569TIP3   OH253121   3.915   6.005   1.643
10569TIP3    H153122   3.854   6.025   1.572
10569TIP3    H253123   3.974   5.940   1.607
10570TIP3   OH253124   6.540   0.226   1.354
10570TIP3    H153125   6.590   0.283   1.411
10570TIP3    H253126   6.562   0.254   1.265
10571TIP3   OH253127   2.120   4.045  12.298
10571TIP3    H153128   2.130   4.139  12.281
10571TIP3    H253129   2.057   4.041  12.370
10572TIP3   OH253130   1.706   2.292   0.264
10572TIP3    H153131   1.779   2.230   0.253
10572TIP3    H253132   1.741   2.360   0.322
10573TIP3   OH253133   5.820   3.258  13.080
10573TIP3    H153134   5.800   3.231  13.169
10573TIP3    H253135   5.904   3.215  13.060
10574TIP3   OH253136   3.912   6.018  12.563
10574TIP3    H153137   3.953   6.098  12.532
10574TIP3    H253138   3.985   5.956  12.575
10575TIP3   OH253139   1.236   0.412   1.988
10575TIP3    H153140   1.170   0.372   1.931
10575TIP3    H253141   1.212   0.504   1.992
10576TIP3   OH253142   3.632   1.862   0.464
10576TIP3    H153143   3.693   1.791   0.484
10576TIP3    H253144   3.558   1.847   0.522
10577TIP3   OH253145   0.063   0.397   4.637
10577TIP3    H153146   0.017   0.349   4.568
10577TIP3    H253147   0.140   0.343   4.657
10578TIP3   OH253148   6.133   2.643   0.750
10578TIP3    H153149   6.163   2.611   0.835
10578TIP3    H253150   6.166   2.579   0.687
10579TIP3   OH253151   1.477   6.776   4.753
10579TIP3    H153152   1.537   6.846   4.728
10579TIP3    H253153   1.534   6.702   4.772
10580TIP3   OH253154   6.655   3.066   2.312
10580TIP3    H153155   6.613   3.028   2.388
10580TIP3    H253156   6.737   3.018   2.302
10581TIP3   OH253157   5.384   3.089  11.537
10581TIP3    H153158   5.324   3.114  11.466
10581TIP3    H253159   5.333   3.103  11.617
10582TIP3   OH253160   5.218   2.001  10.856
10582TIP3    H153161   5.124   1.987  10.865
10582TIP3    H253162   5.227   2.094  10.837
10583TIP3   OH253163   2.268   6.285  14.049
10583TIP3    H153164   2.352   6.331  14.057
10583TIP3    H253165   2.284   6.217  13.984
10584TIP3   OH253166   0.466   3.798  12.086
10584TIP3    H153167   0.415   3.825  12.010
10584TIP3    H253168   0.476   3.878  12.138
10585TIP3   OH253169   1.053   1.969  10.793
10585TIP3    H153170   0.976   2.018  10.765
10585TIP3    H253171   1.043   1.960  10.888
10586TIP3   OH253172   4.109   5.289  13.076
10586TIP3    H153173   4.109   5.364  13.017
10586TIP3    H253174   4.034   5.303  13.133
10587TIP3   OH253175   3.884   6.713   4.727
10587TIP3    H153176   3.979   6.707   4.733
10587TIP3    H253177   3.860   6.782   4.790
10588TIP3   OH253178   5.904   1.696   0.993
10588TIP3    H153179   5.966   1.763   0.964
10588TIP3    H253180   5.892   1.713   1.087
10589TIP3   OH253181   5.001   0.775   4.012
10589TIP3    H153182   4.943   0.713   4.057
10589TIP3    H253183   4.985   0.759   3.919
10590TIP3   OH253184   6.135   5.695  15.802
10590TIP3    H153185   6.047   5.733  15.803
10590TIP3    H253186   6.187   5.755  15.854
10591TIP3   OH253187   5.935   5.566  12.985
10591TIP3    H153188   5.986   5.553  12.905
10591TIP3    H253189   5.902   5.480  13.007
10592TIP3   OH253190   2.064   5.342  15.551
10592TIP3    H153191   2.118   5.389  15.614
10592TIP3    H253192   2.101   5.254  15.548
10593TIP3   OH253193   5.492   3.891  15.432
10593TIP3    H153194   5.529   3.805  15.408
10593TIP3    H253195   5.422   3.905  15.368
10594TIP3   OH253196   4.442   5.782   2.989
10594TIP3    H153197   4.463   5.742   3.073
10594TIP3    H253198   4.501   5.857   2.983
10595TIP3   OH253199   3.936   4.243  13.815
10595TIP3    H153200   3.919   4.258  13.722
10595TIP3    H253201   4.015   4.294  13.833
10596TIP3   OH253202   4.917   6.402   2.649
10596TIP3    H153203   4.832   6.397   2.605
10596TIP3    H253204   4.899   6.378   2.740
10597TIP3   OH253205   2.946   1.436  15.619
10597TIP3    H153206   3.035   1.424  15.585
10597TIP3    H253207   2.898   1.474  15.545
10598TIP3   OH253208   6.168   4.870  10.416
10598TIP3    H153209   6.208   4.935  10.475
10598TIP3    H253210   6.242   4.830  10.371
10599TIP3   OH253211   1.700   3.148   1.187
10599TIP3    H153212   1.675   3.114   1.273
10599TIP3    H253213   1.693   3.073   1.128
10600TIP3   OH253214   6.418   0.510   2.589
10600TIP3    H153215   6.365   0.499   2.510
10600TIP3    H253216   6.390   0.594   2.625
10601TIP3   OH253217   3.791   6.076   2.563
10601TIP3    H153218   3.816   6.032   2.482
10601TIP3    H253219   3.805   6.169   2.546
10602TIP3   OH253220   6.570   5.722   4.216
10602TIP3    H153221   6.495   5.731   4.158
10602TIP3    H253222   6.630   5.664   4.168
10603TIP3   OH253223   3.255   5.164   0.756
10603TIP3    H153224   3.164   5.142   0.772
10603TIP3    H253225   3.303   5.122   0.828
10604TIP3   OH253226   0.065   0.752   2.129
10604TIP3    H153227   0.046   0.819   2.064
10604TIP3    H253228   0.149   0.777   2.166
10605TIP3   OH253229   6.180   4.314   0.344
10605TIP3    H153230   6.169   4.320   0.249
10605TIP3    H253231   6.274   4.318   0.358
10606TIP3   OH253232   0.950   3.178   3.923
10606TIP3    H153233   0.984   3.258   3.962
10606TIP3    H253234   1.028   3.126   3.901
10607TIP3   OH253235   1.503   3.801  13.114
10607TIP3    H153236   1.475   3.892  13.101
10607TIP3    H253237   1.586   3.808  13.162
10608TIP3   OH253238   4.455   4.785   0.320
10608TIP3    H153239   4.385   4.785   0.254
10608TIP3    H253240   4.409   4.771   0.403
10609TIP3   OH253241   0.249   6.639   5.483
10609TIP3    H153242   0.322   6.635   5.546
10609TIP3    H253243   0.290   6.621   5.398
10610TIP3   OH253244   4.172   2.970  13.489
10610TIP3    H153245   4.131   3.055  13.509
10610TIP3    H253246   4.266   2.987  13.495
10611TIP3   OH253247   0.127   1.054  16.606
10611TIP3    H153248   0.141   1.131  16.551
10611TIP3    H253249   0.214   1.035  16.643
10612TIP3   OH253250   3.619   1.669  11.614
10612TIP3    H153251   3.639   1.697  11.525
10612TIP3    H253252   3.525   1.653  11.614
10613TIP3   OH253253   3.210   1.916  14.036
10613TIP3    H153254   3.259   1.941  13.958
10613TIP3    H253255   3.208   1.821  14.034
10614TIP3   OH253256   6.197   6.121   5.370
10614TIP3    H153257   6.276   6.147   5.324
10614TIP3    H253258   6.135   6.097   5.300
10615TIP3   OH253259   4.364   1.411  14.599
10615TIP3    H153260   4.348   1.317  14.604
10615TIP3    H253261   4.446   1.420  14.550
10616TIP3   OH253262   4.209   5.983  12.739
10616TIP3    H153263   4.255   5.968  12.822
10616TIP3    H253264   4.229   6.074  12.717
10617TIP3   OH253265   4.240   3.619   4.774
10617TIP3    H153266   4.237   3.624   4.678
10617TIP3    H253267   4.331   3.639   4.796
10618TIP3   OH253268   5.884   1.613   1.441
10618TIP3    H153269   5.898   1.539   1.500
10618TIP3    H253270   5.966   1.621   1.393
10619TIP3   OH253271   1.456   4.774  14.201
10619TIP3    H153272   1.539   4.732  14.226
10619TIP3    H253273   1.454   4.766  14.106
10620TIP3   OH253274   0.244   0.418   3.311
10620TIP3    H153275   0.150   0.415   3.290
10620TIP3    H253276   0.280   0.479   3.246
10621TIP3   OH253277   1.730   6.268  14.038
10621TIP3    H153278   1.755   6.330  14.106
10621TIP3    H253279   1.807   6.211  14.029
10622TIP3   OH253280   6.342   4.972  15.413
10622TIP3    H153281   6.358   4.912  15.341
10622TIP3    H253282   6.264   4.937  15.457
10623TIP3   OH253283   1.046   1.565  12.867
10623TIP3    H153284   1.052   1.520  12.951
10623TIP3    H253285   0.979   1.516  12.819
10624TIP3   OH253286   3.058   6.477   1.412
10624TIP3    H153287   3.002   6.551   1.391
10624TIP3    H253288   3.027   6.407   1.354
10625TIP3   OH253289   2.324   5.187  14.066
10625TIP3    H153290   2.245   5.237  14.088
10625TIP3    H253291   2.316   5.168  13.973
10626TIP3   OH253292   5.960   2.386  14.196
10626TIP3    H153293   6.051   2.414  14.187
10626TIP3    H253294   5.945   2.331  14.119
10627TIP3   OH253295   2.963   2.591  16.477
10627TIP3    H153296   2.907   2.534  16.425
10627TIP3    H253297   3.040   2.606  16.423
10628TIP3   OH253298   2.219   4.621   0.564
10628TIP3    H153299   2.195   4.529   0.576
10628TIP3    H253300   2.263   4.644   0.646
10629TIP3   OH253301   6.045   0.005   0.520
10629TIP3    H153302   5.975   0.023   0.583
10629TIP3    H253303   6.116   0.063   0.546
10630TIP3   OH253304   2.094   6.524  16.419
10630TIP3    H153305   2.084   6.499  16.511
10630TIP3    H253306   2.083   6.442  16.371
10631TIP3   OH253307   4.529   3.789   0.025
10631TIP3    H153308   4.539   3.711  -0.030
10631TIP3    H253309   4.464   3.843  -0.021
10632TIP3   OH253310   4.692   4.731  15.982
10632TIP3    H153311   4.711   4.772  15.897
10632TIP3    H253312   4.662   4.803  16.037
10633TIP3   OH253313   5.044   1.329   4.303
10633TIP3    H153314   5.105   1.256   4.292
10633TIP3    H253315   5.078   1.379   4.378
10634TIP3   OH253316   6.191   2.468   4.888
10634TIP3    H153317   6.250   2.412   4.937
10634TIP3    H253318   6.177   2.422   4.805
10635TIP3   OH253319   5.859   3.434   5.024
10635TIP3    H153320   5.840   3.370   5.093
10635TIP3    H253321   5.910   3.502   5.068
10636TIP3   OH253322   4.670   2.507   0.915
10636TIP3    H153323   4.681   2.561   0.993
10636TIP3    H253324   4.745   2.447   0.917
10637TIP3   OH253325   0.491   1.967  14.103
10637TIP3    H153326   0.502   1.968  14.198
10637TIP3    H253327   0.547   2.039  14.072
10638TIP3   OH253328   6.666   6.771   5.292
10638TIP3    H153329   6.695   6.689   5.331
10638TIP3    H253330   6.745   6.823   5.282
10639TIP3   OH253331   3.310   2.957   0.538
10639TIP3    H153332   3.269   2.910   0.465
10639TIP3    H253333   3.280   3.048   0.528
10640TIP3   OH253334   6.016   0.992   5.332
10640TIP3    H153335   5.952   0.988   5.261
10640TIP3    H253336   6.026   1.085   5.350
10641TIP3   OH253337   3.953   3.263  16.715
10641TIP3    H153338   3.923   3.195  16.655
10641TIP3    H253339   3.928   3.231  16.802
10642TIP3   OH253340   5.171   5.067   5.047
10642TIP3    H153341   5.179   5.082   5.141
10642TIP3    H253342   5.078   5.049   5.033
10643TIP3   OH253343   4.910   6.200  10.199
10643TIP3    H153344   4.983   6.154  10.157
10643TIP3    H253345   4.918   6.290  10.169
10644TIP3   OH253346   5.452   3.511   6.714
10644TIP3    H153347   5.467   3.475   6.801
10644TIP3    H253348   5.511   3.586   6.709
10645TIP3   OH253349   6.768   6.596   5.478
10645TIP3    H153350   6.861   6.578   5.489
10645TIP3    H253351   6.728   6.510   5.465
10646TIP3   OH253352   3.586   1.154   5.600
10646TIP3    H153353   3.608   1.112   5.683
10646TIP3    H253354   3.657   1.130   5.541
10647TIP3   OH253355   5.132   3.154   4.971
10647TIP3    H153356   5.227   3.157   4.966
10647TIP3    H253357   5.114   3.114   5.056
10648TIP3   OH253358   0.819   2.234   4.624
10648TIP3    H153359   0.750   2.194   4.572
10648TIP3    H253360   0.864   2.293   4.564
10649TIP3   OH253361   4.106   4.266  15.873
10649TIP3    H153362   4.048   4.341  15.888
10649TIP3    H253363   4.153   4.287  15.793
10650TIP3   OH253364   1.100   5.387   5.879
10650TIP3    H153365   1.075   5.330   5.952
10650TIP3    H253366   1.191   5.363   5.860
10651TIP3   OH253367   1.103   3.787  15.887
10651TIP3    H153368   1.131   3.695  15.894
10651TIP3    H253369   1.111   3.821  15.976
10652TIP3   OH253370   5.377   0.808  14.262
10652TIP3    H153371   5.393   0.719  14.232
10652TIP3    H253372   5.365   0.859  14.182
10653TIP3   OH253373   3.630   6.593   4.696
10653TIP3    H153374   3.706   6.651   4.701
10653TIP3    H253375   3.637   6.538   4.775
10654TIP3   OH253376   4.553   3.558  14.872
10654TIP3    H153377   4.520   3.549  14.783
10654TIP3    H253378   4.647   3.537  14.865
10655TIP3   OH253379   0.355   4.267   0.658
10655TIP3    H153380   0.308   4.197   0.614
10655TIP3    H253381   0.388   4.323   0.587
10656TIP3   OH253382   0.719   1.703  16.897
10656TIP3    H153383   0.657   1.702  16.970
10656TIP3    H253384   0.712   1.616  16.858
10657TIP3   OH253385   1.694   1.201  14.800
10657TIP3    H153386   1.640   1.217  14.878
10657TIP3    H253387   1.646   1.135  14.751
10658TIP3   OH253388   2.248   0.839   1.957
10658TIP3    H153389   2.171   0.889   1.984
10658TIP3    H253390   2.215   0.775   1.893
10659TIP3   OH253391   4.412   0.585  12.979
10659TIP3    H153392   4.432   0.651  13.045
10659TIP3    H253393   4.336   0.621  12.932
10660TIP3   OH253394   5.750   3.716  11.776
10660TIP3    H153395   5.705   3.746  11.854
10660TIP3    H253396   5.765   3.622  11.791
10661TIP3   OH253397   5.898   3.026   0.783
10661TIP3    H153398   5.950   3.106   0.788
10661TIP3    H253399   5.807   3.056   0.773
10662TIP3   OH253400   5.906   1.774  14.441
10662TIP3    H153401   5.887   1.680  14.431
10662TIP3    H253402   5.950   1.780  14.525
10663TIP3   OH253403   0.631   0.921   0.786
10663TIP3    H153404   0.609   0.873   0.866
10663TIP3    H253405   0.599   0.865   0.715
10664TIP3   OH253406   1.547   4.243  13.699
10664TIP3    H153407   1.619   4.244  13.761
10664TIP3    H253408   1.487   4.177  13.732
10665TIP3   OH253409   0.217   3.917   5.123
10665TIP3    H153410   0.216   3.912   5.027
10665TIP3    H253411   0.125   3.911   5.148
10666TIP3   OH253412   0.122   0.641  12.245
10666TIP3    H153413   0.106   0.727  12.206
10666TIP3    H253414   0.218   0.632  12.244
10667TIP3   OH253415   1.120   5.408  15.614
10667TIP3    H153416   1.203   5.373  15.582
10667TIP3    H253417   1.138   5.433  15.705
10668TIP3   OH253418   3.707   5.811   0.123
10668TIP3    H153419   3.758   5.853   0.193
10668TIP3    H253420   3.773   5.777   0.063
10669TIP3   OH253421   2.033   6.278  13.504
10669TIP3    H153422   1.945   6.272  13.467
10669TIP3    H253423   2.064   6.365  13.478
10670TIP3   OH253424   1.990   3.271   3.899
10670TIP3    H153425   2.079   3.236   3.908
10670TIP3    H253426   1.952   3.220   3.828
10671TIP3   OH253427   3.111   1.183  16.740
10671TIP3    H153428   3.146   1.116  16.799
10671TIP3    H253429   3.018   1.161  16.732
10672TIP3   OH253430   4.851   5.797  14.074
10672TIP3    H153431   4.840   5.850  13.995
10672TIP3    H253432   4.863   5.861  14.144
10673TIP3   OH253433   4.131   2.498  14.670
10673TIP3    H153434   4.060   2.514  14.732
10673TIP3    H253435   4.150   2.583  14.632
10674TIP3   OH253436   4.654   3.455   1.503
10674TIP3    H153437   4.748   3.474   1.504
10674TIP3    H253438   4.642   3.390   1.573
10675TIP3   OH253439   5.592   5.697   3.071
10675TIP3    H153440   5.542   5.779   3.072
10675TIP3    H253441   5.578   5.660   3.159
10676TIP3   OH253442   1.096   3.208   3.505
10676TIP3    H153443   1.147   3.179   3.580
10676TIP3    H253444   1.023   3.146   3.500
10677TIP3   OH253445   1.757   0.478  11.440
10677TIP3    H153446   1.748   0.480  11.345
10677TIP3    H253447   1.668   0.463  11.472
10678TIP3   OH253448   3.036   0.494   3.479
10678TIP3    H153449   2.979   0.496   3.401
10678TIP3    H253450   3.083   0.578   3.476
10679TIP3   OH253451   3.117   5.474   0.883
10679TIP3    H153452   3.136   5.528   0.806
10679TIP3    H253453   3.196   5.423   0.897
10680TIP3   OH253454   3.799   0.158   3.946
10680TIP3    H153455   3.886   0.124   3.967
10680TIP3    H253456   3.744   0.129   4.018
10681TIP3   OH253457   2.029   5.292   4.183
10681TIP3    H153458   2.118   5.260   4.200
10681TIP3    H253459   1.974   5.245   4.246
10682TIP3   OH253460   5.359   5.243   0.555
10682TIP3    H153461   5.316   5.229   0.639
10682TIP3    H253462   5.352   5.158   0.511
10683TIP3   OH253463   2.722   6.203   2.779
10683TIP3    H153464   2.746   6.161   2.862
10683TIP3    H253465   2.780   6.162   2.714
10684TIP3   OH253466   3.757   4.380   2.097
10684TIP3    H153467   3.810   4.395   2.019
10684TIP3    H253468   3.671   4.356   2.063
10685TIP3   OH253469   0.315   3.325  16.554
10685TIP3    H153470   0.342   3.340  16.644
10685TIP3    H253471   0.222   3.306  16.559
10686TIP3   OH253472   1.130   0.623  11.593
10686TIP3    H153473   1.039   0.650  11.605
10686TIP3    H253474   1.159   0.595  11.679
10687TIP3   OH253475   0.851   1.528  15.701
10687TIP3    H153476   0.909   1.598  15.671
10687TIP3    H253477   0.769   1.543  15.654
10688TIP3   OH253478   5.225   4.551  16.248
10688TIP3    H153479   5.276   4.477  16.217
10688TIP3    H253480   5.151   4.511  16.294
10689TIP3   OH253481   1.559   0.846   2.245
10689TIP3    H153482   1.605   0.841   2.329
10689TIP3    H253483   1.471   0.875   2.268
10690TIP3   OH253484   2.023   5.787  16.583
10690TIP3    H153485   2.071   5.804  16.664
10690TIP3    H253486   2.075   5.721  16.537
10691TIP3   OH253487   3.926   4.724  13.510
10691TIP3    H153488   3.839   4.733  13.472
10691TIP3    H253489   3.940   4.804  13.560
10692TIP3   OH253490   3.848   4.367  12.417
10692TIP3    H153491   3.861   4.403  12.505
10692TIP3    H253492   3.930   4.321  12.398
10693TIP3   OH253493   6.156   3.544   5.070
10693TIP3    H153494   6.167   3.629   5.028
10693TIP3    H253495   6.227   3.490   5.034
10694TIP3   OH253496   3.333   1.157   0.303
10694TIP3    H153497   3.277   1.123   0.373
10694TIP3    H253498   3.422   1.134   0.330
10695TIP3   OH253499   2.100   2.871  15.301
10695TIP3    H153500   2.085   2.777  15.287
10695TIP3    H253501   2.179   2.890  15.252
10696TIP3   OH253502   5.551   3.596  16.202
10696TIP3    H153503   5.600   3.541  16.263
10696TIP3    H253504   5.617   3.656  16.166
10697TIP3   OH253505   4.116   4.279   5.461
10697TIP3    H153506   4.070   4.195   5.471
10697TIP3    H253507   4.066   4.341   5.513
10698TIP3   OH253508   0.247   5.614   5.297
10698TIP3    H153509   0.338   5.608   5.326
10698TIP3    H253510   0.252   5.635   5.204
10699TIP3   OH253511   4.840   3.074  16.420
10699TIP3    H153512   4.795   3.156  16.399
10699TIP3    H253513   4.884   3.092  16.504
10700TIP3   OH253514   2.985   0.353  13.223
10700TIP3    H153515   2.963   0.397  13.141
10700TIP3    H253516   3.080   0.353  13.226
10701TIP3   OH253517   6.756   4.280   6.697
10701TIP3    H153518   6.812   4.206   6.673
10701TIP3    H253519   6.814   4.339   6.746
10702TIP3   OH253520   5.243   3.230  16.719
10702TIP3    H153521   5.255   3.253  16.811
10702TIP3    H253522   5.265   3.310  16.671
10703TIP3   OH253523   1.221   2.433   2.653
10703TIP3    H153524   1.168   2.385   2.590
10703TIP3    H253525   1.285   2.480   2.600
10704TIP3   OH253526   2.183   6.009   6.064
10704TIP3    H153527   2.171   5.914   6.065
10704TIP3    H253528   2.203   6.032   6.155
10705TIP3   OH253529   3.050   4.405   6.746
10705TIP3    H153530   3.015   4.335   6.801
10705TIP3    H253531   2.976   4.464   6.732
10706TIP3   OH253532   5.010   6.569  12.507
10706TIP3    H153533   5.096   6.541  12.476
10706TIP3    H253534   4.983   6.637  12.445
10707TIP3   OH253535   1.184   3.239   0.059
10707TIP3    H153536   1.113   3.304   0.066
10707TIP3    H253537   1.241   3.274  -0.009
10708TIP3   OH253538   2.847   1.873   5.843
10708TIP3    H153539   2.901   1.920   5.906
10708TIP3    H253540   2.813   1.798   5.892
10709TIP3   OH253541   6.409   5.083   2.190
10709TIP3    H153542   6.356   5.118   2.263
10709TIP3    H253543   6.345   5.054   2.125
10710TIP3   OH253544   5.832   2.414   4.415
10710TIP3    H153545   5.912   2.466   4.424
10710TIP3    H253546   5.832   2.357   4.492
10711TIP3   OH253547   4.259   1.532   5.951
10711TIP3    H153548   4.297   1.444   5.953
10711TIP3    H253549   4.277   1.564   5.862
10712TIP3   OH253550   6.240   5.595  14.721
10712TIP3    H153551   6.323   5.547  14.726
10712TIP3    H253552   6.238   5.631  14.633
10713TIP3   OH253553   3.781   4.024   0.863
10713TIP3    H153554   3.762   4.047   0.953
10713TIP3    H253555   3.781   4.108   0.816
10714TIP3   OH253556   3.984   1.821  16.409
10714TIP3    H153557   4.068   1.780  16.427
10714TIP3    H253558   3.968   1.878  16.484
10715TIP3   OH253559   4.947   1.883  12.540
10715TIP3    H153560   4.945   1.834  12.622
10715TIP3    H253561   4.890   1.959  12.556
10716TIP3   OH253562   4.965   1.447   0.442
10716TIP3    H153563   5.008   1.481   0.520
10716TIP3    H253564   5.037   1.423   0.383
10717TIP3   OH253565   2.948   0.807  16.798
10717TIP3    H153566   3.019   0.839  16.742
10717TIP3    H253567   2.968   0.842  16.884
10718TIP3   OH253568   3.786   1.466   0.816
10718TIP3    H153569   3.875   1.454   0.848
10718TIP3    H253570   3.783   1.557   0.786
10719TIP3   OH253571   6.590   1.588  16.352
10719TIP3    H153572   6.582   1.672  16.396
10719TIP3    H253573   6.502   1.568  16.321
10720TIP3   OH253574   0.137   1.752  16.936
10720TIP3    H153575   0.227   1.748  16.969
10720TIP3    H253576   0.142   1.712  16.849
10721TIP3   OH253577   6.608   5.835   1.524
10721TIP3    H153578   6.523   5.800   1.496
10721TIP3    H253579   6.672   5.792   1.467
10722TIP3   OH253580   3.804   2.695  14.009
10722TIP3    H153581   3.807   2.668  14.101
10722TIP3    H253582   3.896   2.705  13.985
10723TIP3   OH253583   4.978   0.231  15.730
10723TIP3    H153584   4.959   0.318  15.766
10723TIP3    H253585   4.957   0.171  15.802
10724TIP3   OH253586   4.197   3.942   3.613
10724TIP3    H153587   4.279   3.898   3.637
10724TIP3    H253588   4.131   3.905   3.673
10725TIP3   OH253589   3.619   6.215  11.246
10725TIP3    H153590   3.534   6.194  11.207
10725TIP3    H253591   3.653   6.130  11.275
10726TIP3   OH253592   5.401   3.940   5.947
10726TIP3    H153593   5.411   3.854   5.987
10726TIP3    H253594   5.309   3.944   5.921
10727TIP3   OH253595   3.636   0.983  12.353
10727TIP3    H153596   3.720   0.944  12.377
10727TIP3    H253597   3.598   0.921  12.291
10728TIP3   OH253598   3.726   6.769  10.766
10728TIP3    H153599   3.677   6.736  10.841
10728TIP3    H253600   3.662   6.774  10.695
10729TIP3   OH253601   4.527   0.656   3.173
10729TIP3    H153602   4.484   0.572   3.186
10729TIP3    H253603   4.614   0.645   3.213
10730TIP3   OH253604   1.900   1.102  11.437
10730TIP3    H153605   1.841   1.125  11.365
10730TIP3    H253606   1.981   1.076  11.394
10731TIP3   OH253607   0.561   0.037   1.660
10731TIP3    H153608   0.581   0.076   1.745
10731TIP3    H253609   0.548  -0.056   1.679
10732TIP3   OH253610   3.914   1.130  17.160
10732TIP3    H153611   3.903   1.090  17.246
10732TIP3    H253612   3.989   1.188  17.169
10733TIP3   OH253613   0.237   3.103   3.468
10733TIP3    H153614   0.194   3.018   3.473
10733TIP3    H253615   0.200   3.145   3.390
10734TIP3   OH253616   4.729   4.919   6.275
10734TIP3    H153617   4.641   4.949   6.296
10734TIP3    H253618   4.772   4.995   6.237
10735TIP3   OH253619   5.941   1.211   4.142
10735TIP3    H153620   6.026   1.252   4.123
10735TIP3    H253621   5.886   1.235   4.068
10736TIP3   OH253622   1.233   3.096   4.041
10736TIP3    H153623   1.219   3.082   4.135
10736TIP3    H253624   1.328   3.098   4.031
10737TIP3   OH253625   2.314   6.299  16.453
10737TIP3    H153626   2.234   6.266  16.493
10737TIP3    H253627   2.309   6.272  16.362
10738TIP3   OH253628   3.797   6.032   3.574
10738TIP3    H153629   3.752   5.953   3.543
10738TIP3    H253630   3.889   6.006   3.580
10739TIP3   OH253631   6.035   0.500   0.854
10739TIP3    H153632   6.005   0.475   0.766
10739TIP3    H253633   6.064   0.418   0.893
10740TIP3   OH253634   6.495   5.433  14.413
10740TIP3    H153635   6.447   5.399  14.337
10740TIP3    H253636   6.451   5.515  14.434
10741TIP3   OH253637   1.667   4.811  16.790
10741TIP3    H153638   1.670   4.834  16.882
10741TIP3    H253639   1.595   4.748  16.784
10742TIP3   OH253640   0.491   1.136   5.662
10742TIP3    H153641   0.404   1.101   5.643
10742TIP3    H253642   0.535   1.067   5.710
10743TIP3   OH253643   4.191   3.578   0.826
10743TIP3    H153644   4.173   3.526   0.747
10743TIP3    H253645   4.124   3.646   0.825
10744TIP3   OH253646   2.489   2.775   5.498
10744TIP3    H153647   2.514   2.793   5.407
10744TIP3    H253648   2.560   2.814   5.550
10745TIP3   OH253649   4.010   4.183   2.727
10745TIP3    H153650   4.041   4.269   2.701
10745TIP3    H253651   4.059   4.121   2.673
10746TIP3   OH253652   5.516   1.983   5.299
10746TIP3    H153653   5.532   1.903   5.350
10746TIP3    H253654   5.586   1.984   5.234
10747TIP3   OH253655   0.711   1.640  16.025
10747TIP3    H153656   0.656   1.573  15.984
10747TIP3    H253657   0.666   1.722  16.008
10748TIP3   OH253658   2.249   2.173  13.315
10748TIP3    H153659   2.345   2.170  13.310
10748TIP3    H253660   2.224   2.232  13.244
10749TIP3   OH253661   2.722   5.085  10.841
10749TIP3    H153662   2.720   5.008  10.898
10749TIP3    H253663   2.795   5.138  10.873
10750TIP3   OH253664   4.716   5.830  10.549
10750TIP3    H153665   4.795   5.868  10.511
10750TIP3    H253666   4.645   5.859  10.491
10751TIP3   OH253667   0.364   3.213  11.906
10751TIP3    H153668   0.431   3.144  11.912
10751TIP3    H253669   0.282   3.166  11.898
10752TIP3   OH253670   0.734   2.708  13.468
10752TIP3    H153671   0.778   2.785  13.503
10752TIP3    H253672   0.643   2.735  13.456
10753TIP3   OH253673   1.294   3.411  16.117
10753TIP3    H153674   1.256   3.323  16.113
10753TIP3    H253675   1.226   3.465  16.156
10754TIP3   OH253676   6.081   3.973   4.908
10754TIP3    H153677   6.029   4.043   4.947
10754TIP3    H253678   6.136   4.017   4.843
10755TIP3   OH253679   3.288   5.671  12.372
10755TIP3    H153680   3.238   5.752  12.380
10755TIP3    H253681   3.227   5.608  12.334
10756TIP3   OH253682   2.012   2.401   1.571
10756TIP3    H153683   2.106   2.390   1.580
10756TIP3    H253684   1.974   2.325   1.614
10757TIP3   OH253685   1.408   0.258   4.919
10757TIP3    H153686   1.500   0.230   4.918
10757TIP3    H253687   1.406   0.331   4.981
10758TIP3   OH253688   2.292   3.861  13.033
10758TIP3    H153689   2.385   3.859  13.011
10758TIP3    H253690   2.248   3.828  12.954
10759TIP3   OH253691   6.421   2.419   6.611
10759TIP3    H153692   6.348   2.447   6.557
10759TIP3    H253693   6.397   2.332   6.642
10760TIP3   OH253694   6.464   2.463   5.574
10760TIP3    H153695   6.458   2.533   5.509
10760TIP3    H253696   6.448   2.506   5.657
10761TIP3   OH253697   1.699   6.735  14.989
10761TIP3    H153698   1.647   6.800  15.034
10761TIP3    H253699   1.779   6.727  15.042
10762TIP3   OH253700   3.269   2.147   4.305
10762TIP3    H153701   3.309   2.212   4.247
10762TIP3    H253702   3.194   2.192   4.343
10763TIP3   OH253703   4.324   0.437   5.375
10763TIP3    H153704   4.316   0.517   5.427
10763TIP3    H253705   4.245   0.387   5.397
10764TIP3   OH253706   3.462   6.430   3.687
10764TIP3    H153707   3.429   6.350   3.728
10764TIP3    H253708   3.388   6.465   3.638
10765TIP3   OH253709   3.123   0.722   2.800
10765TIP3    H153710   3.135   0.787   2.869
10765TIP3    H253711   3.147   0.639   2.841
10766TIP3   OH253712   1.447   2.582   0.386
10766TIP3    H153713   1.468   2.493   0.358
10766TIP3    H253714   1.465   2.583   0.480
10767TIP3   OH253715   2.035   4.676   3.750
10767TIP3    H153716   1.975   4.725   3.806
10767TIP3    H253717   1.992   4.591   3.738
10768TIP3   OH253718   4.489   1.992  12.572
10768TIP3    H153719   4.560   2.033  12.521
10768TIP3    H253720   4.415   1.987  12.512
10769TIP3   OH253721   2.564   1.157  16.003
10769TIP3    H153722   2.506   1.083  15.987
10769TIP3    H253723   2.617   1.163  15.923
10770TIP3   OH253724   2.892   1.770  11.846
10770TIP3    H153725   2.829   1.838  11.823
10770TIP3    H253726   2.937   1.750  11.764
10771TIP3   OH253727   1.459   0.228  13.118
10771TIP3    H153728   1.422   0.220  13.206
10771TIP3    H253729   1.458   0.138  13.084
10772TIP3   OH253730   4.338   3.961  11.342
10772TIP3    H153731   4.343   3.897  11.272
10772TIP3    H253732   4.346   4.046  11.298
10773TIP3   OH253733   3.498   1.192  13.615
10773TIP3    H153734   3.409   1.163  13.635
10773TIP3    H253735   3.554   1.133  13.665
10774TIP3   OH253736   0.341   0.033  17.060
10774TIP3    H153737   0.278  -0.026  17.018
10774TIP3    H253738   0.308   0.121  17.040
10775TIP3   OH253739   6.173   4.448  13.974
10775TIP3    H153740   6.236   4.379  13.952
10775TIP3    H253741   6.114   4.451  13.899
10776TIP3   OH253742   0.737   5.969  16.280
10776TIP3    H153743   0.752   6.007  16.367
10776TIP3    H253744   0.782   5.884  16.283
10777TIP3   OH253745   5.133   3.909   5.954
10777TIP3    H153746   5.161   3.925   6.044
10777TIP3    H253747   5.152   3.816   5.939
10778TIP3   OH253748   2.574   2.979  12.349
10778TIP3    H153749   2.549   3.069  12.328
10778TIP3    H253750   2.598   2.941  12.265
10779TIP3   OH253751   4.420   2.218  17.092
10779TIP3    H153752   4.341   2.176  17.057
10779TIP3    H253753   4.481   2.219  17.018
10780TIP3   OH253754   0.230   4.357  15.118
10780TIP3    H153755   0.237   4.262  15.118
10780TIP3    H253756   0.318   4.388  15.096
10781TIP3   OH253757   3.520   5.226  13.907
10781TIP3    H153758   3.531   5.195  13.997
10781TIP3    H253759   3.436   5.271  13.908
10782TIP3   OH253760   5.397   2.897   0.997
10782TIP3    H153761   5.456   2.836   0.953
10782TIP3    H253762   5.455   2.953   1.049
10783TIP3   OH253763   3.392   6.732   1.587
10783TIP3    H153764   3.330   6.672   1.628
10783TIP3    H253765   3.454   6.754   1.657
10784TIP3   OH253766   2.976   2.729   1.791
10784TIP3    H153767   2.943   2.688   1.871
10784TIP3    H253768   2.941   2.675   1.720
10785TIP3   OH253769   6.718   1.531   2.029
10785TIP3    H153770   6.809   1.531   2.000
10785TIP3    H253771   6.705   1.616   2.070
10786TIP3   OH253772   3.463   2.208  11.430
10786TIP3    H153773   3.373   2.209  11.399
10786TIP3    H253774   3.460   2.156  11.510
10787TIP3   OH253775   4.607   4.262   0.174
10787TIP3    H153776   4.655   4.289   0.252
10787TIP3    H253777   4.543   4.332   0.161
10788TIP3   OH253778   2.218   5.082   3.705
10788TIP3    H153779   2.204   5.112   3.795
10788TIP3    H253780   2.223   4.986   3.712
10789TIP3   OH253781   4.717   5.392   5.648
10789TIP3    H153782   4.720   5.384   5.553
10789TIP3    H253783   4.623   5.390   5.669
10790TIP3   OH253784   2.819   6.174  11.877
10790TIP3    H153785   2.739   6.133  11.845
10790TIP3    H253786   2.866   6.104  11.922
10791TIP3   OH253787   0.566   2.182  12.622
10791TIP3    H153788   0.643   2.126  12.634
10791TIP3    H253789   0.495   2.135  12.666
10792TIP3   OH253790   5.751   2.177  11.279
10792TIP3    H153791   5.800   2.133  11.349
10792TIP3    H253792   5.661   2.177  11.310
10793TIP3   OH253793   6.127   1.133   0.667
10793TIP3    H153794   6.143   1.057   0.611
10793TIP3    H253795   6.213   1.173   0.677
10794TIP3   OH253796   0.067   2.026   0.848
10794TIP3    H153797   0.133   2.057   0.786
10794TIP3    H253798   0.000   2.095   0.848
10795TIP3   OH253799   3.129   3.721   1.709
10795TIP3    H153800   3.178   3.769   1.642
10795TIP3    H253801   3.148   3.629   1.692
10796TIP3   OH253802   2.479   2.166   2.152
10796TIP3    H153803   2.404   2.222   2.135
10796TIP3    H253804   2.468   2.138   2.243
10797TIP3   OH253805   1.465   4.370   5.580
10797TIP3    H153806   1.421   4.286   5.597
10797TIP3    H253807   1.550   4.361   5.623
10798TIP3   OH253808   4.851   3.536   4.919
10798TIP3    H153809   4.764   3.554   4.883
10798TIP3    H253810   4.871   3.447   4.891
10799TIP3   OH253811   2.186   0.032  16.005
10799TIP3    H153812   2.231  -0.025  16.067
10799TIP3    H253813   2.151   0.103  16.059
10800TIP3   OH253814   3.995   4.462  10.878
10800TIP3    H153815   3.996   4.550  10.915
10800TIP3    H253816   4.067   4.461  10.816
10801TIP3   OH253817   3.373   2.212  16.877
10801TIP3    H153818   3.352   2.293  16.830
10801TIP3    H253819   3.455   2.182  16.837
10802TIP3   OH253820   2.113   5.692   4.484
10802TIP3    H153821   2.194   5.642   4.477
10802TIP3    H253822   2.043   5.627   4.476
10803TIP3   OH253823   4.102   6.634   0.187
10803TIP3    H153824   4.115   6.727   0.202
10803TIP3    H253825   4.177   6.608   0.133
10804TIP3   OH253826   1.271   0.990   5.184
10804TIP3    H153827   1.274   0.968   5.091
10804TIP3    H253828   1.356   1.030   5.202
10805TIP3   OH253829   3.337   1.658   1.598
10805TIP3    H153830   3.428   1.644   1.623
10805TIP3    H253831   3.299   1.570   1.597
10806TIP3   OH253832   1.228   1.319   4.352
10806TIP3    H153833   1.268   1.406   4.357
10806TIP3    H253834   1.148   1.326   4.404
10807TIP3   OH253835   4.734   0.352   5.391
10807TIP3    H153836   4.683   0.310   5.461
10807TIP3    H253837   4.678   0.422   5.358
10808TIP3   OH253838   6.329   2.432   2.143
10808TIP3    H153839   6.289   2.460   2.060
10808TIP3    H253840   6.408   2.484   2.151
10809TIP3   OH253841   4.792   6.005   3.132
10809TIP3    H153842   4.872   6.043   3.168
10809TIP3    H253843   4.763   6.068   3.066
10810TIP3   OH253844   3.545   3.090   3.770
10810TIP3    H153845   3.591   3.016   3.730
10810TIP3    H253846   3.598   3.167   3.748
10811TIP3   OH253847   1.692   6.456  12.673
10811TIP3    H153848   1.632   6.515  12.718
10811TIP3    H253849   1.722   6.396  12.742
10812TIP3   OH253850   1.244   2.493  14.654
10812TIP3    H153851   1.329   2.452  14.667
10812TIP3    H253852   1.196   2.431  14.599
10813TIP3   OH253853   3.336   1.428  12.914
10813TIP3    H153854   3.291   1.510  12.895
10813TIP3    H253855   3.349   1.387  12.828
10814TIP3   OH253856   6.249   5.756  12.208
10814TIP3    H153857   6.221   5.844  12.181
10814TIP3    H253858   6.260   5.708  12.125
10815TIP3   OH253859   4.294   5.154  14.864
10815TIP3    H153860   4.305   5.249  14.862
10815TIP3    H253861   4.204   5.141  14.894
10816TIP3   OH253862   2.472   0.705   5.559
10816TIP3    H153863   2.520   0.717   5.640
10816TIP3    H253864   2.382   0.732   5.579
10817TIP3   OH253865   3.594   5.046   1.967
10817TIP3    H153866   3.548   5.067   2.049
10817TIP3    H253867   3.669   4.994   1.995
10818TIP3   OH253868   4.263   3.706  11.711
10818TIP3    H153869   4.332   3.686  11.774
10818TIP3    H253870   4.303   3.768  11.650
10819TIP3   OH253871   3.815   3.705   5.620
10819TIP3    H153872   3.751   3.769   5.590
10819TIP3    H253873   3.897   3.733   5.579
10820TIP3   OH253874   1.400   5.418   3.485
10820TIP3    H153875   1.462   5.428   3.557
10820TIP3    H253876   1.426   5.336   3.443
10821TIP3   OH253877   3.937   1.966   2.915
10821TIP3    H153878   3.879   1.988   2.842
10821TIP3    H253879   3.898   2.010   2.991
10822TIP3   OH253880   4.177   3.022   1.697
10822TIP3    H153881   4.132   3.038   1.780
10822TIP3    H253882   4.210   2.933   1.705
10823TIP3   OH253883   6.253   5.733  14.971
10823TIP3    H153884   6.248   5.676  14.893
10823TIP3    H253885   6.328   5.700  15.020
10824TIP3   OH253886   0.520   0.984   5.133
10824TIP3    H153887   0.518   1.050   5.203
10824TIP3    H253888   0.478   1.027   5.059
10825TIP3   OH253889   5.455   2.897   6.332
10825TIP3    H153890   5.370   2.917   6.372
10825TIP3    H253891   5.454   2.802   6.322
10826TIP3   OH253892   1.747   1.595   0.724
10826TIP3    H153893   1.778   1.635   0.643
10826TIP3    H253894   1.715   1.509   0.698
10827TIP3   OH253895   1.144   6.310   2.789
10827TIP3    H153896   1.107   6.282   2.873
10827TIP3    H253897   1.224   6.259   2.780
10828TIP3   OH253898   1.082   2.546  16.758
10828TIP3    H153899   1.042   2.625  16.723
10828TIP3    H253900   1.082   2.559  16.853
10829TIP3   OH253901   5.434   4.656   4.886
10829TIP3    H153902   5.393   4.638   4.971
10829TIP3    H253903   5.446   4.750   4.885
10830TIP3   OH253904   2.396   2.845  15.164
10830TIP3    H153905   2.398   2.825  15.071
10830TIP3    H253906   2.400   2.941  15.168
10831TIP3   OH253907   5.988   5.017   1.692
10831TIP3    H153908   5.897   5.023   1.665
10831TIP3    H253909   6.031   5.091   1.650
10832TIP3   OH253910   1.027   3.967   0.329
10832TIP3    H153911   0.995   3.900   0.270
10832TIP3    H253912   1.122   3.962   0.322
10833TIP3   OH253913   2.120   2.196   1.342
10833TIP3    H153914   2.210   2.225   1.326
10833TIP3    H253915   2.070   2.227   1.267
10834TIP3   OH253916   4.633   5.152   4.020
10834TIP3    H153917   4.715   5.111   4.047
10834TIP3    H253918   4.572   5.132   4.091
10835TIP3   OH253919   2.469   3.801  13.315
10835TIP3    H153920   2.386   3.848  13.320
10835TIP3    H253921   2.457   3.724  13.369
10836TIP3   OH253922   4.957   2.137  13.386
10836TIP3    H153923   4.917   2.050  13.380
10836TIP3    H253924   4.885   2.194  13.413
10837TIP3   OH253925   2.259   5.824   2.241
10837TIP3    H153926   2.263   5.910   2.282
10837TIP3    H253927   2.203   5.836   2.164
10838TIP3   OH253928   3.508   4.273  16.190
10838TIP3    H153929   3.443   4.314  16.246
10838TIP3    H253930   3.541   4.199  16.241
10839TIP3   OH253931   4.722   4.716  10.772
10839TIP3    H153932   4.795   4.778  10.770
10839TIP3    H253933   4.764   4.630  10.774
10840TIP3   OH253934   6.422   6.463  15.386
10840TIP3    H153935   6.429   6.554  15.416
10840TIP3    H253936   6.345   6.463  15.329
10841TIP3   OH253937   6.055   1.509  17.035
10841TIP3    H153938   6.049   1.514  17.131
10841TIP3    H253939   6.005   1.431  17.012
10842TIP3   OH253940   1.021   1.469   3.024
10842TIP3    H153941   0.927   1.468   3.008
10842TIP3    H253942   1.030   1.516   3.108
10843TIP3   OH253943   5.309   3.264  15.075
10843TIP3    H153944   5.393   3.290  15.112
10843TIP3    H253945   5.316   3.286  14.982
10844TIP3   OH253946   2.053   2.376   6.388
10844TIP3    H153947   2.032   2.296   6.436
10844TIP3    H253948   2.064   2.443   6.455
10845TIP3   OH253949   3.348   4.433   5.771
10845TIP3    H153950   3.433   4.445   5.728
10845TIP3    H253951   3.369   4.390   5.854
10846TIP3   OH253952   0.618   2.841   4.352
10846TIP3    H153953   0.581   2.927   4.337
10846TIP3    H253954   0.676   2.826   4.277
10847TIP3   OH253955   5.096   6.214  12.079
10847TIP3    H153956   5.115   6.216  12.173
10847TIP3    H253957   5.020   6.156  12.072
10848TIP3   OH253958   2.130   3.225   4.375
10848TIP3    H153959   2.168   3.138   4.381
10848TIP3    H253960   2.206   3.284   4.379
10849TIP3   OH253961   5.642   3.070  10.904
10849TIP3    H153962   5.693   2.997  10.940
10849TIP3    H253963   5.666   3.145  10.958
10850TIP3   OH253964   5.693   2.947   6.223
10850TIP3    H153965   5.629   2.889   6.263
10850TIP3    H253966   5.772   2.893   6.215
10851TIP3   OH253967   3.061   3.756  11.276
10851TIP3    H153968   3.005   3.695  11.229
10851TIP3    H253969   3.045   3.737  11.368
10852TIP3   OH253970   5.047   3.120  13.113
10852TIP3    H153971   5.062   3.195  13.055
10852TIP3    H253972   5.028   3.047  13.053
10853TIP3   OH253973   6.750   5.685  16.487
10853TIP3    H153974   6.732   5.768  16.444
10853TIP3    H253975   6.827   5.651  16.440
10854TIP3   OH253976   6.429   1.424   6.389
10854TIP3    H153977   6.519   1.455   6.385
10854TIP3    H253978   6.434   1.333   6.360
10855TIP3   OH253979   4.085   5.953   2.165
10855TIP3    H153980   4.116   6.040   2.192
10855TIP3    H253981   4.136   5.933   2.086
10856TIP3   OH253982   5.797   4.011   3.826
10856TIP3    H153983   5.878   4.057   3.801
10856TIP3    H253984   5.775   4.048   3.912
10857TIP3   OH253985   4.470   4.396   1.115
10857TIP3    H153986   4.483   4.367   1.025
10857TIP3    H253987   4.527   4.339   1.167
10858TIP3   OH253988   0.044   6.055   2.669
10858TIP3    H153989   0.104   6.027   2.599
10858TIP3    H253990   0.049   6.151   2.667
10859TIP3   OH253991   2.151   4.974  11.973
10859TIP3    H153992   2.185   4.942  12.057
10859TIP3    H253993   2.144   4.895  11.919
10860TIP3   OH253994   2.449   3.532   5.403
10860TIP3    H153995   2.367   3.541   5.451
10860TIP3    H253996   2.516   3.529   5.470
10861TIP3   OH253997   0.041   0.074  13.110
10861TIP3    H153998   0.074  -0.013  13.132
10861TIP3    H253999   0.095   0.102  13.036
10862TIP3   OH254000   2.504   1.146  13.657
10862TIP3    H154001   2.483   1.193  13.577
10862TIP3    H254002   2.420   1.135  13.701
10863TIP3   OH254003   5.580   4.434   5.271
10863TIP3    H154004   5.588   4.529   5.266
10863TIP3    H254005   5.507   4.413   5.213
10864TIP3   OH254006   1.677   5.514   1.674
10864TIP3    H154007   1.648   5.592   1.722
10864TIP3    H254008   1.694   5.449   1.742
10865TIP3   OH254009   2.653   2.456  13.137
10865TIP3    H154010   2.590   2.527  13.131
10865TIP3    H254011   2.738   2.498  13.120
10866TIP3   OH254012   6.619   3.552  13.789
10866TIP3    H154013   6.615   3.636  13.836
10866TIP3    H254014   6.709   3.522  13.802
10867TIP3   OH254015   6.312   6.133  13.990
10867TIP3    H154016   6.222   6.102  13.995
10867TIP3    H254017   6.338   6.149  14.081
10868TIP3   OH254018   5.466   6.019  14.241
10868TIP3    H154019   5.378   6.007  14.204
10868TIP3    H254020   5.458   5.983  14.330
10869TIP3   OH254021   2.130   3.109   3.187
10869TIP3    H154022   2.123   3.197   3.149
10869TIP3    H254023   2.184   3.121   3.265
10870TIP3   OH254024   6.595   3.038   4.379
10870TIP3    H154025   6.554   2.992   4.306
10870TIP3    H254026   6.643   2.970   4.427
10871TIP3   OH254027   2.466   1.607  12.193
10871TIP3    H154028   2.375   1.628  12.171
10871TIP3    H254029   2.512   1.611  12.109
10872TIP3   OH254030   3.396   4.772   4.293
10872TIP3    H154031   3.482   4.809   4.274
10872TIP3    H254032   3.398   4.755   4.387
10873TIP3   OH254033   0.079   4.468  15.496
10873TIP3    H154034  -0.003   4.489  15.453
10873TIP3    H254035   0.147   4.505  15.440
10874TIP3   OH254036   1.262   0.276  13.658
10874TIP3    H154037   1.316   0.322  13.723
10874TIP3    H254038   1.197   0.229  13.710
10875TIP3   OH254039   1.501   6.660   2.699
10875TIP3    H154040   1.475   6.570   2.719
10875TIP3    H254041   1.516   6.700   2.785
10876TIP3   OH254042   1.131   2.969  12.440
10876TIP3    H154043   1.101   3.059  12.443
10876TIP3    H254044   1.066   2.924  12.384
10877TIP3   OH254045   0.168   2.887   0.737
10877TIP3    H154046   0.215   2.945   0.677
10877TIP3    H254047   0.089   2.863   0.689
10878TIP3   OH254048   1.225   1.172  11.718
10878TIP3    H154049   1.250   1.102  11.658
10878TIP3    H254050   1.223   1.251  11.664
10879TIP3   OH254051   0.453   0.316  16.293
10879TIP3    H154052   0.413   0.264  16.363
10879TIP3    H254053   0.493   0.252  16.235
10880TIP3   OH254054   4.349   5.790  12.424
10880TIP3    H154055   4.423   5.738  12.455
10880TIP3    H254056   4.381   5.881  12.425
10881TIP3   OH254057   0.072   3.169  15.173
10881TIP3    H154058   0.042   3.161  15.264
10881TIP3    H254059   0.136   3.240  15.175
10882TIP3   OH254060   3.630   2.208  17.170
10882TIP3    H154061   3.666   2.296  17.173
10882TIP3    H254062   3.703   2.151  17.195
10883TIP3   OH254063   6.306   6.506  14.627
10883TIP3    H154064   6.386   6.532  14.674
10883TIP3    H254065   6.236   6.556  14.670
10884TIP3   OH254066   6.740   1.056   0.167
10884TIP3    H154067   6.744   1.141   0.209
10884TIP3    H254068   6.655   1.055   0.123
10885TIP3   OH254069   4.567   1.950  10.906
10885TIP3    H154070   4.613   1.983  10.828
10885TIP3    H254071   4.561   1.855  10.892
10886TIP3   OH254072   4.217   0.858  12.328
10886TIP3    H154073   4.265   0.926  12.281
10886TIP3    H254074   4.260   0.853  12.413
10887TIP3   OH254075   6.368   4.819  16.126
10887TIP3    H154076   6.301   4.843  16.190
10887TIP3    H254077   6.410   4.741  16.164
10888TIP3   OH254078   0.649   4.198   2.839
10888TIP3    H154079   0.638   4.280   2.790
10888TIP3    H254080   0.733   4.207   2.883
10889TIP3   OH254081   3.546   3.608   1.494
10889TIP3    H154082   3.465   3.625   1.447
10889TIP3    H254083   3.596   3.551   1.436
10890TIP3   OH254084   6.069   3.381  16.783
10890TIP3    H154085   6.069   3.287  16.765
10890TIP3    H254086   6.099   3.388  16.874
10891TIP3   OH254087   1.089   0.050   5.394
10891TIP3    H154088   1.087   0.102   5.314
10891TIP3    H254089   0.998   0.049   5.425
10892TIP3   OH254090   6.473   4.969  13.079
10892TIP3    H154091   6.495   5.052  13.037
10892TIP3    H254092   6.388   4.984  13.119
10893TIP3   OH254093   2.630   4.220  15.758
10893TIP3    H154094   2.559   4.169  15.797
10893TIP3    H254095   2.591   4.305  15.738
10894TIP3   OH254096   1.800   5.947  13.275
10894TIP3    H154097   1.750   6.027  13.293
10894TIP3    H254098   1.848   5.967  13.194
10895TIP3   OH254099   0.419   0.667   5.087
10895TIP3    H154100   0.441   0.745   5.036
10895TIP3    H254101   0.430   0.594   5.026
10896TIP3   OH254102   1.318   3.305  11.061
10896TIP3    H154103   1.399   3.352  11.081
10896TIP3    H254104   1.273   3.361  10.997
10897TIP3   OH254105   2.071   1.320  10.456
10897TIP3    H154106   2.102   1.408  10.477
10897TIP3    H254107   2.146   1.278  10.414
10898TIP3   OH254108   6.395   4.626   4.292
10898TIP3    H154109   6.362   4.585   4.372
10898TIP3    H254110   6.389   4.558   4.225
10899TIP3   OH254111   2.943   6.037   0.288
10899TIP3    H154112   2.945   6.112   0.347
10899TIP3    H254113   2.968   6.073   0.203
10900TIP3   OH254114   2.062   6.307   5.868
10900TIP3    H154115   2.003   6.380   5.849
10900TIP3    H254116   2.005   6.232   5.878
10901TIP3   OH254117   6.233   6.575   1.814
10901TIP3    H154118   6.295   6.555   1.744
10901TIP3    H254119   6.282   6.630   1.875
10902TIP3   OH254120   1.524   4.308   4.981
10902TIP3    H154121   1.570   4.240   4.931
10902TIP3    H254122   1.529   4.278   5.072
10903TIP3   OH254123   5.508   3.505   3.279
10903TIP3    H154124   5.537   3.428   3.328
10903TIP3    H254125   5.531   3.485   3.188
10904TIP3   OH254126   6.686   4.674   4.157
10904TIP3    H154127   6.718   4.704   4.071
10904TIP3    H254128   6.606   4.725   4.172
10905TIP3   OH254129   4.547   6.742  15.556
10905TIP3    H154130   4.513   6.697  15.633
10905TIP3    H254131   4.563   6.673  15.492
10906TIP3   OH254132   1.475   0.525  13.780
10906TIP3    H154133   1.427   0.604  13.804
10906TIP3    H254134   1.480   0.474  13.861
10907TIP3   OH254135   6.705   2.374   6.512
10907TIP3    H154136   6.727   2.466   6.523
10907TIP3    H254137   6.625   2.362   6.563
10908TIP3   OH254138   6.501   0.600   3.426
10908TIP3    H154139   6.462   0.609   3.340
10908TIP3    H254140   6.440   0.644   3.485
10909TIP3   OH254141   1.807   1.530   2.481
10909TIP3    H154142   1.720   1.490   2.489
10909TIP3    H254143   1.867   1.456   2.484
10910TIP3   OH254144   3.052   5.444   1.513
10910TIP3    H154145   3.097   5.528   1.508
10910TIP3    H254146   2.965   5.465   1.546
10911TIP3   OH254147   6.744   2.652   6.577
10911TIP3    H154148   6.778   2.739   6.555
10911TIP3    H254149   6.657   2.668   6.613
10912TIP3   OH254150   5.737   3.830  16.492
10912TIP3    H154151   5.709   3.881  16.416
10912TIP3    H254152   5.804   3.770  16.458
10913TIP3   OH254153   4.233   4.196  14.128
10913TIP3    H154154   4.171   4.129  14.098
10913TIP3    H254155   4.182   4.250  14.188
10914TIP3   OH254156   3.007   3.711   6.068
10914TIP3    H154157   3.027   3.699   6.161
10914TIP3    H254158   3.012   3.806   6.055
10915TIP3   OH254159   2.443   6.746   4.125
10915TIP3    H154160   2.447   6.652   4.142
10915TIP3    H254161   2.468   6.755   4.033
10916TIP3   OH254162   1.331   0.691  15.441
10916TIP3    H154163   1.390   0.623  15.407
10916TIP3    H254164   1.280   0.718  15.365
10917TIP3   OH254165   4.328   1.155  12.997
10917TIP3    H154166   4.380   1.185  13.072
10917TIP3    H254167   4.387   1.159  12.923
10918TIP3   OH254168   0.822   4.671  11.516
10918TIP3    H154169   0.751   4.725  11.482
10918TIP3    H254170   0.874   4.731  11.570
10919TIP3   OH254171   0.021   3.351  17.032
10919TIP3    H154172   0.053   3.349  17.122
10919TIP3    H254173   0.075   3.286  16.986
10920TIP3   OH254174   3.546   0.277  16.234
10920TIP3    H154175   3.463   0.237  16.209
10920TIP3    H254176   3.556   0.350  16.173
10921TIP3   OH254177   6.618   3.695   0.911
10921TIP3    H154178   6.579   3.611   0.936
10921TIP3    H254179   6.632   3.741   0.994
10922TIP3   OH254180   6.198   4.222   2.450
10922TIP3    H154181   6.283   4.259   2.474
10922TIP3    H254182   6.153   4.210   2.534
10923TIP3   OH254183   4.108   3.469  17.014
10923TIP3    H154184   4.133   3.429  17.098
10923TIP3    H254185   4.155   3.417  16.948
10924TIP3   OH254186   6.455   6.301  16.690
10924TIP3    H154187   6.482   6.295  16.781
10924TIP3    H254188   6.518   6.361  16.650
10925TIP3   OH254189   4.804   2.331   5.700
10925TIP3    H154190   4.898   2.345   5.693
10925TIP3    H254191   4.769   2.415   5.730
10926TIP3   OH254192   0.836   0.003  15.054
10926TIP3    H154193   0.881  -0.080  15.070
10926TIP3    H254194   0.764  -0.020  14.995
10927TIP3   OH254195   4.524   3.268  13.061
10927TIP3    H154196   4.458   3.317  13.011
10927TIP3    H254197   4.553   3.329  13.129
10928TIP3   OH254198   0.421   2.022   1.417
10928TIP3    H154199   0.467   2.026   1.501
10928TIP3    H254200   0.469   1.957   1.366
10929TIP3   OH254201   2.760   2.840  13.388
10929TIP3    H154202   2.803   2.875  13.466
10929TIP3    H254203   2.785   2.748  13.387
10930TIP3   OH254204   5.144   6.448  16.551
10930TIP3    H154205   5.178   6.411  16.632
10930TIP3    H254206   5.060   6.402  16.537
10931TIP3   OH254207   1.661   4.924   4.943
10931TIP3    H154208   1.672   5.003   4.891
10931TIP3    H254209   1.588   4.944   5.002
10932TIP3   OH254210   5.335   4.890   3.909
10932TIP3    H154211   5.343   4.961   3.973
10932TIP3    H254212   5.404   4.908   3.845
10933TIP3   OH254213   3.392   4.356   3.617
10933TIP3    H154214   3.336   4.373   3.693
10933TIP3    H254215   3.332   4.320   3.551
10934TIP3   OH254216   0.781   2.929  15.057
10934TIP3    H154217   0.752   2.839  15.066
10934TIP3    H254218   0.827   2.932  14.974
10935TIP3   OH254219   4.668   6.491  16.114
10935TIP3    H154220   4.656   6.483  16.209
10935TIP3    H254221   4.715   6.574  16.103
10936TIP3   OH254222   2.409   6.312   4.518
10936TIP3    H154223   2.369   6.272   4.441
10936TIP3    H254224   2.377   6.402   4.519
10937TIP3   OH254225   0.429   2.329   4.367
10937TIP3    H154226   0.439   2.234   4.372
10937TIP3    H254227   0.460   2.361   4.452
10938TIP3   OH254228   5.315   1.607   1.458
10938TIP3    H154229   5.272   1.592   1.374
10938TIP3    H254230   5.339   1.520   1.489
10939TIP3   OH254231   4.415   2.298  13.287
10939TIP3    H154232   4.346   2.361  13.309
10939TIP3    H254233   4.416   2.295  13.192
10940TIP3   OH254234   1.129   0.376  16.646
10940TIP3    H154235   1.065   0.342  16.709
10940TIP3    H254236   1.122   0.471  16.654
10941TIP3   OH254237   2.227   2.158  13.928
10941TIP3    H154238   2.230   2.169  13.833
10941TIP3    H254239   2.298   2.096  13.947
10942TIP3   OH254240   5.021   3.892   4.474
10942TIP3    H154241   5.081   3.899   4.400
10942TIP3    H254242   5.020   3.798   4.494
10943TIP3   OH254243   6.173   3.207   1.499
10943TIP3    H154244   6.234   3.277   1.522
10943TIP3    H254245   6.165   3.155   1.579
10944TIP3   OH254246   1.768   2.924   3.387
10944TIP3    H154247   1.802   2.995   3.332
10944TIP3    H254248   1.777   2.845   3.333
10945TIP3   OH254249   4.447   1.334   5.888
10945TIP3    H154250   4.452   1.323   5.793
10945TIP3    H254251   4.537   1.351   5.916
10946TIP3   OH254252   6.301   0.761  15.014
10946TIP3    H154253   6.328   0.673  15.038
10946TIP3    H254254   6.309   0.811  15.096
10947TIP3   OH254255   2.151   6.727   4.513
10947TIP3    H154256   2.221   6.793   4.512
10947TIP3    H254257   2.070   6.777   4.506
10948TIP3   OH254258   2.395   2.272  17.180
10948TIP3    H154259   2.471   2.257  17.236
10948TIP3    H254260   2.432   2.298  17.096
10949TIP3   OH254261   6.400   3.300   0.424
10949TIP3    H154262   6.420   3.347   0.505
10949TIP3    H254263   6.475   3.242   0.410
10950TIP3   OH254264   1.350   3.740   4.425
10950TIP3    H154265   1.399   3.755   4.506
10950TIP3    H254266   1.346   3.645   4.416
10951TIP3   OH254267   0.854   2.106   5.124
10951TIP3    H154268   0.841   2.181   5.065
10951TIP3    H254269   0.804   2.129   5.203
10952TIP3   OH254270   0.732   3.633   2.002
10952TIP3    H154271   0.754   3.695   2.071
10952TIP3    H254272   0.722   3.686   1.923
10953TIP3   OH254273   6.141   3.570  12.591
10953TIP3    H154274   6.064   3.602  12.639
10953TIP3    H254275   6.180   3.649  12.553
10954TIP3   OH254276   0.497   1.481  15.924
10954TIP3    H154277   0.415   1.499  15.971
10954TIP3    H254278   0.473   1.489  15.832
10955TIP3   OH254279   4.047   2.446  14.352
10955TIP3    H154280   4.098   2.433  14.431
10955TIP3    H254281   4.048   2.360  14.308
10956TIP3   OH254282   2.588   4.147   1.433
10956TIP3    H154283   2.512   4.198   1.461
10956TIP3    H254284   2.653   4.213   1.407
10957TIP3   OH254285   5.372   4.300  17.064
10957TIP3    H154286   5.305   4.284  16.997
10957TIP3    H254287   5.446   4.334  17.015
10958TIP3   OH254288   6.688   2.122  14.200
10958TIP3    H154289   6.633   2.168  14.137
10958TIP3    H254290   6.777   2.151  14.179
10959TIP3   OH254291   4.723   0.151  12.568
10959TIP3    H154292   4.754   0.078  12.622
10959TIP3    H254293   4.804   0.194  12.538
10960TIP3   OH254294   2.403   6.103  11.328
10960TIP3    H154295   2.365   6.165  11.391
10960TIP3    H254296   2.413   6.154  11.248
10961TIP3   OH254297   4.368   4.217  12.555
10961TIP3    H154298   4.296   4.162  12.525
10961TIP3    H254299   4.326   4.297  12.586
10962TIP3   OH254300   5.672   3.066  14.822
10962TIP3    H154301   5.758   3.023  14.826
10962TIP3    H254302   5.667   3.118  14.902
10963TIP3   OH254303   0.421   5.341   3.328
10963TIP3    H154304   0.419   5.360   3.234
10963TIP3    H254305   0.329   5.328   3.352
10964TIP3   OH254306   1.150   1.614   5.837
10964TIP3    H154307   1.208   1.538   5.840
10964TIP3    H254308   1.201   1.684   5.877
10965TIP3   OH254309   4.340   0.032   5.844
10965TIP3    H154310   4.389   0.091   5.786
10965TIP3    H254311   4.340   0.077   5.929
10966TIP3   OH254312   6.771   2.530  11.745
10966TIP3    H154313   6.685   2.497  11.772
10966TIP3    H254314   6.768   2.527  11.649
10967TIP3   OH254315   2.271   6.734  15.168
10967TIP3    H154316   2.256   6.757  15.076
10967TIP3    H254317   2.288   6.818  15.211
10968TIP3   OH254318   3.541   4.022  13.155
10968TIP3    H154319   3.621   4.042  13.203
10968TIP3    H254320   3.518   4.103  13.111
10969TIP3   OH254321   6.311   5.106   2.801
10969TIP3    H154322   6.347   5.022   2.830
10969TIP3    H254323   6.225   5.112   2.842
10970TIP3   OH254324   5.968   3.631   0.950
10970TIP3    H154325   5.957   3.546   0.907
10970TIP3    H254326   5.907   3.689   0.903
10971TIP3   OH254327   3.544   1.972  16.544
10971TIP3    H154328   3.462   2.014  16.518
10971TIP3    H254329   3.541   1.885  16.504
10972TIP3   OH254330   4.078   6.116   5.093
10972TIP3    H154331   4.164   6.076   5.089
10972TIP3    H254332   4.065   6.154   5.006
10973TIP3   OH254333   1.502   1.653  15.858
10973TIP3    H154334   1.529   1.742  15.882
10973TIP3    H254335   1.419   1.641  15.905
10974TIP3   OH254336   2.185   2.320  14.382
10974TIP3    H154337   2.195   2.412  14.358
10974TIP3    H254338   2.260   2.276  14.342
10975TIP3   OH254339   6.716   2.875   5.850
10975TIP3    H154340   6.660   2.927   5.792
10975TIP3    H254341   6.727   2.929   5.928
10976TIP3   OH254342   5.144   5.710  14.750
10976TIP3    H154343   5.148   5.644  14.820
10976TIP3    H254344   5.066   5.762  14.770
10977TIP3   OH254345   3.531   5.430  13.424
10977TIP3    H154346   3.592   5.502  13.441
10977TIP3    H254347   3.463   5.469  13.370
10978TIP3   OH254348   2.042   6.511  15.998
10978TIP3    H154349   2.129   6.549  16.000
10978TIP3    H254350   1.988   6.571  16.049
10979TIP3   OH254351   6.043   5.993  11.190
10979TIP3    H154352   6.009   6.082  11.186
10979TIP3    H254353   6.027   5.957  11.103
10980TIP3   OH254354   6.435   2.345  12.987
10980TIP3    H154355   6.481   2.400  13.050
10980TIP3    H254356   6.351   2.326  13.029
10981TIP3   OH254357   5.045   5.643   5.737
10981TIP3    H154358   5.116   5.585   5.764
10981TIP3    H254359   4.994   5.658   5.817
10982TIP3   OH254360   4.035   5.391   5.076
10982TIP3    H154361   4.007   5.482   5.079
10982TIP3    H254362   3.955   5.340   5.088
10983TIP3   OH254363   3.037   1.921   1.340
10983TIP3    H154364   2.979   1.886   1.272
10983TIP3    H254365   3.043   1.852   1.406
10984TIP3   OH254366   4.581   3.084   6.376
10984TIP3    H154367   4.565   3.033   6.455
10984TIP3    H254368   4.600   3.173   6.408
10985TIP3   OH254369   3.388   2.744   4.952
10985TIP3    H154370   3.402   2.717   5.042
10985TIP3    H254371   3.472   2.779   4.924
10986TIP3   OH254372   0.938   4.047  13.298
10986TIP3    H154373   1.002   4.043  13.370
10986TIP3    H254374   0.856   4.071  13.340
10987TIP3   OH254375   0.939   1.692   4.775
10987TIP3    H154376   0.980   1.746   4.843
10987TIP3    H254377   0.860   1.658   4.816
10988TIP3   OH254378   6.077   3.319  13.544
10988TIP3    H154379   6.020   3.340  13.618
10988TIP3    H254380   6.162   3.300  13.583
10989TIP3   OH254381   2.324   4.871  12.217
10989TIP3    H154382   2.404   4.841  12.176
10989TIP3    H254383   2.337   4.855  12.310
10990TIP3   OH254384   3.878   1.818   0.831
10990TIP3    H154385   3.956   1.773   0.799
10990TIP3    H254386   3.885   1.907   0.796
10991TIP3   OH254387   2.837   2.403   4.457
10991TIP3    H154388   2.925   2.408   4.420
10991TIP3    H254389   2.848   2.427   4.549
10992TIP3   OH254390   6.398   3.500  12.755
10992TIP3    H154391   6.388   3.479  12.848
10992TIP3    H254392   6.489   3.478  12.735
10993TIP3   OH254393   0.860   2.616   2.589
10993TIP3    H154394   0.914   2.628   2.667
10993TIP3    H254395   0.857   2.703   2.548
10994TIP3   OH254396   0.724   5.934  14.955
10994TIP3    H154397   0.724   5.842  14.981
10994TIP3    H254398   0.724   5.932  14.859
10995TIP3   OH254399   4.423   4.677  14.628
10995TIP3    H154400   4.459   4.595  14.664
10995TIP3    H254401   4.350   4.648  14.572
10996TIP3   OH254402   3.980   5.044   2.545
10996TIP3    H154403   3.942   5.088   2.620
10996TIP3    H254404   3.905   5.020   2.490
10997TIP3   OH254405   3.004   3.470   1.222
10997TIP3    H154406   3.016   3.482   1.316
10997TIP3    H254407   3.072   3.407   1.198
10998TIP3   OH254408   0.034   0.994  14.197
10998TIP3    H154409   0.049   1.053  14.271
10998TIP3    H254410   0.048   1.048  14.120
10999TIP3   OH254411   3.410   1.912  10.920
10999TIP3    H154412   3.434   2.000  10.948
10999TIP3    H254413   3.480   1.856  10.952
11000TIP3   OH254414   4.067   3.709   3.796
11000TIP3    H154415   3.998   3.665   3.748
11000TIP3    H254416   4.022   3.772   3.852
11001TIP3   OH254417   3.398   2.597   3.432
11001TIP3    H154418   3.311   2.616   3.468
11001TIP3    H254419   3.430   2.524   3.484
11002TIP3   OH254420   2.267   3.861  13.742
11002TIP3    H154421   2.205   3.793  13.718
11002TIP3    H254422   2.351   3.816  13.747
11003TIP3   OH254423   6.045   4.533   1.376
11003TIP3    H154424   6.091   4.464   1.329
11003TIP3    H254425   6.059   4.511   1.468
11004TIP3   OH254426   3.848   2.610  13.357
11004TIP3    H154427   3.937   2.638  13.338
11004TIP3    H254428   3.804   2.613  13.272
11005TIP3   OH254429   5.179   5.485   6.101
11005TIP3    H154430   5.226   5.522   6.025
11005TIP3    H254431   5.155   5.561   6.154
11006TIP3   OH254432   4.773   2.510  16.131
11006TIP3    H154433   4.712   2.550  16.068
11006TIP3    H254434   4.842   2.575  16.142
11007TIP3   OH254435   1.392   5.096  13.150
11007TIP3    H154436   1.380   5.142  13.233
11007TIP3    H254437   1.325   5.027  13.151
11008TIP3   OH254438   4.496   2.671   5.899
11008TIP3    H154439   4.456   2.710   5.822
11008TIP3    H254440   4.541   2.744   5.942
11009TIP3   OH254441   6.144   0.063   6.476
11009TIP3    H154442   6.209   0.035   6.413
11009TIP3    H254443   6.126  -0.014   6.530
11010TIP3   OH254444   3.026   3.280   4.389
11010TIP3    H154445   2.934   3.292   4.410
11010TIP3    H254446   3.065   3.367   4.398
11011TIP3   OH254447   6.692   6.033  11.223
11011TIP3    H154448   6.653   5.955  11.263
11011TIP3    H254449   6.763   5.999  11.169
11012TIP3   OH254450   2.830   0.334  11.473
11012TIP3    H154451   2.739   0.361  11.461
11012TIP3    H254452   2.851   0.359  11.564
11013TIP3   OH254453   4.689   2.167   2.744
11013TIP3    H154454   4.728   2.168   2.657
11013TIP3    H254455   4.620   2.100   2.737
11014TIP3   OH254456   1.351   6.330  14.285
11014TIP3    H154457   1.433   6.377  14.297
11014TIP3    H254458   1.321   6.311  14.374
11015TIP3   OH254459   1.243   5.098  16.379
11015TIP3    H154460   1.154   5.069  16.360
11015TIP3    H254461   1.239   5.134  16.467
11016TIP3   OH254462   3.824   0.624   5.178
11016TIP3    H154463   3.765   0.564   5.133
11016TIP3    H254464   3.857   0.575   5.252
11017TIP3   OH254465   2.579   0.291  15.252
11017TIP3    H154466   2.541   0.332  15.174
11017TIP3    H254467   2.604   0.204  15.223
11018TIP3   OH254468   2.004   1.090  15.461
11018TIP3    H154469   2.059   1.168  15.465
11018TIP3    H254470   2.021   1.045  15.544
11019TIP3   OH254471   2.202   0.245   1.225
11019TIP3    H154472   2.256   0.324   1.219
11019TIP3    H254473   2.186   0.234   1.319
11020TIP3   OH254474   6.564   1.264   3.365
11020TIP3    H154475   6.540   1.288   3.276
11020TIP3    H254476   6.561   1.169   3.366
11021TIP3   OH254477   2.619   2.481  15.674
11021TIP3    H154478   2.658   2.564  15.701
11021TIP3    H254479   2.658   2.415  15.732
11022TIP3   OH254480   5.009   5.030  14.890
11022TIP3    H154481   5.075   5.096  14.913
11022TIP3    H254482   5.019   5.019  14.795
11023TIP3   OH254483   0.038   3.940   1.624
11023TIP3    H154484   0.088   4.010   1.581
11023TIP3    H254485  -0.051   3.974   1.628
11024TIP3   OH254486   5.851   4.230   4.387
11024TIP3    H154487   5.900   4.216   4.468
11024TIP3    H254488   5.853   4.325   4.373
11025TIP3   OH254489   1.972   1.812  17.150
11025TIP3    H154490   2.018   1.831  17.068
11025TIP3    H254491   1.893   1.766  17.123
11026TIP3   OH254492   6.182   4.474   2.299
11026TIP3    H154493   6.226   4.405   2.349
11026TIP3    H254494   6.135   4.526   2.364
11027TIP3   OH254495   6.729   0.422   4.252
11027TIP3    H154496   6.669   0.350   4.236
11027TIP3    H254497   6.689   0.497   4.208
11028TIP3   OH254498   1.442   0.727   5.797
11028TIP3    H154499   1.480   0.803   5.840
11028TIP3    H254500   1.388   0.686   5.865
11029TIP3   OH254501   1.069   5.506   0.449
11029TIP3    H154502   0.996   5.557   0.484
11029TIP3    H254503   1.028   5.428   0.411
11030TIP3   OH254504   2.961   5.824  14.639
11030TIP3    H154505   2.955   5.887  14.710
11030TIP3    H254506   2.884   5.769  14.649
11031TIP3   OH254507   6.464   6.229   2.669
11031TIP3    H154508   6.552   6.251   2.700
11031TIP3    H254509   6.426   6.178   2.741
11032TIP3   OH254510   4.153   0.930  16.420
11032TIP3    H154511   4.116   1.003  16.371
11032TIP3    H254512   4.151   0.856  16.359
11033TIP3   OH254513   3.619   2.992  11.381
11033TIP3    H154514   3.580   2.909  11.353
11033TIP3    H254515   3.671   3.020  11.305
11034TIP3   OH254516   2.375   4.259  14.694
11034TIP3    H154517   2.365   4.211  14.776
11034TIP3    H254518   2.386   4.190  14.628
11035TIP3   OH254519   3.069   1.646  14.909
11035TIP3    H154520   3.013   1.574  14.938
11035TIP3    H254521   3.115   1.611  14.833
11036TIP3   OH254522   0.666   1.472   5.826
11036TIP3    H154523   0.724   1.395   5.821
11036TIP3    H254524   0.724   1.543   5.853
11037TIP3   OH254525   3.723   3.527  16.184
11037TIP3    H154526   3.640   3.546  16.140
11037TIP3    H254527   3.720   3.579  16.264
11038TIP3   OH254528   1.640   6.251   1.806
11038TIP3    H154529   1.632   6.346   1.816
11038TIP3    H254530   1.550   6.219   1.816
11039TIP3   OH254531   2.055   2.065   6.044
11039TIP3    H154532   1.979   2.037   6.095
11039TIP3    H254533   2.077   1.990   5.989
11040TIP3   OH254534   1.244   4.873  12.312
11040TIP3    H154535   1.166   4.925  12.294
11040TIP3    H254536   1.297   4.929  12.369
11041TIP3   OH254537   0.057   6.491  15.650
11041TIP3    H154538   0.038   6.541  15.729
11041TIP3    H254539   0.055   6.400  15.679
11042TIP3   OH254540   3.219   3.174  15.230
11042TIP3    H154541   3.144   3.135  15.186
11042TIP3    H254542   3.211   3.268  15.213
11043TIP3   OH254543   6.321   5.878  15.914
11043TIP3    H154544   6.403   5.916  15.882
11043TIP3    H254545   6.346   5.832  15.994
11044TIP3   OH254546   2.915   1.074  13.289
11044TIP3    H154547   2.960   0.990  13.279
11044TIP3    H254548   2.930   1.099  13.380
11045TIP3   OH254549   0.431   1.250  11.567
11045TIP3    H154550   0.359   1.305  11.599
11045TIP3    H254551   0.507   1.307  11.570
11046TIP3   OH254552   0.725   5.487   2.574
11046TIP3    H154553   0.743   5.549   2.644
11046TIP3    H254554   0.718   5.402   2.618
11047TIP3   OH254555   0.750   5.435   3.721
11047TIP3    H154556   0.772   5.362   3.663
11047TIP3    H254557   0.683   5.484   3.674
11048TIP3   OH254558   6.492   4.583  13.434
11048TIP3    H154559   6.471   4.503  13.481
11048TIP3    H254560   6.467   4.565  13.343
11049TIP3   OH254561   0.031   3.067   2.020
11049TIP3    H154562  -0.038   3.130   2.044
11049TIP3    H254563  -0.016   2.998   1.972
11050TIP3   OH254564   2.784   3.494  14.884
11050TIP3    H154565   2.735   3.508  14.802
11050TIP3    H254566   2.759   3.569  14.939
11051TIP3   OH254567   3.980   4.024  13.533
11051TIP3    H154568   3.995   3.990  13.621
11051TIP3    H254569   3.911   4.090  13.545
11052TIP3   OH254570   3.623   1.590   0.112
11052TIP3    H154571   3.689   1.659   0.116
11052TIP3    H254572   3.541   1.633   0.137
11053TIP3   OH254573   5.155   3.532   6.210
11053TIP3    H154574   5.176   3.443   6.240
11053TIP3    H254575   5.101   3.569   6.279
11054TIP3   OH254576   4.361   1.730  15.132
11054TIP3    H154577   4.437   1.788  15.145
11054TIP3    H254578   4.376   1.658  15.193
11055TIP3   OH254579   1.576   0.507   1.811
11055TIP3    H154580   1.531   0.545   1.887
11055TIP3    H254581   1.631   0.577   1.778
11056TIP3   OH254582   4.555   5.491   0.264
11056TIP3    H154583   4.530   5.582   0.279
11056TIP3    H254584   4.476   5.440   0.281
11057TIP3   OH254585   4.454   0.037  12.883
11057TIP3    H154586   4.537   0.047  12.929
11057TIP3    H254587   4.388   0.059  12.949
11058TIP3   OH254588   5.613   5.280   3.927
11058TIP3    H154589   5.600   5.186   3.940
11058TIP3    H254590   5.584   5.297   3.838
11059TIP3   OH254591   1.259   3.154  15.543
11059TIP3    H154592   1.211   3.195  15.615
11059TIP3    H254593   1.192   3.137  15.476
11060TIP3   OH254594   4.037   3.710  17.221
11060TIP3    H154595   4.047   3.730  17.128
11060TIP3    H254596   4.120   3.736  17.260
11061TIP3   OH254597   2.748   2.902   3.067
11061TIP3    H154598   2.735   2.887   3.161
11061TIP3    H254599   2.767   2.815   3.031
11062TIP3   OH254600   1.181   0.357   0.744
11062TIP3    H154601   1.263   0.311   0.757
11062TIP3    H254602   1.118   0.289   0.720
11063TIP3   OH254603   3.873   3.616   2.094
11063TIP3    H154604   3.885   3.677   2.167
11063TIP3    H254605   3.960   3.609   2.054
11064TIP3   OH254606   5.358   4.163  11.984
11064TIP3    H154607   5.311   4.110  12.048
11064TIP3    H254608   5.443   4.121  11.976
11065TIP3   OH254609   2.782   0.145   3.867
11065TIP3    H154610   2.829   0.199   3.931
11065TIP3    H254611   2.689   0.166   3.881
11066TIP3   OH254612   3.926   3.149  13.989
11066TIP3    H154613   3.868   3.077  13.966
11066TIP3    H254614   4.014   3.115  13.973
11067TIP3   OH254615   6.575   3.700  16.345
11067TIP3    H154616   6.500   3.689  16.404
11067TIP3    H254617   6.582   3.617  16.298
11068TIP3   OH254618   0.903   4.538  16.340
11068TIP3    H154619   0.920   4.546  16.434
11068TIP3    H254620   0.917   4.445  16.321
11069TIP3   OH254621   3.767   5.272  12.787
11069TIP3    H154622   3.829   5.220  12.736
11069TIP3    H254623   3.784   5.247  12.878
11070TIP3   OH254624   2.798   5.161  14.648
11070TIP3    H154625   2.722   5.121  14.691
11070TIP3    H254626   2.770   5.176  14.558
11071TIP3   OH254627   2.242   2.125   5.467
11071TIP3    H154628   2.197   2.207   5.489
11071TIP3    H254629   2.323   2.153   5.423
11072TIP3   OH254630   2.896   3.691  15.769
11072TIP3    H154631   2.867   3.615  15.719
11072TIP3    H254632   2.943   3.744  15.705
11073TIP3   OH254633   2.303   4.550  12.118
11073TIP3    H154634   2.256   4.581  12.040
11073TIP3    H254635   2.394   4.579  12.105
11074TIP3   OH254636   5.678   0.659  12.268
11074TIP3    H154637   5.767   0.671  12.235
11074TIP3    H254638   5.622   0.695  12.199
11075TIP3   OH254639   1.640   4.175  12.603
11075TIP3    H154640   1.565   4.118  12.585
11075TIP3    H254641   1.648   4.174  12.699
11076TIP3   OH254642   4.908   3.618   1.496
11076TIP3    H154643   4.951   3.676   1.559
11076TIP3    H254644   4.834   3.670   1.464
11077TIP3   OH254645   2.288   2.390   4.440
11077TIP3    H154646   2.361   2.369   4.382
11077TIP3    H254647   2.327   2.393   4.528
11078TIP3   OH254648   1.865   5.920  14.599
11078TIP3    H154649   1.859   5.942  14.505
11078TIP3    H254650   1.786   5.870  14.616
11079TIP3   OH254651   6.145   0.206  14.836
11079TIP3    H154652   6.074   0.145  14.856
11079TIP3    H254653   6.115   0.253  14.758
11080TIP3   OH254654   5.026   0.005   2.491
11080TIP3    H154655   5.065   0.009   2.404
11080TIP3    H254656   5.080  -0.057   2.540
11081TIP3   OH254657   0.293   4.489   1.743
11081TIP3    H154658   0.351   4.432   1.693
11081TIP3    H254659   0.230   4.522   1.678
11082TIP3   OH254660   6.279   4.859   4.596
11082TIP3    H154661   6.367   4.885   4.624
11082TIP3    H254662   6.291   4.772   4.558
11083TIP3   OH254663   6.452   1.661   2.314
11083TIP3    H154664   6.365   1.625   2.331
11083TIP3    H254665   6.438   1.729   2.248
11084TIP3   OH254666   0.547   5.798   5.131
11084TIP3    H154667   0.521   5.710   5.161
11084TIP3    H254668   0.519   5.801   5.040
11085TIP3   OH254669   4.696   3.004  12.727
11085TIP3    H154670   4.701   2.908  12.731
11085TIP3    H254671   4.629   3.026  12.792
11086TIP3   OH254672   4.291   1.047  16.920
11086TIP3    H154673   4.301   1.141  16.933
11086TIP3    H254674   4.370   1.009  16.960
11087TIP3   OH254675   6.783   3.438  15.770
11087TIP3    H154676   6.724   3.413  15.841
11087TIP3    H254677   6.769   3.532  15.760
11088TIP3   OH254678   5.398   5.503   4.430
11088TIP3    H154679   5.331   5.451   4.474
11088TIP3    H254680   5.473   5.502   4.489
11089TIP3   OH254681   5.656   0.900   5.647
11089TIP3    H154682   5.665   0.807   5.669
11089TIP3    H254683   5.563   0.918   5.659
11090TIP3   OH254684   4.170   0.499   1.646
11090TIP3    H154685   4.087   0.493   1.599
11090TIP3    H254686   4.235   0.467   1.583
11091TIP3   OH254687   5.916   1.485   3.707
11091TIP3    H154688   5.854   1.519   3.642
11091TIP3    H254689   5.976   1.430   3.656
11092TIP3   OH254690   2.764   2.459   4.206
11092TIP3    H154691   2.758   2.479   4.299
11092TIP3    H254692   2.710   2.381   4.194
11093TIP3   OH254693   1.697   3.784   3.989
11093TIP3    H154694   1.790   3.806   3.988
11093TIP3    H254695   1.694   3.693   3.959
11094TIP3   OH254696   2.167   2.748  14.651
11094TIP3    H154697   2.170   2.725  14.743
11094TIP3    H254698   2.087   2.800  14.642
11095TIP3   OH254699   4.443   3.760   3.941
11095TIP3    H154700   4.440   3.695   4.011
11095TIP3    H254701   4.368   3.817   3.959
11096TIP3   OH254702   1.081   3.234  11.847
11096TIP3    H154703   1.039   3.311  11.810
11096TIP3    H254704   1.011   3.168  11.847
11097TIP3   OH254705   2.774   4.451   3.505
11097TIP3    H154706   2.747   4.474   3.416
11097TIP3    H254707   2.733   4.365   3.520
11098TIP3   OH254708   1.797   2.124  11.514
11098TIP3    H154709   1.891   2.139  11.499
11098TIP3    H254710   1.786   2.029  11.504
11099TIP3   OH254711   4.133   3.992   4.929
11099TIP3    H154712   4.140   3.992   5.025
11099TIP3    H254713   4.087   4.073   4.908
11100TIP3   OH254714   1.700   2.933   4.133
11100TIP3    H154715   1.761   2.965   4.200
11100TIP3    H254716   1.713   2.838   4.132
11101TIP3   OH254717   4.353   4.443  12.824
11101TIP3    H154718   4.319   4.476  12.907
11101TIP3    H254719   4.376   4.352  12.842
11102TIP3   OH254720   1.053   0.782  14.066
11102TIP3    H154721   0.959   0.776  14.079
11102TIP3    H254722   1.081   0.855  14.121
11103TIP3   OH254723   4.174   3.688   4.513
11103TIP3    H154724   4.105   3.745   4.547
11103TIP3    H254725   4.171   3.701   4.418
11104TIP3   OH254726   6.060   6.774   2.606
11104TIP3    H154727   6.019   6.706   2.659
11104TIP3    H254728   6.086   6.730   2.525
11105TIP3   OH254729   3.401   6.735   0.806
11105TIP3    H154730   3.451   6.754   0.885
11105TIP3    H254731   3.321   6.788   0.814
11106TIP3   OH254732   6.309   2.082  15.354
11106TIP3    H154733   6.380   2.130  15.397
11106TIP3    H254734   6.300   2.002  15.406
11107TIP3   OH254735   0.074   5.564  13.946
11107TIP3    H154736   0.045   5.485  13.990
11107TIP3    H254737   0.165   5.545  13.920
11108TIP3   OH254738   2.231   2.491  11.543
11108TIP3    H154739   2.265   2.574  11.512
11108TIP3    H254740   2.275   2.476  11.627
11109TIP3   OH254741   5.005   5.993  13.174
11109TIP3    H154742   5.031   5.909  13.135
11109TIP3    H254743   5.011   6.056  13.101
11110TIP3   OH254744   4.661   4.880  11.609
11110TIP3    H154745   4.576   4.876  11.567
11110TIP3    H254746   4.722   4.845  11.544
11111TIP3   OH254747   0.235   5.835  14.239
11111TIP3    H154748   0.206   5.858  14.151
11111TIP3    H254749   0.215   5.742  14.247
11112TIP3   OH254750   3.090   1.741   0.637
11112TIP3    H154751   3.148   1.669   0.660
11112TIP3    H254752   3.103   1.806   0.707
11113TIP3   OH254753   2.964   1.930  16.018
11113TIP3    H154754   2.931   1.861  15.960
11113TIP3    H254755   3.025   1.980  15.964
11114TIP3   OH254756   2.811   5.796  15.039
11114TIP3    H154757   2.786   5.886  15.061
11114TIP3    H254758   2.774   5.782  14.952
11115TIP3   OH254759   6.404   0.103  15.284
11115TIP3    H154760   6.374   0.076  15.198
11115TIP3    H254761   6.492   0.138  15.270
11116TIP3   OH254762   1.405   3.485  15.653
11116TIP3    H154763   1.472   3.535  15.607
11116TIP3    H254764   1.367   3.428  15.587
11117TIP3   OH254765   4.196   4.044  16.942
11117TIP3    H154766   4.160   4.130  16.923
11117TIP3    H254767   4.213   4.005  16.856
11118TIP3   OH254768   6.525   4.437  16.009
11118TIP3    H154769   6.439   4.449  15.970
11118TIP3    H254770   6.507   4.415  16.101
11119TIP3   OH254771   4.148   1.473  13.316
11119TIP3    H154772   4.117   1.383  13.322
11119TIP3    H254773   4.163   1.487  13.223
11120TIP3   OH254774   0.193   2.565   4.725
11120TIP3    H154775   0.145   2.482   4.723
11120TIP3    H254776   0.181   2.603   4.638
11121TIP3   OH254777   0.970   2.271   2.012
11121TIP3    H154778   0.944   2.208   2.080
11121TIP3    H254779   0.989   2.216   1.936
11122TIP3   OH254780   0.713   4.473   5.126
11122TIP3    H154781   0.770   4.425   5.066
11122TIP3    H254782   0.674   4.405   5.180
11123TIP3   OH254783   1.812   4.315   4.704
11123TIP3    H154784   1.716   4.311   4.697
11123TIP3    H254785   1.830   4.408   4.719
11124TIP3   OH254786   5.942   1.011  12.123
11124TIP3    H154787   5.939   1.078  12.055
11124TIP3    H254788   5.850   0.998  12.147
11125TIP3   OH254789   0.612   5.148   3.745
11125TIP3    H154790   0.668   5.165   3.670
11125TIP3    H254791   0.655   5.192   3.818
11126TIP3   OH254792   0.991   3.960  15.716
11126TIP3    H154793   1.042   3.906  15.777
11126TIP3    H254794   0.975   4.041  15.764
11127TIP3   OH254795   6.350   0.043  12.107
11127TIP3    H154796   6.278   0.099  12.136
11127TIP3    H254797   6.376  -0.006  12.184
11128TIP3   OH254798   5.384   0.139  11.752
11128TIP3    H154799   5.374   0.232  11.732
11128TIP3    H254800   5.424   0.137  11.839
11129TIP3   OH254801   2.202   0.567   1.224
11129TIP3    H154802   2.228   0.630   1.157
11129TIP3    H254803   2.208   0.616   1.306
11130TIP3   OH254804   6.176   4.211   4.198
11130TIP3    H154805   6.117   4.136   4.190
11130TIP3    H254806   6.191   4.220   4.292
11131TIP3   OH254807   5.125   4.099  14.668
11131TIP3    H154808   5.204   4.092  14.723
11131TIP3    H254809   5.094   4.188  14.684
11132TIP3   OH254810   1.999   5.144   5.845
11132TIP3    H154811   2.005   5.061   5.891
11132TIP3    H254812   2.060   5.136   5.772
11133TIP3   OH254813   2.784   3.141  15.859
11133TIP3    H154814   2.730   3.065  15.878
11133TIP3    H254815   2.850   3.109  15.797
11134TIP3   OH254816   1.766   3.589   2.343
11134TIP3    H154817   1.786   3.508   2.391
11134TIP3    H254818   1.848   3.612   2.299
11135TIP3   OH254819   6.214   1.277  14.825
11135TIP3    H154820   6.140   1.217  14.831
11135TIP3    H254821   6.188   1.353  14.877
11136TIP3   OH254822   1.176   6.708   5.647
11136TIP3    H154823   1.218   6.766   5.583
11136TIP3    H254824   1.087   6.742   5.656
11137TIP3   OH254825   5.067   1.024   1.901
11137TIP3    H154826   5.137   1.067   1.950
11137TIP3    H254827   5.105   1.008   1.814
11138TIP3   OH254828   2.251   5.619  16.272
11138TIP3    H154829   2.265   5.710  16.247
11138TIP3    H254830   2.182   5.587  16.214
11139TIP3   OH254831   5.073   4.371   0.586
11139TIP3    H154832   5.088   4.427   0.509
11139TIP3    H254833   5.101   4.284   0.557
11140TIP3   OH254834   4.630   0.645  15.912
11140TIP3    H154835   4.695   0.708  15.944
11140TIP3    H254836   4.560   0.647  15.978
11141TIP3   OH254837   3.421   1.933   3.192
11141TIP3    H154838   3.502   1.899   3.153
11141TIP3    H254839   3.376   1.855   3.226
11142TIP3   OH254840   6.198   2.240  11.649
11142TIP3    H154841   6.140   2.305  11.688
11142TIP3    H254842   6.185   2.249  11.555
11143TIP3   OH254843   2.155   5.868   1.938
11143TIP3    H154844   2.230   5.875   1.880
11143TIP3    H254845   2.081   5.848   1.881
11144TIP3   OH254846   5.148   1.292  13.569
11144TIP3    H154847   5.220   1.324  13.623
11144TIP3    H254848   5.073   1.288  13.628
11145TIP3   OH254849   0.573   6.214  12.984
11145TIP3    H154850   0.588   6.300  13.022
11145TIP3    H254851   0.594   6.153  13.055
11146TIP3   OH254852   5.871   2.586  11.680
11146TIP3    H154853   5.908   2.500  11.664
11146TIP3    H254854   5.828   2.610  11.598
11147TIP3   OH254855   6.464   4.455   2.834
11147TIP3    H154856   6.493   4.514   2.903
11147TIP3    H254857   6.371   4.476   2.822
11148TIP3   OH254858   3.717   1.835  11.793
11148TIP3    H154859   3.737   1.806  11.882
11148TIP3    H254860   3.721   1.754  11.741
11149TIP3   OH254861   0.118   3.978  12.756
11149TIP3    H154862   0.164   4.046  12.707
11149TIP3    H254863   0.158   3.980  12.843
11150TIP3   OH254864   1.753   3.502  11.394
11150TIP3    H154865   1.761   3.419  11.443
11150TIP3    H254866   1.803   3.487  11.314
11151TIP3   OH254867   0.877   1.690   5.853
11151TIP3    H154868   0.962   1.665   5.815
11151TIP3    H254869   0.898   1.720   5.941
11152TIP3   OH254870   2.297   6.217   2.518
11152TIP3    H154871   2.386   6.190   2.539
11152TIP3    H254872   2.298   6.228   2.423
11153TIP3   OH254873   4.376   2.200  11.501
11153TIP3    H154874   4.392   2.228  11.411
11153TIP3    H254875   4.424   2.262  11.555
11154TIP3   OH254876   5.416   4.696   4.126
11154TIP3    H154877   5.394   4.733   4.040
11154TIP3    H254878   5.362   4.745   4.188
11155TIP3   OH254879   5.332   0.381  13.551
11155TIP3    H154880   5.307   0.474  13.558
11155TIP3    H254881   5.301   0.355  13.464
11156TIP3   OH254882   0.746   1.403  13.086
11156TIP3    H154883   0.654   1.380  13.102
11156TIP3    H254884   0.790   1.319  13.076
11157TIP3   OH254885   6.216   2.359   2.731
11157TIP3    H154886   6.172   2.416   2.669
11157TIP3    H254887   6.211   2.405   2.815
11158TIP3   OH254888   3.784   1.124  11.780
11158TIP3    H154889   3.865   1.171  11.798
11158TIP3    H254890   3.729   1.141  11.855
11159TIP3   OH254891   3.126   6.518  13.665
11159TIP3    H154892   3.040   6.562  13.663
11159TIP3    H254893   3.145   6.507  13.758
11160TIP3   OH254894   3.619   3.056   2.462
11160TIP3    H154895   3.626   3.150   2.476
11160TIP3    H254896   3.702   3.021   2.492
11161TIP3   OH254897   2.851   0.140  16.272
11161TIP3    H154898   2.756   0.135  16.275
11161TIP3    H254899   2.878   0.059  16.230
11162TIP3   OH254900   6.000   0.048  11.318
11162TIP3    H154901   6.052   0.100  11.380
11162TIP3    H254902   5.965   0.113  11.257
11163TIP3   OH254903   1.042   4.199   1.302
11163TIP3    H154904   0.968   4.159   1.346
11163TIP3    H254905   1.119   4.164   1.347
11164TIP3   OH254906   3.962   0.077  15.380
11164TIP3    H154907   3.868   0.058  15.379
11164TIP3    H254908   3.967   0.172  15.368
11165TIP3   OH254909   1.262   5.292  11.433
11165TIP3    H154910   1.215   5.258  11.356
11165TIP3    H254911   1.194   5.337  11.484
11166TIP3   OH254912   0.014   4.994  15.756
11166TIP3    H154913   0.046   4.904  15.744
11166TIP3    H254914  -0.067   4.984  15.805
11167TIP3   OH254915   4.404   6.650   3.755
11167TIP3    H154916   4.324   6.606   3.727
11167TIP3    H254917   4.433   6.600   3.832
11168TIP3   OH254918   6.514   6.425   4.580
11168TIP3    H154919   6.510   6.508   4.532
11168TIP3    H254920   6.450   6.434   4.650
11169TIP3   OH254921   2.908   0.173  12.388
11169TIP3    H154922   2.984   0.166  12.331
11169TIP3    H254923   2.913   0.096  12.445
11170TIP3   OH254924   5.950   3.341   4.239
11170TIP3    H154925   5.890   3.291   4.184
11170TIP3    H254926   6.025   3.283   4.253
11171TIP3   OH254927   5.922   0.971  13.775
11171TIP3    H154928   5.858   1.012  13.834
11171TIP3    H254929   5.974   0.914  13.831
11172TIP3   OH254930   6.471   0.573   4.364
11172TIP3    H154931   6.383   0.608   4.350
11172TIP3    H254932   6.499   0.611   4.447
11173TIP3   OH254933   5.425   5.540   0.697
11173TIP3    H154934   5.442   5.622   0.744
11173TIP3    H254935   5.408   5.476   0.766
11174TIP3   OH254936   5.666   0.652   1.918
11174TIP3    H154937   5.645   0.562   1.944
11174TIP3    H254938   5.725   0.684   1.986
11175TIP3   OH254939   4.605   4.264   1.719
11175TIP3    H154940   4.596   4.309   1.635
11175TIP3    H254941   4.697   4.278   1.742
11176TIP3   OH254942   3.039   3.018  11.684
11176TIP3    H154943   3.058   3.085  11.750
11176TIP3    H254944   2.951   2.987  11.706
11177TIP3   OH254945   5.222   2.310  15.185
11177TIP3    H154946   5.301   2.349  15.223
11177TIP3    H254947   5.232   2.322  15.091
11178TIP3   OH254948   0.699   1.715   3.895
11178TIP3    H154949   0.677   1.801   3.859
11178TIP3    H254950   0.736   1.734   3.981
11179TIP3   OH254951   2.890   3.999   2.210
11179TIP3    H154952   2.814   3.995   2.151
11179TIP3    H254953   2.853   4.024   2.295
11180TIP3   OH254954   5.880   4.329  17.229
11180TIP3    H154955   5.815   4.305  17.162
11180TIP3    H254956   5.964   4.311  17.188
11181TIP3   OH254957   4.404   0.956  12.133
11181TIP3    H154958   4.447   0.889  12.080
11181TIP3    H254959   4.475   1.014  12.160
11182TIP3   OH254960   0.848   2.720   5.588
11182TIP3    H154961   0.841   2.689   5.678
11182TIP3    H254962   0.899   2.801   5.595
11183TIP3   OH254963   5.727   0.673   4.453
11183TIP3    H154964   5.710   0.647   4.544
11183TIP3    H254965   5.706   0.594   4.402
11184TIP3   OH254966   2.860   0.690   5.444
11184TIP3    H154967   2.904   0.610   5.415
11184TIP3    H254968   2.807   0.717   5.369
11185TIP3   OH254969   5.137   3.639   4.908
11185TIP3    H154970   5.099   3.573   4.850
11185TIP3    H254971   5.186   3.697   4.850
11186TIP3   OH254972   2.458   2.575  13.419
11186TIP3    H154973   2.533   2.538  13.467
11186TIP3    H254974   2.388   2.581  13.485
11187TIP3   OH254975   3.154   2.733   3.065
11187TIP3    H154976   3.127   2.793   3.134
11187TIP3    H254977   3.071   2.704   3.025
11188TIP3   OH254978   4.098   5.654  16.036
11188TIP3    H154979   4.034   5.592  16.000
11188TIP3    H254980   4.052   5.738  16.037
11189TIP3   OH254981   3.117   3.128  15.527
11189TIP3    H154982   3.155   3.207  15.490
11189TIP3    H254983   3.060   3.093  15.458
11190TIP3   OH254984   5.641   4.693  17.230
11190TIP3    H154985   5.622   4.786  17.228
11190TIP3    H254986   5.682   4.675  17.145
11191TIP3   OH254987   1.381   6.526   6.076
11191TIP3    H154988   1.335   6.588   6.019
11191TIP3    H254989   1.416   6.460   6.016
11192TIP3   OH254990   2.204   4.758   1.885
11192TIP3    H154991   2.295   4.782   1.903
11192TIP3    H254992   2.206   4.719   1.798
11193TIP3   OH254993   1.385   3.826  17.122
11193TIP3    H154994   1.451   3.875  17.073
11193TIP3    H254995   1.312   3.816  17.062
11194TIP3   OH254996   1.602   1.188   1.552
11194TIP3    H154997   1.580   1.199   1.460
11194TIP3    H254998   1.609   1.277   1.586
11195TIP3   OH254999   4.487   5.480  15.477
11195TIP3    H155000   4.502   5.386  15.487
11195TIP3    H255001   4.434   5.488  15.398
11196TIP3   OH255002   2.562   0.386  11.467
11196TIP3    H155003   2.495   0.421  11.526
11196TIP3    H255004   2.529   0.300  11.442
11197TIP3   OH255005   1.205   5.865  11.065
11197TIP3    H155006   1.232   5.938  11.009
11197TIP3    H255007   1.173   5.798  11.004
11198TIP3   OH255008   5.052   1.073   1.076
11198TIP3    H155009   5.102   1.133   1.131
11198TIP3    H255010   5.039   0.996   1.130
11199TIP3   OH255011   0.124   2.009  15.246
11199TIP3    H155012   0.159   1.978  15.329
11199TIP3    H255013   0.080   1.932  15.209
11200TIP3   OH255014   1.955   5.652  12.785
11200TIP3    H155015   1.925   5.571  12.745
11200TIP3    H255016   2.003   5.698  12.716
11201TIP3   OH255017   6.696   5.608   0.432
11201TIP3    H155018   6.787   5.635   0.435
11201TIP3    H255019   6.700   5.514   0.411
11202TIP3   OH255020   0.627   2.058   2.633
11202TIP3    H155021   0.574   2.022   2.562
11202TIP3    H255022   0.606   2.003   2.709
11203TIP3   OH255023   2.441   5.836  14.525
11203TIP3    H155024   2.477   5.755  14.489
11203TIP3    H255025   2.518   5.888  14.549
11204TIP3   OH255026   0.534   4.140  16.768
11204TIP3    H155027   0.479   4.215  16.790
11204TIP3    H255028   0.604   4.143  16.834
11205TIP3   OH255029   1.131   4.739   1.915
11205TIP3    H155030   1.078   4.748   1.995
11205TIP3    H255031   1.136   4.827   1.880
11206TIP3   OH255032   2.029   5.630  16.894
11206TIP3    H155033   2.087   5.556  16.877
11206TIP3    H255034   2.080   5.707  16.869
11207TIP3   OH255035   3.932   4.754   5.550
11207TIP3    H155036   3.859   4.792   5.599
11207TIP3    H255037   4.010   4.793   5.590
11208TIP3   OH255038   0.556   1.490  14.456
11208TIP3    H155039   0.615   1.487  14.381
11208TIP3    H255040   0.469   1.504  14.417
11209TIP3   OH255041   3.872   1.740   4.180
11209TIP3    H155042   3.789   1.696   4.160
11209TIP3    H255043   3.855   1.832   4.160
11210TIP3   OH255044   0.954   0.843   2.775
11210TIP3    H155045   0.862   0.850   2.801
11210TIP3    H255046   0.980   0.756   2.806
11211TIP3   OH255047   4.439   0.522   0.716
11211TIP3    H155048   4.411   0.611   0.740
11211TIP3    H255049   4.404   0.466   0.785
11212TIP3   OH255050   1.869   6.190  15.622
11212TIP3    H155051   1.843   6.278  15.649
11212TIP3    H255052   1.944   6.169  15.678
11213TIP3   OH255053   1.375   3.882   1.559
11213TIP3    H155054   1.351   3.871   1.651
11213TIP3    H255055   1.375   3.793   1.524
11214TIP3   OH255056   2.368   0.417   1.880
11214TIP3    H155057   2.304   0.347   1.893
11214TIP3    H255058   2.400   0.437   1.968
11215TIP3   OH255059   2.577   2.363   0.955
11215TIP3    H155060   2.510   2.295   0.948
11215TIP3    H255061   2.656   2.324   0.918
11216TIP3   OH255062   6.336   0.083  13.185
11216TIP3    H155063   6.416   0.046  13.224
11216TIP3    H255064   6.291   0.008  13.146
11217TIP3   OH255065   1.328   2.090  14.083
11217TIP3    H155066   1.403   2.058  14.134
11217TIP3    H255067   1.294   2.012  14.039
11218TIP3   OH255068   5.423   4.057   1.816
11218TIP3    H155069   5.444   4.148   1.795
11218TIP3    H255070   5.436   4.051   1.911
11219TIP3   OH255071   5.558   0.830  10.774
11219TIP3    H155072   5.651   0.806  10.775
11219TIP3    H255073   5.512   0.747  10.758
11220TIP3   OH255074   1.387   4.034  15.792
11220TIP3    H155075   1.354   4.059  15.705
11220TIP3    H255076   1.388   4.116  15.841
11221TIP3   OH255077   1.959   2.225  13.357
11221TIP3    H155078   1.926   2.159  13.419
11221TIP3    H255079   2.051   2.202  13.346
11222TIP3   OH255080   2.328   6.193   4.274
11222TIP3    H155081   2.302   6.188   4.182
11222TIP3    H255082   2.343   6.101   4.299
11223TIP3   OH255083   3.127   0.536   5.136
11223TIP3    H155084   3.163   0.614   5.094
11223TIP3    H255085   3.044   0.521   5.092
11224TIP3   OH255086   3.529   0.835  10.588
11224TIP3    H155087   3.487   0.918  10.567
11224TIP3    H255088   3.622   0.851  10.576
11225TIP3   OH255089   6.740   4.771  12.377
11225TIP3    H155090   6.744   4.839  12.444
11225TIP3    H255091   6.766   4.815  12.296
11226TIP3   OH255092   5.426   4.626   3.027
11226TIP3    H155093   5.352   4.592   2.977
11226TIP3    H255094   5.426   4.575   3.108
11227TIP3   OH255095   6.615   2.181  11.385
11227TIP3    H155096   6.527   2.204  11.414
11227TIP3    H255097   6.632   2.096  11.425
11228TIP3   OH255098   0.437   4.991  12.348
11228TIP3    H155099   0.360   5.047  12.344
11228TIP3    H255100   0.440   4.948  12.262
11229TIP3   OH255101   2.569   6.618  16.421
11229TIP3    H155102   2.570   6.561  16.344
11229TIP3    H255103   2.498   6.584  16.476
11230TIP3   OH255104   4.573   2.523  15.590
11230TIP3    H155105   4.581   2.440  15.636
11230TIP3    H255106   4.555   2.499  15.499
11231TIP3   OH255107   0.779   2.590   2.907
11231TIP3    H155108   0.862   2.611   2.865
11231TIP3    H255109   0.804   2.533   2.980
11232TIP3   OH255110   4.216   2.893   4.031
11232TIP3    H155111   4.283   2.893   4.100
11232TIP3    H255112   4.150   2.831   4.062
11233TIP3   OH255113   4.918   1.723   5.198
11233TIP3    H155114   4.883   1.729   5.287
11233TIP3    H255115   4.894   1.806   5.157
11234TIP3   OH255116   6.247   4.052   5.777
11234TIP3    H155117   6.250   4.044   5.872
11234TIP3    H255118   6.325   4.007   5.746
11235TIP3   OH255119   4.363   5.391   1.153
11235TIP3    H155120   4.383   5.466   1.209
11235TIP3    H255121   4.268   5.394   1.143
11236TIP3   OH255122   0.550   5.654  13.797
11236TIP3    H155123   0.595   5.629  13.716
11236TIP3    H255124   0.616   5.640  13.866
11237TIP3   OH255125   1.049   2.398  15.062
11237TIP3    H155126   1.036   2.315  15.109
11237TIP3    H255127   0.999   2.462  15.111
11238TIP3   OH255128   4.889   0.580   3.495
11238TIP3    H155129   4.794   0.581   3.507
11238TIP3    H255130   4.903   0.515   3.426
11239TIP3   OH255131   2.272   0.048  11.033
11239TIP3    H155132   2.363   0.048  11.063
11239TIP3    H255133   2.262   0.129  10.984
11240TIP3   OH255134   3.719   5.340   2.364
11240TIP3    H155135   3.667   5.416   2.335
11240TIP3    H255136   3.737   5.358   2.457
11241TIP3   OH255137   0.106   4.636  15.002
11241TIP3    H155138   0.099   4.541  14.988
11241TIP3    H255139   0.049   4.653  15.077
11242TIP3   OH255140   2.595   4.404   6.408
11242TIP3    H155141   2.520   4.446   6.365
11242TIP3    H255142   2.558   4.362   6.485
11243TIP3   OH255143   5.453   1.088   4.977
11243TIP3    H155144   5.492   1.059   4.895
11243TIP3    H255145   5.508   1.162   5.005
11244TIP3   OH255146   0.669   0.518  11.209
11244TIP3    H155147   0.659   0.475  11.124
11244TIP3    H255148   0.755   0.560  11.205
11245TIP3   OH255149   3.817   1.699  14.981
11245TIP3    H155150   3.800   1.731  14.892
11245TIP3    H255151   3.900   1.738  15.006
11246TIP3   OH255152   4.825   6.079  15.819
11246TIP3    H155153   4.731   6.080  15.831
11246TIP3    H255154   4.842   6.149  15.757
11247TIP3   OH255155   4.488   6.463   6.185
11247TIP3    H155156   4.420   6.527   6.204
11247TIP3    H255157   4.442   6.389   6.146
11248TIP3   OH255158   3.249   2.694   2.675
11248TIP3    H155159   3.291   2.621   2.721
11248TIP3    H255160   3.321   2.737   2.630
11249TIP3   OH255161   4.208   4.468   4.489
11249TIP3    H155162   4.249   4.437   4.408
11249TIP3    H255163   4.148   4.538   4.461
11250TIP3   OH255164   0.909   1.032   4.741
11250TIP3    H155165   0.980   1.095   4.749
11250TIP3    H255166   0.901   1.017   4.647
11251TIP3   OH255167   4.093   0.204  14.998
11251TIP3    H155168   4.156   0.153  14.947
11251TIP3    H255169   4.008   0.184  14.958
11252TIP3   OH255170   2.653   3.219  14.669
11252TIP3    H155171   2.564   3.250  14.685
11252TIP3    H255172   2.654   3.192  14.577
11253TIP3   OH255173   2.865   0.421   2.732
11253TIP3    H155174   2.774   0.390   2.737
11253TIP3    H255175   2.911   0.368   2.797
11254TIP3   OH255176   4.571   6.106  15.891
11254TIP3    H155177   4.528   6.092  15.975
11254TIP3    H255178   4.545   6.194  15.865
11255TIP3   OH255179   2.446   3.036  16.445
11255TIP3    H155180   2.405   3.100  16.505
11255TIP3    H255181   2.382   3.026  16.375
11256TIP3   OH255182   5.379   3.867   4.950
11256TIP3    H155183   5.414   3.936   4.894
11256TIP3    H255184   5.378   3.905   5.037
11257TIP3   OH255185   1.431   1.078  13.758
11257TIP3    H155186   1.432   1.064  13.664
11257TIP3    H255187   1.512   1.039  13.789
11258TIP3   OH255188   3.628   5.501   0.734
11258TIP3    H155189   3.568   5.570   0.763
11258TIP3    H255190   3.572   5.427   0.714
11259TIP3   OH255191   5.263   3.721  12.034
11259TIP3    H155192   5.197   3.732  11.966
11259TIP3    H255193   5.336   3.678  11.990
11260TIP3   OH255194   4.666   2.289  13.689
11260TIP3    H155195   4.748   2.254  13.654
11260TIP3    H255196   4.693   2.353  13.755
11261TIP3   OH255197   3.083   1.766   1.711
11261TIP3    H155198   3.144   1.735   1.644
11261TIP3    H255199   3.139   1.785   1.787
11262TIP3   OH255200   1.892   0.763  12.103
11262TIP3    H155201   1.842   0.826  12.051
11262TIP3    H255202   1.890   0.799  12.191
11263TIP3   OH255203   0.601   3.422  16.089
11263TIP3    H155204   0.556   3.454  16.011
11263TIP3    H255205   0.531   3.389  16.145
11264TIP3   OH255206   0.373   4.718   3.080
11264TIP3    H155207   0.358   4.642   3.023
11264TIP3    H255208   0.341   4.793   3.030
11265TIP3   OH255209   5.073   5.869   1.806
11265TIP3    H155210   5.135   5.922   1.756
11265TIP3    H255211   5.117   5.852   1.889
11266TIP3   OH255212   0.044   3.762  17.218
11266TIP3    H155213   0.044   3.828  17.287
11266TIP3    H255214  -0.043   3.722  17.222
11267TIP3   OH255215   1.716   5.238   5.456
11267TIP3    H155216   1.796   5.224   5.404
11267TIP3    H255217   1.646   5.198   5.403
11268TIP3   OH255218   0.876   4.307  16.737
11268TIP3    H155219   0.819   4.353  16.675
11268TIP3    H255220   0.825   4.302  16.818
11269TIP3   OH255221   3.903   4.660  14.370
11269TIP3    H155222   3.908   4.694  14.281
11269TIP3    H255223   3.993   4.659  14.401
11270TIP3   OH255224   6.285   5.635  10.890
11270TIP3    H155225   6.326   5.632  10.976
11270TIP3    H255226   6.278   5.728  10.869
11271TIP3   OH255227   4.566   6.719   5.333
11271TIP3    H155228   4.631   6.751   5.271
11271TIP3    H255229   4.482   6.749   5.298
11272TIP3   OH255230   6.114   3.044   3.553
11272TIP3    H155231   6.143   3.101   3.481
11272TIP3    H255232   6.025   3.074   3.572
11273TIP3   OH255233   5.929   3.010   2.726
11273TIP3    H155234   5.900   3.072   2.793
11273TIP3    H255235   5.904   2.924   2.760
11274TIP3   OH255236   4.706   4.228  11.669
11274TIP3    H155237   4.644   4.196  11.603
11274TIP3    H255238   4.708   4.322  11.657
11275TIP3   OH255239   2.697   6.408   1.047
11275TIP3    H155240   2.620   6.387   1.100
11275TIP3    H255241   2.685   6.500   1.024
11276TIP3   OH255242   1.434   2.801  15.051
11276TIP3    H155243   1.408   2.727  14.997
11276TIP3    H255244   1.506   2.768  15.105
11277TIP3   OH255245   0.329   3.645   2.482
11277TIP3    H155246   0.352   3.658   2.390
11277TIP3    H255247   0.360   3.557   2.503
11278TIP3   OH255248   6.301   2.186   6.712
11278TIP3    H155249   6.239   2.126   6.753
11278TIP3    H255250   6.339   2.136   6.640
11279TIP3   OH255251   6.632   1.524  13.035
11279TIP3    H155252   6.639   1.477  12.952
11279TIP3    H255253   6.561   1.480  13.081
11280TIP3   OH255254   6.106   0.972   4.858
11280TIP3    H155255   6.123   0.928   4.775
11280TIP3    H255256   6.111   1.065   4.838
11281TIP3   OH255257   1.010   1.189   3.829
11281TIP3    H155258   0.937   1.247   3.805
11281TIP3    H255259   1.018   1.197   3.924
11282TIP3   OH255260   6.354   1.972  15.911
11282TIP3    H155261   6.364   2.028  15.988
11282TIP3    H255262   6.430   1.993  15.856
11283TIP3   OH255263   4.358   0.492  15.523
11283TIP3    H155264   4.386   0.425  15.461
11283TIP3    H255265   4.437   0.515  15.571
11284TIP3   OH255266   1.617   4.772   2.083
11284TIP3    H155267   1.662   4.825   2.017
11284TIP3    H255268   1.524   4.778   2.059
11285TIP3   OH255269   3.001   6.336   3.724
11285TIP3    H155270   3.049   6.253   3.719
11285TIP3    H255271   2.911   6.314   3.701
11286TIP3   OH255272   4.832   0.749   2.174
11286TIP3    H155273   4.915   0.751   2.128
11286TIP3    H255274   4.842   0.812   2.245
11287TIP3   OH255275   2.387   0.894  14.977
11287TIP3    H155276   2.476   0.915  14.950
11287TIP3    H255277   2.334   0.966  14.941
11288TIP3   OH255278   1.170   1.116   1.223
11288TIP3    H155279   1.263   1.139   1.214
11288TIP3    H255280   1.123   1.196   1.200
11289TIP3   OH255281   4.175   4.700   0.294
11289TIP3    H155282   4.142   4.654   0.217
11289TIP3    H255283   4.216   4.631   0.347
11290TIP3   OH255284   5.208   6.020  16.014
11290TIP3    H155285   5.159   6.099  15.992
11290TIP3    H255286   5.300   6.045  16.002
11291TIP3   OH255287   2.767   1.492   5.708
11291TIP3    H155288   2.747   1.500   5.614
11291TIP3    H255289   2.688   1.454   5.746
11292TIP3   OH255290   4.509   5.858  14.447
11292TIP3    H155291   4.588   5.909  14.461
11292TIP3    H255292   4.447   5.890  14.512
11293TIP3   OH255293   5.127   0.351   2.598
11293TIP3    H155294   5.127   0.402   2.680
11293TIP3    H255295   5.215   0.314   2.593
11294TIP3   OH255296   2.217   1.026  14.295
11294TIP3    H155297   2.160   0.951  14.313
11294TIP3    H255298   2.156   1.095  14.269
11295TIP3   OH255299   5.281   4.049   4.048
11295TIP3    H155300   5.356   3.993   4.070
11295TIP3    H255301   5.286   4.059   3.953
11296TIP3   OH255302   2.056   5.166   0.829
11296TIP3    H155303   2.145   5.166   0.864
11296TIP3    H255304   2.025   5.256   0.843
11297TIP3   OH255305   1.611   3.397  16.024
11297TIP3    H155306   1.575   3.333  15.962
11297TIP3    H255307   1.546   3.401  16.095
11298TIP3   OH255308   2.069   2.937   3.691
11298TIP3    H155309   2.016   2.858   3.695
11298TIP3    H255310   2.150   2.910   3.648
11299TIP3   OH255311   1.080   5.789  12.683
11299TIP3    H155312   1.064   5.745  12.600
11299TIP3    H255313   1.090   5.881  12.661
11300TIP3   OH255314   3.060   2.152   1.042
11300TIP3    H155315   3.064   2.063   1.077
11300TIP3    H255316   3.108   2.148   0.960
11301TIP3   OH255317   5.683   4.975   4.734
11301TIP3    H155318   5.602   4.982   4.683
11301TIP3    H255319   5.654   4.958   4.823
11302TIP3   OH255320   4.157   6.279   0.138
11302TIP3    H155321   4.157   6.189   0.104
11302TIP3    H255322   4.205   6.273   0.220
11303TIP3   OH255323   2.528   0.855   2.449
11303TIP3    H155324   2.460   0.788   2.457
11303TIP3    H255325   2.505   0.904   2.371
11304TIP3   OH255326   1.120   3.662   5.900
11304TIP3    H155327   1.104   3.581   5.851
11304TIP3    H255328   1.060   3.657   5.975
11305TIP3   OH255329   4.550   0.055  14.651
11305TIP3    H155330   4.471   0.081  14.605
11305TIP3    H255331   4.543   0.097  14.737
11306TIP3   OH255332   6.507   4.491   5.122
11306TIP3    H155333   6.544   4.558   5.179
11306TIP3    H255334   6.476   4.423   5.181
11307TIP3   OH255335   0.989   2.886  13.339
11307TIP3    H155336   0.924   2.922  13.278
11307TIP3    H255337   0.997   2.794  13.314
11308TIP3   OH255338   4.274   0.778  10.956
11308TIP3    H155339   4.187   0.777  10.996
11308TIP3    H255340   4.257   0.790  10.862
11309TIP3   OH255341   2.061   6.619  10.407
11309TIP3    H155342   2.093   6.530  10.421
11309TIP3    H255343   1.988   6.608  10.345
11310TIP3   OH255344   2.852   6.680  15.509
11310TIP3    H155345   2.799   6.712  15.583
11310TIP3    H255346   2.821   6.590  15.495
11311TIP3   OH255347   6.509   0.633   5.059
11311TIP3    H155348   6.419   0.623   5.089
11311TIP3    H255349   6.521   0.565   4.993
11312TIP3   OH255350   3.713   1.736   1.021
11312TIP3    H155351   3.676   1.821   1.043
11312TIP3    H255352   3.772   1.754   0.947
11313TIP3   OH255353   1.464   0.265   2.070
11313TIP3    H155354   1.384   0.314   2.057
11313TIP3    H255355   1.534   0.326   2.050
11314TIP3   OH255356   4.345   4.717   3.320
11314TIP3    H155357   4.412   4.658   3.285
11314TIP3    H255358   4.385   4.752   3.400
11315TIP3   OH255359   4.994   1.439  17.023
11315TIP3    H155360   4.985   1.528  17.056
11315TIP3    H255361   4.984   1.383  17.100
11316TIP3   OH255362   0.933   3.061   1.468
11316TIP3    H155363   0.896   3.063   1.379
11316TIP3    H255364   0.955   3.152   1.487
11317TIP3   OH255365   2.942   2.074   0.668
11317TIP3    H155366   2.899   2.142   0.618
11317TIP3    H255367   2.982   2.120   0.742
11318TIP3   OH255368   2.626   3.234  12.207
11318TIP3    H155369   2.703   3.275  12.166
11318TIP3    H255370   2.591   3.302  12.265
11319TIP3   OH255371   0.091   2.801  11.864
11319TIP3    H155372   0.104   2.741  11.937
11319TIP3    H255373   0.037   2.753  11.802
11320TIP3   OH255374   1.501   6.146  12.515
11320TIP3    H155375   1.547   6.066  12.541
11320TIP3    H255376   1.571   6.205  12.484
11321TIP3   OH255377   1.617   1.666  13.313
11321TIP3    H155378   1.525   1.655  13.336
11321TIP3    H255379   1.624   1.757  13.283
11322TIP3   OH255380   1.375   6.734  15.196
11322TIP3    H155381   1.359   6.734  15.102
11322TIP3    H255382   1.437   6.806  15.209
11323TIP3   OH255383   0.701   6.224   2.523
11323TIP3    H155384   0.744   6.156   2.575
11323TIP3    H255385   0.773   6.273   2.483
11324TIP3   OH255386   0.240   4.112   4.071
11324TIP3    H155387   0.182   4.104   3.996
11324TIP3    H255388   0.185   4.151   4.140
11325TIP3   OH255389   0.500   4.349  16.226
11325TIP3    H155390   0.523   4.403  16.151
11325TIP3    H255391   0.584   4.320  16.261
11326TIP3   OH255392   3.698   0.325  15.638
11326TIP3    H155393   3.736   0.401  15.593
11326TIP3    H255394   3.643   0.363  15.706
11327TIP3   OH255395   0.966   0.386   5.120
11327TIP3    H155396   0.921   0.436   5.189
11327TIP3    H255397   0.911   0.398   5.043
11328TIP3   OH255398   3.017   0.725   6.243
11328TIP3    H155399   2.967   0.769   6.312
11328TIP3    H255400   3.107   0.724   6.277
11329TIP3   OH255401   0.123   6.008  15.253
11329TIP3    H155402   0.058   5.967  15.310
11329TIP3    H255403   0.197   5.948  15.254
11330TIP3   OH255404   0.390   4.854   2.650
11330TIP3    H155405   0.388   4.949   2.638
11330TIP3    H255406   0.308   4.823   2.611
11331TIP3   OH255407   5.222   0.872  14.757
11331TIP3    H155408   5.225   0.839  14.847
11331TIP3    H255409   5.142   0.924  14.753
11332TIP3   OH255410   1.272   0.692   5.558
11332TIP3    H155411   1.237   0.604   5.576
11332TIP3    H255412   1.330   0.710   5.633
11333TIP3   OH255413   4.765   6.479   5.185
11333TIP3    H155414   4.841   6.485   5.127
11333TIP3    H255415   4.690   6.489   5.128
11334TIP3   OH255416   5.551   2.528   1.158
11334TIP3    H155417   5.575   2.600   1.217
11334TIP3    H255418   5.518   2.572   1.079
11335TIP3   OH255419   5.445   5.330  16.273
11335TIP3    H155420   5.438   5.325  16.368
11335TIP3    H255421   5.373   5.276  16.241
11336TIP3   OH255422   2.191   5.571  12.436
11336TIP3    H155423   2.135   5.493  12.439
11336TIP3    H255424   2.263   5.552  12.497
11337TIP3   OH255425   6.745   2.339   6.142
11337TIP3    H155426   6.689   2.276   6.186
11337TIP3    H255427   6.688   2.414   6.124
11338TIP3   OH255428   1.780   0.049   2.352
11338TIP3    H155429   1.795   0.047   2.447
11338TIP3    H255430   1.694   0.009   2.340
11339TIP3   OH255431   4.718   4.676  12.621
11339TIP3    H155432   4.804   4.639  12.601
11339TIP3    H255433   4.656   4.608  12.594
11340TIP3   OH255434   0.697   0.558   2.174
11340TIP3    H155435   0.656   0.644   2.169
11340TIP3    H255436   0.785   0.570   2.137
11341TIP3   OH255437   4.154   3.647   1.506
11341TIP3    H155438   4.163   3.742   1.503
11341TIP3    H255439   4.232   3.615   1.460
11342TIP3   OH255440   6.041   4.427  11.406
11342TIP3    H155441   6.092   4.502  11.377
11342TIP3    H255442   6.030   4.440  11.501
11343TIP3   OH255443   5.225   1.379  11.328
11343TIP3    H155444   5.153   1.339  11.279
11343TIP3    H255445   5.280   1.305  11.354
11344TIP3   OH255446   3.476   1.059   2.461
11344TIP3    H155447   3.429   1.037   2.541
11344TIP3    H255448   3.408   1.071   2.395
11345TIP3   OH255449   0.686   5.559  11.717
11345TIP3    H155450   0.775   5.567  11.752
11345TIP3    H255451   0.698   5.515  11.632
11346TIP3   OH255452   6.454   5.666   2.584
11346TIP3    H155453   6.459   5.751   2.539
11346TIP3    H255454   6.509   5.678   2.662
11347TIP3   OH255455   4.405   6.070   3.310
11347TIP3    H155456   4.346   6.092   3.237
11347TIP3    H255457   4.454   5.995   3.279
11348TIP3   OH255458   3.382   6.196   5.347
11348TIP3    H155459   3.302   6.237   5.382
11348TIP3    H255460   3.453   6.250   5.383
11349TIP3   OH255461   0.788   4.982   1.867
11349TIP3    H155462   0.861   5.007   1.811
11349TIP3    H255463   0.784   4.887   1.861
11350TIP3   OH255464   6.312   3.565   2.811
11350TIP3    H155465   6.289   3.475   2.835
11350TIP3    H255466   6.327   3.609   2.894
11351TIP3   OH255467   5.158   0.428   4.181
11351TIP3    H155468   5.221   0.393   4.118
11351TIP3    H255469   5.125   0.507   4.140
11352TIP3   OH255470   2.765   6.688  12.894
11352TIP3    H155471   2.846   6.644  12.919
11352TIP3    H255472   2.765   6.770  12.944
11353TIP3   OH255473   6.505   1.733  13.648
11353TIP3    H155474   6.421   1.708  13.611
11353TIP3    H255475   6.495   1.826  13.669
11354TIP3   OH255476   3.457   0.190   5.339
11354TIP3    H155477   3.440   0.274   5.297
11354TIP3    H255478   3.486   0.213   5.428
11355TIP3   OH255479   2.151   4.427  11.220
11355TIP3    H155480   2.181   4.341  11.249
11355TIP3    H255481   2.229   4.469  11.186
11356TIP3   OH255482   0.811   5.102   4.795
11356TIP3    H155483   0.857   5.108   4.879
11356TIP3    H255484   0.755   5.180   4.794
11357TIP3   OH255485   3.588   5.770  11.534
11357TIP3    H155486   3.519   5.739  11.475
11357TIP3    H255487   3.590   5.865  11.520
11358TIP3   OH255488   2.907   3.810   5.544
11358TIP3    H155489   2.978   3.748   5.562
11358TIP3    H255490   2.928   3.848   5.459
11359TIP3   OH255491   2.385   6.110  15.396
11359TIP3    H155492   2.398   6.125  15.302
11359TIP3    H255493   2.467   6.069  15.425
11360TIP3   OH255494   3.862   2.091  12.666
11360TIP3    H155495   3.812   2.086  12.747
11360TIP3    H255496   3.802   2.059  12.599
11361TIP3   OH255497   4.426   1.717   2.135
11361TIP3    H155498   4.345   1.667   2.142
11361TIP3    H255499   4.494   1.658   2.170
11362TIP3   OH255500   2.800   5.334  15.077
11362TIP3    H155501   2.821   5.245  15.107
11362TIP3    H255502   2.793   5.385  15.158
11363TIP3   OH255503   4.232   3.881  15.252
11363TIP3    H155504   4.290   3.848  15.184
11363TIP3    H255505   4.144   3.858  15.223
11364TIP3   OH255506   1.476   4.608   0.600
11364TIP3    H155507   1.571   4.616   0.597
11364TIP3    H255508   1.459   4.559   0.681
11365TIP3   OH255509   1.528   5.456   5.442
11365TIP3    H155510   1.547   5.362   5.445
11365TIP3    H255511   1.542   5.480   5.351
11366TIP3   OH255512   6.613   0.729  10.715
11366TIP3    H155513   6.663   0.772  10.645
11366TIP3    H255514   6.626   0.635  10.699
11367TIP3   OH255515   0.557   5.806  14.299
11367TIP3    H155516   0.528   5.719  14.271
11367TIP3    H255517   0.625   5.789  14.364
11368TIP3   OH255518   3.478   4.512  11.396
11368TIP3    H155519   3.544   4.459  11.351
11368TIP3    H255520   3.443   4.454  11.463
11369TIP3   OH255521   3.664   5.658   3.662
11369TIP3    H155522   3.688   5.604   3.586
11369TIP3    H255523   3.623   5.736   3.624
11370TIP3   OH255524   6.183   6.470  11.527
11370TIP3    H155525   6.136   6.414  11.588
11370TIP3    H255526   6.220   6.410  11.462
11371TIP3   OH255527   5.447   1.296   4.182
11371TIP3    H155528   5.442   1.387   4.154
11371TIP3    H255529   5.383   1.251   4.127
11372TIP3   OH255530   5.141   2.270  16.618
11372TIP3    H155531   5.062   2.253  16.567
11372TIP3    H255532   5.139   2.205  16.688
11373TIP3   OH255533   0.146   5.191   2.091
11373TIP3    H155534   0.095   5.264   2.126
11373TIP3    H255535   0.149   5.128   2.163
11374TIP3   OH255536   3.268   0.658  10.998
11374TIP3    H155537   3.203   0.614  10.944
11374TIP3    H255538   3.333   0.590  11.017
11375TIP3   OH255539   6.588   2.392  12.092
11375TIP3    H155540   6.536   2.401  12.173
11375TIP3    H255541   6.678   2.388  12.122
11376TIP3   OH255542   3.272   4.605  12.782
11376TIP3    H155543   3.349   4.559  12.749
11376TIP3    H255544   3.199   4.570  12.730
11377TIP3   OH255545   2.843   1.845   0.516
11377TIP3    H155546   2.916   1.800   0.557
11377TIP3    H255547   2.793   1.881   0.590
11378TIP3   OH255548   2.955   3.150   4.012
11378TIP3    H155549   2.924   3.072   4.058
11378TIP3    H255550   2.945   3.128   3.919
11379TIP3   OH255551   4.913   2.980   5.518
11379TIP3    H155552   4.857   3.057   5.512
11379TIP3    H255553   4.864   2.912   5.472
11380TIP3   OH255554   1.356   3.061  15.827
11380TIP3    H155555   1.327   3.057  15.919
11380TIP3    H255556   1.288   3.111  15.783
11381TIP3   OH255557   0.253   4.017  13.797
11381TIP3    H155558   0.176   4.074  13.785
11381TIP3    H255559   0.268   4.017  13.891
11382TIP3   OH255560   0.113   6.713  15.861
11382TIP3    H155561   0.184   6.776  15.875
11382TIP3    H255562   0.090   6.684  15.949
11383TIP3   OH255563   3.495   3.308  15.216
11383TIP3    H155564   3.538   3.235  15.172
11383TIP3    H255565   3.472   3.368  15.145
11384TIP3   OH255566   4.251   1.968  11.426
11384TIP3    H155567   4.311   1.894  11.436
11384TIP3    H255568   4.305   2.046  11.441
11385TIP3   OH255569   6.383   4.183   2.767
11385TIP3    H155570   6.459   4.156   2.715
11385TIP3    H255571   6.390   4.279   2.770
11386TIP3   OH255572   6.659   3.530  12.859
11386TIP3    H155573   6.702   3.599  12.810
11386TIP3    H255574   6.730   3.469  12.881
11387TIP3   OH255575   6.702   1.390  13.925
11387TIP3    H155576   6.776   1.356  13.873
11387TIP3    H255577   6.654   1.446  13.864
11388TIP3   OH255578   3.234   4.461  15.472
11388TIP3    H155579   3.253   4.435  15.562
11388TIP3    H255580   3.314   4.504  15.442
11389TIP3   OH255581   3.258   0.430  13.171
11389TIP3    H155582   3.309   0.504  13.137
11389TIP3    H255583   3.304   0.352  13.138
11390TIP3   OH255584   3.216   2.770   1.962
11390TIP3    H155585   3.184   2.795   1.875
11390TIP3    H255586   3.232   2.676   1.955
11391TIP3   OH255587   5.847   4.187   4.950
11391TIP3    H155588   5.771   4.227   4.908
11391TIP3    H255589   5.874   4.250   5.017
11392TIP3   OH255590   3.773   2.835  11.822
11392TIP3    H155591   3.831   2.911  11.808
11392TIP3    H255592   3.807   2.794  11.902
11393TIP3   OH255593   1.918   0.743   4.088
11393TIP3    H155594   1.948   0.660   4.051
11393TIP3    H255595   1.869   0.719   4.167
11394TIP3   OH255596   0.419   5.294  13.247
11394TIP3    H155597   0.469   5.343  13.312
11394TIP3    H255598   0.459   5.207  13.245
11395TIP3   OH255599   2.454   3.278  15.569
11395TIP3    H155600   2.512   3.312  15.637
11395TIP3    H255601   2.400   3.353  15.544
11396TIP3   OH255602   1.584   2.465   3.147
11396TIP3    H155603   1.634   2.394   3.186
11396TIP3    H255604   1.638   2.543   3.159
11397TIP3   OH255605   2.711   1.067  12.335
11397TIP3    H155606   2.733   1.003  12.403
11397TIP3    H255607   2.619   1.051  12.315
11398TIP3   OH255608   6.710   1.588   2.341
11398TIP3    H155609   6.624   1.631   2.333
11398TIP3    H255610   6.702   1.510   2.285
11399TIP3   OH255611   3.554   2.736   1.548
11399TIP3    H155612   3.627   2.780   1.592
11399TIP3    H255613   3.575   2.742   1.455
11400TIP3   OH255614   4.435   2.389   4.287
11400TIP3    H155615   4.510   2.448   4.286
11400TIP3    H255616   4.401   2.394   4.376
11401TIP3   OH255617   5.458   1.566   3.850
11401TIP3    H155618   5.479   1.476   3.871
11401TIP3    H255619   5.399   1.594   3.921
11402TIP3   OH255620   3.411   3.027  15.607
11402TIP3    H155621   3.438   3.096  15.668
11402TIP3    H255622   3.316   3.024  15.615
11403TIP3   OH255623   3.536   1.651  14.106
11403TIP3    H155624   3.546   1.558  14.126
11403TIP3    H255625   3.456   1.655  14.053
11404TIP3   OH255626   2.755   1.557   2.895
11404TIP3    H155627   2.745   1.640   2.941
11404TIP3    H255628   2.849   1.541   2.895
11405TIP3   OH255629   5.470   6.259   2.371
11405TIP3    H155630   5.528   6.310   2.428
11405TIP3    H255631   5.501   6.169   2.379
11406TIP3   OH255632   6.000   2.312  17.008
11406TIP3    H155633   6.031   2.242  17.065
11406TIP3    H255634   5.978   2.384  17.068
11407TIP3   OH255635   0.335   0.928   5.344
11407TIP3    H155636   0.414   0.914   5.293
11407TIP3    H255637   0.279   0.853   5.323
11408TIP3   OH255638   3.789   3.241   0.860
11408TIP3    H155639   3.749   3.203   0.939
11408TIP3    H255640   3.827   3.323   0.890
11409TIP3   OH255641   5.056   6.217  16.260
11409TIP3    H155642   5.003   6.224  16.181
11409TIP3    H255643   4.998   6.175  16.324
11410TIP3   OH255644   6.761   4.667  12.992
11410TIP3    H155645   6.845   4.702  12.963
11410TIP3    H255646   6.774   4.650  13.085
11411TIP3   OH255647   3.699   2.060  12.109
11411TIP3    H155648   3.780   2.016  12.083
11411TIP3    H255649   3.639   1.990  12.130
11412TIP3   OH255650   2.285   0.726   1.469
11412TIP3    H155651   2.242   0.789   1.527
11412TIP3    H255652   2.304   0.651   1.525
11413TIP3   OH255653   2.750   2.685  12.309
11413TIP3    H155654   2.704   2.612  12.267
11413TIP3    H255655   2.686   2.724  12.368
11414TIP3   OH255656   0.371   4.042  15.939
11414TIP3    H155657   0.368   4.099  16.016
11414TIP3    H255658   0.301   3.979  15.953
11415TIP3   OH255659   3.755   2.392   3.316
11415TIP3    H155660   3.741   2.370   3.409
11415TIP3    H255661   3.812   2.323   3.284
11416TIP3   OH255662   3.288   1.307   2.551
11416TIP3    H155663   3.242   1.351   2.623
11416TIP3    H255664   3.378   1.299   2.582
11417TIP3   OH255665   3.040   2.042   6.497
11417TIP3    H155666   3.005   2.131   6.489
11417TIP3    H255667   2.995   2.006   6.574
11418TIP3   OH255668   4.316   0.524  11.754
11418TIP3    H155669   4.389   0.474  11.790
11418TIP3    H255670   4.350   0.612  11.744
11419TIP3   OH255671   1.267   2.948  17.116
11419TIP3    H155672   1.310   2.866  17.140
11419TIP3    H255673   1.233   2.982  17.199
11420TIP3   OH255674   5.629   0.460   2.928
11420TIP3    H155675   5.576   0.423   2.857
11420TIP3    H255676   5.631   0.392   2.995
11421TIP3   OH255677   4.741   1.586   5.805
11421TIP3    H155678   4.737   1.599   5.710
11421TIP3    H255679   4.834   1.594   5.826
11422TIP3   OH255680   2.388   3.131  15.158
11422TIP3    H155681   2.438   3.116  15.238
11422TIP3    H255682   2.439   3.196  15.110
11423TIP3   OH255683   5.479   0.969  14.692
11423TIP3    H155684   5.414   0.900  14.705
11423TIP3    H255685   5.533   0.938  14.620
11424TIP3   OH255686   1.422   3.750  13.810
11424TIP3    H155687   1.465   3.664  13.815
11424TIP3    H255688   1.333   3.730  13.782
11425TIP3   OH255689   1.875   5.656  15.254
11425TIP3    H155690   1.804   5.607  15.213
11425TIP3    H255691   1.838   5.743  15.271
11426TIP3   OH255692   6.153   3.126   2.620
11426TIP3    H155693   6.171   3.093   2.532
11426TIP3    H255694   6.074   3.078   2.647
11427TIP3   OH255695   2.933   1.864   4.374
11427TIP3    H155696   3.015   1.828   4.406
11427TIP3    H255697   2.936   1.956   4.397
11428TIP3   OH255698   0.136   0.834   3.312
11428TIP3    H155699   0.126   0.917   3.358
11428TIP3    H255700   0.107   0.768   3.376
11429TIP3   OH255701   0.995   0.557   5.780
11429TIP3    H155702   0.992   0.544   5.685
11429TIP3    H255703   1.007   0.468   5.815
11430TIP3   OH255704   1.449   5.707   4.626
11430TIP3    H155705   1.488   5.770   4.686
11430TIP3    H255706   1.463   5.743   4.539
11431TIP3   OH255707   3.255   3.187   4.932
11431TIP3    H155708   3.195   3.249   4.974
11431TIP3    H255709   3.201   3.110   4.916
11432TIP3   OH255710   0.544   3.360   5.794
11432TIP3    H155711   0.454   3.388   5.780
11432TIP3    H255712   0.589   3.385   5.713
11433TIP3   OH255713   4.388   4.611   1.421
11433TIP3    H155714   4.378   4.678   1.353
11433TIP3    H255715   4.397   4.661   1.502
11434TIP3   OH255716   1.644   6.346   0.038
11434TIP3    H155717   1.645   6.388  -0.048
11434TIP3    H255718   1.733   6.358   0.072
11435TIP3   OH255719   1.898   2.752  13.735
11435TIP3    H155720   1.899   2.822  13.800
11435TIP3    H255721   1.866   2.795  13.655
11436TIP3   OH255722   1.094   5.033  11.601
11436TIP3    H155723   1.088   5.097  11.672
11436TIP3    H255724   1.029   5.063  11.537
11437TIP3   OH255725   4.043   4.629   2.854
11437TIP3    H155726   4.045   4.631   2.949
11437TIP3    H255727   4.057   4.720   2.827
11438TIP3   OH255728   1.453   2.077  11.273
11438TIP3    H155729   1.514   2.112  11.209
11438TIP3    H255730   1.487   2.107  11.358
11439TIP3   OH255731   2.893   0.143  14.152
11439TIP3    H155732   2.814   0.090  14.149
11439TIP3    H255733   2.958   0.092  14.103
11440TIP3   OH255734   1.507   2.502  15.755
11440TIP3    H155735   1.552   2.425  15.791
11440TIP3    H255736   1.550   2.577  15.797
11441TIP3   OH255737   0.321   4.584  16.864
11441TIP3    H155738   0.399   4.529  16.855
11441TIP3    H255739   0.282   4.556  16.947
11442TIP3   OH255740   4.281   3.251  12.719
11442TIP3    H155741   4.289   3.220  12.629
11442TIP3    H255742   4.299   3.345  12.714
11443TIP3   OH255743   5.566   5.376  14.480
11443TIP3    H155744   5.529   5.342  14.561
11443TIP3    H255745   5.504   5.442  14.451
11444TIP3   OH255746   5.257   6.140   3.080
11444TIP3    H155747   5.327   6.174   3.135
11444TIP3    H255748   5.302   6.081   3.018
11445TIP3   OH255749   3.561   0.264  10.672
11445TIP3    H155750   3.556   0.358  10.688
11445TIP3    H255751   3.510   0.250  10.593
11446TIP3   OH255752   0.576   1.703  16.599
11446TIP3    H155753   0.665   1.732  16.619
11446TIP3    H255754   0.520   1.752  16.659
11447TIP3   OH255755   5.407   0.022   4.106
11447TIP3    H155756   5.474  -0.041   4.135
11447TIP3    H255757   5.457   0.095   4.069
11448TIP3   OH255758   1.063   3.742  11.435
11448TIP3    H155759   1.101   3.678  11.375
11448TIP3    H255760   1.124   3.744  11.509
11449TIP3   OH255761   3.114   6.006  15.430
11449TIP3    H155762   3.190   5.959  15.394
11449TIP3    H255763   3.039   5.969  15.384
11450TIP3   OH255764   1.836   2.303  16.400
11450TIP3    H155765   1.805   2.229  16.453
11450TIP3    H255766   1.931   2.296  16.402
11451TIP3   OH255767   6.045   6.585  13.432
11451TIP3    H155768   5.976   6.521  13.449
11451TIP3    H255769   6.127   6.538  13.450
11452TIP3   OH255770   6.768   2.053   5.589
11452TIP3    H155771   6.739   1.994   5.659
11452TIP3    H255772   6.826   2.115   5.632
11453TIP3   OH255773   5.784   2.545   0.771
11453TIP3    H155774   5.839   2.485   0.821
11453TIP3    H255775   5.845   2.612   0.739
11454TIP3   OH255776   5.874   4.746   6.337
11454TIP3    H155777   5.931   4.698   6.397
11454TIP3    H255778   5.901   4.838   6.347
11455TIP3   OH255779   4.412   0.962  14.681
11455TIP3    H155780   4.464   0.882  14.675
11455TIP3    H255781   4.438   1.001  14.764
11456TIP3   OH255782   0.604   4.130  12.505
11456TIP3    H155783   0.648   4.067  12.448
11456TIP3    H255784   0.545   4.076  12.558
11457TIP3   OH255785   2.236   5.583  12.883
11457TIP3    H155786   2.242   5.548  12.972
11457TIP3    H255787   2.150   5.626  12.880
11458TIP3   OH255788   4.013   3.040   6.106
11458TIP3    H155789   3.998   2.982   6.180
11458TIP3    H255790   3.979   3.125   6.134
11459TIP3   OH255791   0.267   5.872   6.343
11459TIP3    H155792   0.319   5.922   6.279
11459TIP3    H255793   0.331   5.845   6.409
11460TIP3   OH255794   5.800   4.336  16.649
11460TIP3    H155795   5.861   4.339  16.575
11460TIP3    H255796   5.730   4.278  16.620
11461TIP3   OH255797   6.172   4.717   1.147
11461TIP3    H155798   6.175   4.652   1.217
11461TIP3    H255799   6.251   4.770   1.161
11462TIP3   OH255800   1.738   6.606  15.363
11462TIP3    H155801   1.725   6.554  15.283
11462TIP3    H255802   1.823   6.648  15.350
11463TIP3   OH255803   1.744   3.211  12.417
11463TIP3    H155804   1.650   3.217  12.432
11463TIP3    H255805   1.763   3.117  12.420
11464TIP3   OH255806   2.805   0.849  16.553
11464TIP3    H155807   2.732   0.891  16.598
11464TIP3    H255808   2.874   0.843  16.619
11465TIP3   OH255809   5.655   3.733  14.474
11465TIP3    H155810   5.713   3.758  14.402
11465TIP3    H255811   5.713   3.709  14.546
11466TIP3   OH255812   2.995   2.824   3.490
11466TIP3    H155813   3.035   2.904   3.523
11466TIP3    H255814   3.033   2.813   3.403
11467TIP3   OH255815   0.339   3.131   3.701
11467TIP3    H155816   0.288   3.121   3.620
11467TIP3    H255817   0.310   3.215   3.737
11468TIP3   OH255818   0.843   4.987  15.030
11468TIP3    H155819   0.818   4.934  15.107
11468TIP3    H255820   0.819   4.932  14.955
11469TIP3   OH255821   2.835   0.757  13.257
11469TIP3    H155822   2.780   0.769  13.180
11469TIP3    H255823   2.789   0.805  13.326
11470TIP3   OH255824   4.600   6.615  10.748
11470TIP3    H155825   4.541   6.611  10.672
11470TIP3    H255826   4.688   6.614  10.710
11471TIP3   OH255827   5.989   4.568  12.072
11471TIP3    H155828   6.045   4.624  12.018
11471TIP3    H255829   5.902   4.607  12.065
11472TIP3   OH255830   3.143   3.212  17.080
11472TIP3    H155831   3.155   3.186  17.172
11472TIP3    H255832   3.063   3.167  17.052
11473TIP3   OH255833   4.621   3.551  16.916
11473TIP3    H155834   4.553   3.587  16.973
11473TIP3    H255835   4.701   3.597  16.943
11474TIP3   OH255836   1.985   3.885  10.976
11474TIP3    H155837   1.915   3.933  10.932
11474TIP3    H255838   1.984   3.798  10.936
11475TIP3   OH255839   3.290   0.768  12.309
11475TIP3    H155840   3.330   0.756  12.395
11475TIP3    H255841   3.331   0.848  12.274
11476TIP3   OH255842   5.988   4.940  11.269
11476TIP3    H155843   5.927   5.013  11.264
11476TIP3    H255844   6.065   4.977  11.313
11477TIP3   OH255845   6.606   1.153   1.328
11477TIP3    H155846   6.695   1.141   1.294
11477TIP3    H255847   6.574   1.063   1.341
11478TIP3   OH255848   6.043   4.848  12.602
11478TIP3    H155849   6.082   4.814  12.683
11478TIP3    H255850   6.111   4.836  12.536
11479TIP3   OH255851   2.721   3.991  16.290
11479TIP3    H155852   2.697   4.084  16.286
11479TIP3    H255853   2.643   3.948  16.324
11480TIP3   OH255854   0.719   6.276   0.935
11480TIP3    H155855   0.757   6.316   0.857
11480TIP3    H255856   0.752   6.187   0.935
11481TIP3   OH255857   4.984   0.579  11.111
11481TIP3    H155858   4.961   0.604  11.021
11481TIP3    H255859   4.942   0.494  11.123
11482TIP3   OH255860   1.890   5.424  15.781
11482TIP3    H155861   1.843   5.496  15.824
11482TIP3    H255862   1.853   5.421  15.692
11483TIP3   OH255863   3.989   6.367   1.750
11483TIP3    H155864   4.023   6.282   1.778
11483TIP3    H255865   3.898   6.351   1.727
11484TIP3   OH255866   1.116   2.388  16.542
11484TIP3    H155867   1.121   2.441  16.622
11484TIP3    H255868   1.116   2.452  16.471
11485TIP3   OH255869   5.673   0.625   4.719
11485TIP3    H155870   5.604   0.670   4.768
11485TIP3    H255871   5.644   0.534   4.714
11486TIP3   OH255872   3.027   3.416  15.002
11486TIP3    H155873   2.935   3.439  14.989
11486TIP3    H255874   3.059   3.394  14.915
11487TIP3   OH255875   5.801   5.386   4.089
11487TIP3    H155876   5.722   5.350   4.049
11487TIP3    H255877   5.856   5.411   4.014
11488TIP3   OH255878   1.293   6.567  14.566
11488TIP3    H155879   1.387   6.567  14.548
11488TIP3    H255880   1.286   6.583  14.660
11489TIP3   OH255881   2.147   1.826   1.721
11489TIP3    H155882   2.102   1.761   1.668
11489TIP3    H255883   2.120   1.910   1.683
11490TIP3   OH255884   1.731   5.808  12.770
11490TIP3    H155885   1.805   5.748  12.761
11490TIP3    H255886   1.654   5.751  12.766
11491TIP3   OH255887   0.399   0.351  13.579
11491TIP3    H155888   0.399   0.369  13.673
11491TIP3    H255889   0.450   0.270  13.570
11492TIP3   OH255890   5.616   1.061  15.041
11492TIP3    H155891   5.612   0.972  15.007
11492TIP3    H255892   5.533   1.100  15.016
11493TIP3   OH255893   3.710   2.398   0.555
11493TIP3    H155894   3.798   2.364   0.566
11493TIP3    H255895   3.720   2.493   0.553
11494TIP3   OH255896   0.058   2.328   4.782
11494TIP3    H155897   0.139   2.295   4.820
11494TIP3    H255898   0.015   2.250   4.746
11495TIP3   OH255899   3.591   1.726  10.972
11495TIP3    H155900   3.601   1.720  10.877
11495TIP3    H255901   3.673   1.692  11.006
11496TIP3   OH255902   4.413   1.662   4.888
11496TIP3    H155903   4.387   1.592   4.828
11496TIP3    H255904   4.399   1.742   4.838
11497TIP3   OH255905   3.162   2.212  14.731
11497TIP3    H155906   3.110   2.136  14.760
11497TIP3    H255907   3.176   2.197  14.638
11498TIP3   OH255908   4.049   1.355  16.896
11498TIP3    H155909   3.970   1.301  16.901
11498TIP3    H255910   4.029   1.432  16.950
11499TIP3   OH255911   4.712   0.364   1.014
11499TIP3    H155912   4.797   0.362   1.060
11499TIP3    H255913   4.728   0.418   0.937
11500TIP3   OH255914   4.023   5.324  15.988
11500TIP3    H155915   3.931   5.337  16.014
11500TIP3    H255916   4.049   5.244  16.033
11501TIP3   OH255917   4.702   5.051  17.171
11501TIP3    H155918   4.644   5.089  17.237
11501TIP3    H255919   4.643   5.010  17.108
11502TIP3   OH255920   2.476   0.493  11.915
11502TIP3    H155921   2.479   0.540  11.998
11502TIP3    H255922   2.556   0.521  11.870
11503TIP3   OH255923   5.935   4.881   0.646
11503TIP3    H155924   5.997   4.810   0.630
11503TIP3    H255925   5.972   4.956   0.600
11504TIP3   OH255926   2.702   5.072   5.725
11504TIP3    H155927   2.732   5.099   5.638
11504TIP3    H255928   2.780   5.081   5.781
11505TIP3   OH255929   5.851   4.243   3.231
11505TIP3    H155930   5.796   4.280   3.163
11505TIP3    H255931   5.856   4.149   3.211
11506TIP3   OH255932   6.131   4.963   5.910
11506TIP3    H155933   6.225   4.950   5.925
11506TIP3    H255934   6.089   4.929   5.989
11507TIP3   OH255935   6.331   6.645   3.639
11507TIP3    H155936   6.391   6.584   3.681
11507TIP3    H255937   6.349   6.729   3.681
11508TIP3   OH255938   1.227   3.494  17.107
11508TIP3    H155939   1.140   3.476  17.145
11508TIP3    H255940   1.219   3.581  17.068
11509TIP3   OH255941   1.047   4.519  16.635
11509TIP3    H155942   1.024   4.609  16.658
11509TIP3    H255943   0.987   4.465  16.687
11510TIP3   OH255944   4.579   4.793   3.105
11510TIP3    H155945   4.635   4.841   3.165
11510TIP3    H255946   4.490   4.810   3.135
11511TIP3   OH255947   1.025   4.011  16.862
11511TIP3    H155948   0.984   4.087  16.820
11511TIP3    H255949   0.952   3.952  16.882
11512TIP3   OH255950   0.430   4.707  11.258
11512TIP3    H155951   0.451   4.799  11.267
11512TIP3    H255952   0.442   4.670  11.345
11513TIP3   OH255953   1.774   3.081  14.146
11513TIP3    H155954   1.681   3.101  14.134
11513TIP3    H255955   1.789   3.003  14.093
11514TIP3   OH255956   0.740   3.194  16.093
11514TIP3    H155957   0.684   3.125  16.058
11514TIP3    H255958   0.691   3.275  16.077
11515TIP3   OH255959   0.467   4.992  11.610
11515TIP3    H155960   0.431   5.068  11.654
11515TIP3    H255961   0.470   4.924  11.678
11516TIP3   OH255962   4.504   3.976   1.689
11516TIP3    H155963   4.544   4.057   1.657
11516TIP3    H255964   4.547   3.907   1.638
11517TIP3   OH255965   4.728   5.861  16.080
11517TIP3    H155966   4.682   5.779  16.062
11517TIP3    H255967   4.755   5.892  15.993
11518TIP3   OH255968   2.673   6.162   0.580
11518TIP3    H155969   2.645   6.139   0.492
11518TIP3    H255970   2.606   6.123   0.637
11519TIP3   OH255971   1.457   5.503  11.335
11519TIP3    H155972   1.414   5.511  11.250
11519TIP3    H255973   1.430   5.418  11.368
11520TIP3   OH255974   1.254   4.910   1.423
11520TIP3    H155975   1.188   4.958   1.373
11520TIP3    H255976   1.204   4.843   1.470
11521TIP3   OH255977   0.056   5.440   0.013
11521TIP3    H155978   0.005   5.361  -0.007
11521TIP3    H255979   0.021   5.507  -0.046
11522TIP3   OH255980   6.775   1.614   6.010
11522TIP3    H155981   6.816   1.531   6.035
11522TIP3    H255982   6.692   1.615   6.058
11523TIP3   OH255983   5.271   2.540  15.011
11523TIP3    H155984   5.199   2.513  14.954
11523TIP3    H255985   5.315   2.609  14.961
11524TIP3   OH255986   3.705   4.160  13.932
11524TIP3    H155987   3.691   4.251  13.958
11524TIP3    H255988   3.784   4.162  13.879
11525TIP3   OH255989   0.059   3.222  12.048
11525TIP3    H155990   0.135   3.204  12.104
11525TIP3    H255991   0.072   3.166  11.972
11526TIP3   OH255992   0.708   0.568   3.684
11526TIP3    H155993   0.680   0.480   3.711
11526TIP3    H255994   0.643   0.596   3.620
11527TIP3   OH255995   1.656   0.284  14.400
11527TIP3    H155996   1.619   0.280  14.312
11527TIP3    H255997   1.664   0.378  14.418
11528TIP3   OH255998   5.377   2.704  13.274
11528TIP3    H155999   5.349   2.618  13.242
11528TIP3    H256000   5.295   2.749  13.295
11529TIP3   OH256001   6.212   1.261   3.157
11529TIP3    H156002   6.282   1.318   3.125
11529TIP3    H256003   6.251   1.173   3.159
11530TIP3   OH256004   5.407   4.329   4.721
11530TIP3    H156005   5.358   4.324   4.803
11530TIP3    H256006   5.344   4.368   4.659
11531TIP3   OH256007   2.764   0.206   3.555
11531TIP3    H156008   2.754   0.142   3.626
11531TIP3    H256009   2.824   0.271   3.590
11532TIP3   OH256010   1.519   2.764   3.873
11532TIP3    H156011   1.582   2.820   3.828
11532TIP3    H256012   1.445   2.822   3.893
11533TIP3   OH256013   4.919   2.773  14.363
11533TIP3    H156014   4.999   2.721  14.368
11533TIP3    H256015   4.943   2.857  14.402
11534TIP3   OH256016   3.672   0.603  14.487
11534TIP3    H156017   3.708   0.541  14.424
11534TIP3    H256018   3.692   0.689  14.451
11535TIP3   OH256019   3.837   4.550   0.212
11535TIP3    H156020   3.873   4.625   0.165
11535TIP3    H256021   3.744   4.550   0.191
11536TIP3   OH256022   6.772   2.532  12.368
11536TIP3    H156023   6.845   2.516  12.308
11536TIP3    H256024   6.742   2.620  12.345
11537TIP3   OH256025   5.934   5.724   2.728
11537TIP3    H156026   5.901   5.650   2.779
11537TIP3    H256027   5.994   5.769   2.787
11538TIP3   OH256028   6.532   5.119  11.319
11538TIP3    H156029   6.626   5.122  11.333
11538TIP3    H256030   6.512   5.197  11.267
11539TIP3   OH256031   4.960   6.731  11.061
11539TIP3    H156032   4.917   6.782  11.129
11539TIP3    H256033   5.035   6.785  11.034
11540TIP3   OH256034   0.489   5.336   1.250
11540TIP3    H156035   0.481   5.402   1.319
11540TIP3    H256036   0.487   5.386   1.169
11541TIP3   OH256037   0.415   0.426  12.112
11541TIP3    H156038   0.386   0.491  12.049
11541TIP3    H256039   0.378   0.344  12.080
11542TIP3   OH256040   5.784   2.057   1.317
11542TIP3    H156041   5.781   1.970   1.277
11542TIP3    H256042   5.756   2.043   1.407
11543TIP3   OH256043   5.001   1.604   1.447
11543TIP3    H156044   5.010   1.545   1.522
11543TIP3    H256045   4.937   1.669   1.475
11544TIP3   OH256046   2.446   6.744   4.904
11544TIP3    H156047   2.458   6.677   4.971
11544TIP3    H256048   2.404   6.817   4.949
11545TIP3   OH256049   4.165   3.789  11.958
11545TIP3    H156050   4.249   3.796  11.913
11545TIP3    H256051   4.143   3.696  11.952
11546TIP3   OH256052   3.650   2.424   0.153
11546TIP3    H156053   3.564   2.382   0.155
11546TIP3    H256054   3.702   2.377   0.218
11547TIP3   OH256055   4.713   6.546   4.405
11547TIP3    H156056   4.728   6.480   4.338
11547TIP3    H256057   4.775   6.616   4.383
11548TIP3   OH256058   3.424   1.370   0.143
11548TIP3    H156059   3.410   1.319   0.223
11548TIP3    H256060   3.507   1.415   0.157
11549TIP3   OH256061   5.841   0.246   0.408
11549TIP3    H156062   5.769   0.244   0.344
11549TIP3    H256063   5.839   0.159   0.449
11550TIP3   OH256064   6.163   0.248   0.958
11550TIP3    H156065   6.183   0.154   0.952
11550TIP3    H256066   6.229   0.282   1.019
11551TIP3   OH256067   6.122   0.468  12.869
11551TIP3    H156068   6.192   0.491  12.930
11551TIP3    H256069   6.079   0.393  12.908
11552TIP3   OH256070   3.845   1.627   0.557
11552TIP3    H156071   3.852   1.696   0.490
11552TIP3    H256072   3.916   1.646   0.618
11553TIP3   OH256073   4.158   2.966   3.178
11553TIP3    H156074   4.112   3.037   3.134
11553TIP3    H256075   4.159   2.992   3.270
11554TIP3   OH256076   6.385   2.808   6.163
11554TIP3    H156077   6.436   2.741   6.209
11554TIP3    H256078   6.305   2.818   6.215
11555TIP3   OH256079   4.459   2.299  16.224
11555TIP3    H156080   4.428   2.219  16.266
11555TIP3    H256081   4.402   2.368  16.258
11556TIP3   OH256082   0.023   6.283  11.074
11556TIP3    H156083  -0.000   6.260  11.164
11556TIP3    H256084  -0.060   6.299  11.031
11557TIP3   OH256085   3.963   4.134   3.011
11557TIP3    H156086   3.966   4.125   2.916
11557TIP3    H256087   4.049   4.106   3.041
11558TIP3   OH256088   4.462   1.381   4.324
11558TIP3    H156089   4.380   1.407   4.283
11558TIP3    H256090   4.521   1.365   4.250
11559TIP3   OH256091   2.115   6.488   1.343
11559TIP3    H156092   2.119   6.429   1.418
11559TIP3    H256093   2.034   6.464   1.298
11560TIP3   OH256094   5.462   1.667  17.183
11560TIP3    H156095   5.521   1.728  17.138
11560TIP3    H256096   5.516   1.590  17.199
11561TIP3   OH256097   1.994   2.320   2.368
11561TIP3    H156098   2.027   2.299   2.455
11561TIP3    H256099   1.899   2.317   2.377
11562TIP3   OH256100   1.320   4.024   4.212
11562TIP3    H156101   1.298   3.948   4.158
11562TIP3    H256102   1.306   4.099   4.155
11563TIP3   OH256103   2.221   2.788   3.941
11563TIP3    H156104   2.185   2.760   4.025
11563TIP3    H256105   2.144   2.795   3.884
11564TIP3   OH256106   5.073   5.712  13.052
11564TIP3    H156107   5.010   5.682  12.986
11564TIP3    H256108   5.132   5.771  13.004
11565TIP3   OH256109   0.623   0.470  13.785
11565TIP3    H156110   0.706   0.495  13.825
11565TIP3    H256111   0.608   0.535  13.717
11566TIP3   OH256112   1.434   0.194  11.216
11566TIP3    H156113   1.440   0.285  11.185
11566TIP3    H256114   1.495   0.146  11.160
11567TIP3   OH256115   2.598   5.110  12.377
11567TIP3    H156116   2.551   5.149  12.304
11567TIP3    H256117   2.678   5.161  12.385
11568TIP3   OH256118   0.878   2.608   6.473
11568TIP3    H156119   0.896   2.515   6.460
11568TIP3    H256120   0.783   2.616   6.461
11569TIP3   OH256121   1.879   0.104  15.470
11569TIP3    H156122   1.795   0.072  15.502
11569TIP3    H256123   1.866   0.119  15.377
11570TIP3   OH256124   3.430   6.011  11.980
11570TIP3    H156125   3.376   6.041  11.907
11570TIP3    H256126   3.478   5.935  11.946
11571TIP3   OH256127   4.210   2.887  15.040
11571TIP3    H156128   4.233   2.928  14.958
11571TIP3    H256129   4.127   2.842  15.023
11572TIP3   OH256130   5.886   2.061   4.934
11572TIP3    H156131   5.939   2.129   4.973
11572TIP3    H256132   5.949   1.995   4.905
11573TIP3   OH256133   1.048   5.600  12.488
11573TIP3    H156134   1.074   5.520  12.533
11573TIP3    H256135   1.047   5.576  12.395
11574TIP3   OH256136   1.622   3.218   3.476
11574TIP3    H156137   1.588   3.137   3.438
11574TIP3    H256138   1.676   3.257   3.407
11575TIP3   OH256139   2.540   1.110  14.870
11575TIP3    H156140   2.616   1.105  14.812
11575TIP3    H256141   2.539   1.201  14.901
11576TIP3   OH256142   2.539   6.518  15.934
11576TIP3    H156143   2.503   6.514  15.846
11576TIP3    H256144   2.574   6.607  15.942
11577TIP3   OH256145   4.747   4.921   1.985
11577TIP3    H156146   4.789   4.886   1.906
11577TIP3    H256147   4.653   4.911   1.968
11578TIP3   OH256148   4.860   5.883  13.803
11578TIP3    H156149   4.766   5.879  13.785
11578TIP3    H256150   4.897   5.931  13.729
11579TIP3   OH256151   1.358   2.533   0.894
11579TIP3    H156152   1.429   2.504   0.951
11579TIP3    H256153   1.295   2.460   0.895
11580TIP3   OH256154   5.669   1.282  15.202
11580TIP3    H156155   5.761   1.293  15.179
11580TIP3    H256156   5.635   1.221  15.136
11581TIP3   OH256157   3.468   2.899  12.050
11581TIP3    H156158   3.529   2.826  12.060
11581TIP3    H256159   3.397   2.880  12.112
11582TIP3   OH256160   5.372   5.581   1.119
11582TIP3    H156161   5.293   5.558   1.167
11582TIP3    H256162   5.441   5.582   1.185
11583TIP3   OH256163   5.023   2.602  15.186
11583TIP3    H156164   5.098   2.561  15.142
11583TIP3    H256165   4.986   2.660  15.120
11584TIP3   OH256166   5.087   5.385  14.793
11584TIP3    H156167   4.999   5.413  14.770
11584TIP3    H256168   5.116   5.332  14.718
11585TIP3   OH256169   3.693   3.074  14.806
11585TIP3    H156170   3.625   3.051  14.870
11585TIP3    H256171   3.773   3.083  14.857
11586TIP3   OH256172   4.676   5.136  12.439
11586TIP3    H156173   4.757   5.131  12.389
11586TIP3    H256174   4.686   5.214  12.494
11587TIP3   OH256175   4.128   5.757   0.505
11587TIP3    H156176   4.161   5.668   0.495
11587TIP3    H256177   4.179   5.794   0.577
11588TIP3   OH256178   4.106   3.175  16.103
11588TIP3    H156179   4.179   3.114  16.113
11588TIP3    H256180   4.067   3.180  16.190
11589TIP3   OH256181   6.223   3.616  14.350
11589TIP3    H156182   6.272   3.537  14.370
11589TIP3    H256183   6.157   3.622  14.419
11590TIP3   OH256184   4.311   5.584  10.588
11590TIP3    H156185   4.306   5.677  10.566
11590TIP3    H256186   4.230   5.566  10.636
11591TIP3   OH256187   3.451   2.197  14.889
11591TIP3    H156188   3.500   2.124  14.851
11591TIP3    H256189   3.362   2.186  14.855
11592TIP3   OH256190   5.129   4.749   3.813
11592TIP3    H156191   5.147   4.795   3.731
11592TIP3    H256192   5.187   4.790   3.877
11593TIP3   OH256193   2.302   4.519  13.862
11593TIP3    H156194   2.303   4.609  13.830
11593TIP3    H256195   2.209   4.499  13.873
11594TIP3   OH256196   4.461   3.696  14.259
11594TIP3    H156197   4.413   3.779  14.258
11594TIP3    H256198   4.529   3.707  14.192
11595TIP3   OH256199   5.918   0.322  10.631
11595TIP3    H156200   5.972   0.320  10.552
11595TIP3    H256201   5.828   0.308  10.600
11596TIP3   OH256202   3.065   4.887   2.039
11596TIP3    H156203   2.972   4.880   2.018
11596TIP3    H256204   3.090   4.973   2.006
11597TIP3   OH256205   0.597   5.636  14.776
11597TIP3    H156206   0.567   5.594  14.856
11597TIP3    H256207   0.693   5.627  14.778
11598TIP3   OH256208   2.790   5.885   3.395
11598TIP3    H156209   2.813   5.834   3.318
11598TIP3    H256210   2.843   5.964   3.388
11599TIP3   OH256211   0.781   3.882  14.303
11599TIP3    H156212   0.810   3.897  14.393
11599TIP3    H256213   0.690   3.910  14.301
11600TIP3   OH256214   0.588   3.966   4.333
11600TIP3    H156215   0.495   3.956   4.353
11600TIP3    H256216   0.590   4.020   4.254
11601TIP3   OH256217   6.768   6.579  17.172
11601TIP3    H156218   6.751   6.487  17.151
11601TIP3    H256219   6.728   6.592  17.258
11602TIP3   OH256220   5.960   1.365  13.808
11602TIP3    H156221   6.035   1.309  13.793
11602TIP3    H256222   5.888   1.324  13.760
11603TIP3   OH256223   2.065   2.910   4.134
11603TIP3    H156224   2.116   2.978   4.091
11603TIP3    H256225   2.000   2.958   4.186
11604TIP3   OH256226   4.020   4.154  12.804
11604TIP3    H156227   3.960   4.086  12.775
11604TIP3    H256228   3.968   4.209  12.862
11605TIP3   OH256229   6.132   0.786   1.778
11605TIP3    H156230   6.064   0.724   1.753
11605TIP3    H256231   6.177   0.743   1.851
11606TIP3   OH256232   1.263   2.219  15.492
11606TIP3    H156233   1.309   2.155  15.438
11606TIP3    H256234   1.278   2.303  15.449
11607TIP3   OH256235   5.842   4.422   3.636
11607TIP3    H156236   5.779   4.452   3.701
11607TIP3    H256237   5.815   4.332   3.616
11608TIP3   OH256238   5.448   1.787   1.198
11608TIP3    H156239   5.374   1.729   1.178
11608TIP3    H256240   5.523   1.747   1.153
11609TIP3   OH256241   1.890   3.770  11.767
11609TIP3    H156242   1.824   3.705  11.791
11609TIP3    H256243   1.849   3.854  11.789
11610TIP3   OH256244   4.571   6.493   0.797
11610TIP3    H156245   4.647   6.464   0.847
11610TIP3    H256246   4.521   6.547   0.858
11611TIP3   OH256247   3.413   6.399  14.754
11611TIP3    H156248   3.480   6.342  14.717
11611TIP3    H256249   3.451   6.487  14.748
11612TIP3   OH256250   3.808   5.398  12.044
11612TIP3    H156251   3.772   5.345  12.116
11612TIP3    H256252   3.826   5.483  12.084
11613TIP3   OH256253   2.077   2.669   2.568
11613TIP3    H156254   2.083   2.604   2.498
11613TIP3    H256255   2.142   2.642   2.632
11614TIP3   OH256256   3.034   2.051   3.947
11614TIP3    H156257   3.077   1.974   3.986
11614TIP3    H256258   3.064   2.052   3.856
11615TIP3   OH256259   4.259   3.574   3.390
11615TIP3    H156260   4.284   3.554   3.480
11615TIP3    H256261   4.169   3.606   3.396
11616TIP3   OH256262   4.410   0.881   0.043
11616TIP3    H156263   4.315   0.885   0.053
11616TIP3    H256264   4.437   0.972   0.029
11617TIP3   OH256265   1.875   4.439  15.148
11617TIP3    H156266   1.892   4.515  15.204
11617TIP3    H256267   1.941   4.375  15.175
11618TIP3   OH256268   2.536   1.293  15.337
11618TIP3    H156269   2.463   1.286  15.275
11618TIP3    H256270   2.528   1.217  15.394
11619TIP3   OH256271   3.603   6.620  15.719
11619TIP3    H156272   3.683   6.597  15.767
11619TIP3    H256273   3.617   6.711  15.692
11620TIP3   OH256274   4.234   4.462  12.504
11620TIP3    H156275   4.225   4.436  12.413
11620TIP3    H256276   4.317   4.511  12.507
11621TIP3   OH256277   5.003   3.287   0.599
11621TIP3    H156278   5.002   3.284   0.504
11621TIP3    H256279   5.028   3.198   0.626
11622TIP3   OH256280   4.056   2.037   0.281
11622TIP3    H156281   4.000   2.108   0.250
11622TIP3    H256282   4.129   2.035   0.219
11623TIP3   OH256283   1.033   5.586  16.793
11623TIP3    H156284   1.042   5.681  16.778
11623TIP3    H256285   1.067   5.573  16.882
11624TIP3   OH256286   4.905   3.390   5.440
11624TIP3    H156287   4.959   3.341   5.502
11624TIP3    H256288   4.902   3.334   5.362
11625TIP3   OH256289   4.949   4.682   0.532
11625TIP3    H156290   4.957   4.746   0.462
11625TIP3    H256291   4.991   4.723   0.608
11626TIP3   OH256292   6.686   3.068  16.014
11626TIP3    H156293   6.626   3.034  15.947
11626TIP3    H256294   6.631   3.121  16.071
11627TIP3   OH256295   6.576   4.869   0.592
11627TIP3    H156296   6.628   4.789   0.580
11627TIP3    H256297   6.514   4.868   0.520
11628TIP3   OH256298   3.295   5.051  13.402
11628TIP3    H156299   3.354   5.074  13.474
11628TIP3    H256300   3.277   4.958  13.415
11629TIP3   OH256301   5.248   5.276   3.949
11629TIP3    H156302   5.250   5.317   4.035
11629TIP3    H256303   5.228   5.184   3.966
11630TIP3   OH256304   1.674   2.320  12.358
11630TIP3    H156305   1.631   2.406  12.351
11630TIP3    H256306   1.629   2.266  12.293
11631TIP3   OH256307   4.359   5.891  15.617
11631TIP3    H156308   4.351   5.986  15.600
11631TIP3    H256309   4.332   5.880  15.708
11632TIP3   OH256310   6.113   5.494  14.347
11632TIP3    H156311   6.148   5.447  14.423
11632TIP3    H256312   6.020   5.470  14.345
11633TIP3   OH256313   6.217   0.088  17.026
11633TIP3    H156314   6.214   0.046  16.940
11633TIP3    H256315   6.291   0.048  17.070
11634TIP3   OH256316   1.661   2.626  15.181
11634TIP3    H156317   1.576   2.590  15.206
11634TIP3    H256318   1.690   2.676  15.257
11635TIP3   OH256319   3.882   5.426  13.892
11635TIP3    H156320   3.837   5.489  13.949
11635TIP3    H256321   3.975   5.447  13.903
11636TIP3   OH256322   6.199   5.969   2.093
11636TIP3    H156323   6.204   6.065   2.101
11636TIP3    H256324   6.137   5.943   2.161
11637TIP3   OH256325   1.907   5.703   1.193
11637TIP3    H156326   1.954   5.693   1.275
11637TIP3    H256327   1.872   5.616   1.174
11638TIP3   OH256328   5.130   2.066  16.403
11638TIP3    H156329   5.048   2.112  16.422
11638TIP3    H256330   5.129   2.055  16.308
11639TIP3   OH256331   6.175   2.138  13.519
11639TIP3    H156332   6.106   2.072  13.527
11639TIP3    H256333   6.129   2.221  13.524
11640TIP3   OH256334   0.475   1.399  14.048
11640TIP3    H156335   0.467   1.491  14.022
11640TIP3    H256336   0.438   1.350  13.975
11641TIP3   OH256337   1.557   5.817  15.410
11641TIP3    H156338   1.470   5.777  15.418
11641TIP3    H256339   1.557   5.886  15.476
11642TIP3   OH256340   1.208   4.724  12.621
11642TIP3    H156341   1.238   4.740  12.532
11642TIP3    H256342   1.261   4.651  12.652
11643TIP3   OH256343   2.265   2.458   1.655
11643TIP3    H156344   2.355   2.444   1.684
11643TIP3    H256345   2.214   2.464   1.736
11644TIP3   OH256346   5.767   0.319   5.103
11644TIP3    H156347   5.786   0.260   5.176
11644TIP3    H256348   5.747   0.403   5.144
11645TIP3   OH256349   0.341   0.873   3.926
11645TIP3    H156350   0.349   0.969   3.928
11645TIP3    H256351   0.367   0.845   4.013
11646TIP3   OH256352   6.393   1.134  14.662
11646TIP3    H156353   6.328   1.195  14.697
11646TIP3    H256354   6.477   1.179  14.672
11647TIP3   OH256355   3.235   4.606   5.143
11647TIP3    H156356   3.225   4.624   5.236
11647TIP3    H256357   3.326   4.578   5.133
11648TIP3   OH256358   6.413   4.442   2.523
11648TIP3    H156359   6.499   4.421   2.559
11648TIP3    H256360   6.379   4.510   2.581
11649TIP3   OH256361   1.754   2.375   5.136
11649TIP3    H156362   1.808   2.326   5.073
11649TIP3    H256363   1.817   2.406   5.201
11650TIP3   OH256364   2.214   5.943  11.879
11650TIP3    H156365   2.153   5.916  11.948
11650TIP3    H256366   2.256   6.022  11.914
11651TIP3   OH256367   5.866   1.333  14.101
11651TIP3    H156368   5.921   1.411  14.096
11651TIP3    H256369   5.792   1.359  14.156
11652TIP3   OH256370   0.812   4.703   1.738
11652TIP3    H156371   0.775   4.649   1.669
11652TIP3    H256372   0.796   4.653   1.818
11653TIP3   OH256373   4.352   2.064  15.185
11653TIP3    H156374   4.321   2.036  15.099
11653TIP3    H256375   4.417   2.132  15.165
11654TIP3   OH256376   5.381   4.084  13.058
11654TIP3    H156377   5.446   4.074  12.988
11654TIP3    H256378   5.308   4.129  13.017
11655TIP3   OH256379   3.982   6.345  16.989
11655TIP3    H156380   3.989   6.363  17.083
11655TIP3    H256381   4.005   6.428  16.947
11656TIP3   OH256382   0.719   5.553  12.655
11656TIP3    H156383   0.680   5.556  12.743
11656TIP3    H256384   0.797   5.498  12.666
11657TIP3   OH256385   6.358   3.815   4.415
11657TIP3    H156386   6.340   3.813   4.509
11657TIP3    H256387   6.337   3.727   4.384
11658TIP3   OH256388   5.058   0.220   1.704
11658TIP3    H156389   4.985   0.234   1.764
11658TIP3    H256390   5.026   0.155   1.642
11659TIP3   OH256391   6.257   2.650  17.136
11659TIP3    H156392   6.348   2.679  17.133
11659TIP3    H256393   6.208   2.718  17.090
11660TIP3   OH256394   0.783   3.193   0.515
11660TIP3    H156395   0.810   3.158   0.430
11660TIP3    H256396   0.788   3.288   0.505
11661TIP3   OH256397   0.779   0.307  15.471
11661TIP3    H156398   0.784   0.229  15.416
11661TIP3    H256399   0.870   0.329  15.489
11662TIP3   OH256400   1.735   3.517  13.911
11662TIP3    H156401   1.827   3.511  13.886
11662TIP3    H256402   1.687   3.504  13.830
11663TIP3   OH256403   2.643   3.447   3.816
11663TIP3    H156404   2.586   3.447   3.893
11663TIP3    H256405   2.721   3.400   3.844
11664TIP3   OH256406   5.563   3.010   5.977
11664TIP3    H156407   5.591   2.993   6.067
11664TIP3    H256408   5.504   3.085   5.985
11665TIP3   OH256409   2.693   0.387  15.474
11665TIP3    H156410   2.671   0.346  15.390
11665TIP3    H256411   2.766   0.445  15.453
11666TIP3   OH256412   0.524   3.911  16.611
11666TIP3    H156413   0.498   3.984  16.667
11666TIP3    H256414   0.616   3.928  16.590
11667TIP3   OH256415   6.507   5.166  15.807
11667TIP3    H156416   6.445   5.238  15.803
11667TIP3    H256417   6.535   5.153  15.716
11668TIP3   OH256418   4.127   4.562   3.440
11668TIP3    H156419   4.167   4.478   3.462
11668TIP3    H256420   4.199   4.613   3.403
11669TIP3   OH256421   4.888   4.497  16.009
11669TIP3    H156422   4.935   4.513  15.928
11669TIP3    H256423   4.848   4.582  16.031
11670TIP3   OH256424   1.748   0.731  12.577
11670TIP3    H156425   1.766   0.647  12.619
11670TIP3    H256426   1.826   0.749  12.525
11671TIP3   OH256427   0.233   4.329   3.269
11671TIP3    H156428   0.319   4.319   3.309
11671TIP3    H256429   0.248   4.318   3.175
11672TIP3   OH256430   0.359   6.373   4.852
11672TIP3    H156431   0.294   6.441   4.870
11672TIP3    H256432   0.370   6.327   4.935
11673TIP3   OH256433   2.735   0.854   0.356
11673TIP3    H156434   2.647   0.816   0.366
11673TIP3    H256435   2.794   0.789   0.395
11674TIP3   OH256436   5.676   5.067  13.133
11674TIP3    H156437   5.691   5.124  13.209
11674TIP3    H256438   5.661   5.127  13.061
11675TIP3   OH256439   2.510   1.584   0.756
11675TIP3    H156440   2.591   1.597   0.708
11675TIP3    H256441   2.516   1.494   0.788
11676TIP3   OH256442   0.389   1.137   0.934
11676TIP3    H156443   0.367   1.229   0.950
11676TIP3    H256444   0.336   1.112   0.859
11677TIP3   OH256445   6.092   2.881   1.944
11677TIP3    H156446   6.080   2.844   1.857
11677TIP3    H256447   6.125   2.970   1.928
11678TIP3   OH256448   1.353   6.125   0.906
11678TIP3    H156449   1.276   6.174   0.936
11678TIP3    H256450   1.416   6.133   0.977
11679TIP3   OH256451   1.824   2.078  15.328
11679TIP3    H156452   1.904   2.072  15.275
11679TIP3    H256453   1.826   2.000  15.383
11680TIP3   OH256454   6.769   5.005  16.526
11680TIP3    H156455   6.774   5.034  16.435
11680TIP3    H256456   6.852   4.960  16.541
11681TIP3   OH256457   4.342   0.625   5.904
11681TIP3    H156458   4.402   0.689   5.942
11681TIP3    H256459   4.396   0.573   5.846
11682TIP3   OH256460   1.241   0.204   1.627
11682TIP3    H156461   1.216   0.152   1.703
11682TIP3    H256462   1.246   0.140   1.555
11683TIP3   OH256463   1.717   1.907  14.408
11683TIP3    H156464   1.758   1.993  14.400
11683TIP3    H256465   1.778   1.848  14.364
11684TIP3   OH256466   5.179   0.666  12.686
11684TIP3    H156467   5.166   0.724  12.761
11684TIP3    H256468   5.141   0.582  12.714
11685TIP3   OH256469   4.134   6.053  11.527
11685TIP3    H156470   4.070   6.039  11.597
11685TIP3    H256471   4.160   5.964  11.501
11686TIP3   OH256472   3.666   6.047   5.811
11686TIP3    H156473   3.576   6.027   5.786
11686TIP3    H256474   3.717   5.972   5.781
11687TIP3   OH256475   4.585   4.216   1.288
11687TIP3    H156476   4.562   4.283   1.353
11687TIP3    H256477   4.642   4.155   1.336
11688TIP3   OH256478   3.421   3.527   2.716
11688TIP3    H156479   3.362   3.579   2.770
11688TIP3    H256480   3.391   3.543   2.626
11689TIP3   OH256481   5.547   2.897   2.225
11689TIP3    H156482   5.536   2.812   2.183
11689TIP3    H256483   5.486   2.896   2.299
11690TIP3   OH256484   0.708   2.618  16.836
11690TIP3    H156485   0.791   2.632  16.881
11690TIP3    H256486   0.733   2.578  16.753
11691TIP3   OH256487   3.878   1.776   3.179
11691TIP3    H156488   3.878   1.681   3.173
11691TIP3    H256489   3.970   1.801   3.172
11692TIP3   OH256490   5.936   2.769  13.110
11692TIP3    H156491   5.878   2.827  13.159
11692TIP3    H256492   5.940   2.807  13.022
11693TIP3   OH256493   0.575   3.417  14.060
11693TIP3    H156494   0.530   3.499  14.040
11693TIP3    H256495   0.667   3.435  14.041
11694TIP3   OH256496   2.442   0.044  12.946
11694TIP3    H156497   2.532   0.034  12.976
11694TIP3    H256498   2.449   0.047  12.850
11695TIP3   OH256499   1.879   5.437   0.220
11695TIP3    H156500   1.868   5.521   0.177
11695TIP3    H256501   1.906   5.377   0.150
11696TIP3   OH256502   5.226   5.985  12.525
11696TIP3    H156503   5.203   5.894  12.545
11696TIP3    H256504   5.250   5.984  12.432
11697TIP3   OH256505   0.403   5.045   2.918
11697TIP3    H156506   0.491   5.018   2.890
11697TIP3    H256507   0.412   5.062   3.012
11698TIP3   OH256508   5.898   5.702   5.087
11698TIP3    H156509   5.821   5.737   5.044
11698TIP3    H256510   5.946   5.656   5.018
11699TIP3   OH256511   4.376   2.618   5.382
11699TIP3    H156512   4.447   2.564   5.347
11699TIP3    H256513   4.356   2.679   5.312
11700TIP3   OH256514   3.607   3.341  10.679
11700TIP3    H156515   3.583   3.294  10.599
11700TIP3    H256516   3.575   3.285  10.750
11701TIP3   OH256517   0.781   2.075  14.038
11701TIP3    H156518   0.807   2.102  14.125
11701TIP3    H256519   0.863   2.060  13.991
11702TIP3   OH256520   6.182   3.910  14.611
11702TIP3    H156521   6.157   3.818  14.610
11702TIP3    H256522   6.212   3.925  14.701
11703TIP3   OH256523   4.016   4.632  12.329
11703TIP3    H156524   4.046   4.572  12.398
11703TIP3    H256525   3.921   4.629  12.334
11704TIP3   OH256526   5.126   1.973   1.540
11704TIP3    H156527   5.103   2.047   1.484
11704TIP3    H256528   5.210   1.942   1.506
11705TIP3   OH256529   1.881   5.546   6.047
11705TIP3    H156530   1.853   5.461   6.014
11705TIP3    H256531   1.818   5.608   6.011
11706TIP3   OH256532   5.181   5.252   5.617
11706TIP3    H156533   5.222   5.338   5.603
11706TIP3    H256534   5.092   5.272   5.644
11707TIP3   OH256535   4.782   2.255  15.776
11707TIP3    H156536   4.772   2.206  15.857
11707TIP3    H256537   4.714   2.220  15.718
11708TIP3   OH256538   2.274   1.370   3.954
11708TIP3    H156539   2.329   1.442   3.922
11708TIP3    H256540   2.244   1.400   4.040
11709TIP3   OH256541   5.870   1.513   3.244
11709TIP3    H156542   5.781   1.504   3.279
11709TIP3    H256543   5.897   1.424   3.223
11710TIP3   OH256544   1.417   2.371  15.131
11710TIP3    H156545   1.399   2.316  15.054
11710TIP3    H256546   1.488   2.326  15.177
11711TIP3   OH256547   4.313   5.027  14.592
11711TIP3    H156548   4.269   5.090  14.534
11711TIP3    H256549   4.295   5.061  14.680
11712TIP3   OH256550   6.483   4.114  10.983
11712TIP3    H156551   6.394   4.092  10.957
11712TIP3    H256552   6.519   4.161  10.907
11713TIP3   OH256553   4.740   1.346   0.184
11713TIP3    H156554   4.815   1.296   0.217
11713TIP3    H256555   4.684   1.358   0.260
11714TIP3   OH256556   5.391   2.931   1.422
11714TIP3    H156557   5.370   2.933   1.516
11714TIP3    H256558   5.460   2.996   1.411
11715TIP3   OH256559   1.796   6.512  10.593
11715TIP3    H156560   1.758   6.438  10.545
11715TIP3    H256561   1.890   6.507  10.574
11716TIP3   OH256562   1.234   2.881   3.827
11716TIP3    H156563   1.200   2.802   3.868
11716TIP3    H256564   1.201   2.952   3.881
11717TIP3   OH256565   0.800   2.967  12.172
11717TIP3    H156566   0.714   2.929  12.185
11717TIP3    H256567   0.784   3.061  12.163
11718TIP3   OH256568   3.493   3.907   5.246
11718TIP3    H156569   3.465   3.889   5.335
11718TIP3    H256570   3.571   3.852   5.234
11719TIP3   OH256571   6.019   2.825  12.010
11719TIP3    H156572   5.937   2.841  12.057
11719TIP3    H256573   6.008   2.738  11.973
11720TIP3   OH256574   1.584   5.296  11.895
11720TIP3    H156575   1.543   5.211  11.911
11720TIP3    H256576   1.653   5.302  11.961
11721TIP3   OH256577   4.936   3.872   5.617
11721TIP3    H156578   4.934   3.888   5.523
11721TIP3    H256579   4.961   3.780   5.626
11722TIP3   OH256580   6.117   2.003   4.604
11722TIP3    H156581   6.145   2.087   4.639
11722TIP3    H256582   6.191   1.944   4.621
11723TIP3   OH256583   2.850   4.373   6.334
11723TIP3    H156584   2.754   4.378   6.338
11723TIP3    H256585   2.871   4.299   6.392
11724TIP3   OH256586   3.715   4.310  11.212
11724TIP3    H156587   3.800   4.279  11.181
11724TIP3    H256588   3.671   4.342  11.133
11725TIP3   OH256589   0.746   6.349   2.893
11725TIP3    H156590   0.668   6.309   2.932
11725TIP3    H256591   0.722   6.441   2.882
11726TIP3   OH256592   4.865   1.635   2.551
11726TIP3    H156593   4.932   1.587   2.601
11726TIP3    H256594   4.889   1.622   2.459
11727TIP3   OH256595   3.309   0.813   4.306
11727TIP3    H156596   3.398   0.825   4.274
11727TIP3    H256597   3.310   0.727   4.348
11728TIP3   OH256598   1.419   5.627   1.338
11728TIP3    H156599   1.362   5.685   1.389
11728TIP3    H256600   1.492   5.682   1.312
11729TIP3   OH256601   3.620   2.606   3.731
11729TIP3    H156602   3.708   2.570   3.725
11729TIP3    H256603   3.630   2.697   3.702
11730TIP3   OH256604   5.286   0.525  15.997
11730TIP3    H156605   5.216   0.480  16.044
11730TIP3    H256606   5.365   0.506  16.047
11731TIP3   OH256607   4.946   6.640   0.584
11731TIP3    H156608   4.864   6.652   0.535
11731TIP3    H256609   4.984   6.560   0.548
11732TIP3   OH256610   5.415   0.335  14.539
11732TIP3    H156611   5.341   0.318  14.480
11732TIP3    H256612   5.452   0.417  14.507
11733TIP3   OH256613   3.981   1.379  14.844
11733TIP3    H156614   4.026   1.430  14.777
11733TIP3    H256615   3.999   1.425  14.926
11734TIP3   OH256616   2.247   3.294   5.079
11734TIP3    H156617   2.321   3.354   5.088
11734TIP3    H256618   2.182   3.327   5.140
11735TIP3   OH256619   1.460   4.850  13.894
11735TIP3    H156620   1.489   4.929  13.939
11735TIP3    H256621   1.444   4.878  13.804
11736TIP3   OH256622   0.961   0.684  16.537
11736TIP3    H156623   0.913   0.674  16.455
11736TIP3    H256624   1.045   0.721  16.510
11737TIP3   OH256625   1.604   0.949   6.199
11737TIP3    H156626   1.643   1.022   6.248
11737TIP3    H256627   1.540   0.911   6.260
11738TIP3   OH256628   5.338   1.316   1.280
11738TIP3    H156629   5.282   1.242   1.301
11738TIP3    H256630   5.390   1.330   1.359
11739TIP3   OH256631   5.479   0.839  12.744
11739TIP3    H156632   5.423   0.861  12.669
11739TIP3    H256633   5.424   0.856  12.821
11740TIP3   OH256634   3.079   4.945   4.450
11740TIP3    H156635   3.092   4.865   4.501
11740TIP3    H256636   3.006   4.990   4.493
11741TIP3   OH256637   3.924   1.991  16.625
11741TIP3    H156638   4.009   2.006  16.667
11741TIP3    H256639   3.866   1.966  16.697
11742TIP3   OH256640   4.108   5.274   4.412
11742TIP3    H156641   4.096   5.289   4.318
11742TIP3    H256642   4.044   5.330   4.454
11743TIP3   OH256643   5.577   1.327   0.263
11743TIP3    H156644   5.527   1.289   0.191
11743TIP3    H256645   5.662   1.350   0.224
11744TIP3   OH256646   0.262   6.068  10.541
11744TIP3    H156647   0.215   6.146  10.570
11744TIP3    H256648   0.200   5.996  10.557
11745TIP3   OH256649   3.661   1.814   5.439
11745TIP3    H156650   3.720   1.870   5.490
11745TIP3    H256651   3.647   1.737   5.493
11746TIP3   OH256652   3.675   1.782  17.128
11746TIP3    H156653   3.642   1.701  17.090
11746TIP3    H256654   3.622   1.851  17.087
11747TIP3   OH256655   5.918   3.117  15.455
11747TIP3    H156656   5.848   3.098  15.392
11747TIP3    H256657   5.910   3.048  15.521
11748TIP3   OH256658   0.209   0.457  11.906
11748TIP3    H156659   0.125   0.492  11.874
11748TIP3    H256660   0.217   0.372  11.863
11749TIP3   OH256661   3.135   4.677  14.479
11749TIP3    H156662   3.159   4.605  14.538
11749TIP3    H256663   3.044   4.696  14.499
11750TIP3   OH256664   4.412   4.759   0.664
11750TIP3    H156665   4.464   4.685   0.632
11750TIP3    H256666   4.422   4.756   0.759
11751TIP3   OH256667   0.884   5.923  13.100
11751TIP3    H156668   0.822   5.850  13.102
11751TIP3    H256669   0.923   5.918  13.013
11752TIP3   OH256670   0.536   1.185  10.344
11752TIP3    H156671   0.625   1.189  10.379
11752TIP3    H256672   0.536   1.107  10.288
11753TIP3   OH256673   4.649   5.487   2.567
11753TIP3    H156674   4.726   5.467   2.620
11753TIP3    H256675   4.612   5.566   2.607
11754TIP3   OH256676   2.822   3.571  11.765
11754TIP3    H156677   2.903   3.611  11.733
11754TIP3    H256678   2.850   3.488  11.803
11755TIP3   OH256679   3.177   6.775  10.678
11755TIP3    H156680   3.245   6.770  10.744
11755TIP3    H256681   3.196   6.854  10.628
11756TIP3   OH256682   4.156   6.543   0.470
11756TIP3    H156683   4.100   6.582   0.403
11756TIP3    H256684   4.224   6.609   0.486
11757TIP3   OH256685   1.837   4.785   2.278
11757TIP3    H156686   1.817   4.875   2.302
11757TIP3    H256687   1.783   4.768   2.201
11758TIP3   OH256688   0.043   1.231  11.167
11758TIP3    H156689   0.047   1.324  11.144
11758TIP3    H256690   0.004   1.229  11.254
11759TIP3   OH256691   6.379   5.456  15.984
11759TIP3    H156692   6.372   5.541  16.027
11759TIP3    H256693   6.434   5.404  16.043
11760TIP3   OH256694   5.101   1.268   3.268
11760TIP3    H156695   5.181   1.216   3.274
11760TIP3    H256696   5.068   1.273   3.357
11761TIP3   OH256697   0.076   4.948   4.486
11761TIP3    H156698   0.069   4.880   4.552
11761TIP3    H256699   0.170   4.966   4.480
11762TIP3   OH256700   3.764   5.407  15.291
11762TIP3    H156701   3.819   5.486  15.287
11762TIP3    H256702   3.720   5.404  15.206
11763TIP3   OH256703   2.545   0.806  16.788
11763TIP3    H156704   2.456   0.840  16.783
11763TIP3    H256705   2.550   0.742  16.718
11764TIP3   OH256706   3.535   3.387  14.023
11764TIP3    H156707   3.604   3.335  14.063
11764TIP3    H256708   3.504   3.444  14.094
11765TIP3   OH256709   2.704   2.190   4.143
11765TIP3    H156710   2.743   2.208   4.058
11765TIP3    H256711   2.710   2.095   4.153
11766TIP3   OH256712   6.425   1.173  17.003
11766TIP3    H156713   6.464   1.190  17.088
11766TIP3    H256714   6.494   1.193  16.940
11767TIP3   OH256715   2.837   0.505  13.431
11767TIP3    H156716   2.861   0.581  13.379
11767TIP3    H256717   2.742   0.508  13.435
11768TIP3   OH256718   2.646   6.032  15.870
11768TIP3    H156719   2.715   6.091  15.842
11768TIP3    H256720   2.573   6.050  15.811
11769TIP3   OH256721   6.490   1.177   4.940
11769TIP3    H156722   6.482   1.133   4.855
11769TIP3    H256723   6.424   1.136   4.995
11770TIP3   OH256724   6.695   6.105  10.806
11770TIP3    H156725   6.630   6.174  10.822
11770TIP3    H256726   6.769   6.151  10.767
11771TIP3   OH256727   4.811   1.562   1.129
11771TIP3    H156728   4.753   1.489   1.151
11771TIP3    H256729   4.850   1.538   1.045
11772TIP3   OH256730   3.762   3.546  10.768
11772TIP3    H156731   3.831   3.494  10.809
11772TIP3    H256732   3.719   3.485  10.709
11773TIP3   OH256733   3.995   6.315   1.357
11773TIP3    H156734   4.032   6.350   1.438
11773TIP3    H256735   4.067   6.320   1.294
11774TIP3   OH256736   3.519   1.235  16.930
11774TIP3    H156737   3.454   1.180  16.974
11774TIP3    H256738   3.500   1.224  16.837
11775TIP3   OH256739   4.055   5.900   2.476
11775TIP3    H156740   4.130   5.945   2.514
11775TIP3    H256741   4.094   5.839   2.412
11776TIP3   OH256742   2.341   2.407   4.697
11776TIP3    H156743   2.404   2.460   4.745
11776TIP3    H256744   2.343   2.321   4.739
11777TIP3   OH256745   0.398   5.415  15.827
11777TIP3    H156746   0.311   5.384  15.849
11777TIP3    H256747   0.455   5.339  15.844
11778TIP3   OH256748   2.034   3.358   3.463
11778TIP3    H156749   2.024   3.321   3.375
11778TIP3    H256750   2.115   3.409   3.458
11779TIP3   OH256751   1.162   4.494  15.944
11779TIP3    H156752   1.131   4.534  16.025
11779TIP3    H256753   1.100   4.524  15.877
11780TIP3   OH256754   1.916   1.875  12.380
11780TIP3    H156755   1.906   1.848  12.289
11780TIP3    H256756   1.887   1.966  12.381
11781TIP3   OH256757   0.945   5.882   2.839
11781TIP3    H156758   0.857   5.919   2.835
11781TIP3    H256759   0.947   5.816   2.770
11782TIP3   OH256760   4.443   2.048   6.326
11782TIP3    H156761   4.489   2.038   6.409
11782TIP3    H256762   4.389   1.969   6.320
11783TIP3   OH256763   4.433   6.083  12.969
11783TIP3    H156764   4.480   6.166  12.964
11783TIP3    H256765   4.403   6.078  13.060
11784TIP3   OH256766   0.453   0.430   4.851
11784TIP3    H156767   0.429   0.375   4.925
11784TIP3    H256768   0.539   0.397   4.823
11785TIP3   OH256769   2.679   4.557  13.869
11785TIP3    H156770   2.680   4.599  13.956
11785TIP3    H256771   2.629   4.477  13.882
11786TIP3   OH256772   5.693   4.811  11.671
11786TIP3    H156773   5.640   4.746  11.716
11786TIP3    H256774   5.740   4.762  11.604
11787TIP3   OH256775   3.212   2.402   1.126
11787TIP3    H156776   3.230   2.346   1.050
11787TIP3    H256777   3.131   2.448   1.103
11788TIP3   OH256778   3.465   1.103   4.410
11788TIP3    H156779   3.423   1.090   4.326
11788TIP3    H256780   3.425   1.038   4.468
11789TIP3   OH256781   5.513   6.349   3.912
11789TIP3    H156782   5.504   6.310   3.999
11789TIP3    H256783   5.479   6.438   3.923
11790TIP3   OH256784   0.297   1.881   1.780
11790TIP3    H156785   0.378   1.877   1.730
11790TIP3    H256786   0.288   1.974   1.804
11791TIP3   OH256787   5.544   4.548   2.249
11791TIP3    H156788   5.554   4.572   2.341
11791TIP3    H256789   5.522   4.630   2.205
11792TIP3   OH256790   2.456   0.645   3.487
11792TIP3    H156791   2.389   0.586   3.452
11792TIP3    H256792   2.536   0.593   3.486
11793TIP3   OH256793   4.342   4.553   2.641
11793TIP3    H156794   4.418   4.498   2.620
11793TIP3    H256795   4.363   4.638   2.601
11794TIP3   OH256796   0.412   5.673   4.842
11794TIP3    H156797   0.392   5.586   4.805
11794TIP3    H256798   0.506   5.683   4.829
11795TIP3   OH256799   6.058   2.163   2.385
11795TIP3    H156800   6.062   2.259   2.394
11795TIP3    H256801   5.974   2.139   2.425
11796TIP3   OH256802   6.692   1.577  14.785
11796TIP3    H156803   6.619   1.582  14.846
11796TIP3    H256804   6.770   1.586  14.840
11797TIP3   OH256805   6.150   6.179   4.088
11797TIP3    H156806   6.079   6.187   4.024
11797TIP3    H256807   6.223   6.228   4.049
11798TIP3   OH256808   0.518   6.656  12.497
11798TIP3    H156809   0.597   6.616  12.531
11798TIP3    H256810   0.447   6.615  12.547
11799TIP3   OH256811   6.023   6.291   2.285
11799TIP3    H156812   6.008   6.196   2.285
11799TIP3    H256813   6.066   6.308   2.369
11800TIP3   OH256814   0.648   0.719   2.482
11800TIP3    H156815   0.671   0.804   2.446
11800TIP3    H256816   0.721   0.662   2.458
11801TIP3   OH256817   6.580   5.038  16.991
11801TIP3    H156818   6.658   5.043  16.937
11801TIP3    H256819   6.517   4.988  16.939
11802TIP3   OH256820   4.052   2.231  15.925
11802TIP3    H156821   3.962   2.207  15.948
11802TIP3    H256822   4.100   2.229  16.008
11803TIP3   OH256823   3.055   0.207  16.697
11803TIP3    H156824   3.000   0.176  16.769
11803TIP3    H256825   2.994   0.241  16.632
11804TIP3   OH256826   1.528   1.391  14.597
11804TIP3    H156827   1.585   1.343  14.537
11804TIP3    H256828   1.462   1.327  14.625
11805TIP3   OH256829   3.852   1.900  15.649
11805TIP3    H156830   3.912   1.851  15.592
11805TIP3    H256831   3.810   1.963  15.591
11806TIP3   OH256832   3.422   0.844  16.722
11806TIP3    H156833   3.388   0.854  16.811
11806TIP3    H256834   3.497   0.903  16.719
11807TIP3   OH256835   2.906   2.348  15.043
11807TIP3    H156836   2.911   2.305  14.958
11807TIP3    H256837   2.882   2.278  15.104
11808TIP3   OH256838   0.811   4.757   0.655
11808TIP3    H156839   0.822   4.693   0.726
11808TIP3    H256840   0.780   4.836   0.699
11809TIP3   OH256841   6.468   5.928   2.527
11809TIP3    H156842   6.513   6.012   2.540
11809TIP3    H256843   6.456   5.923   2.432
11810TIP3   OH256844   1.843   4.301   2.072
11810TIP3    H156845   1.794   4.382   2.080
11810TIP3    H256846   1.780   4.232   2.092
11811TIP3   OH256847   0.102   3.918  15.872
11811TIP3    H156848   0.046   3.856  15.827
11811TIP3    H256849   0.128   3.981  15.805
11812TIP3   OH256850   3.147   0.084  12.854
11812TIP3    H156851   3.075   0.143  12.832
11812TIP3    H256852   3.103   0.001  12.875
11813TIP3   OH256853   0.656   1.380   3.120
11813TIP3    H156854   0.671   1.407   3.211
11813TIP3    H256855   0.561   1.376   3.112
11814TIP3   OH256856   3.625   0.352   0.594
11814TIP3    H156857   3.678   0.362   0.673
11814TIP3    H256858   3.609   0.257   0.588
11815TIP3   OH256859   6.384   5.708  16.129
11815TIP3    H156860   6.445   5.775  16.161
11815TIP3    H256861   6.322   5.697  16.202
11816TIP3   OH256862   3.999   0.963   6.155
11816TIP3    H156863   3.938   0.890   6.148
11816TIP3    H256864   3.988   1.011   6.074
11817TIP3   OH256865   6.413   5.267   2.975
11817TIP3    H156866   6.381   5.350   2.940
11817TIP3    H256867   6.404   5.205   2.902
11818TIP3   OH256868   5.336   4.287  16.214
11818TIP3    H156869   5.335   4.225  16.141
11818TIP3    H256870   5.418   4.335  16.205
11819TIP3   OH256871   0.775   3.702  11.124
11819TIP3    H156872   0.846   3.673  11.065
11819TIP3    H256873   0.813   3.774  11.174
11820TIP3   OH256874   3.144   5.759   4.537
11820TIP3    H156875   3.055   5.731   4.513
11820TIP3    H256876   3.151   5.847   4.502
11821TIP3   OH256877   0.410   2.501   4.016
11821TIP3    H156878   0.489   2.470   4.061
11821TIP3    H256879   0.440   2.524   3.928
11822TIP3   OH256880   2.111   5.073   1.543
11822TIP3    H156881   2.117   5.118   1.627
11822TIP3    H256882   2.075   5.139   1.483
11823TIP3   OH256883   2.996   3.126   5.520
11823TIP3    H156884   2.979   3.158   5.431
11823TIP3    H256885   3.069   3.066   5.511
11824TIP3   OH256886   1.782   0.105  10.889
11824TIP3    H156887   1.851   0.115  10.824
11824TIP3    H256888   1.781   0.188  10.936
11825TIP3   OH256889   2.682   5.473  17.018
11825TIP3    H156890   2.686   5.504  16.927
11825TIP3    H256891   2.723   5.387  17.015
11826TIP3   OH256892   3.618   1.258  15.198
11826TIP3    H156893   3.551   1.223  15.257
11826TIP3    H256894   3.653   1.334  15.244
11827TIP3   OH256895   4.460   6.019  16.814
11827TIP3    H156896   4.498   5.973  16.888
11827TIP3    H256897   4.379   5.971  16.796
11828TIP3   OH256898   4.464   0.183  15.405
11828TIP3    H156899   4.375   0.187  15.372
11828TIP3    H256900   4.468   0.100  15.453
11829TIP3   OH256901   5.132   2.195  12.599
11829TIP3    H156902   5.153   2.269  12.656
11829TIP3    H256903   5.041   2.209  12.574
11830TIP3   OH256904   6.566   5.091  15.538
11830TIP3    H156905   6.644   5.073  15.484
11830TIP3    H256906   6.496   5.042  15.495
11831TIP3   OH256907   1.763   6.543  13.740
11831TIP3    H156908   1.700   6.482  13.777
11831TIP3    H256909   1.847   6.497  13.746
11832TIP3   OH256910   0.651   6.032   1.410
11832TIP3    H156911   0.731   6.034   1.358
11832TIP3    H256912   0.632   5.938   1.421
11833TIP3   OH256913   5.909   4.427  12.293
11833TIP3    H156914   5.941   4.487  12.226
11833TIP3    H256915   5.989   4.389  12.330
11834TIP3   OH256916   5.581   3.265   3.459
11834TIP3    H156917   5.633   3.276   3.539
11834TIP3    H256918   5.601   3.175   3.431
11835TIP3   OH256919   0.173   2.866   3.361
11835TIP3    H156920   0.223   2.840   3.283
11835TIP3    H256921   0.099   2.916   3.327
11836TIP3   OH256922   5.650   2.855  13.985
11836TIP3    H156923   5.736   2.811  13.987
11836TIP3    H256924   5.592   2.792  13.943
11837TIP3   OH256925   4.351   4.438   0.106
11837TIP3    H156926   4.377   4.518   0.061
11837TIP3    H256927   4.296   4.392   0.042
11838TIP3   OH256928   1.371   4.749   3.908
11838TIP3    H156929   1.313   4.697   3.853
11838TIP3    H256930   1.390   4.692   3.983
11839TIP3   OH256931   0.205   4.614  14.569
11839TIP3    H156932   0.136   4.610  14.502
11839TIP3    H256933   0.245   4.528  14.566
11840TIP3   OH256934   5.611   0.754  11.277
11840TIP3    H156935   5.565   0.731  11.196
11840TIP3    H256936   5.638   0.845  11.263
11841TIP3   OH256937   2.795   0.966  13.648
11841TIP3    H156938   2.828   0.878  13.667
11841TIP3    H256939   2.755   0.958  13.562
11842TIP3   OH256940   6.728   4.570   1.086
11842TIP3    H156941   6.822   4.581   1.103
11842TIP3    H256942   6.687   4.639   1.138
11843TIP3   OH256943   6.117   2.435   2.340
11843TIP3    H156944   6.189   2.461   2.283
11843TIP3    H256945   6.135   2.477   2.423
11844TIP3   OH256946   1.146   1.255  16.399
11844TIP3    H156947   1.189   1.325  16.351
11844TIP3    H256948   1.055   1.257  16.367
11845TIP3   OH256949   4.032   1.756  14.377
11845TIP3    H156950   4.126   1.754  14.398
11845TIP3    H256951   3.992   1.802  14.451
11846TIP3   OH256952   4.546   4.854   4.535
11846TIP3    H156953   4.601   4.916   4.487
11846TIP3    H256954   4.521   4.788   4.470
11847TIP3   OH256955   1.305   1.987   5.344
11847TIP3    H156956   1.253   1.986   5.264
11847TIP3    H256957   1.261   2.051   5.400
11848TIP3   OH256958   4.822   3.010   4.370
11848TIP3    H156959   4.785   2.976   4.289
11848TIP3    H256960   4.770   2.970   4.439
11849TIP3   OH256961   1.152   4.176  10.713
11849TIP3    H156962   1.197   4.161  10.630
11849TIP3    H256963   1.223   4.188  10.777
11850TIP3   OH256964   3.872   2.062  17.220
11850TIP3    H156965   3.956   2.079  17.178
11850TIP3    H256966   3.871   1.967  17.235
11851TIP3   OH256967   4.096   3.758  10.716
11851TIP3    H156968   4.098   3.845  10.675
11851TIP3    H256969   4.183   3.749  10.755
11852TIP3   OH256970   5.502   3.905   4.126
11852TIP3    H156971   5.537   3.821   4.094
11852TIP3    H256972   5.575   3.945   4.173
11853TIP3   OH256973   1.573   6.686  10.606
11853TIP3    H156974   1.662   6.651  10.609
11853TIP3    H256975   1.517   6.608  10.605
11854TIP3   OH256976   6.027   6.606  15.338
11854TIP3    H156977   6.047   6.699  15.324
11854TIP3    H256978   5.954   6.606  15.399
11855TIP3   OH256979   0.980   3.708  11.847
11855TIP3    H156980   1.014   3.743  11.929
11855TIP3    H256981   0.927   3.778  11.810
11856TIP3   OH256982   4.097   3.979  15.875
11856TIP3    H156983   4.048   3.901  15.848
11856TIP3    H256984   4.062   4.049  15.820
11857TIP3   OH256985   6.190   6.548   5.063
11857TIP3    H156986   6.152   6.577   5.146
11857TIP3    H256987   6.212   6.456   5.077
11858TIP3   OH256988   1.091   1.329   6.466
11858TIP3    H156989   1.051   1.254   6.510
11858TIP3    H256990   1.073   1.403   6.525
11859TIP3   OH256991   4.594   5.716   1.228
11859TIP3    H156992   4.673   5.761   1.259
11859TIP3    H256993   4.533   5.723   1.301
11860TIP3   OH256994   2.340   1.857   6.483
11860TIP3    H156995   2.279   1.884   6.413
11860TIP3    H256996   2.407   1.925   6.483
11861TIP3   OH256997   0.359   4.729   1.843
11861TIP3    H156998   0.306   4.721   1.922
11861TIP3    H256999   0.325   4.662   1.784
11862TIP3   OH257000   5.053   5.046  15.264
11862TIP3    H157001   4.958   5.032  15.271
11862TIP3    H257002   5.067   5.136  15.292
11863TIP3   OH257003   0.778   1.084  15.674
11863TIP3    H157004   0.727   1.163  15.694
11863TIP3    H257005   0.749   1.058  15.587
11864TIP3   OH257006   5.737   6.299  16.171
11864TIP3    H157007   5.689   6.217  16.167
11864TIP3    H257008   5.744   6.318  16.264
11865TIP3   OH257009   2.162   1.362  10.775
11865TIP3    H157010   2.150   1.289  10.715
11865TIP3    H257011   2.112   1.434  10.736
11866TIP3   OH257012   3.246   0.697   2.281
11866TIP3    H157013   3.256   0.721   2.189
11866TIP3    H257014   3.267   0.777   2.329
11867TIP3   OH257015   1.113   1.559   1.943
11867TIP3    H157016   1.109   1.648   1.907
11867TIP3    H257017   1.023   1.526   1.934
11868TIP3   OH257018   5.617   4.480  15.491
11868TIP3    H157019   5.614   4.540  15.416
11868TIP3    H257020   5.625   4.538  15.567
11869TIP3   OH257021   2.824   4.894   3.931
11869TIP3    H157022   2.883   4.834   3.977
11869TIP3    H257023   2.880   4.938   3.867
11870TIP3   OH257024   5.585   3.620  12.876
11870TIP3    H157025   5.583   3.713  12.897
11870TIP3    H257026   5.674   3.592  12.898
11871TIP3   OH257027   3.823   0.761  16.607
11871TIP3    H157028   3.762   0.772  16.534
11871TIP3    H257029   3.791   0.822  16.674
11872TIP3   OH257030   5.988   6.732   0.246
11872TIP3    H157031   6.061   6.756   0.189
11872TIP3    H257032   6.022   6.744   0.335
11873TIP3   OH257033   2.389   3.890   5.927
11873TIP3    H157034   2.303   3.891   5.969
11873TIP3    H257035   2.382   3.951   5.855
11874TIP3   OH257036   5.981   0.294   4.465
11874TIP3    H157037   6.010   0.309   4.555
11874TIP3    H257038   5.915   0.225   4.473
11875TIP3   OH257039   2.543   1.653  15.900
11875TIP3    H157040   2.475   1.631  15.835
11875TIP3    H257041   2.511   1.735  15.939
11876TIP3   OH257042   4.691   3.913   6.376
11876TIP3    H157043   4.767   3.911   6.318
11876TIP3    H257044   4.618   3.937   6.318
11877TIP3   OH257045   5.099   3.569  16.853
11877TIP3    H157046   5.121   3.496  16.911
11877TIP3    H257047   5.009   3.592  16.876
11878TIP3   OH257048   2.526   2.157  12.488
11878TIP3    H157049   2.494   2.239  12.450
11878TIP3    H257050   2.503   2.090  12.423
11879TIP3   OH257051   3.897   0.420  14.598
11879TIP3    H157052   3.881   0.440  14.505
11879TIP3    H257053   3.872   0.328  14.608
11880TIP3   OH257054   4.473   6.393   3.750
11880TIP3    H157055   4.492   6.304   3.781
11880TIP3    H257056   4.413   6.380   3.676
11881TIP3   OH257057   2.894   5.930  16.243
11881TIP3    H157058   2.974   5.880  16.227
11881TIP3    H257059   2.895   5.997  16.175
11882TIP3   OH257060   3.464   6.397   4.438
11882TIP3    H157061   3.373   6.381   4.412
11882TIP3    H257062   3.464   6.486   4.473
11883TIP3   OH257063   4.604   1.760   2.522
11883TIP3    H157064   4.573   1.691   2.464
11883TIP3    H257065   4.689   1.729   2.554
11884TIP3   OH257066   1.642   1.728   4.435
11884TIP3    H157067   1.688   1.647   4.414
11884TIP3    H257068   1.573   1.734   4.369
11885TIP3   OH257069   4.707   4.879   0.306
11885TIP3    H157070   4.612   4.877   0.295
11885TIP3    H257071   4.720   4.892   0.400
11886TIP3   OH257072   1.477   1.717   4.207
11886TIP3    H157073   1.408   1.666   4.164
11886TIP3    H257074   1.556   1.695   4.158
11887TIP3   OH257075   4.785   0.675   5.546
11887TIP3    H157076   4.786   0.748   5.485
11887TIP3    H257077   4.785   0.715   5.633
11888TIP3   OH257078   2.185   6.693  12.630
11888TIP3    H157079   2.214   6.621  12.574
11888TIP3    H257080   2.131   6.747  12.573
11889TIP3   OH257081   1.244   3.057  14.358
11889TIP3    H157082   1.186   3.040  14.283
11889TIP3    H257083   1.260   2.971  14.396
11890TIP3   OH257084   4.087   1.714   0.628
11890TIP3    H157085   4.177   1.684   0.638
11890TIP3    H257086   4.079   1.738   0.536
11891TIP3   OH257087   2.433   2.092   0.346
11891TIP3    H157088   2.528   2.085   0.342
11891TIP3    H257089   2.411   2.079   0.439
11892TIP3   OH257090   6.526   4.523   0.618
11892TIP3    H157091   6.500   4.560   0.703
11892TIP3    H257092   6.512   4.429   0.627
11893TIP3   OH257093   4.226   3.912   1.614
11893TIP3    H157094   4.319   3.923   1.634
11893TIP3    H257095   4.181   3.932   1.696
11894TIP3   OH257096   4.036   5.388  16.283
11894TIP3    H157097   4.029   5.311  16.226
11894TIP3    H257098   3.981   5.454  16.240
11895TIP3   OH257099   5.387   1.929   1.445
11895TIP3    H157100   5.417   1.913   1.355
11895TIP3    H257101   5.445   1.876   1.499
11896TIP3   OH257102   1.311   2.160   6.873
11896TIP3    H157103   1.252   2.230   6.901
11896TIP3    H257104   1.359   2.198   6.799
11897TIP3   OH257105   3.816   5.643  16.886
11897TIP3    H157106   3.732   5.673  16.921
11897TIP3    H257107   3.867   5.723  16.874
11898TIP3   OH257108   0.441   6.019  13.399
11898TIP3    H157109   0.406   6.089  13.453
11898TIP3    H257110   0.392   5.941  13.426
11899TIP3   OH257111   3.255   6.352   3.324
11899TIP3    H157112   3.256   6.355   3.229
11899TIP3    H257113   3.164   6.335   3.347
11900TIP3   OH257114   2.410   4.116   5.679
11900TIP3    H157115   2.326   4.129   5.635
11900TIP3    H257116   2.451   4.044   5.630
11901TIP3   OH257117   1.743   0.807  14.936
11901TIP3    H157118   1.813   0.750  14.967
11901TIP3    H257119   1.670   0.788  14.994
11902TIP3   OH257120   2.955   3.427   3.183
11902TIP3    H157121   2.913   3.359   3.129
11902TIP3    H257122   2.953   3.505   3.128
11903TIP3   OH257123   3.715   4.176   3.080
11903TIP3    H157124   3.806   4.172   3.051
11903TIP3    H257125   3.710   4.112   3.151
11904TIP3   OH257126   4.372   1.789   0.486
11904TIP3    H157127   4.398   1.740   0.408
11904TIP3    H257128   4.354   1.722   0.552
11905TIP3   OH257129   1.658   0.372  16.062
11905TIP3    H157130   1.687   0.394  16.151
11905TIP3    H257131   1.586   0.433  16.045
11906TIP3   OH257132   6.580   3.264   1.288
11906TIP3    H157133   6.589   3.214   1.369
11906TIP3    H257134   6.522   3.210   1.233
11907TIP3   OH257135   2.675   4.370   2.972
11907TIP3    H157136   2.752   4.425   2.983
11907TIP3    H257137   2.708   4.289   2.935
11908TIP3   OH257138   2.160   0.994   6.687
11908TIP3    H157139   2.130   1.067   6.741
11908TIP3    H257140   2.254   0.988   6.705
11909TIP3   OH257141   3.043   4.914   2.325
11909TIP3    H157142   2.999   4.921   2.240
11909TIP3    H257143   3.136   4.925   2.304
11910TIP3   OH257144   5.144   6.414   0.939
11910TIP3    H157145   5.163   6.366   1.019
11910TIP3    H257146   5.109   6.348   0.879
11911TIP3   OH257147   4.864   2.084   4.415
11911TIP3    H157148   4.945   2.035   4.406
11911TIP3    H257149   4.863   2.144   4.340
11912TIP3   OH257150   1.472   3.847  14.175
11912TIP3    H157151   1.489   3.754  14.159
11912TIP3    H257152   1.409   3.872  14.107
11913TIP3   OH257153   4.757   4.170   3.475
11913TIP3    H157154   4.847   4.137   3.480
11913TIP3    H257155   4.762   4.243   3.413
11914TIP3   OH257156   1.462   3.225  12.453
11914TIP3    H157157   1.385   3.169  12.444
11914TIP3    H257158   1.452   3.267  12.539
11915TIP3   OH257159   5.214   1.980  13.429
11915TIP3    H157160   5.298   1.938  13.411
11915TIP3    H257161   5.216   2.061  13.378
11916TIP3   OH257162   1.798   2.902  10.564
11916TIP3    H157163   1.884   2.897  10.606
11916TIP3    H257164   1.797   2.989  10.523
11917TIP3   OH257165   4.575   5.633  13.735
11917TIP3    H157166   4.639   5.567  13.708
11917TIP3    H257167   4.564   5.618  13.829
11918TIP3   OH257168   1.675   0.828  15.551
11918TIP3    H157169   1.627   0.903  15.587
11918TIP3    H257170   1.646   0.754  15.605
11919TIP3   OH257171   6.412   0.371   5.821
11919TIP3    H157172   6.401   0.323   5.903
11919TIP3    H257173   6.422   0.463   5.847
11920TIP3   OH257174   2.264   4.065   5.200
11920TIP3    H157175   2.284   3.982   5.242
11920TIP3    H257176   2.340   4.120   5.218
11921TIP3   OH257177   6.472   1.422   2.833
11921TIP3    H157178   6.525   1.353   2.873
11921TIP3    H257179   6.409   1.447   2.901
11922TIP3   OH257180   4.477   3.581  13.846
11922TIP3    H157181   4.471   3.608  13.937
11922TIP3    H257182   4.464   3.486  13.848
11923TIP3   OH257183   4.855   6.008   5.273
11923TIP3    H157184   4.905   5.980   5.196
11923TIP3    H257185   4.882   6.099   5.288
11924TIP3   OH257186   1.883   4.676   1.326
11924TIP3    H157187   1.968   4.637   1.307
11924TIP3    H257188   1.896   4.725   1.407
11925TIP3   OH257189   1.910   3.536  12.145
11925TIP3    H157190   1.882   3.616  12.099
11925TIP3    H257191   1.849   3.469  12.115
11926TIP3   OH257192   2.767   6.691  14.334
11926TIP3    H157193   2.753   6.611  14.283
11926TIP3    H257194   2.691   6.695  14.393
11927TIP3   OH257195   5.682   1.792   2.378
11927TIP3    H157196   5.599   1.775   2.423
11927TIP3    H257197   5.732   1.845   2.439
11928TIP3   OH257198   0.474   0.778   2.686
11928TIP3    H157199   0.536   0.758   2.616
11928TIP3    H257200   0.406   0.831   2.643
11929TIP3   OH257201   5.686   3.712   6.262
11929TIP3    H157202   5.658   3.665   6.184
11929TIP3    H257203   5.633   3.674   6.333
11930TIP3   OH257204   3.977   1.289  16.437
11930TIP3    H157205   3.968   1.227  16.366
11930TIP3    H257206   4.013   1.238  16.510
11931TIP3   OH257207   2.357   1.903   4.012
11931TIP3    H157208   2.332   1.829   4.067
11931TIP3    H257209   2.288   1.908   3.946
11932TIP3   OH257210   6.198   1.637   1.065
11932TIP3    H157211   6.284   1.679   1.064
11932TIP3    H257212   6.169   1.639   0.973
11933TIP3   OH257213   0.135   2.389   0.022
11933TIP3    H157214   0.146   2.484   0.027
11933TIP3    H257215   0.041   2.377   0.007
11934TIP3   OH257216   4.783   5.218  15.059
11934TIP3    H157217   4.782   5.247  15.150
11934TIP3    H257218   4.876   5.201  15.041
11935TIP3   OH257219   6.321   0.820  13.130
11935TIP3    H157220   6.267   0.756  13.176
11935TIP3    H257221   6.380   0.767  13.076
11936TIP3   OH257222   3.867   2.864   3.923
11936TIP3    H157223   3.781   2.847   3.885
11936TIP3    H257224   3.928   2.850   3.850
11937TIP3   OH257225   4.543   5.646  15.993
11937TIP3    H157226   4.579   5.563  15.961
11937TIP3    H257227   4.484   5.621  16.064
11938TIP3   OH257228   4.155   0.012  12.440
11938TIP3    H157229   4.231   0.066  12.417
11938TIP3    H257230   4.191  -0.074  12.458
11939TIP3   OH257231   5.734   5.432   4.856
11939TIP3    H157232   5.822   5.412   4.888
11939TIP3    H257233   5.685   5.459   4.934
11940TIP3   OH257234   4.906   0.966   6.101
11940TIP3    H157235   4.974   0.926   6.047
11940TIP3    H257236   4.851   0.893   6.129
11941TIP3   OH257237   0.862   1.377   6.338
11941TIP3    H157238   0.952   1.346   6.352
11941TIP3    H257239   0.807   1.300   6.351
11942TIP3   OH257240   6.115   1.408  12.235
11942TIP3    H157241   6.152   1.335  12.285
11942TIP3    H257242   6.187   1.471  12.228
11943TIP3   OH257243   2.506   1.799   6.770
11943TIP3    H157244   2.411   1.811   6.772
11943TIP3    H257245   2.518   1.705   6.764
11944TIP3   OH257246   6.751   5.771   6.158
11944TIP3    H157247   6.809   5.705   6.195
11944TIP3    H257248   6.722   5.823   6.233
11945TIP3   OH257249   4.387   2.049  14.346
11945TIP3    H157250   4.349   2.133  14.371
11945TIP3    H257251   4.479   2.055  14.371
11946TIP3   OH257252   5.144   1.393   2.165
11946TIP3    H157253   5.171   1.444   2.088
11946TIP3    H257254   5.192   1.432   2.238
11947TIP3   OH257255   2.079   6.101   2.036
11947TIP3    H157256   2.048   6.132   1.951
11947TIP3    H257257   2.112   6.013   2.019
11948TIP3   OH257258   3.900   1.948   2.081
11948TIP3    H157259   3.957   2.022   2.059
11948TIP3    H257260   3.956   1.890   2.132
11949TIP3   OH257261   1.137   5.019  13.189
11949TIP3    H157262   1.076   4.945  13.190
11949TIP3    H257263   1.080   5.096  13.197
11950TIP3   OH257264   1.976   0.649  15.529
11950TIP3    H157265   2.008   0.560  15.512
11950TIP3    H257266   1.890   0.652  15.487
11951TIP3   OH257267   3.925   2.011   3.396
11951TIP3    H157268   3.991   2.033   3.330
11951TIP3    H257269   3.974   1.973   3.468
11952TIP3   OH257270   5.091   5.293  10.938
11952TIP3    H157271   5.143   5.364  10.976
11952TIP3    H257272   5.149   5.217  10.939
11953TIP3   OH257273   3.804   0.586  11.694
11953TIP3    H157274   3.893   0.620  11.679
11953TIP3    H257275   3.814   0.525  11.767
11954TIP3   OH257276   1.416   4.715  14.847
11954TIP3    H157277   1.469   4.660  14.789
11954TIP3    H257278   1.406   4.663  14.927
11955TIP3   OH257279   0.765   2.481  12.137
11955TIP3    H157280   0.824   2.486  12.062
11955TIP3    H257281   0.776   2.392  12.171
11956TIP3   OH257282   3.181   6.392   0.907
11956TIP3    H157283   3.243   6.466   0.910
11956TIP3    H257284   3.199   6.342   0.986
11957TIP3   OH257285   2.336   1.111  15.649
11957TIP3    H157286   2.395   1.116  15.574
11957TIP3    H257287   2.309   1.020  15.653
11958TIP3   OH257288   3.546   1.122  14.459
11958TIP3    H157289   3.546   1.083  14.546
11958TIP3    H257290   3.538   1.048  14.399
11959TIP3   OH257291   2.616   0.535  13.985
11959TIP3    H157292   2.600   0.473  13.914
11959TIP3    H257293   2.694   0.501  14.030
11960TIP3   OH257294   6.074   4.027   1.817
11960TIP3    H157295   6.169   4.025   1.832
11960TIP3    H257296   6.061   4.096   1.752
11961TIP3   OH257297   3.855   2.416  16.689
11961TIP3    H157298   3.929   2.388  16.742
11961TIP3    H257299   3.847   2.350  16.621
11962TIP3   OH257300   2.017   6.157   2.531
11962TIP3    H157301   2.013   6.252   2.548
11962TIP3    H257302   2.109   6.140   2.512
11963TIP3   OH257303   2.953   0.110  16.937
11963TIP3    H157304   2.925   0.019  16.949
11963TIP3    H257305   2.915   0.157  17.012
11964TIP3   OH257306   1.455   3.351  16.981
11964TIP3    H157307   1.398   3.415  17.024
11964TIP3    H257308   1.521   3.403  16.936
11965TIP3   OH257309   5.177   5.982   3.754
11965TIP3    H157310   5.246   5.921   3.728
11965TIP3    H257311   5.128   5.935   3.821
11966TIP3   OH257312   0.434   3.922   0.553
11966TIP3    H157313   0.399   4.000   0.510
11966TIP3    H257314   0.492   3.882   0.487
11967TIP3   OH257315   5.042   4.320  12.463
11967TIP3    H157316   5.129   4.285  12.445
11967TIP3    H257317   4.997   4.320  12.378
11968TIP3   OH257318   3.336   3.093   6.034
11968TIP3    H157319   3.320   2.999   6.037
11968TIP3    H257320   3.282   3.125   5.961
11969TIP3   OH257321   0.422   3.374   3.477
11969TIP3    H157322   0.405   3.414   3.562
11969TIP3    H257323   0.336   3.359   3.439
11970TIP3   OH257324   1.767   5.020   0.389
11970TIP3    H157325   1.811   5.060   0.315
11970TIP3    H257326   1.673   5.033   0.373
11971TIP3   OH257327   4.078   5.779  15.029
11971TIP3    H157328   4.096   5.816  15.115
11971TIP3    H257329   4.094   5.685  15.040
11972TIP3   OH257330   2.872   5.629   5.466
11972TIP3    H157331   2.920   5.619   5.548
11972TIP3    H257332   2.939   5.645   5.400
11973TIP3   OH257333   6.336   2.595  13.352
11973TIP3    H157334   6.255   2.610  13.401
11973TIP3    H257335   6.389   2.672  13.370
11974TIP3   OH257336   6.413   0.843   0.639
11974TIP3    H157337   6.434   0.768   0.583
11974TIP3    H257338   6.332   0.878   0.603
11975TIP3   OH257339   4.131   6.225   2.270
11975TIP3    H157340   4.202   6.256   2.214
11975TIP3    H257341   4.092   6.305   2.306
11976TIP3   OH257342   1.615   2.964   1.017
11976TIP3    H157343   1.574   2.975   0.931
11976TIP3    H257344   1.671   2.887   1.008
11977TIP3   OH257345   2.192   4.705   6.007
11977TIP3    H157346   2.263   4.677   5.951
11977TIP3    H257347   2.166   4.626   6.055
11978TIP3   OH257348   0.141   3.772   3.891
11978TIP3    H157349   0.234   3.789   3.874
11978TIP3    H257350   0.141   3.721   3.972
11979TIP3   OH257351   2.363   3.914  11.771
11979TIP3    H157352   2.291   3.973  11.749
11979TIP3    H257353   2.333   3.868  11.849
11980TIP3   OH257354   0.926   4.495   3.528
11980TIP3    H157355   0.882   4.521   3.447
11980TIP3    H257356   0.854   4.481   3.590
11981TIP3   OH257357   0.895   2.891   4.503
11981TIP3    H157358   0.844   2.818   4.537
11981TIP3    H257359   0.877   2.890   4.409
11982TIP3   OH257360   2.947   3.945  13.654
11982TIP3    H157361   2.958   3.858  13.616
11982TIP3    H257362   2.974   3.936  13.745
11983TIP3   OH257363   6.625   3.788   1.167
11983TIP3    H157364   6.553   3.763   1.225
11983TIP3    H257365   6.625   3.883   1.169
11984TIP3   OH257366   3.646   5.784  12.719
11984TIP3    H157367   3.642   5.720  12.648
11984TIP3    H257368   3.724   5.837  12.700
11985TIP3   OH257369   3.758   0.747   2.953
11985TIP3    H157370   3.728   0.721   2.866
11985TIP3    H257371   3.839   0.697   2.967
11986TIP3   OH257372   2.697   3.925  12.566
11986TIP3    H157373   2.655   3.918  12.480
11986TIP3    H257374   2.639   3.981  12.617
11987TIP3   OH257375   3.279   4.309   3.031
11987TIP3    H157376   3.346   4.242   3.049
11987TIP3    H257377   3.330   4.386   3.006
11988TIP3   OH257378   2.575   3.676   5.947
11988TIP3    H157379   2.653   3.691   5.894
11988TIP3    H257380   2.534   3.761   5.955
11989TIP3   OH257381   5.300   2.564   0.013
11989TIP3    H157382   5.333   2.610  -0.065
11989TIP3    H257383   5.219   2.523  -0.016
11990TIP3   OH257384   6.279   5.271   1.942
11990TIP3    H157385   6.272   5.294   1.850
11990TIP3    H257386   6.299   5.177   1.942
11991TIP3   OH257387   3.002   4.455   5.865
11991TIP3    H157388   3.038   4.434   5.951
11991TIP3    H257389   2.907   4.444   5.875
11992TIP3   OH257390   2.178   1.790  11.760
11992TIP3    H157391   2.106   1.839  11.802
11992TIP3    H257392   2.205   1.846  11.687
11993TIP3   OH257393   1.194   1.477  12.209
11993TIP3    H157394   1.176   1.551  12.152
11993TIP3    H257395   1.275   1.500  12.254
11994TIP3   OH257396   2.931   3.657   6.340
11994TIP3    H157397   2.875   3.620   6.273
11994TIP3    H257398   2.879   3.727   6.379
11995TIP3   OH257399   5.010   3.847   3.105
11995TIP3    H157400   5.071   3.892   3.163
11995TIP3    H257401   4.926   3.852   3.150
11996TIP3   OH257402   1.858   6.747  16.107
11996TIP3    H157403   1.906   6.724  16.186
11996TIP3    H257404   1.775   6.700  16.114
11997TIP3   OH257405   0.495   3.781   1.637
11997TIP3    H157406   0.455   3.843   1.576
11997TIP3    H257407   0.423   3.752   1.693
11998TIP3   OH257408   3.135   1.954  12.800
11998TIP3    H157409   3.186   1.950  12.719
11998TIP3    H257410   3.057   2.004  12.778
11999TIP3   OH257411   0.983   0.484   0.548
11999TIP3    H157412   0.982   0.435   0.465
11999TIP3    H257413   1.064   0.456   0.591
12000TIP3   OH257414   2.848   5.462   0.676
12000TIP3    H157415   2.867   5.391   0.738
12000TIP3    H257416   2.880   5.541   0.719
12001TIP3   OH257417   6.474   1.779  15.521
12001TIP3    H157418   6.467   1.713  15.453
12001TIP3    H257419   6.398   1.835  15.508
12002TIP3   OH257420   2.358   5.233   5.865
12002TIP3    H157421   2.372   5.316   5.819
12002TIP3    H257422   2.446   5.198   5.878
12003TIP3   OH257423   4.920   3.234  15.301
12003TIP3    H157424   4.857   3.227  15.373
12003TIP3    H257425   4.875   3.194  15.227
12004TIP3   OH257426   5.355   5.277   1.715
12004TIP3    H157427   5.390   5.193   1.685
12004TIP3    H257428   5.421   5.310   1.776
12005TIP3   OH257429   0.815   2.895  13.947
12005TIP3    H157430   0.766   2.913  14.027
12005TIP3    H257431   0.833   2.981  13.909
12006TIP3   OH257432   3.130   5.445   1.241
12006TIP3    H157433   3.225   5.433   1.241
12006TIP3    H257434   3.106   5.445   1.333
12007TIP3   OH257435   1.287   5.353   2.794
12007TIP3    H157436   1.376   5.381   2.773
12007TIP3    H257437   1.277   5.372   2.887
12008TIP3   OH257438   3.950   0.924  12.616
12008TIP3    H157439   3.887   0.858  12.586
12008TIP3    H257440   3.904   0.972  12.684
12009TIP3   OH257441   3.343   3.565   3.105
12009TIP3    H157442   3.281   3.569   3.178
12009TIP3    H257443   3.360   3.656   3.083
12010TIP3   OH257444   1.883   0.542   1.247
12010TIP3    H157445   1.806   0.511   1.295
12010TIP3    H257446   1.947   0.471   1.256
12011TIP3   OH257447   1.233   2.274   0.521
12011TIP3    H157448   1.214   2.183   0.498
12011TIP3    H257449   1.301   2.300   0.459
12012TIP3   OH257450   2.979   1.495  15.255
12012TIP3    H157451   2.896   1.488  15.302
12012TIP3    H257452   2.956   1.481  15.163
12013TIP3   OH257453   2.859   6.553   5.886
12013TIP3    H157454   2.830   6.589   5.970
12013TIP3    H257455   2.908   6.624   5.845
12014TIP3   OH257456   0.191   0.367   6.503
12014TIP3    H157457   0.148   0.282   6.489
12014TIP3    H257458   0.262   0.347   6.564
12015TIP3   OH257459   6.164   1.824   1.765
12015TIP3    H157460   6.164   1.912   1.729
12015TIP3    H257461   6.245   1.818   1.816
12016TIP3   OH257462   3.488   2.296  12.050
12016TIP3    H157463   3.461   2.311  12.141
12016TIP3    H257464   3.557   2.230  12.056
12017TIP3   OH257465   1.960   1.600   1.601
12017TIP3    H157466   1.988   1.516   1.563
12017TIP3    H257467   1.926   1.576   1.687
12018TIP3   OH257468   3.169   5.820  13.625
12018TIP3    H157469   3.131   5.901  13.660
12018TIP3    H257470   3.097   5.780  13.576
12019TIP3   OH257471   2.079   0.480   4.370
12019TIP3    H157472   2.001   0.477   4.314
12019TIP3    H257473   2.142   0.422   4.327
12020TIP3   OH257474   1.970   3.573   0.246
12020TIP3    H157475   2.058   3.541   0.228
12020TIP3    H257476   1.927   3.577   0.160
12021TIP3   OH257477   4.953   0.587   4.947
12021TIP3    H157478   4.974   0.679   4.961
12021TIP3    H257479   4.992   0.542   5.021
12022TIP3   OH257480   5.937   1.544  14.685
12022TIP3    H157481   5.860   1.498  14.720
12022TIP3    H257482   5.969   1.487  14.615
12023TIP3   OH257483   4.634   5.126  10.814
12023TIP3    H157484   4.586   5.081  10.884
12023TIP3    H257485   4.641   5.060  10.744
12024TIP3   OH257486   4.461   3.403  16.613
12024TIP3    H157487   4.396   3.356  16.561
12024TIP3    H257488   4.451   3.495  16.587
12025TIP3   OH257489   5.757   3.957   6.115
12025TIP3    H157490   5.697   3.896   6.157
12025TIP3    H257491   5.825   3.973   6.180
12026TIP3   OH257492   2.380   1.293   5.000
12026TIP3    H157493   2.407   1.255   4.916
12026TIP3    H257494   2.296   1.250   5.019
12027TIP3   OH257495   5.349   1.553   4.127
12027TIP3    H157496   5.394   1.620   4.178
12027TIP3    H257497   5.258   1.582   4.123
12028TIP3   OH257498   2.995   1.996   1.683
12028TIP3    H157499   3.036   1.910   1.689
12028TIP3    H257500   3.068   2.057   1.674
12029TIP3   OH257501   4.772   3.255   2.697
12029TIP3    H157502   4.690   3.218   2.729
12029TIP3    H257503   4.837   3.186   2.712
12030TIP3   OH257504   4.753   4.180  15.230
12030TIP3    H157505   4.708   4.101  15.200
12030TIP3    H257506   4.773   4.163  15.322
12031TIP3   OH257507   4.194   5.259   4.127
12031TIP3    H157508   4.209   5.350   4.155
12031TIP3    H257509   4.101   5.244   4.146
12032TIP3   OH257510   4.876   5.813   4.210
12032TIP3    H157511   4.780   5.818   4.212
12032TIP3    H257512   4.899   5.814   4.117
12033TIP3   OH257513   2.453   6.401  12.005
12033TIP3    H157514   2.459   6.495  11.986
12033TIP3    H257515   2.359   6.383  12.009
12034TIP3   OH257516   0.722   0.641   2.819
12034TIP3    H157517   0.632   0.669   2.801
12034TIP3    H257518   0.763   0.637   2.733
12035TIP3   OH257519   4.765   4.329  12.159
12035TIP3    H157520   4.796   4.406  12.207
12035TIP3    H257521   4.673   4.320  12.186
12036TIP3   OH257522   0.062   4.893   5.031
12036TIP3    H157523   0.133   4.866   4.972
12036TIP3    H257524  -0.018   4.864   4.987
12037TIP3   OH257525   1.352   0.745   6.428
12037TIP3    H157526   1.431   0.695   6.446
12037TIP3    H257527   1.281   0.692   6.464
12038TIP3   OH257528   0.207   1.127  14.374
12038TIP3    H157529   0.269   1.184  14.421
12038TIP3    H257530   0.132   1.119  14.433
12039TIP3   OH257531   1.286   1.218  15.143
12039TIP3    H157532   1.229   1.294  15.134
12039TIP3    H257533   1.243   1.162  15.208
12040TIP3   OH257534   3.451   5.018  12.858
12040TIP3    H157535   3.489   4.995  12.942
12040TIP3    H257536   3.484   5.105  12.838
12041TIP3   OH257537   6.327   0.767  10.797
12041TIP3    H157538   6.405   0.736  10.752
12041TIP3    H257539   6.340   0.861  10.805
12042TIP3   OH257540   0.360   0.828   2.967
12042TIP3    H157541   0.397   0.806   2.881
12042TIP3    H257542   0.280   0.877   2.947
12043TIP3   OH257543   2.860   5.917  12.082
12043TIP3    H157544   2.884   5.996  12.131
12043TIP3    H257545   2.767   5.929  12.062
12044TIP3   OH257546   5.468   4.377   0.580
12044TIP3    H157547   5.440   4.459   0.541
12044TIP3    H257548   5.544   4.351   0.528
12045TIP3   OH257549   5.158   6.213  12.331
12045TIP3    H157550   5.250   6.189  12.323
12045TIP3    H257551   5.145   6.228  12.425
12046TIP3   OH257552   3.010   6.440  12.360
12046TIP3    H157553   2.967   6.461  12.278
12046TIP3    H257554   3.103   6.434  12.338
12047TIP3   OH257555   5.607   1.407  14.514
12047TIP3    H157556   5.536   1.356  14.553
12047TIP3    H257557   5.601   1.492  14.558
12048TIP3   OH257558   0.047   2.839   1.354
12048TIP3    H157559   0.046   2.887   1.437
12048TIP3    H257560   0.126   2.870   1.310
12049TIP3   OH257561   6.457   3.521   1.084
12049TIP3    H157562   6.385   3.490   1.139
12049TIP3    H257563   6.512   3.444   1.071
12050TIP3   OH257564   0.708   3.848  16.329
12050TIP3    H157565   0.777   3.824  16.391
12050TIP3    H257566   0.731   3.802  16.249
12051TIP3   OH257567   5.080   6.550  11.903
12051TIP3    H157568   5.107   6.509  11.985
12051TIP3    H257569   5.019   6.488  11.863
12052TIP3   OH257570   3.832   6.630   3.848
12052TIP3    H157571   3.902   6.636   3.914
12052TIP3    H257572   3.874   6.655   3.766
12053TIP3   OH257573   5.305   2.620   2.692
12053TIP3    H157574   5.284   2.538   2.737
12053TIP3    H257575   5.224   2.642   2.646
12054TIP3   OH257576   2.225   0.651  13.564
12054TIP3    H157577   2.267   0.575  13.523
12054TIP3    H257578   2.241   0.640  13.657
12055TIP3   OH257579   6.511   5.496  13.913
12055TIP3    H157580   6.520   5.533  13.825
12055TIP3    H257581   6.598   5.459  13.932
12056TIP3   OH257582   2.726   5.003   0.627
12056TIP3    H157583   2.771   4.923   0.597
12056TIP3    H257584   2.645   5.005   0.575
12057TIP3   OH257585   1.898   1.306  12.512
12057TIP3    H157586   1.854   1.269  12.589
12057TIP3    H257587   1.845   1.276  12.438
12058TIP3   OH257588   3.654   0.410   3.910
12058TIP3    H157589   3.717   0.340   3.922
12058TIP3    H257590   3.699   0.474   3.854
12059TIP3   OH257591   3.770   1.006   2.018
12059TIP3    H157592   3.729   1.081   2.062
12059TIP3    H257593   3.700   0.966   1.967
12060TIP3   OH257594   0.688   0.806  11.416
12060TIP3    H157595   0.605   0.765  11.393
12060TIP3    H257596   0.674   0.844  11.502
12061TIP3   OH257597   1.439   2.565   1.257
12061TIP3    H157598   1.424   2.498   1.190
12061TIP3    H257599   1.410   2.646   1.217
12062TIP3   OH257600   3.627   4.157  16.813
12062TIP3    H157601   3.718   4.138  16.836
12062TIP3    H257602   3.632   4.207  16.732
12063TIP3   OH257603   3.541   1.870   5.714
12063TIP3    H157604   3.596   1.849   5.790
12063TIP3    H257605   3.558   1.963   5.699
12064TIP3   OH257606   4.101   3.020  14.551
12064TIP3    H157607   4.039   2.999  14.481
12064TIP3    H257608   4.142   3.102  14.522
12065TIP3   OH257609   0.601   1.962  12.767
12065TIP3    H157610   0.649   1.918  12.836
12065TIP3    H257611   0.509   1.949  12.789
12066TIP3   OH257612   6.345   1.745   5.069
12066TIP3    H157613   6.414   1.790   5.020
12066TIP3    H257614   6.265   1.792   5.045
12067TIP3   OH257615   5.800   2.763  17.180
12067TIP3    H157616   5.727   2.806  17.225
12067TIP3    H257617   5.797   2.798  17.091
12068TIP3   OH257618   2.480   2.386   3.165
12068TIP3    H157619   2.386   2.401   3.172
12068TIP3    H257620   2.520   2.460   3.212
12069TIP3   OH257621   3.361   4.610   3.813
12069TIP3    H157622   3.360   4.611   3.909
12069TIP3    H257623   3.282   4.657   3.787
12070TIP3   OH257624   5.535   2.211  14.770
12070TIP3    H157625   5.567   2.227  14.681
12070TIP3    H257626   5.475   2.137  14.761
12071TIP3   OH257627   1.659   1.243  16.003
12071TIP3    H157628   1.677   1.204  16.089
12071TIP3    H257629   1.566   1.264  16.005
12072TIP3   OH257630   3.522   4.201   0.234
12072TIP3    H157631   3.500   4.291   0.207
12072TIP3    H257632   3.598   4.211   0.291
12073TIP3   OH257633   6.520   3.297   2.976
12073TIP3    H157634   6.515   3.226   2.913
12073TIP3    H257635   6.612   3.323   2.977
12074TIP3   OH257636   4.390   4.475  15.808
12074TIP3    H157637   4.430   4.391  15.785
12074TIP3    H257638   4.464   4.537  15.808
12075TIP3   OH257639   6.075   5.102   2.969
12075TIP3    H157640   6.044   5.032   2.912
12075TIP3    H257641   6.051   5.073   3.057
12076TIP3   OH257642   1.855   1.094   4.005
12076TIP3    H157643   1.936   1.084   3.955
12076TIP3    H257644   1.849   1.188   4.022
12077TIP3   OH257645   5.891   2.543   2.673
12077TIP3    H157646   5.912   2.608   2.741
12077TIP3    H257647   5.904   2.459   2.717
12078TIP3   OH257648   2.589   0.730   1.686
12078TIP3    H157649   2.600   0.705   1.777
12078TIP3    H257650   2.520   0.797   1.688
12079TIP3   OH257651   2.977   3.425  13.949
12079TIP3    H157652   3.069   3.439  13.970
12079TIP3    H257653   2.978   3.383  13.863
12080TIP3   OH257654   3.024   4.820  14.973
12080TIP3    H157655   2.999   4.902  14.932
12080TIP3    H257656   3.062   4.768  14.902
12081TIP3   OH257657   6.690   4.768  15.122
12081TIP3    H157658   6.680   4.863  15.123
12081TIP3    H257659   6.617   4.736  15.069
12082TIP3   OH257660   3.937   1.508   6.556
12082TIP3    H157661   3.945   1.453   6.634
12082TIP3    H257662   3.957   1.449   6.483
12083TIP3   OH257663   6.016   3.251   2.082
12083TIP3    H157664   6.013   3.258   2.178
12083TIP3    H257665   5.935   3.293   2.053
12084TIP3   OH257666   3.134   3.384   5.066
12084TIP3    H157667   3.078   3.441   5.013
12084TIP3    H257668   3.092   3.384   5.153
12085TIP3   OH257669   1.634   5.823   5.166
12085TIP3    H157670   1.561   5.798   5.222
12085TIP3    H257671   1.708   5.771   5.200
12086TIP3   OH257672   6.019   0.270   2.949
12086TIP3    H157673   5.999   0.336   3.015
12086TIP3    H257674   6.059   0.320   2.877
12087TIP3   OH257675   0.261   5.509  11.142
12087TIP3    H157676   0.315   5.436  11.113
12087TIP3    H257677   0.324   5.577  11.167
12088TIP3   OH257678   0.743   2.107   0.400
12088TIP3    H157679   0.767   2.039   0.463
12088TIP3    H257680   0.803   2.094   0.327
12089TIP3   OH257681   5.171   3.833   1.448
12089TIP3    H157682   5.126   3.832   1.533
12089TIP3    H257683   5.199   3.742   1.435
12090TIP3   OH257684   6.273   1.977  14.098
12090TIP3    H157685   6.290   1.963  14.191
12090TIP3    H257686   6.204   1.914  14.077
12091TIP3   OH257687   0.118   0.530   1.759
12091TIP3    H157688   0.182   0.586   1.802
12091TIP3    H257689   0.062   0.590   1.709
12092TIP3   OH257690   1.436   3.182  13.492
12092TIP3    H157691   1.370   3.113  13.500
12092TIP3    H257692   1.509   3.140  13.446
12093TIP3   OH257693   0.744   3.912  12.416
12093TIP3    H157694   0.689   3.835  12.427
12093TIP3    H257695   0.796   3.894  12.338
12094TIP3   OH257696   3.727   3.953  15.952
12094TIP3    H157697   3.763   3.994  15.874
12094TIP3    H257698   3.702   3.865  15.923
12095TIP3   OH257699   2.180   2.922   2.934
12095TIP3    H157700   2.195   2.947   3.025
12095TIP3    H257701   2.237   2.846   2.920
12096TIP3   OH257702   1.216   4.821  15.861
12096TIP3    H157703   1.183   4.895  15.810
12096TIP3    H257704   1.166   4.746  15.830
12097TIP3   OH257705   0.740   3.430  10.801
12097TIP3    H157706   0.746   3.525  10.787
12097TIP3    H257707   0.822   3.395  10.766
12098TIP3   OH257708   0.332   1.853  12.867
12098TIP3    H157709   0.315   1.942  12.899
12098TIP3    H257710   0.246   1.818  12.844
12099TIP3   OH257711   4.786   0.757   6.225
12099TIP3    H157712   4.863   0.722   6.269
12099TIP3    H257713   4.717   0.692   6.240
12100TIP3   OH257714   3.442   4.691  14.197
12100TIP3    H157715   3.460   4.785  14.194
12100TIP3    H257716   3.494   4.659  14.270
12101TIP3   OH257717   1.306   1.203  11.996
12101TIP3    H157718   1.350   1.125  12.030
12101TIP3    H257719   1.285   1.181  11.905
12102TIP3   OH257720   4.583   4.159  11.940
12102TIP3    H157721   4.639   4.191  11.869
12102TIP3    H257722   4.508   4.219  11.940
12103TIP3   OH257723   4.089   0.463  17.203
12103TIP3    H157724   4.046   0.487  17.285
12103TIP3    H257725   4.023   0.476  17.136
12104TIP3   OH257726   2.233   5.977  14.942
12104TIP3    H157727   2.230   6.004  15.034
12104TIP3    H257728   2.228   6.060  14.893
12105TIP3   OH257729   2.464   1.047  11.411
12105TIP3    H157730   2.515   1.053  11.330
12105TIP3    H257731   2.469   0.955  11.436
12106TIP3   OH257732   1.871   0.904  13.269
12106TIP3    H157733   1.910   0.890  13.355
12106TIP3    H257734   1.854   0.998  13.266
12107TIP3   OH257735   1.482   0.835  16.210
12107TIP3    H157736   1.422   0.906  16.234
12107TIP3    H257737   1.569   0.868  16.232
12108TIP3   OH257738   2.762   2.416  16.351
12108TIP3    H157739   2.788   2.327  16.377
12108TIP3    H257740   2.826   2.441  16.285
12109TIP3   OH257741   3.827   0.863   2.251
12109TIP3    H157742   3.799   0.924   2.182
12109TIP3    H257743   3.892   0.807   2.209
12110TIP3   OH257744   2.808   2.867   1.361
12110TIP3    H157745   2.887   2.918   1.378
12110TIP3    H257746   2.824   2.824   1.277
12111TIP3   OH257747   3.750   1.106   2.997
12111TIP3    H157748   3.734   1.053   2.920
12111TIP3    H257749   3.822   1.165   2.972
12112TIP3   OH257750   2.757   4.938  16.363
12112TIP3    H157751   2.778   4.847  16.386
12112TIP3    H257752   2.783   4.945  16.271
12113TIP3   OH257753   1.397   2.233  14.472
12113TIP3    H157754   1.447   2.313  14.456
12113TIP3    H257755   1.320   2.241  14.414
12114TIP3   OH257756   0.355   4.970   1.736
12114TIP3    H157757   0.354   4.881   1.773
12114TIP3    H257758   0.289   5.018   1.786
12115TIP3   OH257759   0.435   3.524  10.890
12115TIP3    H157760   0.456   3.604  10.842
12115TIP3    H257761   0.339   3.525  10.898
12116TIP3   OH257762   0.676   6.610  12.958
12116TIP3    H157763   0.593   6.657  12.959
12116TIP3    H257764   0.716   6.631  13.043
12117TIP3   OH257765   2.336   2.725   3.142
12117TIP3    H157766   2.311   2.768   3.224
12117TIP3    H257767   2.422   2.688   3.159
12118TIP3   OH257768   1.323   2.333   5.818
12118TIP3    H157769   1.349   2.350   5.909
12118TIP3    H257770   1.315   2.420   5.779
12119TIP3   OH257771   5.393   2.311   1.009
12119TIP3    H157772   5.427   2.227   0.976
12119TIP3    H257773   5.391   2.368   0.932
12120TIP3   OH257774   5.262   1.367  15.111
12120TIP3    H157775   5.307   1.355  15.027
12120TIP3    H257776   5.307   1.440  15.152
12121TIP3   OH257777   2.208   1.707  12.141
12121TIP3    H157778   2.255   1.765  12.082
12121TIP3    H257779   2.121   1.746  12.149
12122TIP3   OH257780   2.757   6.506  17.191
12122TIP3    H157781   2.672   6.507  17.234
12122TIP3    H257782   2.819   6.529  17.260
12123TIP3   OH257783   5.394   0.495   5.060
12123TIP3    H157784   5.327   0.515   4.995
12123TIP3    H257785   5.447   0.426   5.019
12124TIP3   OH257786   1.016   6.200   3.402
12124TIP3    H157787   1.080   6.264   3.434
12124TIP3    H257788   1.058   6.162   3.324
12125TIP3   OH257789   6.430   2.579  13.747
12125TIP3    H157790   6.517   2.550  13.771
12125TIP3    H257791   6.399   2.513  13.685
12126TIP3   OH257792   5.966   6.245   6.005
12126TIP3    H157793   6.051   6.215   6.038
12126TIP3    H257794   5.904   6.219   6.073
12127TIP3   OH257795   6.525   3.587   1.695
12127TIP3    H157796   6.595   3.562   1.634
12127TIP3    H257797   6.571   3.602   1.778
12128TIP3   OH257798   6.676   4.583  15.336
12128TIP3    H157799   6.705   4.662  15.292
12128TIP3    H257800   6.609   4.613  15.397
12129TIP3   OH257801   1.372   0.349  15.582
12129TIP3    H157802   1.390   0.281  15.648
12129TIP3    H257803   1.347   0.299  15.504
12130TIP3   OH257804   3.116   0.380   6.420
12130TIP3    H157805   3.198   0.346   6.386
12130TIP3    H257806   3.049   0.320   6.387
12131TIP3   OH257807   5.775   2.523   5.206
12131TIP3    H157808   5.850   2.555   5.256
12131TIP3    H257809   5.730   2.603   5.177
12132TIP3   OH257810   3.795   6.378   5.051
12132TIP3    H157811   3.739   6.362   4.976
12132TIP3    H257812   3.847   6.454   5.027
12133TIP3   OH257813   3.413   4.213   6.398
12133TIP3    H157814   3.344   4.252   6.453
12133TIP3    H257815   3.482   4.190   6.461
12134TIP3   OH257816   6.169   1.134   3.917
12134TIP3    H157817   6.087   1.084   3.923
12134TIP3    H257818   6.217   1.092   3.846
12135TIP3   OH257819   3.716   6.104  11.907
12135TIP3    H157820   3.724   6.009  11.912
12135TIP3    H257821   3.631   6.119  11.865
12136TIP3   OH257822   0.894   2.823  16.366
12136TIP3    H157823   0.843   2.742  16.365
12136TIP3    H257824   0.940   2.821  16.450
12137TIP3   OH257825   1.383   1.653   1.378
12137TIP3    H157826   1.435   1.596   1.435
12137TIP3    H257827   1.314   1.686   1.435
12138TIP3   OH257828   3.423   3.061  13.767
12138TIP3    H157829   3.340   3.041  13.722
12138TIP3    H257830   3.431   3.156  13.761
12139TIP3   OH257831   3.778   2.050  16.050
12139TIP3    H157832   3.815   1.988  16.112
12139TIP3    H257833   3.698   2.007  16.018
12140TIP3   OH257834   6.440   2.669   2.399
12140TIP3    H157835   6.475   2.752   2.431
12140TIP3    H257836   6.517   2.623   2.364
12141TIP3   OH257837   6.497   0.997  15.303
12141TIP3    H157838   6.542   0.956  15.377
12141TIP3    H257839   6.434   0.931  15.274
12142TIP3   OH257840   1.364   5.378  15.435
12142TIP3    H157841   1.410   5.452  15.475
12142TIP3    H257842   1.402   5.301  15.477
12143TIP3   OH257843   0.102   6.479   1.430
12143TIP3    H157844   0.098   6.524   1.514
12143TIP3    H257845   0.126   6.389   1.452
12144TIP3   OH257846   6.165   2.747   1.230
12144TIP3    H157847   6.145   2.839   1.241
12144TIP3    H257848   6.125   2.724   1.146
12145TIP3   OH257849   5.283   6.285   5.703
12145TIP3    H157850   5.356   6.223   5.694
12145TIP3    H257851   5.230   6.250   5.774
12146TIP3   OH257852   4.736   2.513  13.839
12146TIP3    H157853   4.810   2.479  13.889
12146TIP3    H257854   4.776   2.559  13.765
12147TIP3   OH257855   1.209   5.041   3.073
12147TIP3    H157856   1.238   4.978   3.139
12147TIP3    H257857   1.262   5.119   3.089
12148TIP3   OH257858   2.729   2.869  14.081
12148TIP3    H157859   2.759   2.900  14.167
12148TIP3    H257860   2.760   2.936  14.020
12149TIP3   OH257861   0.425   0.279   6.659
12149TIP3    H157862   0.501   0.295   6.716
12149TIP3    H257863   0.463   0.243   6.579
12150TIP3   OH257864   4.282   2.099  15.547
12150TIP3    H157865   4.326   2.043  15.484
12150TIP3    H257866   4.210   2.046  15.581
12151TIP3   OH257867   2.039   5.967  12.226
12151TIP3    H157868   2.094   5.888  12.225
12151TIP3    H257869   1.982   5.956  12.150
12152TIP3   OH257870   0.777   0.228   4.136
12152TIP3    H157871   0.808   0.142   4.166
12152TIP3    H257872   0.683   0.227   4.154
12153TIP3   OH257873   0.316   6.578  14.295
12153TIP3    H157874   0.277   6.590  14.209
12153TIP3    H257875   0.329   6.484  14.303
12154TIP3   OH257876   3.153   0.456   1.887
12154TIP3    H157877   3.136   0.499   1.803
12154TIP3    H257878   3.191   0.372   1.863
12155TIP3   OH257879   5.932   4.879  12.290
12155TIP3    H157880   6.000   4.814  12.308
12155TIP3    H257881   5.864   4.860  12.354
12156TIP3   OH257882   0.484   2.821  12.980
12156TIP3    H157883   0.445   2.908  12.968
12156TIP3    H257884   0.443   2.788  13.060
12157TIP3   OH257885   4.366   3.873   3.105
12157TIP3    H157886   4.306   3.875   3.031
12157TIP3    H257887   4.372   3.780   3.128
12158TIP3   OH257888   5.875   0.331  11.442
12158TIP3    H157889   5.867   0.423  11.419
12158TIP3    H257890   5.817   0.320  11.518
12159TIP3   OH257891   5.886   0.086   5.756
12159TIP3    H157892   5.957   0.093   5.820
12159TIP3    H257893   5.809   0.117   5.804
12160TIP3   OH257894   2.305   3.201  12.039
12160TIP3    H157895   2.282   3.128  11.983
12160TIP3    H257896   2.312   3.163  12.127
12161TIP3   OH257897   2.515   6.759   4.637
12161TIP3    H157898   2.531   6.844   4.597
12161TIP3    H257899   2.494   6.778   4.728
12162TIP3   OH257900   5.928   1.698   2.634
12162TIP3    H157901   5.999   1.759   2.615
12162TIP3    H257902   5.915   1.650   2.553
12163TIP3   OH257903   2.771   5.168  14.356
12163TIP3    H157904   2.691   5.220  14.350
12163TIP3    H257905   2.757   5.093  14.298
12164TIP3   OH257906   4.298   6.360   3.191
12164TIP3    H157907   4.377   6.328   3.234
12164TIP3    H257908   4.283   6.299   3.119
12165TIP3   OH257909   0.882   1.555  17.183
12165TIP3    H157910   0.959   1.608  17.203
12165TIP3    H257911   0.916   1.468  17.163
12166TIP3   OH257912   6.369   2.488   4.128
12166TIP3    H157913   6.443   2.521   4.179
12166TIP3    H257914   6.346   2.560   4.069
12167TIP3   OH257915   2.811   3.521   0.484
12167TIP3    H157916   2.741   3.579   0.514
12167TIP3    H257917   2.791   3.437   0.526
12168TIP3   OH257918   5.045   1.697   0.302
12168TIP3    H157919   4.969   1.659   0.260
12168TIP3    H257920   5.105   1.624   0.315
12169TIP3   OH257921   6.407   0.314   5.206
12169TIP3    H157922   6.348   0.368   5.153
12169TIP3    H257923   6.382   0.333   5.297
12170TIP3   OH257924   2.304   1.455  16.396
12170TIP3    H157925   2.329   1.547  16.391
12170TIP3    H257926   2.255   1.439  16.316
12171TIP3   OH257927   4.490   2.082   0.332
12171TIP3    H157928   4.394   2.078   0.334
12171TIP3    H257929   4.509   2.164   0.287
12172TIP3   OH257930   4.613   4.275  15.745
12172TIP3    H157931   4.612   4.296  15.838
12172TIP3    H257932   4.653   4.189  15.740
12173TIP3   OH257933   3.901   3.492   0.933
12173TIP3    H157934   3.993   3.515   0.923
12173TIP3    H257935   3.855   3.576   0.936
12174TIP3   OH257936   3.922   6.557   2.913
12174TIP3    H157937   3.964   6.498   2.976
12174TIP3    H257938   3.871   6.499   2.857
12175TIP3   OH257939   4.804   4.506  16.527
12175TIP3    H157940   4.731   4.562  16.553
12175TIP3    H257941   4.770   4.417  16.534
12176TIP3   OH257942   0.551   2.257  17.097
12176TIP3    H157943   0.632   2.302  17.124
12176TIP3    H257944   0.560   2.169  17.131
12177TIP3   OH257945   1.368   4.325  16.890
12177TIP3    H157946   1.298   4.344  16.827
12177TIP3    H257947   1.448   4.333  16.838
12178TIP3   OH257948   3.165   6.160   2.309
12178TIP3    H157949   3.233   6.206   2.261
12178TIP3    H257950   3.147   6.216   2.385
12179TIP3   OH257951   1.789   5.910  14.918
12179TIP3    H157952   1.816   5.978  14.857
12179TIP3    H257953   1.711   5.871  14.878
12180TIP3   OH257954   5.533   6.082   3.747
12180TIP3    H157955   5.545   6.086   3.842
12180TIP3    H257956   5.484   6.162   3.726
12181TIP3   OH257957   1.553   5.335   1.168
12181TIP3    H157958   1.559   5.288   1.251
12181TIP3    H257959   1.465   5.315   1.136
12182TIP3   OH257960   1.916   1.739  14.647
12182TIP3    H157961   1.843   1.691  14.686
12182TIP3    H257962   1.900   1.830  14.671
12183TIP3   OH257963   2.927   2.257  13.081
12183TIP3    H157964   2.940   2.274  12.988
12183TIP3    H257965   2.939   2.342  13.123
12184TIP3   OH257966   4.402   2.742  16.126
12184TIP3    H157967   4.333   2.809  16.122
12184TIP3    H257968   4.464   2.766  16.058
12185TIP3   OH257969   1.997   1.340   2.503
12185TIP3    H157970   2.068   1.374   2.449
12185TIP3    H257971   2.039   1.317   2.586
12186TIP3   OH257972   0.151   1.103  12.556
12186TIP3    H157973   0.128   1.178  12.500
12186TIP3    H257974   0.069   1.080  12.600
12187TIP3   OH257975   0.461   6.129   2.660
12187TIP3    H157976   0.480   6.155   2.570
12187TIP3    H257977   0.521   6.181   2.713
12188TIP3   OH257978   1.492   0.172   3.406
12188TIP3    H157979   1.535   0.116   3.472
12188TIP3    H257980   1.409   0.128   3.389
12189TIP3   OH257981   6.411   3.047  12.228
12189TIP3    H157982   6.381   3.003  12.149
12189TIP3    H257983   6.405   3.141  12.207
12190TIP3   OH257984   6.214   4.790   6.170
12190TIP3    H157985   6.125   4.799   6.135
12190TIP3    H257986   6.267   4.761   6.095
12191TIP3   OH257987   2.988   2.183  12.167
12191TIP3    H157988   2.954   2.140  12.088
12191TIP3    H257989   2.913   2.233  12.201
12192TIP3   OH257990   4.035   2.281   1.381
12192TIP3    H157991   4.097   2.339   1.424
12192TIP3    H257992   4.082   2.247   1.305
12193TIP3   OH257993   3.618   1.523  17.038
12193TIP3    H157994   3.597   1.457  16.972
12193TIP3    H257995   3.547   1.516  17.102
12194TIP3   OH257996   4.442   2.877  10.711
12194TIP3    H157997   4.509   2.920  10.764
12194TIP3    H257998   4.363   2.929  10.726
12195TIP3   OH257999   6.488   6.763   2.572
12195TIP3    H158000   6.498   6.840   2.628
12195TIP3    H258001   6.533   6.787   2.491
12196TIP3   OH258002   2.137   3.247   4.840
12196TIP3    H158003   2.158   3.337   4.816
12196TIP3    H258004   2.188   3.229   4.918
12197TIP3   OH258005   1.980   4.831   1.527
12197TIP3    H158006   2.009   4.768   1.593
12197TIP3    H258007   2.029   4.911   1.548
12198TIP3   OH258008   6.289   1.040  13.907
12198TIP3    H158009   6.344   1.086  13.969
12198TIP3    H258010   6.335   1.048  13.823
12199TIP3   OH258011   4.859   3.598  15.907
12199TIP3    H158012   4.933   3.637  15.861
12199TIP3    H258013   4.790   3.593  15.840
12200TIP3   OH258014   6.765   0.945   1.798
12200TIP3    H158015   6.826   0.968   1.728
12200TIP3    H258016   6.767   1.021   1.856
12201TIP3   OH258017   0.584   2.208   3.474
12201TIP3    H158018   0.519   2.259   3.520
12201TIP3    H258019   0.566   2.224   3.381
12202TIP3   OH258020   6.767   2.208   5.334
12202TIP3    H158021   6.858   2.180   5.324
12202TIP3    H258022   6.733   2.154   5.406
12203TIP3   OH258023   4.605   6.438  16.354
12203TIP3    H158024   4.590   6.344  16.367
12203TIP3    H258025   4.532   6.480  16.399
12204TIP3   OH258026   3.080   6.629  13.226
12204TIP3    H158027   3.035   6.569  13.287
12204TIP3    H258028   3.115   6.571  13.158
12205TIP3   OH258029   3.647   0.906  13.124
12205TIP3    H158030   3.586   0.849  13.170
12205TIP3    H258031   3.719   0.920  13.186
12206TIP3   OH258032   4.887   1.865   4.632
12206TIP3    H158033   4.829   1.837   4.703
12206TIP3    H258034   4.929   1.944   4.665
12207TIP3   OH258035   6.674   2.564   3.356
12207TIP3    H158036   6.591   2.593   3.394
12207TIP3    H258037   6.693   2.627   3.287
12208TIP3   OH258038   3.326   0.055  13.673
12208TIP3    H158039   3.237   0.041  13.706
12208TIP3    H258040   3.344  -0.021  13.618
12209TIP3   OH258041   0.326   0.978  11.350
12209TIP3    H158042   0.394   0.926  11.392
12209TIP3    H258043   0.289   1.031  11.421
12210TIP3   OH258044   3.312   0.024   4.204
12210TIP3    H158045   3.284   0.052   4.117
12210TIP3    H258046   3.331   0.106   4.250
12211TIP3   OH258047   3.322   6.061   0.988
12211TIP3    H158048   3.327   5.969   0.962
12211TIP3    H258049   3.412   6.083   1.013
12212TIP3   OH258050   1.541   3.109   3.730
12212TIP3    H158051   1.545   3.190   3.678
12212TIP3    H258052   1.601   3.050   3.685
12213TIP3   OH258053   5.612   5.114   2.970
12213TIP3    H158054   5.558   5.181   2.927
12213TIP3    H258055   5.667   5.079   2.901
12214TIP3   OH258056   3.343   5.827  14.223
12214TIP3    H158057   3.275   5.832  14.290
12214TIP3    H258058   3.408   5.891  14.250
12215TIP3   OH258059   0.777   2.272   4.896
12215TIP3    H158060   0.772   2.241   4.806
12215TIP3    H258061   0.804   2.364   4.888
12216TIP3   OH258062   6.762   4.361   6.401
12216TIP3    H158063   6.857   4.377   6.400
12216TIP3    H258064   6.754   4.266   6.403
12217TIP3   OH258065   6.278   4.592   5.616
12217TIP3    H158066   6.234   4.537   5.551
12217TIP3    H258067   6.208   4.624   5.672
12218TIP3   OH258068   6.426   4.878   2.956
12218TIP3    H158069   6.484   4.951   2.977
12218TIP3    H258070   6.485   4.804   2.941
12219TIP3   OH258071   2.058   3.397  15.588
12219TIP3    H158072   2.116   3.329  15.554
12219TIP3    H258073   1.981   3.393  15.531
12220TIP3   OH258074   1.370   6.230   3.334
12220TIP3    H158075   1.429   6.180   3.279
12220TIP3    H258076   1.324   6.289   3.273
12221TIP3   OH258077   5.560   6.321   5.709
12221TIP3    H158078   5.621   6.260   5.669
12221TIP3    H258079   5.579   6.315   5.803
12222TIP3   OH258080   5.847   3.794  10.620
12222TIP3    H158081   5.760   3.761  10.596
12222TIP3    H258082   5.889   3.814  10.537
12223TIP3   OH258083   0.872   1.171   4.309
12223TIP3    H158084   0.922   1.090   4.306
12223TIP3    H258085   0.917   1.224   4.375
12224TIP3   OH258086   1.207   4.568   3.774
12224TIP3    H158087   1.180   4.504   3.708
12224TIP3    H258088   1.126   4.607   3.805
12225TIP3   OH258089   4.835   3.000  13.858
12225TIP3    H158090   4.785   3.038  13.786
12225TIP3    H258091   4.920   2.978  13.819
12226TIP3   OH258092   5.462   6.663   2.850
12226TIP3    H158093   5.391   6.629   2.796
12226TIP3    H258094   5.422   6.733   2.901
12227TIP3   OH258095   2.520   2.915  12.628
12227TIP3    H158096   2.498   2.828  12.594
12227TIP3    H258097   2.554   2.962  12.552
12228TIP3   OH258098   5.754   6.321  16.443
12228TIP3    H158099   5.837   6.303  16.486
12228TIP3    H258100   5.727   6.406  16.477
12229TIP3   OH258101   2.013   2.750   4.394
12229TIP3    H158102   2.042   2.820   4.335
12229TIP3    H258103   1.969   2.796   4.465
12230TIP3   OH258104   1.101   6.033   2.980
12230TIP3    H158105   1.058   5.973   2.918
12230TIP3    H258106   1.181   6.060   2.935
12231TIP3   OH258107   1.936   1.003  14.902
12231TIP3    H158108   1.996   0.930  14.889
12231TIP3    H258109   1.849   0.965  14.892
12232TIP3   OH258110   4.863   2.131  15.176
12232TIP3    H158111   4.890   2.146  15.267
12232TIP3    H258112   4.934   2.168  15.123
12233TIP3   OH258113   0.797   2.634  13.903
12233TIP3    H158114   0.817   2.724  13.927
12233TIP3    H258115   0.882   2.591  13.898
12234TIP3   OH258116   4.097   1.638   1.608
12234TIP3    H158117   4.013   1.594   1.607
12234TIP3    H258118   4.100   1.684   1.692
12235TIP3   OH258119   3.546   4.255  15.086
12235TIP3    H158120   3.476   4.194  15.110
12235TIP3    H258121   3.601   4.260  15.164
12236TIP3   OH258122   0.596   1.363  11.863
12236TIP3    H158123   0.655   1.438  11.855
12236TIP3    H258124   0.515   1.399  11.898
12237TIP3   OH258125   3.037   6.063  10.969
12237TIP3    H158126   3.124   6.068  10.929
12237TIP3    H258127   3.023   5.970  10.984
12238TIP3   OH258128   6.589   4.082  15.695
12238TIP3    H158129   6.528   4.090  15.769
12238TIP3    H258130   6.655   4.149  15.712
12239TIP3   OH258131   3.978   5.643  13.656
12239TIP3    H158132   4.074   5.653  13.661
12239TIP3    H258133   3.965   5.563  13.606
12240TIP3   OH258134   0.052   2.145   1.224
12240TIP3    H158135   0.025   2.059   1.192
12240TIP3    H258136  -0.000   2.206   1.172
12241TIP3   OH258137   5.388   5.538  14.305
12241TIP3    H158138   5.315   5.531  14.367
12241TIP3    H258139   5.440   5.611  14.337
12242TIP3   OH258140   5.249   0.360   4.430
12242TIP3    H158141   5.205   0.369   4.345
12242TIP3    H258142   5.269   0.450   4.455
12243TIP3   OH258143   0.711   0.586   0.263
12243TIP3    H158144   0.770   0.651   0.299
12243TIP3    H258145   0.624   0.612   0.294
12244TIP3   OH258146   6.658   6.680  16.809
12244TIP3    H158147   6.631   6.771  16.823
12244TIP3    H258148   6.584   6.628  16.840
12245TIP3   OH258149   2.634   5.039  13.940
12245TIP3    H158150   2.598   5.121  13.906
12245TIP3    H258151   2.674   4.997  13.864
12246TIP3   OH258152   3.809   2.536  13.652
12246TIP3    H158153   3.893   2.530  13.698
12246TIP3    H258154   3.832   2.538  13.559
12247TIP3   OH258155   1.537   3.471  14.396
12247TIP3    H158156   1.480   3.546  14.414
12247TIP3    H258157   1.523   3.412  14.470
12248TIP3   OH258158   4.103   1.969   1.721
12248TIP3    H158159   4.198   1.962   1.734
12248TIP3    H258160   4.085   2.063   1.724
12249TIP3   OH258161   3.628   3.653  13.940
12249TIP3    H158162   3.583   3.702  13.871
12249TIP3    H258163   3.579   3.571  13.946
12250TIP3   OH258164   6.661   4.836   5.908
12250TIP3    H158165   6.751   4.849   5.877
12250TIP3    H258166   6.671   4.798   5.995
12251TIP3   OH258167   2.613   3.897  14.846
12251TIP3    H158168   2.645   3.899  14.756
12251TIP3    H258169   2.691   3.915  14.899
12252TIP3   OH258170   1.113   5.263   4.981
12252TIP3    H158171   1.024   5.286   5.008
12252TIP3    H258172   1.124   5.305   4.895
12253TIP3   OH258173   1.667   4.117   2.190
12253TIP3    H158174   1.612   4.039   2.181
12253TIP3    H258175   1.717   4.101   2.270
12254TIP3   OH258176   4.964   5.597   2.231
12254TIP3    H158177   5.032   5.564   2.289
12254TIP3    H258178   4.891   5.535   2.241
12255TIP3   OH258179   0.751   6.786   1.021
12255TIP3    H158180   0.698   6.726   1.072
12255TIP3    H258181   0.804   6.729   0.965
12256TIP3   OH258182   5.549   4.186  16.708
12256TIP3    H158183   5.575   4.170  16.617
12256TIP3    H258184   5.481   4.254  16.702
12257TIP3   OH258185   2.041   6.250  11.825
12257TIP3    H158186   2.028   6.276  11.916
12257TIP3    H258187   2.130   6.279  11.805
12258TIP3   OH258188   6.313   3.830  13.666
12258TIP3    H158189   6.253   3.791  13.602
12258TIP3    H258190   6.396   3.784  13.653
12259TIP3   OH258191   4.997   6.151   5.940
12259TIP3    H158192   5.090   6.170   5.945
12259TIP3    H258193   4.955   6.236   5.928
12260TIP3   OH258194   3.169   3.380   2.251
12260TIP3    H158195   3.107   3.331   2.306
12260TIP3    H258196   3.206   3.445   2.310
12261TIP3   OH258197   1.918   5.132   2.763
12261TIP3    H158198   1.933   5.135   2.857
12261TIP3    H258199   1.901   5.040   2.744
12262TIP3   OH258200   5.871   5.710   3.292
12262TIP3    H158201   5.929   5.643   3.330
12262TIP3    H258202   5.873   5.693   3.198
12263TIP3   OH258203   2.151   2.944   2.500
12263TIP3    H158204   2.157   2.852   2.526
12263TIP3    H258205   2.222   2.987   2.548
12264TIP3   OH258206   0.103   1.720   2.516
12264TIP3    H158207   0.051   1.650   2.475
12264TIP3    H258208   0.059   1.801   2.490
12265TIP3   OH258209   1.107   1.161  13.626
12265TIP3    H158210   1.118   1.082  13.678
12265TIP3    H258211   1.096   1.231  13.690
12266TIP3   OH258212   0.805   0.674   5.536
12266TIP3    H158213   0.887   0.720   5.551
12266TIP3    H258214   0.739   0.743   5.532
12267TIP3   OH258215   1.126   6.199   4.617
12267TIP3    H158216   1.148   6.106   4.621
12267TIP3    H258217   1.158   6.235   4.700
12268TIP3   OH258218   0.524   2.779   3.356
12268TIP3    H158219   0.495   2.867   3.381
12268TIP3    H258220   0.474   2.759   3.277
12269TIP3   OH258221   3.045   4.189   3.211
12269TIP3    H158222   3.020   4.111   3.261
12269TIP3    H258223   3.065   4.255   3.278
12270TIP3   OH258224   4.684   6.566  15.358
12270TIP3    H158225   4.714   6.503  15.423
12270TIP3    H258226   4.755   6.629  15.352
12271TIP3   OH258227   1.631   5.324  13.110
12271TIP3    H158228   1.725   5.324  13.093
12271TIP3    H258229   1.606   5.232  13.100
12272TIP3   OH258230   0.104   4.483   5.768
12272TIP3    H158231   0.116   4.474   5.862
12272TIP3    H258232   0.158   4.413   5.730
12273TIP3   OH258233   4.357   0.316   3.841
12273TIP3    H158234   4.351   0.314   3.936
12273TIP3    H258235   4.281   0.267   3.811
12274TIP3   OH258236   5.863   6.654   2.250
12274TIP3    H158237   5.909   6.593   2.192
12274TIP3    H258238   5.891   6.629   2.338
12275TIP3   OH258239   6.712   5.759   2.708
12275TIP3    H158240   6.744   5.846   2.734
12275TIP3    H258241   6.729   5.754   2.614
12276TIP3   OH258242   3.682   2.860   3.558
12276TIP3    H158243   3.770   2.823   3.564
12276TIP3    H258244   3.672   2.884   3.466
12277TIP3   OH258245   3.010   1.260   2.182
12277TIP3    H158246   2.924   1.235   2.217
12277TIP3    H258247   3.042   1.327   2.243
12278TIP3   OH258248   1.115   3.494   2.408
12278TIP3    H158249   1.162   3.413   2.429
12278TIP3    H258250   1.079   3.523   2.491
12279TIP3   OH258251   4.540   2.780  15.670
12279TIP3    H158252   4.452   2.777  15.708
12279TIP3    H258253   4.554   2.692  15.637
12280TIP3   OH258254   1.714   2.801  13.521
12280TIP3    H158255   1.618   2.807  13.521
12280TIP3    H258256   1.744   2.891  13.534
12281TIP3   OH258257   1.084   1.014  13.069
12281TIP3    H158258   1.084   0.930  13.114
12281TIP3    H258259   1.029   1.071  13.123
12282TIP3   OH258260   0.134   2.962   3.925
12282TIP3    H158261   0.116   2.912   4.004
12282TIP3    H258262   0.229   2.969   3.921
12283TIP3   OH258263   5.744   2.878  12.063
12283TIP3    H158264   5.671   2.940  12.070
12283TIP3    H258265   5.702   2.793  12.047
12284TIP3   OH258266   3.218   2.033  13.039
12284TIP3    H158267   3.181   2.012  12.953
12284TIP3    H258268   3.142   2.032  13.098
12285TIP3   OH258269   1.140   5.697  14.242
12285TIP3    H158270   1.061   5.693  14.190
12285TIP3    H258271   1.131   5.626  14.306
12286TIP3   OH258272   1.494   2.886  14.415
12286TIP3    H158273   1.522   2.826  14.345
12286TIP3    H258274   1.575   2.912  14.458
12287TIP3   OH258275   4.409   4.849   2.123
12287TIP3    H158276   4.440   4.863   2.034
12287TIP3    H258277   4.463   4.908   2.176
12288TIP3   OH258278   5.932   3.139   3.131
12288TIP3    H158279   5.999   3.171   3.192
12288TIP3    H258280   5.853   3.130   3.185
12289TIP3   OH258281   4.061   3.745  14.897
12289TIP3    H158282   3.985   3.699  14.863
12289TIP3    H258283   4.065   3.826  14.847
12290TIP3   OH258284   1.506   2.894  12.907
12290TIP3    H158285   1.504   2.985  12.878
12290TIP3    H258286   1.591   2.861  12.879
12291TIP3   OH258287   4.258   0.837   0.335
12291TIP3    H158288   4.231   0.892   0.261
12291TIP3    H258289   4.353   0.830   0.324
12292TIP3   OH258290   3.280   1.604   2.432
12292TIP3    H158291   3.325   1.684   2.405
12292TIP3    H258292   3.350   1.543   2.454
12293TIP3   OH258293   2.802   4.004   3.878
12293TIP3    H158294   2.796   4.098   3.893
12293TIP3    H258295   2.871   3.974   3.937
12294TIP3   OH258296   3.156   4.991   5.811
12294TIP3    H158297   3.180   5.000   5.719
12294TIP3    H258298   3.185   4.903   5.835
12295TIP3   OH258299   4.583   6.562   5.927
12295TIP3    H158300   4.534   6.498   5.875
12295TIP3    H258301   4.563   6.539   6.017
12296TIP3   OH258302   3.642   3.322  12.264
12296TIP3    H158303   3.710   3.376  12.224
12296TIP3    H258304   3.689   3.245  12.297
12297TIP3   OH258305   0.758   2.258  13.631
12297TIP3    H158306   0.834   2.266  13.574
12297TIP3    H258307   0.730   2.349  13.646
12298TIP3   OH258308   5.499   2.263   2.606
12298TIP3    H158309   5.409   2.235   2.594
12298TIP3    H258310   5.539   2.195   2.660
12299TIP3   OH258311   2.394   1.556   1.833
12299TIP3    H158312   2.468   1.495   1.830
12299TIP3    H258313   2.327   1.513   1.780
12300TIP3   OH258314   5.038   2.976  14.484
12300TIP3    H158315   5.108   2.986  14.418
12300TIP3    H258316   4.981   3.052  14.470
12301TIP3   OH258317   5.897   4.943   4.887
12301TIP3    H158318   5.968   4.911   4.831
12301TIP3    H258319   5.819   4.937   4.833
12302TIP3   OH258320   3.977   2.282   4.726
12302TIP3    H158321   4.055   2.337   4.734
12302TIP3    H258322   3.909   2.341   4.693
12303TIP3   OH258323   4.569   2.199   5.118
12303TIP3    H158324   4.596   2.146   5.043
12303TIP3    H258325   4.480   2.171   5.137
12304TIP3   OH258326   3.070   0.590  14.198
12304TIP3    H158327   3.145   0.536  14.222
12304TIP3    H258328   3.084   0.610  14.106
12305TIP3   OH258329   6.249   3.305   5.423
12305TIP3    H158330   6.338   3.270   5.432
12305TIP3    H258331   6.218   3.270   5.339
12306TIP3   OH258332   3.436   5.132   1.746
12306TIP3    H158333   3.455   5.155   1.837
12306TIP3    H258334   3.402   5.043   1.750
12307TIP3   OH258335   3.778   2.355  11.634
12307TIP3    H158336   3.758   2.272  11.677
12307TIP3    H258337   3.863   2.381  11.671
12308TIP3   OH258338   5.817   2.653   4.159
12308TIP3    H158339   5.783   2.648   4.248
12308TIP3    H258340   5.810   2.746   4.136
12309TIP3   OH258341   0.852   4.075   3.441
12309TIP3    H158342   0.910   4.120   3.503
12309TIP3    H258343   0.777   4.049   3.495
12310TIP3   OH258344   1.208   2.679  15.993
12310TIP3    H158345   1.175   2.702  15.906
12310TIP3    H258346   1.189   2.586  16.002
12311TIP3   OH258347   6.239   6.168   6.086
12311TIP3    H158348   6.265   6.170   6.179
12311TIP3    H258349   6.229   6.075   6.066
12312TIP3   OH258350   1.587   1.537  16.859
12312TIP3    H158351   1.497   1.518  16.834
12312TIP3    H258352   1.581   1.615  16.916
12313TIP3   OH258353   3.614   3.773   6.336
12313TIP3    H158354   3.654   3.799   6.419
12313TIP3    H258355   3.540   3.718   6.361
12314TIP3   OH258356   5.233   4.416   4.515
12314TIP3    H158357   5.245   4.503   4.477
12314TIP3    H258358   5.198   4.364   4.442
12315TIP3   OH258359   1.102   0.006   2.668
12315TIP3    H158360   1.164  -0.016   2.738
12315TIP3    H258361   1.027   0.044   2.713
12316TIP3   OH258362   6.630   1.856   2.689
12316TIP3    H158363   6.607   1.764   2.678
12316TIP3    H258364   6.699   1.872   2.624
12317TIP3   OH258365   2.718   1.563   0.596
12317TIP3    H158366   2.728   1.498   0.526
12317TIP3    H258367   2.742   1.646   0.555
12318TIP3   OH258368   5.606   0.487   2.499
12318TIP3    H158369   5.697   0.468   2.522
12318TIP3    H258370   5.592   0.578   2.527
12319TIP3   OH258371   2.823   0.447  12.333
12319TIP3    H158372   2.774   0.488  12.405
12319TIP3    H258373   2.833   0.356  12.360
12320TIP3   OH258374   3.736   4.501   5.370
12320TIP3    H158375   3.761   4.592   5.388
12320TIP3    H258376   3.808   4.449   5.406
12321TIP3   OH258377   5.311   6.291  13.869
12321TIP3    H158378   5.282   6.381  13.854
12321TIP3    H258379   5.388   6.300  13.926
12322TIP3   OH258380   1.527   4.067   0.868
12322TIP3    H158381   1.578   4.127   0.923
12322TIP3    H258382   1.464   4.027   0.928
12323TIP3   OH258383   4.001   0.419  13.825
12323TIP3    H158384   3.917   0.374  13.811
12323TIP3    H258385   4.005   0.483  13.754
12324TIP3   OH258386   3.227   1.862   1.972
12324TIP3    H158387   3.316   1.896   1.974
12324TIP3    H258388   3.172   1.937   1.951
12325TIP3   OH258389   2.715   6.199   3.313
12325TIP3    H158390   2.755   6.136   3.253
12325TIP3    H258391   2.680   6.267   3.256
12326TIP3   OH258392   2.801   2.175   3.896
12326TIP3    H158393   2.873   2.117   3.918
12326TIP3    H258394   2.723   2.119   3.897
12327TIP3   OH258395   1.321   4.864   2.756
12327TIP3    H158396   1.401   4.857   2.808
12327TIP3    H258397   1.259   4.912   2.812
12328TIP3   OH258398   1.532   1.483  16.432
12328TIP3    H158399   1.604   1.456  16.489
12328TIP3    H258400   1.574   1.520  16.355
12329TIP3   OH258401   1.977   2.991   6.014
12329TIP3    H158402   2.052   3.025   5.964
12329TIP3    H258403   2.009   2.986   6.104
12330TIP3   OH258404   2.648   0.792   5.254
12330TIP3    H158405   2.602   0.707   5.257
12330TIP3    H258406   2.578   0.856   5.243
12331TIP3   OH258407   0.177   0.491   0.723
12331TIP3    H158408   0.148   0.407   0.687
12331TIP3    H258409   0.234   0.528   0.656
12332TIP3   OH258410   4.754   6.172  12.192
12332TIP3    H158411   4.701   6.096  12.167
12332TIP3    H258412   4.798   6.146  12.273
12333TIP3   OH258413   5.900   4.018   1.570
12333TIP3    H158414   5.835   4.071   1.615
12333TIP3    H258415   5.918   3.945   1.629
12334TIP3   OH258416   5.660   1.858  12.600
12334TIP3    H158417   5.746   1.839  12.562
12334TIP3    H258418   5.646   1.951  12.583
12335TIP3   OH258419   6.326   5.232  14.972
12335TIP3    H158420   6.401   5.218  15.030
12335TIP3    H258421   6.279   5.305  15.011
12336TIP3   OH258422   0.284   3.144   1.881
12336TIP3    H158423   0.206   3.103   1.917
12336TIP3    H258424   0.264   3.159   1.789
12337TIP3   OH258425   2.696   1.021   2.950
12337TIP3    H158426   2.657   0.937   2.929
12337TIP3    H258427   2.659   1.044   3.035
12338TIP3   OH258428   0.346   1.574  11.918
12338TIP3    H158429   0.251   1.581  11.907
12338TIP3    H258430   0.366   1.636  11.989
12339TIP3   OH258431   6.173   5.085   1.001
12339TIP3    H158432   6.222   5.024   0.946
12339TIP3    H258433   6.083   5.081   0.967
12340TIP3   OH258434   3.585   5.832  11.803
12340TIP3    H158435   3.582   5.748  11.849
12340TIP3    H258436   3.580   5.808  11.710
12341TIP3   OH258437   2.007   0.761  12.422
12341TIP3    H158438   2.047   0.847  12.439
12341TIP3    H258439   2.081   0.701  12.416
12342TIP3   OH258440   0.779   3.552  15.765
12342TIP3    H158441   0.833   3.594  15.698
12342TIP3    H258442   0.841   3.517  15.828
12343TIP3   OH258443   0.483   0.418   5.949
12343TIP3    H158444   0.511   0.334   5.914
12343TIP3    H258445   0.513   0.483   5.885
12344TIP3   OH258446   4.827   5.011  13.476
12344TIP3    H158447   4.850   5.085  13.532
12344TIP3    H258448   4.765   5.047  13.412
12345TIP3   OH258449   2.859   4.685  15.882
12345TIP3    H158450   2.844   4.778  15.865
12345TIP3    H258451   2.819   4.670  15.968
12346TIP3   OH258452   1.810   4.565  13.084
12346TIP3    H158453   1.723   4.539  13.052
12346TIP3    H258454   1.794   4.592  13.174
12347TIP3   OH258455   3.356   0.537   3.869
12347TIP3    H158456   3.398   0.523   3.785
12347TIP3    H258457   3.427   0.564   3.927
12348TIP3   OH258458   0.375   2.278   2.097
12348TIP3    H158459   0.451   2.334   2.077
12348TIP3    H258460   0.413   2.192   2.113
12349TIP3   OH258461   6.403   4.772  16.833
12349TIP3    H158462   6.352   4.852  16.819
12349TIP3    H258463   6.452   4.789  16.913
12350TIP3   OH258464   3.019   0.508  11.144
12350TIP3    H158465   3.014   0.419  11.181
12350TIP3    H258466   3.083   0.501  11.074
12351TIP3   OH258467   3.831   6.128  16.006
12351TIP3    H158468   3.775   6.195  15.969
12351TIP3    H258469   3.809   6.127  16.099
12352TIP3   OH258470   4.676   1.203   5.025
12352TIP3    H158471   4.684   1.218   4.931
12352TIP3    H258472   4.723   1.276   5.066
12353TIP3   OH258473   0.031   0.622   5.521
12353TIP3    H158474  -0.017   0.691   5.565
12353TIP3    H258475   0.065   0.663   5.441
12354TIP3   OH258476   6.733   1.583   4.101
12354TIP3    H158477   6.781   1.503   4.120
12354TIP3    H258478   6.714   1.578   4.007
12355TIP3   OH258479   5.354   5.643   2.702
12355TIP3    H158480   5.422   5.599   2.753
12355TIP3    H258481   5.280   5.651   2.763
12356TIP3   OH258482   6.129   1.952  12.730
12356TIP3    H158483   6.087   2.026  12.687
12356TIP3    H258484   6.222   1.962  12.709
12357TIP3   OH258485   0.220   3.307   4.158
12357TIP3    H158486   0.195   3.298   4.067
12357TIP3    H258487   0.199   3.222   4.198
12358TIP3   OH258488   5.662   5.384   5.640
12358TIP3    H158489   5.739   5.408   5.691
12358TIP3    H258490   5.588   5.415   5.693
12359TIP3   OH258491   3.579   3.598   4.571
12359TIP3    H158492   3.551   3.583   4.661
12359TIP3    H258493   3.670   3.569   4.570
12360TIP3   OH258494   1.091   1.813  12.633
12360TIP3    H158495   1.097   1.863  12.714
12360TIP3    H258496   1.021   1.750  12.649
12361TIP3   OH258497   0.029   5.145   1.242
12361TIP3    H158498   0.091   5.092   1.193
12361TIP3    H258499   0.083   5.203   1.296
12362TIP3   OH258500   2.783   0.625   5.706
12362TIP3    H158501   2.841   0.688   5.749
12362TIP3    H258502   2.811   0.627   5.614
12363TIP3   OH258503   4.178   4.477  12.044
12363TIP3    H158504   4.186   4.420  12.121
12363TIP3    H258505   4.158   4.563  12.080
12364TIP3   OH258506   0.785   6.696  15.430
12364TIP3    H158507   0.756   6.766  15.372
12364TIP3    H258508   0.877   6.682  15.407
12365TIP3   OH258509   4.589   4.087  13.142
12365TIP3    H158510   4.624   4.030  13.073
12365TIP3    H258511   4.542   4.027  13.200
12366TIP3   OH258512   4.526   5.367  16.207
12366TIP3    H158513   4.594   5.378  16.140
12366TIP3    H258514   4.449   5.410  16.170
12367TIP3   OH258515   6.315   6.518   4.779
12367TIP3    H158516   6.380   6.584   4.801
12367TIP3    H258517   6.243   6.533   4.842
12368TIP3   OH258518   4.296   2.495   1.166
12368TIP3    H158519   4.280   2.423   1.104
12368TIP3    H258520   4.209   2.515   1.202
12369TIP3   OH258521   5.390   5.861  15.200
12369TIP3    H158522   5.361   5.951  15.216
12369TIP3    H258523   5.312   5.817  15.167
12370TIP3   OH258524   5.643   6.301  13.471
12370TIP3    H158525   5.605   6.214  13.485
12370TIP3    H258526   5.598   6.357  13.535
12371TIP3   OH258527   4.211   5.624  12.263
12371TIP3    H158528   4.265   5.694  12.300
12371TIP3    H258529   4.133   5.622  12.319
12372TIP3   OH258530   2.840   3.678   1.986
12372TIP3    H158531   2.746   3.657   1.985
12372TIP3    H258532   2.851   3.738   1.912
12373TIP3   OH258533   3.008   5.195  10.532
12373TIP3    H158534   3.046   5.243  10.606
12373TIP3    H258535   3.036   5.243  10.455
12374TIP3   OH258536   4.656   2.522   2.442
12374TIP3    H158537   4.595   2.580   2.397
12374TIP3    H258538   4.601   2.474   2.505
12375TIP3   OH258539   1.189   2.937   1.716
12375TIP3    H158540   1.208   2.885   1.794
12375TIP3    H258541   1.095   2.928   1.704
12376TIP3   OH258542   6.327   0.145   4.035
12376TIP3    H158543   6.346   0.226   3.988
12376TIP3    H258544   6.245   0.113   3.997
12377TIP3   OH258545   4.629   3.449   2.593
12377TIP3    H158546   4.689   3.384   2.631
12377TIP3    H258547   4.566   3.396   2.544
12378TIP3   OH258548   2.962   3.919  12.822
12378TIP3    H158549   3.055   3.897  12.824
12378TIP3    H258550   2.917   3.836  12.810
12379TIP3   OH258551   4.489   4.796   1.696
12379TIP3    H158552   4.504   4.737   1.771
12379TIP3    H258553   4.475   4.882   1.736
12380TIP3   OH258554   2.036   2.848  16.011
12380TIP3    H158555   2.025   2.942  15.996
12380TIP3    H258556   1.952   2.820  16.048
12381TIP3   OH258557   3.484   2.583  15.956
12381TIP3    H158558   3.419   2.653  15.963
12381TIP3    H258559   3.439   2.513  15.910
12382TIP3   OH258560   4.964   4.747  16.223
12382TIP3    H158561   5.043   4.704  16.257
12382TIP3    H258562   4.967   4.835  16.260
12383TIP3   OH258563   6.553   3.194  14.625
12383TIP3    H158564   6.475   3.225  14.578
12383TIP3    H258565   6.623   3.252  14.596
12384TIP3   OH258566   5.098   1.066   4.476
12384TIP3    H158567   5.190   1.070   4.500
12384TIP3    H258568   5.069   0.980   4.507
12385TIP3   OH258569   3.079   0.172   3.702
12385TIP3    H158570   3.019   0.098   3.694
12385TIP3    H258571   3.022   0.248   3.715
12386TIP3   OH258572   3.216   3.634  17.120
12386TIP3    H158573   3.150   3.702  17.109
12386TIP3    H258574   3.243   3.612  17.030
12387TIP3   OH258575   5.911   2.299   1.931
12387TIP3    H158576   6.003   2.295   1.958
12387TIP3    H258577   5.905   2.242   1.854
12388TIP3   OH258578   5.823   0.738  14.290
12388TIP3    H158579   5.763   0.791  14.238
12388TIP3    H258580   5.909   0.777  14.276
12389TIP3   OH258581   3.950   2.593  12.577
12389TIP3    H158582   3.883   2.524  12.575
12389TIP3    H258583   3.929   2.649  12.503
12390TIP3   OH258584   6.237   2.226  13.980
12390TIP3    H158585   6.236   2.287  14.055
12390TIP3    H258586   6.226   2.140  14.020
12391TIP3   OH258587   2.968   4.340  12.316
12391TIP3    H158588   2.884   4.338  12.270
12391TIP3    H258589   3.003   4.427  12.299
12392TIP3   OH258590   4.647   4.440   3.523
12392TIP3    H158591   4.610   4.409   3.441
12392TIP3    H258592   4.694   4.520   3.501
12393TIP3   OH258593   3.593   6.234   0.230
12393TIP3    H158594   3.537   6.169   0.187
12393TIP3    H258595   3.677   6.228   0.185
12394TIP3   OH258596   0.404   0.672  11.983
12394TIP3    H158597   0.321   0.686  11.936
12394TIP3    H258598   0.432   0.760  12.008
12395TIP3   OH258599   3.114   5.559   6.029
12395TIP3    H158600   3.148   5.506   5.957
12395TIP3    H258601   3.127   5.504   6.106
12396TIP3   OH258602   2.818   5.593   3.267
12396TIP3    H158603   2.823   5.523   3.203
12396TIP3    H258604   2.909   5.605   3.296
12397TIP3   OH258605   5.825   4.755   2.941
12397TIP3    H158606   5.741   4.713   2.927
12397TIP3    H258607   5.829   4.772   3.035
12398TIP3   OH258608   0.363   5.506   0.489
12398TIP3    H158609   0.315   5.520   0.571
12398TIP3    H258610   0.411   5.425   0.503
12399TIP3   OH258611   3.460   2.910   0.259
12399TIP3    H158612   3.389   2.895   0.196
12399TIP3    H258613   3.451   3.001   0.285
12400TIP3   OH258614   6.200   1.142  16.825
12400TIP3    H158615   6.138   1.207  16.792
12400TIP3    H258616   6.277   1.194  16.849
12401TIP3   OH258617   6.725   0.544   1.989
12401TIP3    H158618   6.774   0.512   1.913
12401TIP3    H258619   6.776   0.618   2.021
12402TIP3   OH258620   3.037   2.020  17.141
12402TIP3    H158621   3.006   1.982  17.059
12402TIP3    H258622   3.095   2.091  17.115
12403TIP3   OH258623   4.545   0.876   1.588
12403TIP3    H158624   4.540   0.962   1.631
12403TIP3    H258625   4.631   0.876   1.545
12404TIP3   OH258626   1.177   2.494  16.280
12404TIP3    H158627   1.228   2.575  16.281
12404TIP3    H258628   1.091   2.520  16.245
12405TIP3   OH258629   0.914   4.348  14.547
12405TIP3    H158630   0.887   4.409  14.615
12405TIP3    H258631   0.834   4.302  14.523
12406TIP3   OH258632   3.763   0.364   0.827
12406TIP3    H158633   3.806   0.419   0.893
12406TIP3    H258634   3.794   0.276   0.846
12407TIP3   OH258635   1.980   5.977  14.336
12407TIP3    H158636   2.002   6.012  14.250
12407TIP3    H258637   2.058   5.931  14.365
12408TIP3   OH258638   4.422   5.914   2.151
12408TIP3    H158639   4.510   5.918   2.113
12408TIP3    H258640   4.435   5.869   2.235
12409TIP3   OH258641   2.522   0.128   5.498
12409TIP3    H158642   2.523   0.111   5.592
12409TIP3    H258643   2.582   0.202   5.487
12410TIP3   OH258644   6.663   3.427   6.545
12410TIP3    H158645   6.753   3.462   6.543
12410TIP3    H258646   6.608   3.502   6.526
12411TIP3   OH258647   2.582   5.810  17.119
12411TIP3    H158648   2.632   5.829  17.040
12411TIP3    H258649   2.637   5.750  17.169
12412TIP3   OH258650   3.556   1.405   4.934
12412TIP3    H158651   3.546   1.496   4.906
12412TIP3    H258652   3.650   1.391   4.939
12413TIP3   OH258653   3.637   6.014   1.528
12413TIP3    H158654   3.643   6.108   1.548
12413TIP3    H258655   3.554   5.987   1.568
12414TIP3   OH258656   3.981   2.190   5.016
12414TIP3    H158657   3.892   2.190   4.981
12414TIP3    H258658   4.036   2.206   4.939
12415TIP3   OH258659   5.754   0.667  13.419
12415TIP3    H158660   5.784   0.596  13.476
12415TIP3    H258661   5.804   0.744  13.448
12416TIP3   OH258662   0.660   2.510  13.677
12416TIP3    H158663   0.692   2.587  13.631
12416TIP3    H258664   0.619   2.545  13.757
12417TIP3   OH258665   6.293   0.191  15.830
12417TIP3    H158666   6.227   0.223  15.769
12417TIP3    H258667   6.271   0.099  15.843
12418TIP3   OH258668   0.294   0.007   0.092
12418TIP3    H158669   0.284   0.094   0.130
12418TIP3    H258670   0.322   0.023   0.002
12419TIP3   OH258671   4.578   6.624  12.459
12419TIP3    H158672   4.596   6.592  12.548
12419TIP3    H258673   4.564   6.718  12.470
12420TIP3   OH258674   5.361   6.104  13.327
12420TIP3    H158675   5.307   6.159  13.270
12420TIP3    H258676   5.439   6.084  13.275
12421TIP3   OH258677   5.919   1.595   4.276
12421TIP3    H158678   5.855   1.589   4.346
12421TIP3    H258679   5.984   1.528   4.297
12422TIP3   OH258680   1.407   4.589  15.984
12422TIP3    H158681   1.428   4.550  16.069
12422TIP3    H258682   1.315   4.568  15.970
12423TIP3   OH258683   5.259   4.777  13.308
12423TIP3    H158684   5.200   4.722  13.256
12423TIP3    H258685   5.233   4.867  13.286
12424TIP3   OH258686   5.094   4.484  12.839
12424TIP3    H158687   5.060   4.553  12.896
12424TIP3    H258688   5.032   4.479  12.766
12425TIP3   OH258689   4.208   3.732   5.104
12425TIP3    H158690   4.185   3.824   5.115
12425TIP3    H258691   4.259   3.729   5.023
12426TIP3   OH258692   1.808   3.170   2.311
12426TIP3    H158693   1.813   3.202   2.221
12426TIP3    H258694   1.819   3.249   2.364
12427TIP3   OH258695   0.880   0.106  11.233
12427TIP3    H158696   0.901   0.017  11.260
12427TIP3    H258697   0.820   0.138  11.300
12428TIP3   OH258698   2.397   4.623   3.660
12428TIP3    H158699   2.456   4.645   3.732
12428TIP3    H258700   2.443   4.651   3.581
12429TIP3   OH258701   2.416   1.587   3.833
12429TIP3    H158702   2.401   1.529   3.759
12429TIP3    H258703   2.400   1.675   3.799
12430TIP3   OH258704   2.860   6.408  14.199
12430TIP3    H158705   2.791   6.397  14.264
12430TIP3    H258706   2.933   6.355  14.233
12431TIP3   OH258707   4.430   1.150   3.889
12431TIP3    H158708   4.476   1.209   3.829
12431TIP3    H258709   4.354   1.120   3.840
12432TIP3   OH258710   0.842   0.043   2.006
12432TIP3    H158711   0.905  -0.027   2.022
12432TIP3    H258712   0.861   0.109   2.073
12433TIP3   OH258713   6.657   6.730   4.603
12433TIP3    H158714   6.619   6.690   4.680
12433TIP3    H258715   6.715   6.798   4.637
12434TIP3   OH258716   0.379   0.254   2.403
12434TIP3    H158717   0.429   0.196   2.346
12434TIP3    H258718   0.444   0.313   2.440
12435TIP3   OH258719   0.468   1.656  11.620
12435TIP3    H158720   0.515   1.740  11.624
12435TIP3    H258721   0.384   1.678  11.580
12436TIP3   OH258722   1.657   4.792   2.703
12436TIP3    H158723   1.602   4.788   2.781
12436TIP3    H258724   1.613   4.854   2.645
12437TIP3   OH258725   5.598   5.886   4.295
12437TIP3    H158726   5.505   5.872   4.315
12437TIP3    H258727   5.644   5.842   4.366
12438TIP3   OH258728   6.623   2.145  13.092
12438TIP3    H158729   6.599   2.070  13.037
12438TIP3    H258730   6.572   2.218  13.057
12439TIP3   OH258731   6.397   1.329   1.336
12439TIP3    H158732   6.406   1.403   1.276
12439TIP3    H258733   6.462   1.266   1.305
12440TIP3   OH258734   6.375   3.895   1.334
12440TIP3    H158735   6.365   3.854   1.248
12440TIP3    H258736   6.432   3.970   1.318
12441TIP3   OH258737   4.362   0.423   4.276
12441TIP3    H158738   4.388   0.365   4.204
12441TIP3    H258739   4.307   0.368   4.332
12442TIP3   OH258740   0.954   4.441   1.387
12442TIP3    H158741   0.999   4.357   1.375
12442TIP3    H258742   1.019   4.497   1.431
12443TIP3   OH258743   3.055   1.832   5.054
12443TIP3    H158744   3.044   1.803   4.963
12443TIP3    H258745   3.136   1.790   5.083
12444TIP3   OH258746   1.337   1.356   6.743
12444TIP3    H158747   1.257   1.400   6.714
12444TIP3    H258748   1.407   1.420   6.727
12445TIP3   OH258749   1.690   4.573  15.932
12445TIP3    H158750   1.768   4.599  15.981
12445TIP3    H258751   1.652   4.656  15.903
12446TIP3   OH258752   0.753   1.014   3.109
12446TIP3    H158753   0.827   1.009   3.170
12446TIP3    H258754   0.730   0.922   3.092
12447TIP3   OH258755   0.487   4.433  11.593
12447TIP3    H158756   0.413   4.388  11.551
12447TIP3    H258757   0.495   4.392  11.679
12448TIP3   OH258758   2.637   6.114   0.907
12448TIP3    H158759   2.635   6.020   0.888
12448TIP3    H258760   2.697   6.122   0.981
12449TIP3   OH258761   4.463   3.099   1.014
12449TIP3    H158762   4.408   3.094   1.093
12449TIP3    H258763   4.435   3.024   0.961
12450TIP3   OH258764   1.878   3.454   4.061
12450TIP3    H158765   1.902   3.382   4.003
12450TIP3    H258766   1.793   3.483   4.029
12451TIP3   OH258767   4.317   4.730   2.893
12451TIP3    H158768   4.254   4.733   2.965
12451TIP3    H258769   4.264   4.733   2.814
12452TIP3   OH258770   4.637   2.606  13.115
12452TIP3    H158771   4.564   2.567  13.067
12452TIP3    H258772   4.711   2.548  13.097
12453TIP3   OH258773   0.016   6.757  13.631
12453TIP3    H158774  -0.061   6.813  13.627
12453TIP3    H258775   0.076   6.803  13.690
12454TIP3   OH258776   6.689   5.807   5.320
12454TIP3    H158777   6.659   5.796   5.410
12454TIP3    H258778   6.754   5.877   5.326
12455TIP3   OH258779   4.860   2.897  11.540
12455TIP3    H158780   4.867   2.934  11.452
12455TIP3    H258781   4.822   2.810  11.527
12456TIP3   OH258782   2.636   0.064  15.111
12456TIP3    H158783   2.584   0.001  15.161
12456TIP3    H258784   2.719   0.069  15.158
12457TIP3   OH258785   0.779   5.882  16.873
12457TIP3    H158786   0.753   5.973  16.861
12457TIP3    H258787   0.866   5.887  16.913
12458TIP3   OH258788   0.592   3.143   1.681
12458TIP3    H158789   0.636   3.119   1.763
12458TIP3    H258790   0.598   3.239   1.679
12459TIP3   OH258791   1.712   2.044   0.648
12459TIP3    H158792   1.700   2.138   0.634
12459TIP3    H258793   1.785   2.038   0.710
12460TIP3   OH258794   3.597   0.227   2.614
12460TIP3    H158795   3.576   0.256   2.526
12460TIP3    H258796   3.692   0.234   2.620
12461TIP3   OH258797   6.411   2.028  12.705
12461TIP3    H158798   6.376   2.117  12.707
12461TIP3    H258799   6.449   2.019  12.618
12462TIP3   OH258800   3.315   5.981   2.498
12462TIP3    H158801   3.311   5.885   2.497
12462TIP3    H258802   3.285   6.007   2.411
12463TIP3   OH258803   0.895   3.318   0.943
12463TIP3    H158804   0.890   3.258   0.869
12463TIP3    H258805   0.818   3.374   0.934
12464TIP3   OH258806   3.168   3.058   2.954
12464TIP3    H158807   3.083   3.090   2.984
12464TIP3    H258808   3.147   2.998   2.883
12465TIP3   OH258809   2.069   3.017   5.359
12465TIP3    H158810   2.165   3.013   5.355
12465TIP3    H258811   2.045   2.947   5.420
12466TIP3   OH258812   5.147   0.172   5.297
12466TIP3    H158813   5.069   0.119   5.280
12466TIP3    H258814   5.218   0.108   5.307
12467TIP3   OH258815   6.561   0.872  14.618
12467TIP3    H158816   6.513   0.932  14.562
12467TIP3    H258817   6.625   0.927  14.663
12468TIP3   OH258818   1.327   0.544   0.466
12468TIP3    H158819   1.373   0.624   0.439
12468TIP3    H258820   1.306   0.499   0.384
12469TIP3   OH258821   3.918   4.836   0.552
12469TIP3    H158822   3.945   4.886   0.474
12469TIP3    H258823   3.968   4.754   0.547
12470TIP3   OH258824   1.010   3.514  15.944
12470TIP3    H158825   1.047   3.525  16.032
12470TIP3    H258826   1.001   3.420  15.933
12471TIP3   OH258827   6.447   5.844  13.989
12471TIP3    H158828   6.500   5.837  14.069
12471TIP3    H258829   6.404   5.928  13.996
12472TIP3   OH258830   2.509   2.535  12.247
12472TIP3    H158831   2.456   2.459  12.270
12472TIP3    H258832   2.481   2.558  12.158
12473TIP3   OH258833   1.152   2.700   3.035
12473TIP3    H158834   1.196   2.783   3.053
12473TIP3    H258835   1.114   2.674   3.118
12474TIP3   OH258836   4.325   6.235  17.040
12474TIP3    H158837   4.309   6.328  17.026
12474TIP3    H258838   4.420   6.228  17.050
12475TIP3   OH258839   1.554   1.837   2.534
12475TIP3    H158840   1.536   1.921   2.577
12475TIP3    H258841   1.632   1.804   2.579
12476TIP3   OH258842   5.586   2.042  14.055
12476TIP3    H158843   5.660   2.080  14.103
12476TIP3    H258844   5.509   2.085  14.093
12477TIP3   OH258845   5.370   4.041   2.902
12477TIP3    H158846   5.437   4.006   2.843
12477TIP3    H258847   5.418   4.062   2.982
12478TIP3   OH258848   1.392   1.820  12.429
12478TIP3    H158849   1.440   1.893  12.467
12478TIP3    H258850   1.376   1.761  12.502
12479TIP3   OH258851   5.096   5.160  12.500
12479TIP3    H158852   5.074   5.139  12.591
12479TIP3    H258853   5.191   5.168  12.499
12480TIP3   OH258854   5.484   5.066  11.594
12480TIP3    H158855   5.428   5.046  11.669
12480TIP3    H258856   5.572   5.042  11.623
12481TIP3   OH258857   6.151   3.203  16.996
12481TIP3    H158858   6.116   3.128  16.947
12481TIP3    H258859   6.084   3.222  17.061
12482TIP3   OH258860   2.789   3.037  12.770
12482TIP3    H158861   2.840   2.957  12.783
12482TIP3    H258862   2.701   3.005  12.747
12483TIP3   OH258863   5.188   1.966   4.548
12483TIP3    H158864   5.200   2.053   4.512
12483TIP3    H258865   5.094   1.950   4.541
12484TIP3   OH258866   4.638   1.749   0.986
12484TIP3    H158867   4.574   1.679   0.972
12484TIP3    H258868   4.722   1.704   0.992
12485TIP3   OH258869   3.806   6.488  16.518
12485TIP3    H158870   3.887   6.533  16.494
12485TIP3    H258871   3.737   6.551  16.500
12486TIP3   OH258872   4.925   1.490  15.976
12486TIP3    H158873   5.007   1.458  16.013
12486TIP3    H258874   4.858   1.436  16.019
12487TIP3   OH258875   5.760   4.986  10.831
12487TIP3    H158876   5.763   5.074  10.868
12487TIP3    H258877   5.775   4.928  10.905
12488TIP3   OH258878   5.633   3.931  16.787
12488TIP3    H158879   5.603   4.022  16.780
12488TIP3    H258880   5.625   3.896  16.699
12489TIP3   OH258881   5.145   5.840   2.051
12489TIP3    H158882   5.096   5.910   2.094
12489TIP3    H258883   5.130   5.763   2.107
12490TIP3   OH258884   0.794   4.914  14.103
12490TIP3    H158885   0.872   4.929  14.156
12490TIP3    H258886   0.784   4.819  14.100
12491TIP3   OH258887   2.307   6.136   4.993
12491TIP3    H158888   2.304   6.148   4.898
12491TIP3    H258889   2.364   6.061   5.006
12492TIP3   OH258890   5.385   2.500   3.860
12492TIP3    H158891   5.394   2.494   3.765
12492TIP3    H258892   5.413   2.415   3.893
12493TIP3   OH258893   4.919   2.230  15.419
12493TIP3    H158894   5.013   2.228  15.438
12493TIP3    H258895   4.884   2.154  15.465
12494TIP3   OH258896   2.562   0.202   0.500
12494TIP3    H158897   2.494   0.188   0.565
12494TIP3    H258898   2.638   0.154   0.533
12495TIP3   OH258899   1.959   0.304  13.047
12495TIP3    H158900   1.975   0.277  12.956
12495TIP3    H258901   1.949   0.221  13.095
12496TIP3   OH258902   1.575   1.690  13.976
12496TIP3    H158903   1.519   1.685  14.054
12496TIP3    H258904   1.515   1.672  13.904
12497TIP3   OH258905   2.936   3.922   3.644
12497TIP3    H158906   2.870   3.948   3.708
12497TIP3    H258907   2.933   3.826   3.644
12498TIP3   OH258908   2.381   4.210   0.306
12498TIP3    H158909   2.403   4.175   0.220
12498TIP3    H258910   2.412   4.144   0.368
12499TIP3   OH258911   1.139   2.336  10.722
12499TIP3    H158912   1.145   2.431  10.719
12499TIP3    H258913   1.207   2.305  10.663
12500TIP3   OH258914   1.968   1.490  11.061
12500TIP3    H158915   1.924   1.479  11.146
12500TIP3    H258916   2.029   1.416  11.057
12501TIP3   OH258917   2.389   1.245   2.388
12501TIP3    H158918   2.324   1.175   2.384
12501TIP3    H258919   2.444   1.231   2.311
12502TIP3   OH258920   5.910   1.109   5.082
12502TIP3    H158921   5.874   1.135   4.998
12502TIP3    H258922   5.887   1.180   5.142
12503TIP3   OH258923   2.162   6.398  12.569
12503TIP3    H158924   2.145   6.406  12.663
12503TIP3    H258925   2.189   6.307  12.558
12504TIP3   OH258926   5.746   1.842   2.097
12504TIP3    H158927   5.699   1.919   2.067
12504TIP3    H258928   5.736   1.844   2.193
12505TIP3   OH258929   3.478   4.600   2.146
12505TIP3    H158930   3.491   4.520   2.094
12505TIP3    H258931   3.461   4.668   2.081
12506TIP3   OH258932   4.822   5.065  11.366
12506TIP3    H158933   4.732   5.039  11.346
12506TIP3    H258934   4.849   5.119  11.292
12507TIP3   OH258935   0.707   5.037   2.180
12507TIP3    H158936   0.752   5.038   2.095
12507TIP3    H258937   0.646   5.111   2.176
12508TIP3   OH258938   3.484   2.168   3.362
12508TIP3    H158939   3.426   2.244   3.362
12508TIP3    H258940   3.465   2.124   3.279
12509TIP3   OH258941   1.782   5.602   3.774
12509TIP3    H158942   1.873   5.624   3.792
12509TIP3    H258943   1.740   5.600   3.860
12510TIP3   OH258944   0.810   2.617  15.762
12510TIP3    H158945   0.767   2.672  15.697
12510TIP3    H258946   0.742   2.555  15.789
12511TIP3   OH258947   0.122   5.649   5.895
12511TIP3    H158948   0.206   5.608   5.916
12511TIP3    H258949   0.096   5.609   5.812
12512TIP3   OH258950   4.659   5.487   3.879
12512TIP3    H158951   4.660   5.583   3.876
12512TIP3    H258952   4.621   5.466   3.964
12513TIP3   OH258953   0.552   3.008  11.943
12513TIP3    H158954   0.521   2.945  11.877
12513TIP3    H258955   0.545   2.961  12.026
12514TIP3   OH258956   3.295   3.716   0.960
12514TIP3    H158957   3.223   3.659   0.931
12514TIP3    H258958   3.261   3.805   0.948
12515TIP3   OH258959   3.372   2.524   1.324
12515TIP3    H158960   3.304   2.505   1.389
12515TIP3    H258961   3.330   2.504   1.240
12516TIP3   OH258962   1.252   3.597  12.649
12516TIP3    H158963   1.243   3.588  12.744
12516TIP3    H258964   1.318   3.665  12.637
12517TIP3   OH258965   0.125   4.538  12.595
12517TIP3    H158966   0.138   4.632  12.581
12517TIP3    H258967   0.178   4.496  12.527
12518TIP3   OH258968   1.104   1.461   0.205
12518TIP3    H158969   1.197   1.439   0.205
12518TIP3    H258970   1.097   1.536   0.147
12519TIP3   OH258971   5.498   0.394   5.500
12519TIP3    H158972   5.488   0.372   5.592
12519TIP3    H258973   5.524   0.313   5.458
12520TIP3   OH258974   0.696   1.837   1.927
12520TIP3    H158975   0.679   1.882   1.845
12520TIP3    H258976   0.611   1.801   1.953
12521TIP3   OH258977   1.272   5.744  14.833
12521TIP3    H158978   1.291   5.741  14.927
12521TIP3    H258979   1.177   5.753  14.828
12522TIP3   OH258980   1.719   6.516   2.472
12522TIP3    H158981   1.672   6.596   2.449
12522TIP3    H258982   1.686   6.451   2.411
12523TIP3   OH258983   2.480   4.583  14.952
12523TIP3    H158984   2.461   4.676  14.939
12523TIP3    H258985   2.427   4.538  14.885
12524TIP3   OH258986   4.750   5.671   5.202
12524TIP3    H158987   4.768   5.765   5.209
12524TIP3    H258988   4.785   5.646   5.117
12525TIP3   OH258989   0.931   3.104   0.293
12525TIP3    H158990   0.931   3.008   0.297
12525TIP3    H258991   0.879   3.125   0.215
12526TIP3   OH258992   2.822   1.778  14.853
12526TIP3    H158993   2.734   1.742  14.858
12526TIP3    H258994   2.870   1.733  14.923
12527TIP3   OH258995   1.861   1.813   0.252
12527TIP3    H158996   1.900   1.741   0.204
12527TIP3    H258997   1.843   1.777   0.339
12528TIP3   OH258998   4.644   6.108   1.360
12528TIP3    H158999   4.706   6.037   1.342
12528TIP3    H259000   4.697   6.187   1.360
12529TIP3   OH259001   1.942   0.770   2.772
12529TIP3    H159002   2.030   0.777   2.810
12529TIP3    H259003   1.957   0.739   2.683
12530TIP3   OH259004   0.643   5.732  15.178
12530TIP3    H159005   0.703   5.671  15.136
12530TIP3    H259006   0.556   5.696  15.160
12531TIP3   OH259007   5.736   5.518   0.084
12531TIP3    H159008   5.778   5.496   0.001
12531TIP3    H259009   5.800   5.573   0.129
12532TIP3   OH259010   3.620   0.555  16.852
12532TIP3    H159011   3.584   0.637  16.887
12532TIP3    H259012   3.595   0.556  16.760
12533TIP3   OH259013   0.080   1.535  11.888
12533TIP3    H159014   0.059   1.509  11.978
12533TIP3    H259015  -0.005   1.539  11.844
12534TIP3   OH259016   3.251   5.790   5.935
12534TIP3    H159017   3.163   5.755   5.927
12534TIP3    H259018   3.307   5.713   5.941
12535TIP3   OH259019   0.341   1.227   0.157
12535TIP3    H159020   0.292   1.293   0.108
12535TIP3    H259021   0.432   1.256   0.152
12536TIP3   OH259022   1.640   2.184  13.519
12536TIP3    H159023   1.646   2.274  13.488
12536TIP3    H259024   1.604   2.135  13.444
12537TIP3   OH259025   4.049   3.795   5.500
12537TIP3    H159026   4.022   3.751   5.420
12537TIP3    H259027   4.138   3.764   5.517
12538TIP3   OH259028   3.367   4.032  14.106
12538TIP3    H159029   3.344   4.125  14.101
12538TIP3    H259030   3.425   4.026  14.183
12539TIP3   OH259031   2.869   2.189  15.659
12539TIP3    H159032   2.869   2.112  15.602
12539TIP3    H259033   2.917   2.255  15.609
12540TIP3   OH259034   2.877   3.047   3.772
12540TIP3    H159035   2.938   2.974   3.775
12540TIP3    H259036   2.889   3.085   3.685
12541TIP3   OH259037   2.459   6.434  14.732
12541TIP3    H159038   2.406   6.474  14.802
12541TIP3    H259039   2.398   6.376  14.687
12542TIP3   OH259040   5.824   6.079  13.407
12542TIP3    H159041   5.912   6.069  13.370
12542TIP3    H259042   5.813   6.003  13.464
12543TIP3   OH259043   5.609   5.069   2.235
12543TIP3    H159044   5.671   5.140   2.255
12543TIP3    H259045   5.627   5.002   2.301
12544TIP3   OH259046   1.038   3.419   0.345
12544TIP3    H159047   0.977   3.490   0.327
12544TIP3    H259048   1.118   3.462   0.376
12545TIP3   OH259049   2.465   0.560  12.914
12545TIP3    H159050   2.538   0.558  12.852
12545TIP3    H259051   2.444   0.653  12.923
12546TIP3   OH259052   4.796   1.292  12.871
12546TIP3    H159053   4.835   1.213  12.907
12546TIP3    H259054   4.855   1.363  12.898
12547TIP3   OH259055   5.162   4.814   1.608
12547TIP3    H159056   5.132   4.881   1.670
12547TIP3    H259057   5.095   4.811   1.541
12548TIP3   OH259058   0.268   1.465  11.657
12548TIP3    H159059   0.238   1.454  11.747
12548TIP3    H259060   0.359   1.493  11.665
12549TIP3   OH259061   1.068   3.704   5.292
12549TIP3    H159062   1.054   3.769   5.360
12549TIP3    H259063   1.163   3.697   5.285
12550TIP3   OH259064   1.787   1.737  15.740
12550TIP3    H159065   1.876   1.772  15.749
12550TIP3    H259066   1.737   1.780  15.809
12551TIP3   OH259067   0.920   5.636   4.693
12551TIP3    H159068   1.003   5.638   4.739
12551TIP3    H259069   0.876   5.557   4.724
12552TIP3   OH259070   3.933   3.745  15.847
12552TIP3    H159071   3.845   3.753  15.885
12552TIP3    H259072   3.918   3.726  15.755
12553TIP3   OH259073   6.628   6.254   1.094
12553TIP3    H159074   6.631   6.197   1.170
12553TIP3    H259075   6.584   6.202   1.027
12554TIP3   OH259076   2.427   2.855   1.897
12554TIP3    H159077   2.509   2.884   1.938
12554TIP3    H259078   2.416   2.913   1.822
12555TIP3   OH259079   2.310   3.722  14.534
12555TIP3    H159080   2.344   3.639  14.567
12555TIP3    H259081   2.354   3.734  14.450
12556TIP3   OH259082   4.907   3.223   4.522
12556TIP3    H159083   4.889   3.138   4.482
12556TIP3    H259084   4.915   3.283   4.448
12557TIP3   OH259085   5.395   4.748  15.771
12557TIP3    H159086   5.411   4.654  15.761
12557TIP3    H259087   5.389   4.761  15.866
12558TIP3   OH259088   4.426   4.454  16.835
12558TIP3    H159089   4.515   4.464  16.868
12558TIP3    H259090   4.383   4.538  16.853
12559TIP3   OH259091   5.620   2.007   0.092
12559TIP3    H159092   5.644   1.974   0.005
12559TIP3    H259093   5.548   1.951   0.120
12560TIP3   OH259094   1.160   0.079  11.186
12560TIP3    H159095   1.230   0.113  11.242
12560TIP3    H259096   1.084   0.135  11.205
12561TIP3   OH259097   5.315   0.669  11.732
12561TIP3    H159098   5.229   0.711  11.729
12561TIP3    H259099   5.350   0.677  11.643
12562TIP3   OH259100   6.164   0.886  13.431
12562TIP3    H159101   6.247   0.934  13.433
12562TIP3    H259102   6.185   0.800  13.467
12563TIP3   OH259103   4.083   1.194  13.297
12563TIP3    H159104   4.163   1.148  13.322
12563TIP3    H259105   4.026   1.187  13.374
12564TIP3   OH259106   2.765   3.570   0.876
12564TIP3    H159107   2.693   3.510   0.891
12564TIP3    H259108   2.726   3.645   0.832
12565TIP3   OH259109   6.676   2.922   4.969
12565TIP3    H159110   6.642   2.894   5.054
12565TIP3    H259111   6.709   2.841   4.929
12566TIP3   OH259112   3.541   6.203   2.676
12566TIP3    H159113   3.532   6.240   2.588
12566TIP3    H259114   3.453   6.171   2.697
12567TIP3   OH259115   0.427   0.621   6.112
12567TIP3    H159116   0.444   0.543   6.058
12567TIP3    H259117   0.507   0.673   6.105
12568TIP3   OH259118   3.972   4.048   5.498
12568TIP3    H159119   3.993   3.955   5.493
12568TIP3    H259120   3.901   4.054   5.562
12569TIP3   OH259121   2.580   0.474  13.212
12569TIP3    H159122   2.591   0.566  13.236
12569TIP3    H259123   2.514   0.474  13.144
12570TIP3   OH259124   1.880   4.068  16.561
12570TIP3    H159125   1.938   4.144  16.554
12570TIP3    H259126   1.917   4.005  16.499
12571TIP3   OH259127   0.071   5.917  13.570
12571TIP3    H159128  -0.008   5.886  13.613
12571TIP3    H259129   0.139   5.912  13.637
12572TIP3   OH259130   2.858   2.165  16.459
12572TIP3    H159131   2.798   2.093  16.442
12572TIP3    H259132   2.943   2.122  16.473
12573TIP3   OH259133   4.535   2.845  17.125
12573TIP3    H159134   4.555   2.927  17.080
12573TIP3    H259135   4.610   2.788  17.107
12574TIP3   OH259136   0.135   3.460   6.574
12574TIP3    H159137   0.225   3.449   6.544
12574TIP3    H259138   0.132   3.415   6.658
12575TIP3   OH259139   1.796   6.090   0.220
12575TIP3    H159140   1.809   6.154   0.150
12575TIP3    H259141   1.793   6.143   0.300
12576TIP3   OH259142   6.441   1.299  12.496
12576TIP3    H159143   6.454   1.205  12.507
12576TIP3    H259144   6.358   1.306  12.448
12577TIP3   OH259145   6.699   3.365   0.914
12577TIP3    H159146   6.663   3.385   0.828
12577TIP3    H259147   6.639   3.299   0.950
12578TIP3   OH259148   6.321   0.931  12.260
12578TIP3    H159149   6.226   0.926  12.273
12578TIP3    H259150   6.332   0.943  12.166
12579TIP3   OH259151   6.126   4.434  14.446
12579TIP3    H159152   6.129   4.371  14.374
12579TIP3    H259153   6.036   4.430  14.478
12580TIP3   OH259154   6.726   5.203  17.200
12580TIP3    H159155   6.807   5.168  17.162
12580TIP3    H259156   6.657   5.175  17.139
12581TIP3   OH259157   6.139   2.242   2.102
12581TIP3    H159158   6.136   2.250   2.198
12581TIP3    H259159   6.216   2.293   2.077
12582TIP3   OH259160   2.787   2.185   1.019
12582TIP3    H159161   2.767   2.211   1.109
12582TIP3    H259162   2.882   2.183   1.016
12583TIP3   OH259163   5.101   4.640  11.856
12583TIP3    H159164   5.122   4.689  11.776
12583TIP3    H259165   5.129   4.550  11.837
12584TIP3   OH259166   1.427   2.365   3.928
12584TIP3    H159167   1.359   2.303   3.957
12584TIP3    H259168   1.509   2.317   3.940
12585TIP3   OH259169   4.572   2.706   2.785
12585TIP3    H159170   4.567   2.611   2.777
12585TIP3    H259171   4.481   2.735   2.785
12586TIP3   OH259172   1.034   5.228  17.022
12586TIP3    H159173   0.983   5.249  17.101
12586TIP3    H259174   1.088   5.154  17.048
12587TIP3   OH259175   2.350   0.565   0.203
12587TIP3    H159176   2.404   0.495   0.239
12587TIP3    H259177   2.413   0.629   0.169
12588TIP3   OH259178   0.469   2.499  15.125
12588TIP3    H159179   0.420   2.423  15.155
12588TIP3    H259180   0.413   2.540  15.059
12589TIP3   OH259181   6.058   3.011   5.805
12589TIP3    H159182   5.982   3.029   5.860
12589TIP3    H259183   6.066   3.087   5.748
12590TIP3   OH259184   0.746   5.849  13.431
12590TIP3    H159185   0.831   5.805  13.424
12590TIP3    H259186   0.682   5.779  13.419
12591TIP3   OH259187   6.502   2.426  11.831
12591TIP3    H159188   6.518   2.426  11.925
12591TIP3    H259189   6.443   2.352  11.816
12592TIP3   OH259190   5.724   3.318  12.669
12592TIP3    H159191   5.813   3.290  12.689
12592TIP3    H259192   5.669   3.265  12.726
12593TIP3   OH259193   0.114   0.130   5.245
12593TIP3    H159194   0.131   0.056   5.188
12593TIP3    H259195   0.169   0.201   5.211
12594TIP3   OH259196   2.350   6.473   2.231
12594TIP3    H159197   2.372   6.557   2.269
12594TIP3    H259198   2.284   6.436   2.289
12595TIP3   OH259199   2.070   5.728   6.050
12595TIP3    H159200   2.010   5.661   6.018
12595TIP3    H259201   2.051   5.735   6.143
12596TIP3   OH259202   6.532   6.424  12.267
12596TIP3    H159203   6.445   6.416  12.306
12596TIP3    H259204   6.574   6.340  12.283
12597TIP3   OH259205   2.341   4.248   1.545
12597TIP3    H159206   2.339   4.311   1.473
12597TIP3    H259207   2.280   4.284   1.610
12598TIP3   OH259208   5.596   5.250  12.943
12598TIP3    H159209   5.611   5.309  13.017
12598TIP3    H259210   5.632   5.297  12.868
12599TIP3   OH259211   5.026   5.152  13.992
12599TIP3    H159212   5.064   5.239  13.980
12599TIP3    H259213   4.961   5.164  14.061
12600TIP3   OH259214   1.369   4.035  15.334
12600TIP3    H159215   1.383   4.128  15.348
12600TIP3    H259216   1.278   4.019  15.362
12601TIP3   OH259217   4.041   4.306   3.453
12601TIP3    H159218   4.004   4.355   3.380
12601TIP3    H259219   3.985   4.229   3.461
12602TIP3   OH259220   2.723   5.282  12.907
12602TIP3    H159221   2.721   5.196  12.948
12602TIP3    H259222   2.655   5.332  12.952
12603TIP3   OH259223   4.885   0.565   0.087
12603TIP3    H159224   4.978   0.587   0.095
12603TIP3    H259225   4.845   0.604   0.164
12604TIP3   OH259226   3.325   0.753  15.562
12604TIP3    H159227   3.307   0.668  15.522
12604TIP3    H259228   3.362   0.806  15.491
12605TIP3   OH259229   0.234   0.813  16.784
12605TIP3    H159230   0.248   0.762  16.864
12605TIP3    H259231   0.318   0.856  16.769
12606TIP3   OH259232   4.390   1.127   1.917
12606TIP3    H159233   4.327   1.193   1.946
12606TIP3    H259234   4.458   1.178   1.872
12607TIP3   OH259235   2.725   1.302   0.782
12607TIP3    H159236   2.667   1.305   0.858
12607TIP3    H259237   2.742   1.393   0.760
12608TIP3   OH259238   2.962   1.142   4.515
12608TIP3    H159239   2.896   1.140   4.446
12608TIP3    H259240   3.006   1.057   4.509
12609TIP3   OH259241   2.346   2.118  15.067
12609TIP3    H159242   2.434   2.106  15.103
12609TIP3    H259243   2.361   2.155  14.980
12610TIP3   OH259244   3.038   5.813   1.811
12610TIP3    H159245   2.946   5.825   1.832
12610TIP3    H259246   3.065   5.895   1.769
12611TIP3   OH259247   4.276   0.268  10.513
12611TIP3    H159248   4.367   0.297  10.521
12611TIP3    H259249   4.281   0.173  10.507
12612TIP3   OH259250   6.705   6.522  13.560
12612TIP3    H159251   6.616   6.514  13.593
12612TIP3    H259252   6.729   6.612  13.579
12613TIP3   OH259253   3.627   2.866   4.838
12613TIP3    H159254   3.713   2.867   4.882
12613TIP3    H259255   3.617   2.955   4.803
12614TIP3   OH259256   5.730   4.556   3.323
12614TIP3    H159257   5.683   4.473   3.333
12614TIP3    H259258   5.726   4.597   3.410
12615TIP3   OH259259   4.374   2.339  12.729
12615TIP3    H159260   4.335   2.343  12.641
12615TIP3    H259261   4.341   2.258  12.766
12616TIP3   OH259262   6.282   2.580   4.608
12616TIP3    H159263   6.209   2.558   4.551
12616TIP3    H259264   6.268   2.672   4.631
12617TIP3   OH259265   3.515   6.650   5.020
12617TIP3    H159266   3.602   6.653   5.058
12617TIP3    H259267   3.513   6.723   4.958
12618TIP3   OH259268   4.830   5.197   1.624
12618TIP3    H159269   4.784   5.185   1.541
12618TIP3    H259270   4.841   5.291   1.632
12619TIP3   OH259271   0.757   1.035  14.660
12619TIP3    H159272   0.723   1.040  14.571
12619TIP3    H259273   0.813   1.112  14.669
12620TIP3   OH259274   0.479   2.147   4.080
12620TIP3    H159275   0.537   2.083   4.122
12620TIP3    H259276   0.394   2.132   4.123
12621TIP3   OH259277   1.263   0.381   4.284
12621TIP3    H159278   1.178   0.359   4.244
12621TIP3    H259279   1.309   0.429   4.216
12622TIP3   OH259280   4.114   0.359   3.264
12622TIP3    H159281   4.063   0.356   3.183
12622TIP3    H259282   4.144   0.269   3.276
12623TIP3   OH259283   4.416   5.397  12.350
12623TIP3    H159284   4.471   5.416  12.426
12623TIP3    H259285   4.372   5.479  12.331
12624TIP3   OH259286   3.638   0.128   3.650
12624TIP3    H159287   3.726   0.141   3.686
12624TIP3    H259288   3.606   0.049   3.691
12625TIP3   OH259289   2.340   2.132  11.514
12625TIP3    H159290   2.396   2.164  11.585
12625TIP3    H259291   2.392   2.063  11.472
12626TIP3   OH259292   5.298   4.555   3.294
12626TIP3    H159293   5.320   4.647   3.279
12626TIP3    H259294   5.353   4.530   3.368
12627TIP3   OH259295   1.156   0.244   0.409
12627TIP3    H159296   1.093   0.180   0.376
12627TIP3    H259297   1.232   0.192   0.435
12628TIP3   OH259298   3.039   0.173  15.727
12628TIP3    H159299   3.095   0.106  15.689
12628TIP3    H259300   3.096   0.223  15.785
12629TIP3   OH259301   5.221   4.245  12.910
12629TIP3    H159302   5.169   4.325  12.903
12629TIP3    H259303   5.284   4.251  12.838
12630TIP3   OH259304   1.135   0.066   1.841
12630TIP3    H159305   1.128   0.061   1.936
12630TIP3    H259306   1.072   0.001   1.809
12631TIP3   OH259307   4.766   4.293   1.978
12631TIP3    H159308   4.793   4.202   1.989
12631TIP3    H259309   4.671   4.292   1.988
12632TIP3   OH259310   2.461   1.362  11.401
12632TIP3    H159311   2.371   1.380  11.430
12632TIP3    H259312   2.452   1.296  11.332
12633TIP3   OH259313   2.989   4.208  16.168
12633TIP3    H159314   2.985   4.303  16.182
12633TIP3    H259315   2.979   4.198  16.073
12634TIP3   OH259316   1.953   4.919   3.501
12634TIP3    H159317   1.957   4.917   3.405
12634TIP3    H259318   2.034   4.877   3.529
12635TIP3   OH259319   3.460   4.391   1.972
12635TIP3    H159320   3.507   4.351   1.898
12635TIP3    H259321   3.383   4.336   1.983
12636TIP3   OH259322   1.988   5.432   0.921
12636TIP3    H159323   1.923   5.455   0.854
12636TIP3    H259324   1.951   5.465   1.003
12637TIP3   OH259325   0.742   2.919   5.141
12637TIP3    H159326   0.671   2.950   5.085
12637TIP3    H259327   0.703   2.911   5.228
12638TIP3   OH259328   4.386   5.653  16.709
12638TIP3    H159329   4.395   5.664  16.804
12638TIP3    H259330   4.308   5.704  16.686
12639TIP3   OH259331   0.804   0.469   5.342
12639TIP3    H159332   0.735   0.413   5.379
12639TIP3    H259333   0.795   0.552   5.389
12640TIP3   OH259334   4.630   5.525  15.225
12640TIP3    H159335   4.725   5.524  15.235
12640TIP3    H259336   4.598   5.573  15.302
12641TIP3   OH259337   3.218   6.549   1.702
12641TIP3    H159338   3.168   6.537   1.782
12641TIP3    H259339   3.152   6.563   1.634
12642TIP3   OH259340   6.738   6.636  12.882
12642TIP3    H159341   6.708   6.651  12.793
12642TIP3    H259342   6.834   6.632  12.875
12643TIP3   OH259343   4.513   3.972  13.630
12643TIP3    H159344   4.566   4.027  13.687
12643TIP3    H259345   4.426   4.012  13.631
12644TIP3   OH259346   3.536   2.175   2.279
12644TIP3    H159347   3.530   2.173   2.374
12644TIP3    H259348   3.598   2.105   2.257
12645TIP3   OH259349   0.867   0.684   2.021
12645TIP3    H159350   0.810   0.696   1.944
12645TIP3    H259351   0.855   0.764   2.072
12646TIP3   OH259352   3.095   6.785   2.372
12646TIP3    H159353   3.115   6.691   2.370
12646TIP3    H259354   3.179   6.827   2.354
12647TIP3   OH259355   0.410   5.908  12.917
12647TIP3    H159356   0.458   5.890  12.836
12647TIP3    H259357   0.477   5.936  12.979
12648TIP3   OH259358   3.656   4.703  13.489
12648TIP3    H159359   3.676   4.730  13.399
12648TIP3    H259360   3.563   4.681  13.488
12649TIP3   OH259361   5.644   2.569  16.448
12649TIP3    H159362   5.635   2.514  16.369
12649TIP3    H259363   5.554   2.597  16.467
12650TIP3   OH259364   1.262   3.660   6.246
12650TIP3    H159365   1.289   3.576   6.284
12650TIP3    H259366   1.188   3.688   6.300
12651TIP3   OH259367   3.134   5.812  16.156
12651TIP3    H159368   3.100   5.724  16.170
12651TIP3    H259369   3.188   5.804  16.077
12652TIP3   OH259370   0.229   0.024   1.775
12652TIP3    H159371   0.289  -0.002   1.845
12652TIP3    H259372   0.277   0.088   1.724
12653TIP3   OH259373   4.350   1.892   3.282
12653TIP3    H159374   4.382   1.960   3.341
12653TIP3    H259375   4.426   1.835   3.269
12654TIP3   OH259376   5.126   2.864  17.145
12654TIP3    H159377   5.127   2.827  17.056
12654TIP3    H259378   5.042   2.837  17.181
12655TIP3   OH259379   1.814   6.394  15.081
12655TIP3    H159380   1.752   6.332  15.043
12655TIP3    H259381   1.818   6.371  15.174
12656TIP3   OH259382   1.107   4.724  13.291
12656TIP3    H159383   1.177   4.774  13.332
12656TIP3    H259384   1.040   4.717  13.359
12657TIP3   OH259385   5.553   1.023   2.645
12657TIP3    H159386   5.553   0.989   2.555
12657TIP3    H259387   5.615   0.966   2.692
12658TIP3   OH259388   0.104   4.805   3.350
12658TIP3    H159389   0.090   4.723   3.303
12658TIP3    H259390   0.131   4.867   3.282
12659TIP3   OH259391   4.970   3.800  13.396
12659TIP3    H159392   4.982   3.778  13.488
12659TIP3    H259393   4.877   3.821  13.388
12660TIP3   OH259394   5.938   3.958  12.226
12660TIP3    H159395   5.968   3.869  12.246
12660TIP3    H259396   6.014   4.001  12.186
12661TIP3   OH259397   0.454   0.104  11.711
12661TIP3    H159398   0.468   0.186  11.757
12661TIP3    H259399   0.376   0.066  11.752
12662TIP3   OH259400   4.097   4.189   5.948
12662TIP3    H159401   4.015   4.169   5.903
12662TIP3    H259402   4.107   4.119   6.012
12663TIP3   OH259403   2.651   5.765   2.182
12663TIP3    H159404   2.665   5.856   2.157
12663TIP3    H259405   2.721   5.717   2.139
12664TIP3   OH259406   6.468   5.480  16.411
12664TIP3    H159407   6.380   5.507  16.441
12664TIP3    H259408   6.452   5.401  16.358
12665TIP3   OH259409   3.230   6.305   0.587
12665TIP3    H159410   3.266   6.223   0.555
12665TIP3    H259411   3.282   6.373   0.543
12666TIP3   OH259412   1.681   5.159  12.187
12666TIP3    H159413   1.603   5.120  12.226
12666TIP3    H259414   1.719   5.089  12.134
12667TIP3   OH259415   5.016   0.820  11.736
12667TIP3    H159416   4.990   0.730  11.718
12667TIP3    H259417   4.955   0.850  11.803
12668TIP3   OH259418   1.581   3.269   4.299
12668TIP3    H159419   1.670   3.302   4.289
12668TIP3    H259420   1.541   3.281   4.212
12669TIP3   OH259421   3.707   2.426  16.320
12669TIP3    H159422   3.802   2.434  16.332
12669TIP3    H259423   3.681   2.359  16.384
12670TIP3   OH259424   3.678   2.574   1.112
12670TIP3    H159425   3.743   2.552   1.178
12670TIP3    H259426   3.680   2.670   1.107
12671TIP3   OH259427   6.209   0.494   0.371
12671TIP3    H159428   6.140   0.436   0.342
12671TIP3    H259429   6.213   0.482   0.466
12672TIP3   OH259430   6.140   6.193  13.394
12672TIP3    H159431   6.066   6.220  13.448
12672TIP3    H259432   6.169   6.111  13.433
12673TIP3   OH259433   4.400   5.587  15.068
12673TIP3    H159434   4.329   5.631  15.115
12673TIP3    H259435   4.471   5.581  15.132
12674TIP3   OH259436   4.151   6.175  16.190
12674TIP3    H159437   4.086   6.124  16.239
12674TIP3    H259438   4.227   6.118  16.184
12675TIP3   OH259439   6.174   3.835  12.518
12675TIP3    H159440   6.241   3.852  12.584
12675TIP3    H259441   6.109   3.903  12.532
12676TIP3   OH259442   3.001   1.617  11.596
12676TIP3    H159443   3.018   1.554  11.667
12676TIP3    H259444   3.073   1.602  11.535
12677TIP3   OH259445   4.521   2.208  16.835
12677TIP3    H159446   4.574   2.262  16.776
12677TIP3    H259447   4.585   2.151  16.878
12678TIP3   OH259448   5.852   5.309  13.293
12678TIP3    H159449   5.884   5.292  13.205
12678TIP3    H259450   5.918   5.267  13.350
12679TIP3   OH259451   6.346   1.940   1.120
12679TIP3    H159452   6.372   1.900   1.203
12679TIP3    H259453   6.356   1.870   1.055
12680TIP3   OH259454   4.256   6.292  11.100
12680TIP3    H159455   4.290   6.212  11.141
12680TIP3    H259456   4.229   6.265  11.013
12681TIP3   OH259457   0.145   1.460   5.685
12681TIP3    H159458   0.079   1.417   5.631
12681TIP3    H259459   0.222   1.404   5.678
12682TIP3   OH259460   5.105   2.597   1.429
12682TIP3    H159461   5.026   2.552   1.400
12682TIP3    H259462   5.173   2.571   1.367
12683TIP3   OH259463   2.646   1.660  11.637
12683TIP3    H159464   2.562   1.656  11.684
12683TIP3    H259465   2.622   1.650  11.545
12684TIP3   OH259466   4.396   6.097   4.716
12684TIP3    H159467   4.331   6.161   4.686
12684TIP3    H259468   4.449   6.080   4.638
12685TIP3   OH259469   3.365   5.574   4.864
12685TIP3    H159470   3.377   5.482   4.886
12685TIP3    H259471   3.346   5.574   4.770
12686TIP3   OH259472   4.610   4.291   5.194
12686TIP3    H159473   4.677   4.358   5.184
12686TIP3    H259474   4.559   4.296   5.113
12687TIP3   OH259475   0.545   3.313   4.956
12687TIP3    H159476   0.636   3.336   4.975
12687TIP3    H259477   0.512   3.388   4.906
12688TIP3   OH259478   1.918   2.893  14.616
12688TIP3    H159479   1.860   2.820  14.637
12688TIP3    H259480   1.860   2.970  14.616
12689TIP3   OH259481   1.023   0.671  12.073
12689TIP3    H159482   1.086   0.614  12.029
12689TIP3    H259483   1.049   0.760  12.046
12690TIP3   OH259484   0.682   1.220   2.911
12690TIP3    H159485   0.673   1.285   2.980
12690TIP3    H259486   0.725   1.146   2.953
12691TIP3   OH259487   2.607   0.066  16.249
12691TIP3    H159488   2.644  -0.016  16.282
12691TIP3    H259489   2.529   0.081  16.303
12692TIP3   OH259490   0.202   1.990  15.611
12692TIP3    H159491   0.129   2.006  15.670
12692TIP3    H259492   0.235   2.078  15.590
12693TIP3   OH259493   6.292   4.675   5.323
12693TIP3    H159494   6.265   4.679   5.415
12693TIP3    H259495   6.288   4.582   5.300
12694TIP3   OH259496   4.226   2.282  12.184
12694TIP3    H159497   4.233   2.190  12.158
12694TIP3    H259498   4.141   2.310  12.150
12695TIP3   OH259499   5.413   2.353  11.837
12695TIP3    H159500   5.491   2.318  11.881
12695TIP3    H259501   5.379   2.419  11.898
12696TIP3   OH259502   4.053   6.608  11.664
12696TIP3    H159503   4.101   6.526  11.651
12696TIP3    H259504   4.105   6.655  11.729
12697TIP3   OH259505   1.921   3.565   5.712
12697TIP3    H159506   1.940   3.480   5.671
12697TIP3    H259507   1.855   3.604   5.656
12698TIP3   OH259508   1.893   6.340   2.956
12698TIP3    H159509   1.870   6.282   2.884
12698TIP3    H259510   1.868   6.427   2.926
12699TIP3   OH259511   4.316   0.299   2.666
12699TIP3    H159512   4.361   0.248   2.599
12699TIP3    H259513   4.275   0.371   2.618
12700TIP3   OH259514   6.008   2.495   5.663
12700TIP3    H159515   6.073   2.468   5.728
12700TIP3    H259516   6.053   2.561   5.610
12701TIP3   OH259517   6.450   0.227  11.625
12701TIP3    H159518   6.399   0.198  11.701
12701TIP3    H259519   6.442   0.323  11.627
12702TIP3   OH259520   5.409   3.240  15.497
12702TIP3    H159521   5.408   3.273  15.407
12702TIP3    H259522   5.317   3.223  15.517
12703TIP3   OH259523   1.415   0.456  14.235
12703TIP3    H159524   1.482   0.475  14.301
12703TIP3    H259525   1.354   0.530  14.242
12704TIP3   OH259526   2.731   5.321   6.282
12704TIP3    H159527   2.684   5.388   6.330
12704TIP3    H259528   2.723   5.347   6.190
12705TIP3   OH259529   1.320   0.626   3.444
12705TIP3    H159530   1.374   0.620   3.523
12705TIP3    H259531   1.348   0.553   3.390
12706TIP3   OH259532   1.215   4.017   4.867
12706TIP3    H159533   1.305   4.003   4.897
12706TIP3    H259534   1.211   4.111   4.846
12707TIP3   OH259535   6.262   3.209  13.702
12707TIP3    H159536   6.316   3.201  13.623
12707TIP3    H259537   6.304   3.279  13.753
12708TIP3   OH259538   5.976   5.345   4.996
12708TIP3    H159539   5.946   5.256   4.976
12708TIP3    H259540   6.031   5.335   5.073
12709TIP3   OH259541   6.135   4.141  14.922
12709TIP3    H159542   6.153   4.104  14.836
12709TIP3    H259543   6.156   4.070  14.984
12710TIP3   OH259544   2.935   2.287  11.742
12710TIP3    H159545   2.969   2.368  11.703
12710TIP3    H259546   2.935   2.305  11.836
12711TIP3   OH259547   5.306   5.594  12.274
12711TIP3    H159548   5.373   5.548  12.224
12711TIP3    H259549   5.258   5.645  12.209
12712TIP3   OH259550   4.930   2.829  15.081
12712TIP3    H159551   5.009   2.871  15.115
12712TIP3    H259552   4.859   2.862  15.137
12713TIP3   OH259553   3.062   5.033  12.940
12713TIP3    H159554   3.112   4.985  12.873
12713TIP3    H259555   2.995   4.970  12.969
12714TIP3   OH259556   2.229   1.441   0.949
12714TIP3    H159557   2.233   1.374   0.880
12714TIP3    H259558   2.175   1.401   1.018
12715TIP3   OH259559   2.765   4.917  17.036
12715TIP3    H159560   2.823   4.887  17.107
12715TIP3    H259561   2.814   4.900  16.956
12716TIP3   OH259562   1.676   1.251   2.941
12716TIP3    H159563   1.745   1.287   2.997
12716TIP3    H259564   1.614   1.210   3.001
12717TIP3   OH259565   1.188   5.440   6.380
12717TIP3    H159566   1.239   5.402   6.451
12717TIP3    H259567   1.099   5.446   6.415
12718TIP3   OH259568   6.076   2.837   0.928
12718TIP3    H159569   5.981   2.835   0.939
12718TIP3    H259570   6.093   2.779   0.854
12719TIP3   OH259571   2.944   4.511  14.727
12719TIP3    H159572   2.897   4.473  14.800
12719TIP3    H259573   2.876   4.547  14.670
12720TIP3   OH259574   5.082   4.729  11.230
12720TIP3    H159575   5.135   4.660  11.190
12720TIP3    H259576   5.145   4.795  11.258
12721TIP3   OH259577   6.271   0.301  14.463
12721TIP3    H159578   6.201   0.306  14.529
12721TIP3    H259579   6.346   0.345  14.504
12722TIP3   OH259580   0.803   4.436  15.886
12722TIP3    H159581   0.876   4.494  15.911
12722TIP3    H259582   0.836   4.389  15.810
12723TIP3   OH259583   1.379   0.905   0.877
12723TIP3    H159584   1.360   0.814   0.855
12723TIP3    H259585   1.300   0.936   0.922
12724TIP3   OH259586   3.993   2.602   4.651
12724TIP3    H159587   4.056   2.595   4.579
12724TIP3    H259588   4.005   2.691   4.685
12725TIP3   OH259589   5.911   0.588  13.145
12725TIP3    H159590   5.849   0.658  13.161
12725TIP3    H259591   5.882   0.517  13.204
12726TIP3   OH259592   6.772   4.713  14.752
12726TIP3    H159593   6.815   4.727  14.837
12726TIP3    H259594   6.842   4.683  14.694
12727TIP3   OH259595   0.657   0.189   0.086
12727TIP3    H159596   0.668   0.251   0.014
12727TIP3    H259597   0.715   0.222   0.154
12728TIP3   OH259598   3.801   2.497   6.209
12728TIP3    H159599   3.843   2.432   6.264
12728TIP3    H259600   3.718   2.517   6.253
12729TIP3   OH259601   6.574   0.915  15.940
12729TIP3    H159602   6.650   0.973  15.940
12729TIP3    H259603   6.508   0.962  15.990
12730TIP3   OH259604   6.482   6.388   2.265
12730TIP3    H159605   6.439   6.396   2.181
12730TIP3    H259606   6.543   6.462   2.268
12731TIP3   OH259607   3.767   1.814   2.767
12731TIP3    H159608   3.729   1.844   2.685
12731TIP3    H259609   3.735   1.724   2.777
12732TIP3   OH259610   2.988   0.355  13.836
12732TIP3    H159611   3.055   0.404  13.788
12732TIP3    H259612   2.968   0.409  13.912
12733TIP3   OH259613   5.561   5.071  10.568
12733TIP3    H159614   5.630   5.132  10.592
12733TIP3    H259615   5.504   5.122  10.510
12734TIP3   OH259616   5.796   4.664  15.150
12734TIP3    H159617   5.850   4.730  15.106
12734TIP3    H259618   5.769   4.604  15.081
12735TIP3   OH259619   0.710   5.247  14.402
12735TIP3    H159620   0.672   5.311  14.462
12735TIP3    H259621   0.793   5.222  14.442
12736TIP3   OH259622   2.049   5.593   1.447
12736TIP3    H159623   2.114   5.523   1.445
12736TIP3    H259624   2.100   5.673   1.455
12737TIP3   OH259625   5.215   1.269   4.841
12737TIP3    H159626   5.281   1.202   4.821
12737TIP3    H259627   5.229   1.291   4.933
12738TIP3   OH259628   2.838   1.067  16.178
12738TIP3    H159629   2.771   1.081  16.111
12738TIP3    H259630   2.804   0.994  16.230
12739TIP3   OH259631   0.807   4.057   2.241
12739TIP3    H159632   0.720   4.056   2.200
12739TIP3    H259633   0.804   4.133   2.300
12740TIP3   OH259634   4.383   5.807  10.802
12740TIP3    H159635   4.350   5.722  10.772
12740TIP3    H259636   4.450   5.786  10.867
12741TIP3   OH259637   2.359   3.384   4.372
12741TIP3    H159638   2.386   3.475   4.384
12741TIP3    H259639   2.440   3.334   4.378
12742TIP3   OH259640   5.485   2.249   5.380
12742TIP3    H159641   5.422   2.226   5.448
12742TIP3    H259642   5.501   2.167   5.333
12743TIP3   OH259643   2.375   2.659  13.709
12743TIP3    H159644   2.286   2.630  13.730
12743TIP3    H259645   2.432   2.601  13.760
12744TIP3   OH259646   0.538   4.676  11.924
12744TIP3    H159647   0.622   4.630  11.928
12744TIP3    H259648   0.515   4.676  11.831
12745TIP3   OH259649   2.358   5.836  16.179
12745TIP3    H159650   2.355   5.831  16.083
12745TIP3    H259651   2.391   5.923  16.197
12746TIP3   OH259652   0.253   3.845   0.817
12746TIP3    H159653   0.327   3.787   0.835
12746TIP3    H259654   0.278   3.929   0.857
12747TIP3   OH259655   4.712   3.598  12.177
12747TIP3    H159656   4.750   3.528  12.230
12747TIP3    H259657   4.704   3.561  12.089
12748TIP3   OH259658   0.138   4.511   4.573
12748TIP3    H159659   0.093   4.525   4.490
12748TIP3    H259660   0.230   4.528   4.554
12749TIP3   OH259661   1.136   1.146  16.002
12749TIP3    H159662   1.071   1.149  16.072
12749TIP3    H259663   1.135   1.235  15.965
12750TIP3   OH259664   4.530   4.241  13.808
12750TIP3    H159665   4.517   4.225  13.902
12750TIP3    H259666   4.624   4.260  13.800
12751TIP3   OH259667   4.947   2.855   1.070
12751TIP3    H159668   4.902   2.939   1.070
12751TIP3    H259669   4.938   2.824   0.979
12752TIP3   OH259670   3.744   0.297   5.756
12752TIP3    H159671   3.763   0.307   5.663
12752TIP3    H259672   3.764   0.206   5.775
12753TIP3   OH259673   0.417   1.683   5.023
12753TIP3    H159674   0.397   1.591   5.006
12753TIP3    H259675   0.513   1.689   5.016
12754TIP3   OH259676   0.049   4.413  16.635
12754TIP3    H159677   0.092   4.331  16.612
12754TIP3    H259678   0.039   4.408  16.730
12755TIP3   OH259679   5.831   1.908   6.345
12755TIP3    H159680   5.843   1.823   6.388
12755TIP3    H259681   5.886   1.968   6.395
12756TIP3   OH259682   5.747   0.794   3.767
12756TIP3    H159683   5.732   0.708   3.807
12756TIP3    H259684   5.675   0.848   3.801
12757TIP3   OH259685   0.596   1.308  12.499
12757TIP3    H159686   0.683   1.278  12.472
12757TIP3    H259687   0.611   1.393  12.540
12758TIP3   OH259688   2.297   1.678  12.471
12758TIP3    H159689   2.208   1.658  12.502
12758TIP3    H259690   2.283   1.732  12.393
12759TIP3   OH259691   5.643   0.095  15.294
12759TIP3    H159692   5.582   0.024  15.275
12759TIP3    H259693   5.670   0.127  15.208
12760TIP3   OH259694   1.347   5.464   5.775
12760TIP3    H159695   1.360   5.543   5.827
12760TIP3    H259696   1.433   5.442   5.741
12761TIP3   OH259697   4.900   4.966  10.836
12761TIP3    H159698   4.871   5.038  10.780
12761TIP3    H259699   4.981   4.935  10.794
12762TIP3   OH259700   4.645   6.139   3.865
12762TIP3    H159701   4.738   6.150   3.885
12762TIP3    H259702   4.602   6.142   3.950
12763TIP3   OH259703   6.500   6.261  15.560
12763TIP3    H159704   6.589   6.237  15.533
12763TIP3    H259705   6.458   6.292  15.480
12764TIP3   OH259706   4.328   1.692   1.238
12764TIP3    H159707   4.409   1.698   1.187
12764TIP3    H259708   4.315   1.598   1.252
12765TIP3   OH259709   1.289   5.674  11.450
12765TIP3    H159710   1.359   5.615  11.421
12765TIP3    H259711   1.314   5.759  11.416
12766TIP3   OH259712   2.868   2.555  13.401
12766TIP3    H159713   2.835   2.519  13.319
12766TIP3    H259714   2.814   2.514  13.469
12767TIP3   OH259715   2.330   3.366  13.209
12767TIP3    H159716   2.292   3.454  13.218
12767TIP3    H259717   2.402   3.378  13.147
12768TIP3   OH259718   2.553   6.265  15.127
12768TIP3    H159719   2.599   6.326  15.069
12768TIP3    H259720   2.471   6.309  15.148
12769TIP3   OH259721   5.854   3.343  11.558
12769TIP3    H159722   5.864   3.340  11.463
12769TIP3    H259723   5.815   3.258  11.581
12770TIP3   OH259724   1.731   2.307   1.232
12770TIP3    H159725   1.803   2.366   1.257
12770TIP3    H259726   1.774   2.224   1.211
12771TIP3   OH259727   4.789   5.769   4.927
12771TIP3    H159728   4.762   5.678   4.911
12771TIP3    H259729   4.716   5.821   4.894
12772TIP3   OH259730   3.087   5.421  14.753
12772TIP3    H159731   3.069   5.393  14.843
12772TIP3    H259732   3.005   5.405  14.706
12773TIP3   OH259733   5.547   4.319   3.450
12773TIP3    H159734   5.614   4.279   3.505
12773TIP3    H259735   5.467   4.272   3.472
12774TIP3   OH259736   0.838   4.539  14.721
12774TIP3    H159737   0.857   4.499  14.806
12774TIP3    H259738   0.799   4.624  14.743
12775TIP3   OH259739   4.891   3.554   2.242
12775TIP3    H159740   4.928   3.475   2.281
12775TIP3    H259741   4.935   3.626   2.287
12776TIP3   OH259742   5.045   2.346   2.590
12776TIP3    H159743   4.991   2.424   2.604
12776TIP3    H259744   4.982   2.277   2.569
12777TIP3   OH259745   1.637   0.923  14.091
12777TIP3    H159746   1.667   0.953  14.005
12777TIP3    H259747   1.682   0.840  14.105
12778TIP3   OH259748   0.829   5.600  15.033
12778TIP3    H159749   0.885   5.561  15.100
12778TIP3    H259750   0.844   5.547  14.955
12779TIP3   OH259751   2.291   6.464   4.873
12779TIP3    H159752   2.328   6.460   4.962
12779TIP3    H259753   2.266   6.555   4.862
12780TIP3   OH259754   4.332   2.197   2.001
12780TIP3    H159755   4.377   2.119   2.031
12780TIP3    H259756   4.326   2.252   2.079
12781TIP3   OH259757   6.262   6.134   1.090
12781TIP3    H159758   6.330   6.069   1.075
12781TIP3    H259759   6.181   6.083   1.091
12782TIP3   OH259760   3.348   4.051   7.020
12782TIP3    H159761   3.371   4.073   6.929
12782TIP3    H259762   3.412   3.985   7.046
12783TIP3   OH259763   5.819   4.356  14.267
12783TIP3    H159764   5.782   4.339  14.354
12783TIP3    H259765   5.810   4.274  14.220
12784TIP3   OH259766   0.616   6.103  16.536
12784TIP3    H159767   0.542   6.079  16.592
12784TIP3    H259768   0.578   6.153  16.465
12785TIP3   OH259769   2.937   3.442  10.890
12785TIP3    H159770   2.979   3.529  10.894
12785TIP3    H259771   2.988   3.394  10.824
12786TIP3   OH259772   0.071   5.676   1.961
12786TIP3    H159773  -0.004   5.685   1.902
12786TIP3    H259774   0.139   5.635   1.908
12787TIP3   OH259775   2.521   5.493   3.304
12787TIP3    H159776   2.500   5.484   3.211
12787TIP3    H259777   2.603   5.543   3.305
12788TIP3   OH259778   4.854   2.136  12.792
12788TIP3    H159779   4.810   2.216  12.819
12788TIP3    H259780   4.849   2.136  12.696
12789TIP3   OH259781   2.147   2.590  15.243
12789TIP3    H159782   2.126   2.519  15.304
12789TIP3    H259783   2.241   2.581  15.227
12790TIP3   OH259784   1.645   4.861  13.403
12790TIP3    H159785   1.664   4.771  13.376
12790TIP3    H259786   1.729   4.907  13.392
12791TIP3   OH259787   4.141   6.443  15.728
12791TIP3    H159788   4.172   6.373  15.786
12791TIP3    H259789   4.180   6.523  15.764
12792TIP3   OH259790   4.279   0.446  16.445
12792TIP3    H159791   4.258   0.433  16.538
12792TIP3    H259792   4.201   0.414  16.399
12793TIP3   OH259793   4.759   3.826  16.778
12793TIP3    H159794   4.829   3.890  16.783
12793TIP3    H259795   4.787   3.765  16.711
12794TIP3   OH259796   1.613   6.426  11.716
12794TIP3    H159797   1.703   6.414  11.686
12794TIP3    H259798   1.562   6.365  11.662
12795TIP3   OH259799   3.817   1.100   5.971
12795TIP3    H159800   3.783   1.167   6.030
12795TIP3    H259801   3.739   1.059   5.934
12796TIP3   OH259802   4.161   2.246   1.774
12796TIP3    H159803   4.219   2.240   1.850
12796TIP3    H259804   4.128   2.336   1.776
12797TIP3   OH259805   6.685   5.027  12.546
12797TIP3    H159806   6.656   5.077  12.469
12797TIP3    H259807   6.672   5.086  12.619
12798TIP3   OH259808   4.086   4.002   6.146
12798TIP3    H159809   3.996   3.998   6.178
12798TIP3    H259810   4.140   3.991   6.224
12799TIP3   OH259811   3.679   2.792  15.878
12799TIP3    H159812   3.591   2.779  15.841
12799TIP3    H259813   3.681   2.738  15.956
12800TIP3   OH259814   3.281   3.958   2.389
12800TIP3    H159815   3.318   4.029   2.441
12800TIP3    H259816   3.195   3.943   2.427
12801TIP3   OH259817   6.607   4.930  15.984
12801TIP3    H159818   6.564   5.015  15.977
12801TIP3    H259819   6.537   4.869  16.007
12802TIP3   OH259820   1.438   2.696  17.153
12802TIP3    H159821   1.497   2.772  17.153
12802TIP3    H259822   1.487   2.626  17.111
12803TIP3   OH259823   2.613   5.831   0.803
12803TIP3    H159824   2.647   5.830   0.714
12803TIP3    H259825   2.574   5.744   0.814
12804TIP3   OH259826   0.240   2.280   2.350
12804TIP3    H159827   0.291   2.297   2.270
12804TIP3    H259828   0.304   2.285   2.421
12805TIP3   OH259829   4.642   4.653  12.898
12805TIP3    H159830   4.667   4.743  12.917
12805TIP3    H259831   4.640   4.649  12.802
12806TIP3   OH259832   1.036   4.026  13.613
12806TIP3    H159833   0.958   3.973  13.626
12806TIP3    H259834   1.063   4.052  13.701
12807TIP3   OH259835   1.285   5.787  16.455
12807TIP3    H159836   1.335   5.861  16.490
12807TIP3    H259837   1.343   5.749  16.388
12808TIP3   OH259838   3.679   4.782  16.854
12808TIP3    H159839   3.720   4.697  16.839
12808TIP3    H259840   3.715   4.838  16.785
12809TIP3   OH259841   0.384   3.598  12.261
12809TIP3    H159842   0.410   3.516  12.219
12809TIP3    H259843   0.398   3.665  12.193
12810TIP3   OH259844   5.361   1.959  14.577
12810TIP3    H159845   5.366   1.908  14.658
12810TIP3    H259846   5.324   1.898  14.513
12811TIP3   OH259847   1.349   2.825   1.187
12811TIP3    H159848   1.387   2.870   1.111
12811TIP3    H259849   1.256   2.818   1.165
12812TIP3   OH259850   5.930   0.012  16.641
12812TIP3    H159851   5.987  -0.020  16.711
12812TIP3    H259852   5.978   0.087  16.604
12813TIP3   OH259853   0.621   1.423  11.529
12813TIP3    H159854   0.714   1.432  11.552
12813TIP3    H259855   0.579   1.500  11.566
12814TIP3   OH259856   2.694   0.964   1.088
12814TIP3    H159857   2.671   0.994   1.000
12814TIP3    H259858   2.621   0.991   1.143
12815TIP3   OH259859   4.821   6.356  13.890
12815TIP3    H159860   4.872   6.297  13.945
12815TIP3    H259861   4.738   6.366  13.935
12816TIP3   OH259862   3.627   5.492  10.595
12816TIP3    H159863   3.698   5.486  10.658
12816TIP3    H259864   3.592   5.403  10.589
12817TIP3   OH259865   5.918   3.080   0.270
12817TIP3    H159866   5.889   2.994   0.299
12817TIP3    H259867   5.945   3.125   0.350
12818TIP3   OH259868   6.659   4.283   3.227
12818TIP3    H159869   6.631   4.268   3.137
12818TIP3    H259870   6.582   4.318   3.271
12819TIP3   OH259871   2.147   4.852  14.194
12819TIP3    H159872   2.147   4.896  14.109
12819TIP3    H259873   2.147   4.923  14.258
12820TIP3   OH259874   1.083   0.100   0.637
12820TIP3    H159875   1.142   0.040   0.591
12820TIP3    H259876   1.008   0.109   0.579
12821TIP3   OH259877   5.322   3.084   2.583
12821TIP3    H159878   5.417   3.072   2.576
12821TIP3    H259879   5.285   3.000   2.557
12822TIP3   OH259880   5.629   2.350  10.867
12822TIP3    H159881   5.584   2.305  10.939
12822TIP3    H259882   5.586   2.435  10.861
12823TIP3   OH259883   2.138   5.141   3.958
12823TIP3    H159884   2.158   5.086   4.034
12823TIP3    H259885   2.047   5.121   3.937
12824TIP3   OH259886   4.250   5.911  14.115
12824TIP3    H159887   4.315   5.843  14.131
12824TIP3    H259888   4.173   5.865  14.082
12825TIP3   OH259889   5.031   6.604  16.228
12825TIP3    H159890   5.038   6.549  16.307
12825TIP3    H259891   5.119   6.639  16.215
12826TIP3   OH259892   0.038   2.317  15.665
12826TIP3    H159893   0.101   2.363  15.721
12826TIP3    H259894  -0.046   2.358  15.685
12827TIP3   OH259895   3.680   5.913   4.342
12827TIP3    H159896   3.753   5.939   4.286
12827TIP3    H259897   3.722   5.873   4.419
12828TIP3   OH259898   5.161   3.465   0.368
12828TIP3    H159899   5.154   3.425   0.454
12828TIP3    H259900   5.245   3.512   0.370
12829TIP3   OH259901   0.715   1.870  15.095
12829TIP3    H159902   0.652   1.817  15.144
12829TIP3    H259903   0.773   1.907  15.162
12830TIP3   OH259904   1.488   3.310   2.573
12830TIP3    H159905   1.514   3.234   2.521
12830TIP3    H259906   1.571   3.350   2.600
12831TIP3   OH259907   0.368   3.061  13.012
12831TIP3    H159908   0.363   3.064  13.108
12831TIP3    H259909   0.276   3.061  12.984
12832TIP3   OH259910   3.989   2.808   2.284
12832TIP3    H159911   4.034   2.855   2.215
12832TIP3    H259912   4.016   2.851   2.365
12833TIP3   OH259913   3.384   6.584   4.106
12833TIP3    H159914   3.336   6.592   4.024
12833TIP3    H259915   3.350   6.655   4.161
12834TIP3   OH259916   0.340   1.607   2.508
12834TIP3    H159917   0.328   1.636   2.599
12834TIP3    H259918   0.260   1.636   2.463
12835TIP3   OH259919   3.806   6.234   0.020
12835TIP3    H159920   3.838   6.320   0.046
12835TIP3    H259921   3.883   6.176   0.026
12836TIP3   OH259922   5.833   6.517   4.593
12836TIP3    H159923   5.874   6.599   4.566
12836TIP3    H259924   5.875   6.496   4.677
12837TIP3   OH259925   4.296   6.125  15.903
12837TIP3    H159926   4.331   6.078  15.979
12837TIP3    H259927   4.201   6.122  15.915
12838TIP3   OH259928   1.164   5.580  14.635
12838TIP3    H159929   1.252   5.593  14.670
12838TIP3    H259930   1.178   5.570  14.541
12839TIP3   OH259931   0.506   4.568  16.049
12839TIP3    H159932   0.425   4.612  16.074
12839TIP3    H259933   0.499   4.557  15.954
12840TIP3   OH259934   0.296   5.317  16.364
12840TIP3    H159935   0.279   5.280  16.450
12840TIP3    H259936   0.210   5.325  16.323
12841TIP3   OH259937   3.035   0.563   2.556
12841TIP3    H159938   2.968   0.512   2.602
12841TIP3    H259939   3.056   0.635   2.616
12842TIP3   OH259940   1.536   6.764   2.136
12842TIP3    H159941   1.470   6.738   2.201
12842TIP3    H259942   1.520   6.857   2.122
12843TIP3   OH259943   4.291   0.737   0.955
12843TIP3    H159944   4.380   0.724   0.987
12843TIP3    H259945   4.239   0.668   0.997
12844TIP3   OH259946   3.466   0.465  11.960
12844TIP3    H159947   3.559   0.476  11.942
12844TIP3    H259948   3.461   0.462  12.056
12845TIP3   OH259949   1.106   5.836   6.052
12845TIP3    H159950   1.086   5.798   5.966
12845TIP3    H259951   1.081   5.928   6.044
12846TIP3   OH259952   5.487   3.204   1.418
12846TIP3    H159953   5.513   3.279   1.364
12846TIP3    H259954   5.565   3.149   1.423
12847TIP3   OH259955   0.884   6.621  16.863
12847TIP3    H159956   0.909   6.529  16.865
12847TIP3    H259957   0.793   6.622  16.894
12848TIP3   OH259958   6.662   4.070  14.110
12848TIP3    H159959   6.693   4.069  14.200
12848TIP3    H259960   6.568   4.088  14.117
12849TIP3   OH259961   2.311   4.369  16.145
12849TIP3    H159962   2.282   4.432  16.080
12849TIP3    H259963   2.364   4.420  16.207
12850TIP3   OH259964   0.409   6.762  15.915
12850TIP3    H159965   0.483   6.788  15.860
12850TIP3    H259966   0.364   6.844  15.935
12851TIP3   OH259967   4.896   2.218  16.454
12851TIP3    H159968   4.835   2.160  16.501
12851TIP3    H259969   4.845   2.252  16.381
12852TIP3   OH259970   1.361   2.084  11.709
12852TIP3    H159971   1.418   2.137  11.655
12852TIP3    H259972   1.275   2.125  11.701
12853TIP3   OH259973   5.803   4.173  15.835
12853TIP3    H159974   5.851   4.241  15.788
12853TIP3    H259975   5.807   4.097  15.777
12854TIP3   OH259976   3.645   6.752  11.651
12854TIP3    H159977   3.702   6.677  11.667
12854TIP3    H259978   3.680   6.822  11.707
12855TIP3   OH259979   4.148   4.972  13.265
12855TIP3    H159980   4.222   5.032  13.256
12855TIP3    H259981   4.073   5.029  13.282
12856TIP3   OH259982   3.092   1.852   0.374
12856TIP3    H159983   3.015   1.870   0.427
12856TIP3    H259984   3.150   1.801   0.431
12857TIP3   OH259985   5.324   0.276  14.095
12857TIP3    H159986   5.303   0.353  14.043
12857TIP3    H259987   5.412   0.250  14.065
12858TIP3   OH259988   6.427   3.477  12.268
12858TIP3    H159989   6.411   3.509  12.179
12858TIP3    H259990   6.460   3.553  12.316
12859TIP3   OH259991   4.148   2.658   4.428
12859TIP3    H159992   4.124   2.639   4.338
12859TIP3    H259993   4.129   2.752   4.438
12860TIP3   OH259994   0.436   1.657  13.038
12860TIP3    H159995   0.406   1.731  12.985
12860TIP3    H259996   0.462   1.696  13.121
12861TIP3   OH259997   3.542   1.684   3.253
12861TIP3    H159998   3.606   1.725   3.196
12861TIP3    H259999   3.545   1.591   3.229
12862TIP3   OH260000   0.176   2.509   3.493
12862TIP3    H160001   0.112   2.452   3.535
12862TIP3    H260002   0.134   2.536   3.411
12863TIP3   OH260003   5.734   0.215  14.641
12863TIP3    H160004   5.715   0.135  14.691
12863TIP3    H260005   5.661   0.222  14.580
12864TIP3   OH260006   4.707   2.642   5.512
12864TIP3    H160007   4.633   2.647   5.573
12864TIP3    H260008   4.689   2.710   5.447
12865TIP3   OH260009   1.516   4.413  13.491
12865TIP3    H160010   1.544   4.351  13.558
12865TIP3    H260011   1.540   4.371  13.408
12866TIP3   OH260012   0.652   3.254   5.256
12866TIP3    H160013   0.682   3.225   5.170
12866TIP3    H260014   0.610   3.339   5.239
12867TIP3   OH260015   6.669   4.164   4.887
12867TIP3    H160016   6.637   4.253   4.871
12867TIP3    H260017   6.739   4.174   4.951
12868TIP3   OH260018   6.208   2.932  14.596
12868TIP3    H160019   6.293   2.937  14.640
12868TIP3    H260020   6.145   2.920  14.667
12869TIP3   OH260021   5.719   3.871  12.981
12869TIP3    H160022   5.757   3.952  13.015
12869TIP3    H260023   5.757   3.802  13.036
12870TIP3   OH260024   1.012   1.112   2.870
12870TIP3    H160025   0.975   1.029   2.840
12870TIP3    H260026   1.031   1.097   2.963
12871TIP3   OH260027   1.610   3.022  10.770
12871TIP3    H160028   1.677   3.065  10.825
12871TIP3    H260029   1.657   2.950  10.728
12872TIP3   OH260030   5.796   3.140  15.050
12872TIP3    H160031   5.757   3.107  15.131
12872TIP3    H260032   5.884   3.166  15.075
12873TIP3   OH260033   5.619   3.618   5.982
12873TIP3    H160034   5.637   3.561   5.907
12873TIP3    H260035   5.589   3.558   6.051
12874TIP3   OH260036   5.282   3.817  14.903
12874TIP3    H160037   5.247   3.764  14.832
12874TIP3    H260038   5.276   3.761  14.980
12875TIP3   OH260039   6.317   1.872  12.020
12875TIP3    H160040   6.274   1.825  12.091
12875TIP3    H260041   6.407   1.838  12.018
12876TIP3   OH260042   0.847   4.149   5.373
12876TIP3    H160043   0.772   4.163   5.316
12876TIP3    H260044   0.809   4.133   5.460
12877TIP3   OH260045   5.346   3.843   6.289
12877TIP3    H160046   5.372   3.761   6.246
12877TIP3    H260047   5.284   3.816   6.357
12878TIP3   OH260048   0.871   1.660   3.239
12878TIP3    H160049   0.848   1.669   3.332
12878TIP3    H260050   0.789   1.672   3.192
12879TIP3   OH260051   5.033   6.508  14.074
12879TIP3    H160052   4.996   6.528  14.160
12879TIP3    H260053   4.973   6.444  14.036
12880TIP3   OH260054   0.834   0.592   4.459
12880TIP3    H160055   0.824   0.497   4.453
12880TIP3    H260056   0.898   0.604   4.530
12881TIP3   OH260057   3.381   1.093  17.236
12881TIP3    H160058   3.455   1.084  17.295
12881TIP3    H260059   3.330   1.166  17.273
12882TIP3   OH260060   2.533   1.814   3.705
12882TIP3    H160061   2.576   1.866   3.637
12882TIP3    H260062   2.557   1.858   3.787
12883TIP3   OH260063   1.138   2.738   5.859
12883TIP3    H160064   1.173   2.827   5.851
12883TIP3    H260065   1.108   2.732   5.949
12884TIP3   OH260066   2.875   0.851  14.066
12884TIP3    H160067   2.832   0.842  14.151
12884TIP3    H260068   2.814   0.813  14.003
12885TIP3   OH260069   0.335   1.796   5.263
12885TIP3    H160070   0.383   1.748   5.195
12885TIP3    H260071   0.258   1.741   5.280
12886TIP3   OH260072   0.996   3.506   5.685
12886TIP3    H160073   1.076   3.455   5.679
12886TIP3    H260074   0.926   3.441   5.680
12887TIP3   OH260075   6.094   3.534   3.184
12887TIP3    H160076   6.005   3.507   3.160
12887TIP3    H260077   6.122   3.590   3.111
12888TIP3   OH260078   5.048   5.772   2.775
12888TIP3    H160079   4.979   5.758   2.840
12888TIP3    H260080   5.088   5.686   2.764
12889TIP3   OH260081   4.652   6.541   2.775
12889TIP3    H160082   4.703   6.513   2.851
12889TIP3    H260083   4.636   6.461   2.725
12890TIP3   OH260084   3.730   0.677   2.674
12890TIP3    H160085   3.662   0.620   2.641
12890TIP3    H260086   3.725   0.755   2.620
12891TIP3   OH260087   4.069   0.079  13.807
12891TIP3    H160088   4.151   0.039  13.836
12891TIP3    H260089   4.089   0.116  13.721
12892TIP3   OH260090   5.158   2.839   5.494
12892TIP3    H160091   5.149   2.788   5.413
12892TIP3    H260092   5.073   2.881   5.505
12893TIP3   OH260093   2.332   1.556  14.894
12893TIP3    H160094   2.293   1.540  14.980
12893TIP3    H260095   2.263   1.597  14.843
12894TIP3   OH260096   5.664   0.686  13.789
12894TIP3    H160097   5.714   0.644  13.859
12894TIP3    H260098   5.686   0.636  13.710
12895TIP3   OH260099   1.861   2.370   0.904
12895TIP3    H160100   1.948   2.374   0.945
12895TIP3    H260101   1.832   2.280   0.918
12896TIP3   OH260102   6.551   5.755   5.571
12896TIP3    H160103   6.474   5.801   5.537
12896TIP3    H260104   6.516   5.695   5.636
12897TIP3   OH260105   2.881   5.614  12.070
12897TIP3    H160106   2.956   5.589  12.016
12897TIP3    H260107   2.853   5.698  12.033
12898TIP3   OH260108   1.790   4.012   0.457
12898TIP3    H160109   1.836   4.096   0.467
12898TIP3    H260110   1.717   4.018   0.519
12899TIP3   OH260111   4.814   5.022   1.109
12899TIP3    H160112   4.795   5.051   1.020
12899TIP3    H260113   4.830   4.928   1.102
12900TIP3   OH260114   1.324   6.309  15.268
12900TIP3    H160115   1.407   6.316  15.315
12900TIP3    H260116   1.270   6.251  15.322
12901TIP3   OH260117   6.264   5.441   0.518
12901TIP3    H160118   6.339   5.460   0.575
12901TIP3    H260119   6.248   5.523   0.471
12902TIP3   OH260120   1.792   5.292   3.448
12902TIP3    H160121   1.736   5.344   3.506
12902TIP3    H260122   1.860   5.257   3.506
12903TIP3   OH260123   2.500   5.045   0.402
12903TIP3    H160124   2.441   5.109   0.442
12903TIP3    H260125   2.511   5.076   0.312
12904TIP3   OH260126   5.642   3.936   1.312
12904TIP3    H160127   5.737   3.931   1.308
12904TIP3    H260128   5.624   3.990   1.389
12905TIP3   OH260129   3.926   5.888  16.823
12905TIP3    H160130   3.980   5.967  16.822
12905TIP3    H260131   3.837   5.921  16.807
12906TIP3   OH260132   0.339   0.249   2.039
12906TIP3    H160133   0.434   0.254   2.049
12906TIP3    H260134   0.325   0.237   1.946
12907TIP3   OH260135   6.271   0.014   4.967
12907TIP3    H160136   6.239  -0.076   4.974
12907TIP3    H260137   6.349   0.017   5.022
12908TIP3   OH260138   4.025   5.626  13.309
12908TIP3    H160139   4.115   5.609  13.337
12908TIP3    H260140   3.995   5.543  13.273
12909TIP3   OH260141   1.581   4.927   5.756
12909TIP3    H160142   1.668   4.910   5.793
12909TIP3    H260143   1.571   4.862   5.687
12910TIP3   OH260144   4.263   5.348   6.403
12910TIP3    H160145   4.285   5.290   6.476
12910TIP3    H260146   4.167   5.340   6.395
12911TIP3   OH260147   3.637   0.808  11.761
12911TIP3    H160148   3.574   0.802  11.688
12911TIP3    H260149   3.697   0.735  11.747
12912TIP3   OH260150   3.053   6.444  12.077
12912TIP3    H160151   2.997   6.520  12.094
12912TIP3    H260152   3.000   6.388  12.020
12913TIP3   OH260153   3.935   3.086  14.946
12913TIP3    H160154   3.997   3.047  15.008
12913TIP3    H260155   3.988   3.148  14.895
12914TIP3   OH260156   6.146   3.011  12.478
12914TIP3    H160157   6.131   2.936  12.421
12914TIP3    H260158   6.141   3.087  12.420
12915TIP3   OH260159   0.729   0.068   3.441
12915TIP3    H160160   0.780   0.123   3.381
12915TIP3    H260161   0.731   0.114   3.524
12916TIP3   OH260162   1.724   1.437   4.963
12916TIP3    H160163   1.647   1.402   4.918
12916TIP3    H260164   1.696   1.522   4.996
12917TIP3   OH260165   5.384   2.732  17.017
12917TIP3    H160166   5.402   2.772  16.932
12917TIP3    H260167   5.380   2.806  17.077
12918TIP3   OH260168   2.817   0.944  11.639
12918TIP3    H160169   2.911   0.924  11.630
12918TIP3    H260170   2.773   0.864  11.610
12919TIP3   OH260171   1.138   0.633  15.642
12919TIP3    H160172   1.090   0.550  15.641
12919TIP3    H260173   1.201   0.625  15.571
12920TIP3   OH260174   6.548   6.137   3.103
12920TIP3    H160175   6.579   6.102   3.020
12920TIP3    H260176   6.594   6.220   3.113
12921TIP3   OH260177   3.641   5.165  13.406
12921TIP3    H160178   3.591   5.139  13.484
12921TIP3    H260179   3.617   5.256  13.392
12922TIP3   OH260180   6.482   6.674   0.275
12922TIP3    H160181   6.402   6.652   0.227
12922TIP3    H260182   6.493   6.768   0.262
12923TIP3   OH260183   6.130   3.939  11.271
12923TIP3    H160184   6.197   3.902  11.214
12923TIP3    H260185   6.134   4.034  11.255
12924TIP3   OH260186   0.599   2.786  15.937
12924TIP3    H160187   0.534   2.753  15.875
12924TIP3    H260188   0.611   2.878  15.912
12925TIP3   OH260189   0.969   0.541   3.761
12925TIP3    H160190   0.914   0.501   3.829
12925TIP3    H260191   0.908   0.570   3.694
12926TIP3   OH260192   3.542   2.224   1.665
12926TIP3    H160193   3.491   2.274   1.601
12926TIP3    H260194   3.619   2.278   1.682
12927TIP3   OH260195   6.474   1.090   0.060
12927TIP3    H160196   6.428   1.168   0.028
12927TIP3    H260197   6.446   1.082   0.152
12928TIP3   OH260198   5.133   1.190  13.921
12928TIP3    H160199   5.154   1.116  13.865
12928TIP3    H260200   5.216   1.237  13.930
12929TIP3   OH260201   6.613   2.425  14.460
12929TIP3    H160202   6.635   2.460  14.546
12929TIP3    H260203   6.693   2.435  14.408
12930TIP3   OH260204   2.750   1.708  12.848
12930TIP3    H160205   2.672   1.761  12.834
12930TIP3    H260206   2.809   1.733  12.776
12931TIP3   OH260207   0.128   4.822  13.837
12931TIP3    H160208   0.076   4.771  13.898
12931TIP3    H260209   0.217   4.786  13.845
12932TIP3   OH260210   1.498   1.745   2.274
12932TIP3    H160211   1.544   1.667   2.244
12932TIP3    H260212   1.522   1.754   2.366
12933TIP3   OH260213   1.417   6.517   0.518
12933TIP3    H160214   1.416   6.473   0.433
12933TIP3    H260215   1.449   6.449   0.578
12934TIP3   OH260216   5.530   2.589  14.490
12934TIP3    H160217   5.447   2.638  14.482
12934TIP3    H260218   5.507   2.499  14.468
12935TIP3   OH260219   1.414   3.406   0.888
12935TIP3    H160220   1.463   3.461   0.827
12935TIP3    H260221   1.328   3.395   0.847
12936TIP3   OH260222   5.277   5.707  16.969
12936TIP3    H160223   5.342   5.650  17.009
12936TIP3    H260224   5.290   5.696  16.875
12937TIP3   OH260225   5.027   4.536  13.574
12937TIP3    H160226   5.069   4.451  13.558
12937TIP3    H260227   4.989   4.560  13.490
12938TIP3   OH260228   5.260   0.783   4.244
12938TIP3    H160229   5.177   0.740   4.265
12938TIP3    H260230   5.325   0.713   4.247
12939TIP3   OH260231   2.884   3.464   5.949
12939TIP3    H160232   2.893   3.460   5.854
12939TIP3    H260233   2.950   3.528   5.977
12940TIP3   OH260234   0.387   4.232  15.736
12940TIP3    H160235   0.371   4.175  15.811
12940TIP3    H260236   0.415   4.173  15.667
12941TIP3   OH260237   2.466   6.754   3.841
12941TIP3    H160238   2.409   6.828   3.863
12941TIP3    H260239   2.474   6.757   3.746
12942TIP3   OH260240   2.449   6.089   2.245
12942TIP3    H160241   2.488   6.095   2.332
12942TIP3    H260242   2.364   6.132   2.254
12943TIP3   OH260243   1.719   1.845  16.296
12943TIP3    H160244   1.714   1.754  16.268
12943TIP3    H260245   1.662   1.893  16.236
12944TIP3   OH260246   5.213   3.939  10.916
12944TIP3    H160247   5.141   3.884  10.886
12944TIP3    H260248   5.263   3.883  10.975
12945TIP3   OH260249   6.260   5.878  12.973
12945TIP3    H160250   6.290   5.788  12.961
12945TIP3    H260251   6.215   5.877  13.057
12946TIP3   OH260252   1.597   6.719  14.473
12946TIP3    H160253   1.605   6.765  14.556
12946TIP3    H260254   1.566   6.785  14.411
12947TIP3   OH260255   4.817   3.950   3.258
12947TIP3    H160256   4.791   3.910   3.341
12947TIP3    H260257   4.886   4.011   3.282
12948TIP3   OH260258   3.498   6.056  15.218
12948TIP3    H160259   3.473   6.131  15.271
12948TIP3    H260260   3.433   5.988  15.239
12949TIP3   OH260261   4.490   0.979   2.143
12949TIP3    H160262   4.426   1.019   2.084
12949TIP3    H260263   4.529   1.053   2.190
12950TIP3   OH260264   3.659   5.285   4.124
12950TIP3    H160265   3.569   5.317   4.109
12950TIP3    H260266   3.712   5.335   4.063
12951TIP3   OH260267   1.650   5.868   0.158
12951TIP3    H160268   1.708   5.937   0.190
12951TIP3    H260269   1.619   5.901   0.073
12952TIP3   OH260270   3.630   1.739   1.818
12952TIP3    H160271   3.720   1.705   1.814
12952TIP3    H260272   3.631   1.815   1.759
12953TIP3   OH260273   4.330   3.615  13.164
12953TIP3    H160274   4.309   3.577  13.250
12953TIP3    H260275   4.423   3.639  13.172
12954TIP3   OH260276   3.821   3.411  13.097
12954TIP3    H160277   3.885   3.481  13.087
12954TIP3    H260278   3.842   3.370  13.181
12955TIP3   OH260279   0.628   2.335   0.889
12955TIP3    H160280   0.622   2.282   0.968
12955TIP3    H260281   0.682   2.410   0.914
12956TIP3   OH260282   5.572   3.506   2.510
12956TIP3    H160283   5.665   3.483   2.520
12956TIP3    H260284   5.551   3.480   2.420
12957TIP3   OH260285   3.550   5.646  14.513
12957TIP3    H160286   3.499   5.683  14.585
12957TIP3    H260287   3.569   5.720  14.456
12958TIP3   OH260288   4.730   1.128   0.642
12958TIP3    H160289   4.820   1.097   0.636
12958TIP3    H260290   4.685   1.061   0.694
12959TIP3   OH260291   0.777   6.356  16.581
12959TIP3    H160292   0.728   6.404  16.514
12959TIP3    H260293   0.725   6.277  16.596
12960TIP3   OH260294   1.798   0.166  11.267
12960TIP3    H160295   1.741   0.193  11.339
12960TIP3    H260296   1.763   0.210  11.190
12961TIP3   OH260297   4.447   3.818  15.026
12961TIP3    H160298   4.410   3.816  14.937
12961TIP3    H260299   4.508   3.891  15.025
12962TIP3   OH260300   1.598   2.445   5.780
12962TIP3    H160301   1.525   2.494   5.817
12962TIP3    H260302   1.635   2.397   5.854
12963TIP3   OH260303   2.667   4.705   6.008
12963TIP3    H160304   2.620   4.632   6.049
12963TIP3    H260305   2.613   4.782   6.028
12964TIP3   OH260306   1.613   0.073   2.864
12964TIP3    H160307   1.612   0.010   2.936
12964TIP3    H260308   1.702   0.109   2.865
12965TIP3   OH260309   0.586   4.301   3.930
12965TIP3    H160310   0.527   4.361   3.884
12965TIP3    H260311   0.654   4.280   3.865
12966TIP3   OH260312   6.076   0.765  15.592
12966TIP3    H160313   6.073   0.834  15.525
12966TIP3    H260314   5.992   0.772  15.638
12967TIP3   OH260315   0.349   0.037   0.643
12967TIP3    H160316   0.325   0.044   0.736
12967TIP3    H260317   0.322  -0.052   0.619
12968TIP3   OH260318   5.717   4.755  14.389
12968TIP3    H160319   5.790   4.784  14.334
12968TIP3    H260320   5.755   4.688  14.446
12969TIP3   OH260321   0.060   1.141  17.140
12969TIP3    H160322   0.036   1.089  17.217
12969TIP3    H260323   0.154   1.124  17.129
12970TIP3   OH260324   3.309   4.444  17.228
12970TIP3    H160325   3.373   4.430  17.159
12970TIP3    H260326   3.265   4.525  17.205
12971TIP3   OH260327   2.862   0.330   3.220
12971TIP3    H160328   2.777   0.309   3.180
12971TIP3    H260329   2.914   0.365   3.148
12972TIP3   OH260330   5.992   0.140  13.804
12972TIP3    H160331   5.912   0.097  13.774
12972TIP3    H260332   5.978   0.233  13.785
12973TIP3   OH260333   4.208   0.660  13.845
12973TIP3    H160334   4.157   0.696  13.772
12973TIP3    H260335   4.198   0.724  13.915
12974TIP3   OH260336   5.857   5.164  15.313
12974TIP3    H160337   5.891   5.139  15.399
12974TIP3    H260338   5.934   5.183  15.261
12975TIP3   OH260339   1.984   1.918   2.625
12975TIP3    H160340   2.019   2.007   2.618
12975TIP3    H260341   2.019   1.885   2.707
12976TIP3   OH260342   0.894   6.012   0.053
12976TIP3    H160343   0.986   5.986   0.051
12976TIP3    H260344   0.892   6.096   0.008
12977TIP3   OH260345   4.486   4.851  14.380
12977TIP3    H160346   4.434   4.908  14.436
12977TIP3    H260347   4.432   4.772  14.369
12978TIP3   OH260348   5.449   5.001  13.950
12978TIP3    H160349   5.460   4.977  13.858
12978TIP3    H260350   5.524   5.059  13.968
12979TIP3   OH260351   1.374   5.111  10.989
12979TIP3    H160352   1.459   5.154  10.982
12979TIP3    H260353   1.311   5.176  10.958
12980TIP3   OH260354   6.312   3.111  14.073
12980TIP3    H160355   6.319   3.027  14.028
12980TIP3    H260356   6.385   3.162  14.038
12981TIP3   OH260357   5.959   0.948   2.052
12981TIP3    H160358   6.021   0.876   2.043
12981TIP3    H260359   5.997   1.019   2.000
12982TIP3   OH260360   6.170   2.485   5.207
12982TIP3    H160361   6.153   2.441   5.290
12982TIP3    H260362   6.236   2.431   5.164
12983TIP3   OH260363   2.834   3.297   2.644
12983TIP3    H160364   2.766   3.270   2.705
12983TIP3    H260365   2.906   3.326   2.700
12984TIP3   OH260366   3.215   1.767  15.661
12984TIP3    H160367   3.120   1.776  15.661
12984TIP3    H260368   3.240   1.772  15.753
12985TIP3   OH260369   6.488   4.762   3.810
12985TIP3    H160370   6.404   4.740   3.769
12985TIP3    H260371   6.477   4.852   3.840
12986TIP3   OH260372   3.599   2.925  16.276
12986TIP3    H160373   3.650   2.886  16.347
12986TIP3    H260374   3.514   2.882  16.281
12987TIP3   OH260375   5.511   0.136   0.876
12987TIP3    H160376   5.550   0.073   0.815
12987TIP3    H260377   5.495   0.086   0.956
12988TIP3   OH260378   4.031   3.851   6.488
12988TIP3    H160379   4.032   3.755   6.483
12988TIP3    H260380   4.123   3.876   6.478
12989TIP3   OH260381   0.549   2.634   2.476
12989TIP3    H160382   0.459   2.605   2.457
12989TIP3    H260383   0.577   2.678   2.395
12990TIP3   OH260384   1.375   4.114  13.453
12990TIP3    H160385   1.465   4.125  13.424
12990TIP3    H260386   1.347   4.031  13.414
12991TIP3   OH260387   2.360   1.073  15.382
12991TIP3    H160388   2.425   1.021  15.336
12991TIP3    H260389   2.327   1.134  15.316
12992TIP3   OH260390   0.613   6.712  14.901
12992TIP3    H160391   0.521   6.706  14.929
12992TIP3    H260392   0.618   6.795  14.853
12993TIP3   OH260393   4.195   0.707  15.586
12993TIP3    H160394   4.260   0.642  15.558
12993TIP3    H260395   4.191   0.697  15.682
12994TIP3   OH260396   4.792   1.998  17.149
12994TIP3    H160397   4.854   2.022  17.080
12994TIP3    H260398   4.741   2.077  17.165
12995TIP3   OH260399   2.776   0.670  14.841
12995TIP3    H160400   2.827   0.724  14.902
12995TIP3    H260401   2.718   0.732  14.797
12996TIP3   OH260402   1.250   1.579  16.279
12996TIP3    H160403   1.304   1.576  16.358
12996TIP3    H260404   1.287   1.650  16.227
12997TIP3   OH260405   4.533   5.563  11.373
12997TIP3    H160406   4.570   5.623  11.308
12997TIP3    H260407   4.549   5.607  11.457
12998TIP3   OH260408   0.798   0.596  16.747
12998TIP3    H160409   0.885   0.595  16.786
12998TIP3    H260410   0.793   0.681  16.702
12999TIP3   OH260411   4.465   5.809   0.918
12999TIP3    H160412   4.517   5.868   0.972
12999TIP3    H260413   4.482   5.722   0.953
13000TIP3   OH260414   2.002   2.346  11.610
13000TIP3    H160415   2.083   2.386  11.578
13000TIP3    H260416   1.945   2.419  11.632
13001TIP3   OH260417   1.384   0.167   0.770
13001TIP3    H160418   1.470   0.129   0.785
13001TIP3    H260419   1.337   0.100   0.720
13002TIP3   OH260420   5.870   4.572   6.131
13002TIP3    H160421   5.868   4.618   6.214
13002TIP3    H260422   5.870   4.480   6.154
13003TIP3   OH260423   2.067   3.619   2.138
13003TIP3    H160424   2.112   3.629   2.054
13003TIP3    H260425   2.079   3.526   2.160
13004TIP3   OH260426   1.381   6.407   3.560
13004TIP3    H160427   1.362   6.378   3.649
13004TIP3    H260428   1.382   6.327   3.508
13005TIP3   OH260429   1.170   0.877   1.073
13005TIP3    H160430   1.180   0.807   1.137
13005TIP3    H260431   1.147   0.954   1.125
13006TIP3   OH260432   1.322   0.109   0.159
13006TIP3    H160433   1.406   0.113   0.205
13006TIP3    H260434   1.275   0.038   0.202
13007TIP3   OH260435   0.527   3.569  15.848
13007TIP3    H160436   0.619   3.567  15.821
13007TIP3    H260437   0.518   3.651  15.896
13008TIP3   OH260438   3.308   5.701  11.800
13008TIP3    H160439   3.315   5.722  11.893
13008TIP3    H260440   3.356   5.619  11.790
13009TIP3   OH260441   4.763   5.045   5.390
13009TIP3    H160442   4.737   5.110   5.325
13009TIP3    H260443   4.766   5.093   5.473
13010TIP3   OH260444   6.268   6.078   4.574
13010TIP3    H160445   6.293   6.024   4.650
13010TIP3    H260446   6.352   6.111   4.540
13011TIP3   OH260447   0.452   4.034   0.042
13011TIP3    H160448   0.454   4.127   0.064
13011TIP3    H260449   0.543   4.005   0.054
13012TIP3   OH260450   4.061   6.432  16.045
13012TIP3    H160451   3.967   6.425  16.066
13012TIP3    H260452   4.100   6.353  16.082
13013TIP3   OH260453   1.144   2.372   0.967
13013TIP3    H160454   1.127   2.423   1.046
13013TIP3    H260455   1.060   2.333   0.945
13014TIP3   OH260456   5.194   4.175   1.097
13014TIP3    H160457   5.289   4.180   1.084
13014TIP3    H260458   5.161   4.258   1.063
13015TIP3   OH260459   0.864   6.557  16.275
13015TIP3    H160460   0.891   6.624  16.338
13015TIP3    H260461   0.772   6.542  16.292
13016TIP3   OH260462   3.732   0.878  14.536
13016TIP3    H160463   3.654   0.869  14.481
13016TIP3    H260464   3.705   0.936  14.607
13017TIP3   OH260465   4.177   2.647  17.226
13017TIP3    H160466   4.176   2.738  17.198
13017TIP3    H260467   4.198   2.651  17.319
13018TIP3   OH260468   1.544   6.058  14.066
13018TIP3    H160469   1.598   6.121  14.019
13018TIP3    H260470   1.536   5.984  14.006
13019TIP3   OH260471   3.825   2.132  13.978
13019TIP3    H160472   3.860   2.123  13.890
13019TIP3    H260473   3.838   2.224  14.000
13020TIP3   OH260474   6.647   1.630   3.843
13020TIP3    H160475   6.595   1.689   3.897
13020TIP3    H260476   6.607   1.636   3.756
13021TIP3   OH260477   2.416   6.088  13.077
13021TIP3    H160478   2.457   6.153  13.134
13021TIP3    H260479   2.488   6.053  13.024
13022TIP3   OH260480   1.142   5.979   1.184
13022TIP3    H160481   1.212   5.925   1.149
13022TIP3    H260482   1.134   6.051   1.121
13023TIP3   OH260483   0.117   6.594  13.172
13023TIP3    H160484   0.132   6.631  13.259
13023TIP3    H260485   0.142   6.502  13.180
13024TIP3   OH260486   3.398   3.477   3.407
13024TIP3    H160487   3.385   3.526   3.488
13024TIP3    H260488   3.312   3.439   3.387
13025TIP3   OH260489   1.944   5.897   2.206
13025TIP3    H160490   1.885   5.962   2.243
13025TIP3    H260491   1.960   5.926   2.116
13026TIP3   OH260492   6.330   0.374  13.063
13026TIP3    H160493   6.398   0.309  13.042
13026TIP3    H260494   6.273   0.329  13.125
13027TIP3   OH260495   4.688   1.629   5.527
13027TIP3    H160496   4.621   1.688   5.491
13027TIP3    H260497   4.771   1.668   5.500
13028TIP3   OH260498   4.024   0.216  12.843
13028TIP3    H160499   4.054   0.236  12.755
13028TIP3    H260500   4.004   0.123  12.842
13029TIP3   OH260501   2.683   0.514   3.729
13029TIP3    H160502   2.617   0.507   3.660
13029TIP3    H260503   2.637   0.555   3.802
13030TIP3   OH260504   1.050   5.568   5.150
13030TIP3    H160505   0.956   5.562   5.134
13030TIP3    H260506   1.060   5.555   5.244
13031TIP3   OH260507   1.593   0.425  13.459
13031TIP3    H160508   1.667   0.461  13.410
13031TIP3    H260509   1.632   0.391  13.539
13032TIP3   OH260510   6.303   2.833   4.697
13032TIP3    H160511   6.259   2.892   4.636
13032TIP3    H260512   6.395   2.858   4.693
13033TIP3   OH260513   5.237   5.391   4.616
13033TIP3    H160514   5.321   5.404   4.659
13033TIP3    H260515   5.209   5.304   4.642
13034TIP3   OH260516   3.724   1.757  12.046
13034TIP3    H160517   3.768   1.707  12.114
13034TIP3    H260518   3.645   1.706  12.025
13035TIP3   OH260519   5.723   1.163  15.441
13035TIP3    H160520   5.655   1.171  15.507
13035TIP3    H260521   5.681   1.189  15.359
13036TIP3   OH260522   3.729   2.986  15.708
13036TIP3    H160523   3.707   2.900  15.741
13036TIP3    H260524   3.683   3.047  15.766
13037TIP3   OH260525   6.342   4.794  10.673
13037TIP3    H160526   6.423   4.746  10.658
13037TIP3    H260527   6.347   4.868  10.613
13038TIP3   OH260528   3.185   3.991  13.194
13038TIP3    H160529   3.128   4.014  13.267
13038TIP3    H260530   3.220   3.905  13.217
13039TIP3   OH260531   4.608   1.317  10.961
13039TIP3    H160532   4.615   1.315  11.057
13039TIP3    H260533   4.572   1.232  10.937
13040TIP3   OH260534   5.816   6.588   5.302
13040TIP3    H160535   5.770   6.530   5.362
13040TIP3    H260536   5.856   6.530   5.238
13041TIP3   OH260537   0.461   5.519  15.227
13041TIP3    H160538   0.500   5.437  15.257
13041TIP3    H260539   0.372   5.517  15.262
13042TIP3   OH260540   4.748   4.686  12.012
13042TIP3    H160541   4.659   4.702  11.980
13042TIP3    H260542   4.741   4.695  12.108
13043TIP3   OH260543   1.264   4.353   3.589
13043TIP3    H160544   1.230   4.342   3.500
13043TIP3    H260545   1.356   4.326   3.583
13044TIP3   OH260546   2.709   1.725   4.594
13044TIP3    H160547   2.767   1.666   4.545
13044TIP3    H260548   2.621   1.692   4.576
13045TIP3   OH260549   1.341   4.877   0.150
13045TIP3    H160550   1.280   4.822   0.101
13045TIP3    H260551   1.291   4.909   0.224
13046TIP3   OH260552   2.178   1.304  11.048
13046TIP3    H160553   2.182   1.301  10.953
13046TIP3    H260554   2.242   1.240  11.078
13047TIP3   OH260555   0.065   2.908  12.658
13047TIP3    H160556  -0.008   2.960  12.626
13047TIP3    H260557   0.127   2.973  12.692
13048TIP3   OH260558   2.358   4.085  15.628
13048TIP3    H160559   2.352   4.104  15.722
13048TIP3    H260560   2.354   3.990  15.623
13049TIP3   OH260561   0.980   6.153   3.684
13049TIP3    H160562   0.976   6.154   3.588
13049TIP3    H260563   0.938   6.071   3.709
13050TIP3   OH260564   6.368   3.923  10.758
13050TIP3    H160565   6.354   3.835  10.794
13050TIP3    H260566   6.301   3.977  10.801
13051TIP3   OH260567   2.960   5.959   3.890
13051TIP3    H160568   3.015   6.001   3.955
13051TIP3    H260569   2.895   5.910   3.941
13052TIP3   OH260570   3.219   2.776   4.208
13052TIP3    H160571   3.152   2.812   4.267
13052TIP3    H260572   3.177   2.699   4.169
13053TIP3   OH260573   3.145   6.729  12.610
13053TIP3    H160574   3.192   6.797  12.658
13053TIP3    H260575   3.203   6.653  12.612
13054TIP3   OH260576   3.632   5.510   3.880
13054TIP3    H160577   3.628   5.558   3.797
13054TIP3    H260578   3.648   5.578   3.946
13055TIP3   OH260579   5.637   3.154  11.418
13055TIP3    H160580   5.554   3.126  11.458
13055TIP3    H260581   5.625   3.247  11.401
13056TIP3   OH260582   0.278   1.663   0.057
13056TIP3    H160583   0.237   1.741   0.019
13056TIP3    H260584   0.216   1.631   0.122
13057TIP3   OH260585   4.503   4.730  11.861
13057TIP3    H160586   4.550   4.699  11.784
13057TIP3    H260587   4.411   4.729  11.836
13058TIP3   OH260588   6.064   6.644  13.109
13058TIP3    H160589   6.022   6.572  13.062
13058TIP3    H260590   6.145   6.606  13.143
13059TIP3   OH260591   2.810   3.498   3.416
13059TIP3    H160592   2.768   3.571   3.460
13059TIP3    H260593   2.895   3.532   3.387
13060TIP3   OH260594   2.095   4.143   0.188
13060TIP3    H160595   2.173   4.173   0.236
13060TIP3    H260596   2.123   4.062   0.145
13061TIP3   OH260597   1.770   6.298   5.966
13061TIP3    H160598   1.836   6.265   6.026
13061TIP3    H260599   1.795   6.389   5.950
13062TIP3   OH260600   2.534   2.579  17.179
13062TIP3    H160601   2.504   2.538  17.260
13062TIP3    H260602   2.524   2.510  17.112
13063TIP3   OH260603   0.288   2.486   6.632
13063TIP3    H160604   0.224   2.493   6.562
13063TIP3    H260605   0.301   2.391   6.643
13064TIP3   OH260606   6.688   6.598  11.041
13064TIP3    H160607   6.693   6.524  10.980
13064TIP3    H260608   6.724   6.672  10.992
13065TIP3   OH260609   5.409   5.132   4.371
13065TIP3    H160610   5.378   5.102   4.285
13065TIP3    H260611   5.329   5.146   4.421
13066TIP3   OH260612   4.339   1.565   0.612
13066TIP3    H160613   4.368   1.526   0.695
13066TIP3    H260614   4.282   1.498   0.573
13067TIP3   OH260615   5.223   2.591  16.746
13067TIP3    H160616   5.271   2.645  16.809
13067TIP3    H260617   5.252   2.502  16.764
13068TIP3   OH260618   5.499   5.270  14.719
13068TIP3    H160619   5.537   5.252  14.806
13068TIP3    H260620   5.461   5.186  14.692
13069TIP3   OH260621   1.639   4.069   3.810
13069TIP3    H160622   1.727   4.096   3.782
13069TIP3    H260623   1.655   4.012   3.885
13070TIP3   OH260624   4.535   1.444  11.911
13070TIP3    H160625   4.606   1.478  11.857
13070TIP3    H260626   4.578   1.409  11.989
13071TIP3   OH260627   0.090   3.036   5.538
13071TIP3    H160628   0.174   3.051   5.581
13071TIP3    H260629   0.100   3.075   5.451
13072TIP3   OH260630   5.920   4.527   0.350
13072TIP3    H160631   5.852   4.580   0.309
13072TIP3    H260632   5.909   4.440   0.312
13073TIP3   OH260633   6.331   2.438  15.379
13073TIP3    H160634   6.404   2.377  15.368
13073TIP3    H260635   6.356   2.515  15.326
13074TIP3   OH260636   1.351   1.304  11.060
13074TIP3    H160637   1.282   1.258  11.012
13074TIP3    H260638   1.418   1.322  10.993
13075TIP3   OH260639   2.755   4.481  12.046
13075TIP3    H160640   2.752   4.404  12.103
13075TIP3    H260641   2.756   4.445  11.957
13076TIP3   OH260642   3.911   5.377  13.223
13076TIP3    H160643   3.824   5.412  13.205
13076TIP3    H260644   3.898   5.320  13.299
13077TIP3   OH260645   1.907   5.187  15.945
13077TIP3    H160646   1.914   5.274  15.905
13077TIP3    H260647   1.818   5.158  15.925
13078TIP3   OH260648   4.342   1.745  14.422
13078TIP3    H160649   4.412   1.750  14.357
13078TIP3    H260650   4.383   1.709  14.500
13079TIP3   OH260651   5.702   0.641   5.774
13079TIP3    H160652   5.615   0.605   5.789
13079TIP3    H260653   5.761   0.571   5.804
13080TIP3   OH260654   2.658   1.512  10.914
13080TIP3    H160655   2.714   1.448  10.870
13080TIP3    H260656   2.582   1.521  10.856
13081TIP3   OH260657   2.745   4.262  15.010
13081TIP3    H160658   2.720   4.293  14.923
13081TIP3    H260659   2.807   4.327  15.042
13082TIP3   OH260660   1.330   1.570   4.465
13082TIP3    H160661   1.380   1.632   4.412
13082TIP3    H260662   1.313   1.617   4.547
13083TIP3   OH260663   5.528   4.600  15.227
13083TIP3    H160664   5.465   4.597  15.156
13083TIP3    H260665   5.613   4.610  15.183
13084TIP3   OH260666   2.885   2.129  12.825
13084TIP3    H160667   2.938   2.171  12.756
13084TIP3    H260668   2.800   2.115  12.784
13085TIP3   OH260669   5.186   6.737  11.684
13085TIP3    H160670   5.223   6.817  11.722
13085TIP3    H260671   5.157   6.686  11.760
13086TIP3   OH260672   5.465   1.689   2.600
13086TIP3    H160673   5.440   1.596   2.607
13086TIP3    H260674   5.492   1.713   2.688
13087TIP3   OH260675   2.022   0.797   4.964
13087TIP3    H160676   1.994   0.836   5.046
13087TIP3    H260677   2.052   0.709   4.989
13088TIP3   OH260678   4.804   1.189   3.687
13088TIP3    H160679   4.790   1.094   3.677
13088TIP3    H260680   4.785   1.206   3.779
13089TIP3   OH260681   3.391   1.907   0.606
13089TIP3    H160682   3.343   1.918   0.688
13089TIP3    H260683   3.352   1.971   0.546
13090TIP3   OH260684   1.447   6.301   5.929
13090TIP3    H160685   1.470   6.253   5.849
13090TIP3    H260686   1.524   6.294   5.984
13091TIP3   OH260687   0.046   3.181  15.687
13091TIP3    H160688   0.023   3.271  15.710
13091TIP3    H260689   0.141   3.181  15.680
13092TIP3   OH260690   3.704   3.084  12.432
13092TIP3    H160691   3.683   3.157  12.490
13092TIP3    H260692   3.659   3.009  12.472
13093TIP3   OH260693   0.521   3.962  14.415
13093TIP3    H160694   0.439   4.000  14.384
13093TIP3    H260695   0.504   3.868  14.420
13094TIP3   OH260696   0.805   3.279  12.527
13094TIP3    H160697   0.761   3.360  12.553
13094TIP3    H260698   0.883   3.275  12.582
13095TIP3   OH260699   2.683   6.359  14.895
13095TIP3    H160700   2.609   6.398  14.847
13095TIP3    H260701   2.748   6.341  14.827
13096TIP3   OH260702   5.674   5.650   2.278
13096TIP3    H160703   5.768   5.632   2.277
13096TIP3    H260704   5.634   5.564   2.268
13097TIP3   OH260705   1.636   1.480   3.220
13097TIP3    H160706   1.730   1.479   3.199
13097TIP3    H260707   1.632   1.455   3.312
13098TIP3   OH260708   5.997   0.509  11.832
13098TIP3    H160709   5.992   0.428  11.781
13098TIP3    H260710   6.018   0.480  11.921
13099TIP3   OH260711   3.626   3.160   4.083
13099TIP3    H160712   3.685   3.194   4.015
13099TIP3    H260713   3.593   3.077   4.048
13100TIP3   OH260714   3.602   4.550  16.727
13100TIP3    H160715   3.680   4.540  16.782
13100TIP3    H260716   3.545   4.478  16.754
13101TIP3   OH260717   3.898   6.305  11.885
13101TIP3    H160718   3.822   6.254  11.912
13101TIP3    H260719   3.971   6.242  11.887
13102TIP3   OH260720   5.309   0.513  12.461
13102TIP3    H160721   5.369   0.482  12.529
13102TIP3    H260722   5.247   0.569  12.508
13103TIP3   OH260723   2.122   5.950  12.827
13103TIP3    H160724   2.038   5.925  12.787
13103TIP3    H260725   2.100   5.968  12.919
13104TIP3   OH260726   4.690   5.165   1.406
13104TIP3    H160727   4.663   5.101   1.341
13104TIP3    H260728   4.669   5.250   1.367
13105TIP3   OH260729   3.650   0.632  16.332
13105TIP3    H160730   3.614   0.575  16.264
13105TIP3    H260731   3.579   0.693  16.352
13106TIP3   OH260732   0.392   2.421  14.010
13106TIP3    H160733   0.480   2.392  13.986
13106TIP3    H260734   0.339   2.341  14.010
13107TIP3   OH260735   1.937   6.458   1.892
13107TIP3    H160736   2.025   6.477   1.860
13107TIP3    H260737   1.902   6.542   1.920
13108TIP3   OH260738   2.627   5.182   3.352
13108TIP3    H160739   2.720   5.168   3.369
13108TIP3    H260740   2.614   5.153   3.262
13109TIP3   OH260741   5.440   6.419   0.211
13109TIP3    H160742   5.441   6.409   0.116
13109TIP3    H260743   5.439   6.329   0.245
13110TIP3   OH260744   4.107   4.728  12.060
13110TIP3    H160745   4.045   4.767  11.998
13110TIP3    H260746   4.060   4.728  12.143
13111TIP3   OH260747   4.607   0.623   3.474
13111TIP3    H160748   4.515   0.605   3.453
13111TIP3    H260749   4.604   0.698   3.534
13112TIP3   OH260750   3.526   5.907   2.190
13112TIP3    H160751   3.571   5.832   2.151
13112TIP3    H260752   3.559   5.911   2.279
13113TIP3   OH260753   3.741   1.989   6.333
13113TIP3    H160754   3.717   1.896   6.335
13113TIP3    H260755   3.813   1.997   6.395
13114TIP3   OH260756   2.777   6.540   2.822
13114TIP3    H160757   2.808   6.629   2.808
13114TIP3    H260758   2.846   6.499   2.876
13115TIP3   OH260759   3.588   2.201  12.500
13115TIP3    H160760   3.519   2.207  12.434
13115TIP3    H260761   3.549   2.149  12.570
13116TIP3   OH260762   4.732   4.040   1.457
13116TIP3    H160763   4.821   4.051   1.489
13116TIP3    H260764   4.735   3.961   1.404
13117TIP3   OH260765   3.544   3.636   4.090
13117TIP3    H160766   3.508   3.549   4.071
13117TIP3    H260767   3.484   3.697   4.047
13118TIP3   OH260768   5.195   2.383  12.861
13118TIP3    H160769   5.124   2.446  12.874
13118TIP3    H260770   5.161   2.301  12.897
13119TIP3   OH260771   2.035   5.807  15.448
13119TIP3    H160772   2.105   5.872  15.449
13119TIP3    H260773   2.052   5.754  15.370
13120TIP3   OH260774   6.499   3.016   5.627
13120TIP3    H160775   6.412   2.997   5.593
13120TIP3    H260776   6.554   2.947   5.591
13121TIP3   OH260777   3.095   0.964  11.291
13121TIP3    H160778   3.145   0.886  11.315
13121TIP3    H260779   3.056   0.942  11.206
13122TIP3   OH260780   2.365   3.798  15.572
13122TIP3    H160781   2.277   3.795  15.535
13122TIP3    H260782   2.361   3.741  15.648
13123TIP3   OH260783   2.676   4.176   3.586
13123TIP3    H160784   2.619   4.227   3.645
13123TIP3    H260785   2.742   4.138   3.643
13124TIP3   OH260786   2.976   3.812  12.478
13124TIP3    H160787   2.889   3.845  12.497
13124TIP3    H260788   2.964   3.756  12.401
13125TIP3   OH260789   2.196   4.680   3.183
13125TIP3    H160790   2.266   4.668   3.118
13125TIP3    H260791   2.150   4.759   3.154
13126TIP3   OH260792   5.523   4.069   2.115
13126TIP3    H160793   5.601   4.118   2.089
13126TIP3    H260794   5.540   4.043   2.206
13127TIP3   OH260795   4.289   6.704  15.229
13127TIP3    H160796   4.284   6.797  15.207
13127TIP3    H260797   4.289   6.702  15.325
13128TIP3   OH260798   6.659   3.892  13.895
13128TIP3    H160799   6.652   3.914  13.988
13128TIP3    H260800   6.702   3.968  13.856
13129TIP3   OH260801   2.557   0.392   0.891
13129TIP3    H160802   2.546   0.374   0.984
13129TIP3    H260803   2.468   0.399   0.856
13130TIP3   OH260804   2.149   2.831   1.657
13130TIP3    H160805   2.102   2.906   1.619
13130TIP3    H260806   2.240   2.860   1.661
13131TIP3   OH260807   5.525   4.281  12.472
13131TIP3    H160808   5.496   4.366  12.438
13131TIP3    H260809   5.616   4.274  12.444
13132TIP3   OH260810   4.829   0.866  13.477
13132TIP3    H160811   4.921   0.892  13.485
13132TIP3    H260812   4.794   0.878  13.566
13133TIP3   OH260813   2.459   4.925  14.115
13133TIP3    H160814   2.415   5.010  14.118
13133TIP3    H260815   2.522   4.934  14.043
13134TIP3   OH260816   5.149   1.074  16.142
13134TIP3    H160817   5.153   0.999  16.083
13134TIP3    H260818   5.240   1.088  16.169
13135TIP3   OH260819   3.924   1.363  16.093
13135TIP3    H160820   3.989   1.419  16.134
13135TIP3    H260821   3.918   1.287  16.151
13136TIP3   OH260822   0.237   2.669  16.765
13136TIP3    H160823   0.217   2.591  16.714
13136TIP3    H260824   0.248   2.638  16.854
13137TIP3   OH260825   6.399   4.895  12.064
13137TIP3    H160826   6.369   4.873  12.152
13137TIP3    H260827   6.476   4.840  12.051
13138TIP3   OH260828   1.051   0.949   4.201
13138TIP3    H160829   1.116   0.948   4.131
13138TIP3    H260830   1.008   0.864   4.195
13139TIP3   OH260831   2.262   2.968  16.956
13139TIP3    H160832   2.180   3.018  16.957
13139TIP3    H260833   2.330   3.035  16.964
13140TIP3   OH260834   1.635   0.437   2.770
13140TIP3    H160835   1.608   0.403   2.855
13140TIP3    H260836   1.693   0.510   2.790
13141TIP3   OH260837   1.462   6.409   5.172
13141TIP3    H160838   1.426   6.443   5.253
13141TIP3    H260839   1.532   6.349   5.201
13142TIP3   OH260840   5.598   1.733   3.423
13142TIP3    H160841   5.622   1.755   3.333
13142TIP3    H260842   5.506   1.707   3.417
13143TIP3   OH260843   3.831   3.955   1.944
13143TIP3    H160844   3.762   4.002   1.990
13143TIP3    H260845   3.788   3.878   1.907
13144TIP3   OH260846   6.497   3.869  11.958
13144TIP3    H160847   6.587   3.875  11.991
13144TIP3    H260848   6.493   3.933  11.887
13145TIP3   OH260849   1.810   3.414  14.717
13145TIP3    H160850   1.890   3.414  14.663
13145TIP3    H260851   1.794   3.507  14.735
13146TIP3   OH260852   4.040   5.118  16.164
13146TIP3    H160853   4.120   5.095  16.212
13146TIP3    H260854   3.995   5.034  16.152
13147TIP3   OH260855   2.475   0.037  12.571
13147TIP3    H160856   2.389   0.077  12.581
13147TIP3    H260857   2.478   0.011  12.479
13148TIP3   OH260858   5.116   2.005   0.061
13148TIP3    H160859   5.026   2.024   0.033
13148TIP3    H260860   5.148   1.943  -0.004
13149TIP3   OH260861   3.176   2.056  15.909
13149TIP3    H160862   3.177   2.107  15.828
13149TIP3    H260863   3.259   2.008  15.908
13150TIP3   OH260864   3.146   2.044   5.511
13150TIP3    H160865   3.052   2.030   5.506
13150TIP3    H260866   3.159   2.098   5.589
13151TIP3   OH260867   4.146   5.167   0.423
13151TIP3    H160868   4.055   5.197   0.427
13151TIP3    H260869   4.144   5.094   0.361
13152TIP3   OH260870   1.519   4.776  15.786
13152TIP3    H160871   1.437   4.783  15.737
13152TIP3    H260872   1.494   4.737  15.869
13153TIP3   OH260873   4.168   3.484   6.009
13153TIP3    H160874   4.123   3.562   6.041
13153TIP3    H260875   4.212   3.513   5.928
13154TIP3   OH260876   0.155   2.420   4.406
13154TIP3    H160877   0.247   2.426   4.379
13154TIP3    H260878   0.153   2.345   4.466
13155TIP3   OH260879   0.147   5.304  15.920
13155TIP3    H160880   0.145   5.259  15.836
13155TIP3    H260881   0.056   5.332  15.934
13156TIP3   OH260882   0.822   6.747  17.156
13156TIP3    H160883   0.782   6.807  17.093
13156TIP3    H260884   0.826   6.663  17.109
13157TIP3   OH260885   5.719   3.074   5.439
13157TIP3    H160886   5.624   3.070   5.432
13157TIP3    H260887   5.736   3.157   5.485
13158TIP3   OH260888   4.836   3.870  11.113
13158TIP3    H160889   4.920   3.830  11.137
13158TIP3    H260890   4.836   3.871  11.017
13159TIP3   OH260891   2.720   0.612  11.823
13159TIP3    H160892   2.775   0.658  11.886
13159TIP3    H260893   2.713   0.672  11.749
13160TIP3   OH260894   0.008   1.604   0.630
13160TIP3    H160895   0.083   1.655   0.600
13160TIP3    H260896   0.046   1.531   0.679
13161TIP3   OH260897   1.848   3.312  13.589
13161TIP3    H160898   1.896   3.306  13.506
13161TIP3    H260899   1.904   3.267  13.652
13162TIP3   OH260900   3.539   6.150  13.441
13162TIP3    H160901   3.482   6.074  13.444
13162TIP3    H260902   3.625   6.117  13.466
13163TIP3   OH260903   3.633   4.015   3.280
13163TIP3    H160904   3.672   3.953   3.342
13163TIP3    H260905   3.549   4.038   3.320
13164TIP3   OH260906   1.491   2.233   4.337
13164TIP3    H160907   1.451   2.148   4.356
13164TIP3    H260908   1.585   2.216   4.340
13165TIP3   OH260909   4.801   2.376  12.026
13165TIP3    H160910   4.827   2.325  12.103
13165TIP3    H260911   4.882   2.419  11.998
13166TIP3   OH260912   1.232   6.000  15.735
13166TIP3    H160913   1.140   5.979  15.745
13166TIP3    H260914   1.276   5.915  15.731
13167TIP3   OH260915   1.712   2.706   2.348
13167TIP3    H160916   1.722   2.684   2.441
13167TIP3    H260917   1.791   2.756   2.327
13168TIP3   OH260918   6.479   3.839  14.584
13168TIP3    H160919   6.450   3.768  14.641
13168TIP3    H260920   6.398   3.887  14.564
13169TIP3   OH260921   0.421   4.488   2.018
13169TIP3    H160922   0.377   4.478   1.934
13169TIP3    H260923   0.366   4.440   2.080
13170TIP3   OH260924   5.340   6.630  12.827
13170TIP3    H160925   5.372   6.544  12.801
13170TIP3    H260926   5.250   6.615  12.855
13171TIP3   OH260927   6.004   6.520   2.455
13171TIP3    H160928   6.087   6.543   2.495
13171TIP3    H260929   6.028   6.470   2.377
13172TIP3   OH260930   4.370   3.137  12.207
13172TIP3    H160931   4.385   3.227  12.180
13172TIP3    H260932   4.342   3.092  12.127
13173TIP3   OH260933   0.727   2.841   2.822
13173TIP3    H160934   0.777   2.895   2.883
13173TIP3    H260935   0.740   2.751   2.853
13174TIP3   OH260936   5.319   3.555   0.712
13174TIP3    H160937   5.295   3.593   0.796
13174TIP3    H260938   5.397   3.604   0.685
13175TIP3   OH260939   5.745   2.353  12.999
13175TIP3    H160940   5.695   2.299  13.060
13175TIP3    H260941   5.681   2.412  12.959
13176TIP3   OH260942   6.618   1.336  13.404
13176TIP3    H160943   6.692   1.276  13.405
13176TIP3    H260944   6.573   1.319  13.486
13177TIP3   OH260945   6.318   5.331   0.895
13177TIP3    H160946   6.292   5.310   0.805
13177TIP3    H260947   6.278   5.262   0.948
13178TIP3   OH260948   0.239   1.319   6.820
13178TIP3    H160949   0.331   1.318   6.795
13178TIP3    H260950   0.199   1.250   6.767
13179TIP3   OH260951   3.919   6.471   2.186
13179TIP3    H160952   3.870   6.554   2.188
13179TIP3    H260953   4.007   6.495   2.213
13180TIP3   OH260954   2.452   3.620   6.396
13180TIP3    H160955   2.513   3.596   6.327
13180TIP3    H260956   2.368   3.633   6.351
13181TIP3   OH260957   4.525   5.445   0.617
13181TIP3    H160958   4.504   5.354   0.596
13181TIP3    H260959   4.515   5.450   0.712
13182TIP3   OH260960   2.137   6.400  12.055
13182TIP3    H160961   2.117   6.486  12.020
13182TIP3    H260962   2.123   6.408  12.149
13183TIP3   OH260963   0.337   4.452  12.384
13183TIP3    H160964   0.381   4.443  12.299
13183TIP3    H260965   0.269   4.385  12.382
13184TIP3   OH260966   0.691   5.318  11.992
13184TIP3    H160967   0.684   5.295  11.899
13184TIP3    H260968   0.779   5.290  12.017
13185TIP3   OH260969   1.803   2.768   5.066
13185TIP3    H160970   1.880   2.825   5.056
13185TIP3    H260971   1.731   2.827   5.086
13186TIP3   OH260972   2.043   3.356   6.140
13186TIP3    H160973   2.055   3.451   6.144
13186TIP3    H260974   1.948   3.345   6.138
13187TIP3   OH260975   6.610   3.902   6.422
13187TIP3    H160976   6.640   3.811   6.423
13187TIP3    H260977   6.541   3.904   6.489
13188TIP3   OH260978   5.379   4.724  13.557
13188TIP3    H160979   5.324   4.737  13.480
13188TIP3    H260980   5.442   4.657  13.531
13189TIP3   OH260981   5.979   3.442   5.873
13189TIP3    H160982   5.984   3.513   5.809
13189TIP3    H260983   5.885   3.430   5.888
13190TIP3   OH260984   5.190   1.810  13.662
13190TIP3    H160985   5.110   1.827  13.710
13190TIP3    H260986   5.178   1.856  13.579
13191TIP3   OH260987   6.013   5.101  16.557
13191TIP3    H160988   6.098   5.135  16.530
13191TIP3    H260989   6.001   5.136  16.646
13192TIP3   OH260990   0.736   1.151  11.725
13192TIP3    H160991   0.690   1.222  11.771
13192TIP3    H260992   0.825   1.155  11.758
13193TIP3   OH260993   6.330   4.601  14.505
13193TIP3    H160994   6.289   4.521  14.472
13193TIP3    H260995   6.258   4.664  14.509
13194TIP3   OH260996   4.739   3.237   6.202
13194TIP3    H160997   4.702   3.161   6.248
13194TIP3    H260998   4.810   3.201   6.149
13195TIP3   OH260999   1.636   1.315  11.751
13195TIP3    H161000   1.550   1.355  11.744
13195TIP3    H261001   1.645   1.262  11.672
13196TIP3   OH261002   0.162   0.828  13.205
13196TIP3    H161003   0.108   0.831  13.285
13196TIP3    H261004   0.182   0.735  13.193
13197TIP3   OH261005   2.318   3.494  15.469
13197TIP3    H161006   2.272   3.577  15.481
13197TIP3    H261007   2.290   3.464  15.382
13198TIP3   OH261008   1.012   1.710  15.955
13198TIP3    H161009   0.936   1.697  16.012
13198TIP3    H261010   0.974   1.723  15.868
13199TIP3   OH261011   6.383   4.272   5.705
13199TIP3    H161012   6.351   4.320   5.781
13199TIP3    H261013   6.340   4.186   5.712
13200TIP3   OH261014   1.085   0.019  11.790
13200TIP3    H161015   1.148   0.056  11.852
13200TIP3    H261016   1.002   0.019  11.838
13201TIP3   OH261017   5.795   6.105   4.254
13201TIP3    H161018   5.811   6.184   4.307
13201TIP3    H261019   5.735   6.053   4.307
13202TIP3   OH261020   6.121   6.196   2.533
13202TIP3    H161021   6.191   6.249   2.571
13202TIP3    H261022   6.164   6.113   2.512
13203TIP3   OH261023   4.883   5.198   0.734
13203TIP3    H161024   4.957   5.246   0.697
13203TIP3    H261025   4.851   5.253   0.805
13204TIP3   OH261026   2.485   3.408  13.737
13204TIP3    H161027   2.510   3.318  13.757
13204TIP3    H261028   2.567   3.458  13.743
13205TIP3   OH261029   3.586   3.394  15.747
13205TIP3    H161030   3.672   3.376  15.785
13205TIP3    H261031   3.593   3.362  15.657
13206TIP3   OH261032   1.359   5.123  13.768
13206TIP3    H161033   1.294   5.192  13.781
13206TIP3    H261034   1.443   5.167  13.786
13207TIP3   OH261035   5.133   5.198  11.549
13207TIP3    H161036   5.132   5.124  11.610
13207TIP3    H261037   5.172   5.164  11.469
13208TIP3   OH261038   1.061   0.346  15.550
13208TIP3    H161039   1.009   0.318  15.626
13208TIP3    H261040   1.145   0.372  15.587
13209TIP3   OH261041   4.717   3.465  14.204
13209TIP3    H161042   4.729   3.377  14.169
13209TIP3    H261043   4.804   3.494  14.230
13210TIP3   OH261044   4.120   6.464   4.495
13210TIP3    H161045   4.025   6.453   4.495
13210TIP3    H261046   4.135   6.535   4.558
13211TIP3   OH261047   4.268   0.713   6.728
13211TIP3    H161048   4.312   0.644   6.779
13211TIP3    H261049   4.337   0.777   6.712
13212TIP3   OH261050   2.995   1.461   1.778
13212TIP3    H161051   3.033   1.544   1.806
13212TIP3    H261052   3.014   1.400   1.849
13213TIP3   OH261053   3.366   5.645   2.042
13213TIP3    H161054   3.438   5.702   2.014
13213TIP3    H261055   3.298   5.705   2.072
13214TIP3   OH261056   2.198   6.492   4.146
13214TIP3    H161057   2.176   6.555   4.215
13214TIP3    H261058   2.286   6.463   4.167
13215TIP3   OH261059   4.050   5.968  13.688
13215TIP3    H161060   3.993   6.012  13.625
13215TIP3    H261061   4.126   5.942  13.636
13216TIP3   OH261062   2.333   6.770  14.818
13216TIP3    H161063   2.289   6.818  14.747
13216TIP3    H261064   2.261   6.734  14.870
13217TIP3   OH261065   0.499   5.439  14.955
13217TIP3    H161066   0.504   5.445  15.050
13217TIP3    H261067   0.420   5.388  14.938
13218TIP3   OH261068   1.980   4.641  12.727
13218TIP3    H161069   2.057   4.597  12.691
13218TIP3    H261070   2.016   4.700  12.793
13219TIP3   OH261071   6.657   3.237  12.265
13219TIP3    H161072   6.729   3.228  12.203
13219TIP3    H261073   6.585   3.274  12.213
13220TIP3   OH261074   5.914   1.541  11.532
13220TIP3    H161075   5.982   1.516  11.595
13220TIP3    H261076   5.880   1.458  11.499
13221TIP3   OH261077   5.609   1.080   4.062
13221TIP3    H161078   5.624   1.168   4.026
13221TIP3    H261079   5.589   1.026   3.986
13222TIP3   OH261080   2.080   6.213   6.391
13222TIP3    H161081   2.154   6.243   6.444
13222TIP3    H261082   2.078   6.118   6.404
13223TIP3   OH261083   6.046   2.219  15.955
13223TIP3    H161084   6.085   2.265  16.029
13223TIP3    H261085   6.067   2.274  15.879
13224TIP3   OH261086   0.017   1.086  14.572
13224TIP3    H161087   0.059   1.040  14.644
13224TIP3    H261088  -0.033   1.156  14.614
13225TIP3   OH261089   3.216   3.998   0.949
13225TIP3    H161090   3.300   4.017   0.907
13225TIP3    H261091   3.217   4.050   1.029
13226TIP3   OH261092   0.478   3.071   4.284
13226TIP3    H161093   0.391   3.033   4.291
13226TIP3    H261094   0.474   3.152   4.334
13227TIP3   OH261095   3.939   3.495   3.109
13227TIP3    H161096   4.004   3.527   3.046
13227TIP3    H261097   3.969   3.406   3.130
13228TIP3   OH261098   5.617   0.906  15.626
13228TIP3    H161099   5.640   0.989  15.667
13228TIP3    H261100   5.565   0.931  15.549
13229TIP3   OH261101   0.417   1.204  10.664
13229TIP3    H161102   0.471   1.185  10.587
13229TIP3    H261103   0.475   1.252  10.723
13230TIP3   OH261104   1.838   5.685   0.135
13230TIP3    H161105   1.757   5.732   0.155
13230TIP3    H261106   1.866   5.721   0.051
13231TIP3   OH261107   5.060   3.398  14.600
13231TIP3    H161108   4.991   3.332  14.606
13231TIP3    H261109   5.063   3.422  14.508
13232TIP3   OH261110   3.127   1.042  14.435
13232TIP3    H161111   3.041   1.010  14.407
13232TIP3    H261112   3.187   0.970  14.418
13233TIP3   OH261113   2.745   5.485  16.715
13233TIP3    H161114   2.738   5.434  16.634
13233TIP3    H261115   2.807   5.555  16.693
13234TIP3   OH261116   4.650   0.223   2.008
13234TIP3    H161117   4.639   0.312   2.042
13234TIP3    H261118   4.571   0.177   2.038
13235TIP3   OH261119   6.198   2.333  13.147
13235TIP3    H161120   6.128   2.325  13.083
13235TIP3    H261121   6.164   2.395  13.211
13236TIP3   OH261122   6.630   0.806  11.733
13236TIP3    H161123   6.683   0.880  11.703
13236TIP3    H261124   6.550   0.811  11.681
13237TIP3   OH261125   3.075   5.288   3.280
13237TIP3    H161126   3.043   5.361   3.228
13237TIP3    H261127   3.164   5.272   3.248
13238TIP3   OH261128   2.864   3.492  16.501
13238TIP3    H161129   2.886   3.560  16.437
13238TIP3    H261130   2.769   3.498  16.509
13239TIP3   OH261131   3.815   0.705  14.213
13239TIP3    H161132   3.884   0.686  14.149
13239TIP3    H261133   3.790   0.796  14.194
13240TIP3   OH261134   4.447   5.557   2.831
13240TIP3    H161135   4.421   5.592   2.746
13240TIP3    H261136   4.427   5.626   2.893
13241TIP3   OH261137   2.335   0.320  12.858
13241TIP3    H161138   2.303   0.268  12.932
13241TIP3    H261139   2.389   0.388  12.898
13242TIP3   OH261140   4.044   3.375  12.869
13242TIP3    H161141   4.069   3.333  12.787
13242TIP3    H261142   3.960   3.334  12.893
13243TIP3   OH261143   3.441   0.427  12.262
13243TIP3    H161144   3.445   0.459  12.352
13243TIP3    H261145   3.410   0.337  12.269
13244TIP3   OH261146   3.774   2.289   2.012
13244TIP3    H161147   3.712   2.219   1.991
13244TIP3    H261148   3.860   2.250   1.996
13245TIP3   OH261149   2.636   3.491  12.376
13245TIP3    H161150   2.719   3.470  12.419
13245TIP3    H261151   2.569   3.447  12.429
13246TIP3   OH261152   0.446   1.208  15.957
13246TIP3    H161153   0.450   1.151  16.034
13246TIP3    H261154   0.497   1.286  15.982
13247TIP3   OH261155   0.169   4.087   3.556
13247TIP3    H161156   0.150   4.181   3.547
13247TIP3    H261157   0.259   4.078   3.526
13248TIP3   OH261158   3.398   6.297  15.292
13248TIP3    H161159   3.395   6.387  15.326
13248TIP3    H261160   3.308   6.266  15.301
13249TIP3   OH261161   0.168   2.331   0.752
13249TIP3    H161162   0.247   2.361   0.796
13249TIP3    H261163   0.111   2.302   0.824
13250TIP3   OH261164   0.564   2.156   0.688
13250TIP3    H161165   0.638   2.095   0.694
13250TIP3    H261166   0.586   2.226   0.748
13251TIP3   OH261167   0.113   1.589   5.015
13251TIP3    H161168   0.083   1.680   5.022
13251TIP3    H261169   0.042   1.543   4.971
13252TIP3   OH261170   0.569   0.312   5.100
13252TIP3    H161171   0.608   0.376   5.159
13252TIP3    H261172   0.638   0.247   5.085
13253TIP3   OH261173   2.841   1.121  16.711
13253TIP3    H161174   2.786   1.087  16.641
13253TIP3    H261175   2.812   1.075  16.789
13254TIP3   OH261176   3.538   1.597   2.882
13254TIP3    H161177   3.483   1.529   2.920
13254TIP3    H261178   3.618   1.552   2.854
13255TIP3   OH261179   1.473   5.734   4.241
13255TIP3    H161180   1.385   5.696   4.252
13255TIP3    H261181   1.461   5.827   4.257
13256TIP3   OH261182   2.902   5.522   4.028
13256TIP3    H161183   2.886   5.480   4.112
13256TIP3    H261184   2.946   5.604   4.050
13257TIP3   OH261185   2.427   1.468  14.236
13257TIP3    H161186   2.504   1.510  14.197
13257TIP3    H261187   2.414   1.514  14.318
13258TIP3   OH261188   5.652   1.023   1.570
13258TIP3    H161189   5.587   1.017   1.501
13258TIP3    H261190   5.664   0.933   1.600
13259TIP3   OH261191   5.227   3.504   3.357
13259TIP3    H161192   5.225   3.425   3.411
13259TIP3    H261193   5.320   3.518   3.338
13260TIP3   OH261194   2.005   0.541   4.788
13260TIP3    H161195   2.091   0.509   4.817
13260TIP3    H261196   1.975   0.475   4.726
13261TIP3   OH261197   0.644   6.602  11.451
13261TIP3    H161198   0.580   6.660  11.410
13261TIP3    H261199   0.631   6.615  11.545
13262TIP3   OH261200   6.353   6.000  15.285
13262TIP3    H161201   6.309   6.002  15.200
13262TIP3    H261202   6.282   6.001  15.349
13263TIP3   OH261203   1.873   4.200  14.571
13263TIP3    H161204   1.842   4.125  14.621
13263TIP3    H261205   1.949   4.231  14.619
13264TIP3   OH261206   4.067   3.461   0.567
13264TIP3    H161207   4.142   3.400   0.564
13264TIP3    H261208   3.991   3.405   0.552
13265TIP3   OH261209   1.967   2.991   1.546
13265TIP3    H161210   1.982   3.085   1.532
13265TIP3    H261211   1.871   2.983   1.549
13266TIP3   OH261212   4.506   0.496   4.922
13266TIP3    H161213   4.591   0.463   4.893
13266TIP3    H261214   4.509   0.488   5.018
13267TIP3   OH261215   3.042   6.616  12.886
13267TIP3    H161216   3.048   6.585  12.795
13267TIP3    H261217   3.033   6.536  12.938
13268TIP3   OH261218   3.345   0.749   1.744
13268TIP3    H161219   3.436   0.778   1.741
13268TIP3    H261220   3.307   0.778   1.661
13269TIP3   OH261221   5.536   2.668   0.879
13269TIP3    H161222   5.452   2.636   0.846
13269TIP3    H261223   5.598   2.650   0.809
13270TIP3   OH261224   6.615   2.776  14.054
13270TIP3    H161225   6.654   2.847  14.004
13270TIP3    H261226   6.661   2.778  14.138
13271TIP3   OH261227   4.163   0.607   0.451
13271TIP3    H161228   4.184   0.591   0.543
13271TIP3    H261229   4.187   0.699   0.436
13272TIP3   OH261230   0.542   3.054   5.006
13272TIP3    H161231   0.453   3.024   4.988
13272TIP3    H261232   0.540   3.148   4.986
13273TIP3   OH261233   6.781   5.018   2.613
13273TIP3    H161234   6.720   5.029   2.540
13273TIP3    H261235   6.779   5.102   2.659
13274TIP3   OH261236   3.917   3.562  14.378
13274TIP3    H161237   3.853   3.603  14.437
13274TIP3    H261238   3.873   3.559  14.294
13275TIP3   OH261239   3.057   5.044   5.161
13275TIP3    H161240   3.143   5.022   5.197
13275TIP3    H261241   3.048   5.138   5.177
13276TIP3   OH261242   4.929   5.118  14.317
13276TIP3    H161243   4.852   5.125  14.260
13276TIP3    H261244   4.933   5.202  14.362
13277TIP3   OH261245   3.415   4.225   4.282
13277TIP3    H161246   3.408   4.318   4.304
13277TIP3    H261247   3.471   4.223   4.205
13278TIP3   OH261248   6.529   1.887  10.526
13278TIP3    H161249   6.529   1.967  10.579
13278TIP3    H261250   6.621   1.861  10.523
13279TIP3   OH261251   0.572   3.405  15.401
13279TIP3    H161252   0.657   3.437  15.430
13279TIP3    H261253   0.512   3.431  15.471
13280TIP3   OH261254   6.712   3.277   0.586
13280TIP3    H161255   6.646   3.319   0.641
13280TIP3    H261256   6.662   3.228   0.521
13281TIP3   OH261257   2.492   0.143  11.365
13281TIP3    H161258   2.443   0.101  11.436
13281TIP3    H261259   2.487   0.081  11.292
13282TIP3   OH261260   1.535   2.025  16.141
13282TIP3    H161261   1.512   2.117  16.125
13282TIP3    H261262   1.480   2.000  16.216
13283TIP3   OH261263   6.111   5.910  13.367
13283TIP3    H161264   6.108   5.856  13.288
13283TIP3    H261265   6.103   5.848  13.440
13284TIP3   OH261266   2.903   4.195  13.786
13284TIP3    H161267   2.855   4.248  13.721
13284TIP3    H261268   2.879   4.105  13.765
13285TIP3   OH261269   4.604   4.310   5.554
13285TIP3    H161270   4.585   4.236   5.612
13285TIP3    H261271   4.518   4.339   5.523
13286TIP3   OH261272   6.469   5.358   3.339
13286TIP3    H161273   6.516   5.285   3.298
13286TIP3    H261274   6.471   5.427   3.273
13287TIP3   OH261275   0.505   5.496   2.194
13287TIP3    H161276   0.545   5.583   2.196
13287TIP3    H261277   0.443   5.500   2.121
13288TIP3   OH261278   4.739   2.536  12.304
13288TIP3    H161279   4.770   2.627  12.307
13288TIP3    H261280   4.812   2.486  12.342
13289TIP3   OH261281   1.557   1.857   5.293
13289TIP3    H161282   1.466   1.885   5.287
13289TIP3    H261283   1.607   1.929   5.254
13290TIP3   OH261284   3.171   5.180  12.338
13290TIP3    H161285   3.186   5.133  12.420
13290TIP3    H261286   3.164   5.112  12.272
13291TIP3   OH261287   2.083   0.661   5.179
13291TIP3    H161288   2.008   0.602   5.182
13291TIP3    H261289   2.119   0.660   5.268
13292TIP3   OH261290   4.849   3.525  13.929
13292TIP3    H161291   4.831   3.435  13.957
13292TIP3    H261292   4.767   3.572  13.944
13293TIP3   OH261293   5.494   2.141  12.775
13293TIP3    H161294   5.502   2.199  12.850
13293TIP3    H261295   5.430   2.075  12.803
13294TIP3   OH261296   4.310   3.437   2.305
13294TIP3    H161297   4.378   3.401   2.361
13294TIP3    H261298   4.349   3.440   2.218
13295TIP3   OH261299   5.372   6.623  16.744
13295TIP3    H161300   5.375   6.690  16.675
13295TIP3    H261301   5.280   6.615  16.766
13296TIP3   OH261302   1.930   6.667   1.064
13296TIP3    H161303   1.970   6.580   1.065
13296TIP3    H261304   1.868   6.666   1.137
13297TIP3   OH261305   5.894   5.967   3.839
13297TIP3    H161306   5.853   5.929   3.916
13297TIP3    H261307   5.912   6.058   3.864
13298TIP3   OH261308   1.911   1.223  14.648
13298TIP3    H161309   1.846   1.210  14.717
13298TIP3    H261310   1.987   1.260  14.693
13299TIP3   OH261311   5.150   0.316  15.342
13299TIP3    H161312   5.124   0.307  15.250
13299TIP3    H261313   5.246   0.313  15.340
13300TIP3   OH261314   1.477   1.366  11.299
13300TIP3    H161315   1.440   1.314  11.227
13300TIP3    H261316   1.510   1.445  11.256
13301TIP3   OH261317   3.666   6.531   3.509
13301TIP3    H161318   3.736   6.593   3.489
13301TIP3    H261319   3.586   6.574   3.478
13302TIP3   OH261320   5.471   0.839   4.534
13302TIP3    H161321   5.548   0.784   4.519
13302TIP3    H261322   5.482   0.913   4.474
13303TIP3   OH261323   2.358   2.448  14.986
13303TIP3    H161324   2.440   2.400  14.974
13303TIP3    H261325   2.369   2.494  15.069
13304TIP3   OH261326   1.937   6.100  16.575
13304TIP3    H161327   1.934   6.055  16.491
13304TIP3    H261328   1.963   6.032  16.637
13305TIP3   OH261329   3.848   3.063   2.841
13305TIP3    H161330   3.867   3.070   2.748
13305TIP3    H261331   3.769   3.010   2.846
13306TIP3   OH261332   0.527   4.263   4.514
13306TIP3    H161333   0.590   4.203   4.553
13306TIP3    H261334   0.476   4.210   4.454
13307TIP3   OH261335   2.630   0.462   5.113
13307TIP3    H161336   2.689   0.415   5.172
13307TIP3    H261337   2.565   0.502   5.171
13308TIP3   OH261338   2.613   0.289   3.146
13308TIP3    H161339   2.594   0.225   3.078
13308TIP3    H261340   2.540   0.350   3.144
13309TIP3   OH261341   2.453   2.978   1.638
13309TIP3    H161342   2.519   2.995   1.571
13309TIP3    H261343   2.396   3.055   1.635
13310TIP3   OH261344   6.609   5.825   0.940
13310TIP3    H161345   6.596   5.912   0.901
13310TIP3    H261346   6.530   5.776   0.917
13311TIP3   OH261347   0.885   6.324   1.145
13311TIP3    H161348   0.814   6.308   1.083
13311TIP3    H261349   0.906   6.417   1.134
13312TIP3   OH261350   1.665   4.918   3.530
13312TIP3    H161351   1.636   4.853   3.594
13312TIP3    H261352   1.760   4.910   3.529
13313TIP3   OH261353   1.829   0.036   3.306
13313TIP3    H161354   1.797  -0.054   3.313
13313TIP3    H261355   1.920   0.026   3.276
13314TIP3   OH261356   6.275   0.160   0.587
13314TIP3    H161357   6.361   0.156   0.545
13314TIP3    H261358   6.260   0.253   0.604
13315TIP3   OH261359   5.096   3.862   0.154
13315TIP3    H161360   5.098   3.879   0.248
13315TIP3    H261361   5.015   3.904   0.124
13316TIP3   OH261362   6.357   6.494  13.935
13316TIP3    H161363   6.263   6.505  13.948
13316TIP3    H261364   6.380   6.419  13.990
13317TIP3   OH261365   1.903   2.302   2.644
13317TIP3    H161366   1.885   2.388   2.605
13317TIP3    H261367   1.850   2.300   2.723
13318TIP3   OH261368   3.982   5.382   5.915
13318TIP3    H161369   4.000   5.290   5.899
13318TIP3    H261370   3.929   5.383   5.995
13319TIP3   OH261371   1.998   3.400  15.298
13319TIP3    H161372   2.081   3.428  15.259
13319TIP3    H261373   1.995   3.306  15.280
13320TIP3   OH261374   6.035   3.893  16.074
13320TIP3    H161375   6.104   3.876  16.138
13320TIP3    H261376   6.075   3.953  16.011
13321TIP3   OH261377   6.743   2.600   2.321
13321TIP3    H161378   6.785   2.585   2.405
13321TIP3    H261379   6.733   2.513   2.283
13322TIP3   OH261380   5.189   5.856   5.668
13322TIP3    H161381   5.135   5.915   5.614
13322TIP3    H261382   5.127   5.790   5.700
13323TIP3   OH261383   2.582   4.750  15.446
13323TIP3    H161384   2.526   4.773  15.372
13323TIP3    H261385   2.597   4.656  15.437
13324TIP3   OH261386   3.048   0.500  10.862
13324TIP3    H161387   3.127   0.458  10.829
13324TIP3    H261388   2.980   0.433  10.854
13325TIP3   OH261389   4.982   3.367   3.785
13325TIP3    H161390   4.974   3.461   3.772
13325TIP3    H261391   4.894   3.333   3.771
13326TIP3   OH261392   1.734   1.501  14.766
13326TIP3    H161393   1.719   1.456  14.849
13326TIP3    H261394   1.654   1.488  14.716
13327TIP3   OH261395   4.454   4.678   4.325
13327TIP3    H161396   4.492   4.728   4.252
13327TIP3    H261397   4.375   4.638   4.288
13328TIP3   OH261398   0.346   3.431   5.280
13328TIP3    H161399   0.332   3.350   5.232
13328TIP3    H261400   0.259   3.454   5.314
13329TIP3   OH261401   4.026   0.007   4.441
13329TIP3    H161402   4.116  -0.015   4.419
13329TIP3    H261403   4.001  -0.056   4.508
13330TIP3   OH261404   1.372   1.143  15.761
13330TIP3    H161405   1.405   1.230  15.736
13330TIP3    H261406   1.283   1.159  15.793
13331TIP3   OH261407   4.445   2.765  11.585
13331TIP3    H161408   4.393   2.843  11.605
13331TIP3    H261409   4.505   2.794  11.517
13332TIP3   OH261410   5.835   0.202  16.232
13332TIP3    H161411   5.844   0.172  16.142
13332TIP3    H261412   5.866   0.292  16.231
13333TIP3   OH261413   1.777   0.784  16.568
13333TIP3    H161414   1.780   0.849  16.639
13333TIP3    H261415   1.856   0.731  16.581
13334TIP3   OH261416   1.395   2.537   3.509
13334TIP3    H161417   1.320   2.580   3.549
13334TIP3    H261418   1.471   2.581   3.547
13335TIP3   OH261419   4.238   5.724  13.646
13335TIP3    H161420   4.278   5.807  13.621
13335TIP3    H261421   4.308   5.659  13.633
13336TIP3   OH261422   2.316   3.843  16.666
13336TIP3    H161423   2.308   3.748  16.660
13336TIP3    H261424   2.355   3.858  16.752
13337TIP3   OH261425   0.921   0.561  16.013
13337TIP3    H161426   0.951   0.613  15.938
13337TIP3    H261427   0.825   0.563  16.006
13338TIP3   OH261428   3.883   1.275  10.426
13338TIP3    H161429   3.802   1.314  10.458
13338TIP3    H261430   3.926   1.241  10.505
13339TIP3   OH261431   1.056   4.317  16.213
13339TIP3    H161432   1.125   4.253  16.230
13339TIP3    H261433   1.102   4.393  16.177
13340TIP3   OH261434   0.171   0.901  12.913
13340TIP3    H161435   0.104   0.910  12.846
13340TIP3    H261436   0.131   0.846  12.980
13341TIP3   OH261437   0.640   2.280  13.916
13341TIP3    H161438   0.650   2.291  13.822
13341TIP3    H261439   0.690   2.201  13.937
13342TIP3   OH261440   0.755   4.725   5.576
13342TIP3    H161441   0.681   4.786   5.569
13342TIP3    H261442   0.771   4.719   5.670
13343TIP3   OH261443   0.664   2.342   6.328
13343TIP3    H161444   0.622   2.413   6.376
13343TIP3    H261445   0.739   2.318   6.382
13344TIP3   OH261446   4.864   1.855   5.458
13344TIP3    H161447   4.846   1.936   5.411
13344TIP3    H261448   4.937   1.877   5.517
13345TIP3   OH261449   2.198   4.467  14.987
13345TIP3    H161450   2.250   4.461  15.067
13345TIP3    H261451   2.179   4.561  14.978
13346TIP3   OH261452   5.894   2.462  12.666
13346TIP3    H161453   5.967   2.523  12.659
13346TIP3    H261454   5.839   2.499  12.735
13347TIP3   OH261455   5.985   4.599  15.617
13347TIP3    H161456   5.905   4.594  15.670
13347TIP3    H261457   5.957   4.639  15.535
13348TIP3   OH261458   3.049   3.169   6.185
13348TIP3    H161459   2.965   3.184   6.142
13348TIP3    H261460   3.078   3.084   6.153
13349TIP3   OH261461   6.731   5.715  11.737
13349TIP3    H161462   6.720   5.773  11.812
13349TIP3    H261463   6.784   5.765  11.676
13350TIP3   OH261464   6.572   2.853  15.651
13350TIP3    H161465   6.580   2.936  15.699
13350TIP3    H261466   6.506   2.870  15.584
13351TIP3   OH261467   0.562   6.709   3.652
13351TIP3    H161468   0.467   6.720   3.646
13351TIP3    H261469   0.595   6.798   3.667
13352TIP3   OH261470   1.851   4.023   5.766
13352TIP3    H161471   1.771   4.041   5.815
13352TIP3    H261472   1.847   4.083   5.691
13353TIP3   OH261473   2.917   1.150   3.492
13353TIP3    H161474   2.953   1.102   3.567
13353TIP3    H261475   2.992   1.198   3.457
13354TIP3   OH261476   0.356   4.219   2.951
13354TIP3    H161477   0.429   4.182   2.901
13354TIP3    H261478   0.299   4.145   2.969
13355TIP3   OH261479   6.622   5.126   3.374
13355TIP3    H161480   6.685   5.165   3.435
13355TIP3    H261481   6.562   5.077   3.430
13356TIP3   OH261482   5.811   5.968   0.844
13356TIP3    H161483   5.720   5.988   0.866
13356TIP3    H261484   5.860   6.047   0.868
13357TIP3   OH261485   0.680   4.083  15.301
13357TIP3    H161486   0.603   4.026  15.296
13357TIP3    H261487   0.644   4.171  15.309
13358TIP3   OH261488   4.997   4.140  13.091
13358TIP3    H161489   5.068   4.112  13.033
13358TIP3    H261490   4.920   4.146  13.035
13359TIP3   OH261491   2.772   5.421  16.076
13359TIP3    H161492   2.748   5.337  16.115
13359TIP3    H261493   2.703   5.481  16.102
13360TIP3   OH261494   5.644   5.746   5.501
13360TIP3    H161495   5.691   5.745   5.584
13360TIP3    H261496   5.552   5.737   5.526
13361TIP3   OH261497   6.168   2.200  16.446
13361TIP3    H161498   6.259   2.194  16.417
13361TIP3    H261499   6.134   2.111  16.435
13362TIP3   OH261500   5.622   1.836  12.301
13362TIP3    H161501   5.540   1.869  12.336
13362TIP3    H261502   5.649   1.768  12.363
13363TIP3   OH261503   0.235   6.410  15.431
13363TIP3    H161504   0.205   6.484  15.377
13363TIP3    H261505   0.180   6.414  15.509
13364TIP3   OH261506   3.684   4.537   3.010
13364TIP3    H161507   3.671   4.462   3.068
13364TIP3    H261508   3.595   4.571   2.995
13365TIP3   OH261509   5.759   5.526  14.215
13365TIP3    H161510   5.750   5.592  14.284
13365TIP3    H261511   5.784   5.446  14.261
13366TIP3   OH261512   3.303   4.877  11.890
13366TIP3    H161513   3.234   4.921  11.939
13366TIP3    H261514   3.265   4.791  11.867
13367TIP3   OH261515   3.447   5.602  12.573
13367TIP3    H161516   3.396   5.606  12.492
13367TIP3    H261517   3.388   5.560  12.636
13368TIP3   OH261518   5.409   1.484  13.483
13368TIP3    H161519   5.371   1.458  13.567
13368TIP3    H261520   5.503   1.492  13.500
13369TIP3   OH261521   2.257   6.459   3.858
13369TIP3    H161522   2.255   6.523   3.928
13369TIP3    H261523   2.296   6.381   3.898
13370TIP3   OH261524   3.767   2.110  11.791
13370TIP3    H161525   3.690   2.156  11.824
13370TIP3    H261526   3.736   2.022  11.771
13371TIP3   OH261527   2.445   4.419  16.405
13371TIP3    H161528   2.473   4.339  16.361
13371TIP3    H261529   2.524   4.454  16.446
13372TIP3   OH261530   3.035   5.086  14.784
13372TIP3    H161531   3.070   5.152  14.844
13372TIP3    H261532   2.960   5.130  14.742
13373TIP3   OH261533   1.081   5.079   2.776
13373TIP3    H161534   1.095   5.142   2.847
13373TIP3    H261535   0.990   5.051   2.786
13374TIP3   OH261536   4.028   6.306  12.529
13374TIP3    H161537   4.116   6.302  12.567
13374TIP3    H261538   3.994   6.391  12.555
13375TIP3   OH261539   0.155   1.600   5.320
13375TIP3    H161540   0.186   1.509   5.318
13375TIP3    H261541   0.059   1.593   5.323
13376TIP3   OH261542   4.599   0.738  14.640
13376TIP3    H161543   4.675   0.705  14.592
13376TIP3    H261544   4.523   0.706  14.590
13377TIP3   OH261545   2.919   6.451   5.313
13377TIP3    H161546   2.862   6.382   5.278
13377TIP3    H261547   2.866   6.495   5.379
13378TIP3   OH261548   6.008   4.655  17.196
13378TIP3    H161549   6.098   4.622  17.200
13378TIP3    H261550   5.953   4.579  17.217
13379TIP3   OH261551   3.695   4.884   0.941
13379TIP3    H161552   3.659   4.865   1.028
13379TIP3    H261553   3.749   4.808   0.920
13380TIP3   OH261554   4.300   1.465  16.766
13380TIP3    H161555   4.260   1.548  16.794
13380TIP3    H261556   4.255   1.398  16.817
13381TIP3   OH261557   5.088   5.213   3.363
13381TIP3    H161558   5.027   5.266   3.311
13381TIP3    H261559   5.154   5.275   3.393
13382TIP3   OH261560   5.050   3.935  16.818
13382TIP3    H161561   5.128   3.989  16.826
13382TIP3    H261562   5.078   3.860  16.764
13383TIP3   OH261563   0.887   4.276   5.719
13383TIP3    H161564   0.807   4.302   5.764
13383TIP3    H261565   0.882   4.180   5.715
13384TIP3   OH261566   5.724   1.432   2.669
13384TIP3    H161567   5.715   1.526   2.654
13384TIP3    H261568   5.804   1.423   2.722
13385TIP3   OH261569   0.146   6.138   0.364
13385TIP3    H161570   0.095   6.152   0.284
13385TIP3    H261571   0.193   6.220   0.377
13386TIP3   OH261572   0.366   3.867   4.048
13386TIP3    H161573   0.336   3.809   4.118
13386TIP3    H261574   0.324   3.951   4.066
13387TIP3   OH261575   4.632   4.236   2.816
13387TIP3    H161576   4.573   4.186   2.872
13387TIP3    H261577   4.702   4.174   2.793
13388TIP3   OH261578   2.857   3.116  13.972
13388TIP3    H161579   2.903   3.112  13.888
13388TIP3    H261580   2.900   3.188  14.019
13389TIP3   OH261581   1.997   2.675   3.107
13389TIP3    H161582   2.069   2.611   3.104
13389TIP3    H261583   2.020   2.740   3.041
13390TIP3   OH261584   1.277   3.099   4.334
13390TIP3    H161585   1.193   3.141   4.351
13390TIP3    H261586   1.330   3.119   4.412
13391TIP3   OH261587   4.806   4.002  16.413
13391TIP3    H161588   4.870   3.957  16.358
13391TIP3    H261589   4.775   3.935  16.474
13392TIP3   OH261590   2.303   5.150  14.746
13392TIP3    H161591   2.330   5.142  14.838
13392TIP3    H261592   2.376   5.194  14.703
13393TIP3   OH261593   1.978   5.569   4.199
13393TIP3    H161594   1.994   5.484   4.158
13393TIP3    H261595   1.938   5.548   4.283
13394TIP3   OH261596   2.795   1.528   0.928
13394TIP3    H161597   2.888   1.510   0.945
13394TIP3    H261598   2.796   1.609   0.877
13395TIP3   OH261599   0.802   5.260   2.832
13395TIP3    H161600   0.760   5.343   2.858
13395TIP3    H261601   0.892   5.268   2.864
13396TIP3   OH261602   0.775   5.357   4.342
13396TIP3    H161603   0.792   5.440   4.297
13396TIP3    H261604   0.706   5.316   4.290
13397TIP3   OH261605   3.745   4.535   1.153
13397TIP3    H161606   3.748   4.573   1.241
13397TIP3    H261607   3.798   4.456   1.160
13398TIP3   OH261608   5.526   3.959  13.471
13398TIP3    H161609   5.456   4.024  13.478
13398TIP3    H261610   5.509   3.913  13.389
13399TIP3   OH261611   4.069   4.602  14.859
13399TIP3    H161612   4.161   4.586  14.880
13399TIP3    H261613   4.072   4.677  14.799
13400TIP3   OH261614   1.402   5.415  14.107
13400TIP3    H161615   1.344   5.405  14.031
13400TIP3    H261616   1.443   5.330  14.118
13401TIP3   OH261617   5.722   0.538  12.936
13401TIP3    H161618   5.816   0.523  12.929
13401TIP3    H261619   5.713   0.597  13.011
13402TIP3   OH261620   0.702   0.381   4.723
13402TIP3    H161621   0.791   0.345   4.722
13402TIP3    H261622   0.673   0.374   4.632
13403TIP3   OH261623   0.288   4.006   2.545
13403TIP3    H161624   0.331   3.935   2.592
13403TIP3    H261625   0.222   4.039   2.607
13404TIP3   OH261626   5.400   1.255   3.127
13404TIP3    H161627   5.459   1.266   3.052
13404TIP3    H261628   5.391   1.161   3.137
13405TIP3   OH261629   5.418   6.753  13.660
13405TIP3    H161630   5.334   6.776  13.622
13405TIP3    H261631   5.408   6.773  13.753
13406TIP3   OH261632   3.523   4.082   5.015
13406TIP3    H161633   3.551   4.076   5.106
13406TIP3    H261634   3.601   4.058   4.965
13407TIP3   OH261635   4.761   4.829   5.600
13407TIP3    H161636   4.729   4.844   5.690
13407TIP3    H261637   4.728   4.904   5.551
13408TIP3   OH261638   1.038   1.310   2.700
13408TIP3    H161639   0.946   1.336   2.691
13408TIP3    H261640   1.040   1.255   2.778
13409TIP3   OH261641   4.147   1.066   3.969
13409TIP3    H161642   4.094   1.146   3.977
13409TIP3    H261643   4.213   1.075   4.038
13410TIP3   OH261644   6.016   1.529   5.719
13410TIP3    H161645   6.043   1.473   5.791
13410TIP3    H261646   6.066   1.497   5.643
13411TIP3   OH261647   5.393   1.341   6.671
13411TIP3    H161648   5.345   1.423   6.660
13411TIP3    H261649   5.380   1.294   6.589
13412TIP3   OH261650   5.603   2.077  13.531
13412TIP3    H161651   5.639   2.166  13.529
13412TIP3    H261652   5.655   2.029  13.466
13413TIP3   OH261653   2.666   2.578  16.036
13413TIP3    H161654   2.667   2.488  16.067
13413TIP3    H261655   2.701   2.629  16.109
13414TIP3   OH261656   4.635   4.533  15.627
13414TIP3    H161657   4.654   4.448  15.667
13414TIP3    H261658   4.631   4.514  15.533
13415TIP3   OH261659   3.752   1.659  10.407
13415TIP3    H161660   3.729   1.680  10.497
13415TIP3    H261661   3.669   1.653  10.361
13416TIP3   OH261662   6.566   1.204  12.768
13416TIP3    H161663   6.490   1.207  12.826
13416TIP3    H261664   6.566   1.289  12.724
13417TIP3   OH261665   5.846   6.291   0.242
13417TIP3    H161666   5.824   6.252   0.157
13417TIP3    H261667   5.832   6.384   0.230
13418TIP3   OH261668   1.157   3.878   5.514
13418TIP3    H161669   1.086   3.942   5.507
13418TIP3    H261670   1.116   3.801   5.554
13419TIP3   OH261671   0.486   3.855   2.302
13419TIP3    H161672   0.524   3.826   2.384
13419TIP3    H261673   0.557   3.905   2.259
13420TIP3   OH261674   3.879   1.978   2.542
13420TIP3    H161675   3.865   2.042   2.612
13420TIP3    H261676   3.927   1.907   2.584
13421TIP3   OH261677   4.102   4.432   2.675
13421TIP3    H161678   4.093   4.484   2.755
13421TIP3    H261679   4.193   4.444   2.648
13422TIP3   OH261680   3.717   5.649  12.456
13422TIP3    H161681   3.658   5.712  12.414
13422TIP3    H261682   3.663   5.571  12.469
13423TIP3   OH261683   0.040   2.523  15.916
13423TIP3    H161684   0.107   2.573  15.963
13423TIP3    H261685  -0.005   2.589  15.862
13424TIP3   OH261686   3.252   3.402   5.861
13424TIP3    H161687   3.189   3.446   5.919
13424TIP3    H261688   3.333   3.399   5.913
13425TIP3   OH261689   6.268   4.264  15.255
13425TIP3    H161690   6.299   4.202  15.188
13425TIP3    H261691   6.345   4.316  15.278
13426TIP3   OH261692   3.632   0.046   1.746
13426TIP3    H161693   3.727   0.037   1.753
13426TIP3    H261694   3.607   0.096   1.824
13427TIP3   OH261695   6.509   0.064   3.706
13427TIP3    H161696   6.554   0.039   3.787
13427TIP3    H261697   6.553   0.014   3.638
13428TIP3   OH261698   6.432   6.525  16.991
13428TIP3    H161699   6.483   6.444  16.997
13428TIP3    H261700   6.361   6.504  16.931
13429TIP3   OH261701   1.078   5.881   4.887
13429TIP3    H161702   1.118   5.884   4.800
13429TIP3    H261703   1.061   5.788   4.902
13430TIP3   OH261704   2.351   6.283  11.773
13430TIP3    H161705   2.413   6.343  11.816
13430TIP3    H261706   2.383   6.276  11.683
13431TIP3   OH261707   3.316   3.080   6.324
13431TIP3    H161708   3.292   3.097   6.233
13431TIP3    H261709   3.234   3.057   6.368
13432TIP3   OH261710   6.434   5.124  11.642
13432TIP3    H161711   6.482   5.202  11.612
13432TIP3    H261712   6.432   5.133  11.737
13433TIP3   OH261713   0.409   3.995  14.957
13433TIP3    H161714   0.501   3.995  14.933
13433TIP3    H261715   0.365   3.945  14.888
13434TIP3   OH261716   2.041   0.406  16.658
13434TIP3    H161717   1.952   0.378  16.678
13434TIP3    H261718   2.030   0.489  16.611
13435TIP3   OH261719   3.539   5.924   3.533
13435TIP3    H161720   3.501   6.012   3.526
13435TIP3    H261721   3.498   5.874   3.463
13436TIP3   OH261722   6.250   5.590  13.286
13436TIP3    H161723   6.222   5.597  13.377
13436TIP3    H261724   6.341   5.622  13.285
13437TIP3   OH261725   0.266   0.829   2.317
13437TIP3    H161726   0.232   0.851   2.404
13437TIP3    H261727   0.244   0.905   2.263
13438TIP3   OH261728   5.575   2.648  13.810
13438TIP3    H161729   5.510   2.586  13.841
13438TIP3    H261730   5.636   2.596  13.758
13439TIP3   OH261731   4.919   4.003  17.076
13439TIP3    H161732   4.972   4.047  17.143
13439TIP3    H261733   4.980   3.987  17.004
13440TIP3   OH261734   0.201   4.075   0.545
13440TIP3    H161735   0.220   3.987   0.577
13440TIP3    H261736   0.108   4.088   0.564
13441TIP3   OH261737   0.040   6.549   3.705
13441TIP3    H161738   0.135   6.546   3.691
13441TIP3    H261739   0.027   6.624   3.763
13442TIP3   OH261740   1.404   0.335  16.490
13442TIP3    H161741   1.404   0.326  16.586
13442TIP3    H261742   1.481   0.287  16.461
13443TIP3   OH261743   0.733   4.454   2.742
13443TIP3    H161744   0.678   4.533   2.745
13443TIP3    H261745   0.808   4.480   2.689
13444TIP3   OH261746   5.398   6.498  17.053
13444TIP3    H161747   5.464   6.471  16.989
13444TIP3    H261748   5.378   6.419  17.102
13445TIP3   OH261749   4.084   6.642   5.534
13445TIP3    H161750   4.096   6.675   5.623
13445TIP3    H261751   3.990   6.630   5.525
13446TIP3   OH261752   4.803   1.927  16.486
13446TIP3    H161753   4.894   1.898  16.496
13446TIP3    H261754   4.753   1.847  16.471
13447TIP3   OH261755   4.124   0.184   3.738
13447TIP3    H161756   4.099   0.104   3.692
13447TIP3    H261757   4.102   0.254   3.676
13448TIP3   OH261758   3.301   3.889   3.667
13448TIP3    H161759   3.322   3.935   3.748
13448TIP3    H261760   3.236   3.824   3.693
13449TIP3   OH261761   6.207   4.163   4.485
13449TIP3    H161762   6.179   4.071   4.488
13449TIP3    H261763   6.197   4.194   4.575
13450TIP3   OH261764   0.079   4.065   2.744
13450TIP3    H161765  -0.008   4.056   2.706
13450TIP3    H261766   0.071   4.137   2.806
13451TIP3   OH261767   5.443   5.374  11.625
13451TIP3    H161768   5.516   5.341  11.677
13451TIP3    H261769   5.453   5.331  11.540
13452TIP3   OH261770   0.644   0.222   6.512
13452TIP3    H161771   0.640   0.130   6.488
13452TIP3    H261772   0.678   0.223   6.601
13453TIP3   OH261773   0.447   4.904  12.071
13453TIP3    H161774   0.528   4.954  12.080
13453TIP3    H261775   0.473   4.823  12.028
13454TIP3   OH261776   2.234   5.739  14.175
13454TIP3    H161777   2.316   5.729  14.127
13454TIP3    H261778   2.239   5.827  14.213
13455TIP3   OH261779   0.421   4.589   4.927
13455TIP3    H161780   0.494   4.527   4.923
13455TIP3    H261781   0.343   4.536   4.914
13456TIP3   OH261782   5.216   5.722  13.733
13456TIP3    H161783   5.144   5.670  13.769
13456TIP3    H261784   5.295   5.683  13.769
13457TIP3   OH261785   1.103   5.822  12.146
13457TIP3    H161786   1.054   5.831  12.064
13457TIP3    H261787   1.138   5.733  12.143
13458TIP3   OH261788   2.429   5.760   0.178
13458TIP3    H161789   2.450   5.683   0.125
13458TIP3    H261790   2.370   5.812   0.124
13459TIP3   OH261791   1.285   6.314  12.894
13459TIP3    H161792   1.268   6.316  12.800
13459TIP3    H261793   1.342   6.237  12.907
13460TIP3   OH261794   5.445   4.902   4.600
13460TIP3    H161795   5.386   4.871   4.669
13460TIP3    H261796   5.391   4.904   4.521
13461TIP3   OH261797   5.531   5.758  12.959
13461TIP3    H161798   5.582   5.828  12.999
13461TIP3    H261799   5.483   5.800  12.888
13462TIP3   OH261800   4.211   5.788  11.554
13462TIP3    H161801   4.181   5.762  11.641
13462TIP3    H261802   4.210   5.707  11.503
13463TIP3   OH261803   5.502   2.832   2.772
13463TIP3    H161804   5.482   2.739   2.763
13463TIP3    H261805   5.533   2.841   2.862
13464TIP3   OH261806   2.175   3.404  14.315
13464TIP3    H161807   2.131   3.345  14.254
13464TIP3    H261808   2.152   3.492  14.284
13465TIP3   OH261809   5.787   1.354  14.791
13465TIP3    H161810   5.867   1.308  14.820
13465TIP3    H261811   5.734   1.286  14.749
13466TIP3   OH261812   2.100   3.747  11.565
13466TIP3    H161813   2.112   3.836  11.533
13466TIP3    H261814   2.048   3.757  11.645
13467TIP3   OH261815   5.155   5.407  13.019
13467TIP3    H161816   5.097   5.376  13.089
13467TIP3    H261817   5.154   5.502  13.028
13468TIP3   OH261818   5.327   1.533  12.370
13468TIP3    H161819   5.374   1.577  12.300
13468TIP3    H261820   5.335   1.592  12.445
13469TIP3   OH261821   5.678   0.988   1.244
13469TIP3    H161822   5.740   1.017   1.311
13469TIP3    H261823   5.657   1.067   1.195
13470TIP3   OH261824   5.579   0.163  13.070
13470TIP3    H161825   5.515   0.115  13.122
13470TIP3    H261826   5.651   0.101  13.059
13471TIP3   OH261827   2.848   1.879   1.977
13471TIP3    H161828   2.791   1.901   2.050
13471TIP3    H261829   2.828   1.787   1.958
13472TIP3   OH261830   1.056   6.451  14.529
13472TIP3    H161831   1.136   6.501  14.547
13472TIP3    H261832   1.002   6.463  14.607
13473TIP3   OH261833   0.309   2.674  14.972
13473TIP3    H161834   0.304   2.681  14.876
13473TIP3    H261835   0.293   2.763  15.003
13474TIP3   OH261836   0.877   1.609   2.807
13474TIP3    H161837   0.922   1.580   2.727
13474TIP3    H261838   0.948   1.641   2.863
13475TIP3   OH261839   3.558   6.564  16.901
13475TIP3    H161840   3.558   6.546  16.995
13475TIP3    H261841   3.488   6.510  16.865
13476TIP3   OH261842   0.163   3.527  12.614
13476TIP3    H161843   0.115   3.592  12.563
13476TIP3    H261844   0.103   3.453  12.622
13477TIP3   OH261845   4.753   4.522  14.211
13477TIP3    H161846   4.727   4.612  14.193
13477TIP3    H261847   4.714   4.502  14.296
13478TIP3   OH261848   3.267   5.076   3.225
13478TIP3    H161849   3.252   5.075   3.131
13478TIP3    H261850   3.362   5.072   3.234
13479TIP3   OH261851   5.525   2.841  11.511
13479TIP3    H161852   5.479   2.923  11.530
13479TIP3    H261853   5.488   2.811  11.428
13480TIP3   OH261854   4.835   3.516   0.665
13480TIP3    H161855   4.873   3.441   0.619
13480TIP3    H261856   4.908   3.577   0.676
13481TIP3   OH261857   2.611   1.732   3.204
13481TIP3    H161858   2.673   1.662   3.223
13481TIP3    H261859   2.655   1.812   3.235
13482TIP3   OH261860   2.412   6.274   3.183
13482TIP3    H161861   2.450   6.289   3.096
13482TIP3    H261862   2.320   6.252   3.165
13483TIP3   OH261863   6.708   4.897   5.268
13483TIP3    H161864   6.769   4.853   5.327
13483TIP3    H261865   6.743   4.879   5.180
13484TIP3   OH261866   6.577   6.029   4.799
13484TIP3    H161867   6.513   6.053   4.866
13484TIP3    H261868   6.656   6.079   4.821
13485TIP3   OH261869   1.879   2.098   1.215
13485TIP3    H161870   1.836   2.068   1.295
13485TIP3    H261871   1.945   2.031   1.196
13486TIP3   OH261872   2.344   1.432   3.093
13486TIP3    H161873   2.432   1.398   3.111
13486TIP3    H261874   2.354   1.482   3.012
13487TIP3   OH261875   3.746   3.759   5.207
13487TIP3    H161876   3.733   3.780   5.114
13487TIP3    H261877   3.840   3.746   5.216
13488TIP3   OH261878   3.309   2.095  13.541
13488TIP3    H161879   3.396   2.060  13.561
13488TIP3    H261880   3.287   2.148  13.618
13489TIP3   OH261881   6.073   6.599  14.717
13489TIP3    H161882   6.057   6.630  14.806
13489TIP3    H261883   5.991   6.557  14.692
13490TIP3   OH261884   4.248   5.253  12.026
13490TIP3    H161885   4.194   5.251  12.105
13490TIP3    H261886   4.194   5.300  11.962
13491TIP3   OH261887   6.180   0.463  12.385
13491TIP3    H161888   6.157   0.391  12.445
13491TIP3    H261889   6.275   0.461  12.381
13492TIP3   OH261890   4.667   0.146  13.567
13492TIP3    H161891   4.750   0.194  13.565
13492TIP3    H261892   4.613   0.189  13.501
13493TIP3   OH261893   3.901   6.452  14.374
13493TIP3    H161894   3.807   6.459  14.391
13493TIP3    H261895   3.914   6.362  14.345
13494TIP3   OH261896   1.477   0.604  16.043
13494TIP3    H161897   1.464   0.643  15.956
13494TIP3    H261898   1.517   0.674  16.095
13495TIP3   OH261899   5.756   4.266  15.056
13495TIP3    H161900   5.729   4.355  15.033
13495TIP3    H261901   5.777   4.270  15.149
13496TIP3   OH261902   3.869   1.737  14.154
13496TIP3    H161903   3.794   1.781  14.195
13496TIP3    H261904   3.938   1.740  14.220
13497TIP3   OH261905   1.413   5.374   4.923
13497TIP3    H161906   1.359   5.442   4.962
13497TIP3    H261907   1.418   5.306   4.989
13498TIP3   OH261908   0.596   4.943   5.806
13498TIP3    H161909   0.516   4.949   5.859
13498TIP3    H261910   0.641   4.866   5.840
13499TIP3   OH261911   0.448   6.211   6.028
13499TIP3    H161912   0.476   6.279   6.089
13499TIP3    H261913   0.365   6.243   5.993
13500TIP3   OH261914   3.935   0.042   2.938
13500TIP3    H161915   3.978   0.063   2.855
13500TIP3    H261916   3.924  -0.053   2.936
13501TIP3   OH261917   4.802   5.640  11.785
13501TIP3    H161918   4.794   5.545  11.782
13501TIP3    H261919   4.876   5.656  11.843
13502TIP3   OH261920   1.513   0.058  12.699
13502TIP3    H161921   1.510   0.014  12.784
13502TIP3    H261922   1.503  -0.012  12.635
13503TIP3   OH261923   2.407   3.174   0.961
13503TIP3    H161924   2.439   3.096   1.006
13503TIP3    H261925   2.376   3.142   0.876
13504TIP3   OH261926   5.960   5.040  13.837
13504TIP3    H161927   6.021   5.009  13.903
13504TIP3    H261928   5.901   4.966  13.822
13505TIP3   OH261929   0.095   6.128  13.404
13505TIP3    H161930   0.068   6.067  13.473
13505TIP3    H261931   0.133   6.071  13.337
13506TIP3   OH261932   5.261   5.348  15.014
13506TIP3    H161933   5.206   5.366  14.937
13506TIP3    H261934   5.233   5.412  15.079
13507TIP3   OH261935   2.034   4.855  12.239
13507TIP3    H161936   2.065   4.804  12.314
13507TIP3    H261937   2.096   4.927  12.231
13508TIP3   OH261938   6.251   5.927  11.885
13508TIP3    H161939   6.308   5.987  11.838
13508TIP3    H261940   6.259   5.953  11.977
13509TIP3   OH261941   4.677   4.688   6.390
13509TIP3    H161942   4.706   4.770   6.351
13509TIP3    H261943   4.582   4.697   6.398
13510TIP3   OH261944   6.047   0.633   2.042
13510TIP3    H161945   6.141   0.643   2.029
13510TIP3    H261946   6.039   0.562   2.106
13511TIP3   OH261947   6.687   6.378   3.088
13511TIP3    H161948   6.657   6.416   3.006
13511TIP3    H261949   6.642   6.429   3.156
13512TIP3   OH261950   1.622   2.466  10.753
13512TIP3    H161951   1.686   2.495  10.688
13512TIP3    H261952   1.537   2.481  10.711
13513TIP3   OH261953   6.572   5.599  14.160
13513TIP3    H161954   6.588   5.607  14.066
13513TIP3    H261955   6.521   5.518  14.169
13514TIP3   OH261956   6.058   3.423  14.621
13514TIP3    H161957   6.042   3.332  14.644
13514TIP3    H261958   6.033   3.429  14.529
13515TIP3   OH261959   3.228   1.294   3.640
13515TIP3    H161960   3.183   1.376   3.621
13515TIP3    H261961   3.243   1.297   3.735
13516TIP3   OH261962   3.931   2.930   6.339
13516TIP3    H161963   3.866   2.873   6.298
13516TIP3    H261964   3.996   2.871   6.375
13517TIP3   OH261965   1.922   1.260   4.999
13517TIP3    H161966   1.853   1.324   5.016
13517TIP3    H261967   1.904   1.189   5.061
13518TIP3   OH261968   6.132   3.342  14.016
13518TIP3    H161969   6.183   3.414  14.052
13518TIP3    H261970   6.182   3.264  14.038
13519TIP3   OH261971   1.045   5.564   1.862
13519TIP3    H161972   1.013   5.512   1.788
13519TIP3    H261973   1.127   5.602   1.831
13520TIP3   OH261974   6.281   0.491   0.072
13520TIP3    H161975   6.275   0.465   0.164
13520TIP3    H261976   6.192   0.478   0.038
13521TIP3   OH261977   3.205   4.224  15.302
13521TIP3    H161978   3.207   4.315  15.331
13521TIP3    H261979   3.116   4.194  15.321
13522TIP3   OH261980   6.253   4.089   3.647
13522TIP3    H161981   6.257   4.103   3.552
13522TIP3    H261982   6.162   4.066   3.664
13523TIP3   OH261983   6.123   4.214  11.257
13523TIP3    H161984   6.095   4.246  11.171
13523TIP3    H261985   6.119   4.292  11.314
13524TIP3   OH261986   6.003   4.985   1.994
13524TIP3    H161987   5.998   4.990   1.898
13524TIP3    H261988   5.922   4.940   2.020
13525TIP3   OH261989   5.825   3.613   5.664
13525TIP3    H161990   5.740   3.640   5.629
13525TIP3    H261991   5.826   3.647   5.753
13526TIP3   OH261992   2.563   4.211  12.449
13526TIP3    H161993   2.481   4.258  12.463
13526TIP3    H261994   2.616   4.230  12.526
13527TIP3   OH261995   0.063   2.725   3.028
13527TIP3    H161996   0.013   2.647   3.003
13527TIP3    H261997   0.011   2.765   3.098
13528TIP3   OH261998   6.069   1.597   2.407
13528TIP3    H161999   6.121   1.631   2.481
13528TIP3    H262000   6.086   1.659   2.336
13529TIP3   OH262001   4.687   3.890   3.900
13529TIP3    H162002   4.668   3.980   3.872
13529TIP3    H262003   4.601   3.853   3.919
13530TIP3   OH262004   5.842   1.860   4.706
13530TIP3    H162005   5.822   1.937   4.759
13530TIP3    H262006   5.880   1.896   4.626
13531TIP3   OH262007   5.035   1.871  14.339
13531TIP3    H162008   4.970   1.936  14.313
13531TIP3    H262009   4.985   1.805  14.387
13532TIP3   OH262010   0.596   0.194  15.781
13532TIP3    H162011   0.602   0.253  15.706
13532TIP3    H262012   0.617   0.108  15.745
13533TIP3   OH262013   4.123   5.510  15.636
13533TIP3    H162014   4.178   5.472  15.705
13533TIP3    H262015   4.170   5.491  15.555
13534TIP3   OH262016   3.180   5.518  11.097
13534TIP3    H162017   3.202   5.443  11.152
13534TIP3    H262018   3.097   5.494  11.055
13535TIP3   OH262019   2.968   5.541   0.110
13535TIP3    H162020   2.904   5.528   0.180
13535TIP3    H262021   2.968   5.458   0.062
13536TIP3   OH262022   3.580   3.600   6.078
13536TIP3    H162023   3.548   3.685   6.108
13536TIP3    H262024   3.638   3.621   6.005
13537TIP3   OH262025   5.413   0.251  16.717
13537TIP3    H162026   5.492   0.208  16.685
13537TIP3    H262027   5.354   0.179  16.741
13538TIP3   OH262028   3.472   6.478   1.811
13538TIP3    H162029   3.495   6.553   1.865
13538TIP3    H262030   3.376   6.481   1.806
13539TIP3   OH262031   0.539   2.008  12.389
13539TIP3    H162032   0.564   2.078  12.329
13539TIP3    H262033   0.539   2.050  12.476
13540TIP3   OH262034   2.072   5.012  14.943
13540TIP3    H162035   2.057   5.104  14.919
13540TIP3    H262036   2.145   5.016  15.005
13541TIP3   OH262037   0.751   0.886   1.459
13541TIP3    H162038   0.827   0.935   1.430
13541TIP3    H262039   0.751   0.896   1.554
13542TIP3   OH262040   2.141   5.875  15.727
13542TIP3    H162041   2.059   5.904  15.768
13542TIP3    H262042   2.166   5.945  15.668
13543TIP3   OH262043   0.880   1.765   2.334
13543TIP3    H162044   0.963   1.732   2.300
13543TIP3    H262045   0.899   1.790   2.425
13544TIP3   OH262046   4.481   3.429  14.343
13544TIP3    H162047   4.554   3.405  14.286
13544TIP3    H262048   4.448   3.511  14.307
13545TIP3   OH262049   5.396   4.784  10.571
13545TIP3    H162050   5.358   4.785  10.483
13545TIP3    H262051   5.460   4.713  10.569
13546TIP3   OH262052   2.011   3.493  16.979
13546TIP3    H162053   2.031   3.423  16.917
13546TIP3    H262054   1.951   3.551  16.931
13547TIP3   OH262055   5.369   6.188   0.345
13547TIP3    H162056   5.342   6.243   0.418
13547TIP3    H262057   5.447   6.143   0.376
13548TIP3   OH262058   2.741   5.713   0.073
13548TIP3    H162059   2.707   5.637   0.121
13548TIP3    H262060   2.836   5.702   0.073
13549TIP3   OH262061   3.574   1.832   2.546
13549TIP3    H162062   3.572   1.876   2.461
13549TIP3    H262063   3.617   1.748   2.528
13550TIP3   OH262064   0.996   1.564  13.837
13550TIP3    H162065   1.070   1.514  13.871
13550TIP3    H262066   0.941   1.580  13.913
13551TIP3   OH262067   0.270   1.569   0.480
13551TIP3    H162068   0.352   1.596   0.521
13551TIP3    H262069   0.267   1.474   0.491
13552TIP3   OH262070   2.938   5.680  13.838
13552TIP3    H162071   3.022   5.645  13.866
13552TIP3    H262072   2.873   5.635  13.893
13553TIP3   OH262073   3.838   0.449  14.305
13553TIP3    H162074   3.852   0.373  14.248
13553TIP3    H262075   3.849   0.524  14.247
13554TIP3   OH262076   0.840   5.934   4.784
13554TIP3    H162077   0.867   5.886   4.706
13554TIP3    H262078   0.922   5.962   4.825
13555TIP3   OH262079   0.435   6.708   1.948
13555TIP3    H162080   0.509   6.767   1.936
13555TIP3    H262081   0.386   6.746   2.022
13556TIP3   OH262082   1.184   6.192   1.401
13556TIP3    H162083   1.193   6.115   1.344
13556TIP3    H262084   1.239   6.171   1.477
13557TIP3   OH262085   2.956   5.328   5.845
13557TIP3    H162086   2.958   5.234   5.865
13557TIP3    H262087   2.954   5.370   5.931
13558TIP3   OH262088   0.802   4.502  14.057
13558TIP3    H162089   0.818   4.460  13.972
13558TIP3    H262090   0.729   4.561  14.042
13559TIP3   OH262091   1.780   0.161   1.913
13559TIP3    H162092   1.695   0.174   1.871
13559TIP3    H262093   1.836   0.126   1.844
13560TIP3   OH262094   4.219   6.578   1.783
13560TIP3    H162095   4.272   6.549   1.857
13560TIP3    H262096   4.156   6.639   1.820
13561TIP3   OH262097   6.456   1.188   0.304
13561TIP3    H162098   6.383   1.205   0.362
13561TIP3    H262099   6.532   1.227   0.348
13562TIP3   OH262100   0.095   4.564   3.194
13562TIP3    H162101   0.171   4.516   3.223
13562TIP3    H262102   0.053   4.507   3.130
13563TIP3   OH262103   1.814   0.980   2.882
13563TIP3    H162104   1.872   0.905   2.868
13563TIP3    H262105   1.855   1.028   2.954
13564TIP3   OH262106   2.090   3.071  16.629
13564TIP3    H162107   2.035   3.075  16.550
13564TIP3    H262108   2.078   2.982  16.661
13565TIP3   OH262109   0.172   5.582   0.325
13565TIP3    H162110   0.206   5.668   0.299
13565TIP3    H262111   0.241   5.545   0.381
13566TIP3   OH262112   3.109   0.897  13.398
13566TIP3    H162113   3.145   0.870  13.482
13566TIP3    H262114   3.071   0.817  13.361
13567TIP3   OH262115   1.632   5.902  11.884
13567TIP3    H162116   1.666   5.815  11.864
13567TIP3    H262117   1.701   5.962  11.855
13568TIP3   OH262118   2.008   2.034  15.781
13568TIP3    H162119   1.988   2.065  15.870
13568TIP3    H262120   1.960   2.094  15.724
13569TIP3   OH262121   6.308   3.466   1.536
13569TIP3    H162122   6.245   3.489   1.605
13569TIP3    H262123   6.394   3.479   1.577
13570TIP3   OH262124   2.177   1.457  11.372
13570TIP3    H162125   2.147   1.392  11.435
13570TIP3    H262126   2.192   1.406  11.291
13571TIP3   OH262127   5.576   1.748  14.365
13571TIP3    H162128   5.601   1.705  14.447
13571TIP3    H262129   5.488   1.715  14.348
13572TIP3   OH262130   4.344   0.533   3.401
13572TIP3    H162131   4.347   0.471   3.328
13572TIP3    H262132   4.272   0.502   3.455
13573TIP3   OH262133   3.978   1.096   0.239
13573TIP3    H162134   3.913   1.166   0.247
13573TIP3    H262135   4.007   1.079   0.328
13574TIP3   OH262136   2.062   0.163   3.542
13574TIP3    H162137   2.087   0.102   3.473
13574TIP3    H262138   1.989   0.120   3.586
13575TIP3   OH262139   5.214   0.975   5.143
13575TIP3    H162140   5.280   0.949   5.078
13575TIP3    H262141   5.132   0.939   5.110
13576TIP3   OH262142   3.289   4.778  12.311
13576TIP3    H162143   3.297   4.799  12.404
13576TIP3    H262144   3.195   4.781  12.293
13577TIP3   OH262145   1.069   6.677  10.961
13577TIP3    H162146   1.070   6.734  11.038
13577TIP3    H262147   0.984   6.633  10.966
13578TIP3   OH262148   3.431   0.473  14.938
13578TIP3    H162149   3.496   0.404  14.949
13578TIP3    H262150   3.359   0.446  14.995
13579TIP3   OH262151   3.975   4.476  11.777
13579TIP3    H162152   3.902   4.502  11.721
13579TIP3    H262153   4.051   4.521  11.739
13580TIP3   OH262154   4.481   3.372  15.611
13580TIP3    H162155   4.399   3.327  15.630
13580TIP3    H262156   4.511   3.405  15.696
13581TIP3   OH262157   6.206   5.210  14.039
13581TIP3    H162158   6.157   5.137  14.077
13581TIP3    H262159   6.144   5.252  13.979
13582TIP3   OH262160   2.024   0.660  12.831
13582TIP3    H162161   2.021   0.726  12.762
13582TIP3    H262162   1.967   0.695  12.899
13583TIP3   OH262163   4.841   5.460  16.468
13583TIP3    H162164   4.768   5.498  16.517
13583TIP3    H262165   4.889   5.408  16.532
13584TIP3   OH262166   1.766   1.672  13.548
13584TIP3    H162167   1.849   1.658  13.503
13584TIP3    H262168   1.713   1.722  13.486
13585TIP3   OH262169   5.503   6.160  15.324
13585TIP3    H162170   5.426   6.104  15.321
13585TIP3    H262171   5.576   6.099  15.334
13586TIP3   OH262172   5.107   0.205  11.310
13586TIP3    H162173   5.121   0.299  11.324
13586TIP3    H262174   5.139   0.188  11.222
13587TIP3   OH262175   5.380   1.683   4.890
13587TIP3    H162176   5.336   1.633   4.822
13587TIP3    H262177   5.313   1.698   4.957
13588TIP3   OH262178   1.498   6.419   0.257
13588TIP3    H162179   1.403   6.432   0.251
13588TIP3    H262180   1.526   6.399   0.168
13589TIP3   OH262181   2.314   2.880   6.239
13589TIP3    H162182   2.291   2.952   6.181
13589TIP3    H262183   2.372   2.824   6.188
13590TIP3   OH262184   6.564   1.628  14.321
13590TIP3    H162185   6.475   1.655  14.298
13590TIP3    H262186   6.620   1.693  14.279
13591TIP3   OH262187   4.115   5.640   6.172
13591TIP3    H162188   4.087   5.549   6.181
13591TIP3    H262189   4.177   5.653   6.244
13592TIP3   OH262190   1.794   5.045   3.308
13592TIP3    H162191   1.720   4.996   3.343
13592TIP3    H262192   1.798   5.125   3.360
13593TIP3   OH262193   0.235   0.147   3.858
13593TIP3    H162194   0.266   0.229   3.820
13593TIP3    H262195   0.162   0.173   3.914
13594TIP3   OH262196   1.883   0.898   4.730
13594TIP3    H162197   1.915   0.810   4.709
13594TIP3    H262198   1.925   0.920   4.813
13595TIP3   OH262199   6.217   2.147   3.121
13595TIP3    H162200   6.222   2.127   3.028
13595TIP3    H262201   6.263   2.075   3.163
13596TIP3   OH262202   6.432   6.762   2.964
13596TIP3    H162203   6.427   6.746   2.870
13596TIP3    H262204   6.341   6.771   2.992
13597TIP3   OH262205   1.345   0.583  14.622
13597TIP3    H162206   1.299   0.635  14.556
13597TIP3    H262207   1.351   0.641  14.698
13598TIP3   OH262208   2.366   0.517   1.630
13598TIP3    H162209   2.344   0.477   1.714
13598TIP3    H262210   2.441   0.574   1.650
13599TIP3   OH262211   1.430   6.428  10.872
13599TIP3    H162212   1.491   6.359  10.849
13599TIP3    H262213   1.374   6.438  10.794
13600TIP3   OH262214   0.719   4.834  15.207
13600TIP3    H162215   0.702   4.889  15.283
13600TIP3    H262216   0.653   4.765  15.212
13601TIP3   OH262217   5.609   6.097   2.626
13601TIP3    H162218   5.666   6.166   2.593
13601TIP3    H262219   5.654   6.016   2.605
13602TIP3   OH262220   2.735   2.807  16.204
13602TIP3    H162221   2.744   2.823  16.298
13602TIP3    H262222   2.647   2.839  16.183
13603TIP3   OH262223   0.831   6.734  11.925
13603TIP3    H162224   0.871   6.655  11.960
13603TIP3    H262225   0.761   6.703  11.868
13604TIP3   OH262226   1.388   1.424   0.269
13604TIP3    H162227   1.427   1.468   0.345
13604TIP3    H262228   1.410   1.331   0.282
13605TIP3   OH262229   4.808   4.165  15.480
13605TIP3    H162230   4.853   4.244  15.512
13605TIP3    H262231   4.773   4.124  15.559
13606TIP3   OH262232   0.464   0.011  14.594
13606TIP3    H162233   0.368   0.008  14.592
13606TIP3    H262234   0.485   0.058  14.674
13607TIP3   OH262235   3.495   1.138  16.666
13607TIP3    H162236   3.573   1.111  16.617
13607TIP3    H262237   3.443   1.188  16.602
13608TIP3   OH262238   4.131   3.843  13.356
13608TIP3    H162239   4.064   3.902  13.390
13608TIP3    H262240   4.158   3.792  13.432
13609TIP3   OH262241   6.561   3.617   0.412
13609TIP3    H162242   6.602   3.703   0.403
13609TIP3    H262243   6.530   3.615   0.503
13610TIP3   OH262244   3.233   0.146   2.067
13610TIP3    H162245   3.257   0.170   1.978
13610TIP3    H262246   3.139   0.162   2.071
13611TIP3   OH262247   6.313   0.672  16.341
13611TIP3    H162248   6.375   0.711  16.280
13611TIP3    H262249   6.292   0.587  16.304
13612TIP3   OH262250   1.951   5.407  12.494
13612TIP3    H162251   1.942   5.342  12.423
13612TIP3    H262252   1.928   5.358  12.573
13613TIP3   OH262253   0.361   1.099   3.609
13613TIP3    H162254   0.370   1.005   3.627
13613TIP3    H262255   0.442   1.138   3.643
13614TIP3   OH262256   1.225   6.442   0.300
13614TIP3    H162257   1.180   6.410   0.377
13614TIP3    H262258   1.170   6.513   0.267
13615TIP3   OH262259   0.807   5.095   5.674
13615TIP3    H162260   0.725   5.066   5.714
13615TIP3    H262261   0.781   5.127   5.587
13616TIP3   OH262262   6.278   1.531   1.964
13616TIP3    H162263   6.345   1.467   1.988
13616TIP3    H262264   6.320   1.616   1.980
13617TIP3   OH262265   3.222   0.861  17.022
13617TIP3    H162266   3.128   0.861  17.041
13617TIP3    H262267   3.246   0.954  17.020
13618TIP3   OH262268   5.951   0.349   4.903
13618TIP3    H162269   5.899   0.365   4.982
13618TIP3    H262270   5.890   0.363   4.830
13619TIP3   OH262271   4.969   4.406  15.507
13619TIP3    H162272   5.049   4.408  15.454
13619TIP3    H262273   4.978   4.480  15.567
13620TIP3   OH262274   6.143   4.956  11.919
13620TIP3    H162275   6.123   4.871  11.881
13620TIP3    H262276   6.209   4.938  11.986
13621TIP3   OH262277   5.431   4.346   2.095
13621TIP3    H162278   5.480   4.417   2.137
13621TIP3    H262279   5.453   4.269   2.147
13622TIP3   OH262280   0.003   5.487  15.532
13622TIP3    H162281   0.006   5.393  15.549
13622TIP3    H262282  -0.021   5.526  15.616
13623TIP3   OH262283   6.306   0.997   1.834
13623TIP3    H162284   6.380   0.943   1.863
13623TIP3    H262285   6.250   0.937   1.785
13624TIP3   OH262286   4.977   3.852  15.081
13624TIP3    H162287   5.034   3.907  15.026
13624TIP3    H262288   4.966   3.903  15.161
13625TIP3   OH262289   6.291   4.614  12.523
13625TIP3    H162290   6.308   4.525  12.553
13625TIP3    H262291   6.370   4.638  12.474
13626TIP3   OH262292   4.333   5.128   3.397
13626TIP3    H162293   4.295   5.089   3.476
13626TIP3    H262294   4.258   5.164   3.350
13627TIP3   OH262295   3.314   4.209   3.312
13627TIP3    H162296   3.244   4.259   3.353
13627TIP3    H262297   3.276   4.122   3.298
13628TIP3   OH262298   0.667   4.269  15.535
13628TIP3    H162299   0.621   4.260  15.618
13628TIP3    H262300   0.721   4.189  15.529
13629TIP3   OH262301   4.023   1.462  14.146
13629TIP3    H162302   4.114   1.451  14.173
13629TIP3    H262303   4.028   1.510  14.063
13630TIP3   OH262304   3.579   6.711  14.254
13630TIP3    H162305   3.483   6.704  14.256
13630TIP3    H262306   3.603   6.683  14.165
13631TIP3   OH262307   0.616   4.924  17.209
13631TIP3    H162308   0.615   4.993  17.142
13631TIP3    H262309   0.678   4.859  17.177
13632TIP3   OH262310   6.625   3.496   5.532
13632TIP3    H162311   6.621   3.489   5.627
13632TIP3    H262312   6.604   3.407   5.501
13633TIP3   OH262313   5.078   3.690   2.893
13633TIP3    H162314   5.024   3.611   2.894
13633TIP3    H262315   5.056   3.736   2.974
13634TIP3   OH262316   0.666   4.147  13.830
13634TIP3    H162317   0.741   4.205  13.816
13634TIP3    H262318   0.627   4.178  13.911
13635TIP3   OH262319   2.231   0.878  14.629
13635TIP3    H162320   2.159   0.923  14.586
13635TIP3    H262321   2.266   0.818  14.563
13636TIP3   OH262322   1.215   0.879   3.458
13636TIP3    H162323   1.220   0.923   3.542
13636TIP3    H262324   1.258   0.795   3.472
13637TIP3   OH262325   4.974   6.343  15.070
13637TIP3    H162326   4.883   6.367  15.053
13637TIP3    H262327   5.000   6.401  15.142
13638TIP3   OH262328   6.574   0.103  15.804
13638TIP3    H162329   6.484   0.132  15.790
13638TIP3    H262330   6.593   0.046  15.730
13639TIP3   OH262331   3.528   3.293   0.791
13639TIP3    H162332   3.623   3.289   0.794
13639TIP3    H262333   3.504   3.355   0.861
13640TIP3   OH262334   1.697   2.626   6.599
13640TIP3    H162335   1.669   2.717   6.607
13640TIP3    H262336   1.780   2.622   6.646
13641TIP3   OH262337   5.077   0.702  17.036
13641TIP3    H162338   5.118   0.634  17.088
13641TIP3    H262339   5.008   0.738  17.092
13642TIP3   OH262340   3.184   6.214  13.314
13642TIP3    H162341   3.217   6.223  13.403
13642TIP3    H262342   3.111   6.277  13.310
13643TIP3   OH262343   1.416   0.031  14.305
13643TIP3    H162344   1.329  -0.005  14.287
13643TIP3    H262345   1.401   0.124  14.320
13644TIP3   OH262346   0.083   3.504   4.734
13644TIP3    H162347   0.110   3.548   4.814
13644TIP3    H262348   0.032   3.570   4.686
13645TIP3   OH262349   6.336   2.214   1.861
13645TIP3    H162350   6.317   2.144   1.799
13645TIP3    H262351   6.430   2.227   1.855
13646TIP3   OH262352   5.179   5.286  14.544
13646TIP3    H162353   5.099   5.289  14.491
13646TIP3    H262354   5.219   5.372  14.531
13647TIP3   OH262355   5.167   6.786  12.021
13647TIP3    H162356   5.149   6.710  11.965
13647TIP3    H262357   5.260   6.778  12.042
13648TIP3   OH262358   6.533   3.746   0.132
13648TIP3    H162359   6.507   3.654   0.138
13648TIP3    H262360   6.539   3.775   0.223
13649TIP3   OH262361   2.212   4.392   2.609
13649TIP3    H162362   2.147   4.417   2.544
13649TIP3    H262363   2.204   4.459   2.678
13650TIP3   OH262364   0.847   0.590  17.057
13650TIP3    H162365   0.940   0.573  17.042
13650TIP3    H262366   0.820   0.639  16.979
13651TIP3   OH262367   0.105   6.569  16.668
13651TIP3    H162368   0.109   6.563  16.573
13651TIP3    H262369   0.011   6.573  16.688
13652TIP3   OH262370   2.094   1.653  14.079
13652TIP3    H162371   2.025   1.669  14.015
13652TIP3    H262372   2.168   1.621  14.027
13653TIP3   OH262373   1.158   0.549  12.911
13653TIP3    H162374   1.243   0.536  12.868
13653TIP3    H262375   1.109   0.604  12.851
13654TIP3   OH262376   0.870   5.315  14.943
13654TIP3    H162377   0.917   5.308  14.861
13654TIP3    H262378   0.936   5.303  15.011
13655TIP3   OH262379   1.573   5.038   1.719
13655TIP3    H162380   1.662   5.044   1.684
13655TIP3    H262381   1.518   5.073   1.649
13656TIP3   OH262382   5.864   1.002   0.594
13656TIP3    H162383   5.934   0.982   0.657
13656TIP3    H262384   5.848   0.918   0.550
13657TIP3   OH262385   5.932   0.420  12.212
13657TIP3    H162386   5.893   0.496  12.169
13657TIP3    H262387   5.997   0.456  12.271
13658TIP3   OH262388   2.306   1.697   4.193
13658TIP3    H162389   2.349   1.625   4.238
13658TIP3    H262390   2.260   1.744   4.261
13659TIP3   OH262391   4.152   4.241  11.369
13659TIP3    H162392   4.082   4.236  11.304
13659TIP3    H262393   4.229   4.267  11.319
13660TIP3   OH262394   2.489   6.235   3.843
13660TIP3    H162395   2.485   6.308   3.781
13660TIP3    H262396   2.561   6.180   3.813
13661TIP3   OH262397   2.769   4.529   2.032
13661TIP3    H162398   2.847   4.475   2.045
13661TIP3    H262399   2.703   4.468   1.999
13662TIP3   OH262400   6.711   1.098  12.349
13662TIP3    H162401   6.749   1.178  12.386
13662TIP3    H262402   6.633   1.082  12.402
13663TIP3   OH262403   6.127   1.058  14.542
13663TIP3    H162404   6.158   1.093  14.458
13663TIP3    H262405   6.208   1.044  14.592
13664TIP3   OH262406   3.427   0.749  16.417
13664TIP3    H162407   3.459   0.707  16.497
13664TIP3    H262408   3.335   0.724  16.413
13665TIP3   OH262409   4.256   1.749   5.470
13665TIP3    H162410   4.341   1.791   5.454
13665TIP3    H262411   4.194   1.822   5.470
13666TIP3   OH262412   4.767   3.097   1.071
13666TIP3    H162413   4.710   3.020   1.062
13666TIP3    H262414   4.733   3.143   1.147
13667TIP3   OH262415   3.111   1.337   0.274
13667TIP3    H162416   3.184   1.275   0.279
13667TIP3    H262417   3.145   1.411   0.225
13668TIP3   OH262418   3.950   6.696  12.857
13668TIP3    H162419   4.027   6.675  12.804
13668TIP3    H262420   3.895   6.618  12.852
13669TIP3   OH262421   1.257   0.030  13.954
13669TIP3    H162422   1.188   0.059  13.894
13669TIP3    H262423   1.213  -0.025  14.018
13670TIP3   OH262424   5.858   5.369  14.443
13670TIP3    H162425   5.897   5.346  14.527
13670TIP3    H262426   5.766   5.385  14.463
13671TIP3   OH262427   0.740   4.430  10.451
13671TIP3    H162428   0.678   4.357  10.453
13671TIP3    H262429   0.687   4.507  10.472
13672TIP3   OH262430   3.894   6.355  15.654
13672TIP3    H162431   3.983   6.383  15.676
13672TIP3    H262432   3.845   6.437  15.644
13673TIP3   OH262433   2.890   3.583   2.764
13673TIP3    H162434   2.920   3.507   2.814
13673TIP3    H262435   2.948   3.586   2.688
13674TIP3   OH262436   6.767   1.284   2.284
13674TIP3    H162437   6.789   1.305   2.193
13674TIP3    H262438   6.851   1.281   2.329
13675TIP3   OH262439   4.933   5.010  16.293
13675TIP3    H162440   5.009   4.999  16.350
13675TIP3    H262441   4.944   5.096  16.254
13676TIP3   OH262442   2.802   1.673   0.281
13676TIP3    H162443   2.856   1.614   0.334
13676TIP3    H262444   2.803   1.755   0.331
13677TIP3   OH262445   3.439   5.147  13.650
13677TIP3    H162446   3.485   5.159  13.733
13677TIP3    H262447   3.393   5.230  13.636
13678TIP3   OH262448   3.146   1.611   5.436
13678TIP3    H162449   3.070   1.634   5.491
13678TIP3    H262450   3.208   1.682   5.450
13679TIP3   OH262451   0.487   0.752   2.174
13679TIP3    H162452   0.477   0.657   2.173
13679TIP3    H262453   0.431   0.781   2.246
13680TIP3   OH262454   5.734   0.744  14.651
13680TIP3    H162455   5.803   0.688  14.614
13680TIP3    H262456   5.739   0.824  14.600
13681TIP3   OH262457   3.279   4.552  16.096
13681TIP3    H162458   3.203   4.510  16.055
13681TIP3    H262459   3.333   4.582  16.024
13682TIP3   OH262460   4.733   3.155   0.776
13682TIP3    H162461   4.808   3.184   0.827
13682TIP3    H262462   4.658   3.166   0.835
13683TIP3   OH262463   2.109   6.096  17.192
13683TIP3    H162464   2.157   6.120  17.271
13683TIP3    H262465   2.107   6.000  17.192
13684TIP3   OH262466   3.485   6.062  12.512
13684TIP3    H162467   3.569   6.103  12.495
13684TIP3    H262468   3.491   6.032  12.602
13685TIP3   OH262469   0.237   6.358   2.418
13685TIP3    H162470   0.330   6.344   2.436
13685TIP3    H262471   0.224   6.324   2.330
13686TIP3   OH262472   5.560   0.297   4.922
13686TIP3    H162473   5.504   0.225   4.952
13686TIP3    H262474   5.637   0.293   4.978
13687TIP3   OH262475   0.517   3.434  11.515
13687TIP3    H162476   0.561   3.512  11.548
13687TIP3    H262477   0.432   3.435  11.558
13688TIP3   OH262478   1.654   6.667  16.283
13688TIP3    H162479   1.564   6.677  16.314
13688TIP3    H262480   1.703   6.735  16.328
13689TIP3   OH262481   5.086   4.019  12.687
13689TIP3    H162482   5.155   3.953  12.687
13689TIP3    H262483   5.128   4.098  12.651
13690TIP3   OH262484   1.299   5.604  11.970
13690TIP3    H162485   1.343   5.564  11.895
13690TIP3    H262486   1.291   5.533  12.034
13691TIP3   OH262487   2.654   1.603   5.481
13691TIP3    H162488   2.607   1.687   5.481
13691TIP3    H262489   2.726   1.616   5.420
13692TIP3   OH262490   2.168   1.104  10.683
13692TIP3    H162491   2.168   1.068  10.594
13692TIP3    H262492   2.108   1.048  10.732
13693TIP3   OH262493   0.441   0.619  16.647
13693TIP3    H162494   0.349   0.611  16.621
13693TIP3    H262495   0.461   0.712  16.637
13694TIP3   OH262496   1.744   4.050  11.562
13694TIP3    H162497   1.746   3.993  11.485
13694TIP3    H262498   1.831   4.040  11.601
13695TIP3   OH262499   5.977   4.112   2.960
13695TIP3    H162500   6.040   4.077   3.022
13695TIP3    H262501   5.940   4.035   2.916
13696TIP3   OH262502   4.193   6.097   1.649
13696TIP3    H162503   4.182   6.143   1.566
13696TIP3    H262504   4.110   6.052   1.663
13697TIP3   OH262505   4.143   1.772   4.213
13697TIP3    H162506   4.055   1.746   4.240
13697TIP3    H262507   4.201   1.733   4.278
13698TIP3   OH262508   0.744   1.007  15.416
13698TIP3    H162509   0.809   0.937  15.422
13698TIP3    H262510   0.793   1.083  15.384
13699TIP3   OH262511   3.678   1.669  13.746
13699TIP3    H162512   3.615   1.653  13.676
13699TIP3    H262513   3.680   1.764  13.756
13700TIP3   OH262514   5.897   4.404   0.665
13700TIP3    H162515   5.980   4.357   0.675
13700TIP3    H262516   5.872   4.389   0.574
13701TIP3   OH262517   2.577   5.597  15.596
13701TIP3    H162518   2.504   5.571  15.540
13701TIP3    H262519   2.544   5.584  15.685
13702TIP3   OH262520   2.602   2.174   0.620
13702TIP3    H162521   2.574   2.112   0.687
13702TIP3    H262522   2.662   2.233   0.666
13703TIP3   OH262523   0.322   3.720  12.961
13703TIP3    H162524   0.345   3.630  12.987
13703TIP3    H262525   0.385   3.775  13.007
13704TIP3   OH262526   1.557   5.375   2.174
13704TIP3    H162527   1.606   5.457   2.167
13704TIP3    H262528   1.483   5.386   2.115
13705TIP3   OH262529   1.322   0.644   0.761
13705TIP3    H162530   1.296   0.583   0.692
13705TIP3    H262531   1.416   0.629   0.773
13706TIP3   OH262532   1.587   0.894   5.371
13706TIP3    H162533   1.522   0.827   5.350
13706TIP3    H262534   1.671   0.847   5.370
13707TIP3   OH262535   3.511   1.827   4.015
13707TIP3    H162536   3.583   1.886   4.037
13707TIP3    H262537   3.446   1.883   3.973
13708TIP3   OH262538   1.177   1.790   2.674
13708TIP3    H162539   1.210   1.742   2.598
13708TIP3    H262540   1.170   1.724   2.743
13709TIP3   OH262541   5.379   4.290   5.123
13709TIP3    H162542   5.331   4.311   5.044
13709TIP3    H262543   5.435   4.216   5.098
13710TIP3   OH262544   3.665   5.225  17.234
13710TIP3    H162545   3.757   5.208  17.215
13710TIP3    H262546   3.624   5.235  17.148
13711TIP3   OH262547   6.172   6.100  14.472
13711TIP3    H162548   6.148   6.050  14.393
13711TIP3    H262549   6.149   6.042  14.545
13712TIP3   OH262550   2.734   3.345  11.565
13712TIP3    H162551   2.778   3.341  11.650
13712TIP3    H262552   2.805   3.358  11.502
13713TIP3   OH262553   3.143   1.880  11.197
13713TIP3    H162554   3.104   1.949  11.251
13713TIP3    H262555   3.228   1.863  11.237
13714TIP3   OH262556   5.807   4.754  13.318
13714TIP3    H162557   5.712   4.761  13.307
13714TIP3    H262558   5.830   4.675  13.268
13715TIP3   OH262559   5.279   2.807   4.739
13715TIP3    H162560   5.227   2.872   4.692
13715TIP3    H262561   5.357   2.854   4.767
13716TIP3   OH262562   0.319   6.512  12.185
13716TIP3    H162563   0.379   6.438  12.195
13716TIP3    H262564   0.244   6.489  12.240
13717TIP3   OH262565   5.009   1.009   0.702
13717TIP3    H162566   5.067   1.078   0.734
13717TIP3    H262567   5.031   0.932   0.756
13718TIP3   OH262568   3.000   4.685   2.995
13718TIP3    H162569   2.989   4.591   3.009
13718TIP3    H262570   3.045   4.716   3.073
13719TIP3   OH262571   0.106   5.458  11.425
13719TIP3    H162572   0.175   5.458  11.359
13719TIP3    H262573   0.149   5.489  11.505
13720TIP3   OH262574   2.603   3.559  11.448
13720TIP3    H162575   2.518   3.536  11.410
13720TIP3    H262576   2.655   3.479  11.443
13721TIP3   OH262577   2.329   4.763  16.681
13721TIP3    H162578   2.382   4.843  16.686
13721TIP3    H262579   2.344   4.719  16.765
13722TIP3   OH262580   3.258   2.418   5.694
13722TIP3    H162581   3.215   2.333   5.700
13722TIP3    H262582   3.248   2.456   5.782
13723TIP3   OH262583   5.666   1.812   0.727
13723TIP3    H162584   5.748   1.797   0.680
13723TIP3    H262585   5.682   1.888   0.782
13724TIP3   OH262586   4.562   6.613  12.726
13724TIP3    H162587   4.517   6.538  12.765
13724TIP3    H262588   4.522   6.689  12.767
13725TIP3   OH262589   5.915   0.825   4.696
13725TIP3    H162590   5.990   0.765   4.701
13725TIP3    H262591   5.849   0.776   4.646
13726TIP3   OH262592   6.395   2.863   3.480
13726TIP3    H162593   6.356   2.814   3.407
13726TIP3    H262594   6.334   2.850   3.553
13727TIP3   OH262595   6.304   3.809   4.967
13727TIP3    H162596   6.354   3.876   5.015
13727TIP3    H262597   6.225   3.854   4.938
13728TIP3   OH262598   3.234   2.901   0.071
13728TIP3    H162599   3.296   2.856   0.013
13728TIP3    H262600   3.149   2.891   0.028
13729TIP3   OH262601   4.565   6.423   0.007
13729TIP3    H162602   4.612   6.496  -0.031
13729TIP3    H262603   4.573   6.353  -0.057
13730TIP3   OH262604   2.700   3.322   4.863
13730TIP3    H162605   2.766   3.255   4.845
13730TIP3    H262606   2.722   3.394   4.804
13731TIP3   OH262607   3.489   5.071   2.246
13731TIP3    H162608   3.559   5.094   2.308
13731TIP3    H262609   3.423   5.139   2.259
13732TIP3   OH262610   6.527   5.560   6.155
13732TIP3    H162611   6.572   5.638   6.123
13732TIP3    H262612   6.446   5.556   6.104
13733TIP3   OH262613   2.280   3.478   4.796
13733TIP3    H162614   2.285   3.514   4.708
13733TIP3    H262615   2.346   3.528   4.846
13734TIP3   OH262616   0.095   1.486   3.504
13734TIP3    H162617   0.018   1.509   3.453
13734TIP3    H262618   0.109   1.562   3.561
13735TIP3   OH262619   1.237   2.549   5.400
13735TIP3    H162620   1.234   2.633   5.446
13735TIP3    H262621   1.330   2.528   5.396
13736TIP3   OH262622   5.359   1.093  14.932
13736TIP3    H162623   5.313   1.012  14.954
13736TIP3    H262624   5.407   1.072  14.851
13737TIP3   OH262625   2.009   3.264  12.348
13737TIP3    H162626   1.915   3.279  12.353
13737TIP3    H262627   2.035   3.240  12.437
13738TIP3   OH262628   4.362   2.216   3.955
13738TIP3    H162629   4.367   2.301   3.998
13738TIP3    H262630   4.447   2.175   3.971
13739TIP3   OH262631   4.748   1.877  11.786
13739TIP3    H162632   4.807   1.947  11.814
13739TIP3    H262633   4.752   1.880  11.690
13740TIP3   OH262634   0.073   6.286  14.244
13740TIP3    H162635   0.016   6.361  14.261
13740TIP3    H262636   0.036   6.246  14.165
13741TIP3   OH262637   1.963   3.609   4.754
13741TIP3    H162638   1.985   3.701   4.738
13741TIP3    H262639   2.012   3.561   4.688
13742TIP3   OH262640   5.647   0.132  14.964
13742TIP3    H162641   5.587   0.072  15.008
13742TIP3    H262642   5.667   0.088  14.881
13743TIP3   OH262643   1.870   0.122  14.431
13743TIP3    H162644   1.830   0.208  14.446
13743TIP3    H262645   1.804   0.073  14.381
13744TIP3   OH262646   1.918   3.121   4.711
13744TIP3    H162647   1.974   3.177   4.764
13744TIP3    H262648   1.977   3.054   4.677
13745TIP3   OH262649   5.887   4.639   0.803
13745TIP3    H162650   5.861   4.716   0.753
13745TIP3    H262651   5.888   4.568   0.739
13746TIP3   OH262652   2.226   3.472  15.184
13746TIP3    H162653   2.195   3.560  15.159
13746TIP3    H262654   2.249   3.430  15.101
13747TIP3   OH262655   5.679   1.301  11.719
13747TIP3    H162656   5.652   1.346  11.639
13747TIP3    H262657   5.712   1.371  11.775
13748TIP3   OH262658   1.043   0.166   3.931
13748TIP3    H162659   1.081   0.133   3.849
13748TIP3    H262660   0.950   0.143   3.925
13749TIP3   OH262661   1.923   5.149  11.913
13749TIP3    H162662   1.864   5.076  11.897
13749TIP3    H262663   1.992   5.113  11.968
13750TIP3   OH262664   5.385   5.347  10.613
13750TIP3    H162665   5.467   5.350  10.564
13750TIP3    H262666   5.333   5.280  10.568
13751TIP3   OH262667   1.565   2.239  13.886
13751TIP3    H162668   1.633   2.172  13.885
13751TIP3    H262669   1.487   2.195  13.919
13752TIP3   OH262670   0.697   1.840   4.678
13752TIP3    H162671   0.675   1.888   4.757
13752TIP3    H262672   0.783   1.801   4.697
13753TIP3   OH262673   5.980   1.327  16.719
13753TIP3    H162674   6.016   1.371  16.642
13753TIP3    H262675   5.940   1.398  16.770
13754TIP3   OH262676   1.753   0.726  16.078
13754TIP3    H162677   1.839   0.698  16.110
13754TIP3    H262678   1.760   0.719  15.982
13755TIP3   OH262679   5.881   2.421  15.516
13755TIP3    H162680   5.789   2.398  15.501
13755TIP3    H262681   5.883   2.455  15.605
13756TIP3   OH262682   0.045   4.452  10.291
13756TIP3    H162683   0.100   4.528  10.273
13756TIP3    H262684  -0.006   4.477  10.368
13757TIP3   OH262685   0.728   0.862  17.004
13757TIP3    H162686   0.767   0.865  17.092
13757TIP3    H262687   0.696   0.951  16.989
13758TIP3   OH262688   4.530   0.859   0.735
13758TIP3    H162689   4.539   0.808   0.816
13758TIP3    H262690   4.616   0.852   0.693
13759TIP3   OH262691   1.009   2.535  11.782
13759TIP3    H162692   0.956   2.557  11.705
13759TIP3    H262693   1.082   2.484  11.747
13760TIP3   OH262694   0.253   5.846   5.496
13760TIP3    H162695   0.226   5.784   5.428
13760TIP3    H262696   0.331   5.889   5.461
13761TIP3   OH262697   2.019   1.112   0.232
13761TIP3    H162698   2.002   1.147   0.320
13761TIP3    H262699   1.942   1.137   0.181
13762TIP3   OH262700   6.183   0.595  12.048
13762TIP3    H162701   6.227   0.557  11.972
13762TIP3    H262702   6.251   0.598  12.116
13763TIP3   OH262703   1.203   6.667   6.435
13763TIP3    H162704   1.171   6.591   6.482
13763TIP3    H262705   1.288   6.640   6.400
13764TIP3   OH262706   4.505   2.875   4.068
13764TIP3    H162707   4.473   2.831   4.147
13764TIP3    H262708   4.548   2.955   4.101
13765TIP3   OH262709   1.676   2.627  14.533
13765TIP3    H162710   1.708   2.635  14.444
13765TIP3    H262711   1.755   2.627  14.587
13766TIP3   OH262712   4.428   6.535  10.548
13766TIP3    H162713   4.511   6.489  10.558
13766TIP3    H262714   4.389   6.498  10.468
13767TIP3   OH262715   3.925   2.649  15.588
13767TIP3    H162716   3.933   2.617  15.677
13767TIP3    H262717   3.833   2.635  15.566
13768TIP3   OH262718   3.570   2.938  14.617
13768TIP3    H162719   3.623   2.993  14.675
13768TIP3    H262720   3.561   2.855  14.665
13769TIP3   OH262721   4.798   2.917   2.654
13769TIP3    H162722   4.831   2.930   2.743
13769TIP3    H262723   4.719   2.864   2.666
13770TIP3   OH262724   1.202   6.646  14.241
13770TIP3    H162725   1.218   6.554  14.219
13770TIP3    H262726   1.172   6.643  14.332
13771TIP3   OH262727   3.968   3.202   1.378
13771TIP3    H162728   4.010   3.256   1.444
13771TIP3    H262729   4.018   3.217   1.298
13772TIP3   OH262730   2.599   5.920  12.053
13772TIP3    H162731   2.562   5.863  11.986
13772TIP3    H262732   2.529   5.983  12.073
13773TIP3   OH262733   2.198   5.221   2.507
13773TIP3    H162734   2.229   5.282   2.574
13773TIP3    H262735   2.118   5.183   2.544
13774TIP3   OH262736   3.679   3.595   2.998
13774TIP3    H162737   3.658   3.538   2.924
13774TIP3    H262738   3.727   3.540   3.060
13775TIP3   OH262739   4.313   5.472   2.114
13775TIP3    H162740   4.403   5.474   2.148
13775TIP3    H262741   4.288   5.380   2.120
13776TIP3   OH262742   4.463   3.066  12.895
13776TIP3    H162743   4.477   3.125  12.969
13776TIP3    H262744   4.369   3.074  12.875
13777TIP3   OH262745   3.289   3.530  12.119
13777TIP3    H162746   3.319   3.598  12.178
13777TIP3    H262747   3.361   3.466  12.117
13778TIP3   OH262748   1.005   5.043   3.383
13778TIP3    H162749   1.033   5.127   3.347
13778TIP3    H262750   1.077   5.016   3.441
13779TIP3   OH262751   3.745   1.341  13.758
13779TIP3    H162752   3.815   1.380  13.705
13779TIP3    H262753   3.677   1.408  13.762
13780TIP3   OH262754   1.104   4.058   1.774
13780TIP3    H162755   1.112   4.152   1.786
13780TIP3    H262756   1.155   4.020   1.846
13781TIP3   OH262757   0.263   1.180  15.337
13781TIP3    H162758   0.271   1.274  15.353
13781TIP3    H262759   0.173   1.169  15.306
13782TIP3   OH262760   2.982   4.028  14.600
13782TIP3    H162761   2.977   4.117  14.633
13782TIP3    H262762   3.028   3.979  14.669
13783TIP3   OH262763   6.709   2.829   5.488
13783TIP3    H162764   6.737   2.739   5.505
13783TIP3    H262765   6.789   2.881   5.501
13784TIP3   OH262766   2.241   3.934   1.362
13784TIP3    H162767   2.329   3.964   1.386
13784TIP3    H262768   2.251   3.901   1.272
13785TIP3   OH262769   5.380   0.426  15.720
13785TIP3    H162770   5.440   0.383  15.781
13785TIP3    H262771   5.326   0.482  15.775
13786TIP3   OH262772   3.828   1.270   1.080
13786TIP3    H162773   3.903   1.308   1.034
13786TIP3    H262774   3.760   1.261   1.013
13787TIP3   OH262775   2.240   1.323  16.617
13787TIP3    H162776   2.146   1.316  16.634
13787TIP3    H262777   2.245   1.367  16.532
13788TIP3   OH262778   1.464   3.296   2.162
13788TIP3    H162779   1.370   3.288   2.176
13788TIP3    H262780   1.484   3.387   2.183
13789TIP3   OH262781   2.960   1.033   2.879
13789TIP3    H162782   3.002   0.958   2.920
13789TIP3    H262783   2.868   1.025   2.904
13790TIP3   OH262784   4.145   3.129  12.977
13790TIP3    H162785   4.082   3.064  12.946
13790TIP3    H262786   4.168   3.179  12.899
13791TIP3   OH262787   4.177   2.312   0.464
13791TIP3    H162788   4.199   2.220   0.448
13791TIP3    H262789   4.251   2.361   0.429
13792TIP3   OH262790   2.145   1.232   0.788
13792TIP3    H162791   2.125   1.150   0.832
13792TIP3    H262792   2.063   1.258   0.746
13793TIP3   OH262793   6.563   4.399   4.849
13793TIP3    H162794   6.527   4.417   4.936
13793TIP3    H262795   6.638   4.459   4.842
13794TIP3   OH262796   6.399   0.170   3.230
13794TIP3    H162797   6.307   0.177   3.255
13794TIP3    H262798   6.409   0.230   3.157
13795TIP3   OH262799   2.642   5.783   4.468
13795TIP3    H162800   2.691   5.801   4.548
13795TIP3    H262801   2.564   5.737   4.496
13796TIP3   OH262802   6.155   6.534   4.030
13796TIP3    H162803   6.220   6.602   4.013
13796TIP3    H262804   6.192   6.455   3.990
13797TIP3   OH262805   3.977   1.514  11.959
13797TIP3    H162806   4.029   1.583  11.918
13797TIP3    H262807   3.887   1.535  11.935
13798TIP3   OH262808   1.659   5.001  11.741
13798TIP3    H162809   1.678   5.080  11.690
13798TIP3    H262810   1.592   5.028  11.804
13799TIP3   OH262811   3.030   3.716   0.444
13799TIP3    H162812   3.123   3.692   0.451
13799TIP3    H262813   2.989   3.674   0.520
13800TIP3   OH262814   2.643   2.557   1.133
13800TIP3    H162815   2.560   2.605   1.131
13800TIP3    H262816   2.635   2.492   1.063
13801TIP3   OH262817   1.043   0.980   1.978
13801TIP3    H162818   1.014   0.932   2.056
13801TIP3    H262819   0.965   0.984   1.922
13802TIP3   OH262820   4.823   4.334   2.500
13802TIP3    H162821   4.835   4.268   2.432
13802TIP3    H262822   4.909   4.374   2.510
13803TIP3   OH262823   3.946   5.498   6.454
13803TIP3    H162824   4.004   5.574   6.464
13803TIP3    H262825   3.867   5.523   6.503
13804TIP3   OH262826   3.964   3.686  16.929
13804TIP3    H162827   4.018   3.609  16.944
13804TIP3    H262828   4.008   3.733  16.858
13805TIP3   OH262829   2.966   0.115   3.378
13805TIP3    H162830   2.875   0.094   3.401
13805TIP3    H262831   2.959   0.195   3.326
13806TIP3   OH262832   0.148   0.186  15.084
13806TIP3    H162833   0.076   0.188  15.148
13806TIP3    H262834   0.104   0.189  14.999
13807TIP3   OH262835   1.005   4.921  12.608
13807TIP3    H162836   0.928   4.870  12.583
13807TIP3    H262837   1.078   4.860  12.599
13808TIP3   OH262838   1.444   5.416  12.778
13808TIP3    H162839   1.459   5.323  12.797
13808TIP3    H262840   1.410   5.416  12.688
13809TIP3   OH262841   1.569   5.101   5.290
13809TIP3    H162842   1.494   5.131   5.239
13809TIP3    H262843   1.544   5.013   5.320
13810TIP3   OH262844   1.367   6.205  16.379
13810TIP3    H162845   1.305   6.249  16.320
13810TIP3    H262846   1.453   6.236  16.351
13811TIP3   OH262847   6.590   5.896  14.249
13811TIP3    H162848   6.588   5.803  14.272
13811TIP3    H262849   6.672   5.928  14.286
13812TIP3   OH262850   6.349   2.394  13.554
13812TIP3    H162851   6.342   2.453  13.479
13812TIP3    H262852   6.389   2.315  13.518
13813TIP3   OH262853   5.292   5.549  11.008
13813TIP3    H162854   5.305   5.559  10.914
13813TIP3    H262855   5.306   5.637  11.044
13814TIP3   OH262856   1.355   3.892   6.124
13814TIP3    H162857   1.326   3.945   6.198
13814TIP3    H262858   1.346   3.801   6.155
13815TIP3   OH262859   1.499   1.714   3.173
13815TIP3    H162860   1.461   1.694   3.087
13815TIP3    H262861   1.558   1.641   3.190
13816TIP3   OH262862   2.298   2.323  13.664
13816TIP3    H162863   2.234   2.390  13.687
13816TIP3    H262864   2.282   2.304  13.572
13817TIP3   OH262865   3.566   2.199   1.115
13817TIP3    H162866   3.652   2.206   1.073
13817TIP3    H262867   3.511   2.156   1.049
13818TIP3   OH262868   2.025   1.547  12.555
13818TIP3    H162869   1.957   1.588  12.501
13818TIP3    H262870   2.013   1.453  12.542
13819TIP3   OH262871   4.215   3.352   3.082
13819TIP3    H162872   4.171   3.316   3.159
13819TIP3    H262873   4.187   3.296   3.010
13820TIP3   OH262874   5.723   4.229  14.795
13820TIP3    H162875   5.712   4.253  14.888
13820TIP3    H262876   5.813   4.255  14.775
13821TIP3   OH262877   5.716   1.074   1.963
13821TIP3    H162878   5.791   1.015   1.973
13821TIP3    H262879   5.651   1.039   2.024
13822TIP3   OH262880   1.347   2.268   0.803
13822TIP3    H162881   1.310   2.283   0.716
13822TIP3    H262882   1.277   2.294   0.863
13823TIP3   OH262883   3.508   4.078   4.535
13823TIP3    H162884   3.472   4.125   4.609
13823TIP3    H262885   3.494   4.136   4.460
13824TIP3   OH262886   1.591   3.994   4.334
13824TIP3    H162887   1.496   3.982   4.323
13824TIP3    H262888   1.628   3.907   4.323
13825TIP3   OH262889   3.479   4.513  15.386
13825TIP3    H162890   3.541   4.440  15.384
13825TIP3    H262891   3.484   4.550  15.298
13826TIP3   OH262892   0.892   5.944  12.835
13826TIP3    H162893   0.913   6.036  12.823
13826TIP3    H262894   0.958   5.897  12.784
13827TIP3   OH262895   2.127   2.047  17.151
13827TIP3    H162896   2.077   1.970  17.180
13827TIP3    H262897   2.192   2.061  17.220
13828TIP3   OH262898   4.223   5.736   3.791
13828TIP3    H162899   4.134   5.710   3.811
13828TIP3    H262900   4.225   5.744   3.696
13829TIP3   OH262901   3.914   2.095  13.194
13829TIP3    H162902   3.953   2.043  13.124
13829TIP3    H262903   3.989   2.139  13.236
13830TIP3   OH262904   3.306   1.673  14.599
13830TIP3    H162905   3.389   1.683  14.554
13830TIP3    H262906   3.313   1.591  14.647
13831TIP3   OH262907   1.180   0.373   3.632
13831TIP3    H162908   1.187   0.370   3.537
13831TIP3    H262909   1.124   0.448   3.651
13832TIP3   OH262910   4.277   4.204   4.050
13832TIP3    H162911   4.268   4.110   4.064
13832TIP3    H262912   4.189   4.238   4.062
13833TIP3   OH262913   1.261   2.608  12.661
13833TIP3    H162914   1.265   2.566  12.747
13833TIP3    H262915   1.221   2.542  12.604
13834TIP3   OH262916   5.761   5.064  11.719
13834TIP3    H162917   5.745   4.970  11.711
13834TIP3    H262918   5.856   5.072  11.729
13835TIP3   OH262919   0.620   5.460   2.978
13835TIP3    H162920   0.528   5.472   3.000
13835TIP3    H262921   0.667   5.498   3.052
13836TIP3   OH262922   2.232   0.272  14.675
13836TIP3    H162923   2.225   0.318  14.759
13836TIP3    H262924   2.312   0.307  14.636
13837TIP3   OH262925   0.819   1.432  16.849
13837TIP3    H162926   0.880   1.392  16.912
13837TIP3    H262927   0.875   1.460  16.776
13838TIP3   OH262928   6.554   4.256  14.933
13838TIP3    H162929   6.624   4.196  14.906
13838TIP3    H262930   6.513   4.212  15.007
13839TIP3   OH262931   0.050   3.231  16.605
13839TIP3    H162932  -0.010   3.156  16.612
13839TIP3    H262933   0.004   3.292  16.548
13840TIP3   OH262934   0.307   5.333   6.292
13840TIP3    H162935   0.324   5.357   6.201
13840TIP3    H262936   0.298   5.237   6.290
13841TIP3   OH262937   6.270   2.502   0.961
13841TIP3    H162938   6.272   2.406   0.961
13841TIP3    H262939   6.281   2.525   1.053
13842TIP3   OH262940   2.616   0.059   1.845
13842TIP3    H162941   2.638   0.079   1.754
13842TIP3    H262942   2.626  -0.036   1.852
13843TIP3   OH262943   2.875   1.474   4.077
13843TIP3    H162944   2.873   1.422   4.156
13843TIP3    H262945   2.784   1.478   4.047
13844TIP3   OH262946   6.085   2.723  14.440
13844TIP3    H162947   6.048   2.680  14.517
13844TIP3    H262948   6.134   2.797  14.476
13845TIP3   OH262949   6.598   2.760  10.931
13845TIP3    H162950   6.558   2.789  11.013
13845TIP3    H262951   6.580   2.832  10.870
13846TIP3   OH262952   3.993   5.649   5.348
13846TIP3    H162953   3.983   5.704   5.426
13846TIP3    H262954   3.911   5.599   5.343
13847TIP3   OH262955   1.453   1.153   3.055
13847TIP3    H162956   1.412   1.164   2.970
13847TIP3    H262957   1.416   1.072   3.090
13848TIP3   OH262958   2.635   3.348   2.038
13848TIP3    H162959   2.723   3.318   2.014
13848TIP3    H262960   2.637   3.355   2.133
13849TIP3   OH262961   0.105   2.715   4.478
13849TIP3    H162962   0.106   2.639   4.420
13849TIP3    H262963   0.198   2.737   4.489
13850TIP3   OH262964   6.277   5.076  16.069
13850TIP3    H162965   6.322   4.993  16.076
13850TIP3    H262966   6.326   5.136  16.125
13851TIP3   OH262967   3.507   5.683   4.284
13851TIP3    H162968   3.568   5.746   4.323
13851TIP3    H262969   3.533   5.599   4.320
13852TIP3   OH262970   1.004   4.692   2.381
13852TIP3    H162971   1.018   4.617   2.439
13852TIP3    H262972   1.063   4.760   2.414
13853TIP3   OH262973   5.297   6.641  16.128
13853TIP3    H162974   5.282   6.614  16.037
13853TIP3    H262975   5.357   6.575  16.162
13854TIP3   OH262976   1.545   3.571  15.135
13854TIP3    H162977   1.546   3.520  15.055
13854TIP3    H262978   1.585   3.514  15.201
13855TIP3   OH262979   5.877   5.884   0.599
13855TIP3    H162980   5.847   5.912   0.685
13855TIP3    H262981   5.841   5.949   0.538
13856TIP3   OH262982   1.836   6.321   1.281
13856TIP3    H162983   1.811   6.314   1.373
13856TIP3    H262984   1.767   6.274   1.234
13857TIP3   OH262985   0.489   6.365   3.384
13857TIP3    H162986   0.581   6.377   3.407
13857TIP3    H262987   0.459   6.293   3.440
13858TIP3   OH262988   4.405   4.085   0.240
13858TIP3    H162989   4.480   4.115   0.190
13858TIP3    H262990   4.419   4.119   0.328
13859TIP3   OH262991   4.206   1.968  13.650
13859TIP3    H162992   4.243   1.880  13.641
13859TIP3    H262993   4.281   2.023  13.670
13860TIP3   OH262994   5.797   1.111   5.526
13860TIP3    H162995   5.752   1.043   5.576
13860TIP3    H262996   5.877   1.130   5.576
13861TIP3   OH262997   0.189   4.558  13.334
13861TIP3    H162998   0.235   4.564  13.418
13861TIP3    H262999   0.104   4.599  13.349
13862TIP3   OH263000   5.603   5.495  13.980
13862TIP3    H163001   5.535   5.438  14.015
13862TIP3    H263002   5.628   5.551  14.054
13863TIP3   OH263003   4.257   2.027  14.923
13863TIP3    H163004   4.208   2.100  14.886
13863TIP3    H263005   4.321   2.004  14.857
13864TIP3   OH263006   5.620   5.110  12.034
13864TIP3    H163007   5.680   5.119  12.107
13864TIP3    H263008   5.656   5.040  11.980
13865TIP3   OH263009   0.546   6.642  14.070
13865TIP3    H163010   0.532   6.595  14.153
13865TIP3    H263011   0.474   6.705  14.066
13866TIP3   OH263012   2.768   3.245  11.188
13866TIP3    H163013   2.836   3.287  11.240
13866TIP3    H263014   2.760   3.157  11.225
13867TIP3   OH263015   0.459   3.925  16.265
13867TIP3    H163016   0.416   3.843  16.239
13867TIP3    H263017   0.540   3.897  16.307
13868TIP3   OH263018   5.608   4.542  13.492
13868TIP3    H163019   5.680   4.603  13.474
13868TIP3    H263020   5.640   4.489  13.566
13869TIP3   OH263021   3.172   6.427   5.200
13869TIP3    H163022   3.218   6.481   5.265
13869TIP3    H263023   3.079   6.437   5.223
13870TIP3   OH263024   0.355   2.171  15.479
13870TIP3    H163025   0.304   2.244  15.443
13870TIP3    H263026   0.409   2.142  15.405
13871TIP3   OH263027   6.575   1.535   3.455
13871TIP3    H163028   6.514   1.559   3.524
13871TIP3    H263029   6.546   1.449   3.425
13872TIP3   OH263030   5.702   2.901  16.667
13872TIP3    H163031   5.784   2.873  16.626
13872TIP3    H263032   5.674   2.977  16.617
13873TIP3   OH263033   5.164   0.419   3.580
13873TIP3    H163034   5.070   0.411   3.600
13873TIP3    H263035   5.169   0.402   3.486
13874TIP3   OH263036   3.025   4.428   3.056
13874TIP3    H163037   3.113   4.407   3.026
13874TIP3    H263038   3.001   4.357   3.115
13875TIP3   OH263039   3.073   4.896  12.507
13875TIP3    H163040   2.980   4.897  12.486
13875TIP3    H263041   3.077   4.893  12.603
13876TIP3   OH263042   4.291   0.772  14.982
13876TIP3    H163043   4.253   0.860  14.976
13876TIP3    H263044   4.287   0.750  15.075
13877TIP3   OH263045   3.679   5.161  15.164
13877TIP3    H163046   3.632   5.227  15.214
13877TIP3    H263047   3.715   5.102  15.229
13878TIP3   OH263048   1.569   6.446  13.280
13878TIP3    H163049   1.513   6.448  13.357
13878TIP3    H263050   1.586   6.353  13.264
13879TIP3   OH263051   3.970   0.007  11.438
13879TIP3    H163052   3.971  -0.063  11.372
13879TIP3    H263053   3.988  -0.037  11.521
13880TIP3   OH263054   4.531   1.576  13.037
13880TIP3    H163055   4.568   1.527  13.110
13880TIP3    H263056   4.457   1.624  13.075
13881TIP3   OH263057   0.457   3.956  11.658
13881TIP3    H163058   0.526   3.992  11.601
13881TIP3    H263059   0.376   3.969  11.610
13882TIP3   OH263060   1.618   0.435   1.318
13882TIP3    H163061   1.564   0.439   1.397
13882TIP3    H263062   1.628   0.342   1.300
13883TIP3   OH263063   4.114   0.599  14.858
13883TIP3    H163064   4.191   0.650  14.884
13883TIP3    H263065   4.039   0.654  14.884
13884TIP3   OH263066   1.830   4.669   2.544
13884TIP3    H163067   1.753   4.689   2.598
13884TIP3    H263068   1.821   4.726   2.467
13885TIP3   OH263069   1.750   0.918   3.258
13885TIP3    H163070   1.718   1.008   3.253
13885TIP3    H263071   1.699   0.871   3.191
13886TIP3   OH263072   4.919   2.689   5.720
13886TIP3    H163073   4.834   2.677   5.677
13886TIP3    H263074   4.939   2.782   5.707
13887TIP3   OH263075   1.406   6.676  15.494
13887TIP3    H163076   1.328   6.724  15.523
13887TIP3    H263077   1.409   6.691  15.399
13888TIP3   OH263078   1.996   6.746  15.786
13888TIP3    H163079   2.037   6.780  15.866
13888TIP3    H263080   1.993   6.822  15.727
13889TIP3   OH263081   5.669   2.253  14.527
13889TIP3    H163082   5.708   2.165  14.532
13889TIP3    H263083   5.744   2.312  14.525
13890TIP3   OH263084   1.793   1.775  16.815
13890TIP3    H163085   1.815   1.868  16.823
13890TIP3    H263086   1.762   1.750  16.902
13891TIP3   OH263087   2.516   3.062  15.386
13891TIP3    H163088   2.482   2.985  15.433
13891TIP3    H263089   2.518   3.131  15.452
13892TIP3   OH263090   2.097   5.692   2.466
13892TIP3    H163091   2.166   5.709   2.401
13892TIP3    H263092   2.105   5.764   2.529
13893TIP3   OH263093   0.244   0.305   6.047
13893TIP3    H163094   0.226   0.372   6.113
13893TIP3    H263095   0.326   0.332   6.006
13894TIP3   OH263096   6.780   5.187  13.031
13894TIP3    H163097   6.873   5.165  13.022
13894TIP3    H263098   6.754   5.217  12.944
13895TIP3   OH263099   5.729   5.722  14.394
13895TIP3    H163100   5.796   5.788  14.413
13895TIP3    H263101   5.650   5.755  14.436
13896TIP3   OH263102   0.633   0.022   5.288
13896TIP3    H163103   0.608   0.105   5.327
13896TIP3    H263104   0.666   0.045   5.201
13897TIP3   OH263105   0.983   3.247  15.938
13897TIP3    H163106   0.955   3.222  15.850
13897TIP3    H263107   0.910   3.222  15.994
13898TIP3   OH263108   4.377   4.650   6.099
13898TIP3    H163109   4.341   4.634   6.186
13898TIP3    H263110   4.468   4.623   6.105
13899TIP3   OH263111   3.745   3.531   0.144
13899TIP3    H163112   3.793   3.453   0.113
13899TIP3    H263113   3.724   3.579   0.065
13900TIP3   OH263114   6.714   4.195   0.992
13900TIP3    H163115   6.723   4.265   0.927
13900TIP3    H263116   6.804   4.176   1.019
13901TIP3   OH263117   4.175   5.429   2.427
13901TIP3    H163118   4.137   5.490   2.363
13901TIP3    H263119   4.149   5.343   2.395
13902TIP3   OH263120   3.216   2.905   1.445
13902TIP3    H163121   3.187   2.819   1.477
13902TIP3    H263122   3.148   2.932   1.384
13903TIP3   OH263123   3.879   0.079   3.212
13903TIP3    H163124   3.887   0.051   3.121
13903TIP3    H263125   3.967   0.066   3.248
13904TIP3   OH263126   2.582   3.448  12.784
13904TIP3    H163127   2.540   3.363  12.772
13904TIP3    H263128   2.522   3.510  12.743
13905TIP3   OH263129   3.435   5.393   5.675
13905TIP3    H163130   3.505   5.360   5.732
13905TIP3    H263131   3.466   5.374   5.586
13906TIP3   OH263132   6.056   5.709  16.925
13906TIP3    H163133   6.149   5.693  16.940
13906TIP3    H263134   6.055   5.780  16.860
13907TIP3   OH263135   1.888   4.277   1.005
13907TIP3    H163136   1.886   4.321   1.090
13907TIP3    H263137   1.982   4.269   0.985
13908TIP3   OH263138   5.347   4.513  15.517
13908TIP3    H163139   5.287   4.459  15.465
13908TIP3    H263140   5.429   4.464  15.516
13909TIP3   OH263141   5.761   5.142  13.640
13909TIP3    H163142   5.844   5.182  13.666
13909TIP3    H263143   5.787   5.063  13.592
13910TIP3   OH263144   4.033   4.622   6.242
13910TIP3    H163145   4.111   4.567   6.236
13910TIP3    H263146   4.042   4.685   6.170
13911TIP3   OH263147   2.118   3.959   5.695
13911TIP3    H163148   2.156   3.998   5.774
13911TIP3    H263149   2.033   3.924   5.723
13912TIP3   OH263150   6.587   3.488  11.003
13912TIP3    H163151   6.639   3.501  10.923
13912TIP3    H263152   6.530   3.414  10.982
13913TIP3   OH263153   6.098   4.804   2.258
13913TIP3    H163154   6.187   4.775   2.277
13913TIP3    H263155   6.105   4.856   2.178
13914TIP3   OH263156   4.985   0.725   1.695
13914TIP3    H163157   4.907   0.770   1.661
13914TIP3    H263158   5.058   0.782   1.671
13915TIP3   OH263159   3.024   5.271  16.634
13915TIP3    H163160   3.074   5.351  16.621
13915TIP3    H263161   3.089   5.201  16.634
13916TIP3   OH263162   3.450   2.410   2.125
13916TIP3    H163163   3.531   2.459   2.131
13916TIP3    H263164   3.469   2.326   2.169
13917TIP3   OH263165   3.098   6.071   1.533
13917TIP3    H163166   3.071   6.075   1.441
13917TIP3    H263167   3.181   6.022   1.531
13918TIP3   OH263168   1.562   2.622  10.990
13918TIP3    H163169   1.579   2.536  10.950
13918TIP3    H263170   1.521   2.673  10.920
13919TIP3   OH263171   0.217   1.059   4.746
13919TIP3    H163172   0.147   1.007   4.785
13919TIP3    H263173   0.232   1.020   4.660
13920TIP3   OH263174   5.935   0.792  16.330
13920TIP3    H163175   5.959   0.699  16.330
13920TIP3    H263176   5.858   0.796  16.387
13921TIP3   OH263177   4.316   2.914   0.593
13921TIP3    H163178   4.248   2.974   0.624
13921TIP3    H263179   4.364   2.964   0.527
13922TIP3   OH263180   1.100   4.554  11.749
13922TIP3    H163181   1.138   4.537  11.663
13922TIP3    H263182   1.050   4.635  11.737
13923TIP3   OH263183   6.459   2.982   3.079
13923TIP3    H163184   6.441   2.893   3.050
13923TIP3    H263185   6.376   3.028   3.069
13924TIP3   OH263186   0.536   6.186   0.095
13924TIP3    H163187   0.458   6.222   0.053
13924TIP3    H263188   0.502   6.121   0.156
13925TIP3   OH263189   6.214   5.332  13.207
13925TIP3    H163190   6.208   5.426  13.226
13925TIP3    H263191   6.221   5.291  13.293
13926TIP3   OH263192   1.932   2.209   4.952
13926TIP3    H163193   1.943   2.263   4.874
13926TIP3    H263194   1.992   2.136   4.939
13927TIP3   OH263195   3.759   6.657   5.103
13927TIP3    H163196   3.739   6.750   5.111
13927TIP3    H263197   3.852   6.655   5.077
13928TIP3   OH263198   0.772   2.482   5.231
13928TIP3    H163199   0.848   2.425   5.231
13928TIP3    H263200   0.721   2.455   5.308
13929TIP3   OH263201   3.667   5.448   4.779
13929TIP3    H163202   3.645   5.538   4.754
13929TIP3    H263203   3.587   5.398   4.760
13930TIP3   OH263204   4.942   5.793   0.456
13930TIP3    H163205   4.958   5.715   0.510
13930TIP3    H263206   5.028   5.813   0.418
13931TIP3   OH263207   3.234   3.087  13.288
13931TIP3    H163208   3.330   3.085  13.288
13931TIP3    H263209   3.213   3.172  13.250
13932TIP3   OH263210   1.608   3.638   4.940
13932TIP3    H163211   1.670   3.574   4.974
13932TIP3    H263212   1.599   3.703   5.010
13933TIP3   OH263213   0.454   2.831   2.281
13933TIP3    H163214   0.371   2.871   2.304
13933TIP3    H263215   0.516   2.904   2.280
13934TIP3   OH263216   1.156   3.156   1.147
13934TIP3    H163217   1.160   3.114   1.061
13934TIP3    H263218   1.244   3.145   1.183
13935TIP3   OH263219   3.046   6.689  16.450
13935TIP3    H163220   2.987   6.724  16.517
13935TIP3    H263221   3.044   6.594  16.463
13936TIP3   OH263222   0.902   6.730  15.975
13936TIP3    H163223   0.976   6.670  15.986
13936TIP3    H263224   0.901   6.781  16.056
13937TIP3   OH263225   4.722   2.977  15.233
13937TIP3    H163226   4.682   3.064  15.245
13937TIP3    H263227   4.728   2.941  15.322
13938TIP3   OH263228   1.919   1.050   6.250
13938TIP3    H163229   1.996   1.076   6.301
13938TIP3    H263230   1.846   1.094   6.293
13939TIP3   OH263231   2.503   4.876   5.705
13939TIP3    H163232   2.557   4.953   5.719
13939TIP3    H263233   2.413   4.909   5.702
13940TIP3   OH263234   4.356   0.702   2.297
13940TIP3    H163235   4.379   0.688   2.388
13940TIP3    H263236   4.333   0.795   2.292
13941TIP3   OH263237   4.452   0.389   3.160
13941TIP3    H163238   4.392   0.363   3.090
13941TIP3    H263239   4.518   0.320   3.161
13942TIP3   OH263240   5.390   4.193   5.405
13942TIP3    H163241   5.473   4.214   5.448
13942TIP3    H263242   5.396   4.235   5.319
13943TIP3   OH263243   3.122   5.962  16.908
13943TIP3    H163244   3.063   5.933  16.978
13943TIP3    H263245   3.147   6.050  16.933
13944TIP3   OH263246   2.271   1.533  15.148
13944TIP3    H163247   2.325   1.536  15.227
13944TIP3    H263248   2.200   1.473  15.171
13945TIP3   OH263249   1.777   5.953   0.616
13945TIP3    H163250   1.810   5.885   0.674
13945TIP3    H263251   1.704   5.912   0.570
13946TIP3   OH263252   1.872   4.548  13.667
13946TIP3    H163253   1.786   4.582  13.691
13946TIP3    H263254   1.930   4.623  13.671
13947TIP3   OH263255   6.203   1.511  15.765
13947TIP3    H163256   6.118   1.473  15.740
13947TIP3    H263257   6.181   1.599  15.797
13948TIP3   OH263258   5.058   5.104   2.815
13948TIP3    H163259   5.090   5.089   2.904
13948TIP3    H263260   5.134   5.137   2.767
13949TIP3   OH263261   0.454   6.303  16.741
13949TIP3    H163262   0.425   6.332  16.827
13949TIP3    H263263   0.447   6.381  16.686
13950TIP3   OH263264   5.959   0.566  10.742
13950TIP3    H163265   5.919   0.483  10.714
13950TIP3    H263266   5.998   0.601  10.662
13951TIP3   OH263267   3.665   2.555  15.465
13951TIP3    H163268   3.578   2.571  15.501
13951TIP3    H263269   3.656   2.575  15.371
13952TIP3   OH263270   4.794   4.706   3.491
13952TIP3    H163271   4.846   4.683   3.568
13952TIP3    H263272   4.841   4.664   3.418
13953TIP3   OH263273   1.293   5.640  13.815
13953TIP3    H163274   1.203   5.643  13.848
13953TIP3    H263275   1.284   5.645  13.720
13954TIP3   OH263276   1.316   3.893  13.302
13954TIP3    H163277   1.373   3.828  13.261
13954TIP3    H263278   1.305   3.961  13.236
13955TIP3   OH263279   1.215   6.196  13.217
13955TIP3    H163280   1.155   6.129  13.186
13955TIP3    H263281   1.300   6.170  13.183
13956TIP3   OH263282   4.036   4.444  14.623
13956TIP3    H163283   4.072   4.503  14.558
13956TIP3    H263284   4.043   4.491  14.706
13957TIP3   OH263285   3.939   0.653   2.440
13957TIP3    H163286   3.950   0.724   2.376
13957TIP3    H263287   3.928   0.697   2.524
13958TIP3   OH263288   0.654   1.807   2.197
13958TIP3    H163289   0.666   1.790   2.104
13958TIP3    H263290   0.739   1.787   2.237
13959TIP3   OH263291   1.997   3.654  14.593
13959TIP3    H163292   1.973   3.746  14.602
13959TIP3    H263293   1.927   3.616  14.540
13960TIP3   OH263294   0.169   3.185  14.869
13960TIP3    H163295   0.104   3.255  14.873
13960TIP3    H263296   0.148   3.137  14.789
13961TIP3   OH263297   6.093   1.823   4.913
13961TIP3    H163298   6.070   1.731   4.921
13961TIP3    H263299   6.143   1.828   4.831
13962TIP3   OH263300   4.656   2.886   4.881
13962TIP3    H163301   4.669   2.972   4.842
13962TIP3    H263302   4.617   2.833   4.811
13963TIP3   OH263303   3.580   3.073   1.497
13963TIP3    H163304   3.506   3.045   1.551
13963TIP3    H263305   3.608   2.993   1.452
13964TIP3   OH263306   4.287   6.269  12.642
13964TIP3    H163307   4.365   6.244  12.592
13964TIP3    H263308   4.321   6.316  12.718
13965TIP3   OH263309   1.379   3.995  16.716
13965TIP3    H163310   1.392   3.967  16.807
13965TIP3    H263311   1.461   3.973  16.672
13966TIP3   OH263312   4.112   3.842  15.606
13966TIP3    H163313   4.178   3.775  15.624
13966TIP3    H263314   4.159   3.909  15.556
13967TIP3   OH263315   1.197   5.794   5.234
13967TIP3    H163316   1.146   5.725   5.191
13967TIP3    H263317   1.227   5.755   5.315
13968TIP3   OH263318   0.548   0.814   5.522
13968TIP3    H163319   0.478   0.771   5.474
13968TIP3    H263320   0.511   0.832   5.609
13969TIP3   OH263321   5.641   3.681   1.454
13969TIP3    H163322   5.619   3.773   1.442
13969TIP3    H263323   5.675   3.654   1.368
13970TIP3   OH263324   0.260   5.772  15.764
13970TIP3    H163325   0.344   5.794  15.725
13970TIP3    H263326   0.280   5.751  15.855
13971TIP3   OH263327   1.318   2.935   6.086
13971TIP3    H163328   1.312   2.911   6.179
13971TIP3    H263329   1.375   2.868   6.048
13972TIP3   OH263330   5.153   5.156   4.713
13972TIP3    H163331   5.101   5.078   4.730
13972TIP3    H263332   5.225   5.152   4.776
13973TIP3   OH263333   4.769   4.240  16.581
13973TIP3    H163334   4.733   4.205  16.663
13973TIP3    H263335   4.806   4.164  16.537
13974TIP3   OH263336   2.130   3.253  13.071
13974TIP3    H163337   2.221   3.249  13.098
13974TIP3    H263338   2.126   3.325  13.008
13975TIP3   OH263339   0.336   2.515   1.861
13975TIP3    H163340   0.424   2.495   1.894
13975TIP3    H263341   0.311   2.595   1.906
13976TIP3   OH263342   5.640   2.270   5.048
13976TIP3    H163343   5.681   2.226   5.122
13976TIP3    H263344   5.655   2.364   5.064
13977TIP3   OH263345   2.038   6.428   6.183
13977TIP3    H163346   2.071   6.479   6.256
13977TIP3    H263347   1.949   6.461   6.168
13978TIP3   OH263348   1.898   2.618  14.711
13978TIP3    H163349   1.945   2.545  14.672
13978TIP3    H263350   1.945   2.637  14.793
13979TIP3   OH263351   3.286   6.545   2.296
13979TIP3    H163352   3.233   6.484   2.349
13979TIP3    H263353   3.313   6.494   2.221
13980TIP3   OH263354   3.139   4.952   4.173
13980TIP3    H163355   3.119   4.937   4.266
13980TIP3    H263356   3.231   4.978   4.172
13981TIP3   OH263357   2.464   6.265   5.241
13981TIP3    H163358   2.518   6.189   5.262
13981TIP3    H263359   2.423   6.243   5.158
13982TIP3   OH263360   1.580   6.184   3.149
13982TIP3    H163361   1.536   6.255   3.103
13982TIP3    H263362   1.669   6.216   3.166
13983TIP3   OH263363   1.537   1.521   6.695
13983TIP3    H163364   1.614   1.568   6.727
13983TIP3    H263365   1.573   1.444   6.650
13984TIP3   OH263366   5.542   2.873   3.053
13984TIP3    H163367   5.458   2.918   3.038
13984TIP3    H263368   5.517   2.788   3.091
13985TIP3   OH263369   5.774   0.866   5.983
13985TIP3    H163370   5.716   0.938   5.957
13985TIP3    H263371   5.740   0.790   5.938
13986TIP3   OH263372   0.728   3.631  11.555
13986TIP3    H163373   0.824   3.629  11.553
13986TIP3    H263374   0.704   3.686  11.481
13987TIP3   OH263375   0.826   3.784   2.413
13987TIP3    H163376   0.780   3.722   2.356
13987TIP3    H263377   0.764   3.803   2.483
13988TIP3   OH263378   3.761   6.718   2.210
13988TIP3    H163379   3.780   6.804   2.249
13988TIP3    H263380   3.671   6.699   2.237
13989TIP3   OH263381   4.253   1.580   5.672
13989TIP3    H163382   4.241   1.629   5.590
13989TIP3    H263383   4.246   1.488   5.646
13990TIP3   OH263384   3.291   5.005   6.215
13990TIP3    H163385   3.225   5.047   6.271
13990TIP3    H263386   3.337   4.945   6.273
13991TIP3   OH263387   4.244   0.172  11.267
13991TIP3    H163388   4.282   0.214  11.189
13991TIP3    H263389   4.305   0.193  11.337
13992TIP3   OH263390   3.893   2.976  12.226
13992TIP3    H163391   3.952   3.046  12.198
13992TIP3    H263392   3.826   3.020  12.277
13993TIP3   OH263393   3.518   0.108  10.389
13993TIP3    H163394   3.605   0.122  10.352
13993TIP3    H263395   3.471   0.190  10.373
13994TIP3   OH263396   1.449   1.003   1.662
13994TIP3    H163397   1.505   0.942   1.710
13994TIP3    H263398   1.510   1.068   1.626
13995TIP3   OH263399   0.645   0.819  12.690
13995TIP3    H163400   0.551   0.830  12.702
13995TIP3    H263401   0.684   0.892  12.738
13996TIP3   OH263402   5.387   5.706  12.515
13996TIP3    H163403   5.360   5.688  12.425
13996TIP3    H263404   5.385   5.621  12.558
13997TIP3   OH263405   3.757   1.424  11.324
13997TIP3    H163406   3.725   1.412  11.413
13997TIP3    H263407   3.822   1.494  11.331
13998TIP3   OH263408   5.559   3.942  15.962
13998TIP3    H163409   5.542   3.855  16.000
13998TIP3    H263410   5.652   3.957  15.980
13999TIP3   OH263411   4.028   1.561  11.226
13999TIP3    H163412   4.053   1.470  11.210
13999TIP3    H263413   4.111   1.607  11.239
14000TIP3   OH263414   1.396   6.364  11.540
14000TIP3    H163415   1.443   6.421  11.479
14000TIP3    H263416   1.341   6.309  11.484
14001TIP3   OH263417   4.662   4.592   0.189
14001TIP3    H163418   4.719   4.567   0.262
14001TIP3    H263419   4.611   4.666   0.222
14002TIP3   OH263420   0.486   1.960   3.443
14002TIP3    H163421   0.533   2.036   3.477
14002TIP3    H263422   0.394   1.988   3.442
14003TIP3   OH263423   6.661   2.863  16.625
14003TIP3    H163424   6.711   2.924  16.571
14003TIP3    H263425   6.611   2.811  16.563
14004TIP3   OH263426   0.183   4.269   0.222
14004TIP3    H163427   0.129   4.191   0.218
14004TIP3    H263428   0.261   4.242   0.271
14005TIP3   OH263429   5.952   1.251   3.200
14005TIP3    H163430   6.047   1.264   3.192
14005TIP3    H263431   5.943   1.169   3.247
14006TIP3   OH263432   6.559   5.744   5.910
14006TIP3    H163433   6.544   5.652   5.888
14006TIP3    H263434   6.471   5.782   5.910
14007TIP3   OH263435   1.053   2.198  11.723
14007TIP3    H163436   1.090   2.272  11.676
14007TIP3    H263437   0.962   2.221  11.738
14008TIP3   OH263438   5.411   6.273  12.172
14008TIP3    H163439   5.417   6.263  12.078
14008TIP3    H263440   5.401   6.368  12.186
14009TIP3   OH263441   0.972   2.366  14.140
14009TIP3    H163442   0.910   2.294  14.142
14009TIP3    H263443   0.974   2.394  14.049
14010TIP3   OH263444   5.052   2.596  11.157
14010TIP3    H163445   5.063   2.665  11.091
14010TIP3    H263446   4.960   2.571  11.152
14011TIP3   OH263447   3.318   4.405   0.908
14011TIP3    H163448   3.359   4.488   0.929
14011TIP3    H263449   3.376   4.339   0.944
14012TIP3   OH263450   2.443   1.452   4.294
14012TIP3    H163451   2.493   1.403   4.358
14012TIP3    H263452   2.509   1.498   4.242
14013TIP3   OH263453   0.266   0.071   2.951
14013TIP3    H163454   0.322  -0.003   2.975
14013TIP3    H263455   0.209   0.037   2.882
14014TIP3   OH263456   0.103   2.812  10.992
14014TIP3    H163457   0.021   2.780  10.955
14014TIP3    H263458   0.082   2.830  11.084
14015TIP3   OH263459   3.208   4.288  13.024
14015TIP3    H163460   3.242   4.310  12.938
14015TIP3    H263461   3.133   4.346  13.036
14016TIP3   OH263462   4.273   5.290   1.449
14016TIP3    H163463   4.220   5.320   1.376
14016TIP3    H263464   4.278   5.365   1.508
14017TIP3   OH263465   3.191   0.773  11.944
14017TIP3    H163466   3.251   0.845  11.924
14017TIP3    H263467   3.246   0.705  11.982
14018TIP3   OH263468   4.936   4.216  11.806
14018TIP3    H163469   4.860   4.198  11.751
14018TIP3    H263470   4.930   4.310  11.825
14019TIP3   OH263471   0.512   2.042  15.287
14019TIP3    H163472   0.567   2.108  15.245
14019TIP3    H263473   0.470   1.996  15.215
14020TIP3   OH263474   0.076   2.039   5.917
14020TIP3    H163475   0.097   2.020   6.008
14020TIP3    H263476  -0.013   2.005   5.905
14021TIP3   OH263477   0.749   3.812  12.704
14021TIP3    H163478   0.719   3.863  12.629
14021TIP3    H263479   0.735   3.869  12.780
14022TIP3   OH263480   4.792   5.228   4.242
14022TIP3    H163481   4.798   5.294   4.172
14022TIP3    H263482   4.827   5.271   4.319
14023TIP3   OH263483   2.895   0.558   5.007
14023TIP3    H163484   2.822   0.515   5.052
14023TIP3    H263485   2.880   0.652   5.021
14024TIP3   OH263486   5.869   5.597  13.521
14024TIP3    H163487   5.823   5.513  13.516
14024TIP3    H263488   5.800   5.662  13.532
14025TIP3   OH263489   4.508   0.252  12.715
14025TIP3    H163490   4.589   0.214  12.682
14025TIP3    H263491   4.467   0.181  12.766
14026TIP3   OH263492   4.721   1.829  15.359
14026TIP3    H163493   4.724   1.746  15.313
14026TIP3    H263494   4.757   1.810  15.446
14027TIP3   OH263495   2.314   2.596   2.415
14027TIP3    H163496   2.363   2.677   2.426
14027TIP3    H263497   2.289   2.595   2.323
14028TIP3   OH263498   4.030   3.441  15.544
14028TIP3    H163499   3.998   3.396  15.467
14028TIP3    H263500   4.122   3.461  15.525
14029TIP3   OH263501   3.682   6.439  11.453
14029TIP3    H163502   3.776   6.424  11.462
14029TIP3    H263503   3.649   6.362  11.407
14030TIP3   OH263504   5.754   3.445  11.793
14030TIP3    H163505   5.796   3.423  11.709
14030TIP3    H263506   5.823   3.434  11.858
14031TIP3   OH263507   6.311   6.371   2.035
14031TIP3    H163508   6.228   6.324   2.045
14031TIP3    H263509   6.311   6.398   1.943
14032TIP3   OH263510   6.386   0.639  14.487
14032TIP3    H163511   6.428   0.556  14.509
14032TIP3    H263512   6.303   0.638  14.535
14033TIP3   OH263513   3.296   4.286   2.460
14033TIP3    H163514   3.254   4.311   2.542
14033TIP3    H263515   3.238   4.220   2.422
14034TIP3   OH263516   3.196   2.154  11.104
14034TIP3    H163517   3.274   2.166  11.049
14034TIP3    H263518   3.153   2.077  11.067
14035TIP3   OH263519   1.917   6.696  15.169
14035TIP3    H163520   1.980   6.660  15.232
14035TIP3    H263521   1.968   6.757  15.117
14036TIP3   OH263522   5.234   6.455   3.605
14036TIP3    H163523   5.150   6.450   3.559
14036TIP3    H263524   5.214   6.503   3.685
14037TIP3   OH263525   1.501   5.855  13.128
14037TIP3    H163526   1.570   5.920  13.113
14037TIP3    H263527   1.547   5.772  13.140
14038TIP3   OH263528   4.681   2.505  14.574
14038TIP3    H163529   4.628   2.450  14.517
14038TIP3    H263530   4.671   2.593  14.539
14039TIP3   OH263531   4.271   3.031  14.761
14039TIP3    H163532   4.336   3.098  14.740
14039TIP3    H263533   4.201   3.044  14.697
14040TIP3   OH263534   6.462   3.108  11.211
14040TIP3    H163535   6.557   3.098  11.222
14040TIP3    H263536   6.446   3.200  11.230
14041TIP3   OH263537   3.608   4.983   0.138
14041TIP3    H163538   3.605   5.059   0.080
14041TIP3    H263539   3.592   5.019   0.225
14042TIP3   OH263540   0.022   1.311  10.865
14042TIP3    H163541  -0.059   1.357  10.889
14042TIP3    H263542   0.068   1.372  10.808
14043TIP3   OH263543   6.531   1.579   6.111
14043TIP3    H163544   6.468   1.513   6.082
14043TIP3    H263545   6.552   1.554   6.201
14044TIP3   OH263546   3.289   5.436  13.963
14044TIP3    H163547   3.245   5.519  13.983
14044TIP3    H263548   3.219   5.371  13.969
14045TIP3   OH263549   3.101   6.762   1.301
14045TIP3    H163550   3.085   6.698   1.231
14045TIP3    H263551   3.096   6.847   1.257
14046TIP3   OH263552   0.441   1.401   1.814
14046TIP3    H163553   0.500   1.469   1.847
14046TIP3    H263554   0.499   1.329   1.788
14047TIP3   OH263555   1.522   5.398   4.479
14047TIP3    H163556   1.517   5.493   4.465
14047TIP3    H263557   1.567   5.365   4.401
14048TIP3   OH263558   6.171   6.268   3.485
14048TIP3    H163559   6.121   6.309   3.415
14048TIP3    H263560   6.197   6.340   3.543
14049TIP3   OH263561   1.686   1.879   4.886
14049TIP3    H163562   1.636   1.860   4.807
14049TIP3    H263563   1.703   1.973   4.881
14050TIP3   OH263564   2.124   1.267  12.977
14050TIP3    H163565   2.170   1.223  12.906
14050TIP3    H263566   2.040   1.221  12.982
14051TIP3   OH263567   2.940   0.366   2.049
14051TIP3    H163568   2.946   0.432   2.118
14051TIP3    H263569   3.007   0.390   1.986
14052TIP3   OH263570   4.653   3.122   2.397
14052TIP3    H163571   4.637   3.068   2.475
14052TIP3    H263572   4.732   3.085   2.358
14053TIP3   OH263573   4.468   1.132  13.629
14053TIP3    H163574   4.555   1.126  13.668
14053TIP3    H263575   4.414   1.171  13.698
14054TIP3   OH263576   3.587   1.349  11.024
14054TIP3    H163577   3.625   1.436  11.039
14054TIP3    H263578   3.581   1.341  10.929
14055TIP3   OH263579   3.645   2.268   0.796
14055TIP3    H163580   3.550   2.264   0.809
14055TIP3    H263581   3.655   2.278   0.701
14056TIP3   OH263582   2.933   3.840  16.007
14056TIP3    H163583   2.926   3.778  15.934
14056TIP3    H263584   3.024   3.868  16.006
14057TIP3   OH263585   1.904   6.470  16.933
14057TIP3    H163586   1.812   6.443  16.937
14057TIP3    H263587   1.952   6.389  16.915
14058TIP3   OH263588   3.786   3.851  12.031
14058TIP3    H163589   3.813   3.783  11.969
14058TIP3    H263590   3.790   3.808  12.117
14059TIP3   OH263591   6.492   2.956   1.488
14059TIP3    H163592   6.457   2.868   1.473
14059TIP3    H263593   6.441   2.990   1.561
14060TIP3   OH263594   0.562   2.748   0.300
14060TIP3    H163595   0.507   2.722   0.374
14060TIP3    H263596   0.646   2.706   0.316
14061TIP3   OH263597   2.824   6.492   2.255
14061TIP3    H163598   2.803   6.564   2.194
14061TIP3    H263599   2.837   6.535   2.339
14062TIP3   OH263600   2.424   3.607  12.615
14062TIP3    H163601   2.385   3.617  12.528
14062TIP3    H263602   2.443   3.696  12.643
14063TIP3   OH263603   3.958   1.997   4.712
14063TIP3    H163604   4.026   1.958   4.767
14063TIP3    H263605   3.976   2.091   4.715
14064TIP3   OH263606   5.792   2.257   5.268
14064TIP3    H163607   5.755   2.345   5.263
14064TIP3    H263608   5.837   2.254   5.352
14065TIP3   OH263609   4.438   4.082   5.306
14065TIP3    H163610   4.501   4.149   5.280
14065TIP3    H263611   4.389   4.121   5.378
14066TIP3   OH263612   2.217   2.991  12.722
14066TIP3    H163613   2.276   3.057  12.687
14066TIP3    H263614   2.275   2.927  12.764
14067TIP3   OH263615   0.849   0.004  14.160
14067TIP3    H163616   0.829  -0.022  14.250
14067TIP3    H263617   0.789  -0.048  14.106
14068TIP3   OH263618   2.371   2.547   5.879
14068TIP3    H163619   2.422   2.587   5.950
14068TIP3    H263620   2.293   2.603   5.872
14069TIP3   OH263621   6.698   1.793   2.116
14069TIP3    H163622   6.654   1.864   2.162
14069TIP3    H263623   6.693   1.817   2.024
14070TIP3   OH263624   0.184   2.520  16.394
14070TIP3    H163625   0.218   2.440  16.434
14070TIP3    H263626   0.139   2.490  16.315
14071TIP3   OH263627   2.653   5.141   1.347
14071TIP3    H163628   2.626   5.064   1.397
14071TIP3    H263629   2.720   5.109   1.287
14072TIP3   OH263630   5.172   0.056  13.566
14072TIP3    H163631   5.152   0.092  13.480
14072TIP3    H263632   5.143   0.123  13.627
14073TIP3   OH263633   3.881   4.103  16.904
14073TIP3    H163634   3.901   4.171  16.968
14073TIP3    H263635   3.946   4.115  16.834
14074TIP3   OH263636   6.088   6.638   5.300
14074TIP3    H163637   5.997   6.638   5.331
14074TIP3    H263638   6.108   6.731   5.286
14075TIP3   OH263639   1.063   3.647   6.429
14075TIP3    H163640   1.009   3.583   6.382
14075TIP3    H263641   1.012   3.670   6.506
14076TIP3   OH263642   1.025   5.389   4.053
14076TIP3    H163643   0.994   5.477   4.073
14076TIP3    H263644   1.118   5.391   4.076
14077TIP3   OH263645   6.692   0.521   3.675
14077TIP3    H163646   6.707   0.486   3.763
14077TIP3    H263647   6.631   0.460   3.635
14078TIP3   OH263648   2.122   3.540  12.613
14078TIP3    H163649   2.079   3.582  12.539
14078TIP3    H263650   2.149   3.454  12.580
14079TIP3   OH263651   5.814   1.994  12.971
14079TIP3    H163652   5.881   2.010  13.037
14079TIP3    H263653   5.749   2.063  12.985
14080TIP3   OH263654   2.255   0.320   0.892
14080TIP3    H163655   2.282   0.307   0.983
14080TIP3    H263656   2.169   0.361   0.898
14081TIP3   OH263657   4.361   6.130  12.089
14081TIP3    H163658   4.316   6.107  12.009
14081TIP3    H263659   4.331   6.219  12.109
14082TIP3   OH263660   2.571   3.697   0.502
14082TIP3    H163661   2.510   3.651   0.559
14082TIP3    H263662   2.628   3.746   0.561
14083TIP3   OH263663   2.449   1.441   5.592
14083TIP3    H163664   2.502   1.449   5.512
14083TIP3    H263665   2.387   1.514   5.586
14084TIP3   OH263666   4.745   2.835  13.281
14084TIP3    H163667   4.683   2.778  13.236
14084TIP3    H263668   4.798   2.873  13.211
14085TIP3   OH263669   2.564   3.204   5.273
14085TIP3    H163670   2.602   3.236   5.354
14085TIP3    H263671   2.512   3.128   5.299
14086TIP3   OH263672   0.948   6.510   4.079
14086TIP3    H163673   0.977   6.543   3.994
14086TIP3    H263674   0.855   6.490   4.067
14087TIP3   OH263675   0.059   1.706  16.646
14087TIP3    H163676   0.134   1.759  16.623
14087TIP3    H263677   0.072   1.624  16.598
14088TIP3   OH263678   1.421   2.953   4.869
14088TIP3    H163679   1.416   2.861   4.843
14088TIP3    H263680   1.347   2.965   4.928
14089TIP3   OH263681   6.052   1.274  16.007
14089TIP3    H163682   6.008   1.189  16.000
14089TIP3    H263683   6.132   1.263  15.955
14090TIP3   OH263684   6.401   6.119  11.801
14090TIP3    H163685   6.471   6.116  11.867
14090TIP3    H263686   6.354   6.201  11.820
14091TIP3   OH263687   1.738   2.246   2.342
14091TIP3    H163688   1.646   2.245   2.316
14091TIP3    H263689   1.745   2.178   2.409
14092TIP3   OH263690   6.774   0.788  17.094
14092TIP3    H163691   6.683   0.805  17.119
14092TIP3    H263692   6.775   0.799  16.999
14093TIP3   OH263693   5.754   5.921   2.313
14093TIP3    H163694   5.751   5.828   2.337
14093TIP3    H263695   5.670   5.956   2.341
14094TIP3   OH263696   4.979   5.272  16.620
14094TIP3    H163697   4.958   5.192  16.668
14094TIP3    H263698   5.061   5.252  16.575
14095TIP3   OH263699   4.893   3.423   4.298
14095TIP3    H163700   4.980   3.425   4.259
14095TIP3    H263701   4.839   3.475   4.238
14096TIP3   OH263702   2.716   0.570  16.087
14096TIP3    H163703   2.701   0.494  16.031
14096TIP3    H263704   2.674   0.548  16.170
14097TIP3   OH263705   6.059   4.924  15.083
14097TIP3    H163706   6.143   4.903  15.123
14097TIP3    H263707   6.067   4.893  14.992
14098TIP3   OH263708   4.255   2.081   3.741
14098TIP3    H163709   4.310   2.141   3.792
14098TIP3    H263710   4.246   2.125   3.656
14099TIP3   OH263711   2.137   6.706  12.928
14099TIP3    H163712   2.045   6.686  12.908
14099TIP3    H263713   2.178   6.712  12.842
14100TIP3   OH263714   6.160   5.797   2.931
14100TIP3    H163715   6.131   5.749   3.009
14100TIP3    H263716   6.229   5.855   2.964
14101TIP3   OH263717   6.231   3.713   2.556
14101TIP3    H163718   6.237   3.634   2.610
14101TIP3    H263719   6.245   3.785   2.617
14102TIP3   OH263720   5.176   2.914   2.924
14102TIP3    H163721   5.166   2.992   2.869
14102TIP3    H263722   5.228   2.945   2.998
14103TIP3   OH263723   2.985   6.301   3.393
14103TIP3    H163724   2.964   6.287   3.486
14103TIP3    H263725   2.952   6.389   3.374
14104TIP3   OH263726   0.606   3.984   0.815
14104TIP3    H163727   0.649   3.914   0.765
14104TIP3    H263728   0.565   4.039   0.749
14105TIP3   OH263729   5.249   1.009  13.726
14105TIP3    H163730   5.283   1.058  13.652
14105TIP3    H263731   5.301   0.928  13.728
14106TIP3   OH263732   3.976   3.741  11.667
14106TIP3    H163733   4.055   3.752  11.719
14106TIP3    H263734   3.989   3.799  11.591
14107TIP3   OH263735   6.765   5.493  15.131
14107TIP3    H163736   6.695   5.471  15.069
14107TIP3    H263737   6.767   5.420  15.193
14108TIP3   OH263738   6.499   1.383   2.017
14108TIP3    H163739   6.502   1.332   1.937
14108TIP3    H263740   6.574   1.443   2.011
14109TIP3   OH263741   0.033   3.973  12.006
14109TIP3    H163742   0.013   3.986  11.914
14109TIP3    H263743   0.022   4.059  12.046
14110TIP3   OH263744   6.461   5.776  16.494
14110TIP3    H163745   6.427   5.823  16.419
14110TIP3    H263746   6.485   5.690  16.460
14111TIP3   OH263747   4.563   2.669   3.526
14111TIP3    H163748   4.636   2.696   3.582
14111TIP3    H263749   4.531   2.750   3.487
14112TIP3   OH263750   5.708   6.584  16.541
14112TIP3    H163751   5.781   6.637  16.509
14112TIP3    H263752   5.690   6.617  16.629
14113TIP3   OH263753   6.303   6.408   0.926
14113TIP3    H163754   6.351   6.476   0.972
14113TIP3    H263755   6.317   6.329   0.978
14114TIP3   OH263756   5.255   3.295   0.161
14114TIP3    H163757   5.225   3.349   0.234
14114TIP3    H263758   5.277   3.359   0.092
14115TIP3   OH263759   6.624   0.685   4.610
14115TIP3    H163760   6.623   0.633   4.690
14115TIP3    H263761   6.701   0.654   4.563
14116TIP3   OH263762   3.869   2.916  15.258
14116TIP3    H163763   3.962   2.934  15.274
14116TIP3    H263764   3.868   2.865  15.177
14117TIP3   OH263765   4.239   3.382  16.446
14117TIP3    H163766   4.287   3.411  16.368
14117TIP3    H263767   4.172   3.322  16.412
14118TIP3   OH263768   5.719   4.642  16.789
14118TIP3    H163769   5.782   4.656  16.860
14118TIP3    H263770   5.703   4.729  16.753
14119TIP3   OH263771   4.798   0.941   0.921
14119TIP3    H163772   4.882   0.986   0.909
14119TIP3    H263773   4.794   0.879   0.847
14120TIP3   OH263774   3.461   5.781   0.739
14120TIP3    H163775   3.552   5.813   0.737
14120TIP3    H263776   3.449   5.736   0.656
14121TIP3   OH263777   0.088   6.184   3.560
14121TIP3    H163778   0.019   6.216   3.502
14121TIP3    H263779   0.041   6.148   3.636
14122TIP3   OH263780   6.221   1.140   4.258
14122TIP3    H163781   6.249   1.049   4.254
14122TIP3    H263782   6.126   1.137   4.242
14123TIP3   OH263783   1.431   4.566   5.064
14123TIP3    H163784   1.338   4.583   5.049
14123TIP3    H263785   1.438   4.470   5.063
14124TIP3   OH263786   6.442   3.249  12.042
14124TIP3    H163787   6.481   3.289  11.965
14124TIP3    H263788   6.350   3.276  12.039
14125TIP3   OH263789   0.859   1.817  16.200
14125TIP3    H163790   0.898   1.753  16.260
14125TIP3    H263791   0.778   1.774  16.171
14126TIP3   OH263792   5.099   4.314   2.067
14126TIP3    H163793   5.127   4.362   1.989
14126TIP3    H263794   5.071   4.383   2.128
14127TIP3   OH263795   3.165   1.773   3.387
14127TIP3    H163796   3.207   1.846   3.433
14127TIP3    H263797   3.077   1.804   3.367
14128TIP3   OH263798   0.854   4.186  12.164
14128TIP3    H163799   0.787   4.245  12.130
14128TIP3    H263800   0.927   4.194  12.103
14129TIP3   OH263801   1.350   6.528  11.136
14129TIP3    H163802   1.361   6.501  11.045
14129TIP3    H263803   1.355   6.624  11.132
14130TIP3   OH263804   2.374   2.658   0.944
14130TIP3    H163805   2.327   2.652   1.028
14130TIP3    H263806   2.341   2.584   0.893
14131TIP3   OH263807   4.813   4.865  12.314
14131TIP3    H163808   4.722   4.835  12.315
14131TIP3    H263809   4.807   4.960  12.300
14132TIP3   OH263810   4.390   1.894   0.866
14132TIP3    H163811   4.415   1.852   0.784
14132TIP3    H263812   4.318   1.952   0.841
14133TIP3   OH263813   4.764   5.786   0.901
14133TIP3    H163814   4.784   5.741   0.983
14133TIP3    H263815   4.710   5.861   0.926
14134TIP3   OH263816   3.858   1.592   4.761
14134TIP3    H163817   3.862   1.635   4.676
14134TIP3    H263818   3.841   1.663   4.823
14135TIP3   OH263819   5.032   3.138   3.555
14135TIP3    H163820   5.096   3.204   3.526
14135TIP3    H263821   5.083   3.058   3.564
14136TIP3   OH263822   0.333   4.513   2.680
14136TIP3    H163823   0.370   4.501   2.592
14136TIP3    H263824   0.258   4.572   2.666
14137TIP3   OH263825   5.008   4.170   3.270
14137TIP3    H163826   4.988   4.262   3.286
14137TIP3    H263827   5.103   4.164   3.279
14138TIP3   OH263828   0.054   1.472  12.166
14138TIP3    H163829   0.094   1.533  12.228
14138TIP3    H263830   0.128   1.420  12.132
14139TIP3   OH263831   6.510   6.324  10.950
14139TIP3    H163832   6.438   6.383  10.927
14139TIP3    H263833   6.581   6.350  10.892
14140TIP3   OH263834   1.643   6.169  14.528
14140TIP3    H163835   1.550   6.149  14.529
14140TIP3    H263836   1.676   6.127  14.449
14141TIP3   OH263837   3.101   1.254   2.970
14141TIP3    H163838   3.067   1.294   3.050
14141TIP3    H263839   3.042   1.179   2.954
14142TIP3   OH263840   2.859   3.564  14.445
14142TIP3    H163841   2.888   3.531  14.359
14142TIP3    H263842   2.930   3.622  14.473
14143TIP3   OH263843   2.930   4.604  13.448
14143TIP3    H163844   2.909   4.625  13.357
14143TIP3    H263845   2.992   4.672  13.474
14144TIP3   OH263846   3.092   3.345   3.413
14144TIP3    H163847   3.040   3.385   3.344
14144TIP3    H263848   3.118   3.419   3.469
14145TIP3   OH263849   4.588   4.658  11.143
14145TIP3    H163850   4.601   4.689  11.054
14145TIP3    H263851   4.496   4.678  11.162
14146TIP3   OH263852   3.491   0.565   0.701
14146TIP3    H163853   3.493   0.471   0.679
14146TIP3    H263854   3.529   0.608   0.625
14147TIP3   OH263855   4.783   1.192  15.541
14147TIP3    H163856   4.864   1.145  15.560
14147TIP3    H263857   4.720   1.123  15.519
14148TIP3   OH263858   1.089   0.906   6.181
14148TIP3    H163859   1.099   0.811   6.175
14148TIP3    H263860   1.145   0.941   6.112
14149TIP3   OH263861   4.859   2.867  15.914
14149TIP3    H163862   4.804   2.790  15.932
14149TIP3    H263863   4.947   2.831  15.902
14150TIP3   OH263864   4.222   5.897   1.360
14150TIP3    H163865   4.221   5.991   1.378
14150TIP3    H263866   4.214   5.891   1.265
14151TIP3   OH263867   2.250   5.929   0.803
14151TIP3    H163868   2.286   5.858   0.750
14151TIP3    H263869   2.216   5.886   0.881
14152TIP3   OH263870   0.231   1.076   5.572
14152TIP3    H163871   0.137   1.094   5.570
14152TIP3    H263872   0.248   1.027   5.492
14153TIP3   OH263873   4.463   0.680  16.142
14153TIP3    H163874   4.399   0.610  16.126
14153TIP3    H263875   4.467   0.688  16.237
14154TIP3   OH263876   5.359   2.950  12.878
14154TIP3    H163877   5.339   2.994  12.795
14154TIP3    H263878   5.372   3.021  12.940
14155TIP3   OH263879   5.384   3.411  16.069
14155TIP3    H163880   5.323   3.413  16.142
14155TIP3    H263881   5.448   3.479  16.090
14156TIP3   OH263882   3.933   0.091  16.534
14156TIP3    H163883   3.968   0.141  16.608
14156TIP3    H263884   3.856   0.141  16.505
14157TIP3   OH263885   0.030   0.779  16.494
14157TIP3    H163886   0.075   0.845  16.545
14157TIP3    H263887   0.027   0.814  16.405
14158TIP3   OH263888   0.914   3.155  13.367
14158TIP3    H163889   0.926   3.240  13.327
14158TIP3    H263890   0.977   3.098  13.323
14159TIP3   OH263891   6.713   3.913  10.787
14159TIP3    H163892   6.626   3.927  10.824
14159TIP3    H263893   6.712   3.959  10.703
14160TIP3   OH263894   0.196   0.141  16.042
14160TIP3    H163895   0.190   0.139  16.138
14160TIP3    H263896   0.124   0.198  16.015
14161TIP3   OH263897   6.486   6.717  14.123
14161TIP3    H163898   6.489   6.768  14.204
14161TIP3    H263899   6.569   6.670  14.122
14162TIP3   OH263900   0.183   4.498   1.203
14162TIP3    H163901   0.242   4.521   1.131
14162TIP3    H263902   0.241   4.486   1.278
14163TIP3   OH263903   1.481   5.235   0.674
14163TIP3    H163904   1.410   5.197   0.622
14163TIP3    H263905   1.547   5.259   0.608
14164TIP3   OH263906   4.688   2.041  15.597
14164TIP3    H163907   4.677   1.969  15.659
14164TIP3    H263908   4.599   2.060  15.567
14165TIP3   OH263909   0.318   1.604  15.179
14165TIP3    H163910   0.331   1.676  15.241
14165TIP3    H263911   0.406   1.569  15.164
14166TIP3   OH263912   1.285   1.209   1.749
14166TIP3    H163913   1.283   1.141   1.816
14166TIP3    H263914   1.317   1.164   1.671
14167TIP3   OH263915   2.369   3.142   2.267
14167TIP3    H163916   2.345   3.235   2.264
14167TIP3    H263917   2.336   3.106   2.185
14168TIP3   OH263918   2.320   1.527  16.974
14168TIP3    H163919   2.326   1.599  17.036
14168TIP3    H263920   2.246   1.549  16.918
14169TIP3   OH263921   5.355   4.747   6.489
14169TIP3    H163922   5.442   4.709   6.470
14169TIP3    H263923   5.295   4.695   6.436
14170TIP3   OH263924   6.546   1.389  14.443
14170TIP3    H163925   6.497   1.327  14.389
14170TIP3    H263926   6.547   1.470  14.392
14171TIP3   OH263927   0.173   0.836  16.027
14171TIP3    H163928   0.216   0.854  16.111
14171TIP3    H263929   0.244   0.823  15.965
14172TIP3   OH263930   4.864   1.440   4.121
14172TIP3    H163931   4.906   1.418   4.204
14172TIP3    H263932   4.784   1.387   4.119
14173TIP3   OH263933   2.302   3.017  15.772
14173TIP3    H163934   2.224   2.963  15.756
14173TIP3    H263935   2.278   3.072  15.847
14174TIP3   OH263936   5.437   4.517   0.320
14174TIP3    H163937   5.342   4.527   0.320
14174TIP3    H263938   5.454   4.452   0.251
14175TIP3   OH263939   5.250   6.345  11.779
14175TIP3    H163940   5.160   6.360  11.808
14175TIP3    H263941   5.269   6.419  11.721
14176TIP3   OH263942   2.306   4.231   3.275
14176TIP3    H163943   2.250   4.299   3.237
14176TIP3    H263944   2.331   4.176   3.201
14177TIP3   OH263945   6.330   0.111  16.589
14177TIP3    H163946   6.382   0.191  16.592
14177TIP3    H263947   6.280   0.118  16.508
14178TIP3   OH263948   6.236   3.640  14.652
14178TIP3    H163949   6.292   3.604  14.722
14178TIP3    H263950   6.177   3.569  14.629
14179TIP3   OH263951   5.453   5.825  16.147
14179TIP3    H163952   5.397   5.756  16.184
14179TIP3    H263953   5.500   5.782  16.075
14180TIP3   OH263954   1.192   1.372  14.145
14180TIP3    H163955   1.248   1.406  14.215
14180TIP3    H263956   1.210   1.278  14.144
14181TIP3   OH263957   2.263   0.156   3.915
14181TIP3    H163958   2.220   0.225   3.865
14181TIP3    H263959   2.192   0.115   3.966
14182TIP3   OH263960   2.331   1.567   2.860
14182TIP3    H163961   2.332   1.564   2.764
14182TIP3    H263962   2.382   1.645   2.882
14183TIP3   OH263963   4.765   4.106  12.498
14183TIP3    H163964   4.838   4.076  12.443
14183TIP3    H263965   4.702   4.144  12.436
14184TIP3   OH263966   0.372   3.733   5.248
14184TIP3    H163967   0.299   3.672   5.254
14184TIP3    H263968   0.335   3.811   5.207
14185TIP3   OH263969   4.524   3.734   2.861
14185TIP3    H163970   4.594   3.719   2.798
14185TIP3    H263971   4.562   3.792   2.926
14186TIP3   OH263972   4.751   1.442   3.848
14186TIP3    H163973   4.785   1.530   3.861
14186TIP3    H263974   4.682   1.452   3.782
14187TIP3   OH263975   0.623   2.121   5.596
14187TIP3    H163976   0.538   2.077   5.593
14187TIP3    H263977   0.670   2.077   5.668
14188TIP3   OH263978   3.415   1.118  12.456
14188TIP3    H163979   3.483   1.097  12.391
14188TIP3    H263980   3.443   1.073  12.535
14189TIP3   OH263981   4.939   3.177  12.615
14189TIP3    H163982   4.896   3.157  12.532
14189TIP3    H263983   4.871   3.168  12.681
14190TIP3   OH263984   5.704   3.348  15.462
14190TIP3    H163985   5.798   3.354  15.474
14190TIP3    H263986   5.671   3.313  15.545
14191TIP3   OH263987   3.912   6.574  14.629
14191TIP3    H163988   3.904   6.533  14.543
14191TIP3    H263989   3.994   6.623  14.625
14192TIP3   OH263990   4.518   6.279  15.019
14192TIP3    H163991   4.600   6.329  15.026
14192TIP3    H263992   4.451   6.337  15.055
14193TIP3   OH263993   5.512   5.249  10.889
14193TIP3    H163994   5.440   5.202  10.931
14193TIP3    H263995   5.472   5.294  10.815
14194TIP3   OH263996   5.165   3.184   3.289
14194TIP3    H163997   5.166   3.247   3.217
14194TIP3    H263998   5.235   3.214   3.348
14195TIP3   OH263999   2.569   1.106   5.421
14195TIP3    H164000   2.542   1.196   5.403
14195TIP3    H264001   2.544   1.057   5.342
14196TIP3   OH264002   3.847   6.242  16.437
14196TIP3    H164003   3.922   6.226  16.495
14196TIP3    H264004   3.831   6.336  16.443
14197TIP3   OH264005   2.499   2.183  11.055
14197TIP3    H164006   2.452   2.236  11.120
14197TIP3    H264007   2.573   2.237  11.028
14198TIP3   OH264008   5.792   3.314   1.962
14198TIP3    H164009   5.751   3.231   1.987
14198TIP3    H264010   5.730   3.353   1.900
14199TIP3   OH264011   3.751   5.280  16.075
14199TIP3    H164012   3.733   5.187  16.089
14199TIP3    H264013   3.665   5.322  16.079
14200TIP3   OH264014   6.746   1.726   1.372
14200TIP3    H164015   6.740   1.679   1.289
14200TIP3    H264016   6.838   1.723   1.396
14201TIP3   OH264017   2.189   2.463   5.680
14201TIP3    H164018   2.163   2.415   5.759
14201TIP3    H264019   2.202   2.553   5.710
14202TIP3   OH264020   0.158   5.461  12.189
14202TIP3    H164021   0.247   5.454  12.155
14202TIP3    H264022   0.150   5.552  12.217
14203TIP3   OH264023   5.794   4.023  14.481
14203TIP3    H164024   5.888   4.019  14.466
14203TIP3    H264025   5.755   3.986  14.401
14204TIP3   OH264026   5.829   4.635   1.246
14204TIP3    H164027   5.906   4.599   1.290
14204TIP3    H264028   5.844   4.729   1.245
14205TIP3   OH264029   2.599   5.900  13.351
14205TIP3    H164030   2.571   5.991  13.337
14205TIP3    H264031   2.547   5.870  13.426
14206TIP3   OH264032   1.943   5.133  16.404
14206TIP3    H164033   1.936   5.038  16.404
14206TIP3    H264034   2.025   5.151  16.450
14207TIP3   OH264035   1.209   4.039   3.569
14207TIP3    H164036   1.224   4.019   3.476
14207TIP3    H264037   1.279   4.100   3.592
14208TIP3   OH264038   1.696   3.651   4.690
14208TIP3    H164039   1.785   3.617   4.697
14208TIP3    H264040   1.657   3.635   4.775
14209TIP3   OH264041   0.414   2.033  11.514
14209TIP3    H164042   0.468   1.999  11.442
14209TIP3    H264043   0.344   2.080  11.470
14210TIP3   OH264044   5.207   1.464   0.269
14210TIP3    H164045   5.286   1.503   0.307
14210TIP3    H264046   5.239   1.386   0.223
14211TIP3   OH264047   3.677   1.576   2.548
14211TIP3    H164048   3.691   1.559   2.641
14211TIP3    H264049   3.760   1.553   2.506
14212TIP3   OH264050   1.061   2.269   3.861
14212TIP3    H164051   1.056   2.267   3.765
14212TIP3    H264052   1.114   2.192   3.884
14213TIP3   OH264053   6.734   5.425  11.182
14213TIP3    H164054   6.733   5.508  11.134
14213TIP3    H264055   6.800   5.438  11.250
14214TIP3   OH264056   6.055   4.857   2.860
14214TIP3    H164057   6.103   4.828   2.937
14214TIP3    H264058   5.971   4.811   2.865
14215TIP3   OH264059   5.659   0.753  11.830
14215TIP3    H164060   5.607   0.714  11.761
14215TIP3    H264061   5.687   0.679  11.885
14216TIP3   OH264062   1.002   0.498  16.296
14216TIP3    H164063   0.995   0.524  16.204
14216TIP3    H264064   0.912   0.501  16.329
14217TIP3   OH264065   6.470   5.417   3.943
14217TIP3    H164066   6.488   5.511   3.953
14217TIP3    H264067   6.546   5.374   3.982
14218TIP3   OH264068   3.258   2.137   2.264
14218TIP3    H164069   3.226   2.186   2.339
14218TIP3    H264070   3.351   2.159   2.260
14219TIP3   OH264071   1.347   3.393   1.306
14219TIP3    H164072   1.270   3.353   1.346
14219TIP3    H264073   1.377   3.328   1.241
14220TIP3   OH264074   2.812   4.758   3.464
14220TIP3    H164075   2.766   4.697   3.407
14220TIP3    H264076   2.793   4.727   3.553
14221TIP3   OH264077   2.367   5.149  13.326
14221TIP3    H164078   2.409   5.069  13.293
14221TIP3    H264079   2.302   5.171  13.259
14222TIP3   OH264080   4.100   6.180   4.154
14222TIP3    H164081   4.160   6.253   4.170
14222TIP3    H264082   4.150   6.120   4.099
14223TIP3   OH264083   1.108   1.647  11.067
14223TIP3    H164084   1.076   1.716  11.125
14223TIP3    H264085   1.204   1.655  11.072
14224TIP3   OH264086   6.475   0.406  15.669
14224TIP3    H164087   6.381   0.389  15.654
14224TIP3    H264088   6.476   0.476  15.734
14225TIP3   OH264089   6.611   4.665  16.436
14225TIP3    H164090   6.656   4.719  16.371
14225TIP3    H264091   6.668   4.670  16.514
14226TIP3   OH264092   2.361   1.852  13.279
14226TIP3    H164093   2.347   1.913  13.206
14226TIP3    H264094   2.292   1.786  13.268
14227TIP3   OH264095   0.650   3.152   0.833
14227TIP3    H164096   0.605   3.226   0.874
14227TIP3    H264097   0.580   3.091   0.809
14228TIP3   OH264098   0.620   3.125   2.832
14228TIP3    H164099   0.643   3.062   2.901
14228TIP3    H264100   0.531   3.153   2.855
14229TIP3   OH264101   1.870   4.318  13.504
14229TIP3    H164102   1.817   4.244  13.533
14229TIP3    H264103   1.884   4.369  13.584
14230TIP3   OH264104   6.315   6.147   3.251
14230TIP3    H164105   6.405   6.174   3.231
14230TIP3    H264106   6.302   6.173   3.342
14231TIP3   OH264107   2.951   0.662   4.583
14231TIP3    H164108   2.975   0.643   4.492
14231TIP3    H264109   2.939   0.575   4.623
14232TIP3   OH264110   1.830   2.558  14.310
14232TIP3    H164111   1.780   2.568  14.229
14232TIP3    H264112   1.893   2.630  14.308
14233TIP3   OH264113   5.922   5.183  14.881
14233TIP3    H164114   5.910   5.267  14.836
14233TIP3    H264115   5.878   5.119  14.824
14234TIP3   OH264116   3.558   2.371  13.582
14234TIP3    H164117   3.645   2.398  13.611
14234TIP3    H264118   3.543   2.419  13.501
14235TIP3   OH264119   5.517   6.424  16.037
14235TIP3    H164120   5.587   6.406  16.100
14235TIP3    H264121   5.560   6.468  15.964
14236TIP3   OH264122   0.271   0.531   3.865
14236TIP3    H164123   0.258   0.543   3.771
14236TIP3    H264124   0.235   0.611   3.904
14237TIP3   OH264125   2.485   4.489   5.358
14237TIP3    H164126   2.563   4.468   5.409
14237TIP3    H264127   2.412   4.469   5.416
14238TIP3   OH264128   1.802   1.634   4.632
14238TIP3    H164129   1.719   1.607   4.671
14238TIP3    H264130   1.776   1.686   4.556
14239TIP3   OH264131   0.312   5.753   4.019
14239TIP3    H164132   0.283   5.685   4.079
14239TIP3    H264133   0.231   5.799   3.994
14240TIP3   OH264134   5.069   6.150  12.927
14240TIP3    H164135   5.091   6.237  12.893
14240TIP3    H264136   4.998   6.119  12.871
14241TIP3   OH264137   3.942   0.511   5.415
14241TIP3    H164138   3.859   0.555   5.433
14241TIP3    H264139   4.009   0.567   5.454
14242TIP3   OH264140   4.277   1.677   3.607
14242TIP3    H164141   4.359   1.670   3.558
14242TIP3    H264142   4.298   1.643   3.694
14243TIP3   OH264143   3.196   6.340   0.239
14243TIP3    H164144   3.230   6.373   0.322
14243TIP3    H264145   3.265   6.358   0.176
14244TIP3   OH264146   0.996   0.127   5.128
14244TIP3    H164147   0.945   0.087   5.058
14244TIP3    H264148   0.976   0.221   5.121
14245TIP3   OH264149   3.670   5.394  16.383
14245TIP3    H164150   3.733   5.431  16.321
14245TIP3    H264151   3.629   5.470  16.424
14246TIP3   OH264152   6.459   2.864   6.498
14246TIP3    H164153   6.531   2.925   6.517
14246TIP3    H264154   6.450   2.813   6.579
14247TIP3   OH264155   2.089   2.130   4.543
14247TIP3    H164156   2.164   2.154   4.597
14247TIP3    H264157   2.120   2.140   4.453
14248TIP3   OH264158   6.614   5.128   2.402
14248TIP3    H164159   6.521   5.109   2.390
14248TIP3    H264160   6.617   5.216   2.439
14249TIP3   OH264161   5.285   1.595   2.297
14249TIP3    H164162   5.282   1.673   2.352
14249TIP3    H264163   5.341   1.621   2.223
14250TIP3   OH264164   2.714   0.554   3.418
14250TIP3    H164165   2.777   0.485   3.397
14250TIP3    H264166   2.680   0.583   3.334
14251TIP3   OH264167   4.298   3.852   2.088
14251TIP3    H164168   4.282   3.921   2.153
14251TIP3    H264169   4.393   3.837   2.092
14252TIP3   OH264170   4.595   2.490  15.262
14252TIP3    H164171   4.682   2.526  15.275
14252TIP3    H264172   4.605   2.429  15.188
14253TIP3   OH264173   3.858   4.820  14.899
14253TIP3    H164174   3.821   4.778  14.820
14253TIP3    H264175   3.916   4.753  14.936
14254TIP3   OH264176   0.676   1.128  17.015
14254TIP3    H164177   0.614   1.153  17.084
14254TIP3    H264178   0.715   1.211  16.987
14255TIP3   OH264179   6.570   1.313   5.316
14255TIP3    H164180   6.494   1.355   5.275
14255TIP3    H264181   6.586   1.235   5.263
14256TIP3   OH264182   3.724   3.141   5.726
14256TIP3    H164183   3.694   3.183   5.807
14256TIP3    H264184   3.783   3.071   5.757
14257TIP3   OH264185   4.470   1.163  12.763
14257TIP3    H164186   4.489   1.245  12.718
14257TIP3    H264187   4.375   1.157  12.763
14258TIP3   OH264188   3.980   6.349  11.210
14258TIP3    H164189   4.044   6.331  11.141
14258TIP3    H264190   4.014   6.304  11.287
14259TIP3   OH264191   4.543   2.786   6.341
14259TIP3    H164192   4.632   2.773   6.372
14259TIP3    H264193   4.536   2.880   6.325
14260TIP3   OH264194   1.853   3.736  12.752
14260TIP3    H164195   1.855   3.716  12.659
14260TIP3    H264196   1.768   3.778  12.766
14261TIP3   OH264197   5.555   1.342   2.911
14261TIP3    H164198   5.549   1.344   2.815
14261TIP3    H264199   5.650   1.346   2.928
14262TIP3   OH264200   1.526   6.698   1.235
14262TIP3    H164201   1.562   6.615   1.205
14262TIP3    H264202   1.446   6.709   1.183
14263TIP3   OH264203   1.355   4.872  14.628
14263TIP3    H164204   1.357   4.815  14.704
14263TIP3    H264205   1.398   4.953  14.656
14264TIP3   OH264206   2.605   5.950  11.364
14264TIP3    H164207   2.525   6.004  11.363
14264TIP3    H264208   2.584   5.874  11.310
14265TIP3   OH264209   6.419   4.250  11.211
14265TIP3    H164210   6.428   4.184  11.142
14265TIP3    H264211   6.333   4.233  11.249
14266TIP3   OH264212   4.147   1.054  12.076
14266TIP3    H164213   4.231   1.008  12.082
14266TIP3    H264214   4.164   1.142  12.108
14267TIP3   OH264215   6.063   0.193  12.914
14267TIP3    H164216   6.007   0.237  12.977
14267TIP3    H264217   6.123   0.140  12.967
14268TIP3   OH264218   6.453   5.121   4.902
14268TIP3    H164219   6.388   5.149   4.966
14268TIP3    H264220   6.455   5.192   4.837
14269TIP3   OH264221   6.010   5.375   2.001
14269TIP3    H164222   6.041   5.324   1.926
14269TIP3    H264223   6.052   5.460   1.990
14270TIP3   OH264224   0.627   6.280  14.025
14270TIP3    H164225   0.577   6.270  14.106
14270TIP3    H264226   0.588   6.356  13.982
14271TIP3   OH264227   3.584   3.292  15.490
14271TIP3    H164228   3.560   3.299  15.398
14271TIP3    H264229   3.645   3.217  15.493
14272TIP3   OH264230   4.572   6.323  13.524
14272TIP3    H164231   4.548   6.277  13.604
14272TIP3    H264232   4.661   6.356  13.541
14273TIP3   OH264233   0.554   1.121  13.830
14273TIP3    H164234   0.582   1.127  13.739
14273TIP3    H264235   0.533   1.028  13.843
14274TIP3   OH264236   1.552   3.304   1.561
14274TIP3    H164237   1.484   3.358   1.520
14274TIP3    H264238   1.511   3.218   1.574
14275TIP3   OH264239   4.112   1.108   4.318
14275TIP3    H164240   4.096   1.202   4.324
14275TIP3    H264241   4.037   1.068   4.362
14276TIP3   OH264242   3.642   4.826   0.657
14276TIP3    H164243   3.712   4.860   0.602
14276TIP3    H264244   3.660   4.862   0.744
14277TIP3   OH264245   1.187   0.016   2.966
14277TIP3    H164246   1.234  -0.058   2.927
14277TIP3    H264247   1.127  -0.024   3.029
14278TIP3   OH264248   6.214   4.924   5.077
14278TIP3    H164249   6.191   4.871   5.154
14278TIP3    H264250   6.298   4.964   5.099
14279TIP3   OH264251   5.631   3.057   4.534
14279TIP3    H164252   5.623   3.028   4.443
14279TIP3    H264253   5.589   3.144   4.535
14280TIP3   OH264254   1.011   6.066   0.517
14280TIP3    H164255   1.075   5.998   0.498
14280TIP3    H264256   1.060   6.131   0.569
14281TIP3   OH264257   2.434   1.559   3.375
14281TIP3    H164258   2.439   1.541   3.281
14281TIP3    H264259   2.479   1.643   3.386
14282TIP3   OH264260   0.299   2.758   2.001
14282TIP3    H164261   0.277   2.823   2.067
14282TIP3    H264262   0.395   2.752   2.004
14283TIP3   OH264263   2.450   2.666  13.137
14283TIP3    H164264   2.512   2.738  13.129
14283TIP3    H264265   2.432   2.659  13.230
14284TIP3   OH264266   2.469   0.557   5.329
14284TIP3    H164267   2.392   0.500   5.340
14284TIP3    H264268   2.477   0.602   5.413
14285TIP3   OH264269   5.955   4.805   1.016
14285TIP3    H164270   5.942   4.749   0.939
14285TIP3    H264271   6.035   4.771   1.057
14286TIP3   OH264272   1.847   0.702   3.649
14286TIP3    H164273   1.798   0.622   3.667
14286TIP3    H264274   1.844   0.752   3.730
14287TIP3   OH264275   1.555   5.436   2.741
14287TIP3    H164276   1.556   5.509   2.802
14287TIP3    H264277   1.582   5.474   2.657
14288TIP3   OH264278   3.770   5.999  13.470
14288TIP3    H164279   3.861   6.001  13.439
14288TIP3    H264280   3.739   5.912  13.445
14289TIP3   OH264281   6.333   6.217  17.158
14289TIP3    H164282   6.361   6.254  17.241
14289TIP3    H264283   6.238   6.229  17.157
14290TIP3   OH264284   4.007   3.798   0.771
14290TIP3    H164285   4.001   3.781   0.677
14290TIP3    H264286   3.921   3.776   0.805
14291TIP3   OH264287   6.709   2.096  15.540
14291TIP3    H164288   6.744   2.169  15.590
14291TIP3    H264289   6.646   2.137  15.479
14292TIP3   OH264290   4.430   1.495   6.610
14292TIP3    H164291   4.413   1.577   6.657
14292TIP3    H264292   4.525   1.495   6.595
14293TIP3   OH264293   2.133   3.168   2.016
14293TIP3    H164294   2.106   3.098   1.957
14293TIP3    H264295   2.223   3.190   1.989
14294TIP3   OH264296   2.337   5.085   6.566
14294TIP3    H164297   2.262   5.144   6.569
14294TIP3    H264298   2.345   5.059   6.474
14295TIP3   OH264299   4.734   5.826   5.539
14295TIP3    H164300   4.810   5.769   5.543
14295TIP3    H264301   4.764   5.909   5.575
14296TIP3   OH264302   2.605   1.687  16.577
14296TIP3    H164303   2.645   1.618  16.631
14296TIP3    H264304   2.515   1.659  16.565
14297TIP3   OH264305   5.630   5.675   1.203
14297TIP3    H164306   5.657   5.701   1.115
14297TIP3    H264307   5.653   5.749   1.259
14298TIP3   OH264308   4.009   0.986  16.912
14298TIP3    H164309   3.969   1.043  16.979
14298TIP3    H264310   4.103   0.993  16.928
14299TIP3   OH264311   2.434   4.455   1.063
14299TIP3    H164312   2.491   4.390   1.020
14299TIP3    H264313   2.353   4.452   1.013
14300TIP3   OH264314   1.426   4.991   4.323
14300TIP3    H164315   1.415   4.896   4.326
14300TIP3    H264316   1.337   5.026   4.327
14301TIP3   OH264317   2.790   2.532  14.313
14301TIP3    H164318   2.836   2.536  14.397
14301TIP3    H264319   2.859   2.531  14.247
14302TIP3   OH264320   0.013   1.846  10.657
14302TIP3    H164321   0.036   1.930  10.697
14302TIP3    H264322   0.069   1.782  10.702
14303TIP3   OH264323   0.804   2.615   0.423
14303TIP3    H164324   0.777   2.677   0.491
14303TIP3    H264325   0.895   2.594   0.445
14304TIP3   OH264326   1.411   2.019   4.504
14304TIP3    H164327   1.411   1.991   4.596
14304TIP3    H264328   1.319   2.037   4.485
14305TIP3   OH264329   4.297   3.302   4.866
14305TIP3    H164330   4.257   3.384   4.896
14305TIP3    H264331   4.264   3.291   4.777
14306TIP3   OH264332   4.753   4.081   5.030
14306TIP3    H164333   4.693   4.076   5.104
14306TIP3    H264334   4.808   4.158   5.050
14307TIP3   OH264335   0.589   0.002  16.960
14307TIP3    H164336   0.582  -0.092  16.973
14307TIP3    H264337   0.507   0.038  16.993
14308TIP3   OH264338   2.797   5.775   1.104
14308TIP3    H164339   2.728   5.763   1.039
14308TIP3    H264340   2.870   5.721   1.073
14309TIP3   OH264341   6.086   5.169  15.180
14309TIP3    H164342   6.117   5.235  15.118
14309TIP3    H264343   6.096   5.086  15.133
14310TIP3   OH264344   5.886   2.922  15.653
14310TIP3    H164345   5.820   2.877  15.600
14310TIP3    H264346   5.965   2.869  15.642
14311TIP3   OH264347   4.749   4.126   3.777
14311TIP3    H164348   4.692   4.192   3.737
14311TIP3    H264349   4.783   4.168   3.856
14312TIP3   OH264350   4.080   0.852  13.300
14312TIP3    H164351   4.085   0.893  13.214
14312TIP3    H264352   4.163   0.874  13.343
14313TIP3   OH264353   2.087   4.451   3.278
14313TIP3    H164354   2.101   4.543   3.256
14313TIP3    H264355   2.134   4.439   3.361
14314TIP3   OH264356   5.535   6.383  14.627
14314TIP3    H164357   5.530   6.291  14.653
14314TIP3    H264358   5.516   6.432  14.707
14315TIP3   OH264359   3.369   5.969  16.303
14315TIP3    H164360   3.326   5.989  16.220
14315TIP3    H264361   3.462   5.975  16.283
14316TIP3   OH264362   5.099   3.499  11.857
14316TIP3    H164363   5.093   3.469  11.948
14316TIP3    H264364   5.160   3.438  11.815
14317TIP3   OH264365   2.261   4.711   4.211
14317TIP3    H164366   2.241   4.627   4.253
14317TIP3    H264367   2.268   4.690   4.118
14318TIP3   OH264368   1.041   6.621  13.718
14318TIP3    H164369   0.972   6.681  13.747
14318TIP3    H264370   1.073   6.660  13.637
14319TIP3   OH264371   0.297   3.301  12.447
14319TIP3    H164372   0.393   3.301  12.438
14319TIP3    H264373   0.280   3.366  12.515
14320TIP3   OH264374   0.811   4.764  13.723
14320TIP3    H164375   0.760   4.726  13.795
14320TIP3    H264376   0.851   4.842  13.761
14321TIP3   OH264377   0.392   6.764   4.075
14321TIP3    H164378   0.376   6.828   4.006
14321TIP3    H264379   0.394   6.680   4.030
14322TIP3   OH264380   0.919   2.254  16.815
14322TIP3    H164381   0.992   2.207  16.853
14322TIP3    H264382   0.855   2.186  16.793
14323TIP3   OH264383   3.429   6.684   1.993
14323TIP3    H164384   3.353   6.739   2.008
14323TIP3    H264385   3.482   6.693   2.072
14324TIP3   OH264386   6.077   6.552  12.142
14324TIP3    H164387   6.005   6.492  12.161
14324TIP3    H264388   6.106   6.583  12.228
14325TIP3   OH264389   5.191   3.632   4.039
14325TIP3    H164390   5.250   3.633   3.963
14325TIP3    H264391   5.185   3.724   4.065
14326TIP3   OH264392   4.523   3.040   2.657
14326TIP3    H164393   4.548   3.088   2.737
14326TIP3    H264394   4.462   2.974   2.688
14327TIP3   OH264395   3.092   2.949   4.918
14327TIP3    H164396   3.033   2.876   4.940
14327TIP3    H264397   3.161   2.908   4.866
14328TIP3   OH264398   2.479   6.708  12.279
14328TIP3    H164399   2.416   6.774  12.249
14328TIP3    H264400   2.428   6.628  12.288
14329TIP3   OH264401   3.146   5.071  11.686
14329TIP3    H164402   3.052   5.057  11.689
14329TIP3    H264403   3.174   5.072  11.777
14330TIP3   OH264404   4.147   3.589  16.656
14330TIP3    H164405   4.062   3.553  16.682
14330TIP3    H264406   4.192   3.517  16.613
14331TIP3   OH264407   4.917   5.013  16.673
14331TIP3    H164408   4.919   4.938  16.615
14331TIP3    H264409   4.849   4.993  16.738
14332TIP3   OH264410   2.786   2.367   0.730
14332TIP3    H164411   2.864   2.396   0.682
14332TIP3    H264412   2.737   2.448   0.745
14333TIP3   OH264413   4.856   5.940   1.523
14333TIP3    H164414   4.791   5.927   1.593
14333TIP3    H264415   4.939   5.950   1.570
14334TIP3   OH264416   0.185   1.763   3.600
14334TIP3    H164417   0.136   1.845   3.601
14334TIP3    H264418   0.201   1.744   3.692
14335TIP3   OH264419   0.477   1.196  16.519
14335TIP3    H164420   0.453   1.257  16.590
14335TIP3    H264421   0.543   1.139  16.558
14336TIP3   OH264422   2.644   3.585  14.635
14336TIP3    H164423   2.712   3.571  14.570
14336TIP3    H264424   2.645   3.680  14.651
14337TIP3   OH264425   0.264   6.160  10.997
14337TIP3    H164426   0.174   6.175  11.028
14337TIP3    H264427   0.303   6.248  10.994
14338TIP3   OH264428   2.498   6.352   2.879
14338TIP3    H164429   2.496   6.441   2.845
14338TIP3    H264430   2.584   6.318   2.854
14339TIP3   OH264431   3.881   5.488   0.540
14339TIP3    H164432   3.802   5.533   0.570
14339TIP3    H264433   3.951   5.525   0.594
14340TIP3   OH264434   3.595   0.997   0.140
14340TIP3    H164435   3.636   0.922   0.096
14340TIP3    H264436   3.534   0.957   0.202
14341TIP3   OH264437   6.023   5.916   5.290
14341TIP3    H164438   6.014   5.917   5.385
14341TIP3    H264439   5.991   5.830   5.263
14342TIP3   OH264440   6.065   5.972  11.689
14342TIP3    H164441   6.127   5.936  11.752
14342TIP3    H264442   5.979   5.953  11.727
14343TIP3   OH264443   3.559   3.344   3.194
14343TIP3    H164444   3.494   3.284   3.156
14343TIP3    H264445   3.511   3.390   3.263
14344TIP3   OH264446   1.863   0.977  10.758
14344TIP3    H164447   1.855   1.007  10.667
14344TIP3    H264448   1.831   0.887  10.756
14345TIP3   OH264449   4.695   4.975   4.735
14345TIP3    H164450   4.670   4.903   4.676
14345TIP3    H264451   4.647   4.958   4.816
14346TIP3   OH264452   6.161   5.133   5.407
14346TIP3    H164453   6.120   5.059   5.452
14346TIP3    H264454   6.255   5.118   5.420
14347TIP3   OH264455   3.674   3.106   0.488
14347TIP3    H164456   3.635   3.093   0.574
14347TIP3    H264457   3.607   3.152   0.438
14348TIP3   OH264458   0.163   3.588   5.569
14348TIP3    H164459   0.159   3.538   5.487
14348TIP3    H264460   0.083   3.563   5.617
14349TIP3   OH264461   4.454   3.253  14.746
14349TIP3    H164462   4.462   3.344  14.776
14349TIP3    H264463   4.528   3.241  14.687
14350TIP3   OH264464   3.434   4.695  13.882
14350TIP3    H164465   3.485   4.751  13.941
14350TIP3    H264466   3.468   4.715  13.795
14351TIP3   OH264467   6.311   1.344   0.105
14351TIP3    H164468   6.242   1.410   0.116
14351TIP3    H264469   6.332   1.317   0.194
14352TIP3   OH264470   0.024   0.573   6.497
14352TIP3    H164471   0.083   0.499   6.506
14352TIP3    H264472  -0.038   0.547   6.429
14353TIP3   OH264473   2.632   0.074  14.534
14353TIP3    H164474   2.593  -0.009  14.563
14353TIP3    H264475   2.586   0.141  14.585
14354TIP3   OH264476   1.032   6.736  12.257
14354TIP3    H164477   1.098   6.806  12.255
14354TIP3    H264478   0.949   6.781  12.271
14355TIP3   OH264479   2.899   5.746  13.576
14355TIP3    H164480   2.851   5.680  13.526
14355TIP3    H264481   2.897   5.715  13.666
14356TIP3   OH264482   0.335   4.446  14.268
14356TIP3    H164483   0.374   4.453  14.181
14356TIP3    H264484   0.381   4.511  14.320
14357TIP3   OH264485   0.698   4.978   4.532
14357TIP3    H164486   0.769   5.031   4.568
14357TIP3    H264487   0.737   4.892   4.518
14358TIP3   OH264488   1.938   1.143   2.288
14358TIP3    H164489   1.955   1.199   2.364
14358TIP3    H264490   1.883   1.196   2.231
14359TIP3   OH264491   6.373   5.748  13.689
14359TIP3    H164492   6.375   5.792  13.773
14359TIP3    H264493   6.433   5.798  13.633
14360TIP3   OH264494   0.239   1.424  13.359
14360TIP3    H164495   0.283   1.379  13.430
14360TIP3    H264496   0.240   1.516  13.384
14361TIP3   OH264497   4.334   3.174   1.314
14361TIP3    H164498   4.290   3.210   1.391
14361TIP3    H264499   4.415   3.224   1.306
14362TIP3   OH264500   2.080   1.377  15.256
14362TIP3    H164501   2.132   1.343  15.328
14362TIP3    H264502   1.993   1.390  15.292
14363TIP3   OH264503   4.980   4.173   0.865
14363TIP3    H164504   4.934   4.122   0.799
14363TIP3    H264505   5.067   4.187   0.829
14364TIP3   OH264506   6.292   4.095   4.744
14364TIP3    H164507   6.327   4.145   4.818
14364TIP3    H264508   6.366   4.087   4.683
14365TIP3   OH264509   2.662   4.245  16.262
14365TIP3    H164510   2.729   4.297  16.305
14365TIP3    H264511   2.650   4.286  16.177
14366TIP3   OH264512   1.630   4.967   0.136
14366TIP3    H164513   1.673   4.887   0.104
14366TIP3    H264514   1.539   4.940   0.151
14367TIP3   OH264515   5.002   5.640  13.871
14367TIP3    H164516   4.966   5.686  13.946
14367TIP3    H264517   4.943   5.660  13.799
14368TIP3   OH264518   0.110   6.740   2.772
14368TIP3    H164519   0.127   6.703   2.685
14368TIP3    H264520   0.040   6.686   2.808
14369TIP3   OH264521   2.894   3.436  12.414
14369TIP3    H164522   2.914   3.375  12.342
14369TIP3    H264523   2.901   3.382  12.493
14370TIP3   OH264524   6.456   6.009  15.665
14370TIP3    H164525   6.452   6.081  15.602
14370TIP3    H264526   6.372   5.965  15.657
14371TIP3   OH264527   1.671   5.935   1.630
14371TIP3    H164528   1.584   5.958   1.663
14371TIP3    H264529   1.699   5.862   1.685
14372TIP3   OH264530   5.375   2.307   4.693
14372TIP3    H164531   5.467   2.320   4.669
14372TIP3    H264532   5.378   2.269   4.780
14373TIP3   OH264533   1.214   0.017  15.911
14373TIP3    H164534   1.188  -0.062  15.959
14373TIP3    H264535   1.224   0.084  15.979
14374TIP3   OH264536   6.075   2.244  11.402
14374TIP3    H164537   5.986   2.208  11.400
14374TIP3    H264538   6.098   2.255  11.310
14375TIP3   OH264539   0.693   5.086   5.410
14375TIP3    H164540   0.652   5.155   5.358
14375TIP3    H264541   0.628   5.016   5.413
14376TIP3   OH264542   3.587   3.800  11.816
14376TIP3    H164543   3.651   3.840  11.758
14376TIP3    H264544   3.621   3.815  11.904
14377TIP3   OH264545   0.030   5.149  11.382
14377TIP3    H164546   0.014   5.239  11.411
14377TIP3    H264547   0.122   5.132  11.403
14378TIP3   OH264548   2.314   2.871   3.593
14378TIP3    H164549   2.279   2.792   3.553
14378TIP3    H264550   2.409   2.857   3.593
14379TIP3   OH264551   1.982   5.891  16.118
14379TIP3    H164552   2.027   5.974  16.133
14379TIP3    H264553   1.956   5.894  16.025
14380TIP3   OH264554   5.329   0.324   0.806
14380TIP3    H164555   5.372   0.242   0.832
14380TIP3    H264556   5.399   0.388   0.800
14381TIP3   OH264557   2.164   1.422   1.974
14381TIP3    H164558   2.181   1.406   2.067
14381TIP3    H264559   2.231   1.484   1.948
14382TIP3   OH264560   2.160   3.128   5.746
14382TIP3    H164561   2.209   3.047   5.761
14382TIP3    H264562   2.227   3.196   5.739
14383TIP3   OH264563   2.579   2.780  16.498
14383TIP3    H164564   2.527   2.857  16.477
14383TIP3    H264565   2.566   2.721  16.424
14384TIP3   OH264566   2.043   1.054  15.184
14384TIP3    H164567   1.996   1.093  15.257
14384TIP3    H264568   2.010   1.099  15.106
14385TIP3   OH264569   3.617   5.085   5.222
14385TIP3    H164570   3.558   5.038   5.163
14385TIP3    H264571   3.679   5.129   5.164
14386TIP3   OH264572   5.937   4.140  11.634
14386TIP3    H164573   5.933   4.052  11.597
14386TIP3    H264574   6.030   4.161  11.638
14387TIP3   OH264575   4.090   0.599  14.417
14387TIP3    H164576   4.044   0.668  14.465
14387TIP3    H264577   4.110   0.640  14.332
14388TIP3   OH264578   3.735   6.044  15.372
14388TIP3    H164579   3.777   6.130  15.368
14388TIP3    H264580   3.672   6.045  15.300
14389TIP3   OH264581   5.627   1.175  17.027
14389TIP3    H164582   5.539   1.162  16.992
14389TIP3    H264583   5.675   1.096  17.003
14390TIP3   OH264584   2.941   1.979   5.290
14390TIP3    H164585   2.978   1.949   5.207
14390TIP3    H264586   2.968   1.913   5.353
14391TIP3   OH264587   3.845   1.018  12.843
14391TIP3    H164588   3.783   0.946  12.858
14391TIP3    H264589   3.912   1.006  12.910
14392TIP3   OH264590   6.544   5.861  10.853
14392TIP3    H164591   6.477   5.874  10.920
14392TIP3    H264592   6.607   5.931  10.868
14393TIP3   OH264593   2.682   1.175   1.940
14393TIP3    H164594   2.620   1.102   1.949
14393TIP3    H264595   2.766   1.132   1.920
14394TIP3   OH264596   0.765   1.578   0.229
14394TIP3    H164597   0.688   1.616   0.187
14394TIP3    H264598   0.745   1.484   0.234
14395TIP3   OH264599   6.707   0.388   5.472
14395TIP3    H164600   6.753   0.353   5.396
14395TIP3    H264601   6.730   0.481   5.474
14396TIP3   OH264602   4.014   1.120  13.989
14396TIP3    H164603   3.971   1.038  14.012
14396TIP3    H264604   4.104   1.110  14.022
14397TIP3   OH264605   6.442   3.662   5.182
14397TIP3    H164606   6.375   3.686   5.119
14397TIP3    H264607   6.393   3.625   5.256
14398TIP3   OH264608   1.517   6.296   0.661
14398TIP3    H164609   1.464   6.221   0.688
14398TIP3    H264610   1.538   6.343   0.742
14399TIP3   OH264611   5.037   4.717  13.135
14399TIP3    H164612   5.001   4.647  13.079
14399TIP3    H264613   4.984   4.714  13.214
14400TIP3   OH264614   0.864   3.055   3.470
14400TIP3    H164615   0.887   2.967   3.498
14400TIP3    H264616   0.817   3.092   3.545
14401TIP3   OH264617   6.335   5.870   1.102
14401TIP3    H164618   6.326   5.818   1.022
14401TIP3    H264619   6.269   5.833   1.161
14402TIP3   OH264620   2.564   3.477   6.612
14402TIP3    H164621   2.482   3.479   6.662
14402TIP3    H264622   2.543   3.519   6.529
14403TIP3   OH264623   2.702   4.563   3.260
14403TIP3    H164624   2.628   4.623   3.256
14403TIP3    H264625   2.692   4.507   3.184
14404TIP3   OH264626   4.072   2.018  15.755
14404TIP3    H164627   3.995   1.962  15.744
14404TIP3    H264628   4.037   2.098  15.795
14405TIP3   OH264629   5.422   1.422  12.698
14405TIP3    H164630   5.451   1.505  12.660
14405TIP3    H264631   5.375   1.448  12.777
14406TIP3   OH264632   3.572   6.626  12.959
14406TIP3    H164633   3.582   6.709  12.913
14406TIP3    H264634   3.606   6.560  12.898
14407TIP3   OH264635   0.809   6.686  10.315
14407TIP3    H164636   0.744   6.688  10.386
14407TIP3    H264637   0.841   6.596  10.315
14408TIP3   OH264638   3.317   2.113  15.164
14408TIP3    H164639   3.333   2.040  15.222
14408TIP3    H264640   3.242   2.086  15.111
14409TIP3   OH264641   0.818   2.485  13.298
14409TIP3    H164642   0.818   2.557  13.360
14409TIP3    H264643   0.854   2.522  13.217
14410TIP3   OH264644   3.823   0.508  11.953
14410TIP3    H164645   3.805   0.467  12.037
14410TIP3    H264646   3.917   0.496  11.939
14411TIP3   OH264647   3.035   4.581   6.306
14411TIP3    H164648   2.955   4.533   6.325
14411TIP3    H264649   3.059   4.621   6.389
14412TIP3   OH264650   4.113   5.554  14.237
14412TIP3    H164651   4.196   5.580  14.277
14412TIP3    H264652   4.138   5.503  14.160
14413TIP3   OH264653   4.013   0.530   0.236
14413TIP3    H164654   3.923   0.546   0.266
14413TIP3    H264655   4.068   0.561   0.308
14414TIP3   OH264656   5.349   0.097   2.593
14414TIP3    H164657   5.384   0.012   2.568
14414TIP3    H264658   5.422   0.158   2.580
14415TIP3   OH264659   2.310   4.578  16.938
14415TIP3    H164660   2.387   4.574  16.994
14415TIP3    H264661   2.267   4.493  16.949
14416TIP3   OH264662   1.624   2.998   5.038
14416TIP3    H164663   1.558   2.998   4.969
14416TIP3    H264664   1.595   3.065   5.099
14417TIP3   OH264665   2.003   0.994  14.517
14417TIP3    H164666   1.940   0.973  14.449
14417TIP3    H264667   1.965   1.069  14.562
14418TIP3   OH264668   2.585   0.997  11.036
14418TIP3    H164669   2.636   1.042  10.969
14418TIP3    H264670   2.650   0.952  11.090
14419TIP3   OH264671   0.939   3.847   1.111
14419TIP3    H164672   0.951   3.806   1.025
14419TIP3    H264673   1.014   3.818   1.162
14420TIP3   OH264674   6.059   6.624  12.641
14420TIP3    H164675   6.126   6.688  12.662
14420TIP3    H264676   5.993   6.634  12.710
14421TIP3   OH264677   2.060   6.242   5.022
14421TIP3    H164678   2.013   6.204   5.096
14421TIP3    H264679   2.137   6.187   5.011
14422TIP3   OH264680   4.154   4.045  13.833
14422TIP3    H164681   4.067   4.051  13.873
14422TIP3    H264682   4.207   4.000  13.900
14423TIP3   OH264683   4.087   4.883   2.733
14423TIP3    H164684   4.064   4.918   2.647
14423TIP3    H264685   4.130   4.956   2.778
14424TIP3   OH264686   3.431   3.049   0.863
14424TIP3    H164687   3.524   3.029   0.876
14424TIP3    H264688   3.430   3.137   0.826
14425TIP3   OH264689   4.038   6.697  16.081
14425TIP3    H164690   4.060   6.606  16.064
14425TIP3    H264691   4.122   6.739  16.100
14426TIP3   OH264692   5.915   5.586  12.081
14426TIP3    H164693   5.906   5.553  12.170
14426TIP3    H264694   5.910   5.682  12.090
14427TIP3   OH264695   6.514   6.260  16.970
14427TIP3    H164696   6.551   6.173  16.956
14427TIP3    H264697   6.440   6.245  17.030
14428TIP3   OH264698   1.803   3.284  15.034
14428TIP3    H164699   1.867   3.349  15.004
14428TIP3    H264700   1.842   3.200  15.011
14429TIP3   OH264701   1.445   6.193  15.719
14429TIP3    H164702   1.433   6.254  15.646
14429TIP3    H264703   1.365   6.140  15.719
14430TIP3   OH264704   6.414   1.177   2.189
14430TIP3    H164705   6.424   1.261   2.144
14430TIP3    H264706   6.342   1.191   2.250
14431TIP3   OH264707   4.710   2.903   4.591
14431TIP3    H164708   4.669   2.817   4.584
14431TIP3    H264709   4.790   2.887   4.640
14432TIP3   OH264710   3.701   0.011  11.233
14432TIP3    H164711   3.738  -0.058  11.288
14432TIP3    H264712   3.710  -0.023  11.144
14433TIP3   OH264713   0.615   2.629  14.450
14433TIP3    H164714   0.709   2.642  14.457
14433TIP3    H264715   0.597   2.552  14.505
14434TIP3   OH264716   4.289   3.244  15.893
14434TIP3    H164717   4.211   3.245  15.948
14434TIP3    H264718   4.339   3.321  15.920
14435TIP3   OH264719   1.613   4.381   5.892
14435TIP3    H164720   1.696   4.429   5.889
14435TIP3    H264721   1.560   4.427   5.957
14436TIP3   OH264722   4.440   2.230   2.486
14436TIP3    H164723   4.390   2.168   2.540
14436TIP3    H264724   4.510   2.177   2.448
14437TIP3   OH264725   5.898   1.295  17.011
14437TIP3    H164726   5.804   1.276  17.021
14437TIP3    H264727   5.941   1.216  17.045
14438TIP3   OH264728   1.281   5.157  12.105
14438TIP3    H164729   1.279   5.095  12.178
14438TIP3    H264730   1.287   5.243  12.146
14439TIP3   OH264731   1.247   1.788  17.021
14439TIP3    H164732   1.273   1.833  16.941
14439TIP3    H264733   1.163   1.747  17.000
14440TIP3   OH264734   5.795   4.420  12.693
14440TIP3    H164735   5.825   4.484  12.758
14440TIP3    H264736   5.771   4.473  12.617
14441TIP3   OH264737   5.025   0.626  12.080
14441TIP3    H164738   5.002   0.708  12.123
14441TIP3    H264739   5.034   0.563  12.152
14442TIP3   OH264740   1.207   3.755   0.918
14442TIP3    H164741   1.127   3.704   0.934
14442TIP3    H264742   1.268   3.726   0.987
14443TIP3   OH264743   4.384   5.783  14.867
14443TIP3    H164744   4.307   5.750  14.820
14443TIP3    H264745   4.397   5.720  14.938
14444TIP3   OH264746   4.972   0.906   3.055
14444TIP3    H164747   5.050   0.917   3.110
14444TIP3    H264748   5.003   0.926   2.967
14445TIP3   OH264749   3.431   5.808  10.480
14445TIP3    H164750   3.408   5.717  10.499
14445TIP3    H264751   3.521   5.804  10.447
14446TIP3   OH264752   3.888   5.184  17.076
14446TIP3    H164753   3.973   5.157  17.041
14446TIP3    H264754   3.833   5.198  16.999
14447TIP3   OH264755   5.485   4.777   2.101
14447TIP3    H164756   5.502   4.861   2.060
14447TIP3    H264757   5.413   4.740   2.050
14448TIP3   OH264758   3.234   6.287   1.152
14448TIP3    H164759   3.261   6.212   1.099
14448TIP3    H264760   3.316   6.323   1.186
14449TIP3   OH264761   3.998   5.095   5.885
14449TIP3    H164762   3.922   5.037   5.880
14449TIP3    H264763   4.055   5.065   5.814
14450TIP3   OH264764   0.681   2.187   5.322
14450TIP3    H164765   0.697   2.193   5.416
14450TIP3    H264766   0.635   2.104   5.311
14451TIP3   OH264767   0.900   3.830   4.745
14451TIP3    H164768   0.995   3.840   4.742
14451TIP3    H264769   0.877   3.838   4.838
14452TIP3   OH264770   0.054   3.732  11.519
14452TIP3    H164771   0.060   3.724  11.614
14452TIP3    H264772   0.130   3.786  11.495
14453TIP3   OH264773   4.086   3.350   3.799
14453TIP3    H164774   4.026   3.399   3.855
14453TIP3    H264775   4.077   3.259   3.827
14454TIP3   OH264776   1.794   0.361  11.835
14454TIP3    H164777   1.730   0.293  11.854
14454TIP3    H264778   1.781   0.427  11.902
14455TIP3   OH264779   3.401   6.756  10.848
14455TIP3    H164780   3.437   6.709  10.773
14455TIP3    H264781   3.451   6.724  10.923
14456TIP3   OH264782   0.596   6.598   5.890
14456TIP3    H164783   0.558   6.540   5.825
14456TIP3    H264784   0.540   6.588   5.967
14457TIP3   OH264785   0.556   3.874   4.690
14457TIP3    H164786   0.553   3.913   4.778
14457TIP3    H264787   0.614   3.932   4.640
14458TIP3   OH264788   4.064   1.675   2.914
14458TIP3    H164789   4.140   1.679   2.973
14458TIP3    H264790   4.021   1.760   2.925
14459TIP3   OH264791   6.273   0.015  12.621
14459TIP3    H164792   6.349   0.070  12.600
14459TIP3    H264793   6.280  -0.003  12.714
14460TIP3   OH264794   4.514   2.604   6.663
14460TIP3    H164795   4.553   2.541   6.603
14460TIP3    H264796   4.589   2.636   6.715
14461TIP3   OH264797   4.446   4.322  13.222
14461TIP3    H164798   4.493   4.374  13.156
14461TIP3    H264799   4.482   4.234  13.212
14462TIP3   OH264800   6.637   6.118   1.376
14462TIP3    H164801   6.637   6.033   1.333
14462TIP3    H264802   6.642   6.098   1.469
14463TIP3   OH264803   2.092   1.126   3.892
14463TIP3    H164804   2.155   1.072   3.844
14463TIP3    H264805   2.128   1.215   3.888
14464TIP3   OH264806   5.573   5.235   1.028
14464TIP3    H164807   5.654   5.215   1.074
14464TIP3    H264808   5.597   5.237   0.936
14465TIP3   OH264809   0.324   5.477   5.952
14465TIP3    H164810   0.327   5.384   5.975
14465TIP3    H264811   0.409   5.511   5.979
14466TIP3   OH264812   1.893   3.723   0.507
14466TIP3    H164813   1.891   3.663   0.433
14466TIP3    H264814   1.886   3.810   0.467
14467TIP3   OH264815   2.331   3.901  14.879
14467TIP3    H164816   2.294   3.819  14.846
14467TIP3    H264817   2.421   3.900  14.848
14468TIP3   OH264818   5.384   0.678  13.798
14468TIP3    H164819   5.344   0.672  13.711
14468TIP3    H264820   5.476   0.696  13.781
14469TIP3   OH264821   3.352   1.729  12.265
14469TIP3    H164822   3.284   1.788  12.298
14469TIP3    H264823   3.397   1.779  12.198
14470TIP3   OH264824   1.029   2.014  14.453
14470TIP3    H164825   0.981   1.935  14.431
14470TIP3    H264826   1.101   1.985  14.508
14471TIP3   OH264827   3.229   4.206  14.333
14471TIP3    H164828   3.287   4.219  14.408
14471TIP3    H264829   3.210   4.294  14.302
14472TIP3   OH264830   5.453   2.550  11.028
14472TIP3    H164831   5.533   2.598  11.049
14472TIP3    H264832   5.447   2.481  11.095
14473TIP3   OH264833   0.619   4.713   2.756
14473TIP3    H164834   0.526   4.729   2.741
14473TIP3    H264835   0.661   4.798   2.741
14474TIP3   OH264836   3.697   5.677   6.384
14474TIP3    H164837   3.660   5.595   6.351
14474TIP3    H264838   3.758   5.705   6.316
14475TIP3   OH264839   3.223   1.314  15.020
14475TIP3    H164840   3.270   1.361  15.089
14475TIP3    H264841   3.264   1.227  15.017
14476TIP3   OH264842   2.412   1.542  15.397
14476TIP3    H164843   2.467   1.464  15.395
14476TIP3    H264844   2.474   1.615  15.399
14477TIP3   OH264845   6.423   3.667   3.599
14477TIP3    H164846   6.478   3.589   3.594
14477TIP3    H264847   6.350   3.649   3.540
14478TIP3   OH264848   6.608   5.027   5.651
14478TIP3    H164849   6.685   5.027   5.595
14478TIP3    H264850   6.558   5.104   5.623
14479TIP3   OH264851   4.695   0.897   4.726
14479TIP3    H164852   4.600   0.898   4.738
14479TIP3    H264853   4.731   0.927   4.809
14480TIP3   OH264854   0.846   1.872  13.386
14480TIP3    H164855   0.858   1.946  13.327
14480TIP3    H264856   0.842   1.795  13.329
14481TIP3   OH264857   2.216   0.406  15.009
14481TIP3    H164858   2.222   0.454  15.092
14481TIP3    H264859   2.127   0.423  14.978
14482TIP3   OH264860   0.820   5.912  11.664
14482TIP3    H164861   0.753   5.957  11.715
14482TIP3    H264862   0.879   5.875  11.730
14483TIP3   OH264863   3.540   5.866  10.993
14483TIP3    H164864   3.556   5.809  10.918
14483TIP3    H264865   3.479   5.932  10.961
14484TIP3   OH264866   0.609   3.279   6.155
14484TIP3    H164867   0.675   3.249   6.217
14484TIP3    H264868   0.544   3.209   6.152
14485TIP3   OH264869   2.833   0.288  16.503
14485TIP3    H164870   2.788   0.207  16.530
14485TIP3    H264871   2.886   0.262  16.428
14486TIP3   OH264872   4.245   0.962   5.033
14486TIP3    H164873   4.321   1.013   5.062
14486TIP3    H264874   4.282   0.891   4.982
14487TIP3   OH264875   4.692   5.018   2.904
14487TIP3    H164876   4.675   5.065   2.985
14487TIP3    H264877   4.779   5.045   2.878
14488TIP3   OH264878   4.334   1.953   5.746
14488TIP3    H164879   4.247   1.935   5.712
14488TIP3    H264880   4.380   1.870   5.739
14489TIP3   OH264881   0.495   4.328   3.360
14489TIP3    H164882   0.549   4.275   3.300
14489TIP3    H264883   0.549   4.405   3.378
14490TIP3   OH264884   3.704   2.872   1.350
14490TIP3    H164885   3.775   2.905   1.404
14490TIP3    H264886   3.747   2.837   1.272
14491TIP3   OH264887   3.838   4.120   3.427
14491TIP3    H164888   3.824   4.095   3.336
14491TIP3    H264889   3.758   4.167   3.451
14492TIP3   OH264890   0.236   4.006  16.695
14492TIP3    H164891   0.251   3.953  16.773
14492TIP3    H264892   0.251   3.946  16.622
14493TIP3   OH264893   0.452   3.671   4.988
14493TIP3    H164894   0.420   3.636   4.905
14493TIP3    H264895   0.381   3.652   5.051
14494TIP3   OH264896   2.185   5.364  16.191
14494TIP3    H164897   2.163   5.422  16.117
14494TIP3    H264898   2.199   5.278  16.150
14495TIP3   OH264899   5.029   1.364  13.027
14495TIP3    H164900   5.086   1.290  13.007
14495TIP3    H264901   5.019   1.362  13.122
14496TIP3   OH264902   5.530   4.634   2.527
14496TIP3    H164903   5.572   4.625   2.612
14496TIP3    H264904   5.438   4.647   2.547
14497TIP3   OH264905   5.808   3.733  15.543
14497TIP3    H164906   5.794   3.700  15.632
14497TIP3    H264907   5.839   3.823  15.554
14498TIP3   OH264908   3.616   3.445  11.004
14498TIP3    H164909   3.702   3.479  11.031
14498TIP3    H264910   3.610   3.466  10.911
14499TIP3   OH264911   2.534   5.606  15.862
14499TIP3    H164912   2.582   5.670  15.914
14499TIP3    H264913   2.443   5.615  15.890
14500TIP3   OH264914   1.571   6.541   1.558
14500TIP3    H164915   1.486   6.505   1.532
14500TIP3    H264916   1.561   6.636   1.548
14501TIP3   OH264917   6.142   1.806  15.799
14501TIP3    H164918   6.212   1.870  15.786
14501TIP3    H264919   6.069   1.839  15.748
14502TIP3   OH264920   1.959   6.096  10.743
14502TIP3    H164921   2.042   6.072  10.703
14502TIP3    H264922   1.969   6.073  10.835
14503TIP3   OH264923   6.218   3.433  15.947
14503TIP3    H164924   6.208   3.344  15.982
14503TIP3    H264925   6.213   3.490  16.024
14504TIP3   OH264926   1.138   1.659   0.008
14504TIP3    H164927   1.202   1.712   0.056
14504TIP3    H264928   1.172   1.655  -0.081
14505TIP3   OH264929   6.646   5.779   0.221
14505TIP3    H164930   6.686   5.734   0.296
14505TIP3    H264931   6.641   5.871   0.248
14506TIP3   OH264932   4.134   5.183  15.589
14506TIP3    H164933   4.101   5.221  15.507
14506TIP3    H264934   4.193   5.250  15.624
14507TIP3   OH264935   3.248   4.538   0.417
14507TIP3    H164936   3.207   4.603   0.360
14507TIP3    H264937   3.309   4.588   0.472
14508TIP3   OH264938   5.032   2.550  12.019
14508TIP3    H164939   4.947   2.595  12.011
14508TIP3    H264940   5.060   2.537  11.929
14509TIP3   OH264941   4.508   0.800   5.631
14509TIP3    H164942   4.501   0.721   5.683
14509TIP3    H264943   4.507   0.872   5.695
14510TIP3   OH264944   1.668   0.601   3.317
14510TIP3    H164945   1.628   0.516   3.337
14510TIP3    H264946   1.603   0.645   3.262
14511TIP3   OH264947   6.116   0.581   3.868
14511TIP3    H164948   6.087   0.629   3.790
14511TIP3    H264949   6.044   0.592   3.931
14512TIP3   OH264950   3.168   5.400  17.165
14512TIP3    H164951   3.257   5.429  17.148
14512TIP3    H264952   3.124   5.478  17.201
14513TIP3   OH264953   0.214   1.973   2.671
14513TIP3    H164954   0.168   1.960   2.754
14513TIP3    H264955   0.293   1.918   2.679
14514TIP3   OH264956   4.623   0.506  11.252
14514TIP3    H164957   4.704   0.462  11.227
14514TIP3    H264958   4.607   0.569  11.182
14515TIP3   OH264959   3.703   1.516   3.797
14515TIP3    H164960   3.727   1.436   3.750
14515TIP3    H264961   3.777   1.575   3.783
14516TIP3   OH264962   4.698   2.134   4.623
14516TIP3    H164963   4.618   2.138   4.570
14516TIP3    H264964   4.764   2.098   4.564
14517TIP3   OH264965   5.916   6.112  12.276
14517TIP3    H164966   5.906   6.019  12.299
14517TIP3    H264967   5.994   6.114  12.222
14518TIP3   OH264968   1.392   2.550   2.840
14518TIP3    H164969   1.315   2.538   2.785
14518TIP3    H264970   1.465   2.513   2.789
14519TIP3   OH264971   1.248   1.779   2.151
14519TIP3    H164972   1.241   1.860   2.101
14519TIP3    H264973   1.342   1.771   2.169
14520TIP3   OH264974   1.002   1.431   5.648
14520TIP3    H164975   1.016   1.473   5.733
14520TIP3    H264976   1.001   1.337   5.667
14521TIP3   OH264977   1.405   1.757  11.751
14521TIP3    H164978   1.366   1.844  11.742
14521TIP3    H264979   1.468   1.752  11.678
14522TIP3   OH264980   1.687   5.748   6.045
14522TIP3    H164981   1.623   5.755   6.115
14522TIP3    H264982   1.640   5.775   5.966
14523TIP3   OH264983   3.237   4.237   0.719
14523TIP3    H164984   3.313   4.183   0.743
14523TIP3    H264985   3.258   4.324   0.754
14524TIP3   OH264986   5.217   4.624  14.378
14524TIP3    H164987   5.179   4.649  14.294
14524TIP3    H264988   5.157   4.560  14.414
14525TIP3   OH264989   3.219   1.164  14.660
14525TIP3    H164990   3.303   1.119  14.652
14525TIP3    H264991   3.176   1.148  14.576
14526TIP3   OH264992   3.018   0.795  11.078
14526TIP3    H164993   3.104   0.757  11.060
14526TIP3    H264994   2.969   0.725  11.121
14527TIP3   OH264995   4.277   0.159  13.083
14527TIP3    H164996   4.246   0.223  13.018
14527TIP3    H264997   4.197   0.113  13.110
14528TIP3   OH264998   1.452   5.712  17.180
14528TIP3    H164999   1.398   5.652  17.233
14528TIP3    H265000   1.506   5.654  17.127
14529TIP3   OH265001   4.071   1.433   2.702
14529TIP3    H165002   4.074   1.337   2.696
14529TIP3    H265003   4.135   1.455   2.770
14530TIP3   OH265004   5.087   2.550   0.767
14530TIP3    H165005   5.035   2.629   0.784
14530TIP3    H265006   5.093   2.547   0.671
14531TIP3   OH265007   4.410   6.260   5.024
14531TIP3    H165008   4.474   6.233   4.959
14531TIP3    H265009   4.425   6.202   5.099
14532TIP3   OH265010   6.273   5.620  13.961
14532TIP3    H165011   6.318   5.705  13.955
14532TIP3    H265012   6.343   5.556  13.946
14533TIP3   OH265013   2.816   6.154   2.402
14533TIP3    H165014   2.816   6.206   2.322
14533TIP3    H265015   2.834   6.217   2.472
14534TIP3   OH265016   3.281   3.944  16.782
14534TIP3    H165017   3.232   3.929  16.700
14534TIP3    H265018   3.369   3.967  16.754
14535TIP3   OH265019   5.776   5.925  10.673
14535TIP3    H165020   5.803   6.011  10.706
14535TIP3    H265021   5.859   5.882  10.649
14536TIP3   OH265022   4.314   3.606   5.830
14536TIP3    H165023   4.249   3.662   5.788
14536TIP3    H265024   4.351   3.554   5.758
14537TIP3   OH265025   6.304   0.262   2.390
14537TIP3    H165026   6.266   0.223   2.311
14537TIP3    H265027   6.304   0.356   2.372
14538TIP3   OH265028   3.168   5.164  15.390
14538TIP3    H165029   3.211   5.089  15.433
14538TIP3    H265030   3.185   5.151  15.297
14539TIP3   OH265031   3.416   4.600   1.727
14539TIP3    H165032   3.485   4.543   1.764
14539TIP3    H265033   3.334   4.556   1.749
14540TIP3   OH265034   5.497   1.236   5.508
14540TIP3    H165035   5.550   1.157   5.511
14540TIP3    H265036   5.435   1.221   5.437
14541TIP3   OH265037   4.088   5.177  11.127
14541TIP3    H165038   4.078   5.082  11.117
14541TIP3    H265039   4.072   5.193  11.220
14542TIP3   OH265040   3.383   3.920  14.571
14542TIP3    H165041   3.303   3.921  14.519
14542TIP3    H265042   3.354   3.936  14.661
14543TIP3   OH265043   4.216   2.040   0.053
14543TIP3    H165044   4.299   2.087   0.046
14543TIP3    H265045   4.171   2.059  -0.030
14544TIP3   OH265046   4.079   1.768  12.247
14544TIP3    H165047   4.019   1.695  12.263
14544TIP3    H265048   4.102   1.799  12.335
14545TIP3   OH265049   0.381   4.102  11.150
14545TIP3    H165050   0.428   4.176  11.187
14545TIP3    H265051   0.418   4.090  11.063
14546TIP3   OH265052   4.506   2.249  11.256
14546TIP3    H165053   4.480   2.242  11.164
14546TIP3    H265054   4.544   2.337  11.264
14547TIP3   OH265055   1.970   0.268  11.563
14547TIP3    H165056   1.975   0.203  11.633
14547TIP3    H265057   1.932   0.221  11.489
14548TIP3   OH265058   6.112   2.966  13.508
14548TIP3    H165059   6.067   2.899  13.561
14548TIP3    H265060   6.089   3.049  13.550
14549TIP3   OH265061   4.573   0.681   0.105
14549TIP3    H165062   4.506   0.746   0.088
14549TIP3    H265063   4.617   0.711   0.185
14550TIP3   OH265064   6.433   1.856  13.263
14550TIP3    H165065   6.380   1.935  13.254
14550TIP3    H265066   6.448   1.827  13.173
14551TIP3   OH265067   2.710   2.596  11.026
14551TIP3    H165068   2.753   2.656  10.966
14551TIP3    H265069   2.748   2.615  11.112
14552TIP3   OH265070   3.398   4.737   5.650
14552TIP3    H165071   3.439   4.823   5.661
14552TIP3    H265072   3.351   4.722   5.732
14553TIP3   OH265073   4.185   5.023   4.390
14553TIP3    H165074   4.160   5.114   4.407
14553TIP3    H265075   4.220   4.992   4.474
14554TIP3   OH265076   2.997   5.190  15.833
14554TIP3    H165077   2.999   5.187  15.929
14554TIP3    H265078   3.056   5.262  15.810
14555TIP3   OH265079   2.136   0.173  16.494
14555TIP3    H165080   2.189   0.100  16.524
14555TIP3    H265081   2.059   0.173  16.551
14556TIP3   OH265082   5.273   1.887  15.799
14556TIP3    H165083   5.326   1.963  15.777
14556TIP3    H265084   5.332   1.829  15.847
14557TIP3   OH265085   3.959   5.960  11.069
14557TIP3    H165086   3.969   5.877  11.115
14557TIP3    H265087   4.046   5.978  11.032
14558TIP3   OH265088   6.391   4.925  12.546
14558TIP3    H165089   6.370   4.941  12.638
14558TIP3    H265090   6.480   4.958  12.535
14559TIP3   OH265091   0.285   6.257   2.840
14559TIP3    H165092   0.207   6.243   2.786
14559TIP3    H265093   0.252   6.291   2.923
14560TIP3   OH265094   1.211   5.061   4.786
14560TIP3    H165095   1.161   5.139   4.808
14560TIP3    H265096   1.196   5.047   4.693
14561TIP3   OH265097   6.065   6.524   0.053
14561TIP3    H165098   6.097   6.598   0.001
14561TIP3    H265099   5.982   6.554   0.091
14562TIP3   OH265100   0.317   4.963   0.786
14562TIP3    H165101   0.397   4.918   0.761
14562TIP3    H265102   0.259   4.956   0.710
14563TIP3   OH265103   4.933   5.902   3.928
14563TIP3    H165104   4.884   5.902   3.845
14563TIP3    H265105   4.946   5.995   3.947
14564TIP3   OH265106   2.614   1.667   1.121
14564TIP3    H165107   2.672   1.623   1.059
14564TIP3    H265108   2.562   1.597   1.160
14565TIP3   OH265109   1.374   0.272  13.391
14565TIP3    H165110   1.452   0.321  13.417
14565TIP3    H265111   1.336   0.241  13.473
14566TIP3   OH265112   1.767   0.266   3.171
14566TIP3    H165113   1.825   0.202   3.211
14566TIP3    H265114   1.695   0.275   3.233
14567TIP3   OH265115   0.102   4.306   2.903
14567TIP3    H165116   0.190   4.343   2.907
14567TIP3    H265117   0.062   4.345   2.826
14568TIP3   OH265118   1.307   0.794  13.602
14568TIP3    H165119   1.333   0.815  13.512
14568TIP3    H265120   1.248   0.719  13.593
14569TIP3   OH265121   6.378   0.925  11.938
14569TIP3    H165122   6.439   0.852  11.952
14569TIP3    H265123   6.326   0.898  11.862
14570TIP3   OH265124   3.231   3.208  14.923
14570TIP3    H165125   3.166   3.156  14.971
14570TIP3    H265126   3.309   3.153  14.922
14571TIP3   OH265127   1.179   4.869   2.494
14571TIP3    H165128   1.143   4.957   2.477
14571TIP3    H265129   1.233   4.881   2.572
14572TIP3   OH265130   3.124   4.403   4.681
14572TIP3    H165131   3.178   4.457   4.740
14572TIP3    H265132   3.042   4.392   4.728
14573TIP3   OH265133   0.896   0.267  14.401
14573TIP3    H165134   0.848   0.192  14.368
14573TIP3    H265135   0.980   0.264  14.355
14574TIP3   OH265136   4.358   1.374  16.195
14574TIP3    H165137   4.393   1.360  16.107
14574TIP3    H265138   4.337   1.286  16.226
14575TIP3   OH265139   0.139   0.409  13.878
14575TIP3    H165140   0.134   0.340  13.812
14575TIP3    H265141   0.049   0.440  13.889
14576TIP3   OH265142   0.497   3.707  14.019
14576TIP3    H165143   0.530   3.796  14.030
14576TIP3    H265144   0.446   3.689  14.098
14577TIP3   OH265145   6.504   0.861   2.519
14577TIP3    H165146   6.482   0.849   2.427
14577TIP3    H265147   6.436   0.813   2.567
14578TIP3   OH265148   6.637   6.425  16.558
14578TIP3    H165149   6.660   6.477  16.481
14578TIP3    H265150   6.715   6.371  16.574
14579TIP3   OH265151   3.679   4.759   3.455
14579TIP3    H165152   3.678   4.711   3.538
14579TIP3    H265153   3.682   4.691   3.388
14580TIP3   OH265154   2.905   3.714  16.307
14580TIP3    H165155   2.853   3.643  16.269
14580TIP3    H265156   2.890   3.788  16.248
14581TIP3   OH265157   6.000   3.890   0.587
14581TIP3    H165158   6.045   3.835   0.651
14581TIP3    H265159   6.037   3.865   0.502
14582TIP3   OH265160   1.341   4.447  12.039
14582TIP3    H165161   1.296   4.530  12.021
14582TIP3    H265162   1.410   4.443  11.972
14583TIP3   OH265163   6.138   4.981  13.002
14583TIP3    H165164   6.150   4.940  13.087
14583TIP3    H265165   6.043   4.981  12.988
14584TIP3   OH265166   4.098   5.322   5.339
14584TIP3    H165167   4.009   5.337   5.372
14584TIP3    H265168   4.092   5.345   5.246
14585TIP3   OH265169   1.684   0.492   5.637
14585TIP3    H165170   1.735   0.573   5.636
14585TIP3    H265171   1.596   0.519   5.610
14586TIP3   OH265172   4.432   0.122  11.441
14586TIP3    H165173   4.486   0.198  11.465
14586TIP3    H265174   4.488   0.047  11.458
14587TIP3   OH265175   3.576   0.541  15.815
14587TIP3    H165176   3.622   0.618  15.783
14587TIP3    H265177   3.484   0.558  15.796
14588TIP3   OH265178   3.514   0.772  14.836
14588TIP3    H165179   3.459   0.696  14.854
14588TIP3    H265180   3.567   0.782  14.915
14589TIP3   OH265181   6.377   0.535  11.314
14589TIP3    H165182   6.348   0.447  11.337
14589TIP3    H265183   6.297   0.587  11.312
14590TIP3   OH265184   2.213   3.144   6.122
14590TIP3    H165185   2.143   3.210   6.121
14590TIP3    H265186   2.293   3.194   6.106
14591TIP3   OH265187   6.087   4.602   6.445
14591TIP3    H165188   6.116   4.527   6.393
14591TIP3    H265189   6.167   4.639   6.482
14592TIP3   OH265190   4.032   0.382   4.162
14592TIP3    H165191   4.081   0.304   4.189
14592TIP3    H265192   3.941   0.351   4.156
14593TIP3   OH265193   2.600   4.254  15.250
14593TIP3    H165194   2.624   4.191  15.318
14593TIP3    H265195   2.661   4.236  15.178
14594TIP3   OH265196   0.879   5.067   1.299
14594TIP3    H165197   0.791   5.078   1.265
14594TIP3    H265198   0.878   5.112   1.384
14595TIP3   OH265199   0.111   6.571   1.149
14595TIP3    H165200   0.106   6.525   1.233
14595TIP3    H265201   0.113   6.664   1.173
14596TIP3   OH265202   5.032   6.364   5.583
14596TIP3    H165203   5.098   6.400   5.643
14596TIP3    H265204   4.961   6.428   5.585
14597TIP3   OH265205   5.878   1.436   5.472
14597TIP3    H165206   5.932   1.388   5.410
14597TIP3    H265207   5.901   1.400   5.558
14598TIP3   OH265208   6.316   1.065   5.590
14598TIP3    H165209   6.341   1.056   5.498
14598TIP3    H265210   6.327   1.158   5.609
14599TIP3   OH265211   3.647   6.614  14.736
14599TIP3    H165212   3.719   6.598  14.675
14599TIP3    H265213   3.662   6.551  14.807
14600TIP3   OH265214   1.689   5.934   1.023
14600TIP3    H165215   1.766   5.897   0.980
14600TIP3    H265216   1.623   5.939   0.954
14601TIP3   OH265217   0.208   2.351  12.544
14601TIP3    H165218   0.205   2.430  12.598
14601TIP3    H265219   0.233   2.282  12.606
14602TIP3   OH265220   3.358   5.184   6.024
14602TIP3    H165221   3.437   5.146   5.985
14602TIP3    H265222   3.312   5.109   6.063
14603TIP3   OH265223   5.762   1.243   2.462
14603TIP3    H165224   5.712   1.297   2.400
14603TIP3    H265225   5.759   1.292   2.544
14604TIP3   OH265226   5.856   5.891  16.748
14604TIP3    H165227   5.775   5.941  16.735
14604TIP3    H265228   5.896   5.889  16.662
14605TIP3   OH265229   5.471   3.941  16.537
14605TIP3    H165230   5.497   3.969  16.450
14605TIP3    H265231   5.452   3.847  16.527
14606TIP3   OH265232   4.500   1.235  11.228
14606TIP3    H165233   4.447   1.170  11.181
14606TIP3    H265234   4.471   1.228  11.319
14607TIP3   OH265235   3.268   4.279  14.048
14607TIP3    H165236   3.258   4.353  14.107
14607TIP3    H265237   3.203   4.294  13.979
14608TIP3   OH265238   1.696   4.856  14.445
14608TIP3    H165239   1.707   4.803  14.366
14608TIP3    H265240   1.677   4.793  14.514
14609TIP3   OH265241   5.528   2.708   4.238
14609TIP3    H165242   5.539   2.802   4.226
14609TIP3    H265243   5.577   2.688   4.318
14610TIP3   OH265244   3.844   0.971  13.299
14610TIP3    H165245   3.859   1.062  13.275
14610TIP3    H265246   3.931   0.932  13.304
14611TIP3   OH265247   1.248   3.865  14.029
14611TIP3    H165248   1.254   3.960  14.015
14611TIP3    H265249   1.286   3.827  13.950
14612TIP3   OH265250   3.395   0.261   5.616
14612TIP3    H165251   3.309   0.300   5.634
14612TIP3    H265252   3.425   0.230   5.701
14613TIP3   OH265253   3.461   2.367   5.499
14613TIP3    H165254   3.516   2.329   5.568
14613TIP3    H265255   3.405   2.430   5.544
14614TIP3   OH265256   1.940   2.869   2.334
14614TIP3    H165257   2.007   2.846   2.397
14614TIP3    H265258   1.943   2.965   2.330
14615TIP3   OH265259   2.330   6.235   6.530
14615TIP3    H165260   2.312   6.192   6.614
14615TIP3    H265261   2.415   6.202   6.503
14616TIP3   OH265262   1.725   0.417   2.463
14616TIP3    H165263   1.689   0.336   2.499
14616TIP3    H265264   1.692   0.421   2.373
14617TIP3   OH265265   4.431   4.054  16.170
14617TIP3    H165266   4.397   4.091  16.252
14617TIP3    H265267   4.422   4.125  16.106
14618TIP3   OH265268   2.273   5.494   2.272
14618TIP3    H165269   2.310   5.406   2.262
14618TIP3    H265270   2.179   5.479   2.283
14619TIP3   OH265271   2.645   1.423   1.823
14619TIP3    H165272   2.705   1.492   1.852
14619TIP3    H265273   2.668   1.347   1.877
14620TIP3   OH265274   5.078   2.957   5.204
14620TIP3    H165275   5.159   2.969   5.254
14620TIP3    H265276   5.098   2.887   5.142
14621TIP3   OH265277   1.873   0.039  11.705
14621TIP3    H165278   1.921   0.003  11.780
14621TIP3    H265279   1.785   0.002  11.714
14622TIP3   OH265280   6.034   0.314  10.386
14622TIP3    H165281   5.956   0.275  10.348
14622TIP3    H265282   6.081   0.241  10.427
14623TIP3   OH265283   3.991   2.448  11.767
14623TIP3    H165284   4.073   2.477  11.729
14623TIP3    H265285   4.017   2.384  11.833
14624TIP3   OH265286   5.705   4.136   1.748
14624TIP3    H165287   5.692   4.068   1.814
14624TIP3    H265288   5.741   4.210   1.797
14625TIP3   OH265289   3.761   1.609   3.438
14625TIP3    H165290   3.765   1.692   3.391
14625TIP3    H265291   3.817   1.622   3.515
14626TIP3   OH265292   5.300   6.478  12.445
14626TIP3    H165293   5.339   6.554  12.488
14626TIP3    H265294   5.295   6.411  12.513
14627TIP3   OH265295   3.006   1.796  15.298
14627TIP3    H165296   3.094   1.821  15.270
14627TIP3    H265297   3.009   1.702  15.311
14628TIP3   OH265298   2.993   4.238  11.682
14628TIP3    H165299   2.931   4.311  11.676
14628TIP3    H265300   3.030   4.245  11.770
14629TIP3   OH265301   5.225   1.994   2.096
14629TIP3    H165302   5.252   1.907   2.066
14629TIP3    H265303   5.196   2.039   2.016
14630TIP3   OH265304   0.219   4.442  15.745
14630TIP3    H165305   0.185   4.459  15.657
14630TIP3    H265306   0.267   4.359  15.737
14631TIP3   OH265307   0.339   3.740  12.697
14631TIP3    H165308   0.286   3.665  12.669
14631TIP3    H265309   0.344   3.733  12.792
14632TIP3   OH265310   6.675   3.447   1.914
14632TIP3    H165311   6.629   3.384   1.970
14632TIP3    H265312   6.710   3.512   1.975
14633TIP3   OH265313   2.724   1.183  15.790
14633TIP3    H165314   2.736   1.277  15.799
14633TIP3    H265315   2.710   1.169  15.697
14634TIP3   OH265316   4.113   4.254  16.779
14634TIP3    H165317   4.093   4.245  16.686
14634TIP3    H265318   4.130   4.348  16.791
14635TIP3   OH265319   2.533   4.456   6.076
14635TIP3    H165320   2.455   4.459   6.131
14635TIP3    H265321   2.529   4.372   6.031
14636TIP3   OH265322   0.750   5.032   3.215
14636TIP3    H165323   0.762   5.000   3.125
14636TIP3    H265324   0.839   5.036   3.250
14637TIP3   OH265325   2.687   5.032   2.234
14637TIP3    H165326   2.684   4.989   2.319
14637TIP3    H265327   2.748   4.980   2.182
14638TIP3   OH265328   6.731   3.579   5.794
14638TIP3    H165329   6.671   3.507   5.812
14638TIP3    H265330   6.690   3.655   5.833
14639TIP3   OH265331   2.239   6.091   0.208
14639TIP3    H165332   2.176   6.076   0.278
14639TIP3    H265333   2.322   6.060   0.243
14640TIP3   OH265334   6.307   0.788  15.310
14640TIP3    H165335   6.229   0.739  15.282
14640TIP3    H265336   6.320   0.762  15.401
14641TIP3   OH265337   3.825   3.866  13.970
14641TIP3    H165338   3.771   3.945  13.971
14641TIP3    H265339   3.763   3.795  13.951
14642TIP3   OH265340   5.664   5.094  12.307
14642TIP3    H165341   5.721   5.067  12.379
14642TIP3    H265342   5.688   5.185  12.291
14643TIP3   OH265343   1.389   0.911  11.018
14643TIP3    H165344   1.465   0.912  10.960
14643TIP3    H265345   1.409   0.978  11.084
14644TIP3   OH265346   3.656   2.980   1.743
14644TIP3    H165347   3.564   3.000   1.765
14644TIP3    H265348   3.687   3.058   1.697
14645TIP3   OH265349   4.062   0.241  11.913
14645TIP3    H165350   4.124   0.211  11.979
14645TIP3    H265351   4.068   0.336  11.916
14646TIP3   OH265352   4.069   6.488   0.773
14646TIP3    H165353   4.141   6.435   0.738
14646TIP3    H265354   4.103   6.578   0.772
14647TIP3   OH265355   0.184   1.997   0.057
14647TIP3    H165356   0.180   2.023  -0.035
14647TIP3    H265357   0.234   2.067   0.099
14648TIP3   OH265358   4.153   6.570   3.120
14648TIP3    H165359   4.062   6.548   3.141
14648TIP3    H265360   4.200   6.487   3.127
14649TIP3   OH265361   3.947   1.643   3.665
14649TIP3    H165362   4.013   1.709   3.643
14649TIP3    H265363   3.942   1.644   3.760
14650TIP3   OH265364   3.528   0.354  14.484
14650TIP3    H165365   3.587   0.404  14.542
14650TIP3    H265366   3.490   0.421  14.427
14651TIP3   OH265367   6.483   0.662  14.797
14651TIP3    H165368   6.528   0.714  14.730
14651TIP3    H265369   6.417   0.721  14.833
14652TIP3   OH265370   2.928   4.071   1.633
14652TIP3    H165371   2.942   4.056   1.539
14652TIP3    H265372   2.895   3.988   1.666
14653TIP3   OH265373   1.738   6.287   1.561
14653TIP3    H165374   1.710   6.376   1.582
14653TIP3    H265375   1.724   6.238   1.641
14654TIP3   OH265376   3.632   2.205   5.876
14654TIP3    H165377   3.697   2.181   5.809
14654TIP3    H265378   3.682   2.204   5.958
14655TIP3   OH265379   6.082   0.940   2.364
14655TIP3    H165380   5.988   0.945   2.381
14655TIP3    H265381   6.102   1.018   2.313
14656TIP3   OH265382   3.551   4.726  12.988
14656TIP3    H165383   3.623   4.776  12.949
14656TIP3    H265384   3.515   4.675  12.915
14657TIP3   OH265385   0.864   6.267  15.605
14657TIP3    H165386   0.950   6.309  15.612
14657TIP3    H265387   0.802   6.340  15.614
14658TIP3   OH265388   2.570   3.178  11.929
14658TIP3    H165389   2.536   3.258  11.887
14658TIP3    H265390   2.556   3.193  12.022
14659TIP3   OH265391   4.749   1.897  16.118
14659TIP3    H165392   4.765   1.886  16.025
14659TIP3    H265393   4.704   1.981  16.126
14660TIP3   OH265394   1.286   4.210   1.993
14660TIP3    H165395   1.347   4.280   1.969
14660TIP3    H265396   1.324   4.131   1.953
14661TIP3   OH265397   3.733   1.063   5.054
14661TIP3    H165398   3.717   0.968   5.049
14661TIP3    H265399   3.828   1.071   5.064
14662TIP3   OH265400   1.118   5.361   0.767
14662TIP3    H165401   1.154   5.295   0.708
14662TIP3    H265402   1.194   5.398   0.812
14663TIP3   OH265403   6.082   1.205  13.275
14663TIP3    H165404   6.013   1.141  13.260
14663TIP3    H265405   6.037   1.281  13.311
14664TIP3   OH265406   2.383   0.110  15.552
14664TIP3    H165407   2.363   0.046  15.620
14664TIP3    H265408   2.478   0.122  15.557
14665TIP3   OH265409   4.186   2.401   3.659
14665TIP3    H165410   4.150   2.383   3.572
14665TIP3    H265411   4.120   2.457   3.700
14666TIP3   OH265412   0.468   2.705   5.023
14666TIP3    H165413   0.399   2.766   5.044
14666TIP3    H265414   0.458   2.634   5.087
14667TIP3   OH265415   2.062   6.065   0.399
14667TIP3    H165416   2.045   5.982   0.444
14667TIP3    H265417   1.989   6.074   0.338
14668TIP3   OH265418   5.671   4.304   2.745
14668TIP3    H165419   5.608   4.233   2.735
14668TIP3    H265420   5.691   4.331   2.656
14669TIP3   OH265421   3.457   1.948  11.783
14669TIP3    H165422   3.503   2.025  11.817
14669TIP3    H265423   3.526   1.894  11.745
14670TIP3   OH265424   4.217   4.355  13.837
14670TIP3    H165425   4.238   4.266  13.865
14670TIP3    H265426   4.275   4.411  13.889
14671TIP3   OH265427   0.009   4.402  11.290
14671TIP3    H165428  -0.034   4.488  11.293
14671TIP3    H265429  -0.022   4.363  11.209
14672TIP3   OH265430   1.802   6.088  11.777
14672TIP3    H165431   1.868   6.151  11.808
14672TIP3    H265432   1.756   6.135  11.708
14673TIP3   OH265433   2.937   2.275   2.160
14673TIP3    H165434   2.927   2.229   2.244
14673TIP3    H265435   3.007   2.227   2.115
14674TIP3   OH265436   6.573   5.814  11.308
14674TIP3    H165437   6.620   5.749  11.360
14674TIP3    H265438   6.500   5.842  11.363
14675TIP3   OH265439   1.463   0.831  16.727
14675TIP3    H165440   1.476   0.889  16.651
14675TIP3    H265441   1.517   0.869  16.796
14676TIP3   OH265442   5.117   4.312   5.992
14676TIP3    H165443   5.154   4.392   5.955
14676TIP3    H265444   5.081   4.339   6.077
14677TIP3   OH265445   3.367   2.174  12.667
14677TIP3    H165446   3.390   2.174  12.760
14677TIP3    H265447   3.332   2.086  12.651
14678TIP3   OH265448   2.480   5.245   4.509
14678TIP3    H165449   2.394   5.207   4.490
14678TIP3    H265450   2.462   5.336   4.532
14679TIP3   OH265451   1.343   1.927  16.328
14679TIP3    H165452   1.256   1.932  16.288
14679TIP3    H265453   1.350   2.006  16.380
14680TIP3   OH265454   3.578   0.237  15.006
14680TIP3    H165455   3.578   0.170  14.939
14680TIP3    H265456   3.671   0.247  15.029
14681TIP3   OH265457   0.346   2.211   3.794
14681TIP3    H165458   0.379   2.123   3.811
14681TIP3    H265459   0.377   2.262   3.869
14682TIP3   OH265460   6.447   4.064   5.021
14682TIP3    H165461   6.512   4.080   4.953
14682TIP3    H265462   6.496   4.066   5.103
14683TIP3   OH265463   5.970   1.311  15.109
14683TIP3    H165464   5.992   1.387  15.055
14683TIP3    H265465   6.018   1.325  15.190
14684TIP3   OH265466   0.174   2.626  15.292
14684TIP3    H165467   0.195   2.626  15.385
14684TIP3    H265468   0.176   2.719  15.267
14685TIP3   OH265469   4.785   1.420   3.529
14685TIP3    H165470   4.803   1.359   3.601
14685TIP3    H265471   4.770   1.364   3.453
14686TIP3   OH265472   0.654   5.851  10.616
14686TIP3    H165473   0.587   5.897  10.566
14686TIP3    H265474   0.609   5.774  10.651
14687TIP3   OH265475   2.661   6.584   4.438
14687TIP3    H165476   2.600   6.638   4.488
14687TIP3    H265477   2.698   6.524   4.502
14688TIP3   OH265478   4.157   4.434  11.118
14688TIP3    H165479   4.167   4.498  11.048
14688TIP3    H265480   4.071   4.452  11.156
14689TIP3   OH265481   1.243   5.007   5.867
14689TIP3    H165482   1.268   5.073   5.932
14689TIP3    H265483   1.327   4.976   5.832
14690TIP3   OH265484   3.513   3.116  13.273
14690TIP3    H165485   3.557   3.134  13.190
14690TIP3    H265486   3.575   3.143  13.340
14691TIP3   OH265487   1.644   5.407  14.411
14691TIP3    H165488   1.626   5.442  14.324
14691TIP3    H265489   1.644   5.312  14.398
14692TIP3   OH265490   4.271   2.736  14.215
14692TIP3    H165491   4.349   2.729  14.161
14692TIP3    H265492   4.272   2.826  14.246
14693TIP3   OH265493   5.909   0.457   0.624
14693TIP3    H165494   5.873   0.538   0.588
14693TIP3    H265495   5.881   0.389   0.564
14694TIP3   OH265496   5.129   0.826  12.912
14694TIP3    H165497   5.204   0.816  12.971
14694TIP3    H265498   5.054   0.803  12.966
14695TIP3   OH265499   0.151   2.482  11.495
14695TIP3    H165500   0.156   2.387  11.484
14695TIP3    H265501   0.062   2.505  11.466
14696TIP3   OH265502   4.607   1.929  13.845
14696TIP3    H165503   4.564   1.986  13.781
14696TIP3    H265504   4.604   1.978  13.927
14697TIP3   OH265505   2.137   2.787  11.675
14697TIP3    H165506   2.167   2.861  11.623
14697TIP3    H265507   2.217   2.738  11.697
14698TIP3   OH265508   5.043   4.673  14.731
14698TIP3    H165509   4.973   4.736  14.714
14698TIP3    H265510   4.999   4.600  14.775
14699TIP3   OH265511   1.048   0.953   0.495
14699TIP3    H165512   1.074   1.031   0.544
14699TIP3    H265513   1.127   0.930   0.445
14700TIP3   OH265514   3.609   5.576  11.875
14700TIP3    H165515   3.617   5.496  11.822
14700TIP3    H265516   3.578   5.545  11.960
14701TIP3   OH265517   2.754   3.003   5.874
14701TIP3    H165518   2.774   3.085   5.919
14701TIP3    H265519   2.836   2.954   5.875
14702TIP3   OH265520   6.683   2.739   2.677
14702TIP3    H165521   6.603   2.708   2.718
14702TIP3    H265522   6.711   2.666   2.621
14703TIP3   OH265523   1.298   2.816   2.781
14703TIP3    H165524   1.355   2.876   2.828
14703TIP3    H265525   1.334   2.729   2.797
14704TIP3   OH265526   6.092   1.748   2.160
14704TIP3    H165527   6.040   1.674   2.129
14704TIP3    H265528   6.051   1.825   2.122
14705TIP3   OH265529   3.770   4.494  16.363
14705TIP3    H165530   3.685   4.509  16.322
14705TIP3    H265531   3.829   4.473  16.291
14706TIP3   OH265532   3.105   4.319   0.149
14706TIP3    H165533   3.173   4.358   0.094
14706TIP3    H265534   3.148   4.246   0.193
14707TIP3   OH265535   2.925   4.481   5.366
14707TIP3    H165536   3.012   4.512   5.392
14707TIP3    H265537   2.871   4.560   5.363
14708TIP3   OH265538   3.959   2.786   2.827
14708TIP3    H165539   4.004   2.806   2.745
14708TIP3    H265540   4.029   2.787   2.893
14709TIP3   OH265541   2.581   2.361  17.013
14709TIP3    H165542   2.675   2.382  17.011
14709TIP3    H265543   2.577   2.267  16.995
14710TIP3   OH265544   3.640   4.265  14.332
14710TIP3    H165545   3.641   4.319  14.253
14710TIP3    H265546   3.725   4.280  14.372
14711TIP3   OH265547   6.397   6.093  13.585
14711TIP3    H165548   6.397   6.142  13.502
14711TIP3    H265549   6.447   6.014  13.566
14712TIP3   OH265550   5.205   0.257   1.971
14712TIP3    H165551   5.178   0.234   1.883
14712TIP3    H265552   5.276   0.195   1.992
14713TIP3   OH265553   2.357   6.157   1.788
14713TIP3    H165554   2.451   6.167   1.803
14713TIP3    H265555   2.336   6.070   1.820
14714TIP3   OH265556   5.727   3.674  12.552
14714TIP3    H165557   5.784   3.733  12.601
14714TIP3    H265558   5.706   3.604  12.613
14715TIP3   OH265559   5.564   5.984  12.446
14715TIP3    H165560   5.487   5.981  12.389
14715TIP3    H265561   5.609   6.065  12.421
14716TIP3   OH265562   1.506   3.444   3.012
14716TIP3    H165563   1.602   3.439   3.020
14716TIP3    H265564   1.484   3.368   2.957
14717TIP3   OH265565   5.399   5.227  16.917
14717TIP3    H165566   5.322   5.228  16.974
14717TIP3    H265567   5.406   5.137  16.887
14718TIP3   OH265568   2.091   2.466  10.403
14718TIP3    H165569   2.171   2.477  10.352
14718TIP3    H265570   2.118   2.414  10.478
14719TIP3   OH265571   5.948   0.714  12.130
14719TIP3    H165572   6.036   0.696  12.097
14719TIP3    H265573   5.948   0.808  12.148
14720TIP3   OH265574   2.375   0.614  15.878
14720TIP3    H165575   2.438   0.686  15.891
14720TIP3    H265576   2.430   0.536  15.869
14721TIP3   OH265577   4.708   5.737  11.247
14721TIP3    H165578   4.706   5.786  11.329
14721TIP3    H265579   4.800   5.739  11.220
14722TIP3   OH265580   4.410   5.001   2.707
14722TIP3    H165581   4.340   5.064   2.722
14722TIP3    H265582   4.427   5.006   2.613
14723TIP3   OH265583   2.244   3.641  13.180
14723TIP3    H165584   2.197   3.662  13.261
14723TIP3    H265585   2.286   3.724  13.155
14724TIP3   OH265586   1.540   2.096  12.505
14724TIP3    H165587   1.475   2.130  12.567
14724TIP3    H265588   1.557   2.168  12.446
14725TIP3   OH265589   3.871   0.255  10.742
14725TIP3    H165590   3.778   0.233  10.737
14725TIP3    H265591   3.878   0.339  10.696
14726TIP3   OH265592   5.400   5.445  15.835
14726TIP3    H165593   5.316   5.465  15.793
14726TIP3    H265594   5.411   5.351  15.822
14727TIP3   OH265595   4.774   4.754  14.068
14727TIP3    H165596   4.702   4.798  14.022
14727TIP3    H265597   4.853   4.796  14.034
14728TIP3   OH265598   3.148   4.208   2.795
14728TIP3    H165599   3.155   4.265   2.718
14728TIP3    H265600   3.196   4.254   2.864
14729TIP3   OH265601   2.317   3.226   1.571
14729TIP3    H165602   2.388   3.278   1.609
14729TIP3    H265603   2.348   3.203   1.484
14730TIP3   OH265604   3.570   1.490  13.535
14730TIP3    H165605   3.665   1.486  13.523
14730TIP3    H265606   3.547   1.405  13.573
14731TIP3   OH265607   5.459   1.808  15.141
14731TIP3    H165608   5.528   1.743  15.129
14731TIP3    H265609   5.505   1.891  15.152
14732TIP3   OH265610   4.594   2.624   4.259
14732TIP3    H165611   4.687   2.606   4.274
14732TIP3    H265612   4.587   2.639   4.165
14733TIP3   OH265613   0.805   4.902  13.248
14733TIP3    H165614   0.787   4.902  13.154
14733TIP3    H265615   0.792   4.993  13.275
14734TIP3   OH265616   2.262   4.432   0.043
14734TIP3    H165617   2.347   4.389   0.032
14734TIP3    H265618   2.207   4.393  -0.025
14735TIP3   OH265619   3.361   6.489   0.401
14735TIP3    H165620   3.355   6.498   0.305
14735TIP3    H265621   3.452   6.465   0.418
14736TIP3   OH265622   6.691   6.067   1.631
14736TIP3    H165623   6.625   6.079   1.699
14736TIP3    H265624   6.672   5.981   1.594
14737TIP3   OH265625   0.222   3.687  15.945
14737TIP3    H165626   0.243   3.710  16.036
14737TIP3    H265627   0.174   3.763  15.912
14738TIP3   OH265628   5.968   1.513  16.111
14738TIP3    H165629   6.030   1.585  16.102
14738TIP3    H265630   6.005   1.443  16.057
14739TIP3   OH265631   2.714   3.175  13.152
14739TIP3    H165632   2.767   3.208  13.224
14739TIP3    H265633   2.653   3.246  13.133
14740TIP3   OH265634   0.960   1.398   2.240
14740TIP3    H165635   1.037   1.356   2.202
14740TIP3    H265636   0.995   1.475   2.285
14741TIP3   OH265637   5.840   2.555   1.776
14741TIP3    H165638   5.858   2.467   1.808
14741TIP3    H265639   5.745   2.559   1.770
14742TIP3   OH265640   4.477   3.833  16.716
14742TIP3    H165641   4.492   3.773  16.644
14742TIP3    H265642   4.560   3.834  16.765
14743TIP3   OH265643   5.153   2.042   1.829
14743TIP3    H165644   5.115   1.960   1.859
14743TIP3    H265645   5.134   2.043   1.735
14744TIP3   OH265646   0.801   4.720   4.500
14744TIP3    H165647   0.804   4.676   4.415
14744TIP3    H265648   0.870   4.678   4.551
14745TIP3   OH265649   5.090   4.422  14.529
14745TIP3    H165650   5.025   4.430  14.600
14745TIP3    H265651   5.038   4.398  14.452
14746TIP3   OH265652   5.245   0.252   3.231
14746TIP3    H165653   5.312   0.319   3.244
14746TIP3    H265654   5.172   0.281   3.286
14747TIP3   OH265655   4.497   2.926   3.799
14747TIP3    H165656   4.503   2.912   3.894
14747TIP3    H265657   4.587   2.936   3.771
14748TIP3   OH265658   1.847   3.876  13.815
14748TIP3    H165659   1.898   3.914  13.887
14748TIP3    H265660   1.771   3.836  13.859
14749TIP3   OH265661   0.322   4.155  16.167
14749TIP3    H165662   0.353   4.086  16.226
14749TIP3    H265663   0.382   4.228  16.184
14750TIP3   OH265664   2.918   5.262  16.890
14750TIP3    H165665   2.945   5.173  16.910
14750TIP3    H265666   2.944   5.276  16.799
14751TIP3   OH265667   4.851   0.503   3.165
14751TIP3    H165668   4.826   0.508   3.072
14751TIP3    H265669   4.821   0.586   3.202
14752TIP3   OH265670   4.290   0.460  15.107
14752TIP3    H165671   4.206   0.459  15.062
14752TIP3    H265672   4.277   0.521  15.180
14753TIP3   OH265673   0.356   3.133  15.336
14753TIP3    H165674   0.355   3.186  15.257
14753TIP3    H265675   0.403   3.053  15.312
14754TIP3   OH265676   6.560   0.799   1.214
14754TIP3    H165677   6.545   0.820   1.306
14754TIP3    H265678   6.563   0.884   1.170
14755TIP3   OH265679   5.660   4.650   6.663
14755TIP3    H165680   5.637   4.740   6.686
14755TIP3    H265681   5.753   4.643   6.683
14756TIP3   OH265682   2.919   5.293  11.683
14756TIP3    H165683   2.924   5.384  11.711
14756TIP3    H265684   2.907   5.297  11.588
14757TIP3   OH265685   0.856   1.914  15.716
14757TIP3    H165686   0.832   1.964  15.638
14757TIP3    H265687   0.938   1.953  15.745
14758TIP3   OH265688   4.109   4.596   5.816
14758TIP3    H165689   4.139   4.658   5.749
14758TIP3    H265690   4.067   4.650   5.882
14759TIP3   OH265691   5.364   6.449   1.490
14759TIP3    H165692   5.306   6.434   1.415
14759TIP3    H265693   5.452   6.429   1.458
14760TIP3   OH265694   2.179   4.118   0.713
14760TIP3    H165695   2.190   4.054   0.783
14760TIP3    H265696   2.255   4.104   0.656
14761TIP3   OH265697   6.741   1.016   2.338
14761TIP3    H165698   6.741   1.103   2.299
14761TIP3    H265699   6.806   1.021   2.409
14762TIP3   OH265700   3.604   5.330   5.881
14762TIP3    H165701   3.648   5.374   5.954
14762TIP3    H265702   3.606   5.237   5.904
14763TIP3   OH265703   1.700   6.124   6.331
14763TIP3    H165704   1.755   6.049   6.308
14763TIP3    H265705   1.610   6.093   6.319
14764TIP3   OH265706   0.742   0.757   3.336
14764TIP3    H165707   0.809   0.821   3.313
14764TIP3    H265708   0.675   0.768   3.268
14765TIP3   OH265709   4.713   3.483  13.109
14765TIP3    H165710   4.678   3.535  13.182
14765TIP3    H265711   4.803   3.465  13.134
14766TIP3   OH265712   0.170   0.253   1.406
14766TIP3    H165713   0.215   0.171   1.428
14766TIP3    H265714   0.226   0.294   1.340
14767TIP3   OH265715   3.146   4.165  16.878
14767TIP3    H165716   3.190   4.080  16.873
14767TIP3    H265717   3.092   4.160  16.957
14768TIP3   OH265718   5.508   2.287  15.933
14768TIP3    H165719   5.548   2.224  15.992
14768TIP3    H265720   5.415   2.287  15.958
14769TIP3   OH265721   6.595   3.107  13.770
14769TIP3    H165722   6.539   3.032  13.752
14769TIP3    H265723   6.547   3.158  13.836
14770TIP3   OH265724   4.562   6.391   3.380
14770TIP3    H165725   4.646   6.355   3.408
14770TIP3    H265726   4.575   6.411   3.287
14771TIP3   OH265727   3.896   3.265   6.234
14771TIP3    H165728   3.926   3.338   6.289
14771TIP3    H265729   3.801   3.263   6.247
14772TIP3   OH265730   1.079   0.049  15.301
14772TIP3    H165731   1.128   0.069  15.221
14772TIP3    H265732   1.062  -0.045  15.296
14773TIP3   OH265733   1.808   3.489  14.200
14773TIP3    H165734   1.725   3.482  14.247
14773TIP3    H265735   1.782   3.493  14.107
14774TIP3   OH265736   3.061   1.217  16.067
14774TIP3    H165737   3.105   1.262  16.139
14774TIP3    H265738   3.001   1.156  16.110
14775TIP3   OH265739   6.255   0.487   4.550
14775TIP3    H165740   6.245   0.392   4.557
14775TIP3    H265741   6.256   0.504   4.455
14776TIP3   OH265742   6.455   1.410  16.672
14776TIP3    H165743   6.409   1.348  16.616
14776TIP3    H265744   6.385   1.460  16.714
14777TIP3   OH265745   2.751   1.541   1.345
14777TIP3    H165746   2.749   1.453   1.308
14777TIP3    H265747   2.665   1.578   1.324
14778TIP3   OH265748   2.693   1.847  13.611
14778TIP3    H165749   2.681   1.801  13.528
14778TIP3    H265750   2.643   1.929  13.601
14779TIP3   OH265751   1.067   0.208  15.031
14779TIP3    H165752   0.997   0.148  15.054
14779TIP3    H265753   1.034   0.255  14.954
14780TIP3   OH265754   0.535   2.214  15.671
14780TIP3    H165755   0.455   2.191  15.624
14780TIP3    H265756   0.590   2.258  15.606
14781TIP3   OH265757   6.121   5.481  11.795
14781TIP3    H165758   6.054   5.424  11.834
14781TIP3    H265759   6.072   5.558  11.766
14782TIP3   OH265760   1.811   0.727   4.332
14782TIP3    H165761   1.746   0.673   4.377
14782TIP3    H265762   1.883   0.735   4.394
14783TIP3   OH265763   0.192   0.127  12.370
14783TIP3    H165764   0.140   0.116  12.449
14783TIP3    H265765   0.277   0.088  12.390
14784TIP3   OH265766   0.802   3.520  16.261
14784TIP3    H165767   0.775   3.429  16.275
14784TIP3    H265768   0.759   3.545  16.179
14785TIP3   OH265769   0.027   2.513   2.566
14785TIP3    H165770   0.117   2.533   2.592
14785TIP3    H265771   0.011   2.426   2.602
14786TIP3   OH265772   4.057   5.668   4.766
14786TIP3    H165773   4.144   5.646   4.798
14786TIP3    H265774   4.012   5.708   4.841
14787TIP3   OH265775   1.282   2.405  15.951
14787TIP3    H165776   1.345   2.357  16.003
14787TIP3    H265777   1.330   2.481  15.919
14788TIP3   OH265778   6.374   3.923   5.519
14788TIP3    H165779   6.413   3.921   5.606
14788TIP3    H265780   6.431   3.866   5.466
14789TIP3   OH265781   0.010   0.752  13.728
14789TIP3    H165782   0.010   0.656  13.731
14789TIP3    H265783   0.017   0.779  13.819
14790TIP3   OH265784   0.040   3.753   1.427
14790TIP3    H165785   0.065   3.814   1.496
14790TIP3    H265786  -0.002   3.680   1.473
14791TIP3   OH265787   6.640   2.338   0.082
14791TIP3    H165788   6.550   2.339   0.115
14791TIP3    H265789   6.630   2.341  -0.014
14792TIP3   OH265790   0.521   4.463   6.197
14792TIP3    H165791   0.528   4.532   6.263
14792TIP3    H265792   0.504   4.383   6.247
14793TIP3   OH265793   6.327   2.794  12.817
14793TIP3    H165794   6.419   2.769  12.831
14793TIP3    H265795   6.294   2.813  12.904
14794TIP3   OH265796   1.256   5.302  13.369
14794TIP3    H165797   1.239   5.390  13.333
14794TIP3    H265798   1.217   5.304  13.456
14795TIP3   OH265799   3.463   2.491  16.221
14795TIP3    H165800   3.530   2.482  16.289
14795TIP3    H265801   3.507   2.539  16.151
14796TIP3   OH265802   3.924   5.322   2.702
14796TIP3    H165803   3.878   5.369   2.633
14796TIP3    H265804   3.992   5.384   2.731
14797TIP3   OH265805   1.655   1.744  11.266
14797TIP3    H165806   1.562   1.768  11.264
14797TIP3    H265807   1.672   1.707  11.180
14798TIP3   OH265808   0.180   0.977   4.322
14798TIP3    H165809   0.263   0.964   4.277
14798TIP3    H265810   0.184   0.918   4.398
14799TIP3   OH265811   2.659   6.518  13.590
14799TIP3    H165812   2.596   6.455  13.556
14799TIP3    H265813   2.744   6.475  13.581
14800TIP3   OH265814   1.159   4.854   6.090
14800TIP3    H165815   1.251   4.832   6.075
14800TIP3    H265816   1.135   4.909   6.015
14801TIP3   OH265817   2.689   6.034  16.392
14801TIP3    H165818   2.728   5.993  16.469
14801TIP3    H265819   2.737   5.996  16.318
14802TIP3   OH265820   2.456   5.889   3.174
14802TIP3    H165821   2.445   5.974   3.132
14802TIP3    H265822   2.461   5.910   3.268
14803TIP3   OH265823   4.373   0.006   4.799
14803TIP3    H165824   4.369   0.022   4.704
14803TIP3    H265825   4.466   0.002   4.819
14804TIP3   OH265826   6.755   4.709  13.324
14804TIP3    H165827   6.730   4.801  13.322
14804TIP3    H265828   6.679   4.664  13.358
14805TIP3   OH265829   4.213   2.273  14.525
14805TIP3    H165830   4.273   2.340  14.558
14805TIP3    H265831   4.222   2.201  14.587
14806TIP3   OH265832   1.394   4.983  17.134
14806TIP3    H165833   1.484   4.952  17.131
14806TIP3    H265834   1.372   4.986  17.227
14807TIP3   OH265835   5.937   4.653   6.688
14807TIP3    H165836   5.996   4.609   6.749
14807TIP3    H265837   5.993   4.684   6.618
14808TIP3   OH265838   3.488   1.628  15.773
14808TIP3    H165839   3.407   1.593  15.733
14808TIP3    H265840   3.510   1.704  15.720
14809TIP3   OH265841   4.939   0.456  11.510
14809TIP3    H165842   4.844   0.459  11.517
14809TIP3    H265843   4.965   0.383  11.566
14810TIP3   OH265844   2.045   2.783  16.384
14810TIP3    H165845   2.130   2.762  16.423
14810TIP3    H265846   2.040   2.729  16.306
14811TIP3   OH265847   3.710   2.784   6.243
14811TIP3    H165848   3.666   2.772   6.159
14811TIP3    H265849   3.654   2.739   6.306
14812TIP3   OH265850   2.853   5.476   2.171
14812TIP3    H165851   2.938   5.489   2.214
14812TIP3    H265852   2.860   5.524   2.089
14813TIP3   OH265853   4.943   1.741  12.758
14813TIP3    H165854   4.988   1.656  12.754
14813TIP3    H265855   4.854   1.719  12.786
14814TIP3   OH265856   3.725   6.610  13.445
14814TIP3    H165857   3.746   6.635  13.355
14814TIP3    H265858   3.774   6.672  13.499
14815TIP3   OH265859   3.430   2.687   5.605
14815TIP3    H165860   3.359   2.700   5.668
14815TIP3    H265861   3.387   2.653   5.527
14816TIP3   OH265862   0.095   4.279  12.692
14816TIP3    H165863   0.103   4.363  12.648
14816TIP3    H265864   0.027   4.293  12.759
14817TIP3   OH265865   4.328   4.696  11.206
14817TIP3    H165866   4.289   4.663  11.125
14817TIP3    H265867   4.254   4.727  11.258
14818TIP3   OH265868   1.495   5.112  15.314
14818TIP3    H165869   1.584   5.077  15.311
14818TIP3    H265870   1.477   5.139  15.224
14819TIP3   OH265871   4.902   0.438  12.513
14819TIP3    H165872   4.887   0.454  12.606
14819TIP3    H265873   4.970   0.371  12.510
14820TIP3   OH265874   4.199   2.086   1.197
14820TIP3    H165875   4.227   2.143   1.126
14820TIP3    H265876   4.163   2.008   1.153
14821TIP3   OH265877   0.224   2.288   6.130
14821TIP3    H165878   0.239   2.203   6.171
14821TIP3    H265879   0.130   2.294   6.118
14822TIP3   OH265880   4.046   2.186   2.061
14822TIP3    H165881   4.123   2.185   2.004
14822TIP3    H265882   4.060   2.260   2.119
14823TIP3   OH265883   0.145   6.695  11.309
14823TIP3    H165884   0.240   6.686  11.303
14823TIP3    H265885   0.111   6.638  11.241
14824TIP3   OH265886   6.245   0.437  11.651
14824TIP3    H165887   6.219   0.353  11.613
14824TIP3    H265888   6.221   0.502  11.584
14825TIP3   OH265889   3.674   1.890  15.847
14825TIP3    H165890   3.682   1.801  15.880
14825TIP3    H265891   3.731   1.892  15.770
14826TIP3   OH265892   4.605   2.150  16.497
14826TIP3    H165893   4.562   2.090  16.558
14826TIP3    H265894   4.629   2.095  16.423
14827TIP3   OH265895   3.745   5.075  12.469
14827TIP3    H165896   3.828   5.101  12.510
14827TIP3    H265897   3.768   5.055  12.378
14828TIP3   OH265898   3.699   3.357   4.953
14828TIP3    H165899   3.608   3.366   4.982
14828TIP3    H265900   3.727   3.447   4.933
14829TIP3   OH265901   3.108   3.225  11.888
14829TIP3    H165902   3.151   3.310  11.884
14829TIP3    H265903   3.178   3.162  11.903
14830TIP3   OH265904   2.173   4.513   4.986
14830TIP3    H165905   2.108   4.451   5.018
14830TIP3    H265906   2.133   4.553   4.908
14831TIP3   OH265907   0.226   2.173   1.861
14831TIP3    H165908   0.152   2.229   1.841
14831TIP3    H265909   0.273   2.220   1.930
14832TIP3   OH265910   5.667   0.157  16.423
14832TIP3    H165911   5.703   0.179  16.509
14832TIP3    H265912   5.741   0.165  16.363
14833TIP3   OH265913   1.484   2.266   5.453
14833TIP3    H165914   1.413   2.247   5.514
14833TIP3    H265915   1.556   2.210   5.480
14834TIP3   OH265916   2.974   3.372   1.682
14834TIP3    H165917   2.954   3.375   1.775
14834TIP3    H265918   2.906   3.315   1.645
14835TIP3   OH265919   5.119   1.961   3.966
14835TIP3    H165920   5.031   1.967   4.004
14835TIP3    H265921   5.140   1.868   3.969
14836TIP3   OH265922   5.169   1.383   5.697
14836TIP3    H165923   5.108   1.323   5.655
14836TIP3    H265924   5.202   1.335   5.773
14837TIP3   OH265925   0.460   2.385   5.681
14837TIP3    H165926   0.367   2.367   5.669
14837TIP3    H265927   0.501   2.299   5.689
14838TIP3   OH265928   1.535   0.666  12.019
14838TIP3    H165929   1.462   0.704  12.068
14838TIP3    H265930   1.525   0.572  12.030
14839TIP3   OH265931   2.986   2.114  13.989
14839TIP3    H165932   3.036   2.169  13.928
14839TIP3    H265933   3.052   2.074  14.045
14840TIP3   OH265934   3.723   5.525   3.035
14840TIP3    H165935   3.792   5.469   3.001
14840TIP3    H265936   3.765   5.609   3.051
14841TIP3   OH265937   5.620   0.768   1.662
14841TIP3    H165938   5.555   0.702   1.637
14841TIP3    H265939   5.635   0.753   1.755
14842TIP3   OH265940   5.982   1.580  12.539
14842TIP3    H165941   5.941   1.665  12.529
14842TIP3    H265942   6.076   1.596  12.528
14843TIP3   OH265943   0.758   5.911  14.648
14843TIP3    H165944   0.730   5.972  14.579
14843TIP3    H265945   0.848   5.887  14.624
14844TIP3   OH265946   0.916   5.390   2.400
14844TIP3    H165947   0.873   5.454   2.456
14844TIP3    H265948   0.997   5.368   2.446
14845TIP3   OH265949   5.657   4.041  12.027
14845TIP3    H165950   5.746   4.040  11.992
14845TIP3    H265951   5.661   4.104  12.099
14846TIP3   OH265952   4.016   4.006  14.320
14846TIP3    H165953   4.058   4.037  14.400
14846TIP3    H265954   3.945   3.949  14.351
14847TIP3   OH265955   5.961   6.082   1.113
14847TIP3    H165956   5.956   6.165   1.065
14847TIP3    H265957   5.898   6.091   1.184
14848TIP3   OH265958   1.156   2.631   1.919
14848TIP3    H165959   1.249   2.644   1.901
14848TIP3    H265960   1.154   2.578   1.999
14849TIP3   OH265961   0.074   1.774   1.022
14849TIP3    H165962   0.106   1.848   0.971
14849TIP3    H265963   0.153   1.736   1.060
14850TIP3   OH265964   6.166   5.340   0.224
14850TIP3    H165965   6.157   5.377   0.136
14850TIP3    H265966   6.083   5.295   0.239
14851TIP3   OH265967   5.406   1.843   0.772
14851TIP3    H165968   5.486   1.806   0.735
14851TIP3    H265969   5.413   1.937   0.757
14852TIP3   OH265970   3.917   3.356   6.811
14852TIP3    H165971   3.888   3.414   6.740
14852TIP3    H265972   3.890   3.402   6.891
14853TIP3   OH265973   6.062   4.526   1.673
14853TIP3    H165974   6.011   4.532   1.754
14853TIP3    H265975   6.095   4.614   1.658
14854TIP3   OH265976   3.444   3.026  14.044
14854TIP3    H165977   3.525   3.075  14.056
14854TIP3    H265978   3.421   3.040  13.952
14855TIP3   OH265979   0.360   5.946  12.427
14855TIP3    H165980   0.315   5.897  12.496
14855TIP3    H265981   0.367   6.035  12.460
14856TIP3   OH265982   2.019   6.162  11.402
14856TIP3    H165983   2.097   6.216  11.409
14856TIP3    H265984   2.022   6.104  11.479
14857TIP3   OH265985   0.077   0.098  12.631
14857TIP3    H165986   0.114   0.113  12.718
14857TIP3    H265987  -0.017   0.091  12.646
14858TIP3   OH265988   1.061   0.653   4.598
14858TIP3    H165989   1.116   0.719   4.556
14858TIP3    H265990   1.068   0.672   4.692
14859TIP3   OH265991   1.563   5.834   5.788
14859TIP3    H165992   1.597   5.923   5.784
14859TIP3    H265993   1.636   5.779   5.759
14860TIP3   OH265994   3.527   1.777   2.055
14860TIP3    H165995   3.586   1.733   2.116
14860TIP3    H265996   3.562   1.759   1.968
14861TIP3   OH265997   4.074   3.112   5.232
14861TIP3    H165998   4.008   3.107   5.163
14861TIP3    H265999   4.024   3.131   5.312
14862TIP3   OH266000   1.337   0.736   5.298
14862TIP3    H166001   1.309   0.740   5.390
14862TIP3    H266002   1.303   0.816   5.259
14863TIP3   OH266003   6.283   4.880   1.384
14863TIP3    H166004   6.273   4.933   1.305
14863TIP3    H266005   6.341   4.931   1.440
14864TIP3   OH266006   5.987   3.997   4.226
14864TIP3    H166007   5.892   4.000   4.217
14864TIP3    H266008   6.002   3.986   4.320
14865TIP3   OH266009   5.457   6.741   1.172
14865TIP3    H166010   5.366   6.717   1.188
14865TIP3    H266011   5.475   6.811   1.234
14866TIP3   OH266012   2.479   5.085   5.468
14866TIP3    H166013   2.443   5.013   5.520
14866TIP3    H266014   2.494   5.155   5.532
14867TIP3   OH266015   4.046   2.537  13.148
14867TIP3    H166016   4.041   2.593  13.071
14867TIP3    H266017   3.958   2.499  13.157
14868TIP3   OH266018   6.393   6.752  16.130
14868TIP3    H166019   6.338   6.761  16.052
14868TIP3    H266020   6.349   6.806  16.196
14869TIP3   OH266021   3.785   5.159  13.032
14869TIP3    H166022   3.698   5.121  13.045
14869TIP3    H266023   3.831   5.142  13.114
14870TIP3   OH266024   6.428   0.651  12.204
14870TIP3    H166025   6.404   0.737  12.239
14870TIP3    H266026   6.464   0.670  12.118
14871TIP3   OH266027   5.181   3.490  14.093
14871TIP3    H166028   5.201   3.571  14.140
14871TIP3    H266029   5.267   3.455  14.069
14872TIP3   OH266030   5.900   3.108  16.119
14872TIP3    H166031   5.868   3.020  16.137
14872TIP3    H266032   5.906   3.112  16.023
14873TIP3   OH266033   0.957   4.682   3.856
14873TIP3    H166034   0.909   4.730   3.789
14873TIP3    H266035   0.889   4.635   3.905
14874TIP3   OH266036   2.942   1.402  11.361
14874TIP3    H166037   3.012   1.338  11.352
14874TIP3    H266038   2.925   1.432  11.272
14875TIP3   OH266039   4.122   1.479  14.636
14875TIP3    H166040   4.213   1.471  14.605
14875TIP3    H266041   4.072   1.422  14.578
14876TIP3   OH266042   3.596   0.049   1.005
14876TIP3    H166043   3.671   0.060   0.946
14876TIP3    H266044   3.562   0.138   1.017
14877TIP3   OH266045   6.127   6.149  12.643
14877TIP3    H166046   6.044   6.185  12.676
14877TIP3    H266047   6.190   6.164  12.713
14878TIP3   OH266048   4.294   1.675  15.562
14878TIP3    H166049   4.372   1.725  15.539
14878TIP3    H266050   4.289   1.606  15.496
14879TIP3   OH266051   4.326   4.105  12.197
14879TIP3    H166052   4.418   4.132  12.193
14879TIP3    H266053   4.329   4.015  12.230
14880TIP3   OH266054   0.594   4.768   5.079
14880TIP3    H166055   0.625   4.706   5.146
14880TIP3    H266056   0.517   4.725   5.041
14881TIP3   OH266057   5.403   3.787   1.751
14881TIP3    H166058   5.405   3.882   1.751
14881TIP3    H266059   5.483   3.761   1.796
14882TIP3   OH266060   5.203   3.945   3.509
14882TIP3    H166061   5.178   3.975   3.421
14882TIP3    H266062   5.186   3.851   3.507
14883TIP3   OH266063   1.983   1.557  10.693
14883TIP3    H166064   2.023   1.640  10.666
14883TIP3    H266065   1.898   1.583  10.729
14884TIP3   OH266066   0.862   4.332  13.832
14884TIP3    H166067   0.943   4.282  13.837
14884TIP3    H266068   0.874   4.392  13.759
14885TIP3   OH266069   3.944   2.544  12.852
14885TIP3    H166070   3.964   2.561  12.760
14885TIP3    H266071   3.913   2.453  12.853
14886TIP3   OH266072   2.646   4.623   2.646
14886TIP3    H166073   2.732   4.593   2.617
14886TIP3    H266074   2.661   4.656   2.735
14887TIP3   OH266075   4.923   2.166   3.452
14887TIP3    H166076   4.981   2.105   3.499
14887TIP3    H266077   4.972   2.188   3.372
14888TIP3   OH266078   5.635   0.503   1.387
14888TIP3    H166079   5.730   0.510   1.399
14888TIP3    H266080   5.599   0.511   1.475
14889TIP3   OH266081   5.282   1.383   5.082
14889TIP3    H166082   5.366   1.427   5.086
14889TIP3    H266083   5.226   1.433   5.142
14890TIP3   OH266084   1.888   2.705   3.683
14890TIP3    H166085   1.797   2.734   3.682
14890TIP3    H266086   1.901   2.663   3.597
14891TIP3   OH266087   3.223   2.993  14.343
14891TIP3    H166088   3.162   2.921  14.363
14891TIP3    H266089   3.216   3.003  14.248
14892TIP3   OH266090   0.606   1.123   4.246
14892TIP3    H166091   0.697   1.148   4.254
14892TIP3    H266092   0.570   1.132   4.334
14893TIP3   OH266093   2.135   6.339   0.486
14893TIP3    H166094   2.220   6.333   0.529
14893TIP3    H266095   2.110   6.249   0.469
14894TIP3   OH266096   0.386   2.269   0.450
14894TIP3    H166097   0.441   2.330   0.401
14894TIP3    H266098   0.448   2.212   0.495
14895TIP3   OH266099   0.181   0.919   2.589
14895TIP3    H166100   0.107   0.863   2.565
14895TIP3    H266101   0.155   0.960   2.671
14896TIP3   OH266102   5.010   5.661  17.150
14896TIP3    H166103   5.078   5.681  17.085
14896TIP3    H266104   5.054   5.603  17.213
14897TIP3   OH266105   6.550   0.345  14.915
14897TIP3    H166106   6.637   0.385  14.921
14897TIP3    H266107   6.491   0.412  14.949
14898TIP3   OH266108   3.346   0.394  14.227
14898TIP3    H166109   3.296   0.332  14.279
14898TIP3    H266110   3.397   0.339  14.168
14899TIP3   OH266111   1.026   3.498  11.698
14899TIP3    H166112   1.119   3.495  11.719
14899TIP3    H266113   0.994   3.577  11.741
14900TIP3   OH266114   4.830   1.401  14.059
14900TIP3    H166115   4.764   1.381  13.993
14900TIP3    H266116   4.910   1.360  14.025
14901TIP3   OH266117   1.146   2.659  13.238
14901TIP3    H166118   1.077   2.643  13.173
14901TIP3    H266119   1.227   2.652  13.189
14902TIP3   OH266120   5.437   0.625  14.827
14902TIP3    H166121   5.491   0.701  14.848
14902TIP3    H266122   5.499   0.558  14.801
14903TIP3   OH266123   1.226   3.347  10.360
14903TIP3    H166124   1.164   3.285  10.399
14903TIP3    H266125   1.213   3.336  10.265
14904TIP3   OH266126   0.422   1.762   2.755
14904TIP3    H166127   0.398   1.697   2.821
14904TIP3    H266128   0.517   1.763   2.755
14905TIP3   OH266129   0.154   2.714   4.964
14905TIP3    H166130   0.066   2.676   4.959
14905TIP3    H266131   0.199   2.675   4.889
14906TIP3   OH266132   1.298   2.179  12.950
14906TIP3    H166133   1.288   2.251  13.013
14906TIP3    H266134   1.342   2.111  13.000
14907TIP3   OH266135   3.261   0.148   3.191
14907TIP3    H166136   3.342   0.198   3.203
14907TIP3    H266137   3.268   0.075   3.254
14908TIP3   OH266138   4.025   0.926   4.779
14908TIP3    H166139   3.931   0.919   4.765
14908TIP3    H266140   4.043   0.871   4.855
14909TIP3   OH266141   6.122   1.084   1.212
14909TIP3    H166142   6.083   1.135   1.282
14909TIP3    H266143   6.087   1.123   1.132
14910TIP3   OH266144   4.209   2.495  13.385
14910TIP3    H166145   4.156   2.531  13.313
14910TIP3    H266146   4.233   2.572  13.437
14911TIP3   OH266147   6.513   2.989  16.231
14911TIP3    H166148   6.474   2.955  16.311
14911TIP3    H266149   6.572   2.920  16.201
14912TIP3   OH266150   4.775   4.784  15.691
14912TIP3    H166151   4.712   4.714  15.706
14912TIP3    H266152   4.822   4.758  15.611
14913TIP3   OH266153   1.606   1.745   6.043
14913TIP3    H166154   1.657   1.761   6.122
14913TIP3    H266155   1.532   1.692   6.073
14914TIP3   OH266156   3.300   0.069   1.093
14914TIP3    H166157   3.330   0.034   1.176
14914TIP3    H266158   3.352   0.148   1.080
14915TIP3   OH266159   0.304   6.161   5.048
14915TIP3    H166160   0.250   6.106   5.104
14915TIP3    H266161   0.387   6.113   5.040
14916TIP3   OH266162   3.495   4.616   1.069
14916TIP3    H166163   3.458   4.671   1.139
14916TIP3    H266164   3.580   4.588   1.104
14917TIP3   OH266165   0.303   5.700  14.839
14917TIP3    H166166   0.267   5.737  14.759
14917TIP3    H266167   0.394   5.731  14.841
14918TIP3   OH266168   1.973   3.875   4.730
14918TIP3    H166169   1.914   3.899   4.801
14918TIP3    H266170   2.045   3.938   4.736
14919TIP3   OH266171   2.845   2.052   5.653
14919TIP3    H166172   2.764   2.080   5.610
14919TIP3    H266173   2.818   1.982   5.712
14920TIP3   OH266174   3.986   5.694  11.161
14920TIP3    H166175   3.896   5.682  11.130
14920TIP3    H266176   4.033   5.618  11.128
14921TIP3   OH266177   4.177   6.217   4.607
14921TIP3    H166178   4.178   6.304   4.568
14921TIP3    H266179   4.164   6.158   4.532
14922TIP3   OH266180   3.692   2.072  15.490
14922TIP3    H166181   3.654   2.096  15.406
14922TIP3    H266182   3.709   2.156  15.534
14923TIP3   OH266183   2.129   4.289   4.581
14923TIP3    H166184   2.063   4.236   4.537
14923TIP3    H266185   2.089   4.313   4.665
14924TIP3   OH266186   5.104   4.547   0.250
14924TIP3    H166187   5.124   4.493   0.174
14924TIP3    H266188   5.018   4.515   0.279
14925TIP3   OH266189   0.918   1.620   5.191
14925TIP3    H166190   1.012   1.624   5.171
14925TIP3    H266191   0.915   1.606   5.286
14926TIP3   OH266192   4.794   0.280  10.460
14926TIP3    H166193   4.777   0.232  10.379
14926TIP3    H266194   4.859   0.228  10.506
14927TIP3   OH266195   0.534   6.558   0.765
14927TIP3    H166196   0.507   6.469   0.787
14927TIP3    H266197   0.497   6.574   0.679
14928TIP3   OH266198   1.243   1.848  15.998
14928TIP3    H166199   1.234   1.863  16.092
14928TIP3    H266200   1.157   1.814  15.972
14929TIP3   OH266201   3.716   5.087   5.507
14929TIP3    H166202   3.808   5.082   5.482
14929TIP3    H266203   3.670   5.102   5.424
14930TIP3   OH266204   0.106   2.225  16.931
14930TIP3    H166205   0.135   2.295  16.872
14930TIP3    H266206   0.174   2.223  16.999
14931TIP3   OH266207   4.970   5.332   5.782
14931TIP3    H166208   4.930   5.348   5.867
14931TIP3    H266209   4.908   5.368   5.718
14932TIP3   OH266210   2.554   0.640   1.372
14932TIP3    H166211   2.471   0.685   1.388
14932TIP3    H266212   2.588   0.622   1.460
14933TIP3   OH266213   2.675   1.858   2.224
14933TIP3    H166214   2.641   1.874   2.312
14933TIP3    H266215   2.621   1.787   2.189
14934TIP3   OH266216   4.109   0.965  13.041
14934TIP3    H166217   4.173   1.036  13.028
14934TIP3    H266218   4.138   0.896  12.981
14935TIP3   OH266219   4.256   4.464  13.365
14935TIP3    H166220   4.228   4.532  13.304
14935TIP3    H266221   4.333   4.425  13.323
14936TIP3   OH266222   2.918   2.791  16.016
14936TIP3    H166223   2.949   2.871  16.059
14936TIP3    H266224   2.830   2.777  16.053
14937TIP3   OH266225   5.363   1.268   0.996
14937TIP3    H166226   5.413   1.336   0.952
14937TIP3    H266227   5.389   1.273   1.088
14938TIP3   OH266228   6.476   2.918   4.132
14938TIP3    H166229   6.457   2.828   4.109
14938TIP3    H266230   6.404   2.945   4.189
14939TIP3   OH266231   0.881   4.085  14.125
14939TIP3    H166232   0.917   4.066  14.212
14939TIP3    H266233   0.848   4.174  14.132
14940TIP3   OH266234   4.055   6.608  16.949
14940TIP3    H166235   4.064   6.649  16.863
14940TIP3    H266236   3.982   6.655  16.990
14941TIP3   OH266237   3.577   2.763   6.007
14941TIP3    H166238   3.574   2.677   5.965
14941TIP3    H266239   3.485   2.784   6.025
14942TIP3   OH266240   2.604   3.086   3.473
14942TIP3    H166241   2.664   3.156   3.498
14942TIP3    H266242   2.611   3.022   3.544
14943TIP3   OH266243   1.117   4.593  13.947
14943TIP3    H166244   1.107   4.682  13.913
14943TIP3    H266245   1.033   4.573  13.989
14944TIP3   OH266246   3.583   5.896   2.503
14944TIP3    H166247   3.500   5.945   2.496
14944TIP3    H266248   3.641   5.956   2.550
14945TIP3   OH266249   0.180   5.431   2.354
14945TIP3    H166250   0.267   5.393   2.355
14945TIP3    H266251   0.192   5.521   2.384
14946TIP3   OH266252   5.473   0.554  14.190
14946TIP3    H166253   5.474   0.463  14.160
14946TIP3    H266254   5.551   0.561  14.246
14947TIP3   OH266255   0.513   4.551  10.757
14947TIP3    H166256   0.528   4.543  10.663
14947TIP3    H266257   0.528   4.644  10.776
14948TIP3   OH266258   5.561   3.643   5.588
14948TIP3    H166259   5.480   3.683   5.622
14948TIP3    H266260   5.566   3.673   5.497
14949TIP3   OH266261   3.322   1.630   6.300
14949TIP3    H166262   3.393   1.581   6.342
14949TIP3    H266263   3.257   1.563   6.277
14950TIP3   OH266264   2.481   4.184   2.195
14950TIP3    H166265   2.567   4.172   2.154
14950TIP3    H266266   2.419   4.145   2.133
14951TIP3   OH266267   1.479   3.831  15.954
14951TIP3    H166268   1.442   3.896  15.894
14951TIP3    H266269   1.427   3.752  15.939
14952TIP3   OH266270   5.979   3.129   3.846
14952TIP3    H166271   5.904   3.180   3.878
14952TIP3    H266272   5.944   3.040   3.836
14953TIP3   OH266273   6.772   1.560  15.384
14953TIP3    H166274   6.780   1.654  15.394
14953TIP3    H266275   6.808   1.523  15.464
14954TIP3   OH266276   1.397   1.623  14.732
14954TIP3    H166277   1.428   1.540  14.695
14954TIP3    H266278   1.373   1.602  14.822
14955TIP3   OH266279   0.333   5.843   1.920
14955TIP3    H166280   0.400   5.905   1.948
14955TIP3    H266281   0.250   5.886   1.941
14956TIP3   OH266282   1.752   1.276  12.759
14956TIP3    H166283   1.810   1.227  12.818
14956TIP3    H266284   1.741   1.361  12.801
14957TIP3   OH266285   6.660   0.503  13.958
14957TIP3    H166286   6.580   0.538  13.918
14957TIP3    H266287   6.630   0.424  14.004
14958TIP3   OH266288   4.453   0.711  12.448
14958TIP3    H166289   4.542   0.693  12.477
14958TIP3    H266290   4.405   0.631  12.466
14959TIP3   OH266291   3.900   3.689  15.561
14959TIP3    H166292   3.967   3.752  15.534
14959TIP3    H266293   3.941   3.604  15.547
14960TIP3   OH266294   4.447   3.269   2.458
14960TIP3    H166295   4.405   3.217   2.527
14960TIP3    H266296   4.512   3.211   2.419
14961TIP3   OH266297   2.896   3.376  15.911
14961TIP3    H166298   2.839   3.376  15.834
14961TIP3    H266299   2.915   3.283  15.927
14962TIP3   OH266300   2.178   6.659  11.296
14962TIP3    H166301   2.238   6.606  11.242
14962TIP3    H266302   2.125   6.707  11.233
14963TIP3   OH266303   0.263   5.936  16.452
14963TIP3    H166304   0.192   5.912  16.512
14963TIP3    H266305   0.279   6.029  16.470
14964TIP3   OH266306   1.982   1.385   5.413
14964TIP3    H166307   2.059   1.440   5.422
14964TIP3    H266308   1.933   1.423   5.339
14965TIP3   OH266309   5.616   4.666   4.533
14965TIP3    H166310   5.549   4.623   4.478
14965TIP3    H266311   5.586   4.757   4.540
14966TIP3   OH266312   6.421   1.154   0.633
14966TIP3    H166313   6.509   1.181   0.659
14966TIP3    H266314   6.421   1.059   0.644
14967TIP3   OH266315   2.384   3.786  14.281
14967TIP3    H166316   2.343   3.775  14.195
14967TIP3    H266317   2.478   3.784  14.263
14968TIP3   OH266318   6.521   2.689  14.539
14968TIP3    H166319   6.617   2.684  14.542
14968TIP3    H266320   6.499   2.764  14.594
14969TIP3   OH266321   5.219   1.629  15.661
14969TIP3    H166322   5.282   1.680  15.611
14969TIP3    H266323   5.193   1.686  15.733
14970TIP3   OH266324   1.886   4.303  12.197
14970TIP3    H166325   1.858   4.394  12.213
14970TIP3    H266326   1.834   4.251  12.258
14971TIP3   OH266327   3.006   1.037  12.731
14971TIP3    H166328   2.957   1.118  12.721
14971TIP3    H266329   3.076   1.042  12.666
14972TIP3   OH266330   3.109   0.588   4.015
14972TIP3    H166331   3.184   0.563   3.960
14972TIP3    H266332   3.038   0.603   3.953
14973TIP3   OH266333   5.653   0.806  14.907
14973TIP3    H166334   5.690   0.739  14.963
14973TIP3    H266335   5.692   0.790  14.821
14974TIP3   OH266336   6.476   1.029  12.467
14974TIP3    H166337   6.457   0.980  12.547
14974TIP3    H266338   6.420   0.989  12.400
14975TIP3   OH266339   2.159   6.288   4.714
14975TIP3    H166340   2.143   6.344   4.639
14975TIP3    H266341   2.220   6.338   4.769
14976TIP3   OH266342   0.307   1.470  16.109
14976TIP3    H166343   0.247   1.483  16.182
14976TIP3    H266344   0.375   1.413  16.144
14977TIP3   OH266345   3.223   5.050   2.556
14977TIP3    H166346   3.286   4.979   2.546
14977TIP3    H266347   3.277   5.127   2.574
14978TIP3   OH266348   0.879   5.906   3.772
14978TIP3    H166349   0.827   5.842   3.724
14978TIP3    H266350   0.829   5.922   3.852
14979TIP3   OH266351   5.316   4.519   5.556
14979TIP3    H166352   5.290   4.443   5.504
14979TIP3    H266353   5.240   4.537   5.611
14980TIP3   OH266354   3.072   2.798  14.451
14980TIP3    H166355   3.150   2.774  14.502
14980TIP3    H266356   3.005   2.737  14.480
14981TIP3   OH266357   0.604   1.884   1.165
14981TIP3    H166358   0.674   1.926   1.117
14981TIP3    H266359   0.524   1.907   1.117
14982TIP3   OH266360   4.469   2.207  14.662
14982TIP3    H166361   4.447   2.289  14.617
14982TIP3    H266362   4.439   2.222  14.752
14983TIP3   OH266363   1.184   0.200  12.855
14983TIP3    H166364   1.267   0.195  12.903
14983TIP3    H266365   1.125   0.246  12.915
14984TIP3   OH266366   5.613   1.756  13.913
14984TIP3    H166367   5.645   1.725  13.998
14984TIP3    H266368   5.518   1.754  13.921
14985TIP3   OH266369   4.448   3.729   0.866
14985TIP3    H166370   4.362   3.769   0.854
14985TIP3    H266371   4.449   3.656   0.803
14986TIP3   OH266372   4.469   4.035   5.983
14986TIP3    H166373   4.446   4.055   5.892
14986TIP3    H266374   4.561   4.012   5.981
14987TIP3   OH266375   3.776   4.041  13.319
14987TIP3    H166376   3.798   4.134  13.330
14987TIP3    H266377   3.747   4.013  13.406
14988TIP3   OH266378   2.995   3.408   4.743
14988TIP3    H166379   2.992   3.495   4.783
14988TIP3    H266380   2.994   3.347   4.817
14989TIP3   OH266381   1.453   2.855  11.753
14989TIP3    H166382   1.412   2.890  11.832
14989TIP3    H266383   1.448   2.926  11.689
14990TIP3   OH266384   5.415   0.693   2.135
14990TIP3    H166385   5.370   0.714   2.053
14990TIP3    H266386   5.443   0.602   2.125
14991TIP3   OH266387   1.497   0.966  11.623
14991TIP3    H166388   1.569   1.029  11.629
14991TIP3    H266389   1.440   1.000  11.554
14992TIP3   OH266390   4.792   5.485  13.682
14992TIP3    H166391   4.846   5.406  13.673
14992TIP3    H266392   4.839   5.552  13.633
14993TIP3   OH266393   2.816   6.061  11.577
14993TIP3    H166394   2.725   6.090  11.570
14993TIP3    H266395   2.867   6.140  11.562
14994TIP3   OH266396   0.226   6.621  12.905
14994TIP3    H166397   0.300   6.681  12.920
14994TIP3    H266398   0.178   6.621  12.988
14995TIP3   OH266399   0.287   3.378  11.681
14995TIP3    H166400   0.254   3.463  11.709
14995TIP3    H266401   0.311   3.333  11.762
14996TIP3   OH266402   5.823   0.593  11.411
14996TIP3    H166403   5.747   0.630  11.366
14996TIP3    H266404   5.827   0.641  11.494
14997TIP3   OH266405   0.145   3.827   2.166
14997TIP3    H166406   0.142   3.735   2.139
14997TIP3    H266407   0.158   3.875   2.084
14998TIP3   OH266408   3.074   2.913   3.240
14998TIP3    H166409   2.992   2.960   3.226
14998TIP3    H266410   3.137   2.980   3.265
14999TIP3   OH266411   0.246   2.253  14.759
14999TIP3    H166412   0.338   2.231  14.771
14999TIP3    H266413   0.222   2.213  14.675
15000TIP3   OH266414   6.320   2.614   0.370
15000TIP3    H166415   6.246   2.673   0.386
15000TIP3    H266416   6.292   2.562   0.294
15001TIP3   OH266417   4.343   2.041   2.959
15001TIP3    H166418   4.365   2.019   2.869
15001TIP3    H266419   4.409   1.996   3.012
15002TIP3   OH266420   4.994   1.398   0.076
15002TIP3    H166421   5.070   1.427   0.127
15002TIP3    H266422   4.928   1.465   0.091
15003TIP3   OH266423   4.207   1.922  10.812
15003TIP3    H166424   4.156   1.965  10.744
15003TIP3    H266425   4.292   1.966  10.809
15004TIP3   OH266426   6.727   5.243  15.294
15004TIP3    H166427   6.649   5.298  15.295
15004TIP3    H266428   6.748   5.230  15.387
15005TIP3   OH266429   1.627   4.112  13.375
15005TIP3    H166430   1.691   4.174  13.339
15005TIP3    H266431   1.639   4.032  13.322
15006TIP3   OH266432   6.577   0.130   2.005
15006TIP3    H166433   6.560   0.147   2.098
15006TIP3    H266434   6.666   0.162   1.991
15007TIP3   OH266435   3.775   3.235   3.859
15007TIP3    H166436   3.814   3.320   3.880
15007TIP3    H266437   3.817   3.208   3.778
15008TIP3   OH266438   3.523   0.887   2.982
15008TIP3    H166439   3.491   0.965   2.937
15008TIP3    H266440   3.613   0.875   2.951
15009TIP3   OH266441   0.544   1.918  15.591
15009TIP3    H166442   0.473   1.936  15.530
15009TIP3    H266443   0.593   2.000  15.596
15010TIP3   OH266444   6.292   5.804  11.253
15010TIP3    H166445   6.326   5.827  11.166
15010TIP3    H266446   6.253   5.885  11.286
15011TIP3   OH266447   3.469   6.542  15.459
15011TIP3    H166448   3.392   6.595  15.480
15011TIP3    H266449   3.525   6.550  15.537
15012TIP3   OH266450   4.305   2.930  11.356
15012TIP3    H166451   4.351   2.938  11.272
15012TIP3    H266452   4.364   2.973  11.419
15013TIP3   OH266453   1.717   1.881  14.971
15013TIP3    H166454   1.803   1.912  14.999
15013TIP3    H266455   1.718   1.892  14.876
15014TIP3   OH266456   0.499   5.363   2.447
15014TIP3    H166457   0.588   5.391   2.463
15014TIP3    H266458   0.469   5.418   2.374
15015TIP3   OH266459   4.620   1.941   1.753
15015TIP3    H166460   4.652   1.980   1.671
15015TIP3    H266461   4.526   1.961   1.754
15016TIP3   OH266462   4.102   3.257   1.143
15016TIP3    H166463   4.170   3.317   1.114
15016TIP3    H266464   4.021   3.293   1.105
15017TIP3   OH266465   2.082   1.205   0.481
15017TIP3    H166466   2.015   1.226   0.546
15017TIP3    H266467   2.076   1.110   0.470
15018TIP3   OH266468   1.077   4.469   2.058
15018TIP3    H166469   1.062   4.431   1.971
15018TIP3    H266470   1.015   4.541   2.064
15019TIP3   OH266471   0.372   4.463  12.105
15019TIP3    H166472   0.402   4.537  12.053
15019TIP3    H266473   0.308   4.419  12.048
15020TIP3   OH266474   1.580   0.123  15.270
15020TIP3    H166475   1.586   0.127  15.365
15020TIP3    H266476   1.669   0.138  15.239
15021TIP3   OH266477   3.015   2.040  11.399
15021TIP3    H166478   2.966   2.091  11.335
15021TIP3    H266479   2.954   2.027  11.471
15022TIP3   OH266480   0.228   0.491   3.588
15022TIP3    H166481   0.257   0.475   3.498
15022TIP3    H266482   0.136   0.518   3.579
15023TIP3   OH266483   1.801   6.599   2.893
15023TIP3    H166484   1.849   6.647   2.961
15023TIP3    H266485   1.715   6.582   2.931
15024TIP3   OH266486   0.977   1.110   2.410
15024TIP3    H166487   0.905   1.172   2.399
15024TIP3    H266488   1.034   1.151   2.475
15025TIP3   OH266489   2.536   5.253  16.762
15025TIP3    H166490   2.588   5.328  16.790
15025TIP3    H266491   2.581   5.221  16.684
15026TIP3   OH266492   0.586   5.151  15.879
15026TIP3    H166493   0.603   5.121  15.968
15026TIP3    H266494   0.497   5.122  15.860
15027TIP3   OH266495   1.217   4.604   0.297
15027TIP3    H166496   1.126   4.585   0.276
15027TIP3    H266497   1.261   4.612   0.213
15028TIP3   OH266498   3.050   5.812   1.365
15028TIP3    H166499   3.043   5.886   1.305
15028TIP3    H266500   3.136   5.775   1.348
15029TIP3   OH266501   3.774   3.689   5.906
15029TIP3    H166502   3.741   3.681   5.816
15029TIP3    H266503   3.843   3.755   5.901
15030TIP3   OH266504   1.770   1.118  13.550
15030TIP3    H166505   1.836   1.164  13.499
15030TIP3    H266506   1.687   1.143  13.510
15031TIP3   OH266507   6.469   0.863  11.269
15031TIP3    H166508   6.394   0.918  11.245
15031TIP3    H266509   6.512   0.843  11.186
15032TIP3   OH266510   2.291   5.263   3.496
15032TIP3    H166511   2.214   5.315   3.475
15032TIP3    H266512   2.266   5.213   3.573
15033TIP3   OH266513   3.686   6.493   5.316
15033TIP3    H166514   3.710   6.573   5.270
15033TIP3    H266515   3.704   6.423   5.253
15034TIP3   OH266516   3.518   1.126   1.126
15034TIP3    H166517   3.580   1.076   1.072
15034TIP3    H266518   3.506   1.209   1.079
15035TIP3   OH266519   0.350   1.439   5.015
15035TIP3    H166520   0.398   1.420   5.096
15035TIP3    H266521   0.258   1.443   5.042
15036TIP3   OH266522   0.873   4.204  12.480
15036TIP3    H166523   0.891   4.173  12.392
15036TIP3    H266524   0.780   4.189  12.493
15037TIP3   OH266525   4.259   4.703  12.748
15037TIP3    H166526   4.271   4.608  12.757
15037TIP3    H266527   4.320   4.740  12.812
15038TIP3   OH266528   0.253   3.315   4.578
15038TIP3    H166529   0.246   3.373   4.654
15038TIP3    H266530   0.162   3.296   4.554
15039TIP3   OH266531   2.808   5.090  13.494
15039TIP3    H166532   2.738   5.138  13.450
15039TIP3    H266533   2.889   5.130  13.462
15040TIP3   OH266534   6.039   5.143  13.423
15040TIP3    H166535   6.039   5.200  13.500
15040TIP3    H266536   6.090   5.066  13.449
15041TIP3   OH266537   2.291   1.924   3.176
15041TIP3    H166538   2.239   1.990   3.129
15041TIP3    H266539   2.369   1.972   3.205
15042TIP3   OH266540   6.107   2.267   4.676
15042TIP3    H166541   6.076   2.301   4.592
15042TIP3    H266542   6.027   2.237   4.720
15043TIP3   OH266543   4.427   0.283  11.054
15043TIP3    H166544   4.494   0.219  11.081
15043TIP3    H266545   4.468   0.332  10.983
15044TIP3   OH266546   4.134   0.072   3.311
15044TIP3    H166547   4.167   0.009   3.375
15044TIP3    H266548   4.174   0.044   3.228
15045TIP3   OH266549   0.836   3.820  16.938
15045TIP3    H166550   0.758   3.822  16.994
15045TIP3    H266551   0.873   3.733  16.952
15046TIP3   OH266552   0.461   4.203  12.230
15046TIP3    H166553   0.458   4.171  12.320
15046TIP3    H266554   0.529   4.151  12.188
15047TIP3   OH266555   2.131   5.896   2.626
15047TIP3    H166556   2.106   5.984   2.654
15047TIP3    H266557   2.227   5.896   2.629
15048TIP3   OH266558   1.594   5.641  15.127
15048TIP3    H166559   1.502   5.650  15.104
15048TIP3    H266560   1.597   5.655  15.222
15049TIP3   OH266561   4.843   0.232   0.240
15049TIP3    H166562   4.759   0.208   0.278
15049TIP3    H266563   4.862   0.164   0.176
15050TIP3   OH266564   2.318   6.371  15.158
15050TIP3    H166565   2.235   6.331  15.130
15050TIP3    H266566   2.324   6.451  15.106
15051TIP3   OH266567   4.956   4.239   1.288
15051TIP3    H166568   5.043   4.245   1.327
15051TIP3    H266569   4.944   4.145   1.271
15052TIP3   OH266570   1.982   3.820   1.443
15052TIP3    H166571   1.992   3.734   1.402
15052TIP3    H266572   2.066   3.864   1.427
15053TIP3   OH266573   6.569   6.496  11.354
15053TIP3    H166574   6.524   6.540  11.282
15053TIP3    H266575   6.502   6.488  11.422
15054TIP3   OH266576   6.564   0.096  12.942
15054TIP3    H166577   6.548   0.006  12.913
15054TIP3    H266578   6.640   0.090  12.999
15055TIP3   OH266579   2.849   5.330  13.231
15055TIP3    H166580   2.760   5.305  13.259
15055TIP3    H266581   2.898   5.248  13.232
15056TIP3   OH266582   0.063   4.444  14.231
15056TIP3    H166583   0.055   4.362  14.182
15056TIP3    H266584   0.157   4.458  14.240
15057TIP3   OH266585   0.947   6.049   5.711
15057TIP3    H166586   0.985   6.111   5.649
15057TIP3    H266587   0.945   6.095   5.794
15058TIP3   OH266588   5.081   1.818  11.914
15058TIP3    H166589   5.102   1.893  11.970
15058TIP3    H266590   5.074   1.855  11.826
15059TIP3   OH266591   3.259   0.757   1.107
15059TIP3    H166592   3.272   0.830   1.168
15059TIP3    H266593   3.176   0.719   1.134
15060TIP3   OH266594   0.990   5.579   5.431
15060TIP3    H166595   0.970   5.662   5.474
15060TIP3    H266596   0.941   5.513   5.480
15061TIP3   OH266597   3.299   2.501   5.986
15061TIP3    H166598   3.392   2.480   5.989
15061TIP3    H266599   3.295   2.596   5.999
15062TIP3   OH266600   5.939   0.603  14.527
15062TIP3    H166601   6.020   0.632  14.570
15062TIP3    H266602   5.936   0.651  14.445
15063TIP3   OH266603   4.450   2.524  12.907
15063TIP3    H166604   4.376   2.584  12.920
15063TIP3    H266605   4.413   2.453  12.854
15064TIP3   OH266606   1.710   3.920   3.010
15064TIP3    H166607   1.736   3.865   3.084
15064TIP3    H266608   1.788   3.973   2.991
15065TIP3   OH266609   6.531   3.336  10.448
15065TIP3    H166610   6.549   3.317  10.540
15065TIP3    H266611   6.597   3.287  10.399
15066TIP3   OH266612   6.430   6.703  12.337
15066TIP3    H166613   6.460   6.635  12.276
15066TIP3    H266614   6.511   6.745  12.368
15067TIP3   OH266615   6.787   1.224   2.645
15067TIP3    H166616   6.723   1.277   2.598
15067TIP3    H266617   6.865   1.227   2.591
15068TIP3   OH266618   6.154   6.625  12.384
15068TIP3    H166619   6.238   6.669  12.378
15068TIP3    H266620   6.134   6.624  12.478
15069TIP3   OH266621   2.329   0.477  13.384
15069TIP3    H166622   2.419   0.453  13.407
15069TIP3    H266623   2.338   0.556  13.331
15070TIP3   OH266624   1.067   2.926   0.914
15070TIP3    H166625   1.013   2.978   0.855
15070TIP3    H266626   1.156   2.961   0.903
15071TIP3   OH266627   4.754   2.854  14.113
15071TIP3    H166628   4.822   2.792  14.139
15071TIP3    H266629   4.799   2.914  14.053
15072TIP3   OH266630   4.275   2.905  17.130
15072TIP3    H166631   4.352   2.851  17.107
15072TIP3    H266632   4.281   2.981  17.073
15073TIP3   OH266633   5.204   4.845  15.162
15073TIP3    H166634   5.228   4.801  15.244
15073TIP3    H266635   5.137   4.909  15.188
15074TIP3   OH266636   1.785   2.224   4.257
15074TIP3    H166637   1.728   2.254   4.186
15074TIP3    H266638   1.819   2.140   4.226
15075TIP3   OH266639   6.081   4.870  14.802
15075TIP3    H166640   6.021   4.920  14.747
15075TIP3    H266641   6.167   4.883  14.762
15076TIP3   OH266642   5.328   2.309  11.587
15076TIP3    H166643   5.369   2.316  11.674
15076TIP3    H266644   5.245   2.263  11.603
15077TIP3   OH266645   4.240   1.822  11.191
15077TIP3    H166646   4.328   1.786  11.195
15077TIP3    H266647   4.249   1.911  11.226
15078TIP3   OH266648   1.235   2.367  17.223
15078TIP3    H166649   1.168   2.303  17.246
15078TIP3    H266650   1.314   2.315  17.208
15079TIP3   OH266651   3.148   3.863  16.523
15079TIP3    H166652   3.218   3.861  16.457
15079TIP3    H266653   3.074   3.903  16.478
15080TIP3   OH266654   2.284   0.109   2.701
15080TIP3    H166655   2.260   0.066   2.619
15080TIP3    H266656   2.219   0.178   2.711
15081TIP3   OH266657   2.343   1.120   2.896
15081TIP3    H166658   2.375   1.207   2.873
15081TIP3    H266659   2.409   1.060   2.862
15082TIP3   OH266660   3.614   4.862  13.987
15082TIP3    H166661   3.634   4.917  14.063
15082TIP3    H266662   3.674   4.894  13.919
15083TIP3   OH266663   6.223   5.635  15.533
15083TIP3    H166664   6.193   5.648  15.623
15083TIP3    H266665   6.298   5.576  15.541
15084TIP3   OH266666   2.291   3.683  12.378
15084TIP3    H166667   2.357   3.737  12.334
15084TIP3    H266668   2.260   3.623  12.311
15085TIP3   OH266669   2.555   1.620   4.081
15085TIP3    H166670   2.545   1.713   4.059
15085TIP3    H266671   2.519   1.573   4.006
15086TIP3   OH266672   6.436   0.777  11.537
15086TIP3    H166673   6.452   0.792  11.444
15086TIP3    H266674   6.346   0.744  11.541
15087TIP3   OH266675   4.860   2.542   4.333
15087TIP3    H166676   4.955   2.549   4.324
15087TIP3    H266677   4.845   2.454   4.366
15088TIP3   OH266678   6.581   2.806  13.414
15088TIP3    H166679   6.621   2.808  13.501
15088TIP3    H266680   6.628   2.738  13.367
15089TIP3   OH266681   3.963   5.528  11.389
15089TIP3    H166682   3.990   5.571  11.309
15089TIP3    H266683   3.938   5.599  11.448
15090TIP3   OH266684   2.296   2.758   2.151
15090TIP3    H166685   2.321   2.781   2.062
15090TIP3    H266686   2.201   2.746   2.147
15091TIP3   OH266687   0.585   6.587  16.685
15091TIP3    H166688   0.656   6.642  16.653
15091TIP3    H266689   0.621   6.543  16.762
15092TIP3   OH266690   0.234   2.620  14.120
15092TIP3    H166691   0.315   2.569  14.119
15092TIP3    H266692   0.252   2.693  14.179
15093TIP3   OH266693   5.246   6.044   1.551
15093TIP3    H166694   5.269   6.014   1.463
15093TIP3    H266695   5.315   6.106   1.574
15094TIP3   OH266696   3.657   5.405   5.192
15094TIP3    H166697   3.712   5.473   5.155
15094TIP3    H266698   3.613   5.365   5.117
15095TIP3   OH266699   2.523   3.542  12.113
15095TIP3    H166700   2.552   3.621  12.067
15095TIP3    H266701   2.579   3.538  12.190
15096TIP3   OH266702   0.078   5.010  11.139
15096TIP3    H166703   0.061   5.052  11.223
15096TIP3    H266704   0.170   5.028  11.121
15097TIP3   OH266705   0.936   3.588   6.086
15097TIP3    H166706   0.983   3.531   6.147
15097TIP3    H266707   0.875   3.530   6.040
15098TIP3   OH266708   6.444   6.185  11.175
15098TIP3    H166709   6.521   6.153  11.222
15098TIP3    H266710   6.480   6.224  11.094
15099TIP3   OH266711   2.939   5.179   3.884
15099TIP3    H166712   3.020   5.210   3.844
15099TIP3    H266713   2.886   5.148   3.810
15100TIP3   OH266714   4.900   3.856   4.966
15100TIP3    H166715   4.933   3.891   4.883
15100TIP3    H266716   4.818   3.902   4.981
15101TIP3   OH266717   5.252   2.147   2.518
15101TIP3    H166718   5.187   2.142   2.447
15101TIP3    H266719   5.204   2.183   2.592
15102TIP3   OH266720   0.640   3.148  10.707
15102TIP3    H166721   0.612   3.086  10.640
15102TIP3    H266722   0.735   3.140  10.709
15103TIP3   OH266723   4.338   1.536  12.128
15103TIP3    H166724   4.338   1.593  12.204
15103TIP3    H266725   4.419   1.486  12.134
15104TIP3   OH266726   2.437   1.697   5.110
15104TIP3    H166727   2.531   1.698   5.091
15104TIP3    H266728   2.411   1.789   5.112
15105TIP3   OH266729   1.340   4.183  10.913
15105TIP3    H166730   1.391   4.240  10.971
15105TIP3    H266731   1.399   4.110  10.894
15106TIP3   OH266732   3.265   4.611   4.098
15106TIP3    H166733   3.181   4.586   4.137
15106TIP3    H266734   3.305   4.670   4.162
15107TIP3   OH266735   5.872   4.337  16.096
15107TIP3    H166736   5.866   4.332  16.001
15107TIP3    H266737   5.957   4.378  16.113
15108TIP3   OH266738   1.031   3.534   2.662
15108TIP3    H166739   0.941   3.502   2.659
15108TIP3    H266740   1.053   3.537   2.755
15109TIP3   OH266741   0.118   5.175  16.966
15109TIP3    H166742   0.203   5.210  16.940
15109TIP3    H266743   0.115   5.087  16.929
15110TIP3   OH266744   1.701   6.727   0.506
15110TIP3    H166745   1.764   6.732   0.578
15110TIP3    H266746   1.733   6.654   0.452
15111TIP3   OH266747   1.757   0.411  16.333
15111TIP3    H166748   1.743   0.445  16.421
15111TIP3    H266749   1.836   0.456  16.302
15112TIP3   OH266750   5.298   1.429  10.523
15112TIP3    H166751   5.380   1.386  10.544
15112TIP3    H266752   5.322   1.497  10.460
15113TIP3   OH266753   4.037   0.457   0.725
15113TIP3    H166754   4.076   0.545   0.725
15113TIP3    H266755   3.955   0.468   0.678
15114TIP3   OH266756   1.217   2.257  14.896
15114TIP3    H166757   1.288   2.316  14.871
15114TIP3    H266758   1.153   2.313  14.940
15115TIP3   OH266759   4.951   6.304  10.818
15115TIP3    H166760   5.029   6.249  10.808
15115TIP3    H266761   4.937   6.342  10.731
15116TIP3   OH266762   2.906   0.704  13.645
15116TIP3    H166763   2.899   0.633  13.581
15116TIP3    H266764   2.996   0.701  13.675
15117TIP3   OH266765   1.010   0.568  14.445
15117TIP3    H166766   0.984   0.584  14.535
15117TIP3    H266767   0.973   0.482  14.425
15118TIP3   OH266768   5.636   1.426  17.187
15118TIP3    H166769   5.694   1.392  17.256
15118TIP3    H266770   5.590   1.349  17.154
15119TIP3   OH266771   1.884   4.346   3.110
15119TIP3    H166772   1.927   4.287   3.049
15119TIP3    H266773   1.955   4.387   3.159
15120TIP3   OH266774   5.437   6.209   1.667
15120TIP3    H166775   5.499   6.254   1.610
15120TIP3    H266776   5.405   6.277   1.726
15121TIP3   OH266777   1.325   2.769   5.496
15121TIP3    H166778   1.383   2.834   5.536
15121TIP3    H266779   1.356   2.761   5.406
15122TIP3   OH266780   2.035   3.983   2.734
15122TIP3    H166781   2.000   3.956   2.819
15122TIP3    H266782   2.120   4.021   2.754
15123TIP3   OH266783   6.256   3.888  14.867
15123TIP3    H166784   6.349   3.888  14.890
15123TIP3    H266785   6.242   3.802  14.828
15124TIP3   OH266786   4.592   2.475   5.250
15124TIP3    H166787   4.645   2.528   5.191
15124TIP3    H266788   4.608   2.385   5.222
15125TIP3   OH266789   4.867   5.804   2.412
15125TIP3    H166790   4.908   5.734   2.361
15125TIP3    H266791   4.937   5.868   2.424
15126TIP3   OH266792   4.541   3.008   0.427
15126TIP3    H166793   4.540   2.974   0.337
15126TIP3    H266794   4.574   3.097   0.419
15127TIP3   OH266795   5.578   3.321  14.544
15127TIP3    H166796   5.614   3.310  14.456
15127TIP3    H266797   5.581   3.233  14.582
15128TIP3   OH266798   1.513   5.028  11.961
15128TIP3    H166799   1.520   4.957  12.025
15128TIP3    H266800   1.421   5.026  11.933
15129TIP3   OH266801   5.022   4.966  11.716
15129TIP3    H166802   5.036   4.879  11.677
15129TIP3    H266803   4.952   5.005  11.664
15130TIP3   OH266804   1.322   0.031  11.587
15130TIP3    H166805   1.351   0.115  11.623
15130TIP3    H266806   1.379  -0.034  11.628
15131TIP3   OH266807   5.714   5.918  13.082
15131TIP3    H166808   5.754   5.854  13.141
15131TIP3    H266809   5.789   5.959  13.038
15132TIP3   OH266810   3.775   2.179   6.120
15132TIP3    H166811   3.756   2.117   6.191
15132TIP3    H266812   3.866   2.204   6.133
15133TIP3   OH266813   1.873   0.182   2.896
15133TIP3    H166814   1.960   0.216   2.876
15133TIP3    H266815   1.859   0.203   2.988
15134TIP3   OH266816   2.039   1.511   4.508
15134TIP3    H166817   1.958   1.559   4.520
15134TIP3    H266818   2.052   1.462   4.589
15135TIP3   OH266819   1.133   3.192   0.449
15135TIP3    H166820   1.118   3.281   0.416
15135TIP3    H266821   1.070   3.138   0.401
15136TIP3   OH266822   5.681   6.446   2.489
15136TIP3    H166823   5.737   6.372   2.509
15136TIP3    H266824   5.739   6.522   2.490
15137TIP3   OH266825   5.105   6.446   2.027
15137TIP3    H166826   5.030   6.398   1.992
15137TIP3    H266827   5.158   6.380   2.071
15138TIP3   OH266828   4.393   6.274  16.714
15138TIP3    H166829   4.341   6.317  16.782
15138TIP3    H266830   4.402   6.184  16.745
15139TIP3   OH266831   1.347   5.400  13.638
15139TIP3    H166832   1.435   5.366  13.626
15139TIP3    H266833   1.354   5.493  13.615
15140TIP3   OH266834   6.456   4.698   3.467
15140TIP3    H166835   6.362   4.690   3.477
15140TIP3    H266836   6.468   4.732   3.378
15141TIP3   OH266837   2.954   3.057   0.564
15141TIP3    H166838   3.001   3.096   0.490
15141TIP3    H266839   2.874   3.109   0.573
15142TIP3   OH266840   3.906   2.241   2.402
15142TIP3    H166841   3.902   2.312   2.467
15142TIP3    H266842   3.884   2.162   2.452
15143TIP3   OH266843   3.676   3.393   3.475
15143TIP3    H166844   3.581   3.395   3.486
15143TIP3    H266845   3.708   3.458   3.537
15144TIP3   OH266846   6.330   6.339  13.256
15144TIP3    H166847   6.406   6.323  13.313
15144TIP3    H266848   6.255   6.315  13.309
15145TIP3   OH266849   4.724   1.577  16.246
15145TIP3    H166850   4.686   1.621  16.170
15145TIP3    H266851   4.750   1.491  16.212
15146TIP3   OH266852   5.564   2.574  15.674
15146TIP3    H166853   5.604   2.647  15.627
15146TIP3    H266854   5.638   2.520  15.702
15147TIP3   OH266855   1.600   4.678   5.602
15147TIP3    H166856   1.651   4.611   5.648
15147TIP3    H266857   1.569   4.633   5.524
15148TIP3   OH266858   4.566   5.854   3.243
15148TIP3    H166859   4.578   5.807   3.325
15148TIP3    H266860   4.649   5.900   3.229
15149TIP3   OH266861   1.548   3.025   0.764
15149TIP3    H166862   1.543   2.985   0.678
15149TIP3    H266863   1.597   3.106   0.751
15150TIP3   OH266864   6.506   6.168  14.876
15150TIP3    H166865   6.601   6.180  14.883
15150TIP3    H266866   6.470   6.213  14.952
15151TIP3   OH266867   1.249   1.800   3.308
15151TIP3    H166868   1.314   1.838   3.250
15151TIP3    H266869   1.171   1.791   3.254
15152TIP3   OH266870   4.909   3.136  15.001
15152TIP3    H166871   4.909   3.230  15.020
15152TIP3    H266872   4.985   3.102  15.049
15153TIP3   OH266873   6.176   4.001  11.890
15153TIP3    H166874   6.114   3.933  11.863
15153TIP3    H266875   6.261   3.969  11.859
15154TIP3   OH266876   4.397   1.482  16.514
15154TIP3    H166877   4.352   1.468  16.598
15154TIP3    H266878   4.408   1.393  16.479
15155TIP3   OH266879   3.431   3.313   0.042
15155TIP3    H166880   3.510   3.336  -0.007
15155TIP3    H266881   3.392   3.397   0.066
15156TIP3   OH266882   3.139   6.326   5.458
15156TIP3    H166883   3.150   6.398   5.519
15156TIP3    H266884   3.072   6.355   5.397
15157TIP3   OH266885   1.912   4.078  16.987
15157TIP3    H166886   1.898   4.155  16.932
15157TIP3    H266887   2.004   4.055  16.974
15158TIP3   OH266888   0.371   6.605   3.011
15158TIP3    H166889   0.316   6.532   3.038
15158TIP3    H266890   0.434   6.567   2.950
15159TIP3   OH266891   5.834   5.784  13.279
15159TIP3    H166892   5.916   5.768  13.232
15159TIP3    H266893   5.861   5.828  13.359
15160TIP3   OH266894   5.777   0.747  15.485
15160TIP3    H166895   5.789   0.787  15.399
15160TIP3    H266896   5.735   0.816  15.537
15161TIP3   OH266897   0.491   2.593   4.351
15161TIP3    H166898   0.566   2.643   4.321
15161TIP3    H266899   0.517   2.502   4.344
15162TIP3   OH266900   4.664   2.811  13.662
15162TIP3    H166901   4.745   2.813  13.610
15162TIP3    H266902   4.683   2.865  13.739
15163TIP3   OH266903   2.067   0.423  14.522
15163TIP3    H166904   2.135   0.488  14.506
15163TIP3    H266905   2.107   0.360  14.582
15164TIP3   OH266906   5.389   5.035  12.957
15164TIP3    H166907   5.369   5.100  13.024
15164TIP3    H266908   5.474   5.060  12.922
15165TIP3   OH266909   1.332   6.708   5.867
15165TIP3    H166910   1.267   6.719   5.798
15165TIP3    H266911   1.416   6.707   5.821
15166TIP3   OH266912   6.461   3.778  11.577
15166TIP3    H166913   6.514   3.801  11.500
15166TIP3    H266914   6.484   3.687  11.595
15167TIP3   OH266915   6.503   3.773   2.645
15167TIP3    H166916   6.422   3.725   2.663
15167TIP3    H266917   6.549   3.720   2.580
15168TIP3   OH266918   4.435   4.923   0.022
15168TIP3    H166919   4.381   4.998   0.044
15168TIP3    H266920   4.461   4.938  -0.069
15169TIP3   OH266921   1.170   1.441  11.236
15169TIP3    H166922   1.232   1.397  11.179
15169TIP3    H266923   1.126   1.505  11.180
15170TIP3   OH266924   1.955   1.766   4.818
15170TIP3    H166925   1.914   1.697   4.766
15170TIP3    H266926   1.882   1.810   4.861
15171TIP3   OH266927   5.591   5.988  14.887
15171TIP3    H166928   5.579   5.909  14.835
15171TIP3    H266929   5.679   6.018  14.867
15172TIP3   OH266930   0.298   6.208   4.635
15172TIP3    H166931   0.323   6.218   4.726
15172TIP3    H266932   0.224   6.269   4.623
15173TIP3   OH266933   0.379   1.633  16.982
15173TIP3    H166934   0.372   1.559  16.922
15173TIP3    H266935   0.461   1.618  17.029
15174TIP3   OH266936   4.339   3.970   6.724
15174TIP3    H166937   4.425   3.930   6.734
15174TIP3    H266938   4.317   3.955   6.632
15175TIP3   OH266939   3.844   4.418   0.447
15175TIP3    H166940   3.831   4.467   0.366
15175TIP3    H266941   3.788   4.461   0.511
15176TIP3   OH266942   4.562   4.417   1.496
15176TIP3    H166943   4.652   4.443   1.477
15176TIP3    H266944   4.510   4.496   1.482
15177TIP3   OH266945   1.855   3.182   2.853
15177TIP3    H166946   1.814   3.116   2.798
15177TIP3    H266947   1.925   3.135   2.899
15178TIP3   OH266948   4.628   2.067   5.459
15178TIP3    H166949   4.712   2.106   5.437
15178TIP3    H266950   4.633   2.049   5.553
15179TIP3   OH266951   4.258   2.411  15.550
15179TIP3    H166952   4.227   2.469  15.620
15179TIP3    H266953   4.341   2.377  15.584
15180TIP3   OH266954   5.757   2.115  16.917
15180TIP3    H166955   5.760   2.031  16.964
15180TIP3    H266956   5.686   2.163  16.961
15181TIP3   OH266957   4.528   2.698  14.091
15181TIP3    H166958   4.593   2.769  14.089
15181TIP3    H266959   4.581   2.619  14.097
15182TIP3   OH266960   3.458   4.777  16.618
15182TIP3    H166961   3.382   4.721  16.606
15182TIP3    H266962   3.523   4.721  16.662
15183TIP3   OH266963   4.782   3.839  15.624
15183TIP3    H166964   4.749   3.752  15.645
15183TIP3    H266965   4.867   3.844  15.668
15184TIP3   OH266966   6.427   4.817   1.109
15184TIP3    H166967   6.386   4.846   1.028
15184TIP3    H266968   6.520   4.810   1.087
15185TIP3   OH266969   3.581   2.042   5.140
15185TIP3    H166970   3.526   2.049   5.218
15185TIP3    H266971   3.612   1.952   5.141
15186TIP3   OH266972   2.394   2.199   1.565
15186TIP3    H166973   2.300   2.211   1.579
15186TIP3    H266974   2.433   2.219   1.650
15187TIP3   OH266975   0.796   4.265  16.146
15187TIP3    H166976   0.883   4.249  16.182
15187TIP3    H266977   0.811   4.307  16.062
15188TIP3   OH266978   1.389   4.519  15.730
15188TIP3    H166979   1.388   4.591  15.667
15188TIP3    H266980   1.397   4.562  15.815
15189TIP3   OH266981   1.313   5.635   6.122
15189TIP3    H166982   1.367   5.703   6.162
15189TIP3    H266983   1.289   5.671   6.037
15190TIP3   OH266984   5.555   2.255  17.075
15190TIP3    H166985   5.591   2.334  17.033
15190TIP3    H266986   5.513   2.287  17.155
15191TIP3   OH266987   1.443   3.166  12.161
15191TIP3    H166988   1.348   3.177  12.154
15191TIP3    H266989   1.462   3.176  12.254
15192TIP3   OH266990   6.512   2.473   6.046
15192TIP3    H166991   6.454   2.547   6.029
15192TIP3    H266992   6.457   2.396   6.035
15193TIP3   OH266993   3.880   5.370  15.666
15193TIP3    H166994   3.963   5.349  15.708
15193TIP3    H266995   3.891   5.459  15.633
15194TIP3   OH266996   1.730   3.223   0.750
15194TIP3    H166997   1.792   3.295   0.747
15194TIP3    H266998   1.781   3.148   0.781
15195TIP3   OH266999   6.464   0.190   1.664
15195TIP3    H167000   6.403   0.263   1.660
15195TIP3    H267001   6.551   0.231   1.674
15196TIP3   OH267002   4.227   3.257   1.568
15196TIP3    H167003   4.213   3.169   1.603
15196TIP3    H267004   4.235   3.313   1.645
15197TIP3   OH267005   6.420   3.939   3.390
15197TIP3    H167006   6.485   3.932   3.460
15197TIP3    H267007   6.348   3.884   3.419
15198TIP3   OH267008   5.939   0.794   4.297
15198TIP3    H167009   5.912   0.869   4.350
15198TIP3    H267010   5.863   0.736   4.297
15199TIP3   OH267011   3.787   0.545  10.692
15199TIP3    H167012   3.809   0.636  10.674
15199TIP3    H267013   3.815   0.531  10.782
15200TIP3   OH267014   2.073   1.468  12.248
15200TIP3    H167015   2.123   1.534  12.201
15200TIP3    H267016   1.993   1.512  12.274
15201TIP3   OH267017   6.017   5.582   4.866
15201TIP3    H167018   6.016   5.487   4.878
15201TIP3    H267019   6.025   5.594   4.772
15202TIP3   OH267020   1.410   3.393  13.335
15202TIP3    H167021   1.405   3.474  13.385
15202TIP3    H267022   1.432   3.326  13.399
15203TIP3   OH267023   5.322   1.528   1.962
15203TIP3    H167024   5.375   1.585   2.017
15203TIP3    H267025   5.385   1.481   1.908
15204TIP3   OH267026   3.392   1.400   4.255
15204TIP3    H167027   3.367   1.360   4.338
15204TIP3    H267028   3.449   1.335   4.213
15205TIP3   OH267029   1.083   4.926   0.597
15205TIP3    H167030   1.120   4.840   0.574
15205TIP3    H267031   1.066   4.920   0.691
15206TIP3   OH267032   6.658   3.075  12.504
15206TIP3    H167033   6.652   3.106  12.413
15206TIP3    H267034   6.582   3.018  12.514
15207TIP3   OH267035   0.286   6.745   3.667
15207TIP3    H167036   0.256   6.809   3.731
15207TIP3    H267037   0.225   6.754   3.593
15208TIP3   OH267038   2.950   2.942  10.953
15208TIP3    H167039   3.043   2.935  10.931
15208TIP3    H267040   2.922   3.025  10.915
15209TIP3   OH267041   6.309   4.332  12.224
15209TIP3    H167042   6.383   4.302  12.277
15209TIP3    H267043   6.339   4.414  12.185
15210TIP3   OH267044   0.277   3.022   0.513
15210TIP3    H167045   0.252   3.114   0.524
15210TIP3    H267046   0.372   3.022   0.522
15211TIP3   OH267047   0.861   6.599   0.448
15211TIP3    H167048   0.823   6.648   0.374
15211TIP3    H267049   0.848   6.507   0.425
15212TIP3   OH267050   6.332   4.711   6.487
15212TIP3    H167051   6.385   4.660   6.425
15212TIP3    H267052   6.325   4.798   6.445
15213TIP3   OH267053   0.482   6.592  13.494
15213TIP3    H167054   0.430   6.590  13.574
15213TIP3    H267055   0.427   6.639  13.431
15214TIP3   OH267056   3.482   3.855  17.075
15214TIP3    H167057   3.408   3.889  17.125
15214TIP3    H267058   3.542   3.929  17.066
15215TIP3   OH267059   1.179   5.705  11.765
15215TIP3    H167060   1.215   5.701  11.854
15215TIP3    H267061   1.249   5.745  11.713
15216TIP3   OH267062   3.858   2.401  15.299
15216TIP3    H167063   3.770   2.414  15.335
15216TIP3    H267064   3.910   2.372  15.373
15217TIP3   OH267065   3.316   4.246  14.849
15217TIP3    H167066   3.343   4.331  14.884
15217TIP3    H267067   3.331   4.185  14.922
15218TIP3   OH267068   2.653   3.975   5.300
15218TIP3    H167069   2.742   3.994   5.330
15218TIP3    H267070   2.665   3.932   5.215
15219TIP3   OH267071   2.744   2.288   3.428
15219TIP3    H167072   2.813   2.256   3.486
15219TIP3    H267073   2.663   2.259   3.469
15220TIP3   OH267074   6.455   4.916  16.552
15220TIP3    H167075   6.390   4.846  16.543
15220TIP3    H267076   6.536   4.870  16.575
15221TIP3   OH267077   2.789   6.642   5.076
15221TIP3    H167078   2.861   6.640   5.138
15221TIP3    H267079   2.736   6.717   5.102
15222TIP3   OH267080   5.784   2.994  13.477
15222TIP3    H167081   5.794   3.042  13.395
15222TIP3    H267082   5.715   3.042  13.524
15223TIP3   OH267083   3.953   5.615  15.357
15223TIP3    H167084   4.024   5.669  15.392
15223TIP3    H267085   3.874   5.667  15.372
15224TIP3   OH267086   2.786   5.591  13.387
15224TIP3    H167087   2.757   5.502  13.366
15224TIP3    H267088   2.839   5.617  13.311
15225TIP3   OH267089   5.347   5.262  13.142
15225TIP3    H167090   5.417   5.325  13.161
15225TIP3    H267091   5.293   5.306  13.077
15226TIP3   OH267092   3.979   6.464  15.132
15226TIP3    H167093   4.017   6.534  15.078
15226TIP3    H267094   3.961   6.394  15.069
15227TIP3   OH267095   4.485   2.258  15.674
15227TIP3    H167096   4.425   2.187  15.653
15227TIP3    H267097   4.459   2.285  15.763
15228TIP3   OH267098   3.857   4.691   5.020
15228TIP3    H167099   3.888   4.758   4.959
15228TIP3    H267100   3.909   4.704   5.099
15229TIP3   OH267101   2.909   2.417   0.473
15229TIP3    H167102   2.971   2.397   0.403
15229TIP3    H267103   2.895   2.512   0.467
15230TIP3   OH267104   6.604   6.638   3.870
15230TIP3    H167105   6.685   6.672   3.909
15230TIP3    H267106   6.618   6.544   3.865
15231TIP3   OH267107   4.753   1.328  16.133
15231TIP3    H167108   4.802   1.246  16.139
15231TIP3    H267109   4.681   1.309  16.074
15232TIP3   OH267110   0.890   4.775   1.349
15232TIP3    H167111   0.914   4.707   1.286
15232TIP3    H267112   0.856   4.846   1.295
15233TIP3   OH267113   2.070   2.262  16.041
15233TIP3    H167114   1.977   2.243  16.027
15233TIP3    H267115   2.079   2.269  16.136
15234TIP3   OH267116   1.181   6.251   5.629
15234TIP3    H167117   1.153   6.301   5.552
15234TIP3    H267118   1.176   6.159   5.601
15235TIP3   OH267119   3.690   5.710   4.068
15235TIP3    H167120   3.666   5.802   4.060
15235TIP3    H267121   3.627   5.675   4.132
15236TIP3   OH267122   5.769   1.011  11.750
15236TIP3    H167123   5.731   1.094  11.778
15236TIP3    H267124   5.721   0.945  11.800
15237TIP3   OH267125   0.525   1.928   2.428
15237TIP3    H167126   0.432   1.938   2.408
15237TIP3    H267127   0.565   1.908   2.344
15238TIP3   OH267128   4.526   4.930  16.976
15238TIP3    H167129   4.581   4.895  16.906
15238TIP3    H267130   4.481   5.005  16.937
15239TIP3   OH267131   5.243   1.578  14.829
15239TIP3    H167132   5.155   1.544  14.844
15239TIP3    H267133   5.301   1.505  14.852
15240TIP3   OH267134   1.250   5.401   4.514
15240TIP3    H167135   1.342   5.384   4.536
15240TIP3    H267136   1.252   5.481   4.461
15241TIP3   OH267137   4.142   0.350  14.320
15241TIP3    H167138   4.122   0.431  14.368
15241TIP3    H267139   4.117   0.280  14.380
15242TIP3   OH267140   2.438   3.573  16.943
15242TIP3    H167141   2.423   3.664  16.972
15242TIP3    H267142   2.383   3.521  17.001
15243TIP3   OH267143   0.304   4.507   5.322
15243TIP3    H167144   0.396   4.498   5.348
15243TIP3    H267145   0.305   4.573   5.253
15244TIP3   OH267146   0.007   1.128   0.490
15244TIP3    H167147  -0.022   1.037   0.494
15244TIP3    H267148  -0.010   1.155   0.400
15245TIP3   OH267149   5.013   0.694  10.658
15245TIP3    H167150   5.107   0.699  10.640
15245TIP3    H267151   4.990   0.783  10.684
15246TIP3   OH267152   3.667   4.271  16.565
15246TIP3    H167153   3.714   4.219  16.500
15246TIP3    H267154   3.716   4.353  16.570
15247TIP3   OH267155   4.533   0.320  16.033
15247TIP3    H167156   4.459   0.381  16.035
15247TIP3    H267157   4.608   0.373  16.059
15248TIP3   OH267158   1.860   2.191  13.101
15248TIP3    H167159   1.872   2.104  13.061
15248TIP3    H267160   1.910   2.187  13.182
15249TIP3   OH267161   2.094   5.415   3.392
15249TIP3    H167162   2.076   5.486   3.454
15249TIP3    H267163   2.119   5.461   3.312
15250TIP3   OH267164   5.724   6.688   5.656
15250TIP3    H167165   5.784   6.613   5.663
15250TIP3    H267166   5.782   6.764   5.659
15251TIP3   OH267167   0.349   4.474   1.418
15251TIP3    H167168   0.372   4.404   1.479
15251TIP3    H267169   0.352   4.554   1.471
15252TIP3   OH267170   2.262   0.254   1.496
15252TIP3    H167171   2.319   0.202   1.553
15252TIP3    H267172   2.286   0.345   1.514
15253TIP3   OH267173   6.007   0.107   5.063
15253TIP3    H167174   5.939   0.139   5.004
15253TIP3    H267175   6.053   0.039   5.012
15254TIP3   OH267176   1.924   1.944  13.304
15254TIP3    H167177   1.990   1.934  13.235
15254TIP3    H267178   1.972   1.928  13.386
15255TIP3   OH267179   5.849   3.751   5.908
15255TIP3    H167180   5.866   3.841   5.937
15255TIP3    H267181   5.762   3.731   5.943
15256TIP3   OH267182   3.549   5.246  12.617
15256TIP3    H167183   3.601   5.189  12.561
15256TIP3    H267184   3.609   5.272  12.687
15257TIP3   OH267185   0.452   1.193   0.464
15257TIP3    H167186   0.496   1.112   0.440
15257TIP3    H267187   0.496   1.261   0.412
15258TIP3   OH267188   1.586   6.411   2.821
15258TIP3    H167189   1.677   6.440   2.810
15258TIP3    H267190   1.576   6.340   2.758
15259TIP3   OH267191   3.263   0.432   4.657
15259TIP3    H167192   3.265   0.336   4.658
15259TIP3    H267193   3.176   0.455   4.691
15260TIP3   OH267194   2.568   0.408   2.668
15260TIP3    H167195   2.522   0.403   2.751
15260TIP3    H267196   2.595   0.500   2.661
15261TIP3   OH267197   6.445   1.851  17.175
15261TIP3    H167198   6.451   1.932  17.125
15261TIP3    H267199   6.463   1.878  17.266
15262TIP3   OH267200   1.303   6.178  11.171
15262TIP3    H167201   1.309   6.126  11.091
15262TIP3    H267202   1.225   6.233  11.157
15263TIP3   OH267203   3.240   1.531   4.652
15263TIP3    H167204   3.328   1.510   4.621
15263TIP3    H267205   3.216   1.458   4.709
15264TIP3   OH267206   5.569   3.917   2.762
15264TIP3    H167207   5.582   3.900   2.669
15264TIP3    H267208   5.614   3.845   2.806
15265TIP3   OH267209   6.333   2.907  12.015
15265TIP3    H167210   6.242   2.924  11.992
15265TIP3    H267211   6.351   2.819  11.981
15266TIP3   OH267212   6.100   5.252   3.577
15266TIP3    H167213   6.014   5.235   3.614
15266TIP3    H267214   6.150   5.290   3.649
15267TIP3   OH267215   3.626   2.620   2.138
15267TIP3    H167216   3.571   2.696   2.119
15267TIP3    H267217   3.676   2.645   2.216
15268TIP3   OH267218   0.923   5.532  11.886
15268TIP3    H167219   0.868   5.549  11.962
15268TIP3    H267220   1.008   5.508  11.923
15269TIP3   OH267221   2.837   4.818  16.664
15269TIP3    H167222   2.897   4.851  16.598
15269TIP3    H267223   2.753   4.811  16.619
15270TIP3   OH267224   2.170   3.625  15.760
15270TIP3    H167225   2.152   3.537  15.727
15270TIP3    H267226   2.092   3.676  15.737
15271TIP3   OH267227   2.100   3.624   5.005
15271TIP3    H167228   2.195   3.621   4.994
15271TIP3    H267229   2.066   3.588   4.923
15272TIP3   OH267230   0.869   2.558   2.321
15272TIP3    H167231   0.797   2.496   2.334
15272TIP3    H267232   0.897   2.581   2.410
15273TIP3   OH267233   4.493   0.516  13.618
15273TIP3    H167234   4.467   0.605  13.644
15273TIP3    H267235   4.440   0.459  13.673
15274TIP3   OH267236   0.635   0.471   0.955
15274TIP3    H167237   0.629   0.384   0.993
15274TIP3    H267238   0.688   0.459   0.875
15275TIP3   OH267239   3.924   3.545   4.826
15275TIP3    H167240   3.987   3.513   4.890
15275TIP3    H267241   3.962   3.626   4.793
15276TIP3   OH267242   0.553   3.030   0.532
15276TIP3    H167243   0.601   2.963   0.581
15276TIP3    H267244   0.620   3.091   0.502
15277TIP3   OH267245   2.553   0.679   3.911
15277TIP3    H167246   2.535   0.623   3.986
15277TIP3    H267247   2.491   0.751   3.920
15278TIP3   OH267248   1.562   1.078   1.953
15278TIP3    H167249   1.586   0.992   1.989
15278TIP3    H267250   1.466   1.078   1.955
15279TIP3   OH267251   3.631   4.302   3.486
15279TIP3    H167252   3.570   4.331   3.554
15279TIP3    H267253   3.702   4.366   3.488
15280TIP3   OH267254   6.403   0.678   0.418
15280TIP3    H167255   6.465   0.677   0.345
15280TIP3    H267256   6.335   0.615   0.392
15281TIP3   OH267257   4.065   1.045   0.479
15281TIP3    H167258   4.018   1.095   0.546
15281TIP3    H267259   4.150   1.027   0.518
15282TIP3   OH267260   5.343   2.692  14.754
15282TIP3    H167261   5.277   2.761  14.751
15282TIP3    H267262   5.296   2.612  14.732
15283TIP3   OH267263   6.125   4.134  13.523
15283TIP3    H167264   6.210   4.177  13.521
15283TIP3    H267265   6.106   4.115  13.431
15284TIP3   OH267266   5.441   1.383  14.917
15284TIP3    H167267   5.444   1.322  14.843
15284TIP3    H267268   5.522   1.433  14.909
15285TIP3   OH267269   0.725   6.506  15.992
15285TIP3    H167270   0.801   6.555  16.024
15285TIP3    H267271   0.669   6.496  16.069
15286TIP3   OH267272   3.636   1.127  15.945
15286TIP3    H167273   3.610   1.043  15.983
15286TIP3    H267274   3.732   1.125  15.947
15287TIP3   OH267275   5.750   0.233  15.660
15287TIP3    H167276   5.770   0.300  15.595
15287TIP3    H267277   5.835   0.200  15.689
15288TIP3   OH267278   4.034   1.179  16.689
15288TIP3    H167279   4.075   1.252  16.736
15288TIP3    H267280   4.010   1.117  16.757
15289TIP3   OH267281   4.477   1.234  11.532
15289TIP3    H167282   4.406   1.184  11.491
15289TIP3    H267283   4.434   1.282  11.603
15290TIP3   OH267284   1.275   4.067  16.283
15290TIP3    H167285   1.329   4.137  16.320
15290TIP3    H267286   1.338   3.998  16.262
15291TIP3   OH267287   2.633   5.658   5.161
15291TIP3    H167288   2.585   5.609   5.228
15291TIP3    H267289   2.722   5.622   5.163
15292TIP3   OH267290   2.943   5.420   5.041
15292TIP3    H167291   2.897   5.452   4.963
15292TIP3    H267292   3.027   5.389   5.007
15293TIP3   OH267293   4.168   1.674  13.915
15293TIP3    H167294   4.162   1.673  13.819
15293TIP3    H267295   4.108   1.744  13.942
15294TIP3   OH267296   1.561   1.425  11.993
15294TIP3    H167297   1.593   1.348  11.945
15294TIP3    H267298   1.466   1.421  11.983
15295TIP3   OH267299   5.878   6.148   5.214
15295TIP3    H167300   5.806   6.122   5.155
15295TIP3    H267301   5.916   6.065   5.243
15296TIP3   OH267302   1.359   4.604  13.214
15296TIP3    H167303   1.360   4.669  13.285
15296TIP3    H267304   1.276   4.619  13.169
15297TIP3   OH267305   2.651   0.656  14.497
15297TIP3    H167306   2.592   0.683  14.568
15297TIP3    H267307   2.676   0.737  14.455
15298TIP3   OH267308   4.463   4.620  13.137
15298TIP3    H167309   4.508   4.580  13.211
15298TIP3    H267310   4.533   4.650  13.079
15299TIP3   OH267311   2.474   4.526  13.105
15299TIP3    H167312   2.399   4.528  13.046
15299TIP3    H267313   2.476   4.437  13.139
15300TIP3   OH267314   0.531   2.443  15.876
15300TIP3    H167315   0.508   2.377  15.810
15300TIP3    H267316   0.519   2.526  15.831
15301TIP3   OH267317   6.409   6.212   5.000
15301TIP3    H167318   6.408   6.129   5.048
15301TIP3    H267319   6.331   6.257   5.031
15302TIP3   OH267320   1.234   2.010   1.992
15302TIP3    H167321   1.156   2.021   1.938
15302TIP3    H267322   1.300   2.065   1.950
15303TIP3   OH267323   5.729   4.255  13.270
15303TIP3    H167324   5.799   4.268  13.334
15303TIP3    H267325   5.649   4.256  13.323
15304TIP3   OH267326   0.590   3.943   5.084
15304TIP3    H167327   0.589   4.008   5.014
15304TIP3    H267328   0.531   3.874   5.053
15305TIP3   OH267329   0.110   3.962  10.983
15305TIP3    H167330   0.184   3.904  10.969
15305TIP3    H267331   0.037   3.919  10.939
15306TIP3   OH267332   0.019   4.497   6.123
15306TIP3    H167333  -0.058   4.513   6.070
15306TIP3    H267334   0.004   4.545   6.204
15307TIP3   OH267335   3.240   1.684  11.958
15307TIP3    H167336   3.149   1.654  11.953
15307TIP3    H267337   3.233   1.777  11.981
15308TIP3   OH267338   2.750   3.555  17.214
15308TIP3    H167339   2.815   3.492  17.246
15308TIP3    H267340   2.669   3.531  17.259
15309TIP3   OH267341   5.912   1.852  12.452
15309TIP3    H167342   5.882   1.899  12.374
15309TIP3    H267343   5.992   1.898  12.479
15310TIP3   OH267344   3.041   0.993   2.450
15310TIP3    H167345   3.030   1.084   2.476
15310TIP3    H267346   3.117   0.994   2.391
15311TIP3   OH267347   4.535   5.712   0.572
15311TIP3    H167348   4.505   5.762   0.648
15311TIP3    H267349   4.523   5.620   0.597
15312TIP3   OH267350   6.570   4.574  15.722
15312TIP3    H167351   6.478   4.594  15.704
15312TIP3    H267352   6.570   4.483  15.750
15313TIP3   OH267353   0.159   6.297   2.175
15313TIP3    H167354   0.148   6.367   2.110
15313TIP3    H267355   0.140   6.216   2.128
15314TIP3   OH267356   5.603   4.877  14.922
15314TIP3    H167357   5.648   4.839  14.846
15314TIP3    H267358   5.674   4.902  14.981
15315TIP3   OH267359   3.654   2.825  16.536
15315TIP3    H167360   3.727   2.787  16.584
15315TIP3    H267361   3.585   2.759  16.539
15316TIP3   OH267362   4.555   5.552   1.003
15316TIP3    H167363   4.560   5.590   1.091
15316TIP3    H267364   4.484   5.487   1.009
15317TIP3   OH267365   4.379   3.891   4.330
15317TIP3    H167366   4.382   3.842   4.412
15317TIP3    H267367   4.318   3.963   4.347
15318TIP3   OH267368   5.384   4.232  10.978
15318TIP3    H167369   5.360   4.234  11.071
15318TIP3    H267370   5.455   4.297  10.971
15319TIP3   OH267371   1.195   1.031   0.004
15319TIP3    H167372   1.264   1.091   0.032
15319TIP3    H267373   1.228   0.944   0.027
15320TIP3   OH267374   5.787   4.099   2.185
15320TIP3    H167375   5.841   4.043   2.129
15320TIP3    H267376   5.829   4.094   2.271
15321TIP3   OH267377   5.455   2.353   0.087
15321TIP3    H167378   5.371   2.313   0.107
15321TIP3    H267379   5.434   2.444   0.066
15322TIP3   OH267380   5.046   4.895   2.016
15322TIP3    H167381   5.085   4.982   2.012
15322TIP3    H267382   4.970   4.905   2.074
15323TIP3   OH267383   1.665   1.937   1.004
15323TIP3    H167384   1.620   1.913   1.085
15323TIP3    H267385   1.597   1.975   0.949
15324TIP3   OH267386   2.773   1.606  16.299
15324TIP3    H167387   2.725   1.563  16.228
15324TIP3    H267388   2.783   1.538  16.366
15325TIP3   OH267389   5.693   4.207  12.866
15325TIP3    H167390   5.766   4.248  12.820
15325TIP3    H267391   5.617   4.261  12.842
15326TIP3   OH267392   5.441   6.271   2.805
15326TIP3    H167393   5.519   6.306   2.848
15326TIP3    H267394   5.474   6.205   2.744
15327TIP3   OH267395   1.509   6.438   1.136
15327TIP3    H167396   1.414   6.432   1.148
15327TIP3    H267397   1.543   6.355   1.168
15328TIP3   OH267398   5.113   2.065   1.264
15328TIP3    H167399   5.081   1.975   1.266
15328TIP3    H267400   5.184   2.064   1.200
15329TIP3   OH267401   0.711   4.532   1.549
15329TIP3    H167402   0.646   4.568   1.488
15329TIP3    H267403   0.792   4.529   1.499
15330TIP3   OH267404   2.881   4.981  16.102
15330TIP3    H167405   2.904   5.073  16.108
15330TIP3    H267406   2.965   4.936  16.089
15331TIP3   OH267407   1.745   1.845   3.225
15331TIP3    H167408   1.731   1.770   3.283
15331TIP3    H267409   1.752   1.807   3.138
15332TIP3   OH267410   5.782   0.460  13.609
15332TIP3    H167411   5.709   0.407  13.639
15332TIP3    H267412   5.856   0.431  13.662
15333TIP3   OH267413   1.159   6.708  12.742
15333TIP3    H167414   1.156   6.798  12.774
15333TIP3    H267415   1.085   6.664  12.784
15334TIP3   OH267416   3.119   2.780  14.120
15334TIP3    H167417   3.068   2.733  14.186
15334TIP3    H267418   3.132   2.715  14.051
15335TIP3   OH267419   4.159   0.333  11.610
15335TIP3    H167420   4.216   0.409  11.623
15335TIP3    H267421   4.147   0.297  11.698
15336TIP3   OH267422   0.050   0.521   3.017
15336TIP3    H167423  -0.007   0.467   3.073
15336TIP3    H267424   0.033   0.611   3.046
15337TIP3   OH267425   3.011   6.388   2.858
15337TIP3    H167426   3.089   6.435   2.886
15337TIP3    H267427   3.021   6.300   2.895
15338TIP3   OH267428   0.202   3.297   0.517
15338TIP3    H167429   0.107   3.303   0.521
15338TIP3    H267430   0.228   3.367   0.458
15339TIP3   OH267431   1.373   4.613   2.631
15339TIP3    H167432   1.399   4.637   2.542
15339TIP3    H267433   1.337   4.694   2.668
15340TIP3   OH267434   2.045   3.842  12.104
15340TIP3    H167435   1.951   3.826  12.099
15340TIP3    H267436   2.061   3.861  12.196
15341TIP3   OH267437   5.119   4.562  15.721
15341TIP3    H167438   5.101   4.468  15.722
15341TIP3    H267439   5.203   4.570  15.675
15342TIP3   OH267440   2.384   0.578   5.880
15342TIP3    H167441   2.313   0.603   5.822
15342TIP3    H267442   2.411   0.491   5.850
15343TIP3   OH267443   0.827   3.549   3.644
15343TIP3    H167444   0.792   3.619   3.698
15343TIP3    H267445   0.846   3.478   3.706
15344TIP3   OH267446   6.004   0.440  13.758
15344TIP3    H167447   6.057   0.443  13.837
15344TIP3    H267448   6.040   0.507  13.701
15345TIP3   OH267449   0.854   5.157  15.268
15345TIP3    H167450   0.780   5.118  15.316
15345TIP3    H267451   0.821   5.170  15.180
15346TIP3   OH267452   1.835   5.251  17.226
15346TIP3    H167453   1.848   5.315  17.156
15346TIP3    H267454   1.801   5.173  17.182
15347TIP3   OH267455   6.560   5.751  12.253
15347TIP3    H167456   6.568   5.743  12.348
15347TIP3    H267457   6.466   5.751  12.236
15348TIP3   OH267458   1.890   3.837   0.086
15348TIP3    H167459   1.861   3.767   0.027
15348TIP3    H267460   1.822   3.840   0.153
15349TIP3   OH267461   0.429   4.407  15.451
15349TIP3    H167462   0.509   4.370  15.486
15349TIP3    H267463   0.371   4.332  15.436
15350TIP3   OH267464   1.107   0.865   2.545
15350TIP3    H167465   1.054   0.876   2.624
15350TIP3    H267466   1.046   0.878   2.473
15351TIP3   OH267467   1.158   4.700  16.293
15351TIP3    H167468   1.067   4.678  16.272
15351TIP3    H267469   1.188   4.753  16.220
15352TIP3   OH267470   5.912   1.464   0.811
15352TIP3    H167471   6.006   1.480   0.815
15352TIP3    H267472   5.873   1.552   0.815
15353TIP3   OH267473   0.785   2.085  15.494
15353TIP3    H167474   0.740   2.089  15.409
15353TIP3    H267475   0.838   2.164  15.497
15354TIP3   OH267476   0.652   1.381   2.069
15354TIP3    H167477   0.634   1.453   2.130
15354TIP3    H267478   0.681   1.424   1.989
15355TIP3   OH267479   1.387   3.498   5.886
15355TIP3    H167480   1.418   3.588   5.883
15355TIP3    H267481   1.457   3.450   5.931
15356TIP3   OH267482   3.600   6.451  12.421
15356TIP3    H167483   3.627   6.365  12.454
15356TIP3    H267484   3.682   6.496  12.404
15357TIP3   OH267485   0.245   4.314  13.602
15357TIP3    H167486   0.281   4.227  13.585
15357TIP3    H267487   0.158   4.312  13.562
15358TIP3   OH267488   6.450   0.411   5.566
15358TIP3    H167489   6.542   0.399   5.544
15358TIP3    H267490   6.446   0.403   5.662
15359TIP3   OH267491   4.550   1.404  12.206
15359TIP3    H167492   4.513   1.342  12.268
15359TIP3    H267493   4.642   1.379  12.197
15360TIP3   OH267494   2.992   5.567  16.139
15360TIP3    H167495   2.919   5.521  16.099
15360TIP3    H267496   3.021   5.509  16.210
15361TIP3   OH267497   2.016   0.063   0.033
15361TIP3    H167498   2.106   0.060   0.064
15361TIP3    H267499   1.965   0.093   0.108
15362TIP3   OH267500   4.329   2.574   3.206
15362TIP3    H167501   4.244   2.536   3.183
15362TIP3    H267502   4.393   2.512   3.170
15363TIP3   OH267503   5.435   0.311  16.450
15363TIP3    H167504   5.510   0.261  16.417
15363TIP3    H267505   5.436   0.297  16.544
15364TIP3   OH267506   3.395   2.026   3.888
15364TIP3    H167507   3.472   2.082   3.894
15364TIP3    H267508   3.329   2.079   3.843
15365TIP3   OH267509   5.394   3.143  13.069
15365TIP3    H167510   5.302   3.157  13.091
15365TIP3    H267511   5.441   3.170  13.148
15366TIP3   OH267512   0.651   2.991   6.053
15366TIP3    H167513   0.604   3.061   6.006
15366TIP3    H267514   0.681   2.932   5.983
15367TIP3   OH267515   6.568   3.315   4.445
15367TIP3    H167516   6.601   3.319   4.535
15367TIP3    H267517   6.568   3.222   4.423
15368TIP3   OH267518   5.436   2.645   3.194
15368TIP3    H167519   5.511   2.587   3.204
15368TIP3    H267520   5.376   2.597   3.137
15369TIP3   OH267521   2.742   0.297   4.117
15369TIP3    H167522   2.691   0.346   4.182
15369TIP3    H267523   2.680   0.282   4.045
15370TIP3   OH267524   0.585   0.551  13.439
15370TIP3    H167525   0.538   0.529  13.359
15370TIP3    H267526   0.526   0.523  13.509
15371TIP3   OH267527   4.140   4.618   1.300
15371TIP3    H167528   4.159   4.578   1.215
15371TIP3    H267529   4.194   4.568   1.362
15372TIP3   OH267530   4.920   3.532  13.289
15372TIP3    H167531   4.924   3.608  13.348
15372TIP3    H267532   4.997   3.541  13.233
15373TIP3   OH267533   1.272   6.589   2.327
15373TIP3    H167534   1.277   6.538   2.246
15373TIP3    H267535   1.192   6.559   2.370
15374TIP3   OH267536   2.639   1.638  11.946
15374TIP3    H167537   2.554   1.625  11.903
15374TIP3    H267538   2.702   1.638  11.874
15375TIP3   OH267539   0.989   4.969  12.219
15375TIP3    H167540   0.973   5.044  12.161
15375TIP3    H267541   0.913   4.966  12.276
15376TIP3   OH267542   6.279   3.277   0.752
15376TIP3    H167543   6.196   3.315   0.780
15376TIP3    H267544   6.256   3.188   0.724
15377TIP3   OH267545   2.807   3.004  11.338
15377TIP3    H167546   2.812   2.966  11.250
15377TIP3    H267547   2.897   3.026  11.360
15378TIP3   OH267548   2.077   0.079   4.104
15378TIP3    H167549   2.005   0.125   4.062
15378TIP3    H267550   2.036   0.013   4.160
15379TIP3   OH267551   3.631   1.014   0.911
15379TIP3    H167552   3.547   0.972   0.891
15379TIP3    H267553   3.628   1.097   0.862
15380TIP3   OH267554   3.794   0.800   6.093
15380TIP3    H167555   3.788   0.791   5.998
15380TIP3    H267556   3.772   0.713   6.127
15381TIP3   OH267557   1.427   2.861  15.648
15381TIP3    H167558   1.402   2.923  15.717
15381TIP3    H267559   1.446   2.780  15.695
15382TIP3   OH267560   4.654   1.549  10.465
15382TIP3    H167561   4.592   1.545  10.539
15382TIP3    H267562   4.624   1.481  10.405
15383TIP3   OH267563   1.310   1.508   3.652
15383TIP3    H167564   1.298   1.458   3.571
15383TIP3    H267565   1.352   1.589   3.624
15384TIP3   OH267566   3.922   1.032  11.554
15384TIP3    H167567   3.904   1.113  11.507
15384TIP3    H267568   3.885   1.046  11.641
15385TIP3   OH267569   4.001   3.237  12.571
15385TIP3    H167570   3.929   3.187  12.532
15385TIP3    H267571   4.079   3.204  12.526
15386TIP3   OH267572   6.745   6.277  11.354
15386TIP3    H167573   6.697   6.197  11.337
15386TIP3    H267574   6.681   6.336  11.395
15387TIP3   OH267575   4.224   1.674   0.927
15387TIP3    H167576   4.282   1.607   0.893
15387TIP3    H267577   4.276   1.755   0.924
15388TIP3   OH267578   2.766   5.120   3.646
15388TIP3    H167579   2.814   5.106   3.564
15388TIP3    H267580   2.686   5.165   3.619
15389TIP3   OH267581   3.070   1.633   2.035
15389TIP3    H167582   3.110   1.720   2.036
15389TIP3    H267583   3.073   1.604   2.126
15390TIP3   OH267584   5.156   2.067  12.031
15390TIP3    H167585   5.160   2.113  12.115
15390TIP3    H267586   5.070   2.089  11.995
15391TIP3   OH267587   3.048   0.210  15.424
15391TIP3    H167588   3.025   0.187  15.514
15391TIP3    H267589   3.107   0.140  15.396
15392TIP3   OH267590   3.434   0.520   2.845
15392TIP3    H167591   3.420   0.425   2.844
15392TIP3    H267592   3.432   0.546   2.753
15393TIP3   OH267593   3.910   4.669   3.765
15393TIP3    H167594   3.831   4.723   3.758
15393TIP3    H267595   3.948   4.694   3.850
15394TIP3   OH267596   1.836   3.856   4.386
15394TIP3    H167597   1.916   3.825   4.343
15394TIP3    H267598   1.826   3.800   4.463
15395TIP3   OH267599   0.602   2.282  11.515
15395TIP3    H167600   0.544   2.205  11.515
15395TIP3    H267601   0.669   2.261  11.450
15396TIP3   OH267602   5.977   3.467  15.533
15396TIP3    H167603   5.922   3.542  15.509
15396TIP3    H267604   6.009   3.489  15.621
15397TIP3   OH267605   2.175   1.392   2.283
15397TIP3    H167606   2.253   1.340   2.305
15397TIP3    H267607   2.208   1.481   2.272
15398TIP3   OH267608   5.419   3.202   1.973
15398TIP3    H167609   5.399   3.294   1.959
15398TIP3    H267610   5.362   3.176   2.045
15399TIP3   OH267611   1.230   2.989  13.422
15399TIP3    H167612   1.283   3.012  13.345
15399TIP3    H267613   1.161   2.933  13.388
15400TIP3   OH267614   4.516   0.476   5.722
15400TIP3    H167615   4.469   0.396   5.696
15400TIP3    H267616   4.598   0.444   5.760
15401TIP3   OH267617   6.100   5.363   5.247
15401TIP3    H167618   6.083   5.444   5.296
15401TIP3    H267619   6.094   5.294   5.314
15402TIP3   OH267620   1.081   3.203   5.109
15402TIP3    H167621   1.075   3.290   5.147
15402TIP3    H267622   1.120   3.217   5.023
15403TIP3   OH267623   2.288   1.746  16.387
15403TIP3    H167624   2.229   1.791  16.448
15403TIP3    H267625   2.279   1.793  16.305
15404TIP3   OH267626   1.718   2.669   0.222
15404TIP3    H167627   1.644   2.622   0.183
15404TIP3    H267628   1.739   2.620   0.301
15405TIP3   OH267629   3.145   1.168  15.527
15405TIP3    H167630   3.149   1.171  15.622
15405TIP3    H267631   3.167   1.256  15.498
15406TIP3   OH267632   2.412   2.443   0.171
15406TIP3    H167633   2.371   2.360   0.145
15406TIP3    H267634   2.478   2.418   0.234
15407TIP3   OH267635   3.450   4.627   0.815
15407TIP3    H167636   3.484   4.645   0.903
15407TIP3    H267637   3.523   4.647   0.757
15408TIP3   OH267638   3.118   3.304  13.126
15408TIP3    H167639   3.081   3.313  13.038
15408TIP3    H267640   3.213   3.313  13.112
15409TIP3   OH267641   5.363   5.264  12.530
15409TIP3    H167642   5.444   5.245  12.579
15409TIP3    H267643   5.393   5.287  12.443
15410TIP3   OH267644   3.690   5.930  14.761
15410TIP3    H167645   3.701   5.845  14.803
15410TIP3    H267646   3.773   5.947  14.717
15411TIP3   OH267647   1.163   2.339   4.341
15411TIP3    H167648   1.160   2.270   4.407
15411TIP3    H267649   1.071   2.363   4.327
15412TIP3   OH267650   3.825   0.238   4.426
15412TIP3    H167651   3.850   0.171   4.362
15412TIP3    H267652   3.858   0.204   4.509
15413TIP3   OH267653   3.325   4.379  15.715
15413TIP3    H167654   3.300   4.441  15.783
15413TIP3    H267655   3.397   4.328  15.755
15414TIP3   OH267656   6.057   1.092  14.072
15414TIP3    H167657   5.979   1.147  14.077
15414TIP3    H267658   6.074   1.083  13.978
15415TIP3   OH267659   2.617   1.205   2.526
15415TIP3    H167660   2.534   1.219   2.480
15415TIP3    H267661   2.595   1.148   2.599
15416TIP3   OH267662   5.226   6.291   0.530
15416TIP3    H167663   5.173   6.226   0.577
15416TIP3    H267664   5.275   6.335   0.599
15417TIP3   OH267665   2.600   4.767  16.567
15417TIP3    H167666   2.525   4.814  16.532
15417TIP3    H267667   2.564   4.712  16.637
15418TIP3   OH267668   2.669   0.215   2.471
15418TIP3    H167669   2.765   0.222   2.475
15418TIP3    H267670   2.637   0.293   2.515
15419TIP3   OH267671   0.646   4.078  13.202
15419TIP3    H167672   0.639   4.114  13.291
15419TIP3    H267673   0.709   4.135  13.158
15420TIP3   OH267674   0.331   6.429  13.225
15420TIP3    H167675   0.400   6.376  13.267
15420TIP3    H267676   0.352   6.519  13.249
15421TIP3   OH267677   3.307   5.108   2.033
15421TIP3    H167678   3.227   5.077   1.990
15421TIP3    H267679   3.329   5.188   1.987
15422TIP3   OH267680   6.282   4.977   1.938
15422TIP3    H167681   6.187   4.964   1.935
15422TIP3    H267682   6.314   4.941   1.855
15423TIP3   OH267683   5.709   2.226   2.391
15423TIP3    H167684   5.742   2.308   2.352
15423TIP3    H267685   5.635   2.254   2.446
15424TIP3   OH267686   3.658   4.900   4.279
15424TIP3    H167687   3.685   4.883   4.369
15424TIP3    H267688   3.650   4.996   4.273
15425TIP3   OH267689   1.090   2.679   6.119
15425TIP3    H167690   1.127   2.653   6.203
15425TIP3    H267691   1.048   2.764   6.136
15426TIP3   OH267692   4.173   5.189  14.434
15426TIP3    H167693   4.184   5.153  14.347
15426TIP3    H267694   4.079   5.189  14.450
15427TIP3   OH267695   2.088   1.970   5.086
15427TIP3    H167696   2.071   2.055   5.127
15427TIP3    H267697   2.014   1.915   5.113
15428TIP3   OH267698   0.293   0.771   1.770
15428TIP3    H167699   0.352   0.827   1.822
15428TIP3    H267700   0.244   0.832   1.716
15429TIP3   OH267701   5.784   3.188   5.178
15429TIP3    H167702   5.816   3.248   5.246
15429TIP3    H267703   5.763   3.108   5.225
15430TIP3   OH267704   2.108   3.462  11.906
15430TIP3    H167705   2.045   3.401  11.945
15430TIP3    H267706   2.081   3.469  11.814
15431TIP3   OH267707   5.184   5.267  15.408
15431TIP3    H167708   5.202   5.347  15.358
15431TIP3    H267709   5.262   5.213  15.394
15432TIP3   OH267710   3.118   5.204  13.713
15432TIP3    H167711   3.186   5.270  13.705
15432TIP3    H267712   3.163   5.125  13.742
15433TIP3   OH267713   2.272   3.769   1.682
15433TIP3    H167714   2.304   3.857   1.699
15433TIP3    H267715   2.256   3.767   1.588
15434TIP3   OH267716   6.598   3.498  16.930
15434TIP3    H167717   6.537   3.438  16.972
15434TIP3    H267718   6.683   3.475  16.965
15435TIP3   OH267719   0.810   4.482  13.027
15435TIP3    H167720   0.827   4.399  13.072
15435TIP3    H267721   0.888   4.497  12.974
15436TIP3   OH267722   5.927   6.499   5.665
15436TIP3    H167723   5.924   6.443   5.742
15436TIP3    H267724   5.935   6.437   5.592
15437TIP3   OH267725   4.615   4.890  13.021
15437TIP3    H167726   4.564   4.892  13.101
15437TIP3    H267727   4.556   4.924  12.954
15438TIP3   OH267728   5.719   2.737   5.446
15438TIP3    H167729   5.755   2.678   5.381
15438TIP3    H267730   5.784   2.738   5.516
15439TIP3   OH267731   4.292   6.146  15.617
15439TIP3    H167732   4.339   6.226  15.595
15439TIP3    H267733   4.302   6.137  15.712
15440TIP3   OH267734   2.239   2.713   1.189
15440TIP3    H167735   2.312   2.767   1.217
15440TIP3    H267736   2.168   2.735   1.250
15441TIP3   OH267737   5.467   5.771  14.501
15441TIP3    H167738   5.374   5.793  14.489
15441TIP3    H267739   5.475   5.751  14.594
15442TIP3   OH267740   2.478   5.781  15.118
15442TIP3    H167741   2.452   5.777  15.026
15442TIP3    H267742   2.517   5.868  15.128
15443TIP3   OH267743   5.974   5.137  14.563
15443TIP3    H167744   5.916   5.101  14.630
15443TIP3    H267745   5.927   5.122  14.481
15444TIP3   OH267746   4.532   4.727   3.510
15444TIP3    H167747   4.530   4.654   3.572
15444TIP3    H267748   4.623   4.754   3.507
15445TIP3   OH267749   2.438   2.058  13.037
15445TIP3    H167750   2.525   2.088  13.062
15445TIP3    H267751   2.453   1.978  12.988
15446TIP3   OH267752   3.040   2.647  10.959
15446TIP3    H167753   3.129   2.673  10.937
15446TIP3    H267754   3.034   2.661  11.054
15447TIP3   OH267755   5.248   4.799   5.054
15447TIP3    H167756   5.205   4.762   5.131
15447TIP3    H267757   5.218   4.889   5.050
15448TIP3   OH267758   5.049   6.060   2.174
15448TIP3    H167759   5.094   6.010   2.243
15448TIP3    H267760   5.011   6.134   2.220
15449TIP3   OH267761   3.576   3.983  16.180
15449TIP3    H167762   3.492   3.961  16.138
15449TIP3    H267763   3.642   3.957  16.116
15450TIP3   OH267764   1.550   4.485   4.667
15450TIP3    H167765   1.587   4.546   4.603
15450TIP3    H267766   1.562   4.530   4.751
15451TIP3   OH267767   6.539   4.680   0.133
15451TIP3    H167768   6.563   4.597   0.092
15451TIP3    H267769   6.466   4.658   0.191
15452TIP3   OH267770   5.414   1.347   2.600
15452TIP3    H167771   5.405   1.274   2.661
15452TIP3    H267772   5.489   1.324   2.545
15453TIP3   OH267773   6.274   2.692  11.208
15453TIP3    H167774   6.183   2.712  11.231
15453TIP3    H267775   6.271   2.603  11.173
15454TIP3   OH267776   4.550   1.194  14.633
15454TIP3    H167777   4.597   1.176  14.552
15454TIP3    H267778   4.482   1.127  14.637
15455TIP3   OH267779   4.755   0.209   3.701
15455TIP3    H167780   4.747   0.159   3.620
15455TIP3    H267781   4.669   0.248   3.714
15456TIP3   OH267782   1.332   1.020   2.289
15456TIP3    H167783   1.283   0.986   2.364
15456TIP3    H267784   1.396   1.079   2.327
15457TIP3   OH267785   3.382   3.947  16.388
15457TIP3    H167786   3.410   3.968  16.477
15457TIP3    H267787   3.459   3.962  16.334
15458TIP3   OH267788   4.957   5.431   4.749
15458TIP3    H167789   4.909   5.351   4.729
15458TIP3    H267790   5.024   5.404   4.812
15459TIP3   OH267791   6.030   2.011   1.453
15459TIP3    H167792   5.960   2.055   1.404
15459TIP3    H267793   6.012   1.917   1.441
15460TIP3   OH267794   0.792   6.560   5.266
15460TIP3    H167795   0.761   6.646   5.294
15460TIP3    H267796   0.815   6.515   5.347
15461TIP3   OH267797   2.799   0.328   4.442
15461TIP3    H167798   2.843   0.246   4.422
15461TIP3    H267799   2.862   0.396   4.416
15462TIP3   OH267800   1.595   6.247  15.342
15462TIP3    H167801   1.688   6.252  15.364
15462TIP3    H267802   1.594   6.214  15.252
15463TIP3   OH267803   4.367   1.082  15.325
15463TIP3    H167804   4.288   1.028  15.330
15463TIP3    H267805   4.346   1.150  15.261
15464TIP3   OH267806   1.355   5.499  15.783
15464TIP3    H167807   1.419   5.501  15.712
15464TIP3    H267808   1.298   5.574  15.765
15465TIP3   OH267809   1.748   6.569  14.793
15465TIP3    H167810   1.751   6.650  14.843
15465TIP3    H267811   1.664   6.529  14.816
15466TIP3   OH267812   1.786   1.222   1.920
15466TIP3    H167813   1.702   1.176   1.916
15466TIP3    H267814   1.779   1.278   1.997
15467TIP3   OH267815   5.567   5.979   0.450
15467TIP3    H167816   5.610   5.907   0.403
15467TIP3    H267817   5.623   6.055   0.433
15468TIP3   OH267818   3.277   2.700  14.640
15468TIP3    H167819   3.217   2.647  14.694
15468TIP3    H267820   3.347   2.725  14.700
15469TIP3   OH267821   1.762   4.954   1.923
15469TIP3    H167822   1.849   4.950   1.964
15469TIP3    H267823   1.775   5.009   1.846
15470TIP3   OH267824   0.592   4.523  11.049
15470TIP3    H167825   0.538   4.468  10.993
15470TIP3    H267826   0.529   4.583  11.090
15471TIP3   OH267827   5.994   1.152   0.961
15471TIP3    H167828   6.058   1.152   0.889
15471TIP3    H267829   5.909   1.165   0.918
15472TIP3   OH267830   3.605   4.354   1.754
15472TIP3    H167831   3.613   4.305   1.672
15472TIP3    H267832   3.658   4.432   1.742
15473TIP3   OH267833   5.274   4.766  15.419
15473TIP3    H167834   5.306   4.848  15.456
15473TIP3    H267835   5.330   4.699  15.458
15474TIP3   OH267836   4.488   0.486  14.929
15474TIP3    H167837   4.416   0.482  14.992
15474TIP3    H267838   4.553   0.542  14.971
15475TIP3   OH267839   6.124   4.011   5.396
15475TIP3    H167840   6.105   4.063   5.474
15475TIP3    H267841   6.198   3.956   5.422
15476TIP3   OH267842   0.693   4.428  11.423
15476TIP3    H167843   0.623   4.442  11.487
15476TIP3    H267844   0.764   4.484  11.452
15477TIP3   OH267845   1.264   1.696   4.701
15477TIP3    H167846   1.226   1.656   4.780
15477TIP3    H267847   1.258   1.790   4.716
15478TIP3   OH267848   3.671   5.413  10.927
15478TIP3    H167849   3.743   5.459  10.883
15478TIP3    H267850   3.708   5.329  10.951
15479TIP3   OH267851   1.178   0.046   2.107
15479TIP3    H167852   1.196   0.128   2.154
15479TIP3    H267853   1.194  -0.023   2.172
15480TIP3   OH267854   3.208   5.350   2.249
15480TIP3    H167855   3.274   5.343   2.180
15480TIP3    H267856   3.190   5.443   2.257
15481TIP3   OH267857   5.056   2.413   1.037
15481TIP3    H167858   4.992   2.368   0.981
15481TIP3    H267859   5.092   2.482   0.981
15482TIP3   OH267860   5.439   2.517   5.308
15482TIP3    H167861   5.362   2.524   5.363
15482TIP3    H267862   5.458   2.423   5.305
15483TIP3   OH267863   6.209   1.307   4.715
15483TIP3    H167864   6.282   1.256   4.681
15483TIP3    H267865   6.211   1.292   4.810
15484TIP3   OH267866   2.091   4.917  11.689
15484TIP3    H167867   2.082   5.003  11.649
15484TIP3    H267868   2.008   4.902  11.734
15485TIP3   OH267869   2.272   6.710  13.988
15485TIP3    H167870   2.326   6.717  14.067
15485TIP3    H267871   2.207   6.779  13.997
15486TIP3   OH267872   3.997   5.412   3.793
15486TIP3    H167873   4.035   5.455   3.716
15486TIP3    H267874   4.065   5.351   3.822
15487TIP3   OH267875   3.050   2.717  15.681
15487TIP3    H167876   3.117   2.691  15.618
15487TIP3    H267877   2.967   2.706  15.634
15488TIP3   OH267878   4.164   6.040   3.913
15488TIP3    H167879   4.238   6.068   3.860
15488TIP3    H267880   4.178   5.947   3.928
15489TIP3   OH267881   1.070   2.504   1.631
15489TIP3    H167882   1.109   2.573   1.577
15489TIP3    H267883   1.050   2.546   1.714
15490TIP3   OH267884   2.931   0.019   4.197
15490TIP3    H167885   2.984  -0.060   4.203
15490TIP3    H267886   2.843  -0.013   4.174
15491TIP3   OH267887   6.611   1.231   6.148
15491TIP3    H167888   6.645   1.188   6.226
15491TIP3    H267889   6.526   1.267   6.176
15492TIP3   OH267890   0.581   4.584  15.272
15492TIP3    H167891   0.497   4.561  15.311
15492TIP3    H267892   0.622   4.500  15.252
15493TIP3   OH267893   4.213   5.638   5.518
15493TIP3    H167894   4.126   5.640   5.558
15493TIP3    H267895   4.196   5.648   5.424
15494TIP3   OH267896   0.139   0.970   3.557
15494TIP3    H167897   0.208   1.034   3.576
15494TIP3    H267898   0.058   1.020   3.566
15495TIP3   OH267899   6.129   3.991  16.387
15495TIP3    H167900   6.142   4.036  16.470
15495TIP3    H267901   6.158   4.053  16.321
15496TIP3   OH267902   6.424   1.288  12.988
15496TIP3    H167903   6.458   1.307  13.076
15496TIP3    H267904   6.371   1.209  13.000
15497TIP3   OH267905   2.824   1.630   5.263
15497TIP3    H167906   2.773   1.685   5.204
15497TIP3    H267907   2.898   1.600   5.210
15498TIP3   OH267908   5.939   3.855   2.263
15498TIP3    H167909   5.912   3.870   2.173
15498TIP3    H267910   5.958   3.762   2.268
15499TIP3   OH267911   3.155   5.321  11.354
15499TIP3    H167912   3.063   5.301  11.373
15499TIP3    H267913   3.204   5.247  11.391
15500TIP3   OH267914   4.961   4.530   2.732
15500TIP3    H167915   4.919   4.491   2.808
15500TIP3    H267916   4.926   4.619   2.728
15501TIP3   OH267917   2.946   3.387   3.774
15501TIP3    H167918   2.929   3.402   3.867
15501TIP3    H267919   3.041   3.378   3.768
15502TIP3   OH267920   1.405   5.981  16.060
15502TIP3    H167921   1.327   5.936  16.025
15502TIP3    H267922   1.404   6.067  16.017
15503TIP3   OH267923   4.658   3.922  12.924
15503TIP3    H167924   4.725   3.854  12.930
15503TIP3    H267925   4.705   4.000  12.894
15504TIP3   OH267926   3.678   2.052  12.875
15504TIP3    H167927   3.591   2.079  12.904
15504TIP3    H267928   3.679   1.957  12.886
15505TIP3   OH267929   1.307   5.710  15.460
15505TIP3    H167930   1.266   5.721  15.373
15505TIP3    H267931   1.234   5.720  15.521
15506TIP3   OH267932   1.516   1.629  13.672
15506TIP3    H167933   1.508   1.534  13.683
15506TIP3    H267934   1.609   1.645  13.659
15507TIP3   OH267935   0.739   4.080   4.567
15507TIP3    H167936   0.701   4.048   4.485
15507TIP3    H267937   0.833   4.081   4.551
15508TIP3   OH267938   3.636   4.261   0.955
15508TIP3    H167939   3.722   4.265   0.913
15508TIP3    H267940   3.655   4.253   1.049
15509TIP3   OH267941   3.676   3.323   1.428
15509TIP3    H167942   3.771   3.333   1.428
15509TIP3    H267943   3.660   3.241   1.475
15510TIP3   OH267944   1.245   3.443  15.332
15510TIP3    H167945   1.333   3.481  15.322
15510TIP3    H267946   1.242   3.372  15.268
15511TIP3   OH267947   0.255   1.601   1.666
15511TIP3    H167948   0.202   1.611   1.746
15511TIP3    H267949   0.345   1.594   1.698
15512TIP3   OH267950   2.956   5.806   5.810
15512TIP3    H167951   2.909   5.791   5.892
15512TIP3    H267952   2.975   5.719   5.776
15513TIP3   OH267953   4.334   4.258   3.313
15513TIP3    H167954   4.241   4.250   3.292
15513TIP3    H267955   4.357   4.173   3.349
15514TIP3   OH267956   2.607   1.705  13.383
15514TIP3    H167957   2.540   1.768  13.355
15514TIP3    H267958   2.579   1.622  13.344
15515TIP3   OH267959   2.250   1.928  12.770
15515TIP3    H167960   2.228   1.909  12.679
15515TIP3    H267961   2.208   2.013  12.787
15516TIP3   OH267962   4.554   3.543  15.159
15516TIP3    H167963   4.536   3.525  15.067
15516TIP3    H267964   4.516   3.630  15.175
15517TIP3   OH267965   3.972   4.816  15.515
15517TIP3    H167966   4.042   4.844  15.573
15517TIP3    H267967   3.900   4.793  15.574
15518TIP3   OH267968   4.858   4.740  11.392
15518TIP3    H167969   4.818   4.774  11.312
15518TIP3    H267970   4.950   4.726  11.368
15519TIP3   OH267971   3.082   1.974   3.682
15519TIP3    H167972   3.158   2.003   3.631
15519TIP3    H267973   3.099   1.881   3.699
15520TIP3   OH267974   4.390   5.027   3.095
15520TIP3    H167975   4.393   5.060   3.185
15520TIP3    H267976   4.443   5.090   3.045
15521TIP3   OH267977   6.455   0.431  14.651
15521TIP3    H167978   6.490   0.361  14.706
15521TIP3    H267979   6.471   0.511  14.700
15522TIP3   OH267980   1.046   5.296   2.962
15522TIP3    H167981   1.102   5.371   2.981
15522TIP3    H267982   1.036   5.252   3.047
15523TIP3   OH267983   6.098   4.397   5.459
15523TIP3    H167984   6.007   4.428   5.463
15523TIP3    H267985   6.094   4.307   5.492
15524TIP3   OH267986   0.554   4.912  12.588
15524TIP3    H167987   0.526   4.957  12.508
15524TIP3    H267988   0.527   4.821  12.575
15525TIP3   OH267989   1.776   2.204  16.081
15525TIP3    H167990   1.732   2.222  15.998
15525TIP3    H267991   1.741   2.270  16.141
15526TIP3   OH267992   2.155   0.676  12.038
15526TIP3    H167993   2.067   0.684  12.076
15526TIP3    H267994   2.214   0.681  12.113
15527TIP3   OH267995   1.762   4.562  14.897
15527TIP3    H167996   1.845   4.544  14.942
15527TIP3    H267997   1.711   4.612  14.961
15528TIP3   OH267998   2.413   3.339  12.497
15528TIP3    H167999   2.374   3.420  12.530
15528TIP3    H268000   2.435   3.290  12.576
15529TIP3   OH268001   1.010   0.989   1.616
15529TIP3    H168002   0.945   0.984   1.686
15529TIP3    H268003   1.007   0.902   1.575
15530TIP3   OH268004   2.732   1.936   6.719
15530TIP3    H168005   2.650   1.893   6.740
15530TIP3    H268006   2.786   1.868   6.679
15531TIP3   OH268007   6.560   2.433  16.436
15531TIP3    H168008   6.639   2.458  16.485
15531TIP3    H268009   6.496   2.412  16.504
15532TIP3   OH268010   1.261   1.376   5.896
15532TIP3    H168011   1.177   1.350   5.934
15532TIP3    H268012   1.324   1.363   5.966
15533TIP3   OH268013   1.946   5.151   5.331
15533TIP3    H168014   2.027   5.193   5.361
15533TIP3    H268015   1.973   5.097   5.257
15534TIP3   OH268016   2.095   1.434  13.564
15534TIP3    H168017   2.023   1.401  13.618
15534TIP3    H268018   2.078   1.528  13.556
15535TIP3   OH268019   3.392   5.500  17.052
15535TIP3    H168020   3.453   5.467  16.985
15535TIP3    H268021   3.376   5.591  17.027
15536TIP3   OH268022   2.532   2.813  10.755
15536TIP3    H168023   2.587   2.880  10.715
15536TIP3    H268024   2.473   2.862  10.812
15537TIP3   OH268025   0.753   6.219  14.911
15537TIP3    H168026   0.715   6.143  14.953
15537TIP3    H268027   0.842   6.192  14.887
15538TIP3   OH268028   3.084   0.902  15.447
15538TIP3    H168029   3.090   0.978  15.505
15538TIP3    H268030   3.103   0.937  15.360
15539TIP3   OH268031   2.760   3.337  15.291
15539TIP3    H168032   2.718   3.403  15.347
15539TIP3    H268033   2.695   3.320  15.223
15540TIP3   OH268034   4.182   3.966   5.250
15540TIP3    H168035   4.268   4.002   5.266
15540TIP3    H268036   4.124   4.014   5.310
15541TIP3   OH268037   1.970   0.746  16.956
15541TIP3    H168038   1.978   0.662  17.002
15541TIP3    H268039   2.060   0.779  16.950
15542TIP3   OH268040   1.409   5.541   2.349
15542TIP3    H168041   1.410   5.457   2.305
15542TIP3    H268042   1.465   5.597   2.296
15543TIP3   OH268043   1.756   2.666   3.217
15543TIP3    H168044   1.840   2.664   3.171
15543TIP3    H268045   1.702   2.727   3.166
15544TIP3   OH268046   6.603   4.649   3.042
15544TIP3    H168047   6.667   4.669   3.110
15544TIP3    H268048   6.648   4.672   2.960
15545TIP3   OH268049   6.529   4.363   5.471
15545TIP3    H168050   6.509   4.363   5.565
15545TIP3    H268051   6.444   4.371   5.428
15546TIP3   OH268052   1.127   5.919   0.746
15546TIP3    H168053   1.202   5.875   0.706
15546TIP3    H268054   1.149   5.924   0.839
15547TIP3   OH268055   1.698   2.722  11.570
15547TIP3    H168056   1.703   2.753  11.660
15547TIP3    H268057   1.651   2.792  11.524
15548TIP3   OH268058   1.373   5.180   2.409
15548TIP3    H168059   1.419   5.153   2.489
15548TIP3    H268060   1.400   5.117   2.343
15549TIP3   OH268061   0.723   0.432  16.356
15549TIP3    H168062   0.720   0.524  16.329
15549TIP3    H268063   0.631   0.409  16.371
15550TIP3   OH268064   1.338   2.999  10.757
15550TIP3    H168065   1.426   3.037  10.754
15550TIP3    H268066   1.279   3.073  10.741
15551TIP3   OH268067   2.398   0.665   5.002
15551TIP3    H168068   2.354   0.731   5.054
15551TIP3    H268069   2.465   0.713   4.953
15552TIP3   OH268070   3.536   3.784  11.074
15552TIP3    H168071   3.445   3.756  11.065
15552TIP3    H268072   3.585   3.702  11.079
15553TIP3   OH268073   2.431   0.955  13.180
15553TIP3    H168074   2.353   0.940  13.126
15553TIP3    H268075   2.408   1.027  13.237
15554TIP3   OH268076   5.167   0.161  13.302
15554TIP3    H168077   5.254   0.128  13.324
15554TIP3    H268078   5.174   0.185  13.209
15555TIP3   OH268079   2.708   4.487  16.428
15555TIP3    H168080   2.709   4.514  16.520
15555TIP3    H268081   2.797   4.454  16.413
15556TIP3   OH268082   0.007   2.187  16.459
15556TIP3    H168083  -0.037   2.214  16.540
15556TIP3    H268084  -0.009   2.259  16.398
15557TIP3   OH268085   2.372   6.463  13.489
15557TIP3    H168086   2.367   6.425  13.576
15557TIP3    H268087   2.297   6.523  13.485
15558TIP3   OH268088   1.000   1.218  15.104
15558TIP3    H168089   1.052   1.156  15.155
15558TIP3    H268090   1.000   1.298  15.156
15559TIP3   OH268091   1.084   2.262  14.618
15559TIP3    H168092   1.056   2.190  14.562
15559TIP3    H268093   1.149   2.223  14.676
15560TIP3   OH268094   6.333   4.894  11.278
15560TIP3    H168095   6.429   4.897  11.268
15560TIP3    H268096   6.315   4.949  11.354
15561TIP3   OH268097   0.347   3.515   0.899
15561TIP3    H168098   0.375   3.531   0.810
15561TIP3    H268099   0.409   3.564   0.954
15562TIP3   OH268100   4.176   3.040  13.954
15562TIP3    H168101   4.205   3.010  14.040
15562TIP3    H268102   4.256   3.041  13.900
15563TIP3   OH268103   5.452   0.099  13.393
15563TIP3    H168104   5.546   0.118  13.394
15563TIP3    H268105   5.433   0.065  13.480
15564TIP3   OH268106   2.894   4.998  11.342
15564TIP3    H168107   2.978   4.971  11.304
15564TIP3    H268108   2.847   4.916  11.358
15565TIP3   OH268109   5.222   4.102   0.752
15565TIP3    H168110   5.291   4.110   0.818
15565TIP3    H268111   5.267   4.114   0.669
15566TIP3   OH268112   1.135   0.253  11.442
15566TIP3    H168113   1.047   0.236  11.473
15566TIP3    H268114   1.186   0.177  11.470
15567TIP3   OH268115   5.776   3.896   0.096
15567TIP3    H168116   5.706   3.845   0.138
15567TIP3    H268117   5.807   3.840   0.025
15568TIP3   OH268118   0.728   0.477  14.245
15568TIP3    H168119   0.776   0.399  14.270
15568TIP3    H268120   0.641   0.445  14.221
15569TIP3   OH268121   2.718   2.819   5.683
15569TIP3    H168122   2.700   2.905   5.720
15569TIP3    H268123   2.767   2.773   5.751
15570TIP3   OH268124   4.763   2.956   3.856
15570TIP3    H168125   4.762   2.967   3.951
15570TIP3    H268126   4.752   3.045   3.821
15571TIP3   OH268127   5.389   1.715  12.582
15571TIP3    H168128   5.338   1.797  12.580
15571TIP3    H268129   5.480   1.744  12.571
15572TIP3   OH268130   5.901   6.253  11.121
15572TIP3    H168131   5.973   6.286  11.067
15572TIP3    H268132   5.825   6.305  11.094
15573TIP3   OH268133   2.985   1.907   3.244
15573TIP3    H168134   2.903   1.952   3.262
15573TIP3    H268135   3.049   1.978   3.233
15574TIP3   OH268136   4.774   0.027  11.424
15574TIP3    H168137   4.866   0.003  11.441
15574TIP3    H268138   4.744   0.066  11.506
15575TIP3   OH268139   3.856   5.932  14.307
15575TIP3    H168140   3.863   5.915  14.401
15575TIP3    H268141   3.797   6.006  14.299
15576TIP3   OH268142   1.296   2.739  12.336
15576TIP3    H168143   1.371   2.797  12.323
15576TIP3    H268144   1.225   2.797  12.362
15577TIP3   OH268145   6.022   5.952   2.326
15577TIP3    H168146   5.926   5.951   2.324
15577TIP3    H268147   6.045   5.929   2.416
15578TIP3   OH268148   4.381   2.333   2.226
15578TIP3    H168149   4.292   2.365   2.235
15578TIP3    H268150   4.403   2.297   2.312
15579TIP3   OH268151   3.453   5.473  11.272
15579TIP3    H168152   3.501   5.479  11.355
15579TIP3    H268153   3.490   5.397  11.228
15580TIP3   OH268154   6.577   6.191   3.553
15580TIP3    H168155   6.569   6.286   3.556
15580TIP3    H268156   6.527   6.160   3.629
15581TIP3   OH268157   6.364   1.324   5.745
15581TIP3    H168158   6.447   1.368   5.763
15581TIP3    H268159   6.356   1.258   5.813
15582TIP3   OH268160   2.041   0.780  14.254
15582TIP3    H168161   2.096   0.702  14.245
15582TIP3    H268162   1.978   0.757  14.322
15583TIP3   OH268163   0.034   6.242  14.793
15583TIP3    H168164   0.122   6.207  14.807
15583TIP3    H268165   0.014   6.290  14.873
15584TIP3   OH268166   0.059   4.469   0.077
15584TIP3    H168167  -0.017   4.438   0.126
15584TIP3    H268168   0.133   4.424   0.118
15585TIP3   OH268169   6.217   3.077   3.025
15585TIP3    H168170   6.192   3.091   3.117
15585TIP3    H268171   6.163   3.004   2.996
15586TIP3   OH268172   4.886   6.026   1.870
15586TIP3    H168173   4.963   5.970   1.855
15586TIP3    H268174   4.922   6.113   1.885
15587TIP3   OH268175   6.325   1.119   5.960
15587TIP3    H168176   6.343   1.025   5.960
15587TIP3    H268177   6.249   1.129   6.018
15588TIP3   OH268178   5.897   2.540  16.111
15588TIP3    H168179   5.847   2.460  16.091
15588TIP3    H268180   5.988   2.512  16.110
15589TIP3   OH268181   5.929   0.566   0.211
15589TIP3    H168182   5.834   0.571   0.203
15589TIP3    H268183   5.961   0.564   0.121
15590TIP3   OH268184   5.754   1.774  11.525
15590TIP3    H168185   5.668   1.736  11.510
15590TIP3    H268186   5.810   1.699  11.546
15591TIP3   OH268187   3.976   4.192   2.146
15591TIP3    H168188   3.946   4.122   2.088
15591TIP3    H268189   3.900   4.248   2.158
15592TIP3   OH268190   5.595   4.595   2.826
15592TIP3    H168191   5.535   4.614   2.898
15592TIP3    H268192   5.591   4.500   2.816
15593TIP3   OH268193   6.294   1.732   5.504
15593TIP3    H168194   6.379   1.777   5.511
15593TIP3    H268195   6.272   1.710   5.595
15594TIP3   OH268196   6.170   4.900  13.942
15594TIP3    H168197   6.137   4.830  13.999
15594TIP3    H268198   6.249   4.931  13.986
15595TIP3   OH268199   4.259   2.936   6.031
15595TIP3    H168200   4.251   2.870   6.100
15595TIP3    H268201   4.177   2.986   6.036
15596TIP3   OH268202   0.285   5.157  13.015
15596TIP3    H168203   0.366   5.130  13.060
15596TIP3    H268204   0.291   5.252  13.010
15597TIP3   OH268205   1.395   6.577  13.965
15597TIP3    H168206   1.383   6.672  13.966
15597TIP3    H268207   1.433   6.557  14.051
15598TIP3   OH268208   1.034   1.265   1.501
15598TIP3    H168209   1.042   1.182   1.548
15598TIP3    H268210   1.116   1.273   1.452
15599TIP3   OH268211   4.685   0.699  15.173
15599TIP3    H168212   4.742   0.624  15.159
15599TIP3    H268213   4.641   0.712  15.089
15600TIP3   OH268214   5.983   4.007   0.227
15600TIP3    H168215   6.041   3.982   0.156
15600TIP3    H268216   5.895   3.991   0.193
15601TIP3   OH268217   1.900   3.525  13.275
15601TIP3    H168218   1.914   3.522  13.180
15601TIP3    H268219   1.985   3.504  13.312
15602TIP3   OH268220   0.805   0.297   5.742
15602TIP3    H168221   0.868   0.225   5.746
15602TIP3    H268222   0.719   0.254   5.742
15603TIP3   OH268223   6.540   0.921   6.416
15603TIP3    H168224   6.550   0.875   6.333
15603TIP3    H268225   6.561   0.855   6.482
15604TIP3   OH268226   5.820   4.509   4.378
15604TIP3    H168227   5.739   4.532   4.424
15604TIP3    H268228   5.883   4.575   4.407
15605TIP3   OH268229   6.086   4.509   3.563
15605TIP3    H168230   6.109   4.471   3.477
15605TIP3    H268231   5.993   4.490   3.574
15606TIP3   OH268232   4.959   3.241   0.976
15606TIP3    H168233   4.908   3.168   1.011
15606TIP3    H268234   4.962   3.305   1.047
15607TIP3   OH268235   0.672   4.572   4.118
15607TIP3    H168236   0.621   4.613   4.187
15607TIP3    H268237   0.671   4.635   4.046
15608TIP3   OH268238   5.000   0.077  14.674
15608TIP3    H168239   4.941   0.141  14.634
15608TIP3    H268240   5.034   0.026  14.600
15609TIP3   OH268241   4.949   6.305   2.254
15609TIP3    H168242   4.958   6.399   2.269
15609TIP3    H268243   4.995   6.264   2.327
15610TIP3   OH268244   1.675   4.335  12.377
15610TIP3    H168245   1.668   4.300  12.466
15610TIP3    H268246   1.596   4.303  12.333
15611TIP3   OH268247   3.156   4.478   1.732
15611TIP3    H168248   3.125   4.397   1.770
15611TIP3    H268249   3.096   4.545   1.765
15612TIP3   OH268250   0.486   4.486   5.909
15612TIP3    H168251   0.519   4.479   5.999
15612TIP3    H268252   0.396   4.452   5.915
15613TIP3   OH268253   5.885   2.532  13.247
15613TIP3    H168254   5.926   2.596  13.190
15613TIP3    H268255   5.857   2.583  13.323
15614TIP3   OH268256   0.325   0.849  14.879
15614TIP3    H168257   0.360   0.901  14.806
15614TIP3    H268258   0.395   0.848  14.944
15615TIP3   OH268259   1.133   1.797   4.963
15615TIP3    H168260   1.174   1.723   5.007
15615TIP3    H268261   1.159   1.873   5.015
15616TIP3   OH268262   1.659   3.024   4.504
15616TIP3    H168263   1.681   2.964   4.434
15616TIP3    H268264   1.696   2.985   4.583
15617TIP3   OH268265   5.869   2.036  11.495
15617TIP3    H168266   5.952   1.991  11.512
15617TIP3    H268267   5.802   1.969  11.507
15618TIP3   OH268268   3.069   2.609   1.427
15618TIP3    H168269   3.128   2.607   1.502
15618TIP3    H268270   2.994   2.556   1.454
15619TIP3   OH268271   0.807   0.833   1.170
15619TIP3    H168272   0.734   0.802   1.116
15619TIP3    H268273   0.849   0.901   1.118
15620TIP3   OH268274   2.375   2.207   4.131
15620TIP3    H168275   2.411   2.125   4.096
15620TIP3    H268276   2.321   2.180   4.206
15621TIP3   OH268277   6.522   6.494  14.803
15621TIP3    H168278   6.559   6.443  14.731
15621TIP3    H268279   6.575   6.470  14.879
15622TIP3   OH268280   0.238   2.519  14.483
15622TIP3    H168281   0.191   2.476  14.412
15622TIP3    H268282   0.196   2.605  14.491
15623TIP3   OH268283   4.218   2.383   4.794
15623TIP3    H168284   4.245   2.296   4.823
15623TIP3    H268285   4.267   2.443   4.851
15624TIP3   OH268286   1.405   5.804  12.097
15624TIP3    H168287   1.467   5.843  12.035
15624TIP3    H268288   1.370   5.728  12.052
15625TIP3   OH268289   2.166   4.708  11.862
15625TIP3    H168290   2.199   4.777  11.805
15625TIP3    H268291   2.123   4.646  11.803
15626TIP3   OH268292   5.556   3.994   1.566
15626TIP3    H168293   5.461   4.006   1.567
15626TIP3    H268294   5.584   4.016   1.655
15627TIP3   OH268295   0.930   6.118   2.654
15627TIP3    H168296   0.983   6.198   2.656
15627TIP3    H268297   0.988   6.050   2.690
15628TIP3   OH268298   1.011   0.318   2.449
15628TIP3    H168299   1.048   0.293   2.533
15628TIP3    H268300   1.077   0.292   2.385
15629TIP3   OH268301   5.895   6.352  14.648
15629TIP3    H168302   5.977   6.359  14.598
15629TIP3    H268303   5.827   6.377  14.586
15630TIP3   OH268304   4.281   4.682   3.718
15630TIP3    H168305   4.190   4.710   3.723
15630TIP3    H268306   4.282   4.593   3.754
15631TIP3   OH268307   3.466   0.448   1.773
15631TIP3    H168308   3.518   0.508   1.720
15631TIP3    H268309   3.396   0.503   1.809
15632TIP3   OH268310   2.788   5.220   5.463
15632TIP3    H168311   2.720   5.282   5.493
15632TIP3    H268312   2.862   5.236   5.522
15633TIP3   OH268313   3.019   0.015  11.478
15633TIP3    H168314   3.080   0.088  11.462
15633TIP3    H268315   3.063  -0.061  11.440
15634TIP3   OH268316   5.973   5.023  16.925
15634TIP3    H168317   5.938   5.099  16.878
15634TIP3    H268318   5.983   5.052  17.015
15635TIP3   OH268319   5.227   3.717   1.966
15635TIP3    H168320   5.237   3.721   1.871
15635TIP3    H268321   5.288   3.783   1.999
15636TIP3   OH268322   0.589   0.331  15.013
15636TIP3    H168323   0.529   0.300  15.080
15636TIP3    H268324   0.533   0.371  14.947
15637TIP3   OH268325   0.548   6.301   0.681
15637TIP3    H168326   0.493   6.228   0.653
15637TIP3    H268327   0.613   6.310   0.611
15638TIP3   OH268328   1.046   3.876   1.562
15638TIP3    H168329   1.084   3.821   1.630
15638TIP3    H268330   1.078   3.964   1.581
15639TIP3   OH268331   1.354   4.679   4.216
15639TIP3    H168332   1.371   4.591   4.248
15639TIP3    H268333   1.315   4.725   4.290
15640TIP3   OH268334   5.812   3.689   3.982
15640TIP3    H168335   5.855   3.768   3.949
15640TIP3    H268336   5.858   3.670   4.064
15641TIP3   OH268337   4.018   5.807   1.522
15641TIP3    H168338   4.016   5.712   1.536
15641TIP3    H268339   4.095   5.820   1.465
15642TIP3   OH268340   5.413   6.766  14.218
15642TIP3    H168341   5.368   6.850  14.222
15642TIP3    H268342   5.504   6.789  14.198
15643TIP3   OH268343   1.757   4.188   1.443
15643TIP3    H168344   1.829   4.158   1.387
15643TIP3    H268345   1.695   4.115   1.444
15644TIP3   OH268346   4.005   4.977   5.084
15644TIP3    H168347   4.084   4.932   5.115
15644TIP3    H268348   4.032   5.020   5.003
15645TIP3   OH268349   6.433   0.981  14.383
15645TIP3    H168350   6.384   1.036  14.444
15645TIP3    H268351   6.506   1.035  14.355
15646TIP3   OH268352   0.855   2.788   1.472
15646TIP3    H168353   0.889   2.877   1.488
15646TIP3    H268354   0.835   2.754   1.559
15647TIP3   OH268355   5.145   5.876   2.369
15647TIP3    H168356   5.194   5.806   2.326
15647TIP3    H268357   5.132   5.844   2.458
15648TIP3   OH268358   5.620   2.137  13.153
15648TIP3    H168359   5.639   2.085  13.231
15648TIP3    H268360   5.530   2.115  13.130
15649TIP3   OH268361   1.611   4.348  17.023
15649TIP3    H168362   1.629   4.344  17.117
15649TIP3    H268363   1.569   4.264  17.003
15650TIP3   OH268364   3.423   5.580   6.027
15650TIP3    H168365   3.494   5.595   5.965
15650TIP3    H268366   3.360   5.526   5.978
15651TIP3   OH268367   0.568   6.324  13.317
15651TIP3    H168368   0.653   6.360  13.342
15651TIP3    H268369   0.583   6.229  13.310
15652TIP3   OH268370   1.605   2.521   3.686
15652TIP3    H168371   1.595   2.586   3.755
15652TIP3    H268372   1.566   2.441   3.722
15653TIP3   OH268373   5.479   4.771   1.718
15653TIP3    H168374   5.472   4.788   1.812
15653TIP3    H268375   5.391   4.742   1.692
15654TIP3   OH268376   2.831   2.139  16.160
15654TIP3    H168377   2.859   2.056  16.123
15654TIP3    H268378   2.883   2.149  16.240
15655TIP3   OH268379   5.985   5.869   3.505
15655TIP3    H168380   6.000   5.775   3.497
15655TIP3    H268381   5.894   5.877   3.531
15656TIP3   OH268382   0.080   3.063   5.251
15656TIP3    H168383   0.062   3.146   5.206
15656TIP3    H268384   0.174   3.065   5.269
15657TIP3   OH268385   1.554   0.079  16.073
15657TIP3    H168386   1.606   0.105  16.149
15657TIP3    H268387   1.465   0.107  16.094
15658TIP3   OH268388   5.338   5.097  14.959
15658TIP3    H168389   5.305   5.181  14.991
15658TIP3    H268390   5.335   5.105  14.863
15659TIP3   OH268391   1.447   6.118  12.816
15659TIP3    H168392   1.464   6.168  12.736
15659TIP3    H268393   1.412   6.035  12.786
15660TIP3   OH268394   5.595   0.346  16.150
15660TIP3    H168395   5.644   0.275  16.193
15660TIP3    H268396   5.603   0.328  16.057
15661TIP3   OH268397   2.480   5.453   3.036
15661TIP3    H168398   2.451   5.430   2.948
15661TIP3    H268399   2.436   5.536   3.056
15662TIP3   OH268400   0.579   4.031   6.108
15662TIP3    H168401   0.657   4.015   6.161
15662TIP3    H268402   0.509   3.984   6.153
15663TIP3   OH268403   0.202   1.301  15.830
15663TIP3    H168404   0.179   1.366  15.897
15663TIP3    H268405   0.278   1.256  15.867
15664TIP3   OH268406   2.691   2.114  13.062
15664TIP3    H168407   2.749   2.190  13.052
15664TIP3    H268408   2.741   2.041  13.026
15665TIP3   OH268409   3.418   3.561  14.209
15665TIP3    H168410   3.335   3.566  14.161
15665TIP3    H268411   3.453   3.649  14.205
15666TIP3   OH268412   5.376   5.030  16.693
15666TIP3    H168413   5.428   5.041  16.613
15666TIP3    H268414   5.290   5.068  16.671
15667TIP3   OH268415   3.718   0.757   0.007
15667TIP3    H168416   3.764   0.781   0.088
15667TIP3    H268417   3.786   0.759  -0.060
15668TIP3   OH268418   3.870   4.256   4.261
15668TIP3    H168419   3.856   4.182   4.320
15668TIP3    H268420   3.839   4.332   4.311
15669TIP3   OH268421   5.806   6.212   3.496
15669TIP3    H168422   5.850   6.246   3.573
15669TIP3    H268423   5.810   6.117   3.507
15670TIP3   OH268424   5.022   4.983   5.322
15670TIP3    H168425   5.048   4.927   5.395
15670TIP3    H268426   4.940   5.024   5.350
15671TIP3   OH268427   1.599   0.956  15.797
15671TIP3    H168428   1.550   1.038  15.804
15671TIP3    H268429   1.536   0.888  15.818
15672TIP3   OH268430   4.619   5.186  11.571
15672TIP3    H168431   4.664   5.103  11.553
15672TIP3    H268432   4.543   5.185  11.513
15673TIP3   OH268433   1.122   6.403   3.083
15673TIP3    H168434   1.052   6.340   3.099
15673TIP3    H268435   1.082   6.488   3.099
15674TIP3   OH268436   0.785   0.884   0.042
15674TIP3    H168437   0.814   0.968   0.080
15674TIP3    H268438   0.797   0.821   0.113
15675TIP3   OH268439   0.842   1.606   2.038
15675TIP3    H168440   0.874   1.697   2.042
15675TIP3    H268441   0.890   1.561   2.107
15676TIP3   OH268442   3.840   5.223  14.124
15676TIP3    H168443   3.811   5.287  14.189
15676TIP3    H268444   3.859   5.275  14.046
15677TIP3   OH268445   2.104   2.327  17.164
15677TIP3    H168446   2.194   2.358  17.178
15677TIP3    H268447   2.097   2.249  17.220
15678TIP3   OH268448   5.617   5.723   3.360
15678TIP3    H168449   5.614   5.819   3.360
15678TIP3    H268450   5.710   5.702   3.371
15679TIP3   OH268451   5.861   5.591  12.654
15679TIP3    H168452   5.818   5.560  12.733
15679TIP3    H268453   5.805   5.662  12.622
15680TIP3   OH268454   6.465   2.067  13.902
15680TIP3    H168455   6.404   2.135  13.931
15680TIP3    H268456   6.441   1.990  13.952
15681TIP3   OH268457   3.558   1.652  16.074
15681TIP3    H168458   3.630   1.614  16.124
15681TIP3    H268459   3.516   1.713  16.135
15682TIP3   OH268460   6.376   4.619  11.838
15682TIP3    H168461   6.413   4.534  11.816
15682TIP3    H268462   6.440   4.682  11.806
15683TIP3   OH268463   6.562   1.571   5.120
15683TIP3    H168464   6.613   1.598   5.197
15683TIP3    H268465   6.501   1.644   5.106
15684TIP3   OH268466   4.362   4.375   5.411
15684TIP3    H168467   4.326   4.428   5.340
15684TIP3    H268468   4.285   4.344   5.459
15685TIP3   OH268469   0.110   0.720  11.854
15685TIP3    H168470   0.110   0.778  11.778
15685TIP3    H268471   0.019   0.694  11.864
15686TIP3   OH268472   0.550   4.106   2.112
15686TIP3    H168473   0.457   4.104   2.091
15686TIP3    H268474   0.559   4.178   2.175
15687TIP3   OH268475   0.040   5.519   2.643
15687TIP3    H168476   0.088   5.571   2.579
15687TIP3    H268477  -0.014   5.583   2.690
15688TIP3   OH268478   6.449   1.548   4.535
15688TIP3    H168479   6.364   1.533   4.493
15688TIP3    H268480   6.513   1.512   4.473
15689TIP3   OH268481   0.887   5.054   5.059
15689TIP3    H168482   0.877   4.999   5.137
15689TIP3    H268483   0.862   5.141   5.087
15690TIP3   OH268484   1.306   6.066  12.130
15690TIP3    H168485   1.369   5.998  12.154
15690TIP3    H268486   1.232   6.019  12.092
15691TIP3   OH268487   1.153   3.687  15.328
15691TIP3    H168488   1.191   3.599  15.322
15691TIP3    H268489   1.144   3.702  15.423
15692TIP3   OH268490   4.366   0.647  16.889
15692TIP3    H168491   4.450   0.607  16.913
15692TIP3    H268492   4.322   0.662  16.973
15693TIP3   OH268493   6.521   4.308   1.222
15693TIP3    H168494   6.427   4.316   1.203
15693TIP3    H268495   6.563   4.364   1.157
15694TIP3   OH268496   2.750   2.335  12.237
15694TIP3    H168497   2.669   2.300  12.201
15694TIP3    H268498   2.788   2.385  12.165
15695TIP3   OH268499   1.174   6.025   0.047
15695TIP3    H168500   1.230   6.013  -0.029
15695TIP3    H268501   1.224   5.991   0.121
15696TIP3   OH268502   5.757   4.630  15.768
15696TIP3    H168503   5.771   4.633  15.863
15696TIP3    H268504   5.672   4.588  15.757
15697TIP3   OH268505   1.583   0.572   6.107
15697TIP3    H168506   1.490   0.546   6.109
15697TIP3    H268507   1.630   0.491   6.126
15698TIP3   OH268508   6.517   4.136   5.289
15698TIP3    H168509   6.499   4.078   5.363
15698TIP3    H268510   6.544   4.219   5.328
15699TIP3   OH268511   6.730   3.905   4.869
15699TIP3    H168512   6.825   3.913   4.856
15699TIP3    H268513   6.699   3.996   4.874
15700TIP3   OH268514   5.117   2.567   3.371
15700TIP3    H168515   5.140   2.494   3.429
15700TIP3    H268516   5.188   2.631   3.384
15701TIP3   OH268517   0.035   2.654  14.604
15701TIP3    H168518   0.052   2.739  14.646
15701TIP3    H268519   0.074   2.590  14.662
15702TIP3   OH268520   4.315   1.567  12.571
15702TIP3    H168521   4.405   1.550  12.600
15702TIP3    H268522   4.288   1.485  12.529
15703TIP3   OH268523   2.589   0.791  15.959
15703TIP3    H168524   2.635   0.727  16.012
15703TIP3    H268525   2.658   0.836  15.910
15704TIP3   OH268526   0.858   0.762  15.394
15704TIP3    H168527   0.916   0.690  15.367
15704TIP3    H268528   0.774   0.719  15.414
15705TIP3   OH268529   2.421   4.370   4.918
15705TIP3    H168530   2.342   4.419   4.939
15705TIP3    H268531   2.393   4.279   4.913
15706TIP3   OH268532   5.569   6.449  15.283
15706TIP3    H168533   5.622   6.395  15.225
15706TIP3    H268534   5.498   6.392  15.311
15707TIP3   OH268535   3.272   0.968  15.220
15707TIP3    H168536   3.300   1.010  15.138
15707TIP3    H268537   3.258   0.876  15.196
15708TIP3   OH268538   0.602   0.283  12.544
15708TIP3    H168539   0.536   0.304  12.478
15708TIP3    H268540   0.680   0.259  12.494
15709TIP3   OH268541   1.302   4.605  16.542
15709TIP3    H168542   1.229   4.554  16.577
15709TIP3    H268543   1.266   4.647  16.464
15710TIP3   OH268544   4.322   6.356   0.755
15710TIP3    H168545   4.358   6.318   0.675
15710TIP3    H268546   4.382   6.427   0.778
15711TIP3   OH268547   2.975   2.781  14.819
15711TIP3    H168548   2.901   2.775  14.880
15711TIP3    H268549   2.961   2.710  14.757
15712TIP3   OH268550   1.243   6.358  12.180
15712TIP3    H168551   1.223   6.375  12.272
15712TIP3    H268552   1.235   6.263  12.172
15713TIP3   OH268553   4.291   1.970  12.148
15713TIP3    H168554   4.314   1.947  12.058
15713TIP3    H268555   4.290   1.886  12.194
15714TIP3   OH268556   0.212   1.775   2.175
15714TIP3    H168557   0.128   1.732   2.187
15714TIP3    H268558   0.211   1.848   2.237
15715TIP3   OH268559   4.489   2.941  12.347
15715TIP3    H168560   4.431   3.004  12.305
15715TIP3    H268561   4.435   2.864  12.362
15716TIP3   OH268562   4.334   0.053   0.600
15716TIP3    H168563   4.428   0.066   0.613
15716TIP3    H268564   4.297   0.141   0.596
15717TIP3   OH268565   1.698   6.118   3.535
15717TIP3    H168566   1.706   6.203   3.490
15717TIP3    H268567   1.652   6.062   3.472
15718TIP3   OH268568   4.011   6.079  15.837
15718TIP3    H168569   3.941   6.107  15.896
15718TIP3    H268570   3.988   6.120  15.753
15719TIP3   OH268571   4.882   4.574  14.934
15719TIP3    H168572   4.907   4.547  15.022
15719TIP3    H268573   4.891   4.670  14.935
15720TIP3   OH268574   2.697   0.612   2.243
15720TIP3    H168575   2.792   0.607   2.240
15720TIP3    H268576   2.679   0.687   2.300
15721TIP3   OH268577   2.438   3.563  13.472
15721TIP3    H168578   2.472   3.476  13.492
15721TIP3    H268579   2.449   3.612  13.553
15722TIP3   OH268580   2.788   3.263   3.561
15722TIP3    H168581   2.848   3.284   3.633
15722TIP3    H268582   2.785   3.343   3.508
15723TIP3   OH268583   0.775   1.334   2.654
15723TIP3    H168584   0.699   1.374   2.611
15723TIP3    H268585   0.737   1.281   2.725
15724TIP3   OH268586   3.258   0.159  11.292
15724TIP3    H168587   3.312   0.202  11.359
15724TIP3    H268588   3.317   0.095  11.252
15725TIP3   OH268589   3.368   2.306   5.097
15725TIP3    H168590   3.428   2.376   5.124
15725TIP3    H268591   3.334   2.271   5.179
15726TIP3   OH268592   3.585   5.614   1.269
15726TIP3    H168593   3.634   5.538   1.238
15726TIP3    H268594   3.652   5.678   1.294
15727TIP3   OH268595   5.614   1.393   3.287
15727TIP3    H168596   5.639   1.301   3.290
15727TIP3    H268597   5.519   1.391   3.274
15728TIP3   OH268598   5.124   6.503   5.225
15728TIP3    H168599   5.094   6.590   5.198
15728TIP3    H268600   5.172   6.518   5.306
15729TIP3   OH268601   3.896   5.638  16.608
15729TIP3    H168602   3.839   5.640  16.686
15729TIP3    H268603   3.942   5.554  16.615
15730TIP3   OH268604   6.433   4.623   1.352
15730TIP3    H168605   6.390   4.694   1.304
15730TIP3    H268606   6.466   4.565   1.283
15731TIP3   OH268607   5.426   6.584  14.004
15731TIP3    H168608   5.515   6.593  13.968
15731TIP3    H268609   5.422   6.648  14.075
15732TIP3   OH268610   0.856   0.801   4.904
15732TIP3    H168611   0.904   0.865   4.851
15732TIP3    H268612   0.852   0.841   4.991
15733TIP3   OH268613   4.941   5.304   5.464
15733TIP3    H168614   5.035   5.284   5.463
15733TIP3    H268615   4.918   5.316   5.372
15734TIP3   OH268616   4.924   2.332   5.230
15734TIP3    H168617   4.902   2.387   5.154
15734TIP3    H268618   4.942   2.395   5.300
15735TIP3   OH268619   1.369   0.778   0.278
15735TIP3    H168620   1.339   0.814   0.362
15735TIP3    H268621   1.463   0.768   0.288
15736TIP3   OH268622   4.708   0.472   1.845
15736TIP3    H168623   4.752   0.387   1.854
15736TIP3    H268624   4.685   0.478   1.753
15737TIP3   OH268625   4.105   4.808  14.640
15737TIP3    H168626   4.155   4.760  14.573
15737TIP3    H268627   4.041   4.859  14.591
15738TIP3   OH268628   2.877   0.395  11.736
15738TIP3    H168629   2.901   0.330  11.803
15738TIP3    H268630   2.834   0.464  11.785
15739TIP3   OH268631   2.305   4.759   2.330
15739TIP3    H168632   2.300   4.666   2.354
15739TIP3    H268633   2.356   4.799   2.399
15740TIP3   OH268634   0.939   5.304   0.308
15740TIP3    H168635   0.869   5.369   0.303
15740TIP3    H268636   0.900   5.230   0.355
15741TIP3   OH268637   4.075   5.502   1.512
15741TIP3    H168638   4.024   5.502   1.431
15741TIP3    H268639   4.033   5.435   1.567
15742TIP3   OH268640   4.525   0.172   1.043
15742TIP3    H168641   4.590   0.242   1.039
15742TIP3    H268642   4.577   0.092   1.054
15743TIP3   OH268643   1.821   2.665   4.165
15743TIP3    H168644   1.897   2.708   4.205
15743TIP3    H268645   1.851   2.641   4.077
15744TIP3   OH268646   5.576   4.314  11.724
15744TIP3    H168647   5.668   4.327  11.745
15744TIP3    H268648   5.575   4.239  11.664
15745TIP3   OH268649   5.008   1.305  16.791
15745TIP3    H168650   4.970   1.225  16.828
15745TIP3    H268651   5.005   1.368  16.862
15746TIP3   OH268652   5.794   1.841  13.721
15746TIP3    H168653   5.734   1.824  13.793
15746TIP3    H268654   5.746   1.814  13.643
15747TIP3   OH268655   2.825   0.012   2.738
15747TIP3    H168656   2.867   0.064   2.670
15747TIP3    H268657   2.734   0.002   2.708
15748TIP3   OH268658   5.133   5.574  15.803
15748TIP3    H168659   5.127   5.669  15.800
15748TIP3    H268660   5.110   5.551  15.893
15749TIP3   OH268661   6.492   0.774  16.175
15749TIP3    H168662   6.462   0.807  16.091
15749TIP3    H268663   6.588   0.781  16.171
15750TIP3   OH268664   1.479   5.963   5.484
15750TIP3    H168665   1.449   6.002   5.402
15750TIP3    H268666   1.573   5.949   5.471
15751TIP3   OH268667   4.303   1.166   3.018
15751TIP3    H168668   4.230   1.110   3.045
15751TIP3    H268669   4.328   1.133   2.932
15752TIP3   OH268670   1.417   3.567   6.456
15752TIP3    H168671   1.370   3.503   6.509
15752TIP3    H268672   1.500   3.525   6.433
15753TIP3   OH268673   5.486   2.522  11.457
15753TIP3    H168674   5.398   2.539  11.424
15753TIP3    H268675   5.473   2.491  11.546
15754TIP3   OH268676   5.117   2.199  11.781
15754TIP3    H168677   5.187   2.176  11.843
15754TIP3    H268678   5.081   2.115  11.754
15755TIP3   OH268679   2.947   4.590  11.692
15755TIP3    H168680   2.904   4.544  11.620
15755TIP3    H268681   3.041   4.581  11.673
15756TIP3   OH268682   3.871   4.446   6.070
15756TIP3    H168683   3.929   4.513   6.106
15756TIP3    H268684   3.851   4.389   6.144
15757TIP3   OH268685   4.685   3.743  14.056
15757TIP3    H168686   4.722   3.812  14.001
15757TIP3    H268687   4.727   3.755  14.141
15758TIP3   OH268688   3.141   2.726  15.039
15758TIP3    H168689   3.097   2.745  14.957
15758TIP3    H268690   3.205   2.659  15.017
15759TIP3   OH268691   3.714   5.075   3.227
15759TIP3    H168692   3.676   5.000   3.182
15759TIP3    H268693   3.808   5.065   3.216
15760TIP3   OH268694   3.510   0.315   0.987
15760TIP3    H168695   3.589   0.358   0.954
15760TIP3    H268696   3.451   0.387   1.011
15761TIP3   OH268697   4.704   2.142  16.006
15761TIP3    H168698   4.730   2.197  16.080
15761TIP3    H268699   4.615   2.170  15.985
15762TIP3   OH268700   3.994   3.035  16.971
15762TIP3    H168701   3.941   2.992  17.038
15762TIP3    H268702   4.062   3.081  17.021
15763TIP3   OH268703   0.423   6.139   3.228
15763TIP3    H168704   0.327   6.138   3.228
15763TIP3    H268705   0.446   6.228   3.255
15764TIP3   OH268706   6.676   3.580   3.126
15764TIP3    H168707   6.659   3.569   3.032
15764TIP3    H268708   6.682   3.675   3.137
15765TIP3   OH268709   4.792   4.593   3.112
15765TIP3    H168710   4.724   4.653   3.080
15765TIP3    H268711   4.788   4.518   3.051
15766TIP3   OH268712   2.525   2.596  14.356
15766TIP3    H168713   2.620   2.597  14.355
15766TIP3    H268714   2.502   2.559  14.441
15767TIP3   OH268715   2.065   0.903  17.162
15767TIP3    H168716   1.988   0.853  17.135
15767TIP3    H268717   2.089   0.953  17.084
15768TIP3   OH268718   5.107   6.216   1.687
15768TIP3    H168719   5.139   6.156   1.619
15768TIP3    H268720   5.155   6.189   1.766
15769TIP3   OH268721   2.989   3.362  14.722
15769TIP3    H168722   2.911   3.366  14.777
15769TIP3    H268723   2.958   3.383  14.634
15770TIP3   OH268724   0.091   5.747   2.444
15770TIP3    H168725   0.079   5.754   2.349
15770TIP3    H268726   0.141   5.826   2.467
15771TIP3   OH268727   3.689   6.024  16.806
15771TIP3    H168728   3.679   6.076  16.727
15771TIP3    H268729   3.707   6.088  16.875
15772TIP3   OH268730   2.618   4.042  13.295
15772TIP3    H168731   2.632   4.078  13.382
15772TIP3    H268732   2.594   3.950  13.310
15773TIP3   OH268733   6.249   3.719   2.292
15773TIP3    H168734   6.228   3.688   2.380
15773TIP3    H268735   6.170   3.701   2.241
15774TIP3   OH268736   4.767   0.018  13.012
15774TIP3    H168737   4.766   0.027  13.108
15774TIP3    H268738   4.799   0.103  12.981
15775TIP3   OH268739   3.764   1.475   1.587
15775TIP3    H168740   3.790   1.408   1.523
15775TIP3    H268741   3.735   1.549   1.534
15776TIP3   OH268742   4.234   4.034  15.467
15776TIP3    H168743   4.241   3.984  15.385
15776TIP3    H268744   4.276   4.117  15.448
15777TIP3   OH268745   6.446   1.415   4.237
15777TIP3    H168746   6.529   1.424   4.284
15777TIP3    H268747   6.432   1.501   4.198
15778TIP3   OH268748   5.675   1.457  13.521
15778TIP3    H168749   5.682   1.362  13.532
15778TIP3    H268750   5.758   1.482  13.480
15779TIP3   OH268751   1.993   0.594  14.970
15779TIP3    H168752   2.063   0.656  14.954
15779TIP3    H268753   1.969   0.607  15.062
15780TIP3   OH268754   6.621   2.091  10.690
15780TIP3    H168755   6.710   2.082  10.724
15780TIP3    H268756   6.607   2.185  10.684
15781TIP3   OH268757   4.901   5.322  15.318
15781TIP3    H168758   4.986   5.299  15.356
15781TIP3    H268759   4.906   5.417  15.307
15782TIP3   OH268760   3.422   0.853   5.964
15782TIP3    H168761   3.440   0.792   6.036
15782TIP3    H268762   3.341   0.897   5.990
15783TIP3   OH268763   1.873   1.666  13.833
15783TIP3    H168764   1.852   1.744  13.884
15783TIP3    H268765   1.831   1.680  13.748
15784TIP3   OH268766   0.185   4.846  17.173
15784TIP3    H168767   0.095   4.845  17.206
15784TIP3    H268768   0.230   4.911  17.227
15785TIP3   OH268769   0.082   5.185   4.618
15785TIP3    H168770   0.064   5.113   4.557
15785TIP3    H268771   0.155   5.153   4.671
15786TIP3   OH268772   6.559   0.861   0.887
15786TIP3    H168773   6.492   0.885   0.950
15786TIP3    H268774   6.510   0.833   0.809
15787TIP3   OH268775   2.399   2.124   4.783
15787TIP3    H168776   2.326   2.063   4.785
15787TIP3    H268777   2.471   2.075   4.744
15788TIP3   OH268778   4.671   2.841   0.936
15788TIP3    H168779   4.651   2.846   0.843
15788TIP3    H268780   4.586   2.840   0.979
15789TIP3   OH268781   2.311   2.691   4.467
15789TIP3    H168782   2.393   2.669   4.423
15789TIP3    H268783   2.332   2.686   4.561
15790TIP3   OH268784   3.790   1.181  11.159
15790TIP3    H168785   3.740   1.224  11.090
15790TIP3    H268786   3.789   1.244  11.232
15791TIP3   OH268787   6.623   1.773   3.111
15791TIP3    H168788   6.648   1.849   3.058
15791TIP3    H268789   6.650   1.697   3.059
15792TIP3   OH268790   2.718   6.034  10.766
15792TIP3    H168791   2.768   5.955  10.790
15792TIP3    H268792   2.785   6.100  10.750
15793TIP3   OH268793   6.385   0.839  12.635
15793TIP3    H168794   6.314   0.777  12.618
15793TIP3    H268795   6.345   0.906  12.690
15794TIP3   OH268796   0.372   6.516   5.174
15794TIP3    H168797   0.399   6.425   5.182
15794TIP3    H268798   0.430   6.553   5.107
15795TIP3   OH268799   0.852   3.243   3.033
15795TIP3    H168800   0.940   3.232   3.069
15795TIP3    H268801   0.831   3.335   3.048
15796TIP3   OH268802   1.925   6.428   6.497
15796TIP3    H168803   2.003   6.470   6.532
15796TIP3    H268804   1.958   6.349   6.454
15797TIP3   OH268805   2.894   5.668   5.154
15797TIP3    H168806   2.939   5.590   5.122
15797TIP3    H268807   2.950   5.701   5.225
15798TIP3   OH268808   4.920   5.395   2.550
15798TIP3    H168809   4.912   5.341   2.629
15798TIP3    H268810   4.990   5.456   2.570
15799TIP3   OH268811   5.035   2.739   2.072
15799TIP3    H168812   5.002   2.672   2.011
15799TIP3    H268813   4.980   2.815   2.055
15800TIP3   OH268814   5.525   6.236   0.002
15800TIP3    H168815   5.561   6.190  -0.074
15800TIP3    H268816   5.460   6.176   0.039
15801TIP3   OH268817   4.918   1.586  13.529
15801TIP3    H168818   4.926   1.589  13.624
15801TIP3    H268819   4.826   1.563  13.513
15802TIP3   OH268820   1.825   4.062   2.390
15802TIP3    H168821   1.888   4.133   2.404
15802TIP3    H268822   1.789   4.045   2.477
15803TIP3   OH268823   3.612   1.662  13.219
15803TIP3    H168824   3.642   1.631  13.304
15803TIP3    H268825   3.528   1.617  13.206
15804TIP3   OH268826   2.412   5.550   3.655
15804TIP3    H168827   2.399   5.507   3.739
15804TIP3    H268828   2.412   5.643   3.676
15805TIP3   OH268829   4.765   2.928  15.520
15805TIP3    H168830   4.695   2.896  15.577
15805TIP3    H268831   4.807   2.998  15.571
15806TIP3   OH268832   1.028   0.576   2.790
15806TIP3    H168833   1.116   0.580   2.826
15806TIP3    H268834   0.986   0.505   2.838
15807TIP3   OH268835   4.834   4.383   2.950
15807TIP3    H168836   4.886   4.303   2.951
15807TIP3    H268837   4.747   4.355   2.921
15808TIP3   OH268838   4.289   3.763   2.470
15808TIP3    H168839   4.309   3.718   2.552
15808TIP3    H268840   4.356   3.733   2.409
15809TIP3   OH268841   4.571   1.635  14.200
15809TIP3    H168842   4.529   1.655  14.116
15809TIP3    H268843   4.617   1.716  14.223
15810TIP3   OH268844   1.165   2.908   4.550
15810TIP3    H168845   1.139   2.844   4.617
15810TIP3    H268846   1.082   2.936   4.511
15811TIP3   OH268847   5.215   5.531  15.239
15811TIP3    H168848   5.194   5.568  15.325
15811TIP3    H268849   5.156   5.576  15.178
15812TIP3   OH268850   3.992   4.625  15.308
15812TIP3    H168851   3.980   4.687  15.380
15812TIP3    H268852   3.929   4.555  15.326
15813TIP3   OH268853   3.360   0.208   6.364
15813TIP3    H168854   3.426   0.164   6.417
15813TIP3    H268855   3.329   0.141   6.303
15814TIP3   OH268856   5.346   3.311  12.185
15814TIP3    H168857   5.337   3.402  12.213
15814TIP3    H268858   5.429   3.308  12.137
15815TIP3   OH268859   3.362   5.364  16.435
15815TIP3    H168860   3.381   5.409  16.518
15815TIP3    H268861   3.362   5.434  16.369
15816TIP3   OH268862   1.567   6.495   3.845
15816TIP3    H168863   1.491   6.553   3.856
15816TIP3    H268864   1.560   6.433   3.917
15817TIP3   OH268865   6.054   1.043  16.421
15817TIP3    H168866   5.994   1.111  16.453
15817TIP3    H268867   5.999   0.984  16.370
15818TIP3   OH268868   4.663   0.364   3.381
15818TIP3    H168869   4.614   0.294   3.423
15818TIP3    H268870   4.622   0.444   3.413
15819TIP3   OH268871   1.416   1.480  14.283
15819TIP3    H168872   1.454   1.568  14.281
15819TIP3    H268873   1.429   1.450  14.373
15820TIP3   OH268874   3.530   5.756   5.000
15820TIP3    H168875   3.533   5.775   5.093
15820TIP3    H268876   3.472   5.681   4.991
15821TIP3   OH268877   0.392   2.234  13.427
15821TIP3    H168878   0.412   2.235  13.521
15821TIP3    H268879   0.478   2.231  13.385
15822TIP3   OH268880   3.048   4.980  14.123
15822TIP3    H168881   3.107   4.918  14.080
15822TIP3    H268882   3.068   4.972  14.216
15823TIP3   OH268883   4.896   3.131  15.666
15823TIP3    H168884   4.893   3.168  15.754
15823TIP3    H268885   4.989   3.114  15.651
15824TIP3   OH268886   3.595   5.772  16.929
15824TIP3    H168887   3.503   5.745  16.937
15824TIP3    H268888   3.598   5.858  16.971
15825TIP3   OH268889   4.903   2.141  13.765
15825TIP3    H168890   4.918   2.063  13.818
15825TIP3    H268891   4.986   2.156  13.720
15826TIP3   OH268892   5.974   3.364  17.179
15826TIP3    H168893   6.026   3.427  17.129
15826TIP3    H268894   5.895   3.412  17.204
15827TIP3   OH268895   5.537   2.876  13.644
15827TIP3    H168896   5.516   2.799  13.696
15827TIP3    H268897   5.579   2.842  13.565
15828TIP3   OH268898   4.544   2.484  13.536
15828TIP3    H168899   4.598   2.455  13.610
15828TIP3    H268900   4.516   2.403  13.493
15829TIP3   OH268901   1.890   1.134  12.956
15829TIP3    H168902   1.838   1.146  13.036
15829TIP3    H268903   1.883   1.041  12.937
15830TIP3   OH268904   2.193   5.881  16.783
15830TIP3    H168905   2.278   5.875  16.739
15830TIP3    H268906   2.213   5.925  16.866
15831TIP3   OH268907   6.635   4.162  11.559
15831TIP3    H168908   6.638   4.126  11.470
15831TIP3    H268909   6.675   4.249  11.552
15832TIP3   OH268910   5.933   3.399   1.229
15832TIP3    H168911   5.933   3.353   1.313
15832TIP3    H268912   5.935   3.330   1.163
15833TIP3   OH268913   2.687   0.999  16.910
15833TIP3    H168914   2.665   0.913  16.875
15833TIP3    H268915   2.607   1.029  16.954
15834TIP3   OH268916   3.538   0.982  17.049
15834TIP3    H168917   3.552   0.895  17.087
15834TIP3    H268918   3.506   1.035  17.122
15835TIP3   OH268919   4.299   6.779  10.584
15835TIP3    H168920   4.205   6.764  10.569
15835TIP3    H268921   4.339   6.693  10.570
15836TIP3   OH268922   3.502   6.241   6.267
15836TIP3    H168923   3.467   6.285   6.344
15836TIP3    H268924   3.483   6.301   6.194
15837TIP3   OH268925   0.775   2.840   3.864
15837TIP3    H168926   0.717   2.770   3.895
15837TIP3    H268927   0.762   2.911   3.927
15838TIP3   OH268928   6.717   0.004   2.393
15838TIP3    H168929   6.768   0.043   2.464
15838TIP3    H268930   6.693   0.079   2.337
15839TIP3   OH268931   2.699   0.759  13.829
15839TIP3    H168932   2.749   0.723  13.756
15839TIP3    H268933   2.672   0.683  13.880
15840TIP3   OH268934   1.692   3.144  11.244
15840TIP3    H168935   1.602   3.109  11.243
15840TIP3    H268936   1.697   3.201  11.167
15841TIP3   OH268937   1.050   0.606   1.699
15841TIP3    H168938   0.992   0.660   1.753
15841TIP3    H268939   1.036   0.517   1.731
15842TIP3   OH268940   2.061   2.225   3.066
15842TIP3    H168941   2.088   2.146   3.020
15842TIP3    H268942   1.999   2.195   3.132
15843TIP3   OH268943   0.330   5.350  14.329
15843TIP3    H168944   0.307   5.348  14.422
15843TIP3    H268945   0.320   5.441  14.303
15844TIP3   OH268946   0.478   6.327  15.148
15844TIP3    H168947   0.569   6.350  15.169
15844TIP3    H268948   0.478   6.231  15.144
15845TIP3   OH268949   2.324   1.560   4.859
15845TIP3    H168950   2.369   1.476   4.855
15845TIP3    H268951   2.360   1.603   4.936
15846TIP3   OH268952   3.742   2.666  14.623
15846TIP3    H168953   3.812   2.731  14.630
15846TIP3    H268954   3.708   2.658  14.712
15847TIP3   OH268955   0.842   4.149   0.921
15847TIP3    H168956   0.885   4.067   0.896
15847TIP3    H268957   0.751   4.124   0.937
15848TIP3   OH268958   3.107   0.665  12.745
15848TIP3    H168959   3.182   0.690  12.800
15848TIP3    H268960   3.031   0.702  12.790
15849TIP3   OH268961   3.505   2.533  14.519
15849TIP3    H168962   3.583   2.570  14.560
15849TIP3    H268963   3.434   2.554  14.579
15850TIP3   OH268964   5.682   5.512  15.305
15850TIP3    H168965   5.773   5.535  15.291
15850TIP3    H268966   5.653   5.475  15.222
15851TIP3   OH268967   2.020   4.491   2.457
15851TIP3    H168968   2.033   4.519   2.367
15851TIP3    H268969   1.954   4.552   2.491
15852TIP3   OH268970   4.879   3.530  12.432
15852TIP3    H168971   4.915   3.617  12.416
15852TIP3    H268972   4.871   3.524  12.527
15853TIP3   OH268973   1.970   2.117   2.133
15853TIP3    H168974   1.993   2.025   2.129
15853TIP3    H268975   1.912   2.124   2.208
15854TIP3   OH268976   5.133   5.383  16.265
15854TIP3    H168977   5.126   5.460  16.208
15854TIP3    H268978   5.114   5.309  16.207
15855TIP3   OH268979   4.147   4.190   4.588
15855TIP3    H168980   4.179   4.279   4.571
15855TIP3    H268981   4.071   4.203   4.645
15856TIP3   OH268982   0.581   2.206  12.210
15856TIP3    H168983   0.524   2.267  12.162
15856TIP3    H268984   0.635   2.167  12.142
15857TIP3   OH268985   1.650   4.464   1.802
15857TIP3    H168986   1.696   4.489   1.882
15857TIP3    H268987   1.683   4.525   1.736
15858TIP3   OH268988   2.102   2.477   1.871
15858TIP3    H168989   2.069   2.436   1.950
15858TIP3    H268990   2.029   2.531   1.839
15859TIP3   OH268991   5.608   1.063   5.928
15859TIP3    H168992   5.523   1.088   5.963
15859TIP3    H268993   5.667   1.133   5.956
15860TIP3   OH268994   3.073   5.347   5.321
15860TIP3    H168995   3.025   5.301   5.390
15860TIP3    H268996   3.112   5.422   5.365
15861TIP3   OH268997   5.748   3.913   4.680
15861TIP3    H168998   5.767   3.829   4.640
15861TIP3    H268999   5.773   3.903   4.772
15862TIP3   OH269000   1.615   1.472  15.325
15862TIP3    H169001   1.634   1.486  15.417
15862TIP3    H269002   1.586   1.558  15.293
15863TIP3   OH269003   6.336   5.235  12.297
15863TIP3    H169004   6.277   5.167  12.264
15863TIP3    H269005   6.281   5.313  12.304
15864TIP3   OH269006   4.100   5.991   4.364
15864TIP3    H169007   4.079   6.050   4.292
15864TIP3    H269008   4.092   5.903   4.326
15865TIP3   OH269009   3.313   0.402  17.066
15865TIP3    H169010   3.403   0.424  17.089
15865TIP3    H269011   3.314   0.307  17.054
15866TIP3   OH269012   4.541   4.415   6.527
15866TIP3    H169013   4.551   4.395   6.433
15866TIP3    H269014   4.459   4.372   6.551
15867TIP3   OH269015   0.595   0.009   0.508
15867TIP3    H169016   0.507  -0.001   0.544
15867TIP3    H269017   0.589  -0.024   0.418
15868TIP3   OH269018   2.499   5.357   1.377
15868TIP3    H169019   2.543   5.277   1.348
15868TIP3    H269020   2.528   5.423   1.313
15869TIP3   OH269021   2.478   2.295   1.801
15869TIP3    H169022   2.463   2.377   1.846
15869TIP3    H269023   2.569   2.302   1.769
15870TIP3   OH269024   1.274   2.533   4.645
15870TIP3    H169025   1.186   2.569   4.658
15870TIP3    H269026   1.304   2.574   4.563
15871TIP3   OH269027   1.363   0.429  16.221
15871TIP3    H169028   1.419   0.422  16.298
15871TIP3    H269029   1.403   0.499  16.169
15872TIP3   OH269030   1.815   0.652   0.008
15872TIP3    H169031   1.873   0.615  -0.058
15872TIP3    H269032   1.769   0.576   0.045
15873TIP3   OH269033   0.485   3.046   3.363
15873TIP3    H169034   0.490   3.119   3.301
15873TIP3    H269035   0.410   3.067   3.419
15874TIP3   OH269036   6.337   2.897   1.002
15874TIP3    H169037   6.337   2.918   1.095
15874TIP3    H269038   6.246   2.910   0.974
15875TIP3   OH269039   6.009   5.491  12.401
15875TIP3    H169040   6.088   5.484  12.348
15875TIP3    H269041   6.033   5.550  12.473
15876TIP3   OH269042   0.625   3.706   4.074
15876TIP3    H169043   0.592   3.652   4.145
15876TIP3    H269044   0.552   3.763   4.051
15877TIP3   OH269045   4.790   2.971  13.047
15877TIP3    H169046   4.840   3.051  13.063
15877TIP3    H269047   4.788   2.963  12.952
15878TIP3   OH269048   2.582   4.106   2.664
15878TIP3    H169049   2.522   4.169   2.624
15878TIP3    H269050   2.634   4.158   2.725
15879TIP3   OH269051   4.460   2.999   5.211
15879TIP3    H169052   4.395   3.021   5.144
15879TIP3    H269053   4.489   3.084   5.245
15880TIP3   OH269054   6.172   6.004  11.424
15880TIP3    H169055   6.111   5.995  11.498
15880TIP3    H269056   6.119   5.986  11.347
15881TIP3   OH269057   2.057   2.032  14.378
15881TIP3    H169058   2.081   2.108  14.432
15881TIP3    H269059   2.041   2.069  14.292
15882TIP3   OH269060   4.808   5.924   5.985
15882TIP3    H169061   4.741   5.992   5.992
15882TIP3    H269062   4.891   5.972   5.989
15883TIP3   OH269063   0.142   5.884   0.404
15883TIP3    H169064   0.104   5.860   0.489
15883TIP3    H269065   0.139   5.979   0.403
15884TIP3   OH269066   5.261   5.152   3.036
15884TIP3    H169067   5.315   5.159   2.957
15884TIP3    H269068   5.323   5.163   3.108
15885TIP3   OH269069   6.439   5.256   1.240
15885TIP3    H169070   6.374   5.321   1.266
15885TIP3    H269071   6.512   5.307   1.205
15886TIP3   OH269072   1.837   0.568  13.066
15886TIP3    H169073   1.913   0.600  13.115
15886TIP3    H269074   1.832   0.475  13.087
15887TIP3   OH269075   3.256   5.176   4.355
15887TIP3    H169076   3.297   5.160   4.270
15887TIP3    H269077   3.214   5.094   4.378
15888TIP3   OH269078   3.704   1.274   3.383
15888TIP3    H169079   3.792   1.235   3.387
15888TIP3    H269080   3.672   1.270   3.473
15889TIP3   OH269081   5.441   3.004  14.133
15889TIP3    H169082   5.517   2.952  14.108
15889TIP3    H269083   5.422   3.058  14.056
15890TIP3   OH269084   6.753   3.187   3.604
15890TIP3    H169085   6.661   3.210   3.592
15890TIP3    H269086   6.753   3.091   3.611
15891TIP3   OH269087   3.998   4.762   5.986
15891TIP3    H169088   3.937   4.805   5.926
15891TIP3    H269089   4.040   4.835   6.033
15892TIP3   OH269090   1.692   0.098   4.340
15892TIP3    H169091   1.605   0.057   4.332
15892TIP3    H269092   1.677   0.190   4.317
15893TIP3   OH269093   2.550   5.748   3.872
15893TIP3    H169094   2.565   5.658   3.898
15893TIP3    H269095   2.628   5.773   3.823
15894TIP3   OH269096   2.647   5.240   2.456
15894TIP3    H169097   2.561   5.215   2.489
15894TIP3    H269098   2.649   5.207   2.366
15895TIP3   OH269099   3.856   0.833  11.370
15895TIP3    H169100   3.943   0.793  11.374
15895TIP3    H269101   3.856   0.898  11.440
15896TIP3   OH269102   5.229   2.912  15.388
15896TIP3    H169103   5.192   2.826  15.371
15896TIP3    H269104   5.166   2.955  15.446
15897TIP3   OH269105   5.621   5.379   1.634
15897TIP3    H169106   5.646   5.426   1.555
15897TIP3    H269107   5.583   5.297   1.603
15898TIP3   OH269108   6.752   0.356  13.648
15898TIP3    H169109   6.729   0.286  13.709
15898TIP3    H269110   6.669   0.385  13.611
15899TIP3   OH269111   4.127   3.663   1.826
15899TIP3    H169112   4.181   3.730   1.868
15899TIP3    H269113   4.060   3.712   1.779
15900TIP3   OH269114   1.882   6.130  14.795
15900TIP3    H169115   1.952   6.195  14.797
15900TIP3    H269116   1.894   6.084  14.712
15901TIP3   OH269117   5.760   3.330  13.448
15901TIP3    H169118   5.834   3.297  13.499
15901TIP3    H269119   5.725   3.402  13.501
15902TIP3   OH269120   2.297   2.733  11.396
15902TIP3    H169121   2.239   2.796  11.353
15902TIP3    H269122   2.364   2.714  11.330
15903TIP3   OH269123   0.205   6.084  11.474
15903TIP3    H169124   0.203   6.024  11.400
15903TIP3    H269125   0.133   6.056  11.530
15904TIP3   OH269126   5.704   3.302   0.313
15904TIP3    H169127   5.744   3.307   0.400
15904TIP3    H269128   5.763   3.246   0.263
15905TIP3   OH269129   2.397   3.954  16.048
15905TIP3    H169130   2.363   3.868  16.072
15905TIP3    H269131   2.491   3.940  16.035
15906TIP3   OH269132   2.058   3.956   3.510
15906TIP3    H169133   2.126   3.997   3.563
15906TIP3    H269134   2.031   3.880   3.561
15907TIP3   OH269135   3.609   6.314   3.146
15907TIP3    H169136   3.634   6.316   3.239
15907TIP3    H269137   3.569   6.228   3.134
15908TIP3   OH269138   0.578   4.283   0.811
15908TIP3    H169139   0.648   4.267   0.748
15908TIP3    H269140   0.498   4.286   0.759
15909TIP3   OH269141   4.820   4.714   1.150
15909TIP3    H169142   4.725   4.720   1.162
15909TIP3    H269143   4.831   4.664   1.069
15910TIP3   OH269144   4.419   3.552   4.450
15910TIP3    H169145   4.463   3.610   4.513
15910TIP3    H269146   4.327   3.575   4.456
15911TIP3   OH269147   3.239   6.116   4.861
15911TIP3    H169148   3.165   6.135   4.918
15911TIP3    H269149   3.289   6.049   4.908
15912TIP3   OH269150   4.826   5.450   1.710
15912TIP3    H169151   4.763   5.521   1.724
15912TIP3    H269152   4.905   5.495   1.678
15913TIP3   OH269153   2.301   3.164  12.313
15913TIP3    H169154   2.337   3.192  12.397
15913TIP3    H269155   2.208   3.183  12.320
15914TIP3   OH269156   1.137   1.456  15.140
15914TIP3    H169157   1.152   1.491  15.227
15914TIP3    H269158   1.057   1.500  15.110
15915TIP3   OH269159   2.521   0.436   1.181
15915TIP3    H169160   2.515   0.503   1.249
15915TIP3    H269161   2.582   0.371   1.216
15916TIP3   OH269162   3.413   6.412   0.082
15916TIP3    H169163   3.486   6.367   0.124
15916TIP3    H269164   3.413   6.380  -0.008
15917TIP3   OH269165   2.517   1.054   4.402
15917TIP3    H169166   2.579   1.123   4.376
15917TIP3    H269167   2.443   1.102   4.438
15918TIP3   OH269168   5.048   5.966  16.624
15918TIP3    H169169   5.079   6.039  16.677
15918TIP3    H269170   5.119   5.950  16.562
15919TIP3   OH269171   0.004   4.971  16.802
15919TIP3    H169172   0.009   4.877  16.783
15919TIP3    H269173  -0.027   5.010  16.720
15920TIP3   OH269174   6.544   1.935  16.347
15920TIP3    H169175   6.532   2.022  16.385
15920TIP3    H269176   6.600   1.949  16.271
15921TIP3   OH269177   1.256   1.331  15.537
15921TIP3    H169178   1.318   1.364  15.602
15921TIP3    H269179   1.306   1.267  15.487
15922TIP3   OH269180   2.049   6.659   3.876
15922TIP3    H169181   2.110   6.586   3.866
15922TIP3    H269182   2.073   6.700   3.959
15923TIP3   OH269183   0.425   5.253   5.697
15923TIP3    H169184   0.372   5.323   5.736
15923TIP3    H269185   0.464   5.208   5.773
15924TIP3   OH269186   0.815   5.194  16.195
15924TIP3    H169187   0.753   5.240  16.252
15924TIP3    H269188   0.826   5.253  16.120
15925TIP3   OH269189   2.304   6.659  16.562
15925TIP3    H169190   2.304   6.640  16.656
15925TIP3    H269191   2.236   6.603  16.526
15926TIP3   OH269192   1.216   3.245   2.848
15926TIP3    H169193   1.305   3.223   2.821
15926TIP3    H269194   1.187   3.169   2.898
15927TIP3   OH269195   4.483   3.328   0.376
15927TIP3    H169196   4.467   3.420   0.355
15927TIP3    H269197   4.572   3.327   0.410
15928TIP3   OH269198   4.722   3.800   1.268
15928TIP3    H169199   4.647   3.766   1.218
15928TIP3    H269200   4.797   3.785   1.211
15929TIP3   OH269201   4.518   1.542  15.255
15929TIP3    H169202   4.606   1.575  15.235
15929TIP3    H269203   4.517   1.533  15.350
15930TIP3   OH269204   4.810   1.966  13.183
15930TIP3    H169205   4.753   1.916  13.242
15930TIP3    H269206   4.763   1.965  13.099
15931TIP3   OH269207   5.986   2.660   5.316
15931TIP3    H169208   6.029   2.673   5.401
15931TIP3    H269209   6.055   2.630   5.258
15932TIP3   OH269210   2.922   3.636  13.558
15932TIP3    H169211   2.891   3.686  13.483
15932TIP3    H269212   3.010   3.668  13.574
15933TIP3   OH269213   0.531   5.056   5.046
15933TIP3    H169214   0.555   5.022   4.960
15933TIP3    H269215   0.510   4.978   5.097
15934TIP3   OH269216   4.374   2.821   3.351
15934TIP3    H169217   4.374   2.726   3.340
15934TIP3    H269218   4.281   2.846   3.350
15935TIP3   OH269219   6.384   4.312  13.896
15935TIP3    H169220   6.421   4.378  13.838
15935TIP3    H269221   6.355   4.241  13.838
15936TIP3   OH269222   5.636   0.182   2.568
15936TIP3    H169223   5.701   0.113   2.581
15936TIP3    H269224   5.638   0.199   2.474
15937TIP3   OH269225   6.532   0.810  13.663
15937TIP3    H169226   6.501   0.756  13.736
15937TIP3    H269227   6.627   0.798  13.664
15938TIP3   OH269228   1.603   1.492   0.974
15938TIP3    H169229   1.652   1.436   1.034
15938TIP3    H269230   1.670   1.547   0.932
15939TIP3   OH269231   0.524   2.755  16.663
15939TIP3    H169232   0.584   2.816  16.618
15939TIP3    H269233   0.571   2.728  16.741
15940TIP3   OH269234   5.863   6.054   0.369
15940TIP3    H169235   5.958   6.043   0.368
15940TIP3    H269236   5.847   6.129   0.312
15941TIP3   OH269237   1.229   3.294   0.685
15941TIP3    H169238   1.150   3.348   0.679
15941TIP3    H269239   1.238   3.255   0.599
15942TIP3   OH269240   4.939   0.649   1.088
15942TIP3    H169241   4.900   0.561   1.096
15942TIP3    H269242   4.938   0.666   0.994
15943TIP3   OH269243   5.583   1.462  16.036
15943TIP3    H169244   5.627   1.496  16.113
15943TIP3    H269245   5.496   1.499  16.039
15944TIP3   OH269246   6.737   0.389  14.690
15944TIP3    H169247   6.795   0.443  14.637
15944TIP3    H269248   6.758   0.413  14.781
15945TIP3   OH269249   4.045   4.199  16.509
15945TIP3    H169250   3.968   4.154  16.475
15945TIP3    H269251   4.118   4.166  16.457
15946TIP3   OH269252   3.229   2.561  12.256
15946TIP3    H169253   3.257   2.650  12.235
15946TIP3    H269254   3.238   2.514  12.173
15947TIP3   OH269255   5.410   0.151   2.210
15947TIP3    H169256   5.408   0.233   2.259
15947TIP3    H269257   5.502   0.140   2.186
15948TIP3   OH269258   1.965   1.312   2.842
15948TIP3    H169259   2.015   1.237   2.812
15948TIP3    H269260   1.878   1.277   2.861
15949TIP3   OH269261   4.305   0.666  13.276
15949TIP3    H169262   4.217   0.702  13.284
15949TIP3    H269263   4.362   0.742  13.264
15950TIP3   OH269264   3.413   5.057   4.145
15950TIP3    H169265   3.480   5.124   4.135
15950TIP3    H269266   3.425   4.999   4.070
15951TIP3   OH269267   1.915   0.301   0.460
15951TIP3    H169268   1.973   0.364   0.502
15951TIP3    H269269   1.971   0.224   0.444
15952TIP3   OH269270   4.078   3.506   5.030
15952TIP3    H169271   4.127   3.584   5.056
15952TIP3    H269272   4.109   3.437   5.090
15953TIP3   OH269273   1.136   3.221  16.857
15953TIP3    H169274   1.218   3.171  16.849
15953TIP3    H269275   1.160   3.310  16.830
15954TIP3   OH269276   2.305   2.327   1.196
15954TIP3    H169277   2.361   2.380   1.253
15954TIP3    H269278   2.310   2.370   1.110
15955TIP3   OH269279   1.492   5.750   3.943
15955TIP3    H169280   1.478   5.769   4.036
15955TIP3    H269281   1.586   5.767   3.930
15956TIP3   OH269282   5.843   1.193   3.564
15956TIP3    H169283   5.859   1.120   3.505
15956TIP3    H269284   5.930   1.233   3.577
15957TIP3   OH269285   1.374   4.036  13.750
15957TIP3    H169286   1.293   4.032  13.699
15957TIP3    H269287   1.393   3.944  13.770
15958TIP3   OH269288   4.855   0.337  15.451
15958TIP3    H169289   4.808   0.287  15.385
15958TIP3    H269290   4.948   0.324  15.430
15959TIP3   OH269291   1.782   2.780   5.396
15959TIP3    H169292   1.740   2.700   5.429
15959TIP3    H269293   1.855   2.749   5.343
15960TIP3   OH269294   6.034   4.178   5.634
15960TIP3    H169295   5.951   4.150   5.674
15960TIP3    H269296   6.101   4.144   5.693
15961TIP3   OH269297   6.708   0.875   0.548
15961TIP3    H169298   6.630   0.891   0.602
15961TIP3    H269299   6.696   0.787   0.513
15962TIP3   OH269300   1.580   2.837  13.850
15962TIP3    H169301   1.607   2.867  13.764
15962TIP3    H269302   1.501   2.888  13.870
15963TIP3   OH269303   1.239   6.364   4.386
15963TIP3    H169304   1.239   6.438   4.446
15963TIP3    H269305   1.331   6.340   4.378
15964TIP3   OH269306   4.845   3.638  12.733
15964TIP3    H169307   4.856   3.637  12.828
15964TIP3    H269308   4.833   3.730  12.711
15965TIP3   OH269309   1.886   0.784   1.402
15965TIP3    H169310   1.861   0.872   1.376
15965TIP3    H269311   1.923   0.745   1.323
15966TIP3   OH269312   1.729   4.713  16.253
15966TIP3    H169313   1.733   4.617  16.253
15966TIP3    H269314   1.642   4.733  16.289
15967TIP3   OH269315   3.077   2.997   0.806
15967TIP3    H169316   3.002   3.009   0.864
15967TIP3    H269317   3.041   3.003   0.718
15968TIP3   OH269318   0.824   3.819   5.006
15968TIP3    H169319   0.852   3.746   5.061
15968TIP3    H269320   0.751   3.859   5.053
15969TIP3   OH269321   1.864   3.160   3.676
15969TIP3    H169322   1.905   3.207   3.603
15969TIP3    H269323   1.883   3.068   3.659
15970TIP3   OH269324   4.782   4.263  17.169
15970TIP3    H169325   4.717   4.232  17.232
15970TIP3    H269326   4.802   4.186  17.116
15971TIP3   OH269327   5.344   5.169  15.835
15971TIP3    H169328   5.436   5.171  15.864
15971TIP3    H269329   5.340   5.096  15.774
15972TIP3   OH269330   2.180   6.623   5.842
15972TIP3    H169331   2.258   6.647   5.891
15972TIP3    H269332   2.212   6.607   5.753
15973TIP3   OH269333   6.698   5.454   6.341
15973TIP3    H169334   6.671   5.493   6.425
15973TIP3    H269335   6.637   5.491   6.277
15974TIP3   OH269336   4.703   1.506   3.188
15974TIP3    H169337   4.713   1.417   3.222
15974TIP3    H269338   4.612   1.510   3.158
15975TIP3   OH269339   4.555   4.955  15.731
15975TIP3    H169340   4.650   4.940  15.736
15975TIP3    H269341   4.524   4.891  15.666
15976TIP3   OH269342   1.059   3.288   4.373
15976TIP3    H169343   1.099   3.311   4.457
15976TIP3    H269344   0.966   3.309   4.384
15977TIP3   OH269345   0.018   4.338   1.361
15977TIP3    H169346  -0.056   4.304   1.311
15977TIP3    H269347   0.070   4.387   1.297
15978TIP3   OH269348   4.607   3.727  14.500
15978TIP3    H169349   4.587   3.666  14.571
15978TIP3    H269350   4.539   3.711  14.435
15979TIP3   OH269351   1.681   0.638   1.087
15979TIP3    H169352   1.643   0.598   1.165
15979TIP3    H269353   1.775   0.630   1.099
15980TIP3   OH269354   6.569   5.466   0.912
15980TIP3    H169355   6.492   5.408   0.912
15980TIP3    H269356   6.619   5.440   0.989
15981TIP3   OH269357   4.493   3.254   3.117
15981TIP3    H169358   4.508   3.264   3.211
15981TIP3    H269359   4.423   3.317   3.097
15982TIP3   OH269360   1.358   3.085  16.893
15982TIP3    H169361   1.393   3.168  16.924
15982TIP3    H269362   1.317   3.046  16.970
15983TIP3   OH269363   0.163   2.263   3.210
15983TIP3    H169364   0.191   2.179   3.247
15983TIP3    H269365   0.076   2.278   3.248
15984TIP3   OH269366   4.526   4.285   3.733
15984TIP3    H169367   4.565   4.317   3.651
15984TIP3    H269368   4.431   4.285   3.716
15985TIP3   OH269369   6.293   3.239  14.553
15985TIP3    H169370   6.257   3.201  14.473
15985TIP3    H269371   6.220   3.238  14.615
15986TIP3   OH269372   0.584   5.425  14.573
15986TIP3    H169373   0.507   5.370  14.579
15986TIP3    H269374   0.633   5.408  14.654
15987TIP3   OH269375   2.565   5.775  12.754
15987TIP3    H169376   2.504   5.756  12.683
15987TIP3    H269377   2.651   5.771  12.713
15988TIP3   OH269378   0.088   6.222  15.772
15988TIP3    H169379   0.157   6.179  15.823
15988TIP3    H269380   0.107   6.196  15.681
15989TIP3   OH269381   2.008   4.918   6.013
15989TIP3    H169382   2.037   4.939   6.101
15989TIP3    H269383   2.046   4.832   5.994
15990TIP3   OH269384   4.387   2.992  15.453
15990TIP3    H169385   4.331   3.052  15.502
15990TIP3    H269386   4.430   2.938  15.520
15991TIP3   OH269387   0.089   0.467   1.098
15991TIP3    H169388   0.032   0.509   1.034
15991TIP3    H269389   0.173   0.457   1.052
15992TIP3   OH269390   1.139   4.173   5.571
15992TIP3    H169391   1.095   4.247   5.530
15992TIP3    H269392   1.074   4.136   5.630
15993TIP3   OH269393   6.116   1.355   3.550
15993TIP3    H169394   6.167   1.330   3.473
15993TIP3    H269395   6.182   1.376   3.616
15994TIP3   OH269396   0.401   4.277   1.597
15994TIP3    H169397   0.446   4.220   1.660
15994TIP3    H269398   0.407   4.229   1.514
15995TIP3   OH269399   6.151   5.693  13.551
15995TIP3    H169400   6.205   5.719  13.625
15995TIP3    H269401   6.065   5.675  13.589
15996TIP3   OH269402   6.005   2.953  12.707
15996TIP3    H169403   5.992   3.041  12.742
15996TIP3    H269404   6.093   2.955  12.669
15997TIP3   OH269405   4.771   0.111  13.297
15997TIP3    H169406   4.711   0.104  13.371
15997TIP3    H269407   4.854   0.137  13.335
15998TIP3   OH269408   6.700   6.754   1.004
15998TIP3    H169409   6.762   6.694   1.044
15998TIP3    H269410   6.614   6.717   1.024
15999TIP3   OH269411   4.372   4.193   5.777
15999TIP3    H169412   4.319   4.213   5.854
15999TIP3    H269413   4.392   4.278   5.739
16000TIP3   OH269414   4.115   6.236   3.484
16000TIP3    H169415   4.099   6.144   3.505
16000TIP3    H269416   4.207   6.239   3.459
16001TIP3   OH269417   5.668   5.775  14.728
16001TIP3    H169418   5.743   5.735  14.773
16001TIP3    H269419   5.697   5.785  14.637
16002TIP3   OH269420   1.618   5.280   0.213
16002TIP3    H169421   1.608   5.185   0.202
16002TIP3    H269422   1.712   5.294   0.210
16003TIP3   OH269423   4.025   4.198   2.419
16003TIP3    H169424   3.986   4.183   2.333
16003TIP3    H269425   3.955   4.237   2.471
16004TIP3   OH269426   3.952   1.625   3.954
16004TIP3    H169427   3.954   1.673   4.037
16004TIP3    H269428   3.907   1.543   3.973
16005TIP3   OH269429   3.112   1.439  14.473
16005TIP3    H169430   3.168   1.513  14.495
16005TIP3    H269431   3.070   1.464  14.391
16006TIP3   OH269432   1.761   0.580   4.970
16006TIP3    H169433   1.843   0.563   4.923
16006TIP3    H269434   1.764   0.674   4.990
16007TIP3   OH269435   1.207   3.775   2.361
16007TIP3    H169436   1.188   3.681   2.367
16007TIP3    H269437   1.301   3.782   2.375
16008TIP3   OH269438   1.831   1.541  16.220
16008TIP3    H169439   1.885   1.521  16.297
16008TIP3    H269440   1.894   1.561  16.152
16009TIP3   OH269441   2.456   0.177   2.919
16009TIP3    H169442   2.394   0.165   2.847
16009TIP3    H269443   2.446   0.269   2.944
16010TIP3   OH269444   5.395   5.596  16.347
16010TIP3    H169445   5.315   5.596  16.400
16010TIP3    H269446   5.393   5.511  16.302
16011TIP3   OH269447   5.644   0.729   3.060
16011TIP3    H169448   5.723   0.736   3.113
16011TIP3    H269449   5.649   0.642   3.020
16012TIP3   OH269450   1.097   4.875   4.990
16012TIP3    H169451   1.129   4.950   4.941
16012TIP3    H269452   1.031   4.910   5.050
16013TIP3   OH269453   5.423   6.300  14.172
16013TIP3    H169454   5.452   6.211  14.192
16013TIP3    H269455   5.493   6.336  14.118
16014TIP3   OH269456   4.803   5.809   0.032
16014TIP3    H169457   4.813   5.745   0.103
16014TIP3    H269458   4.858   5.776  -0.039
16015TIP3   OH269459   4.577   3.951   0.977
16015TIP3    H169460   4.510   3.889   0.949
16015TIP3    H269461   4.643   3.898   1.022
16016TIP3   OH269462   3.687   2.820  10.980
16016TIP3    H169463   3.708   2.734  10.942
16016TIP3    H269464   3.616   2.854  10.925
16017TIP3   OH269465   6.578   3.330  16.466
16017TIP3    H169466   6.635   3.399  16.499
16017TIP3    H269467   6.500   3.334  16.521
16018TIP3   OH269468   5.293   3.374  14.344
16018TIP3    H169469   5.295   3.439  14.274
16018TIP3    H269470   5.383   3.370  14.376
16019TIP3   OH269471   1.497   0.130  15.808
16019TIP3    H169472   1.520   0.100  15.896
16019TIP3    H269473   1.403   0.144  15.811
16020TIP3   OH269474   0.555   0.172   0.923
16020TIP3    H169475   0.636   0.126   0.944
16020TIP3    H269476   0.485   0.113   0.950
16021TIP3   OH269477   2.314   5.123   1.827
16021TIP3    H169478   2.313   5.206   1.874
16021TIP3    H269479   2.324   5.057   1.896
16022TIP3   OH269480   0.730   6.039  11.270
16022TIP3    H169481   0.753   6.132  11.269
16022TIP3    H269482   0.815   5.994  11.270
16023TIP3   OH269483   6.483   2.371  16.831
16023TIP3    H169484   6.390   2.367  16.851
16023TIP3    H269485   6.494   2.451  16.780
16024TIP3   OH269486   3.859   5.072  13.279
16024TIP3    H169487   3.800   5.123  13.335
16024TIP3    H269488   3.849   4.982  13.310
16025TIP3   OH269489   4.556   0.027  10.456
16025TIP3    H169490   4.496   0.038  10.530
16025TIP3    H269491   4.632  -0.017  10.493
16026TIP3   OH269492   4.367   4.592   2.218
16026TIP3    H169493   4.455   4.563   2.242
16026TIP3    H269494   4.378   4.683   2.188
16027TIP3   OH269495   1.974   3.861  15.300
16027TIP3    H169496   1.998   3.905  15.218
16027TIP3    H269497   1.883   3.833  15.286
16028TIP3   OH269498   0.026   0.298  13.307
16028TIP3    H169499   0.002   0.239  13.236
16028TIP3    H269500  -0.055   0.341  13.332
16029TIP3   OH269501   2.692   0.232   6.416
16029TIP3    H169502   2.783   0.238   6.386
16029TIP3    H269503   2.640   0.227   6.335
16030TIP3   OH269504   1.982   5.628   2.126
16030TIP3    H169505   2.017   5.568   2.191
16030TIP3    H269506   1.989   5.715   2.166
16031TIP3   OH269507   6.694   2.783  16.143
16031TIP3    H169508   6.676   2.690  16.146
16031TIP3    H269509   6.787   2.789  16.122
16032TIP3   OH269510   1.956   6.047   5.876
16032TIP3    H169511   1.954   6.071   5.968
16032TIP3    H269512   2.041   6.006   5.864
16033TIP3   OH269513   5.838   0.201   1.416
16033TIP3    H169514   5.795   0.220   1.333
16033TIP3    H269515   5.766   0.182   1.476
16034TIP3   OH269516   0.489   3.705   0.693
16034TIP3    H169517   0.583   3.727   0.694
16034TIP3    H269518   0.449   3.775   0.641
16035TIP3   OH269519   2.051   0.408   2.154
16035TIP3    H169520   2.097   0.380   2.233
16035TIP3    H269521   2.016   0.327   2.117
16036TIP3   OH269522   0.859   1.412  16.198
16036TIP3    H169523   0.832   1.321  16.192
16036TIP3    H269524   0.804   1.458  16.134
16037TIP3   OH269525   3.704   5.636  11.149
16037TIP3    H169526   3.675   5.603  11.064
16037TIP3    H269527   3.624   5.656  11.196
16038TIP3   OH269528   4.147   3.587  13.820
16038TIP3    H169529   4.215   3.555  13.760
16038TIP3    H269530   4.193   3.602  13.902
16039TIP3   OH269531   0.719   0.363   1.824
16039TIP3    H169532   0.676   0.330   1.745
16039TIP3    H269533   0.694   0.455   1.829
16040TIP3   OH269534   3.779   0.121  12.073
16040TIP3    H169535   3.796   0.106  11.980
16040TIP3    H269536   3.857   0.087  12.117
16041TIP3   OH269537   5.294   3.285   4.747
16041TIP3    H169538   5.303   3.307   4.839
16041TIP3    H269539   5.383   3.275   4.715
16042TIP3   OH269540   1.743   2.868   2.086
16042TIP3    H169541   1.658   2.838   2.119
16042TIP3    H269542   1.747   2.960   2.110
16043TIP3   OH269543   4.193   1.546  13.046
16043TIP3    H169544   4.148   1.467  13.015
16043TIP3    H269545   4.227   1.587  12.966
16044TIP3   OH269546   0.614   1.317  15.248
16044TIP3    H169547   0.613   1.225  15.276
16044TIP3    H269548   0.588   1.314  15.155
16045TIP3   OH269549   5.203   4.975   2.470
16045TIP3    H169550   5.256   5.005   2.397
16045TIP3    H269551   5.123   5.027   2.467
16046TIP3   OH269552   0.605   3.559   6.287
16046TIP3    H169553   0.620   3.477   6.239
16046TIP3    H269554   0.540   3.535   6.354
16047TIP3   OH269555   3.723   0.015  16.127
16047TIP3    H169556   3.658  -0.049  16.156
16047TIP3    H269557   3.738  -0.006  16.035
16048TIP3   OH269558   0.888   3.798  16.593
16048TIP3    H169559   0.894   3.859  16.667
16048TIP3    H269560   0.961   3.821  16.536
16049TIP3   OH269561   6.316   5.852   3.394
16049TIP3    H169562   6.268   5.875   3.473
16049TIP3    H269563   6.348   5.936   3.360
16050TIP3   OH269564   3.822   2.025   1.087
16050TIP3    H169565   3.805   2.025   1.182
16050TIP3    H269566   3.885   1.954   1.074
16051TIP3   OH269567   2.562   2.508   4.830
16051TIP3    H169568   2.639   2.492   4.776
16051TIP3    H269569   2.581   2.588   4.877
16052TIP3   OH269570   5.324   5.754  16.678
16052TIP3    H169571   5.256   5.716  16.624
16052TIP3    H269572   5.405   5.737  16.630
16053TIP3   OH269573   1.938   6.191   1.817
16053TIP3    H169574   1.848   6.162   1.832
16053TIP3    H269575   1.937   6.285   1.836
16054TIP3   OH269576   0.298   6.260  17.228
16054TIP3    H169577   0.269   6.350  17.242
16054TIP3    H269578   0.222   6.207  17.249
16055TIP3   OH269579   2.062   5.398   4.825
16055TIP3    H169580   1.974   5.373   4.796
16055TIP3    H269581   2.047   5.474   4.882
16056TIP3   OH269582   4.519   5.263  15.235
16056TIP3    H169583   4.560   5.349  15.222
16056TIP3    H269584   4.518   5.251  15.329
16057TIP3   OH269585   5.853   3.493  10.725
16057TIP3    H169586   5.920   3.558  10.746
16057TIP3    H269587   5.799   3.534  10.657
16058TIP3   OH269588   4.080   0.451  12.189
16058TIP3    H169589   4.148   0.386  12.210
16058TIP3    H269590   4.088   0.464  12.095
16059TIP3   OH269591   1.451   5.016   2.211
16059TIP3    H169592   1.385   4.948   2.195
16059TIP3    H269593   1.464   5.057   2.126
16060TIP3   OH269594   0.225   1.057   2.193
16060TIP3    H169595   0.158   1.075   2.127
16060TIP3    H269596   0.300   1.110   2.167
16061TIP3   OH269597   3.953   5.557   5.703
16061TIP3    H169598   4.004   5.498   5.759
16061TIP3    H269599   3.891   5.500   5.657
16062TIP3   OH269600   4.607   1.555  12.477
16062TIP3    H169601   4.702   1.549  12.481
16062TIP3    H269602   4.580   1.483  12.421
16063TIP3   OH269603   1.991   5.659   2.852
16063TIP3    H169604   1.983   5.635   2.760
16063TIP3    H269605   2.057   5.599   2.887
16064TIP3   OH269606   2.327   1.861  15.562
16064TIP3    H169607   2.276   1.834  15.639
16064TIP3    H269608   2.314   1.956  15.557
16065TIP3   OH269609   5.641   3.528   1.196
16065TIP3    H169610   5.729   3.553   1.165
16065TIP3    H269611   5.633   3.436   1.174
16066TIP3   OH269612   0.364   2.768  17.086
16066TIP3    H169613   0.371   2.811  17.171
16066TIP3    H269614   0.438   2.707  17.083
16067TIP3   OH269615   0.186   2.377   5.126
16067TIP3    H169616   0.258   2.334   5.171
16067TIP3    H269617   0.220   2.464   5.103
16068TIP3   OH269618   0.042   1.503  16.226
16068TIP3    H169619   0.018   1.484  16.136
16068TIP3    H269620  -0.040   1.533  16.267
16069TIP3   OH269621   6.591   2.972  17.100
16069TIP3    H169622   6.685   2.964  17.087
16069TIP3    H269623   6.558   2.883  17.088
16070TIP3   OH269624   2.671   5.451  14.615
16070TIP3    H169625   2.660   5.522  14.552
16070TIP3    H269626   2.759   5.418  14.599
16071TIP3   OH269627   1.179   0.175  16.367
16071TIP3    H169628   1.218   0.121  16.435
16071TIP3    H269629   1.086   0.153  16.369
16072TIP3   OH269630   4.121   0.701  16.241
16072TIP3    H169631   4.102   0.633  16.306
16072TIP3    H269632   4.180   0.660  16.179
16073TIP3   OH269633   2.343   0.553   0.752
16073TIP3    H169634   2.275   0.485   0.751
16073TIP3    H269635   2.362   0.569   0.659
16074TIP3   OH269636   4.833   0.394  15.874
16074TIP3    H169637   4.790   0.414  15.958
16074TIP3    H269638   4.764   0.357  15.820
16075TIP3   OH269639   6.634   0.853  13.048
16075TIP3    H169640   6.572   0.866  12.976
16075TIP3    H269641   6.663   0.941  13.071
16076TIP3   OH269642   0.754   5.088  13.855
16076TIP3    H169643   0.755   5.012  13.913
16076TIP3    H269644   0.746   5.163  13.914
16077TIP3   OH269645   1.174   1.954  17.201
16077TIP3    H169646   1.213   1.894  17.138
16077TIP3    H269647   1.111   2.005  17.150
16078TIP3   OH269648   2.045   6.755   2.565
16078TIP3    H169649   1.968   6.794   2.605
16078TIP3    H269650   2.087   6.706   2.636
16079TIP3   OH269651   5.604   4.964   3.824
16079TIP3    H169652   5.624   4.923   3.908
16079TIP3    H269653   5.687   5.003   3.796
16080TIP3   OH269654   2.393   0.595  15.521
16080TIP3    H169655   2.460   0.528  15.506
16080TIP3    H269656   2.326   0.551  15.573
16081TIP3   OH269657   3.982   0.148  14.465
16081TIP3    H169658   3.992   0.055  14.443
16081TIP3    H269659   3.892   0.169  14.438
16082TIP3   OH269660   2.223   6.440   1.948
16082TIP3    H169661   2.240   6.439   2.042
16082TIP3    H269662   2.266   6.360   1.916
16083TIP3   OH269663   2.149   4.302   1.068
16083TIP3    H169664   2.237   4.265   1.055
16083TIP3    H269665   2.115   4.256   1.144
16084TIP3   OH269666   3.825   1.931  16.899
16084TIP3    H169667   3.866   2.003  16.947
16084TIP3    H269668   3.837   1.854  16.955
16085TIP3   OH269669   4.142   1.346   3.643
16085TIP3    H169670   4.113   1.296   3.720
16085TIP3    H269671   4.109   1.434   3.657
16086TIP3   OH269672   1.242   3.503  13.677
16086TIP3    H169673   1.197   3.559  13.740
16086TIP3    H269674   1.273   3.429  13.729
16087TIP3   OH269675   0.916   4.774   3.312
16087TIP3    H169676   0.835   4.825   3.306
16087TIP3    H269677   0.982   4.838   3.338
16088TIP3   OH269678   1.598   6.368  10.408
16088TIP3    H169679   1.637   6.289  10.446
16088TIP3    H269680   1.515   6.378  10.456
16089TIP3   OH269681   1.323   3.785  15.076
16089TIP3    H169682   1.292   3.794  15.166
16089TIP3    H269683   1.394   3.721  15.081
16090TIP3   OH269684   3.896   6.287  15.397
16090TIP3    H169685   3.914   6.331  15.481
16090TIP3    H269686   3.982   6.264  15.363
16091TIP3   OH269687   1.901   0.069   4.491
16091TIP3    H169688   1.872  -0.019   4.515
16091TIP3    H269689   1.846   0.093   4.416
16092TIP3   OH269690   3.091   1.612  11.035
16092TIP3    H169691   3.167   1.639  11.087
16092TIP3    H269692   3.016   1.637  11.089
16093TIP3   OH269693   0.406   3.075  14.401
16093TIP3    H169694   0.447   3.130  14.334
16093TIP3    H269695   0.479   3.034  14.447
16094TIP3   OH269696   2.291   5.032   2.883
16094TIP3    H169697   2.331   5.049   2.797
16094TIP3    H269698   2.295   4.937   2.892
16095TIP3   OH269699   2.567   5.697  11.233
16095TIP3    H169700   2.584   5.721  11.142
16095TIP3    H269701   2.482   5.653  11.231
16096TIP3   OH269702   6.649   0.328  14.408
16096TIP3    H169703   6.699   0.268  14.352
16096TIP3    H269704   6.683   0.312  14.496
16097TIP3   OH269705   5.206   4.413   0.014
16097TIP3    H169706   5.159   4.484  -0.029
16097TIP3    H269707   5.253   4.369  -0.057
16098TIP3   OH269708   3.589   4.378  13.264
16098TIP3    H169709   3.497   4.352  13.266
16098TIP3    H269710   3.610   4.401  13.354
16099TIP3   OH269711   5.095   2.045   5.031
16099TIP3    H169712   5.155   2.105   5.075
16099TIP3    H269713   5.133   1.958   5.047
16100TIP3   OH269714   5.517   1.426   4.768
16100TIP3    H169715   5.532   1.352   4.709
16100TIP3    H269716   5.550   1.502   4.721
16101TIP3   OH269717   2.418   4.997   3.396
16101TIP3    H169718   2.503   5.042   3.398
16101TIP3    H269719   2.370   5.039   3.325
16102TIP3   OH269720   0.558   5.846   0.722
16102TIP3    H169721   0.589   5.821   0.635
16102TIP3    H269722   0.529   5.763   0.762
16103TIP3   OH269723   1.412   3.831  16.220
16103TIP3    H169724   1.493   3.866  16.257
16103TIP3    H269725   1.429   3.829  16.125
16104TIP3   OH269726   6.195   2.287  15.697
16104TIP3    H169727   6.252   2.325  15.763
16104TIP3    H269728   6.255   2.244  15.636
16105TIP3   OH269729   0.504   0.884  16.701
16105TIP3    H169730   0.581   0.896  16.645
16105TIP3    H269731   0.536   0.832  16.774
16106TIP3   OH269732   3.262   0.706   5.352
16106TIP3    H169733   3.278   0.714   5.257
16106TIP3    H269734   3.168   0.722   5.362
16107TIP3   OH269735   1.822   5.418  13.659
16107TIP3    H169736   1.845   5.460  13.576
16107TIP3    H269737   1.779   5.488  13.710
16108TIP3   OH269738   3.757   2.116   3.202
16108TIP3    H169739   3.744   2.031   3.161
16108TIP3    H269740   3.796   2.096   3.287
16109TIP3   OH269741   2.357   5.578  12.102
16109TIP3    H169742   2.395   5.574  12.190
16109TIP3    H269743   2.420   5.629  12.051
16110TIP3   OH269744   5.578   4.550  16.537
16110TIP3    H169745   5.612   4.607  16.468
16110TIP3    H269746   5.643   4.556  16.607
16111TIP3   OH269747   5.845   3.751  17.108
16111TIP3    H169748   5.939   3.739  17.095
16111TIP3    H269749   5.805   3.705  17.034
16112TIP3   OH269750   4.575   5.044  14.954
16112TIP3    H169751   4.514   5.117  14.948
16112TIP3    H269752   4.630   5.064  15.030
16113TIP3   OH269753   0.445   2.392  16.870
16113TIP3    H169754   0.483   2.466  16.823
16113TIP3    H269755   0.506   2.375  16.942
16114TIP3   OH269756   5.734   6.053  15.425
16114TIP3    H169757   5.772   5.993  15.361
16114TIP3    H269758   5.774   6.026  15.508
16115TIP3   OH269759   0.566   0.405   1.555
16115TIP3    H169760   0.493   0.461   1.530
16115TIP3    H269761   0.643   0.447   1.516
16116TIP3   OH269762   3.891   5.744  11.577
16116TIP3    H169763   3.807   5.766  11.536
16116TIP3    H269764   3.879   5.765  11.669
16117TIP3   OH269765   6.674   2.555  11.472
16117TIP3    H169766   6.619   2.539  11.396
16117TIP3    H269767   6.661   2.648  11.492
16118TIP3   OH269768   0.509   4.200  14.082
16118TIP3    H169769   0.563   4.213  14.160
16118TIP3    H269770   0.456   4.279  14.075
16119TIP3   OH269771   4.637   1.376   2.043
16119TIP3    H169772   4.603   1.363   1.954
16119TIP3    H269773   4.704   1.308   2.053
16120TIP3   OH269774   2.200   6.191   2.262
16120TIP3    H169775   2.152   6.274   2.259
16120TIP3    H269776   2.147   6.131   2.210
16121TIP3   OH269777   6.722   2.638  15.632
16121TIP3    H169778   6.683   2.723  15.613
16121TIP3    H269779   6.807   2.641  15.588
16122TIP3   OH269780   0.214   5.780   4.355
16122TIP3    H169781   0.230   5.694   4.316
16122TIP3    H269782   0.294   5.829   4.338
16123TIP3   OH269783   5.878   0.352   1.829
16123TIP3    H169784   5.947   0.315   1.884
16123TIP3    H269785   5.801   0.298   1.846
16124TIP3   OH269786   0.876   3.818  15.527
16124TIP3    H169787   0.792   3.863  15.530
16124TIP3    H269788   0.935   3.873  15.578
16125TIP3   OH269789   3.447   4.929  10.805
16125TIP3    H169790   3.459   4.953  10.713
16125TIP3    H269791   3.536   4.912  10.837
16126TIP3   OH269792   5.955   5.991  15.654
16126TIP3    H169793   5.987   6.064  15.708
16126TIP3    H269794   5.922   5.928  15.718
16127TIP3   OH269795   3.258   6.694  16.293
16127TIP3    H169796   3.228   6.693  16.202
16127TIP3    H269797   3.178   6.709  16.345
16128TIP3   OH269798   4.678   2.074   5.773
16128TIP3    H169799   4.702   2.161   5.741
16128TIP3    H269800   4.751   2.048   5.829
16129TIP3   OH269801   6.677   6.361   4.964
16129TIP3    H169802   6.724   6.277   4.975
16129TIP3    H269803   6.585   6.336   4.958
16130TIP3   OH269804   1.342   5.573   0.446
16130TIP3    H169805   1.254   5.535   0.450
16130TIP3    H269806   1.354   5.594   0.353
16131TIP3   OH269807   1.660   0.000  13.882
16131TIP3    H169808   1.702  -0.078  13.847
16131TIP3    H269809   1.621   0.043  13.805
16132TIP3   OH269810   5.202   2.375   3.543
16132TIP3    H169811   5.181   2.348   3.633
16132TIP3    H269812   5.231   2.294   3.501
16133TIP3   OH269813   3.558   0.168  13.223
16133TIP3    H169814   3.531   0.179  13.132
16133TIP3    H269815   3.477   0.158  13.272
16134TIP3   OH269816   3.868   0.942  13.666
16134TIP3    H169817   3.811   0.878  13.622
16134TIP3    H269818   3.831   0.949  13.754
16135TIP3   OH269819   5.422   3.380   5.718
16135TIP3    H169820   5.496   3.439   5.699
16135TIP3    H269821   5.463   3.299   5.748
16136TIP3   OH269822   0.304   4.168  12.002
16136TIP3    H169823   0.225   4.207  12.040
16136TIP3    H269824   0.361   4.151  12.077
16137TIP3   OH269825   4.414   1.330   1.265
16137TIP3    H169826   4.494   1.319   1.214
16137TIP3    H269827   4.393   1.241   1.295
16138TIP3   OH269828   3.109   0.424   0.896
16138TIP3    H169829   3.157   0.407   0.815
16138TIP3    H269830   3.033   0.475   0.868
16139TIP3   OH269831   2.111   0.636   1.772
16139TIP3    H169832   2.075   0.564   1.720
16139TIP3    H269833   2.115   0.601   1.861
16140TIP3   OH269834   6.715   4.603   4.949
16140TIP3    H169835   6.661   4.567   5.020
16140TIP3    H269836   6.684   4.693   4.939
16141TIP3   OH269837   4.459   6.320  16.037
16141TIP3    H169838   4.532   6.306  16.097
16141TIP3    H269839   4.416   6.399  16.068
16142TIP3   OH269840   3.601   0.517  13.002
16142TIP3    H169841   3.677   0.475  12.962
16142TIP3    H269842   3.634   0.556  13.083
16143TIP3   OH269843   4.587   4.208   0.917
16143TIP3    H169844   4.677   4.229   0.941
16143TIP3    H269845   4.574   4.118   0.947
16144TIP3   OH269846   6.255   4.598  11.362
16144TIP3    H169847   6.333   4.551  11.331
16144TIP3    H269848   6.264   4.686  11.327
16145TIP3   OH269849   4.048   1.625   0.021
16145TIP3    H169850   4.076   1.577   0.098
16145TIP3    H269851   4.009   1.560  -0.036
16146TIP3   OH269852   0.824   1.422   0.559
16146TIP3    H169853   0.822   1.331   0.588
16146TIP3    H269854   0.858   1.471   0.634
16147TIP3   OH269855   3.416   1.679  16.535
16147TIP3    H169856   3.371   1.615  16.480
16147TIP3    H269857   3.346   1.737  16.566
16148TIP3   OH269858   3.966   1.697  13.659
16148TIP3    H169859   3.947   1.697  13.753
16148TIP3    H269860   3.881   1.706  13.617
16149TIP3   OH269861   4.592   5.268  13.730
16149TIP3    H169862   4.583   5.221  13.647
16149TIP3    H269863   4.661   5.332  13.715
16150TIP3   OH269864   0.579   0.831  14.465
16150TIP3    H169865   0.596   0.924  14.452
16150TIP3    H269866   0.535   0.802  14.385
16151TIP3   OH269867   3.607   4.641   1.397
16151TIP3    H169868   3.691   4.601   1.416
16151TIP3    H269869   3.542   4.577   1.428
16152TIP3   OH269870   2.992   3.609   2.517
16152TIP3    H169871   3.037   3.657   2.448
16152TIP3    H269872   2.950   3.535   2.471
16153TIP3   OH269873   0.341   3.865  10.888
16153TIP3    H169874   0.385   3.950  10.881
16153TIP3    H269875   0.401   3.804  10.845
16154TIP3   OH269876   3.460   2.624   4.238
16154TIP3    H169877   3.409   2.632   4.319
16154TIP3    H269878   3.400   2.653   4.169
16155TIP3   OH269879   5.332   3.672   6.063
16155TIP3    H169880   5.272   3.606   6.099
16155TIP3    H269881   5.411   3.623   6.041
16156TIP3   OH269882   6.285   6.187   0.643
16156TIP3    H169883   6.275   6.273   0.602
16156TIP3    H269884   6.225   6.189   0.717
16157TIP3   OH269885   1.902   1.060  12.180
16157TIP3    H169886   1.946   1.135  12.139
16157TIP3    H269887   1.853   1.098  12.253
16158TIP3   OH269888   6.306   3.263   5.851
16158TIP3    H169889   6.305   3.178   5.895
16158TIP3    H269890   6.228   3.261   5.795
16159TIP3   OH269891   1.227   4.101   1.489
16159TIP3    H169892   1.263   4.021   1.527
16159TIP3    H269893   1.273   4.172   1.535
16160TIP3   OH269894   0.302   6.578  12.641
16160TIP3    H169895   0.288   6.589  12.735
16160TIP3    H269896   0.227   6.526  12.612
16161TIP3   OH269897   2.908   6.640   0.336
16161TIP3    H169898   2.841   6.702   0.305
16161TIP3    H269899   2.897   6.563   0.280
16162TIP3   OH269900   0.923   5.194  13.158
16162TIP3    H169901   0.894   5.252  13.228
16162TIP3    H269902   0.860   5.207  13.087
16163TIP3   OH269903   1.934   6.096  12.452
16163TIP3    H169904   1.877   6.161  12.411
16163TIP3    H269905   1.981   6.056  12.379
16164TIP3   OH269906   0.987   5.403   1.623
16164TIP3    H169907   1.027   5.389   1.537
16164TIP3    H269908   0.935   5.483   1.613
16165TIP3   OH269909   3.635   3.809   1.673
16165TIP3    H169910   3.631   3.796   1.767
16165TIP3    H269911   3.572   3.746   1.638
16166TIP3   OH269912   4.555   0.761  14.920
16166TIP3    H169913   4.557   0.751  14.825
16166TIP3    H269914   4.464   0.784  14.940
16167TIP3   OH269915   2.234   3.013  16.273
16167TIP3    H169916   2.214   3.042  16.184
16167TIP3    H269917   2.175   2.939  16.287
16168TIP3   OH269918   4.921   0.158  12.178
16168TIP3    H169919   4.908   0.233  12.235
16168TIP3    H269920   4.973   0.192  12.105
16169TIP3   OH269921   5.793   0.930   2.356
16169TIP3    H169922   5.778   1.024   2.342
16169TIP3    H269923   5.740   0.887   2.289
16170TIP3   OH269924   5.204   4.404  15.069
16170TIP3    H169925   5.117   4.366  15.059
16170TIP3    H269926   5.264   4.330  15.066
16171TIP3   OH269927   5.241   1.408   0.635
16171TIP3    H169928   5.302   1.457   0.579
16171TIP3    H269929   5.167   1.468   0.646
16172TIP3   OH269930   1.461   4.248  12.230
16172TIP3    H169931   1.501   4.165  12.205
16172TIP3    H269932   1.412   4.276  12.153
16173TIP3   OH269933   4.630   1.912   0.505
16173TIP3    H169934   4.606   1.994   0.462
16173TIP3    H269935   4.558   1.853   0.487
16174TIP3   OH269936   2.161   0.727   5.447
16174TIP3    H169937   2.240   0.779   5.457
16174TIP3    H269938   2.117   0.733   5.532
16175TIP3   OH269939   1.393   3.660  12.886
16175TIP3    H169940   1.395   3.565  12.901
16175TIP3    H269941   1.407   3.699  12.972
16176TIP3   OH269942   2.444   4.714   3.342
16176TIP3    H169943   2.357   4.698   3.305
16176TIP3    H269944   2.441   4.805   3.372
16177TIP3   OH269945   6.554   2.923   2.519
16177TIP3    H169946   6.495   2.982   2.567
16177TIP3    H269947   6.615   2.892   2.586
16178TIP3   OH269948   6.472   2.651   1.648
16178TIP3    H169949   6.385   2.623   1.678
16178TIP3    H269950   6.463   2.659   1.553
16179TIP3   OH269951   0.597   6.384  14.353
16179TIP3    H169952   0.501   6.380  14.356
16179TIP3    H269953   0.622   6.417  14.439
16180TIP3   OH269954   2.438   0.988   2.222
16180TIP3    H169955   2.450   0.939   2.140
16180TIP3    H269956   2.343   0.987   2.236
16181TIP3   OH269957   3.550   1.662  14.451
16181TIP3    H169958   3.635   1.673  14.494
16181TIP3    H269959   3.560   1.582  14.399
16182TIP3   OH269960   5.952   3.913  11.492
16182TIP3    H169961   6.003   3.858  11.551
16182TIP3    H269962   6.007   3.923  11.415
16183TIP3   OH269963   2.397   2.232  15.790
16183TIP3    H169964   2.388   2.160  15.852
16183TIP3    H269965   2.355   2.307  15.834
16184TIP3   OH269966   4.618   4.478  11.721
16184TIP3    H169967   4.550   4.439  11.776
16184TIP3    H269968   4.694   4.485  11.779
16185TIP3   OH269969   6.019   2.998   2.388
16185TIP3    H169970   5.937   2.950   2.401
16185TIP3    H269971   6.074   2.939   2.335
16186TIP3   OH269972   4.160   1.019  14.588
16186TIP3    H169973   4.254   1.003  14.595
16186TIP3    H269974   4.120   0.959  14.650
16187TIP3   OH269975   2.529   6.715   2.975
16187TIP3    H169976   2.486   6.788   2.931
16187TIP3    H269977   2.552   6.655   2.905
16188TIP3   OH269978   0.318   3.200  10.818
16188TIP3    H169979   0.286   3.115  10.790
16188TIP3    H269980   0.255   3.262  10.781
16189TIP3   OH269981   2.376   3.344  14.964
16189TIP3    H169982   2.351   3.388  14.883
16189TIP3    H269983   2.296   3.297  14.991
16190TIP3   OH269984   0.516   5.291  16.153
16190TIP3    H169985   0.432   5.292  16.199
16190TIP3    H269986   0.558   5.209  16.180
16191TIP3   OH269987   5.332   1.727   4.494
16191TIP3    H169988   5.265   1.794   4.498
16191TIP3    H269989   5.355   1.710   4.586
16192TIP3   OH269990   3.530   2.228  11.795
16192TIP3    H169991   3.510   2.248  11.887
16192TIP3    H269992   3.449   2.248  11.748
16193TIP3   OH269993   1.218   6.496  15.114
16193TIP3    H169994   1.259   6.581  15.130
16193TIP3    H269995   1.271   6.435  15.165
16194TIP3   OH269996   3.473   6.323  17.078
16194TIP3    H169997   3.555   6.292  17.037
16194TIP3    H269998   3.406   6.264  17.045
16195TIP3   OH269999   5.842   3.416  12.432
16195TIP3    H170000   5.822   3.509  12.440
16195TIP3    H270001   5.771   3.372  12.480
16196TIP3   OH270002   0.004   3.401  14.708
16196TIP3    H170003   0.099   3.405  14.715
16196TIP3    H270004  -0.025   3.492  14.714
16197TIP3   OH270005   1.998   4.772  13.672
16197TIP3    H170006   1.951   4.824  13.607
16197TIP3    H270007   2.066   4.831  13.705
16198TIP3   OH270008   6.037   0.774   1.278
16198TIP3    H170009   6.093   0.819   1.341
16198TIP3    H270010   5.967   0.735   1.330
16199TIP3   OH270011   4.632   4.262  16.301
16199TIP3    H170012   4.539   4.255  16.280
16199TIP3    H270013   4.649   4.188  16.361
16200TIP3   OH270014   0.233   5.729   1.529
16200TIP3    H170015   0.182   5.780   1.467
16200TIP3    H270016   0.170   5.697   1.593
16201TIP3   OH270017   5.988   3.959   4.499
16201TIP3    H170018   5.945   4.026   4.552
16201TIP3    H270019   5.950   3.877   4.529
16202TIP3   OH270020   2.798   6.643  16.571
16202TIP3    H170021   2.765   6.576  16.631
16202TIP3    H270022   2.726   6.659  16.510
16203TIP3   OH270023   6.209   4.814  15.896
16203TIP3    H170024   6.231   4.742  15.838
16203TIP3    H270025   6.265   4.801  15.973
16204TIP3   OH270026   2.349   2.786   6.518
16204TIP3    H170027   2.340   2.835   6.436
16204TIP3    H270028   2.434   2.812   6.553
16205TIP3   OH270029   5.552   6.253   0.571
16205TIP3    H170030   5.546   6.172   0.622
16205TIP3    H270031   5.525   6.322   0.632
16206TIP3   OH270032   4.386   1.239   0.940
16206TIP3    H170033   4.319   1.179   0.972
16206TIP3    H270034   4.469   1.200   0.967
16207TIP3   OH270035   5.582   2.474  14.097
16207TIP3    H170036   5.615   2.386  14.111
16207TIP3    H270037   5.635   2.529  14.156
16208TIP3   OH270038   3.761   6.497  12.793
16208TIP3    H170039   3.734   6.406  12.782
16208TIP3    H270040   3.774   6.529  12.704
16209TIP3   OH270041   1.012   0.884  16.241
16209TIP3    H170042   1.055   0.928  16.314
16209TIP3    H270043   1.081   0.832  16.201
16210TIP3   OH270044   2.346   1.416   1.442
16210TIP3    H170045   2.358   1.502   1.483
16210TIP3    H270046   2.271   1.378   1.488
16211TIP3   OH270047   6.445   4.046  11.714
16211TIP3    H170048   6.438   3.953  11.690
16211TIP3    H270049   6.517   4.079  11.660
16212TIP3   OH270050   5.865   5.751  15.811
16212TIP3    H170051   5.814   5.709  15.741
16212TIP3    H270052   5.800   5.778  15.875
16213TIP3   OH270053   5.018   3.720  15.708
16213TIP3    H170054   4.976   3.646  15.663
16213TIP3    H270055   5.111   3.710  15.687
16214TIP3   OH270056   6.575   2.341   1.511
16214TIP3    H170057   6.544   2.387   1.590
16214TIP3    H270058   6.506   2.355   1.447
16215TIP3   OH270059   4.468   0.146  13.311
16215TIP3    H170060   4.390   0.114  13.355
16215TIP3    H270061   4.435   0.204  13.242
16216TIP3   OH270062   2.561   5.115   0.885
16216TIP3    H170063   2.631   5.085   0.825
16216TIP3    H270064   2.565   5.054   0.958
16217TIP3   OH270065   6.073   3.549  13.078
16217TIP3    H170066   6.063   3.478  13.141
16217TIP3    H270067   6.155   3.591  13.102
16218TIP3   OH270068   6.771   1.176   4.378
16218TIP3    H170069   6.837   1.109   4.359
16218TIP3    H270070   6.752   1.165   4.471
16219TIP3   OH270071   4.311   3.355   0.647
16219TIP3    H170072   4.378   3.413   0.684
16219TIP3    H270073   4.353   3.314   0.572
16220TIP3   OH270074   3.565   0.888  14.326
16220TIP3    H170075   3.624   0.903  14.253
16220TIP3    H270076   3.508   0.817  14.298
16221TIP3   OH270077   3.784   3.320   5.486
16221TIP3    H170078   3.807   3.231   5.515
16221TIP3    H270079   3.849   3.376   5.527
16222TIP3   OH270080   6.158   6.663  16.253
16222TIP3    H170081   6.217   6.592  16.279
16222TIP3    H270082   6.070   6.627  16.265
16223TIP3   OH270083   6.399   6.141   3.769
16223TIP3    H170084   6.435   6.054   3.782
16223TIP3    H270085   6.311   6.126   3.732
16224TIP3   OH270086   6.689   1.967  13.594
16224TIP3    H170087   6.682   1.952  13.500
16224TIP3    H270088   6.599   1.982  13.623
16225TIP3   OH270089   6.098   3.198  14.310
16225TIP3    H170090   6.025   3.137  14.311
16225TIP3    H270091   6.157   3.163  14.243
16226TIP3   OH270092   3.269   2.265   6.274
16226TIP3    H170093   3.333   2.335   6.287
16226TIP3    H270094   3.292   2.199   6.340
16227TIP3   OH270095   1.990   6.225   4.352
16227TIP3    H170096   1.955   6.245   4.265
16227TIP3    H270097   2.053   6.295   4.369
16228TIP3   OH270098   3.998   0.345   3.018
16228TIP3    H170099   4.082   0.332   2.974
16228TIP3    H270100   3.946   0.269   2.993
16229TIP3   OH270101   0.454   6.307   2.031
16229TIP3    H170102   0.408   6.346   1.956
16229TIP3    H270103   0.468   6.216   2.006
16230TIP3   OH270104   6.363   2.159   2.617
16230TIP3    H170105   6.305   2.234   2.633
16230TIP3    H270106   6.450   2.191   2.641
16231TIP3   OH270107   6.550   6.508   3.338
16231TIP3    H170108   6.457   6.487   3.341
16231TIP3    H270109   6.553   6.600   3.312
16232TIP3   OH270110   3.628   2.013   3.550
16232TIP3    H170111   3.608   1.920   3.535
16232TIP3    H270112   3.592   2.058   3.474
16233TIP3   OH270113   6.096   2.477   4.413
16233TIP3    H170114   6.093   2.405   4.349
16233TIP3    H270115   6.117   2.554   4.361
16234TIP3   OH270116   1.905   4.947  13.438
16234TIP3    H170117   1.936   5.023  13.487
16234TIP3    H270118   1.985   4.909  13.400
16235TIP3   OH270119   2.298   2.475  13.027
16235TIP3    H170120   2.364   2.538  13.056
16235TIP3    H270121   2.245   2.457  13.105
16236TIP3   OH270122   3.952   2.414  12.170
16236TIP3    H170123   3.870   2.419  12.120
16236TIP3    H270124   3.930   2.364  12.248
16237TIP3   OH270125   3.142   0.267  11.727
16237TIP3    H170126   3.063   0.267  11.673
16237TIP3    H270127   3.126   0.333  11.793
16238TIP3   OH270128   5.907   1.349  12.983
16238TIP3    H170129   5.854   1.306  13.049
16238TIP3    H270130   5.910   1.286  12.910
16239TIP3   OH270131   0.769   3.837   0.666
16239TIP3    H170132   0.783   3.910   0.606
16239TIP3    H270133   0.855   3.821   0.706
16240TIP3   OH270134   5.026   2.566  12.441
16240TIP3    H170135   5.110   2.558  12.396
16240TIP3    H270136   5.011   2.660  12.448
16241TIP3   OH270137   1.208   4.302   5.101
16241TIP3    H170138   1.153   4.229   5.072
16241TIP3    H270139   1.157   4.347   5.168
16242TIP3   OH270140   2.317   0.464   3.965
16242TIP3    H170141   2.305   0.534   4.030
16242TIP3    H270142   2.231   0.454   3.925
16243TIP3   OH270143   0.272   4.990  12.768
16243TIP3    H170144   0.342   5.039  12.724
16243TIP3    H270145   0.279   5.017  12.860
16244TIP3   OH270146   6.726   4.476   4.341
16244TIP3    H170147   6.685   4.528   4.272
16244TIP3    H270148   6.656   4.462   4.405
16245TIP3   OH270149   3.085   2.633  13.592
16245TIP3    H170150   3.023   2.706  13.604
16245TIP3    H270151   3.033   2.565  13.550
16246TIP3   OH270152   1.571   4.192   1.791
16246TIP3    H170153   1.569   4.185   1.695
16246TIP3    H270154   1.585   4.286   1.807
16247TIP3   OH270155   1.641   3.483   1.265
16247TIP3    H170156   1.638   3.544   1.340
16247TIP3    H270157   1.670   3.400   1.303
16248TIP3   OH270158   5.695   2.650   4.450
16248TIP3    H170159   5.694   2.698   4.533
16248TIP3    H270160   5.757   2.579   4.463
16249TIP3   OH270161   5.351   3.820  16.194
16249TIP3    H170162   5.374   3.727  16.198
16249TIP3    H270163   5.255   3.820  16.186
16250TIP3   OH270164   1.087   6.438   1.453
16250TIP3    H170165   1.111   6.348   1.428
16250TIP3    H270166   1.125   6.449   1.540
16251TIP3   OH270167   6.387   2.647   5.788
16251TIP3    H170168   6.317   2.596   5.829
16251TIP3    H270169   6.348   2.732   5.771
16252TIP3   OH270170   1.036   1.094   5.102
16252TIP3    H170171   0.998   1.072   5.017
16252TIP3    H270172   1.125   1.060   5.098
16253TIP3   OH270173   4.426   5.541  13.485
16253TIP3    H170174   4.508   5.490  13.477
16253TIP3    H270175   4.395   5.549  13.395
16254TIP3   OH270176   4.179   0.534  10.528
16254TIP3    H170177   4.237   0.458  10.528
16254TIP3    H270178   4.144   0.536  10.438
16255TIP3   OH270179   4.069   2.933   4.498
16255TIP3    H170180   4.054   2.922   4.592
16255TIP3    H270181   3.981   2.936   4.460
16256TIP3   OH270182   6.453   3.719  13.977
16256TIP3    H170183   6.379   3.738  13.919
16256TIP3    H270184   6.527   3.765  13.938
16257TIP3   OH270185   3.389   1.201  16.312
16257TIP3    H170186   3.313   1.177  16.365
16257TIP3    H270187   3.414   1.120  16.268
16258TIP3   OH270188   2.737   5.459  16.388
16258TIP3    H170189   2.655   5.484  16.346
16258TIP3    H270190   2.745   5.365  16.373
16259TIP3   OH270191   5.136   4.638  14.118
16259TIP3    H170192   5.040   4.632  14.115
16259TIP3    H270193   5.154   4.732  14.110
16260TIP3   OH270194   3.166   4.206   5.764
16260TIP3    H170195   3.246   4.163   5.795
16260TIP3    H270196   3.182   4.299   5.776
16261TIP3   OH270197   5.074   1.548  11.939
16261TIP3    H170198   5.166   1.557  11.916
16261TIP3    H270199   5.037   1.636  11.926
16262TIP3   OH270200   4.792   3.401   3.258
16262TIP3    H170201   4.882   3.396   3.225
16262TIP3    H270202   4.751   3.471   3.207
16263TIP3   OH270203   5.036   0.059  16.489
16263TIP3    H170204   4.984   0.138  16.508
16263TIP3    H270205   4.988  -0.012  16.532
16264TIP3   OH270206   3.983   3.511   2.826
16264TIP3    H170207   3.933   3.592   2.822
16264TIP3    H270208   4.028   3.506   2.742
16265TIP3   OH270209   5.116   2.092   2.775
16265TIP3    H170210   5.030   2.071   2.811
16265TIP3    H270211   5.130   2.184   2.795
16266TIP3   OH270212   0.139   3.539  16.835
16266TIP3    H170213   0.078   3.486  16.886
16266TIP3    H270214   0.225   3.516  16.870
16267TIP3   OH270215   6.736   5.472  12.379
16267TIP3    H170216   6.764   5.416  12.306
16267TIP3    H270217   6.812   5.527  12.397
16268TIP3   OH270218   2.755   6.459  16.759
16268TIP3    H170219   2.711   6.374  16.764
16268TIP3    H270220   2.800   6.468  16.843
16269TIP3   OH270221   0.336   4.582   3.848
16269TIP3    H170222   0.305   4.632   3.772
16269TIP3    H270223   0.373   4.648   3.907
16270TIP3   OH270224   6.741   0.765   2.569
16270TIP3    H170225   6.758   0.727   2.483
16270TIP3    H270226   6.655   0.807   2.560
16271TIP3   OH270227   5.520   1.094   0.068
16271TIP3    H170228   5.556   1.074  -0.018
16271TIP3    H270229   5.588   1.067   0.130
16272TIP3   OH270230   5.688   2.274   0.183
16272TIP3    H170231   5.695   2.180   0.170
16272TIP3    H270232   5.616   2.302   0.126
16273TIP3   OH270233   1.928   0.292   1.119
16273TIP3    H170234   1.984   0.255   1.188
16273TIP3    H270235   1.842   0.255   1.136
16274TIP3   OH270236   0.566   6.044  11.550
16274TIP3    H170237   0.650   5.997  11.548
16274TIP3    H270238   0.553   6.066  11.642
16275TIP3   OH270239   4.236   2.025  12.421
16275TIP3    H170240   4.164   2.088  12.426
16275TIP3    H270241   4.240   2.001  12.329
16276TIP3   OH270242   2.253   2.393   0.934
16276TIP3    H170243   2.226   2.304   0.913
16276TIP3    H270244   2.175   2.435   0.972
16277TIP3   OH270245   1.599   4.314  16.731
16277TIP3    H170246   1.621   4.355  16.815
16277TIP3    H270247   1.627   4.378  16.665
16278TIP3   OH270248   6.124   0.300  13.219
16278TIP3    H170249   6.156   0.211  13.224
16278TIP3    H270250   6.033   0.295  13.250
16279TIP3   OH270251   6.535   2.512   0.791
16279TIP3    H170252   6.450   2.548   0.819
16279TIP3    H270253   6.599   2.573   0.827
16280TIP3   OH270254   3.949   4.015  16.132
16280TIP3    H170255   4.018   4.046  16.074
16280TIP3    H270256   3.876   3.994  16.073
16281TIP3   OH270257   4.916   0.321  14.145
16281TIP3    H170258   4.920   0.258  14.074
16281TIP3    H270259   4.858   0.280  14.210
16282TIP3   OH270260   0.339   4.003   4.425
16282TIP3    H170261   0.270   4.047   4.376
16282TIP3    H270262   0.293   3.957   4.495
16283TIP3   OH270263   2.988   4.481  16.210
16283TIP3    H170264   3.018   4.463  16.299
16283TIP3    H270265   2.942   4.565  16.216
16284TIP3   OH270266   4.725   4.173  13.354
16284TIP3    H170267   4.718   4.166  13.259
16284TIP3    H270268   4.647   4.221  13.381
16285TIP3   OH270269   5.342   1.537   1.075
16285TIP3    H170270   5.399   1.497   1.141
16285TIP3    H270271   5.254   1.509   1.099
16286TIP3   OH270272   3.590   3.489  14.429
16286TIP3    H170273   3.614   3.408  14.474
16286TIP3    H270274   3.523   3.463  14.366
16287TIP3   OH270275   2.712   5.391   0.999
16287TIP3    H170276   2.770   5.349   1.063
16287TIP3    H270277   2.651   5.442   1.052
16288TIP3   OH270278   3.689   0.066  15.597
16288TIP3    H170279   3.687   0.149  15.644
16288TIP3    H270280   3.701   0.090  15.505
16289TIP3   OH270281   1.644   4.498   2.115
16289TIP3    H170282   1.579   4.472   2.180
16289TIP3    H270283   1.637   4.593   2.111
16290TIP3   OH270284   4.287   3.787  16.376
16290TIP3    H170285   4.337   3.852  16.327
16290TIP3    H270286   4.196   3.802  16.350
16291TIP3   OH270287   0.297   1.438  15.409
16291TIP3    H170288   0.319   1.479  15.326
16291TIP3    H270289   0.242   1.502  15.454
16292TIP3   OH270290   1.990   3.753   2.573
16292TIP3    H170291   1.949   3.776   2.490
16292TIP3    H270292   2.015   3.837   2.612
16293TIP3   OH270293   2.245   2.482  15.916
16293TIP3    H170294   2.216   2.552  15.974
16293TIP3    H270295   2.213   2.401  15.958
16294TIP3   OH270296   0.269   4.878   4.204
16294TIP3    H170297   0.196   4.906   4.149
16294TIP3    H270298   0.251   4.786   4.223
16295TIP3   OH270299   5.424   2.338  14.464
16295TIP3    H170300   5.506   2.294  14.487
16295TIP3    H270301   5.373   2.272  14.416
16296TIP3   OH270302   1.675   5.958  14.298
16296TIP3    H170303   1.750   5.905  14.270
16296TIP3    H270304   1.628   5.978  14.217
16297TIP3   OH270305   3.546   2.741   3.953
16297TIP3    H170306   3.526   2.681   3.881
16297TIP3    H270307   3.611   2.694   4.006
16298TIP3   OH270308   0.541   5.278  11.487
16298TIP3    H170309   0.602   5.351  11.491
16298TIP3    H270310   0.577   5.214  11.549
16299TIP3   OH270311   2.456   6.172  13.410
16299TIP3    H170312   2.384   6.135  13.461
16299TIP3    H270313   2.421   6.253  13.373
16300TIP3   OH270314   5.624   0.100   3.572
16300TIP3    H170315   5.695   0.050   3.612
16300TIP3    H270316   5.546   0.047   3.585
16301TIP3   OH270317   0.863   0.262  11.730
16301TIP3    H170318   0.951   0.300  11.725
16301TIP3    H270319   0.877   0.167  11.723
16302TIP3   OH270320   3.789   3.547   6.972
16302TIP3    H170321   3.713   3.555   6.914
16302TIP3    H270322   3.832   3.633   6.966
16303TIP3   OH270323   4.628   4.483   6.082
16303TIP3    H170324   4.630   4.432   6.162
16303TIP3    H270325   4.680   4.433   6.019
16304TIP3   OH270326   0.272   5.407   1.736
16304TIP3    H170327   0.245   5.337   1.676
16304TIP3    H270328   0.212   5.479   1.717
16305TIP3   OH270329   0.928   3.893  13.949
16305TIP3    H170330   0.854   3.833  13.934
16305TIP3    H270331   0.902   3.944  14.026
16306TIP3   OH270332   4.849   6.419   4.213
16306TIP3    H170333   4.864   6.348   4.150
16306TIP3    H270334   4.890   6.496   4.174
16307TIP3   OH270335   1.318   2.028  15.270
16307TIP3    H170336   1.326   1.933  15.278
16307TIP3    H270337   1.369   2.050  15.192
16308TIP3   OH270338   0.864   2.519  12.476
16308TIP3    H170339   0.787   2.469  12.450
16308TIP3    H270340   0.847   2.543  12.567
16309TIP3   OH270341   5.830   4.978   5.386
16309TIP3    H170342   5.813   5.072   5.384
16309TIP3    H270343   5.920   4.969   5.355
16310TIP3   OH270344   4.385   4.655   5.506
16310TIP3    H170345   4.376   4.641   5.412
16310TIP3    H270346   4.371   4.568   5.544
16311TIP3   OH270347   5.414   3.231   6.066
16311TIP3    H170348   5.353   3.257   6.136
16311TIP3    H270349   5.483   3.298   6.070
16312TIP3   OH270350   6.289   3.648  15.806
16312TIP3    H170351   6.207   3.696  15.817
16312TIP3    H270352   6.271   3.562  15.844
16313TIP3   OH270353   3.120   5.942   0.534
16313TIP3    H170354   3.160   5.998   0.467
16313TIP3    H270355   3.032   5.925   0.501
16314TIP3   OH270356   6.124   1.850  11.482
16314TIP3    H170357   6.212   1.882  11.461
16314TIP3    H270358   6.127   1.828  11.575
16315TIP3   OH270359   4.312   5.987  13.584
16315TIP3    H170360   4.335   6.074  13.618
16315TIP3    H270361   4.321   5.995  13.489
16316TIP3   OH270362   2.149   0.282  13.339
16316TIP3    H170363   2.211   0.355  13.336
16316TIP3    H270364   2.183   0.219  13.276
16317TIP3   OH270365   0.025   2.873  14.779
16317TIP3    H170366  -0.071   2.876  14.779
16317TIP3    H270367   0.049   2.880  14.872
16318TIP3   OH270368   3.173   6.087   6.219
16318TIP3    H170369   3.217   6.033   6.284
16318TIP3    H270370   3.085   6.101   6.255
16319TIP3   OH270371   6.224   4.272   0.056
16319TIP3    H170372   6.201   4.206  -0.009
16319TIP3    H270373   6.237   4.352   0.005
16320TIP3   OH270374   1.994   6.082   3.638
16320TIP3    H170375   1.910   6.074   3.593
16320TIP3    H270376   1.973   6.131   3.718
16321TIP3   OH270377   1.345   3.963   3.286
16321TIP3    H170378   1.276   3.967   3.219
16321TIP3    H270379   1.413   4.022   3.254
16322TIP3   OH270380   5.909   5.284  15.890
16322TIP3    H170381   5.814   5.282  15.902
16322TIP3    H270382   5.937   5.366  15.929
16323TIP3   OH270383   1.263   5.524   1.116
16323TIP3    H170384   1.317   5.570   1.180
16323TIP3    H270385   1.303   5.437   1.109
16324TIP3   OH270386   1.525   1.720   1.901
16324TIP3    H170387   1.480   1.772   1.835
16324TIP3    H270388   1.490   1.751   1.985
16325TIP3   OH270389   5.777   5.695  11.197
16325TIP3    H170390   5.761   5.706  11.291
16325TIP3    H270391   5.787   5.785  11.165
16326TIP3   OH270392   6.720   6.653   0.511
16326TIP3    H170393   6.637   6.606   0.518
16326TIP3    H270394   6.763   6.614   0.436
16327TIP3   OH270395   3.182   2.666  12.562
16327TIP3    H170396   3.090   2.669  12.538
16327TIP3    H270397   3.214   2.754  12.545
16328TIP3   OH270398   5.982   2.336   0.469
16328TIP3    H170399   5.894   2.325   0.503
16328TIP3    H270400   5.970   2.361   0.377
16329TIP3   OH270401   0.247   3.729  13.849
16329TIP3    H170402   0.323   3.744  13.905
16329TIP3    H270403   0.190   3.804  13.866
16330TIP3   OH270404   5.827   4.673   5.647
16330TIP3    H170405   5.777   4.598   5.680
16330TIP3    H270406   5.853   4.647   5.559
16331TIP3   OH270407   6.223   5.398   2.363
16331TIP3    H170408   6.214   5.303   2.359
16331TIP3    H270409   6.217   5.419   2.457
16332TIP3   OH270410   6.684   5.396   1.152
16332TIP3    H170411   6.640   5.480   1.168
16332TIP3    H270412   6.717   5.370   1.238
16333TIP3   OH270413   0.701   4.182  14.505
16333TIP3    H170414   0.762   4.117  14.539
16333TIP3    H270415   0.633   4.131  14.461
16334TIP3   OH270416   5.635   5.677  11.958
16334TIP3    H170417   5.640   5.680  11.863
16334TIP3    H270418   5.703   5.738  11.988
16335TIP3   OH270419   5.152   4.537   1.228
16335TIP3    H170420   5.217   4.580   1.173
16335TIP3    H270421   5.073   4.533   1.173
16336TIP3   OH270422   1.896   1.551  15.058
16336TIP3    H170423   1.829   1.482  15.058
16336TIP3    H270424   1.901   1.580  15.149
16337TIP3   OH270425   2.919   4.822   1.305
16337TIP3    H170426   2.832   4.815   1.344
16337TIP3    H270427   2.965   4.743   1.334
16338TIP3   OH270428   4.175   4.484   1.946
16338TIP3    H170429   4.251   4.492   2.004
16338TIP3    H270430   4.195   4.411   1.888
16339TIP3   OH270431   5.201   4.286   4.903
16339TIP3    H170432   5.135   4.355   4.911
16339TIP3    H270433   5.174   4.237   4.825
16340TIP3   OH270434   5.783   2.207  16.545
16340TIP3    H170435   5.731   2.129  16.524
16340TIP3    H270436   5.846   2.214  16.473
16341TIP3   OH270437   1.999   6.704  16.812
16341TIP3    H170438   1.982   6.625  16.863
16341TIP3    H270439   1.941   6.696  16.736
16342TIP3   OH270440   1.448   0.949  12.415
16342TIP3    H170441   1.497   0.974  12.493
16342TIP3    H270442   1.409   1.030  12.383
16343TIP3   OH270443   1.774   3.153  15.861
16343TIP3    H170444   1.841   3.216  15.835
16343TIP3    H270445   1.693   3.204  15.864
16344TIP3   OH270446   1.936   6.456   2.599
16344TIP3    H170447   1.950   6.526   2.663
16344TIP3    H270448   1.854   6.480   2.556
16345TIP3   OH270449   1.129   2.046   4.445
16345TIP3    H170450   1.119   2.055   4.350
16345TIP3    H270451   1.083   1.964   4.466
16346TIP3   OH270452   6.287   2.012  14.362
16346TIP3    H170453   6.233   2.074  14.411
16346TIP3    H270454   6.368   2.060  14.344
16347TIP3   OH270455   3.047   1.548   6.097
16347TIP3    H170456   2.979   1.597   6.143
16347TIP3    H270457   3.093   1.499   6.165
16348TIP3   OH270458   0.781   3.747  16.058
16348TIP3    H170459   0.703   3.777  16.011
16348TIP3    H270460   0.853   3.760  15.996
16349TIP3   OH270461   3.403   2.369   6.823
16349TIP3    H170462   3.401   2.417   6.906
16349TIP3    H270463   3.423   2.435   6.757
16350TIP3   OH270464   2.261   4.052   3.695
16350TIP3    H170465   2.304   4.122   3.646
16350TIP3    H270466   2.226   4.095   3.773
16351TIP3   OH270467   2.675   0.896  12.997
16351TIP3    H170468   2.633   0.952  13.061
16351TIP3    H270469   2.603   0.844  12.959
16352TIP3   OH270470   2.393   1.525  10.785
16352TIP3    H170471   2.333   1.465  10.741
16352TIP3    H270472   2.337   1.596  10.816
16353TIP3   OH270473   3.570   3.615   0.382
16353TIP3    H170474   3.596   3.707   0.389
16353TIP3    H270475   3.620   3.582   0.307
16354TIP3   OH270476   1.801   5.023   4.507
16354TIP3    H170477   1.800   5.014   4.412
16354TIP3    H270478   1.725   5.077   4.527
16355TIP3   OH270479   1.974   1.120  16.045
16355TIP3    H170480   2.041   1.182  16.017
16355TIP3    H270481   1.898   1.142  15.990
16356TIP3   OH270482   1.509   3.275   5.225
16356TIP3    H170483   1.429   3.226   5.245
16356TIP3    H270484   1.546   3.296   5.311
16357TIP3   OH270485   1.053   6.550   4.968
16357TIP3    H170486   1.146   6.533   4.984
16357TIP3    H270487   1.009   6.519   5.047
16358TIP3   OH270488   1.125   6.687   0.189
16358TIP3    H170489   1.115   6.699   0.095
16358TIP3    H270490   1.049   6.731   0.227
16359TIP3   OH270491   2.198   3.583   3.537
16359TIP3    H170492   2.159   3.542   3.615
16359TIP3    H270493   2.263   3.643   3.572
16360TIP3   OH270494   6.533   0.966   5.754
16360TIP3    H170495   6.461   0.964   5.692
16360TIP3    H270496   6.498   0.928   5.834
16361TIP3   OH270497   3.515   1.581  11.963
16361TIP3    H170498   3.525   1.517  12.034
16361TIP3    H270499   3.422   1.575  11.939
16362TIP3   OH270500   1.603   5.059   3.872
16362TIP3    H170501   1.530   5.120   3.869
16362TIP3    H270502   1.564   4.973   3.859
16363TIP3   OH270503   5.165   4.417  11.539
16363TIP3    H170504   5.074   4.438  11.522
16363TIP3    H270505   5.186   4.464  11.619
16364TIP3   OH270506   1.420   5.667   2.588
16364TIP3    H170507   1.349   5.626   2.636
16364TIP3    H270508   1.420   5.625   2.503
16365TIP3   OH270509   6.642   5.805  15.682
16365TIP3    H170510   6.661   5.789  15.774
16365TIP3    H270511   6.596   5.889  15.681
16366TIP3   OH270512   2.181   2.779   3.356
16366TIP3    H170513   2.108   2.819   3.310
16366TIP3    H270514   2.176   2.686   3.333
16367TIP3   OH270515   1.659   4.037   2.668
16367TIP3    H170516   1.702   4.032   2.754
16367TIP3    H270517   1.626   4.127   2.664
16368TIP3   OH270518   0.898   0.173  13.243
16368TIP3    H170519   0.851   0.236  13.297
16368TIP3    H270520   0.947   0.227  13.181
16369TIP3   OH270521   5.912   3.974  15.618
16369TIP3    H170522   5.918   3.991  15.524
16369TIP3    H270523   6.002   3.980  15.650
16370TIP3   OH270524   3.004   4.328  14.001
16370TIP3    H170525   3.034   4.412  13.968
16370TIP3    H270526   2.968   4.284  13.923
16371TIP3   OH270527   0.708   4.362  16.530
16371TIP3    H170528   0.665   4.433  16.483
16371TIP3    H270529   0.692   4.285  16.475
16372TIP3   OH270530   2.060   0.475  11.821
16372TIP3    H170531   2.055   0.405  11.887
16372TIP3    H270532   2.132   0.531  11.850
16373TIP3   OH270533   1.053   5.019  13.643
16373TIP3    H170534   1.132   5.041  13.594
16373TIP3    H270535   0.981   5.049  13.588
16374TIP3   OH270536   2.819   3.168  14.879
16374TIP3    H170537   2.886   3.123  14.827
16374TIP3    H270538   2.748   3.186  14.817
16375TIP3   OH270539   1.793   1.184  13.235
16375TIP3    H170540   1.725   1.251  13.238
16375TIP3    H270541   1.874   1.230  13.259
16376TIP3   OH270542   4.159   0.299  10.750
16376TIP3    H170543   4.207   0.310  10.668
16376TIP3    H270544   4.069   0.284  10.723
16377TIP3   OH270545   6.739   1.946   4.454
16377TIP3    H170546   6.716   2.009   4.386
16377TIP3    H270547   6.799   1.885   4.411
16378TIP3   OH270548   4.594   1.221  16.461
16378TIP3    H170549   4.571   1.262  16.378
16378TIP3    H270550   4.683   1.187  16.447
16379TIP3   OH270551   6.358   2.902  15.478
16379TIP3    H170552   6.346   2.997  15.490
16379TIP3    H270553   6.333   2.886  15.387
16380TIP3   OH270554   4.224   6.109   2.512
16380TIP3    H170555   4.166   6.149   2.576
16380TIP3    H270556   4.198   6.147   2.428
16381TIP3   OH270557   2.025   2.821   0.302
16381TIP3    H170558   1.938   2.830   0.339
16381TIP3    H270559   2.066   2.906   0.316
16382TIP3   OH270560   0.217   3.650  13.576
16382TIP3    H170561   0.234   3.641  13.670
16382TIP3    H270562   0.158   3.725  13.570
16383TIP3   OH270563   3.110   6.409  13.048
16383TIP3    H170564   3.089   6.336  12.990
16383TIP3    H270565   3.205   6.404  13.059
16384TIP3   OH270566   3.090   5.969   4.179
16384TIP3    H170567   3.175   5.955   4.219
16384TIP3    H270568   3.046   6.031   4.238
16385TIP3   OH270569   2.332   4.889  12.499
16385TIP3    H170570   2.238   4.890  12.484
16385TIP3    H270571   2.348   4.805  12.543
16386TIP3   OH270572   5.586   3.352  16.778
16386TIP3    H170573   5.525   3.343  16.851
16386TIP3    H270574   5.634   3.433  16.798
16387TIP3   OH270575   5.516   3.700  14.841
16387TIP3    H170576   5.452   3.771  14.838
16387TIP3    H270577   5.485   3.637  14.775
16388TIP3   OH270578   5.243   4.773  16.010
16388TIP3    H170579   5.228   4.716  16.085
16388TIP3    H270580   5.161   4.821  15.999
16389TIP3   OH270581   3.204   6.721   0.230
16389TIP3    H170582   3.114   6.722   0.263
16389TIP3    H270583   3.209   6.796   0.172
16390TIP3   OH270584   6.360   2.028   5.322
16390TIP3    H170585   6.293   1.961   5.309
16390TIP3    H270586   6.313   2.111   5.321
16391TIP3   OH270587   5.998   0.630  15.981
16391TIP3    H170588   5.971   0.699  15.920
16391TIP3    H270589   6.093   0.640  15.987
16392TIP3   OH270590   6.256   2.011  14.863
16392TIP3    H170591   6.289   1.968  14.784
16392TIP3    H270592   6.276   1.949  14.933
16393TIP3   OH270593   2.992   3.581   1.472
16393TIP3    H170594   3.025   3.670   1.460
16393TIP3    H270595   2.984   3.571   1.567
16394TIP3   OH270596   4.476   6.293  15.455
16394TIP3    H170597   4.560   6.318  15.494
16394TIP3    H270598   4.430   6.375  15.444
16395TIP3   OH270599   2.139   5.429  17.140
16395TIP3    H170600   2.182   5.491  17.082
16395TIP3    H270601   2.046   5.452  17.136
16396TIP3   OH270602   5.062   5.777   1.240
16396TIP3    H170603   5.102   5.690   1.242
16396TIP3    H270604   5.127   5.835   1.279
16397TIP3   OH270605   5.323   0.029  16.549
16397TIP3    H170606   5.383  -0.007  16.484
16397TIP3    H270607   5.236   0.014  16.513
16398TIP3   OH270608   0.926   3.805   3.372
16398TIP3    H170609   0.905   3.892   3.407
16398TIP3    H270610   0.958   3.823   3.284
16399TIP3   OH270611   5.427   3.945   0.198
16399TIP3    H170612   5.473   4.013   0.150
16399TIP3    H270613   5.348   3.989   0.231
16400TIP3   OH270614   1.923   0.426   5.231
16400TIP3    H170615   1.976   0.375   5.170
16400TIP3    H270616   1.909   0.367   5.305
16401TIP3   OH270617   4.185   3.617  15.946
16401TIP3    H170618   4.107   3.666  15.922
16401TIP3    H270619   4.169   3.588  16.036
16402TIP3   OH270620   2.842   1.230   5.330
16402TIP3    H170621   2.818   1.294   5.264
16402TIP3    H270622   2.761   1.214   5.379
16403TIP3   OH270623   1.757   4.443  16.252
16403TIP3    H170624   1.698   4.379  16.213
16403TIP3    H270625   1.842   4.428  16.209
16404TIP3   OH270626   2.923   2.859  13.630
16404TIP3    H170627   2.856   2.830  13.692
16404TIP3    H270628   2.978   2.919  13.680
16405TIP3   OH270629   4.478   2.786  15.177
16405TIP3    H170630   4.547   2.851  15.161
16405TIP3    H270631   4.525   2.710  15.212
16406TIP3   OH270632   5.637   1.261   1.171
16406TIP3    H170633   5.670   1.253   1.081
16406TIP3    H270634   5.709   1.302   1.219
16407TIP3   OH270635   6.421   1.013  13.303
16407TIP3    H170636   6.500   1.047  13.261
16407TIP3    H270637   6.387   0.947  13.242
16408TIP3   OH270638   0.207   0.564  13.263
16408TIP3    H170639   0.209   0.558  13.358
16408TIP3    H270640   0.118   0.539  13.239
16409TIP3   OH270641   3.126   5.467  16.882
16409TIP3    H170642   3.180   5.478  16.961
16409TIP3    H270643   3.067   5.394  16.903
16410TIP3   OH270644   1.703   2.229  10.850
16410TIP3    H170645   1.683   2.316  10.815
16410TIP3    H270646   1.755   2.187  10.782
16411TIP3   OH270647   4.937   4.879   0.003
16411TIP3    H170648   4.973   4.905  -0.082
16411TIP3    H270649   4.847   4.910   0.001
16412TIP3   OH270650   3.368   3.785   5.510
16412TIP3    H170651   3.361   3.794   5.605
16412TIP3    H270652   3.395   3.694   5.496
16413TIP3   OH270653   1.078   6.411   5.428
16413TIP3    H170654   1.081   6.475   5.357
16413TIP3    H270655   1.011   6.443   5.487
16414TIP3   OH270656   4.605   4.970  11.886
16414TIP3    H170657   4.562   4.885  11.882
16414TIP3    H270658   4.666   4.970  11.812
16415TIP3   OH270659   2.120   1.187  14.882
16415TIP3    H170660   2.053   1.124  14.909
16415TIP3    H270661   2.071   1.269  14.869
16416TIP3   OH270662   2.736   4.268  12.215
16416TIP3    H170663   2.665   4.249  12.276
16416TIP3    H270664   2.751   4.185  12.170
16417TIP3   OH270665   2.526   1.320  16.502
16417TIP3    H170666   2.492   1.372  16.574
16417TIP3    H270667   2.452   1.310  16.442
16418TIP3   OH270668   5.879   4.127  10.680
16418TIP3    H170669   5.832   4.192  10.732
16418TIP3    H270670   5.819   4.105  10.609
16419TIP3   OH270671   4.621   4.157  14.571
16419TIP3    H170672   4.678   4.081  14.582
16419TIP3    H270673   4.601   4.185  14.661
16420TIP3   OH270674   6.064   5.548  15.351
16420TIP3    H170675   6.002   5.529  15.422
16420TIP3    H270676   6.150   5.535  15.390
16421TIP3   OH270677   2.730   5.565  11.576
16421TIP3    H170678   2.755   5.529  11.490
16421TIP3    H270679   2.638   5.540  11.586
16422TIP3   OH270680   1.092   1.800  12.970
16422TIP3    H170681   1.002   1.802  13.001
16422TIP3    H270682   1.094   1.728  12.906
16423TIP3   OH270683   1.256   4.295   4.815
16423TIP3    H170684   1.171   4.335   4.835
16423TIP3    H270685   1.307   4.304   4.895
16424TIP3   OH270686   3.011   4.610  15.425
16424TIP3    H170687   2.957   4.608  15.504
16424TIP3    H270688   3.082   4.548  15.442
16425TIP3   OH270689   1.075   6.174   1.005
16425TIP3    H170690   1.030   6.236   1.062
16425TIP3    H270691   1.017   6.165   0.930
16426TIP3   OH270692   4.739   3.100   4.082
16426TIP3    H170693   4.727   3.110   4.176
16426TIP3    H270694   4.805   3.166   4.058
16427TIP3   OH270695   2.233   4.178   4.936
16427TIP3    H170696   2.161   4.238   4.957
16427TIP3    H270697   2.226   4.109   5.001
16428TIP3   OH270698   4.655   3.068  11.653
16428TIP3    H170699   4.721   3.019  11.604
16428TIP3    H270700   4.691   3.157  11.659
16429TIP3   OH270701   1.865   1.542   3.796
16429TIP3    H170702   1.938   1.496   3.756
16429TIP3    H270703   1.836   1.485   3.867
16430TIP3   OH270704   0.066   1.924   3.216
16430TIP3    H170705   0.042   1.831   3.216
16430TIP3    H270706   0.025   1.959   3.137
16431TIP3   OH270707   4.187   2.475   6.111
16431TIP3    H170708   4.119   2.411   6.131
16431TIP3    H270709   4.261   2.450   6.165
16432TIP3   OH270710   1.401   4.337  11.596
16432TIP3    H170711   1.437   4.250  11.578
16432TIP3    H270712   1.476   4.396  11.584
16433TIP3   OH270713   1.412   6.400  15.535
16433TIP3    H170714   1.400   6.495  15.537
16433TIP3    H270715   1.506   6.388  15.524
16434TIP3   OH270716   1.490   3.437  11.234
16434TIP3    H170717   1.445   3.519  11.255
16434TIP3    H270718   1.575   3.444  11.277
16435TIP3   OH270719   4.994   3.823   6.656
16435TIP3    H170720   4.942   3.743   6.661
16435TIP3    H270721   4.944   3.888   6.705
16436TIP3   OH270722   5.301   5.741  15.576
16436TIP3    H170723   5.337   5.803  15.640
16436TIP3    H270724   5.377   5.715  15.524
16437TIP3   OH270725   0.151   3.687   4.428
16437TIP3    H170726   0.063   3.678   4.392
16437TIP3    H270727   0.146   3.765   4.484
16438TIP3   OH270728   4.144   2.031   4.081
16438TIP3    H170729   4.157   1.946   4.124
16438TIP3    H270730   4.232   2.061   4.060
16439TIP3   OH270731   2.705   5.211  10.571
16439TIP3    H170732   2.798   5.227  10.586
16439TIP3    H270733   2.678   5.154  10.642
16440TIP3   OH270734   0.858   4.777  15.429
16440TIP3    H170735   0.794   4.725  15.477
16440TIP3    H270736   0.827   4.775  15.338
16441TIP3   OH270737   4.297   1.454  11.204
16441TIP3    H170738   4.338   1.373  11.237
16441TIP3    H270739   4.277   1.435  11.112
16442TIP3   OH270740   5.771   4.696   5.118
16442TIP3    H170741   5.684   4.717   5.153
16442TIP3    H270742   5.769   4.728   5.028
16443TIP3   OH270743   2.342   5.412   0.626
16443TIP3    H170744   2.276   5.462   0.579
16443TIP3    H270745   2.322   5.321   0.607
16444TIP3   OH270746   0.797   3.324   1.914
16444TIP3    H170747   0.743   3.259   1.960
16444TIP3    H270748   0.763   3.408   1.942
16445TIP3   OH270749   5.631   2.994   3.463
16445TIP3    H170750   5.598   2.994   3.552
16445TIP3    H270751   5.658   2.904   3.447
16446TIP3   OH270752   4.474   3.756   4.621
16446TIP3    H170753   4.423   3.817   4.674
16446TIP3    H270754   4.550   3.806   4.592
16447TIP3   OH270755   4.903   1.460   2.313
16447TIP3    H170756   4.944   1.413   2.386
16447TIP3    H270757   4.955   1.436   2.237
16448TIP3   OH270758   2.372   3.043   5.078
16448TIP3    H170759   2.364   3.017   5.169
16448TIP3    H270760   2.358   3.138   5.078
16449TIP3   OH270761   3.659   1.612   6.603
16449TIP3    H170762   3.750   1.596   6.575
16449TIP3    H270763   3.662   1.695   6.650
16450TIP3   OH270764   2.578   3.208  14.384
16450TIP3    H170765   2.541   3.197  14.296
16450TIP3    H270766   2.528   3.281  14.422
16451TIP3   OH270767   1.058   2.495   5.726
16451TIP3    H170768   1.037   2.527   5.639
16451TIP3    H270769   1.093   2.571   5.772
16452TIP3   OH270770   2.906   4.713  13.766
16452TIP3    H170771   2.865   4.628  13.751
16452TIP3    H270772   2.841   4.777  13.736
16453TIP3   OH270773   5.204   6.430   2.851
16453TIP3    H170774   5.129   6.378   2.823
16453TIP3    H270775   5.280   6.381   2.818
16454TIP3   OH270776   0.054   6.014  14.350
16454TIP3    H170777   0.135   5.977  14.315
16454TIP3    H270778   0.066   6.109  14.342
16455TIP3   OH270779   4.540   2.446  12.144
16455TIP3    H170780   4.483   2.502  12.196
16455TIP3    H270781   4.627   2.458  12.182
16456TIP3   OH270782   5.855   6.319   0.697
16456TIP3    H170783   5.814   6.320   0.611
16456TIP3    H270784   5.793   6.364   0.754
16457TIP3   OH270785   1.522   3.113   2.372
16457TIP3    H170786   1.553   3.183   2.315
16457TIP3    H270787   1.594   3.049   2.373
16458TIP3   OH270788   1.896   6.550   5.909
16458TIP3    H170789   1.983   6.585   5.925
16458TIP3    H270790   1.846   6.624   5.876
16459TIP3   OH270791   0.076   3.674  13.097
16459TIP3    H170792   0.054   3.581  13.089
16459TIP3    H270793   0.159   3.683  13.052
16460TIP3   OH270794   6.022   3.139   0.513
16460TIP3    H170795   5.982   3.200   0.575
16460TIP3    H270796   6.039   3.060   0.565
16461TIP3   OH270797   6.609   1.321  15.580
16461TIP3    H170798   6.602   1.297  15.672
16461TIP3    H270799   6.568   1.407  15.574
16462TIP3   OH270800   4.908   2.105   5.351
16462TIP3    H170801   5.001   2.087   5.359
16462TIP3    H270802   4.904   2.190   5.307
16463TIP3   OH270803   6.506   6.485   2.927
16463TIP3    H170804   6.479   6.576   2.942
16463TIP3    H270805   6.424   6.439   2.907
16464TIP3   OH270806   2.750   2.517   1.379
16464TIP3    H170807   2.705   2.543   1.299
16464TIP3    H270808   2.760   2.423   1.372
16465TIP3   OH270809   3.887   0.963  12.114
16465TIP3    H170810   3.900   0.907  12.191
16465TIP3    H270811   3.975   0.987  12.086
16466TIP3   OH270812   3.652   3.861   0.410
16466TIP3    H170813   3.726   3.923   0.408
16466TIP3    H270814   3.611   3.870   0.324
16467TIP3   OH270815   1.002   2.235  16.269
16467TIP3    H170816   1.062   2.305  16.294
16467TIP3    H270817   0.955   2.214  16.349
16468TIP3   OH270818   1.009   4.174   4.610
16468TIP3    H170819   1.076   4.137   4.553
16468TIP3    H270820   1.015   4.122   4.690
16469TIP3   OH270821   2.742   5.804   4.730
16469TIP3    H170822   2.706   5.741   4.792
16469TIP3    H270823   2.708   5.888   4.759
16470TIP3   OH270824   5.373   5.947   2.644
16470TIP3    H170825   5.387   5.865   2.596
16470TIP3    H270826   5.457   5.992   2.640
16471TIP3   OH270827   3.056   6.138  14.735
16471TIP3    H170828   3.083   6.221  14.697
16471TIP3    H270829   3.061   6.152  14.830
16472TIP3   OH270830   3.134   0.687   0.389
16472TIP3    H170831   3.152   0.780   0.371
16472TIP3    H270832   3.200   0.640   0.339
16473TIP3   OH270833   4.576   5.500  17.211
16473TIP3    H170834   4.667   5.497  17.182
16473TIP3    H270835   4.582   5.523  17.304
16474TIP3   OH270836   3.582   1.805  12.790
16474TIP3    H170837   3.648   1.781  12.725
16474TIP3    H270838   3.582   1.732  12.852
16475TIP3   OH270839   1.951   2.419   4.340
16475TIP3    H170840   1.904   2.344   4.302
16475TIP3    H270841   1.911   2.495   4.297
16476TIP3   OH270842   2.509   1.978  10.408
16476TIP3    H170843   2.441   2.035  10.374
16476TIP3    H270844   2.514   1.999  10.502
16477TIP3   OH270845   4.754   4.945  12.646
16477TIP3    H170846   4.765   4.982  12.559
16477TIP3    H270847   4.748   4.851  12.632
16478TIP3   OH270848   3.073   2.434   0.865
16478TIP3    H170849   3.126   2.367   0.823
16478TIP3    H270850   2.989   2.392   0.881
16479TIP3   OH270851   1.588   2.430   1.468
16479TIP3    H170852   1.557   2.497   1.407
16479TIP3    H270853   1.587   2.349   1.416
16480TIP3   OH270854   3.169   5.662   1.595
16480TIP3    H170855   3.186   5.655   1.689
16480TIP3    H270856   3.120   5.744   1.585
16481TIP3   OH270857   5.407   4.473   0.859
16481TIP3    H170858   5.319   4.435   0.865
16481TIP3    H270859   5.425   4.479   0.765
16482TIP3   OH270860   0.922   0.815  13.780
16482TIP3    H170861   0.873   0.865  13.846
16482TIP3    H270862   1.010   0.852  13.783
16483TIP3   OH270863   6.419   3.388  13.390
16483TIP3    H170864   6.384   3.299  13.397
16483TIP3    H270865   6.513   3.375  13.380
16484TIP3   OH270866   5.096   1.630   4.118
16484TIP3    H170867   5.097   1.645   4.023
16484TIP3    H270868   5.030   1.562   4.130
16485TIP3   OH270869   1.899   1.967  13.895
16485TIP3    H170870   1.969   1.993  13.954
16485TIP3    H270871   1.819   1.980  13.946
16486TIP3   OH270872   5.308   4.414  11.822
16486TIP3    H170873   5.292   4.334  11.873
16486TIP3    H270874   5.384   4.393  11.768
16487TIP3   OH270875   5.441   2.561   3.542
16487TIP3    H170876   5.516   2.535   3.488
16487TIP3    H270877   5.382   2.486   3.540
16488TIP3   OH270878   0.314   6.252  12.996
16488TIP3    H170879   0.399   6.232  12.955
16488TIP3    H270880   0.336   6.314  13.066
16489TIP3   OH270881   0.241   5.979  12.180
16489TIP3    H170882   0.303   5.986  12.253
16489TIP3    H270883   0.296   5.975  12.102
16490TIP3   OH270884   5.427   2.024  12.316
16490TIP3    H170885   5.426   2.101  12.260
16490TIP3    H270886   5.336   1.996  12.321
16491TIP3   OH270887   1.012   5.237   4.394
16491TIP3    H170888   0.934   5.287   4.371
16491TIP3    H270889   1.075   5.303   4.424
16492TIP3   OH270890   3.130   5.968   5.099
16492TIP3    H170891   3.116   6.062   5.083
16492TIP3    H270892   3.084   5.925   5.027
16493TIP3   OH270893   0.923   2.350  12.810
16493TIP3    H170894   0.939   2.441  12.784
16493TIP3    H270895   0.827   2.343  12.815
16494TIP3   OH270896   1.413   1.545   0.739
16494TIP3    H170897   1.448   1.587   0.817
16494TIP3    H270898   1.486   1.494   0.704
16495TIP3   OH270899   3.017   3.490  15.472
16495TIP3    H170900   3.085   3.451  15.528
16495TIP3    H270901   2.935   3.470  15.516
16496TIP3   OH270902   5.245   3.964  14.463
16496TIP3    H170903   5.318   4.026  14.465
16496TIP3    H270904   5.180   4.002  14.522
16497TIP3   OH270905   4.491   3.440  15.929
16497TIP3    H170906   4.557   3.394  15.981
16497TIP3    H270907   4.508   3.533  15.944
16498TIP3   OH270908   4.362   5.048   4.956
16498TIP3    H170909   4.321   5.130   4.983
16498TIP3    H270910   4.293   4.983   4.963
16499TIP3   OH270911   3.795   2.865   1.071
16499TIP3    H170912   3.716   2.867   1.017
16499TIP3    H270913   3.865   2.892   1.012
16500TIP3   OH270914   0.082   6.703  14.350
16500TIP3    H170915   0.057   6.614  14.376
16500TIP3    H270916   0.178   6.702  14.351
16501TIP3   OH270917   5.848   0.252  13.079
16501TIP3    H170918   5.760   0.267  13.113
16501TIP3    H270919   5.869   0.162  13.103
16502TIP3   OH270920   5.832   3.686   0.465
16502TIP3    H170921   5.876   3.617   0.415
16502TIP3    H270922   5.902   3.746   0.491
16503TIP3   OH270923   4.607   6.673  13.492
16503TIP3    H170924   4.614   6.760  13.530
16503TIP3    H270925   4.602   6.614  13.567
16504TIP3   OH270926   5.296   3.079  12.349
16504TIP3    H170927   5.312   3.156  12.294
16504TIP3    H270928   5.248   3.112  12.425
16505TIP3   OH270929   2.769   2.304  12.513
16505TIP3    H170930   2.790   2.312  12.420
16505TIP3    H270931   2.683   2.263  12.515
16506TIP3   OH270932   1.975   2.208   1.872
16506TIP3    H170933   1.969   2.176   1.962
16506TIP3    H270934   2.067   2.193   1.847
16507TIP3   OH270935   6.317   1.725  16.435
16507TIP3    H170936   6.332   1.733  16.529
16507TIP3    H270937   6.360   1.802  16.397
16508TIP3   OH270938   5.057   6.413  11.204
16508TIP3    H170939   5.029   6.367  11.283
16508TIP3    H270940   4.977   6.418  11.150
16509TIP3   OH270941   2.202   0.042   2.076
16509TIP3    H170942   2.150   0.118   2.101
16509TIP3    H270943   2.256   0.073   2.003
16510TIP3   OH270944   0.865   2.079  11.443
16510TIP3    H170945   0.950   2.122  11.443
16510TIP3    H270946   0.825   2.103  11.359
16511TIP3   OH270947   2.623   0.110  11.918
16511TIP3    H170948   2.635   0.107  12.013
16511TIP3    H270949   2.712   0.108  11.883
16512TIP3   OH270950   5.020   5.924   0.989
16512TIP3    H170951   5.035   5.877   1.071
16512TIP3    H270952   5.012   5.856   0.922
16513TIP3   OH270953   0.914   0.512   3.109
16513TIP3    H170954   0.915   0.454   3.185
16513TIP3    H270955   0.824   0.508   3.076
16514TIP3   OH270956   2.313   3.872  15.170
16514TIP3    H170957   2.241   3.809  15.162
16514TIP3    H270958   2.347   3.881  15.081
16515TIP3   OH270959   5.721   6.669  16.110
16515TIP3    H170960   5.721   6.672  16.014
16515TIP3    H270961   5.641   6.715  16.135
16516TIP3   OH270962   5.970   6.733   4.497
16516TIP3    H170963   5.921   6.800   4.450
16516TIP3    H270964   6.060   6.741   4.463
16517TIP3   OH270965   5.579   6.248   4.760
16517TIP3    H170966   5.568   6.340   4.782
16517TIP3    H270967   5.506   6.227   4.702
16518TIP3   OH270968   1.045   0.092   1.114
16518TIP3    H170969   1.011   0.153   1.049
16518TIP3    H270970   1.018   0.128   1.198
16519TIP3   OH270971   1.234   2.281   4.743
16519TIP3    H170972   1.291   2.356   4.722
16519TIP3    H270973   1.145   2.317   4.738
16520TIP3   OH270974   6.631   2.377   0.541
16520TIP3    H170975   6.693   2.423   0.484
16520TIP3    H270976   6.628   2.429   0.621
16521TIP3   OH270977   1.551   5.185  14.161
16521TIP3    H170978   1.573   5.153  14.248
16521TIP3    H270979   1.605   5.133  14.102
16522TIP3   OH270980   2.175   4.663  16.057
16522TIP3    H170981   2.211   4.709  16.132
16522TIP3    H270982   2.122   4.729  16.012
16523TIP3   OH270983   1.695   5.864   2.682
16523TIP3    H170984   1.756   5.805   2.637
16523TIP3    H270985   1.626   5.880   2.617
16524TIP3   OH270986   3.416   6.635   3.414
16524TIP3    H170987   3.335   6.685   3.415
16524TIP3    H270988   3.393   6.551   3.374
16525TIP3   OH270989   1.297   2.061   3.375
16525TIP3    H170990   1.279   1.968   3.392
16525TIP3    H270991   1.336   2.063   3.288
16526TIP3   OH270992   4.461   0.170  15.798
16526TIP3    H170993   4.464   0.220  15.880
16526TIP3    H270994   4.538   0.201  15.749
16527TIP3   OH270995   5.393   6.740  15.278
16527TIP3    H170996   5.335   6.726  15.352
16527TIP3    H270997   5.340   6.785  15.213
16528TIP3   OH270998   4.732   0.844  10.869
16528TIP3    H170999   4.765   0.926  10.905
16528TIP3    H271000   4.673   0.871  10.798
16529TIP3   OH271001   4.772   4.534  17.176
16529TIP3    H171002   4.735   4.562  17.259
16529TIP3    H271003   4.777   4.439  17.183
16530TIP3   OH271004   1.772   3.598  15.965
16530TIP3    H171005   1.734   3.514  15.991
16530TIP3    H271006   1.730   3.662  16.024
16531TIP3   OH271007   0.471   0.382  14.481
16531TIP3    H171008   0.404   0.322  14.513
16531TIP3    H271009   0.443   0.403  14.392
16532TIP3   OH271010   4.957   4.293  15.061
16532TIP3    H171011   4.920   4.285  14.974
16532TIP3    H271012   4.905   4.233  15.115
16533TIP3   OH271013   6.092   2.746  15.289
16533TIP3    H171014   6.075   2.749  15.384
16533TIP3    H271015   6.073   2.655  15.265
16534TIP3   OH271016   0.644   1.331   6.117
16534TIP3    H171017   0.715   1.395   6.119
16534TIP3    H271018   0.642   1.299   6.026
16535TIP3   OH271019   0.833   3.489  14.003
16535TIP3    H171020   0.914   3.441  13.989
16535TIP3    H271021   0.842   3.526  14.091
16536TIP3   OH271022   1.699   4.686  12.709
16536TIP3    H171023   1.779   4.641  12.732
16536TIP3    H271024   1.659   4.710  12.793
16537TIP3   OH271025   0.786   1.762   0.448
16537TIP3    H171026   0.866   1.738   0.495
16537TIP3    H271027   0.803   1.739   0.357
16538TIP3   OH271028   2.804   0.129  13.060
16538TIP3    H171029   2.831   0.167  13.143
16538TIP3    H271030   2.793   0.205  13.002
16539TIP3   OH271031   5.326   1.154   3.370
16539TIP3    H171032   5.360   1.174   3.283
16539TIP3    H271033   5.314   1.240   3.412
16540TIP3   OH271034   2.635   2.295  16.088
16540TIP3    H171035   2.636   2.297  15.992
16540TIP3    H271036   2.692   2.221  16.111
16541TIP3   OH271037   1.488   5.940  16.825
16541TIP3    H171038   1.508   5.921  16.733
16541TIP3    H271039   1.564   5.987  16.858
16542TIP3   OH271040   2.468   4.005   4.280
16542TIP3    H171041   2.439   3.920   4.249
16542TIP3    H271042   2.485   4.055   4.200
16543TIP3   OH271043   1.488   5.672  14.558
16543TIP3    H171044   1.466   5.604  14.494
16543TIP3    H271045   1.432   5.746  14.534
16544TIP3   OH271046   1.022   2.084  13.916
16544TIP3    H171047   1.061   2.159  13.871
16544TIP3    H271048   1.097   2.027  13.938
16545TIP3   OH271049   2.198   3.361  16.364
16545TIP3    H171050   2.250   3.335  16.439
16545TIP3    H271051   2.114   3.317  16.377
16546TIP3   OH271052   0.811   5.421  13.578
16546TIP3    H171053   0.721   5.423  13.545
16546TIP3    H271054   0.852   5.498  13.538
16547TIP3   OH271055   4.448   0.341  16.726
16547TIP3    H171056   4.475   0.258  16.688
16547TIP3    H271057   4.435   0.323  16.819
16548TIP3   OH271058   2.608   1.059  16.572
16548TIP3    H171059   2.521   1.026  16.550
16548TIP3    H271060   2.605   1.152  16.551
16549TIP3   OH271061   2.588   4.248   0.933
16549TIP3    H171062   2.614   4.157   0.914
16549TIP3    H271063   2.635   4.300   0.868
16550TIP3   OH271064   2.812   2.661  11.550
16550TIP3    H171065   2.738   2.608  11.582
16550TIP3    H271066   2.792   2.750  11.580
16551TIP3   OH271067   5.141   6.530  16.856
16551TIP3    H171068   5.058   6.543  16.901
16551TIP3    H271069   5.192   6.475  16.915
16552TIP3   OH271070   5.953   2.466  16.682
16552TIP3    H171071   5.980   2.523  16.754
16552TIP3    H271072   5.933   2.526  16.610
16553TIP3   OH271073   6.744   3.454  12.392
16553TIP3    H171074   6.689   3.384  12.357
16553TIP3    H271075   6.791   3.488  12.316
16554TIP3   OH271076   3.542   0.570   4.133
16554TIP3    H171077   3.474   0.529   4.187
16554TIP3    H271078   3.581   0.497   4.085
16555TIP3   OH271079   2.940   4.026  15.482
16555TIP3    H171080   3.011   3.961  15.475
16555TIP3    H271081   2.982   4.104  15.518
16556TIP3   OH271082   6.722   1.975   2.469
16556TIP3    H171083   6.710   2.000   2.377
16556TIP3    H271084   6.634   1.972   2.505
16557TIP3   OH271085   6.234   3.589  16.669
16557TIP3    H171086   6.280   3.507  16.651
16557TIP3    H271087   6.162   3.564  16.726
16558TIP3   OH271088   0.359   0.805   3.639
16558TIP3    H171089   0.343   0.794   3.732
16558TIP3    H271090   0.272   0.799   3.599
16559TIP3   OH271091   5.982   4.030  13.290
16559TIP3    H171092   5.911   4.047  13.352
16559TIP3    H271093   5.942   4.043  13.204
16560TIP3   OH271094   0.779   3.332  13.610
16560TIP3    H171095   0.800   3.425  13.625
16560TIP3    H271096   0.782   3.323  13.514
16561TIP3   OH271097   4.782   4.746   4.260
16561TIP3    H171098   4.832   4.826   4.246
16561TIP3    H271099   4.698   4.762   4.217
16562TIP3   OH271100   6.736   5.785  13.778
16562TIP3    H171101   6.699   5.841  13.846
16562TIP3    H271102   6.785   5.718  13.826
16563TIP3   OH271103   0.146   0.677   2.794
16563TIP3    H171104   0.109   0.718   2.715
16563TIP3    H271105   0.116   0.734   2.865
16564TIP3   OH271106   4.331   4.225  16.392
16564TIP3    H171107   4.371   4.166  16.456
16564TIP3    H271108   4.343   4.313  16.430
16565TIP3   OH271109   2.222   5.047  16.499
16565TIP3    H171110   2.219   4.958  16.465
16565TIP3    H271111   2.312   5.076  16.482
16566TIP3   OH271112   1.611   0.980   4.689
16566TIP3    H171113   1.704   0.980   4.710
16566TIP3    H271114   1.594   0.895   4.648
16567TIP3   OH271115   6.729   4.879   0.085
16567TIP3    H171116   6.678   4.956   0.108
16567TIP3    H271117   6.671   4.805   0.104
16568TIP3   OH271118   0.864   6.364  16.836
16568TIP3    H171119   0.834   6.363  16.745
16568TIP3    H271120   0.800   6.311  16.883
16569TIP3   OH271121   0.469   1.139  13.297
16569TIP3    H171122   0.381   1.102  13.303
16569TIP3    H271123   0.460   1.212  13.236
16570TIP3   OH271124   6.131   0.161  14.181
16570TIP3    H171125   6.147   0.080  14.131
16570TIP3    H271126   6.145   0.136  14.272
16571TIP3   OH271127   1.438   3.212   1.096
16571TIP3    H171128   1.527   3.177   1.105
16571TIP3    H271129   1.443   3.275   1.024
16572TIP3   OH271130   4.701   2.014  11.176
16572TIP3    H171131   4.770   1.960  11.138
16572TIP3    H271132   4.620   1.978  11.141
16573TIP3   OH271133   1.886   3.848   0.783
16573TIP3    H171134   1.890   3.773   0.842
16573TIP3    H271135   1.848   3.815   0.702
16574TIP3   OH271136   0.843   5.350   4.611
16574TIP3    H171137   0.766   5.343   4.667
16574TIP3    H271138   0.809   5.341   4.522
16575TIP3   OH271139   3.205   2.237  17.081
16575TIP3    H171140   3.254   2.251  17.000
16575TIP3    H271141   3.190   2.325  17.115
16576TIP3   OH271142   6.599   5.552  13.643
16576TIP3    H171143   6.655   5.495  13.590
16576TIP3    H271144   6.658   5.619  13.678
16577TIP3   OH271145   2.803   6.683   0.672
16577TIP3    H171146   2.794   6.758   0.613
16577TIP3    H271147   2.882   6.638   0.642
16578TIP3   OH271148   4.283   4.947  13.501
16578TIP3    H171149   4.323   4.862  13.484
16578TIP3    H271150   4.206   4.950  13.446
16579TIP3   OH271151   0.830   0.441  11.478
16579TIP3    H171152   0.841   0.499  11.553
16579TIP3    H271153   0.837   0.500  11.402
16580TIP3   OH271154   1.998   5.364   2.241
16580TIP3    H171155   2.027   5.296   2.301
16580TIP3    H271156   1.949   5.317   2.173
16581TIP3   OH271157   1.479   1.794  12.175
16581TIP3    H171158   1.440   1.871  12.134
16581TIP3    H271159   1.437   1.789  12.260
16582TIP3   OH271160   2.497   1.087   0.796
16582TIP3    H171161   2.439   1.096   0.721
16582TIP3    H271162   2.569   1.148   0.778
16583TIP3   OH271163   3.318   5.222  16.780
16583TIP3    H171164   3.269   5.203  16.860
16583TIP3    H271165   3.366   5.142  16.762
16584TIP3   OH271166   1.993   3.488  11.641
16584TIP3    H171167   2.056   3.441  11.586
16584TIP3    H271168   1.985   3.574  11.599
16585TIP3   OH271169   2.329   1.667  11.336
16585TIP3    H171170   2.346   1.661  11.242
16585TIP3    H271171   2.280   1.588  11.356
16586TIP3   OH271172   0.729   2.083  12.004
16586TIP3    H171173   0.823   2.086  12.021
16586TIP3    H271174   0.716   2.003  11.954
16587TIP3   OH271175   1.686   1.529  15.595
16587TIP3    H171176   1.734   1.454  15.630
16587TIP3    H271177   1.701   1.599  15.659
16588TIP3   OH271178   0.098   6.105   0.712
16588TIP3    H171179   0.079   6.020   0.674
16588TIP3    H271180   0.193   6.113   0.706
16589TIP3   OH271181   0.060   2.516  15.060
16589TIP3    H171182   0.089   2.574  15.131
16589TIP3    H271183   0.036   2.434  15.104
16590TIP3   OH271184   6.367   2.352   1.320
16590TIP3    H171185   6.434   2.367   1.254
16590TIP3    H271186   6.307   2.288   1.279
16591TIP3   OH271187   5.931   5.988  16.185
16591TIP3    H171188   5.882   5.908  16.163
16591TIP3    H271189   5.870   6.041  16.236
16592TIP3   OH271190   5.563   5.773   0.760
16592TIP3    H171191   5.541   5.819   0.680
16592TIP3    H271192   5.650   5.736   0.744
16593TIP3   OH271193   0.417   6.174  11.989
16593TIP3    H171194   0.382   6.237  11.926
16593TIP3    H271195   0.411   6.090  11.945
16594TIP3   OH271196   1.955   2.370   0.411
16594TIP3    H171197   2.012   2.426   0.358
16594TIP3    H271198   2.015   2.311   0.456
16595TIP3   OH271199   4.693   4.596   3.794
16595TIP3    H171200   4.782   4.612   3.765
16595TIP3    H271201   4.686   4.501   3.800
16596TIP3   OH271202   0.578   4.701   4.685
16596TIP3    H171203   0.627   4.667   4.759
16596TIP3    H271204   0.645   4.725   4.621
16597TIP3   OH271205   4.094   2.533  11.448
16597TIP3    H171206   4.081   2.477  11.371
16597TIP3    H271207   4.048   2.614  11.426
16598TIP3   OH271208   0.742   4.895   0.897
16598TIP3    H171209   0.678   4.966   0.907
16598TIP3    H271210   0.739   4.848   0.980
16599TIP3   OH271211   1.568   3.137  11.926
16599TIP3    H171212   1.483   3.119  11.967
16599TIP3    H271213   1.633   3.114  11.992
16600TIP3   OH271214   3.544   2.734  13.022
16600TIP3    H171215   3.471   2.794  13.008
16600TIP3    H271216   3.565   2.701  12.934
16601TIP3   OH271217   2.198   0.906  12.998
16601TIP3    H171218   2.142   0.918  12.921
16601TIP3    H271219   2.139   0.869  13.064
16602TIP3   OH271220   5.919   2.452   4.012
16602TIP3    H171221   5.961   2.376   4.054
16602TIP3    H271222   5.875   2.498   4.084
16603TIP3   OH271223   2.729   2.164   1.986
16603TIP3    H171224   2.649   2.206   2.019
16603TIP3    H271225   2.798   2.194   2.046
16604TIP3   OH271226   3.133   6.564  11.333
16604TIP3    H171227   3.163   6.508  11.405
16604TIP3    H271228   3.154   6.515  11.254
16605TIP3   OH271229   0.690   5.521  16.072
16605TIP3    H171230   0.780   5.495  16.051
16605TIP3    H271231   0.644   5.438  16.085
16606TIP3   OH271232   6.137   5.997   0.292
16606TIP3    H171233   6.136   5.966   0.201
16606TIP3    H271234   6.217   5.960   0.329
16607TIP3   OH271235   0.897   1.953  13.702
16607TIP3    H171236   0.928   2.012  13.771
16607TIP3    H271237   0.921   1.997  13.620
16608TIP3   OH271238   2.911   1.270  12.333
16608TIP3    H171239   2.981   1.214  12.300
16608TIP3    H271240   2.831   1.222  12.312
16609TIP3   OH271241   3.402   5.594  15.107
16609TIP3    H171242   3.314   5.561  15.126
16609TIP3    H271243   3.429   5.547  15.028
16610TIP3   OH271244   5.332   1.402  15.505
16610TIP3    H171245   5.272   1.359  15.443
16610TIP3    H271246   5.275   1.453  15.562
16611TIP3   OH271247   1.553   2.478   0.130
16611TIP3    H171248   1.566   2.474   0.035
16611TIP3    H271249   1.610   2.409   0.165
16612TIP3   OH271250   1.492   6.034  13.654
16612TIP3    H171251   1.418   6.091  13.676
16612TIP3    H271252   1.464   5.989  13.574
16613TIP3   OH271253   5.197   6.104   4.122
16613TIP3    H171254   5.256   6.077   4.052
16613TIP3    H271255   5.112   6.116   4.080
16614TIP3   OH271256   1.578   0.498   0.830
16614TIP3    H171257   1.654   0.442   0.809
16614TIP3    H271258   1.602   0.539   0.913
16615TIP3   OH271259   5.719   2.476  12.386
16615TIP3    H171260   5.625   2.462  12.377
16615TIP3    H271261   5.728   2.537  12.459
16616TIP3   OH271262   5.408   3.532   0.074
16616TIP3    H171263   5.429   3.554   0.165
16616TIP3    H271264   5.357   3.606   0.043
16617TIP3   OH271265   2.742   2.980   2.395
16617TIP3    H171266   2.713   2.920   2.327
16617TIP3    H271267   2.668   3.039   2.409
16618TIP3   OH271268   4.715   0.690  13.790
16618TIP3    H171269   4.651   0.735  13.735
16618TIP3    H271270   4.693   0.716  13.879
16619TIP3   OH271271   2.912   1.500  12.678
16619TIP3    H171272   2.875   1.551  12.751
16619TIP3    H271273   3.000   1.535  12.667
16620TIP3   OH271274   4.302   1.265   4.496
16620TIP3    H171275   4.379   1.291   4.446
16620TIP3    H271276   4.297   1.170   4.484
16621TIP3   OH271277   1.307   2.559  11.092
16621TIP3    H171278   1.387   2.576  11.043
16621TIP3    H271279   1.274   2.646  11.116
16622TIP3   OH271280   2.288   2.392  12.405
16622TIP3    H171281   2.245   2.452  12.345
16622TIP3    H271282   2.232   2.392  12.483
16623TIP3   OH271283   5.305   1.209  12.416
16623TIP3    H171284   5.323   1.167  12.332
16623TIP3    H271285   5.314   1.302  12.398
16624TIP3   OH271286   4.236   5.295  16.428
16624TIP3    H171287   4.291   5.371  16.410
16624TIP3    H271288   4.148   5.322  16.399
16625TIP3   OH271289   1.725   1.659  17.100
16625TIP3    H171290   1.638   1.684  17.130
16625TIP3    H271291   1.759   1.603  17.170
16626TIP3   OH271292   5.386   5.180   4.911
16626TIP3    H171293   5.453   5.171   4.980
16626TIP3    H271294   5.306   5.149   4.952
16627TIP3   OH271295   5.266   0.601   4.824
16627TIP3    H171296   5.259   0.508   4.803
16627TIP3    H271297   5.236   0.645   4.745
16628TIP3   OH271298   2.506   6.624  15.250
16628TIP3    H171299   2.506   6.614  15.345
16628TIP3    H271300   2.416   6.644  15.227
16629TIP3   OH271301   4.789   0.072  16.798
16629TIP3    H171302   4.851   0.145  16.808
16629TIP3    H271303   4.796   0.024  16.881
16630TIP3   OH271304   6.670   1.547   6.384
16630TIP3    H171305   6.762   1.551   6.357
16630TIP3    H271306   6.661   1.616   6.450
16631TIP3   OH271307   4.270   6.646  11.425
16631TIP3    H171308   4.324   6.596  11.364
16631TIP3    H271309   4.282   6.737  11.398
16632TIP3   OH271310   0.928   2.239  12.223
16632TIP3    H171311   0.971   2.187  12.155
16632TIP3    H271312   0.998   2.264  12.282
16633TIP3   OH271313   4.316   6.490  16.905
16633TIP3    H171314   4.239   6.547  16.908
16633TIP3    H271315   4.390   6.551  16.906
16634TIP3   OH271316   6.513   4.273   0.713
16634TIP3    H171317   6.432   4.221   0.720
16634TIP3    H271318   6.553   4.267   0.799
16635TIP3   OH271319   0.787   3.435   2.725
16635TIP3    H171320   0.755   3.383   2.799
16635TIP3    H271321   0.709   3.457   2.675
16636TIP3   OH271322   0.687   2.651  15.016
16636TIP3    H171323   0.616   2.597  15.051
16636TIP3    H271324   0.669   2.657  14.922
16637TIP3   OH271325   0.101   0.186  16.286
16637TIP3    H171326   0.008   0.205  16.287
16637TIP3    H271327   0.143   0.270  16.308
16638TIP3   OH271328   1.040   5.802  15.522
16638TIP3    H171329   0.965   5.854  15.552
16638TIP3    H271330   1.006   5.713  15.516
16639TIP3   OH271331   3.987   2.732   0.243
16639TIP3    H171332   3.914   2.726   0.304
16639TIP3    H271333   3.965   2.807   0.187
16640TIP3   OH271334   5.256   0.720  12.227
16640TIP3    H171335   5.209   0.765  12.297
16640TIP3    H271336   5.227   0.629  12.234
16641TIP3   OH271337   2.020   1.562  16.451
16641TIP3    H171338   2.086   1.580  16.384
16641TIP3    H271339   1.986   1.648  16.475
16642TIP3   OH271340   2.320   5.230   4.178
16642TIP3    H171341   2.318   5.307   4.122
16642TIP3    H271342   2.395   5.244   4.236
16643TIP3   OH271343   4.984   6.673   4.085
16643TIP3    H171344   5.005   6.623   4.006
16643TIP3    H271345   4.923   6.741   4.056
16644TIP3   OH271346   3.375   1.317  12.647
16644TIP3    H171347   3.338   1.402  12.623
16644TIP3    H271348   3.408   1.281  12.565
16645TIP3   OH271349   0.862   0.306  17.098
16645TIP3    H171350   0.891   0.365  17.168
16645TIP3    H271351   0.816   0.364  17.037
16646TIP3   OH271352   2.336   5.597  11.102
16646TIP3    H171353   2.287   5.679  11.111
16646TIP3    H271354   2.370   5.599  11.013
16647TIP3   OH271355   3.642   1.732   6.353
16647TIP3    H171356   3.626   1.710   6.445
16647TIP3    H271357   3.635   1.649   6.306
16648TIP3   OH271358   3.307   0.039  15.594
16648TIP3    H171359   3.307   0.071  15.503
16648TIP3    H271360   3.351   0.108  15.643
16649TIP3   OH271361   5.629   1.854   3.792
16649TIP3    H171362   5.668   1.768   3.777
16649TIP3    H271363   5.535   1.841   3.780
16650TIP3   OH271364   2.600   6.061  14.762
16650TIP3    H171365   2.649   6.141  14.775
16650TIP3    H271366   2.614   6.038  14.670
16651TIP3   OH271367   2.726   4.452  11.537
16651TIP3    H171368   2.786   4.494  11.475
16651TIP3    H271369   2.648   4.434  11.485
16652TIP3   OH271370   6.060   1.192   2.240
16652TIP3    H171371   6.014   1.265   2.281
16652TIP3    H271372   6.029   1.193   2.149
16653TIP3   OH271373   3.110   0.899   1.896
16653TIP3    H171374   3.075   0.815   1.865
16653TIP3    H271375   3.186   0.915   1.840
16654TIP3   OH271376   6.162   0.903   0.536
16654TIP3    H171377   6.166   0.855   0.454
16654TIP3    H271378   6.112   0.846   0.595
16655TIP3   OH271379   0.307   5.156  15.411
16655TIP3    H171380   0.381   5.204  15.448
16655TIP3    H271381   0.338   5.066  15.404
16656TIP3   OH271382   1.984   0.726  15.227
16656TIP3    H171383   1.947   0.783  15.294
16656TIP3    H271384   2.041   0.783  15.175
16657TIP3   OH271385   3.926   4.512  13.978
16657TIP3    H171386   3.881   4.491  13.896
16657TIP3    H271387   3.857   4.549  14.033
16658TIP3   OH271388   3.001   5.705   3.782
16658TIP3    H171389   2.978   5.667   3.867
16658TIP3    H271390   2.987   5.799   3.793
16659TIP3   OH271391   5.915   5.405   0.404
16659TIP3    H171392   5.919   5.474   0.338
16659TIP3    H271393   5.985   5.425   0.465
16660TIP3   OH271394   4.257   0.175   4.318
16660TIP3    H171395   4.276   0.166   4.225
16660TIP3    H271396   4.264   0.087   4.354
16661TIP3   OH271397   5.338   5.064   0.805
16661TIP3    H171398   5.245   5.088   0.812
16661TIP3    H271399   5.353   5.007   0.881
16662TIP3   OH271400   0.348   5.392   4.793
16662TIP3    H171401   0.267   5.419   4.750
16662TIP3    H271402   0.346   5.296   4.790
16663TIP3   OH271403   2.120   4.965   4.192
16663TIP3    H171404   2.111   5.010   4.276
16663TIP3    H271405   2.202   4.916   4.199
16664TIP3   OH271406   5.924   0.245  11.748
16664TIP3    H171407   5.857   0.187  11.712
16664TIP3    H271408   5.963   0.196  11.821
16665TIP3   OH271409   2.793   5.994   5.643
16665TIP3    H171410   2.868   5.970   5.698
16665TIP3    H271411   2.796   6.090   5.641
16666TIP3   OH271412   1.896   3.164   0.974
16666TIP3    H171413   1.937   3.091   1.020
16666TIP3    H271414   1.959   3.191   0.908
16667TIP3   OH271415   4.597   5.241   4.975
16667TIP3    H171416   4.506   5.240   4.944
16667TIP3    H271417   4.594   5.194   5.059
16668TIP3   OH271418   5.095   0.926  13.180
16668TIP3    H171419   5.029   0.870  13.221
16668TIP3    H271420   5.177   0.903  13.224
16669TIP3   OH271421   5.490   2.915  15.335
16669TIP3    H171422   5.498   2.911  15.239
16669TIP3    H271423   5.396   2.925  15.351
16670TIP3   OH271424   5.462   5.799  11.068
16670TIP3    H171425   5.489   5.852  10.993
16670TIP3    H271426   5.455   5.863  11.140
16671TIP3   OH271427   2.360   0.035   1.669
16671TIP3    H171428   2.449   0.041   1.704
16671TIP3    H271429   2.317  -0.031   1.724
16672TIP3   OH271430   5.857   0.860   4.959
16672TIP3    H171431   5.923   0.912   5.005
16672TIP3    H271432   5.876   0.874   4.866
16673TIP3   OH271433   0.391   0.223  15.198
16673TIP3    H171434   0.338   0.205  15.120
16673TIP3    H271435   0.389   0.141  15.247
16674TIP3   OH271436   5.848   2.003  12.205
16674TIP3    H171437   5.835   2.089  12.245
16674TIP3    H271438   5.773   1.951  12.236
16675TIP3   OH271439   1.309   1.284   1.429
16675TIP3    H171440   1.380   1.295   1.366
16675TIP3    H271441   1.310   1.364   1.480
16676TIP3   OH271442   5.895   2.425  14.461
16676TIP3    H171443   5.886   2.429  14.366
16676TIP3    H271444   5.978   2.380  14.476
16677TIP3   OH271445   0.917   0.122   2.825
16677TIP3    H171446   0.891   0.056   2.889
16677TIP3    H271447   0.884   0.205   2.861
16678TIP3   OH271448   2.176   1.873  14.569
16678TIP3    H171449   2.100   1.825  14.602
16678TIP3    H271450   2.142   1.927  14.498
16679TIP3   OH271451   4.924   4.314   5.091
16679TIP3    H171452   4.855   4.375   5.118
16679TIP3    H271453   4.943   4.337   5.000
16680TIP3   OH271454   4.686   3.077  17.041
16680TIP3    H171455   4.698   3.161  16.997
16680TIP3    H271456   4.757   3.074  17.105
16681TIP3   OH271457   2.101   0.225  16.182
16681TIP3    H171458   2.148   0.231  16.265
16681TIP3    H271459   2.085   0.315  16.157
16682TIP3   OH271460   0.372   0.626   5.352
16682TIP3    H171461   0.411   0.539   5.366
16682TIP3    H271462   0.364   0.634   5.257
16683TIP3   OH271463   5.049   3.404   1.580
16683TIP3    H171464   5.005   3.476   1.536
16683TIP3    H271465   5.036   3.329   1.523
16684TIP3   OH271466   3.522   2.559  13.364
16684TIP3    H171467   3.550   2.650  13.357
16684TIP3    H271468   3.534   2.524  13.275
16685TIP3   OH271469   6.356   3.039   1.225
16685TIP3    H171470   6.266   3.069   1.218
16685TIP3    H271471   6.371   3.028   1.319
16686TIP3   OH271472   5.067   2.952   3.284
16686TIP3    H171473   5.104   3.034   3.316
16686TIP3    H271474   4.973   2.970   3.277
16687TIP3   OH271475   2.470   4.606  11.626
16687TIP3    H171476   2.480   4.520  11.667
16687TIP3    H271477   2.553   4.651  11.643
16688TIP3   OH271478   1.875   1.110   3.673
16688TIP3    H171479   1.955   1.151   3.642
16688TIP3    H271480   1.874   1.024   3.631
16689TIP3   OH271481   0.825   2.296  16.064
16689TIP3    H171482   0.889   2.234  16.101
16689TIP3    H271483   0.846   2.379  16.106
16690TIP3   OH271484   1.885   6.690  12.836
16690TIP3    H171485   1.802   6.669  12.880
16690TIP3    H271486   1.868   6.672  12.744
16691TIP3   OH271487   3.236   6.085  14.049
16691TIP3    H171488   3.184   6.111  14.126
16691TIP3    H271489   3.195   6.004  14.019
16692TIP3   OH271490   1.976   5.788   1.741
16692TIP3    H171491   1.957   5.828   1.656
16692TIP3    H271492   1.895   5.797   1.790
16693TIP3   OH271493   6.430   5.673   1.988
16693TIP3    H171494   6.372   5.724   1.930
16693TIP3    H271495   6.371   5.630   2.049
16694TIP3   OH271496   3.013   5.756   3.005
16694TIP3    H171497   2.924   5.792   3.012
16694TIP3    H271498   3.034   5.729   3.094
16695TIP3   OH271499   0.880   1.178  13.485
16695TIP3    H171500   0.966   1.166  13.525
16695TIP3    H271501   0.818   1.136  13.545
16696TIP3   OH271502   6.222   0.958   3.414
16696TIP3    H171503   6.288   0.942   3.346
16696TIP3    H271504   6.265   1.018   3.475
16697TIP3   OH271505   3.137   6.261  15.354
16697TIP3    H171506   3.153   6.180  15.403
16697TIP3    H271507   3.044   6.256  15.330
16698TIP3   OH271508   4.852   6.467  10.987
16698TIP3    H171509   4.881   6.558  10.988
16698TIP3    H271510   4.907   6.426  10.920
16699TIP3   OH271511   4.489   4.117   2.487
16699TIP3    H171512   4.412   4.076   2.525
16699TIP3    H271513   4.539   4.149   2.561
16700TIP3   OH271514   5.126   0.651   2.756
16700TIP3    H171515   5.197   0.715   2.744
16700TIP3    H271516   5.165   0.584   2.812
16701TIP3   OH271517   2.751   1.234  12.002
16701TIP3    H171518   2.772   1.325  12.021
16701TIP3    H271519   2.707   1.237  11.916
16702TIP3   OH271520   3.582   2.496   5.976
16702TIP3    H171521   3.594   2.477   5.883
16702TIP3    H271522   3.642   2.437   6.021
16703TIP3   OH271523   1.396   4.943   1.941
16703TIP3    H171524   1.317   4.943   1.887
16703TIP3    H271525   1.466   4.970   1.881
16704TIP3   OH271526   5.866   0.509  15.600
16704TIP3    H171527   5.802   0.532  15.666
16704TIP3    H271528   5.861   0.580  15.536
16705TIP3   OH271529   6.292   0.038  15.031
16705TIP3    H171530   6.262  -0.053  15.032
16705TIP3    H271531   6.229   0.084  14.977
16706TIP3   OH271532   1.344   2.986  14.652
16706TIP3    H171533   1.381   2.898  14.661
16706TIP3    H271534   1.258   2.979  14.693
16707TIP3   OH271535   0.860   0.661  11.647
16707TIP3    H171536   0.834   0.609  11.723
16707TIP3    H271537   0.807   0.740  11.652
16708TIP3   OH271538   5.813   1.055  11.069
16708TIP3    H171539   5.873   0.982  11.084
16708TIP3    H271540   5.868   1.133  11.075
16709TIP3   OH271541   4.857   2.446   3.535
16709TIP3    H171542   4.882   2.356   3.514
16709TIP3    H271543   4.864   2.494   3.453
16710TIP3   OH271544   1.613   3.368   0.525
16710TIP3    H171545   1.563   3.305   0.472
16710TIP3    H271546   1.618   3.328   0.612
16711TIP3   OH271547   5.946   1.431  15.758
16711TIP3    H171548   5.974   1.357  15.812
16711TIP3    H271549   5.857   1.451  15.788
16712TIP3   OH271550   5.558   2.311   1.858
16712TIP3    H171551   5.521   2.266   1.783
16712TIP3    H271552   5.523   2.265   1.934
16713TIP3   OH271553   4.019   0.096   4.919
16713TIP3    H171554   4.005   0.172   4.976
16713TIP3    H271555   3.976   0.024   4.964
16714TIP3   OH271556   6.618   0.492  15.442
16714TIP3    H171557   6.689   0.553  15.462
16714TIP3    H271558   6.576   0.476  15.527
16715TIP3   OH271559   4.891   4.267  16.180
16715TIP3    H171560   4.876   4.350  16.135
16715TIP3    H271561   4.807   4.247  16.221
16716TIP3   OH271562   3.512   0.066  12.248
16716TIP3    H171563   3.481  -0.005  12.191
16716TIP3    H271564   3.582   0.108  12.198
16717TIP3   OH271565   6.323   2.402   3.875
16717TIP3    H171566   6.353   2.414   3.965
16717TIP3    H271567   6.236   2.441   3.874
16718TIP3   OH271568   6.702   0.624   0.633
16718TIP3    H171569   6.670   0.569   0.561
16718TIP3    H271570   6.792   0.594   0.648
16719TIP3   OH271571   3.215   0.421  16.752
16719TIP3    H171572   3.192   0.415  16.844
16719TIP3    H271573   3.173   0.346  16.711
16720TIP3   OH271574   4.409   4.710  15.617
16720TIP3    H171575   4.474   4.648  15.650
16720TIP3    H271576   4.426   4.715  15.523
16721TIP3   OH271577   5.906   6.668  13.714
16721TIP3    H171578   5.985   6.687  13.664
16721TIP3    H271579   5.913   6.575  13.736
16722TIP3   OH271580   5.235   2.713  11.634
16722TIP3    H171581   5.235   2.688  11.542
16722TIP3    H271582   5.225   2.631  11.681
16723TIP3   OH271583   6.246   3.141   6.702
16723TIP3    H171584   6.192   3.190   6.639
16723TIP3    H271585   6.330   3.186   6.702
16724TIP3   OH271586   4.783   3.175   3.688
16724TIP3    H171587   4.762   3.258   3.645
16724TIP3    H271588   4.855   3.139   3.637
16725TIP3   OH271589   2.952   0.432   0.642
16725TIP3    H171590   2.890   0.499   0.613
16725TIP3    H271591   3.038   0.473   0.634
16726TIP3   OH271592   6.184   0.634  12.653
16726TIP3    H171593   6.107   0.609  12.602
16726TIP3    H271594   6.168   0.598  12.740
16727TIP3   OH271595   3.467   0.827  12.762
16727TIP3    H171596   3.464   0.922  12.767
16727TIP3    H271597   3.424   0.797  12.842
16728TIP3   OH271598   4.401   4.190  11.178
16728TIP3    H171599   4.336   4.187  11.108
16728TIP3    H271600   4.395   4.279  11.212
16729TIP3   OH271601   5.012   4.994  13.054
16729TIP3    H171602   4.975   4.910  13.077
16729TIP3    H271603   5.059   5.022  13.134
16730TIP3   OH271604   4.301   0.415  13.795
16730TIP3    H171605   4.257   0.496  13.822
16730TIP3    H271606   4.260   0.347  13.848
16731TIP3   OH271607   0.666   5.970   2.910
16731TIP3    H171608   0.629   6.040   2.857
16731TIP3    H271609   0.589   5.920   2.940
16732TIP3   OH271610   0.605   2.633  12.259
16732TIP3    H171611   0.674   2.573  12.227
16732TIP3    H271612   0.564   2.585  12.331
16733TIP3   OH271613   4.160   3.955   0.311
16733TIP3    H171614   4.250   3.963   0.281
16733TIP3    H271615   4.166   3.905   0.393
16734TIP3   OH271616   1.859   6.351  11.631
16734TIP3    H171617   1.933   6.347  11.691
16734TIP3    H271618   1.897   6.332  11.545
16735TIP3   OH271619   2.849   6.311   1.250
16735TIP3    H171620   2.831   6.365   1.174
16735TIP3    H271621   2.829   6.222   1.221
16736TIP3   OH271622   1.382   1.284   5.632
16736TIP3    H171623   1.347   1.289   5.721
16736TIP3    H271624   1.463   1.235   5.641
16737TIP3   OH271625   1.593   3.700   4.219
16737TIP3    H171626   1.622   3.747   4.141
16737TIP3    H271627   1.673   3.657   4.252
16738TIP3   OH271628   4.469   0.185   3.443
16738TIP3    H171629   4.424   0.110   3.404
16738TIP3    H271630   4.463   0.170   3.538
16739TIP3   OH271631   1.774   1.509  16.653
16739TIP3    H171632   1.712   1.489  16.723
16739TIP3    H271633   1.798   1.601  16.668
16740TIP3   OH271634   1.561   0.004  11.037
16740TIP3    H171635   1.487  -0.031  10.987
16740TIP3    H271636   1.630   0.016  10.972
16741TIP3   OH271637   2.193   2.165   3.476
16741TIP3    H171638   2.162   2.132   3.560
16741TIP3    H271639   2.288   2.155   3.480
16742TIP3   OH271640   1.036   5.217  12.532
16742TIP3    H171641   0.948   5.210  12.494
16742TIP3    H271642   1.054   5.129  12.566
16743TIP3   OH271643   6.166   4.388  12.952
16743TIP3    H171644   6.119   4.466  12.983
16743TIP3    H271645   6.203   4.414  12.868
16744TIP3   OH271646   1.155   1.731  12.100
16744TIP3    H171647   1.079   1.767  12.054
16744TIP3    H271648   1.209   1.807  12.121
16745TIP3   OH271649   3.084   4.241  11.036
16745TIP3    H171650   3.049   4.327  11.059
16745TIP3    H271651   3.174   4.257  11.010
16746TIP3   OH271652   2.692   3.713  15.078
16746TIP3    H171653   2.660   3.763  15.004
16746TIP3    H271654   2.718   3.778  15.143
16747TIP3   OH271655   5.121   6.029   2.687
16747TIP3    H171656   5.215   6.017   2.673
16747TIP3    H271657   5.092   5.947   2.726
16748TIP3   OH271658   4.231   5.365   1.806
16748TIP3    H171659   4.286   5.425   1.757
16748TIP3    H271660   4.223   5.405   1.893
16749TIP3   OH271661   1.765   5.109  15.196
16749TIP3    H171662   1.801   5.055  15.266
16749TIP3    H271663   1.836   5.168  15.172
16750TIP3   OH271664   0.869   1.586  10.336
16750TIP3    H171665   0.903   1.565  10.423
16750TIP3    H271666   0.931   1.650  10.301
16751TIP3   OH271667   4.934   4.471  13.119
16751TIP3    H171668   4.983   4.472  13.201
16751TIP3    H271669   4.950   4.383  13.083
16752TIP3   OH271670   2.478   4.992  16.684
16752TIP3    H171671   2.574   4.992  16.677
16752TIP3    H271672   2.455   5.080  16.714
16753TIP3   OH271673   6.781   3.380   2.917
16753TIP3    H171674   6.789   3.435   2.839
16753TIP3    H271675   6.862   3.328   2.919
16754TIP3   OH271676   3.146   6.517  15.173
16754TIP3    H171677   3.065   6.566  15.182
16754TIP3    H271678   3.126   6.449  15.109
16755TIP3   OH271679   1.809   1.833  11.549
16755TIP3    H171680   1.871   1.765  11.525
16755TIP3    H271681   1.794   1.820  11.643
16756TIP3   OH271682   1.000   4.848   0.106
16756TIP3    H171683   0.999   4.755   0.126
16756TIP3    H271684   1.052   4.887   0.176
16757TIP3   OH271685   4.380   3.026  11.650
16757TIP3    H171686   4.333   3.100  11.688
16757TIP3    H271687   4.473   3.051  11.656
16758TIP3   OH271688   4.704   6.555  11.347
16758TIP3    H171689   4.634   6.569  11.283
16758TIP3    H271690   4.742   6.642  11.359
16759TIP3   OH271691   2.032   2.220   5.238
16759TIP3    H171692   2.018   2.274   5.160
16759TIP3    H271693   2.111   2.255   5.278
16760TIP3   OH271694   0.337   4.685  16.614
16760TIP3    H171695   0.345   4.624  16.687
16760TIP3    H271696   0.360   4.633  16.537
16761TIP3   OH271697   3.987   1.030   0.981
16761TIP3    H171698   3.923   1.087   1.024
16761TIP3    H271699   3.939   0.949   0.964
16762TIP3   OH271700   3.643   6.555   0.785
16762TIP3    H171701   3.619   6.482   0.729
16762TIP3    H271702   3.562   6.604   0.797
16763TIP3   OH271703   2.270   2.505  12.741
16763TIP3    H171704   2.254   2.479  12.832
16763TIP3    H271705   2.187   2.545  12.714
16764TIP3   OH271706   6.557   2.455   1.105
16764TIP3    H171707   6.650   2.435   1.101
16764TIP3    H271708   6.553   2.543   1.143
16765TIP3   OH271709   0.357   6.478  16.218
16765TIP3    H171710   0.294   6.441  16.156
16765TIP3    H271711   0.305   6.542  16.268
16766TIP3   OH271712   0.728   2.971   3.243
16766TIP3    H171713   0.636   2.970   3.272
16766TIP3    H271714   0.775   3.011   3.315
16767TIP3   OH271715   0.734   6.680  13.549
16767TIP3    H171716   0.764   6.643  13.466
16767TIP3    H271717   0.638   6.674  13.545
16768TIP3   OH271718   6.568   2.240   3.932
16768TIP3    H171719   6.600   2.196   3.853
16768TIP3    H271720   6.475   2.257   3.914
16769TIP3   OH271721   2.723   5.840   2.604
16769TIP3    H171722   2.782   5.914   2.592
16769TIP3    H271723   2.682   5.855   2.689
16770TIP3   OH271724   0.914   1.406  11.585
16770TIP3    H171725   0.988   1.435  11.532
16770TIP3    H271726   0.939   1.426  11.675
16771TIP3   OH271727   3.080   2.348   5.956
16771TIP3    H171728   3.156   2.404   5.966
16771TIP3    H271729   3.026   2.365   6.034
16772TIP3   OH271730   1.466   6.200   5.643
16772TIP3    H171731   1.386   6.235   5.604
16772TIP3    H271732   1.499   6.137   5.579
16773TIP3   OH271733   5.171   3.128  15.737
16773TIP3    H171734   5.185   3.125  15.832
16773TIP3    H271735   5.232   3.064  15.701
16774TIP3   OH271736   1.640   2.789   2.982
16774TIP3    H171737   1.560   2.841   2.990
16774TIP3    H271738   1.682   2.820   2.902
16775TIP3   OH271739   6.054   1.796  14.685
16775TIP3    H171740   6.025   1.709  14.713
16775TIP3    H271741   6.005   1.856  14.741
16776TIP3   OH271742   0.474   0.049  16.182
16776TIP3    H171743   0.415   0.001  16.124
16776TIP3    H271744   0.553   0.062  16.131
16777TIP3   OH271745   5.556   3.316   3.065
16777TIP3    H171746   5.588   3.236   3.106
16777TIP3    H271747   5.539   3.291   2.974
16778TIP3   OH271748   3.929   0.020   1.686
16778TIP3    H171749   3.884  -0.031   1.620
16778TIP3    H271750   3.951  -0.042   1.755
16779TIP3   OH271751   0.716   3.742   6.472
16779TIP3    H171752   0.637   3.762   6.523
16779TIP3    H271753   0.683   3.698   6.393
16780TIP3   OH271754   5.618   1.013   4.762
16780TIP3    H171755   5.686   0.999   4.697
16780TIP3    H271756   5.553   0.945   4.745
16781TIP3   OH271757   2.449   1.406  14.677
16781TIP3    H171758   2.398   1.329  14.651
16781TIP3    H271759   2.399   1.444  14.750
16782TIP3   OH271760   0.553   2.247  14.325
16782TIP3    H171761   0.596   2.314  14.272
16782TIP3    H271762   0.540   2.289  14.410
16783TIP3   OH271763   0.698   1.159   6.385
16783TIP3    H171764   0.730   1.104   6.456
16783TIP3    H271765   0.685   1.099   6.312
16784TIP3   OH271766   5.958   3.450   0.373
16784TIP3    H171767   6.050   3.439   0.399
16784TIP3    H271768   5.946   3.387   0.302
16785TIP3   OH271769   4.751   1.213  14.863
16785TIP3    H171770   4.692   1.247  14.796
16785TIP3    H271771   4.717   1.248  14.945
16786TIP3   OH271772   1.236   3.933  12.377
16786TIP3    H171773   1.297   3.947  12.450
16786TIP3    H271774   1.181   4.011  12.376
16787TIP3   OH271775   4.176   1.585   3.344
16787TIP3    H171776   4.183   1.490   3.346
16787TIP3    H271777   4.193   1.612   3.434
16788TIP3   OH271778   5.789   5.225  16.460
16788TIP3    H171779   5.812   5.310  16.497
16788TIP3    H271780   5.849   5.164  16.502
16789TIP3   OH271781   2.953   0.176   6.294
16789TIP3    H171782   2.886   0.128   6.246
16789TIP3    H271783   3.036   0.146   6.256
16790TIP3   OH271784   1.796   6.092   2.344
16790TIP3    H171785   1.869   6.110   2.403
16790TIP3    H271786   1.747   6.175   2.340
16791TIP3   OH271787   3.270   0.555  14.728
16791TIP3    H171788   3.189   0.583  14.770
16791TIP3    H271789   3.333   0.549  14.799
16792TIP3   OH271790   6.273   1.079  12.761
16792TIP3    H171791   6.196   1.107  12.710
16792TIP3    H271792   6.247   1.091  12.852
16793TIP3   OH271793   0.368   3.066  16.626
16793TIP3    H171794   0.340   3.145  16.579
16793TIP3    H271795   0.463   3.063  16.610
16794TIP3   OH271796   1.335   5.681  13.536
16794TIP3    H171797   1.294   5.669  13.451
16794TIP3    H271798   1.423   5.711  13.517
16795TIP3   OH271799   2.066   6.273  15.052
16795TIP3    H171800   2.041   6.183  15.074
16795TIP3    H271801   1.986   6.324  15.065
16796TIP3   OH271802   4.824   4.299   1.037
16796TIP3    H171803   4.891   4.245   0.995
16796TIP3    H271804   4.841   4.291   1.130
16797TIP3   OH271805   1.986   6.655   2.231
16797TIP3    H171806   1.945   6.717   2.291
16797TIP3    H271807   2.055   6.705   2.188
16798TIP3   OH271808   1.284   4.250  15.658
16798TIP3    H171809   1.316   4.337  15.679
16798TIP3    H271810   1.298   4.241  15.564
16799TIP3   OH271811   1.027   2.690   4.314
16799TIP3    H171812   1.092   2.705   4.383
16799TIP3    H271813   1.069   2.721   4.234
16800TIP3   OH271814   4.974   5.275   1.929
16800TIP3    H171815   4.895   5.295   1.879
16800TIP3    H271816   5.012   5.361   1.948
16801TIP3   OH271817   2.992   0.704   0.066
16801TIP3    H171818   3.064   0.745   0.113
16801TIP3    H271819   2.915   0.755   0.091
16802TIP3   OH271820   1.068   3.311  13.989
16802TIP3    H171821   1.149   3.344  14.028
16802TIP3    H271822   1.047   3.232  14.040
16803TIP3   OH271823   3.180   5.928  12.310
16803TIP3    H171824   3.167   5.959  12.220
16803TIP3    H271825   3.166   6.005  12.365
16804TIP3   OH271826   4.394   0.538   4.634
16804TIP3    H171827   4.431   0.542   4.722
16804TIP3    H271828   4.302   0.514   4.647
16805TIP3   OH271829   1.328   3.797   0.602
16805TIP3    H171830   1.405   3.743   0.618
16805TIP3    H271831   1.281   3.799   0.685
16806TIP3   OH271832   5.584   5.255   0.746
16806TIP3    H171833   5.658   5.264   0.687
16806TIP3    H271834   5.509   5.243   0.689
16807TIP3   OH271835   2.578   4.976  13.291
16807TIP3    H171836   2.665   5.010  13.270
16807TIP3    H271837   2.595   4.901  13.348
16808TIP3   OH271838   5.180   0.564  14.808
16808TIP3    H171839   5.126   0.607  14.874
16808TIP3    H271840   5.270   0.590  14.830
16809TIP3   OH271841   2.948   6.421  12.647
16809TIP3    H171842   2.911   6.346  12.693
16809TIP3    H271843   2.950   6.394  12.555
16810TIP3   OH271844   4.097   5.353   1.224
16810TIP3    H171845   4.005   5.371   1.208
16810TIP3    H271846   4.113   5.269   1.182
16811TIP3   OH271847   1.121   0.065   6.239
16811TIP3    H171848   1.149  -0.004   6.299
16811TIP3    H271849   1.028   0.048   6.225
16812TIP3   OH271850   2.105   1.466   0.418
16812TIP3    H171851   2.168   1.471   0.346
16812TIP3    H271852   2.113   1.376   0.450
16813TIP3   OH271853   1.917   5.177  12.333
16813TIP3    H171854   1.957   5.139  12.254
16813TIP3    H271855   1.827   5.197  12.306
16814TIP3   OH271856   2.056   4.127   2.150
16814TIP3    H171857   2.061   4.142   2.245
16814TIP3    H271858   1.989   4.188   2.120
16815TIP3   OH271859   4.932   3.511  15.504
16815TIP3    H171860   4.892   3.578  15.448
16815TIP3    H271861   4.908   3.428  15.462
16816TIP3   OH271862   5.822   4.280  11.425
16816TIP3    H171863   5.880   4.355  11.419
16816TIP3    H271864   5.864   4.222  11.488
16817TIP3   OH271865   4.936   1.057  12.985
16817TIP3    H171866   5.001   1.111  12.941
16817TIP3    H271867   4.984   1.011  13.054
16818TIP3   OH271868   1.190   6.650  12.470
16818TIP3    H171869   1.171   6.651  12.564
16818TIP3    H271870   1.115   6.694  12.430
16819TIP3   OH271871   4.859   3.444  16.149
16819TIP3    H171872   4.944   3.439  16.192
16819TIP3    H271873   4.870   3.512  16.082
16820TIP3   OH271874   5.883   0.210  12.666
16820TIP3    H171875   5.791   0.228  12.685
16820TIP3    H271876   5.930   0.246  12.741
16821TIP3   OH271877   6.759   5.373   0.275
16821TIP3    H171878   6.829   5.420   0.230
16821TIP3    H271879   6.801   5.293   0.307
16822TIP3   OH271880   3.630   6.072  16.549
16822TIP3    H171881   3.690   6.111  16.485
16822TIP3    H271882   3.546   6.117  16.533
16823TIP3   OH271883   5.727   4.189   3.621
16823TIP3    H171884   5.701   4.172   3.712
16823TIP3    H271885   5.725   4.104   3.579
16824TIP3   OH271886   0.947   3.560  16.964
16824TIP3    H171887   0.937   3.475  17.008
16824TIP3    H271888   0.992   3.540  16.882
16825TIP3   OH271889   4.086   2.864   5.579
16825TIP3    H171890   4.053   2.833   5.495
16825TIP3    H271891   4.178   2.882   5.563
16826TIP3   OH271892   1.352   1.886  14.881
16826TIP3    H171893   1.400   1.958  14.921
16826TIP3    H271894   1.413   1.812  14.884
16827TIP3   OH271895   2.071   4.354  14.737
16827TIP3    H171896   2.163   4.332  14.722
16827TIP3    H271897   2.073   4.446  14.764
16828TIP3   OH271898   3.291   3.407   5.587
16828TIP3    H171899   3.282   3.409   5.682
16828TIP3    H271900   3.382   3.431   5.571
16829TIP3   OH271901   2.372   3.827   0.838
16829TIP3    H171902   2.361   3.739   0.802
16829TIP3    H271903   2.436   3.868   0.780
16830TIP3   OH271904   2.561   1.609  14.556
16830TIP3    H171905   2.525   1.525  14.585
16830TIP3    H271906   2.485   1.656  14.522
16831TIP3   OH271907   4.098   5.687   2.300
16831TIP3    H171908   4.129   5.752   2.237
16831TIP3    H271909   4.058   5.618   2.245
16832TIP3   OH271910   2.037   5.836   3.964
16832TIP3    H171911   2.107   5.900   3.953
16832TIP3    H271912   2.082   5.755   3.987
16833TIP3   OH271913   6.596   0.298   3.396
16833TIP3    H171914   6.550   0.343   3.467
16833TIP3    H271915   6.528   0.245   3.354
16834TIP3   OH271916   5.712   1.191  14.404
16834TIP3    H171917   5.687   1.272  14.449
16834TIP3    H271918   5.698   1.210  14.311
16835TIP3   OH271919   6.620   6.569  15.806
16835TIP3    H171920   6.662   6.627  15.869
16835TIP3    H271921   6.643   6.606  15.720
16836TIP3   OH271922   5.393   3.297   0.643
16836TIP3    H171923   5.417   3.307   0.551
16836TIP3    H271924   5.371   3.386   0.671
16837TIP3   OH271925   0.212   6.651   2.529
16837TIP3    H171926   0.211   6.559   2.502
16837TIP3    H271927   0.250   6.697   2.454
16838TIP3   OH271928   0.894   1.532   0.817
16838TIP3    H171929   0.943   1.590   0.876
16838TIP3    H271930   0.818   1.504   0.869
16839TIP3   OH271931   1.086   4.095   2.450
16839TIP3    H171932   1.178   4.100   2.423
16839TIP3    H271933   1.047   4.177   2.420
16840TIP3   OH271934   0.927   5.624   4.157
16840TIP3    H171935   0.897   5.703   4.200
16840TIP3    H271936   0.861   5.604   4.091
16841TIP3   OH271937   5.962   1.149  14.785
16841TIP3    H171938   5.891   1.094  14.817
16841TIP3    H271939   6.027   1.087  14.751
16842TIP3   OH271940   3.798   2.184  12.322
16842TIP3    H171941   3.722   2.185  12.380
16842TIP3    H271942   3.767   2.136  12.245
16843TIP3   OH271943   6.290   2.256   3.665
16843TIP3    H171944   6.347   2.302   3.603
16843TIP3    H271945   6.300   2.304   3.747
16844TIP3   OH271946   2.102   4.430   2.062
16844TIP3    H171947   2.096   4.468   2.150
16844TIP3    H271948   2.020   4.382   2.052
16845TIP3   OH271949   5.863   3.838   5.429
16845TIP3    H171950   5.901   3.831   5.517
16845TIP3    H271951   5.937   3.865   5.374
16846TIP3   OH271952   5.100   2.012   3.567
16846TIP3    H171953   5.164   2.065   3.520
16846TIP3    H271954   5.066   1.951   3.501
16847TIP3   OH271955   1.747   0.252  12.795
16847TIP3    H171956   1.829   0.213  12.764
16847TIP3    H271957   1.691   0.177  12.814
16848TIP3   OH271958   5.388   6.366  12.740
16848TIP3    H171959   5.445   6.321  12.803
16848TIP3    H271960   5.319   6.303  12.721
16849TIP3   OH271961   2.463   4.224   4.070
16849TIP3    H171962   2.476   4.306   4.023
16849TIP3    H271963   2.486   4.156   4.005
16850TIP3   OH271964   1.936   4.992  13.036
16850TIP3    H171965   1.877   4.969  13.107
16850TIP3    H271966   1.963   5.082  13.056
16851TIP3   OH271967   2.019   4.929   2.030
16851TIP3    H171968   2.077   4.863   1.991
16851TIP3    H271969   2.072   4.968   2.100
16852TIP3   OH271970   4.435   0.202   4.537
16852TIP3    H171971   4.497   0.267   4.504
16852TIP3    H271972   4.364   0.203   4.473
16853TIP3   OH271973   1.295   3.130  16.373
16853TIP3    H171974   1.321   3.114  16.464
16853TIP3    H271975   1.265   3.221  16.372
16854TIP3   OH271976   4.748   5.465  16.032
16854TIP3    H171977   4.737   5.432  15.943
16854TIP3    H271978   4.786   5.552  16.021
16855TIP3   OH271979   6.340   5.969   3.042
16855TIP3    H171980   6.428   5.934   3.049
16855TIP3    H271981   6.335   6.035   3.112
16856TIP3   OH271982   3.047   0.971   0.418
16856TIP3    H171983   2.989   1.034   0.376
16856TIP3    H271984   2.993   0.932   0.487
16857TIP3   OH271985   3.175   5.053   3.498
16857TIP3    H171986   3.215   5.062   3.411
16857TIP3    H271987   3.249   5.060   3.559
16858TIP3   OH271988   4.132   4.504   6.691
16858TIP3    H171989   4.049   4.474   6.655
16858TIP3    H271990   4.128   4.600   6.684
16859TIP3   OH271991   0.231   4.344  14.524
16859TIP3    H171992   0.255   4.335  14.432
16859TIP3    H271993   0.273   4.270  14.568
16860TIP3   OH271994   4.452   5.164  13.523
16860TIP3    H171995   4.378   5.220  13.545
16860TIP3    H271996   4.414   5.077  13.513
16861TIP3   OH271997   5.992   6.174  16.677
16861TIP3    H171998   6.074   6.188  16.631
16861TIP3    H271999   5.967   6.262  16.708
16862TIP3   OH272000   4.966   3.870   6.298
16862TIP3    H172001   5.006   3.796   6.344
16862TIP3    H272002   5.040   3.928   6.277
16863TIP3   OH272003   3.829   1.503   2.805
16863TIP3    H172004   3.891   1.554   2.856
16863TIP3    H272005   3.882   1.438   2.760
16864TIP3   OH272006   3.395   2.136   5.370
16864TIP3    H172007   3.405   2.224   5.406
16864TIP3    H272008   3.314   2.103   5.410
16865TIP3   OH272009   3.009   6.639   1.078
16865TIP3    H172010   3.018   6.577   1.005
16865TIP3    H272011   2.939   6.698   1.051
16866TIP3   OH272012   2.391   1.629  11.829
16866TIP3    H172013   2.375   1.538  11.804
16866TIP3    H272014   2.310   1.675  11.808
16867TIP3   OH272015   2.690   5.136  16.547
16867TIP3    H172016   2.693   5.074  16.473
16867TIP3    H272017   2.781   5.146  16.573
16868TIP3   OH272018   2.723   0.266   1.273
16868TIP3    H172019   2.721   0.194   1.210
16868TIP3    H272020   2.816   0.287   1.282
16869TIP3   OH272021   4.520   0.073   6.241
16869TIP3    H172022   4.593   0.069   6.179
16869TIP3    H272023   4.517   0.165   6.269
16870TIP3   OH272024   3.434   1.089  12.772
16870TIP3    H172025   3.477   1.100  12.857
16870TIP3    H272026   3.421   1.178  12.740
16871TIP3   OH272027   1.071   5.609  15.805
16871TIP3    H172028   1.033   5.690  15.771
16871TIP3    H272029   1.038   5.603  15.895
16872TIP3   OH272030   6.525   6.201   4.075
16872TIP3    H172031   6.487   6.113   4.083
16872TIP3    H272032   6.502   6.244   4.157
16873TIP3   OH272033   5.023   4.927  14.598
16873TIP3    H172034   5.105   4.940  14.550
16873TIP3    H272035   4.965   4.883  14.535
16874TIP3   OH272036   1.789   0.091  16.543
16874TIP3    H172037   1.864   0.071  16.488
16874TIP3    H272038   1.757   0.005  16.572
16875TIP3   OH272039   4.432   2.027  13.403
16875TIP3    H172040   4.419   2.104  13.347
16875TIP3    H272041   4.441   2.062  13.491
16876TIP3   OH272042   4.364   2.146  10.702
16876TIP3    H172043   4.329   2.218  10.650
16876TIP3    H272044   4.428   2.104  10.644
16877TIP3   OH272045   0.722   3.586   1.590
16877TIP3    H172046   0.774   3.626   1.519
16877TIP3    H272047   0.636   3.628   1.583
16878TIP3   OH272048   6.109   0.836  13.924
16878TIP3    H172049   6.080   0.809  14.012
16878TIP3    H272050   6.183   0.895  13.940
16879TIP3   OH272051   6.620   3.705  15.472
16879TIP3    H172052   6.638   3.694  15.378
16879TIP3    H272053   6.531   3.740  15.475
16880TIP3   OH272054   4.295   2.655  10.604
16880TIP3    H172055   4.359   2.718  10.637
16880TIP3    H272056   4.222   2.709  10.573
16881TIP3   OH272057   4.749   1.735  13.728
16881TIP3    H172058   4.692   1.659  13.741
16881TIP3    H272059   4.707   1.805  13.779
16882TIP3   OH272060   0.487   0.414  13.225
16882TIP3    H172061   0.541   0.344  13.188
16882TIP3    H272062   0.402   0.404  13.183
16883TIP3   OH272063   3.177   2.786   0.350
16883TIP3    H172064   3.122   2.826   0.282
16883TIP3    H272065   3.226   2.717   0.305
16884TIP3   OH272066   1.114   0.702   3.965
16884TIP3    H172067   1.076   0.659   3.889
16884TIP3    H272068   1.043   0.708   4.028
16885TIP3   OH272069   3.178   0.158  12.071
16885TIP3    H172070   3.172   0.197  12.158
16885TIP3    H272071   3.197   0.066  12.087
16886TIP3   OH272072   3.998   2.563   0.550
16886TIP3    H172073   3.993   2.486   0.495
16886TIP3    H272074   4.092   2.581   0.557
16887TIP3   OH272075   0.449   6.216  15.444
16887TIP3    H172076   0.487   6.245  15.361
16887TIP3    H272077   0.371   6.270  15.455
16888TIP3   OH272078   4.011   3.614  13.221
16888TIP3    H172079   4.045   3.699  13.248
16888TIP3    H272080   4.043   3.553  13.287
16889TIP3   OH272081   5.516   5.494  10.290
16889TIP3    H172082   5.492   5.403  10.304
16889TIP3    H272083   5.476   5.516  10.206
16890TIP3   OH272084   2.815   1.105  17.214
16890TIP3    H172085   2.892   1.153  17.245
16890TIP3    H272086   2.745   1.170  17.215
16891TIP3   OH272087   2.448   5.467  11.593
16891TIP3    H172088   2.427   5.426  11.509
16891TIP3    H272089   2.432   5.399  11.658
16892TIP3   OH272090   2.258   6.732  14.454
16892TIP3    H172091   2.193   6.673  14.416
16892TIP3    H272092   2.213   6.774  14.527
16893TIP3   OH272093   1.696   2.199  16.754
16893TIP3    H172094   1.668   2.168  16.840
16893TIP3    H272095   1.771   2.143  16.731
16894TIP3   OH272096   2.428   4.028  14.525
16894TIP3    H172097   2.420   4.059  14.434
16894TIP3    H272098   2.357   3.966  14.536
16895TIP3   OH272099   3.786   1.473  14.646
16895TIP3    H172100   3.834   1.426  14.715
16895TIP3    H272101   3.768   1.559  14.685
16896TIP3   OH272102   6.005   1.584  13.073
16896TIP3    H172103   5.950   1.510  13.047
16896TIP3    H272104   5.995   1.648  13.002
16897TIP3   OH272105   3.513   0.801  13.625
16897TIP3    H172106   3.517   0.777  13.717
16897TIP3    H272107   3.425   0.836  13.612
16898TIP3   OH272108   0.707   3.814   1.788
16898TIP3    H172109   0.722   3.905   1.765
16898TIP3    H272110   0.629   3.789   1.737
16899TIP3   OH272111   6.196   0.601  13.217
16899TIP3    H172112   6.105   0.616  13.190
16899TIP3    H272113   6.219   0.517  13.176
16900TIP3   OH272114   2.618   6.516   5.782
16900TIP3    H172115   2.626   6.603   5.742
16900TIP3    H272116   2.699   6.506   5.832
16901TIP3   OH272117   1.302   6.566   4.564
16901TIP3    H172118   1.350   6.564   4.646
16901TIP3    H272119   1.282   6.659   4.550
16902TIP3   OH272120   2.907   1.061   1.811
16902TIP3    H172121   2.978   1.003   1.840
16902TIP3    H272122   2.895   1.038   1.718
16903TIP3   OH272123   3.245   3.748   2.807
16903TIP3    H172124   3.257   3.768   2.900
16903TIP3    H272125   3.153   3.769   2.789
16904TIP3   OH272126   1.441   3.626  10.879
16904TIP3    H172127   1.528   3.664  10.894
16904TIP3    H272128   1.458   3.543  10.835
16905TIP3   OH272129   1.207   3.289  15.783
16905TIP3    H172130   1.194   3.384  15.780
16905TIP3    H272131   1.123   3.254  15.815
16906TIP3   OH272132   0.481   1.314  16.246
16906TIP3    H172133   0.510   1.402  16.271
16906TIP3    H272134   0.500   1.260  16.323
16907TIP3   OH272135   2.796   5.570   1.656
16907TIP3    H172136   2.772   5.630   1.585
16907TIP3    H272137   2.733   5.588   1.725
16908TIP3   OH272138   2.302   3.193  13.415
16908TIP3    H172139   2.321   3.276  13.371
16908TIP3    H272140   2.342   3.127  13.359
16909TIP3   OH272141   1.917   2.397  16.780
16909TIP3    H172142   1.842   2.346  16.812
16909TIP3    H272143   1.940   2.454  16.853
16910TIP3   OH272144   4.590   6.225  12.799
16910TIP3    H172145   4.670   6.178  12.823
16910TIP3    H272146   4.588   6.222  12.703
16911TIP3   OH272147   6.516   1.301   2.496
16911TIP3    H172148   6.426   1.331   2.485
16911TIP3    H272149   6.547   1.281   2.408
16912TIP3   OH272150   1.085   3.468   2.936
16912TIP3    H172151   1.123   3.494   3.020
16912TIP3    H272152   1.140   3.395   2.907
16913TIP3   OH272153   6.179   5.694   3.181
16913TIP3    H172154   6.123   5.624   3.216
16913TIP3    H272155   6.208   5.742   3.259
16914TIP3   OH272156   1.370   4.557  15.071
16914TIP3    H172157   1.442   4.494  15.078
16914TIP3    H272158   1.307   4.515  15.012
16915TIP3   OH272159   6.564   1.446  12.038
16915TIP3    H172160   6.549   1.353  12.025
16915TIP3    H272161   6.643   1.451  12.091
16916TIP3   OH272162   5.751   4.855  14.127
16916TIP3    H172163   5.691   4.785  14.100
16916TIP3    H272164   5.791   4.885  14.046
16917TIP3   OH272165   4.959   3.784  14.766
16917TIP3    H172166   5.054   3.768  14.768
16917TIP3    H272167   4.931   3.768  14.856
16918TIP3   OH272168   6.662   1.945   1.115
16918TIP3    H172169   6.621   1.903   1.190
16918TIP3    H272170   6.731   1.885   1.087
16919TIP3   OH272171   2.158   2.045  15.238
16919TIP3    H172172   2.212   2.077  15.166
16919TIP3    H272173   2.170   1.950  15.236
16920TIP3   OH272174   4.801   6.294   3.446
16920TIP3    H172175   4.820   6.215   3.496
16920TIP3    H272176   4.861   6.290   3.371
16921TIP3   OH272177   1.569   0.107  17.117
16921TIP3    H172178   1.589   0.028  17.167
16921TIP3    H272179   1.622   0.176  17.157
16922TIP3   OH272180   0.663   5.275  16.655
16922TIP3    H172181   0.738   5.274  16.714
16922TIP3    H272182   0.595   5.324  16.703
16923TIP3   OH272183   0.835   2.079   3.978
16923TIP3    H172184   0.800   2.137   3.910
16923TIP3    H272185   0.906   2.032   3.934
16924TIP3   OH272186   3.892   3.202   4.638
16924TIP3    H172187   3.861   3.240   4.555
16924TIP3    H272188   3.813   3.191   4.690
16925TIP3   OH272189   4.824   6.502  13.669
16925TIP3    H172190   4.897   6.563  13.659
16925TIP3    H272191   4.835   6.465  13.756
16926TIP3   OH272192   4.963   3.944  15.345
16926TIP3    H172193   4.943   4.013  15.408
16926TIP3    H272194   4.991   3.870  15.398
16927TIP3   OH272195   2.906   0.705   1.467
16927TIP3    H172196   2.860   0.783   1.498
16927TIP3    H272197   2.871   0.633   1.519
16928TIP3   OH272198   4.044   5.245  11.394
16928TIP3    H172199   4.009   5.218  11.479
16928TIP3    H272200   4.015   5.336  11.384
16929TIP3   OH272201   5.215   0.933  14.449
16929TIP3    H172202   5.276   0.943  14.376
16929TIP3    H272203   5.245   0.856  14.496
16930TIP3   OH272204   3.435   3.662  12.990
16930TIP3    H172205   3.355   3.611  12.980
16930TIP3    H272206   3.446   3.673  13.084
16931TIP3   OH272207   3.896   4.066  15.396
16931TIP3    H172208   3.926   4.006  15.328
16931TIP3    H272209   3.938   4.149  15.375
16932TIP3   OH272210   0.652   4.623   3.045
16932TIP3    H172211   0.661   4.651   2.954
16932TIP3    H272212   0.558   4.616   3.059
16933TIP3   OH272213   3.560   4.664  15.616
16933TIP3    H172214   3.549   4.654  15.522
16933TIP3    H272215   3.475   4.698  15.647
16934TIP3   OH272216   3.561   2.609   1.832
16934TIP3    H172217   3.553   2.627   1.739
16934TIP3    H272218   3.472   2.614   1.866
16935TIP3   OH272219   6.344   5.242   4.134
16935TIP3    H172220   6.415   5.177   4.135
16935TIP3    H272221   6.371   5.304   4.066
16936TIP3   OH272222   5.952   3.520  13.793
16936TIP3    H172223   5.986   3.458  13.857
16936TIP3    H272224   5.966   3.606  13.834
16937TIP3   OH272225   4.611   0.308  15.617
16937TIP3    H172226   4.698   0.321  15.579
16937TIP3    H272227   4.565   0.253  15.554
16938TIP3   OH272228   6.519   6.554   1.087
16938TIP3    H172229   6.597   6.500   1.080
16938TIP3    H272230   6.492   6.547   1.178
16939TIP3   OH272231   1.255   0.460   5.236
16939TIP3    H172232   1.172   0.426   5.200
16939TIP3    H272233   1.243   0.554   5.238
16940TIP3   OH272234   4.845   0.143   1.855
16940TIP3    H172235   4.774   0.175   1.911
16940TIP3    H272236   4.840   0.048   1.861
16941TIP3   OH272237   0.681   2.398   4.138
16941TIP3    H172238   0.721   2.409   4.224
16941TIP3    H272239   0.666   2.304   4.129
16942TIP3   OH272240   4.076   5.386  12.517
16942TIP3    H172241   4.170   5.398  12.533
16942TIP3    H272242   4.034   5.455  12.570
16943TIP3   OH272243   0.511   2.194  14.808
16943TIP3    H172244   0.583   2.132  14.790
16943TIP3    H272245   0.540   2.241  14.886
16944TIP3   OH272246   5.930   1.741   3.818
16944TIP3    H172247   5.884   1.715   3.898
16944TIP3    H272248   5.926   1.663   3.762
16945TIP3   OH272249   1.444   5.122  12.813
16945TIP3    H172250   1.379   5.166  12.867
16945TIP3    H272251   1.422   5.029  12.819
16946TIP3   OH272252   1.235   2.177   1.464
16946TIP3    H172253   1.243   2.178   1.369
16946TIP3    H272254   1.228   2.084   1.486
16947TIP3   OH272255   1.127   6.063  14.480
16947TIP3    H172256   1.061   5.994  14.491
16947TIP3    H272257   1.140   6.070  14.386
16948TIP3   OH272258   4.957   5.982  14.547
16948TIP3    H172259   4.866   5.953  14.546
16948TIP3    H272260   4.967   6.024  14.632
16949TIP3   OH272261   1.341   2.838  15.393
16949TIP3    H172262   1.387   2.917  15.363
16949TIP3    H272263   1.357   2.835  15.487
16950TIP3   OH272264   2.072   0.185  15.148
16950TIP3    H172265   2.106   0.252  15.089
16950TIP3    H272266   2.145   0.165  15.206
16951TIP3   OH272267   5.648   0.531  16.327
16951TIP3    H172268   5.601   0.605  16.289
16951TIP3    H272269   5.616   0.455  16.279
16952TIP3   OH272270   3.239   0.427   4.195
16952TIP3    H172271   3.206   0.480   4.122
16952TIP3    H272272   3.192   0.344   4.188
16953TIP3   OH272273   4.231   0.967   4.567
16953TIP3    H172274   4.171   0.918   4.511
16953TIP3    H272275   4.176   1.001   4.638
16954TIP3   OH272276   2.474   5.397  13.025
16954TIP3    H172277   2.393   5.361  13.062
16954TIP3    H272278   2.492   5.475  13.078
16955TIP3   OH272279   6.786   5.891   4.238
16955TIP3    H172280   6.716   5.826   4.238
16955TIP3    H272281   6.854   5.854   4.293
16956TIP3   OH272282   0.878   2.610  12.731
16956TIP3    H172283   0.859   2.702  12.751
16956TIP3    H272284   0.974   2.606  12.730
16957TIP3   OH272285   5.886   3.430   3.857
16957TIP3    H172286   5.871   3.499   3.922
16957TIP3    H272287   5.799   3.405   3.828
16958TIP3   OH272288   5.053   6.783  14.064
16958TIP3    H172289   5.055   6.690  14.042
16958TIP3    H272290   4.992   6.821  14.001
16959TIP3   OH272291   3.200   5.491   2.588
16959TIP3    H172292   3.111   5.478   2.621
16959TIP3    H272293   3.254   5.430   2.639
16960TIP3   OH272294   5.514   0.906   3.837
16960TIP3    H172295   5.424   0.892   3.864
16960TIP3    H272296   5.507   0.940   3.747
16961TIP3   OH272297   3.492   6.683   4.468
16961TIP3    H172298   3.534   6.648   4.547
16961TIP3    H272299   3.565   6.717   4.416
16962TIP3   OH272300   6.363   3.396  11.814
16962TIP3    H172301   6.323   3.354  11.891
16962TIP3    H272302   6.312   3.363  11.740
16963TIP3   OH272303   2.142   4.388  11.892
16963TIP3    H172304   2.162   4.294  11.896
16963TIP3    H272305   2.054   4.393  11.856
16964TIP3   OH272306   2.238   4.514  11.538
16964TIP3    H172307   2.329   4.543  11.546
16964TIP3    H272308   2.193   4.588  11.497
16965TIP3   OH272309   5.252   1.666  11.296
16965TIP3    H172310   5.330   1.661  11.240
16965TIP3    H272311   5.237   1.575  11.324
16966TIP3   OH272312   4.439   1.487   2.679
16966TIP3    H172313   4.413   1.465   2.768
16966TIP3    H272314   4.522   1.440   2.666
16967TIP3   OH272315   0.952   6.566  12.898
16967TIP3    H172316   0.857   6.578  12.899
16967TIP3    H272317   0.970   6.510  12.974
16968TIP3   OH272318   2.120   5.870   4.269
16968TIP3    H172319   2.111   5.829   4.355
16968TIP3    H272320   2.070   5.814   4.211
16969TIP3   OH272321   1.120   4.499   0.743
16969TIP3    H172322   1.196   4.505   0.800
16969TIP3    H272323   1.144   4.549   0.665
16970TIP3   OH272324   4.327   3.782   1.261
16970TIP3    H172325   4.389   3.743   1.199
16970TIP3    H272326   4.347   3.875   1.260
16971TIP3   OH272327   2.868   2.751   4.935
16971TIP3    H172328   2.937   2.696   4.972
16971TIP3    H272329   2.786   2.708   4.960
16972TIP3   OH272330   1.466   0.804  15.078
16972TIP3    H172331   1.428   0.718  15.098
16972TIP3    H272332   1.521   0.824  15.154
16973TIP3   OH272333   4.752   6.195   4.445
16973TIP3    H172334   4.776   6.287   4.445
16973TIP3    H272335   4.816   6.153   4.502
16974TIP3   OH272336   2.948   4.341  16.776
16974TIP3    H172337   3.012   4.275  16.801
16974TIP3    H272338   2.940   4.398  16.852
16975TIP3   OH272339   6.754   4.392  11.585
16975TIP3    H172340   6.777   4.449  11.511
16975TIP3    H272341   6.837   4.378  11.630
16976TIP3   OH272342   6.501   3.425   0.696
16976TIP3    H172343   6.465   3.506   0.660
16976TIP3    H272344   6.424   3.371   0.715
16977TIP3   OH272345   4.455   6.268  14.638
16977TIP3    H172346   4.508   6.218  14.700
16977TIP3    H272347   4.423   6.203  14.575
16978TIP3   OH272348   6.324   5.716   5.326
16978TIP3    H172349   6.315   5.809   5.347
16978TIP3    H272350   6.327   5.714   5.230
16979TIP3   OH272351   2.958   2.159   0.314
16979TIP3    H172352   3.047   2.133   0.292
16979TIP3    H272353   2.930   2.214   0.240
16980TIP3   OH272354   2.950   4.493   3.796
16980TIP3    H172355   2.965   4.427   3.728
16980TIP3    H272356   2.943   4.443   3.877
16981TIP3   OH272357   4.004   2.607   2.019
16981TIP3    H172358   4.017   2.697   1.990
16981TIP3    H272359   4.025   2.608   2.112
16982TIP3   OH272360   6.650   2.346  17.055
16982TIP3    H172361   6.731   2.315  17.014
16982TIP3    H272362   6.586   2.347  16.983
16983TIP3   OH272363   1.813   2.918  12.314
16983TIP3    H172364   1.854   2.927  12.400
16983TIP3    H272365   1.828   2.827  12.289
16984TIP3   OH272366   5.023   0.731   4.351
16984TIP3    H172367   4.999   0.758   4.440
16984TIP3    H272368   4.941   0.735   4.301
16985TIP3   OH272369   1.845   3.406   2.533
16985TIP3    H172370   1.809   3.439   2.615
16985TIP3    H272371   1.933   3.375   2.557
16986TIP3   OH272372   1.096   6.688   0.853
16986TIP3    H172373   1.116   6.776   0.820
16986TIP3    H272374   1.004   6.674   0.829
16987TIP3   OH272375   5.072   3.887  16.402
16987TIP3    H172376   5.104   3.834  16.475
16987TIP3    H272377   5.121   3.969  16.409
16988TIP3   OH272378   5.193   4.797   4.254
16988TIP3    H172379   5.160   4.814   4.342
16988TIP3    H272380   5.173   4.705   4.238
16989TIP3   OH272381   4.174   3.488  13.413
16989TIP3    H172382   4.231   3.528  13.478
16989TIP3    H272383   4.228   3.422  13.370
16990TIP3   OH272384   5.455   5.024   1.267
16990TIP3    H172385   5.497   4.984   1.343
16990TIP3    H272386   5.499   4.983   1.192
16991TIP3   OH272387   3.314   5.373   3.038
16991TIP3    H172388   3.341   5.444   3.097
16991TIP3    H272389   3.384   5.308   3.045
16992TIP3   OH272390   2.879   6.194  14.533
16992TIP3    H172391   2.928   6.165  14.610
16992TIP3    H272392   2.945   6.198  14.463
16993TIP3   OH272393   2.698   5.742  15.363
16993TIP3    H172394   2.666   5.726  15.274
16993TIP3    H272395   2.618   5.754  15.415
16994TIP3   OH272396   6.785   5.246   2.750
16994TIP3    H172397   6.834   5.321   2.719
16994TIP3    H272398   6.766   5.265   2.842
16995TIP3   OH272399   0.455   2.382  14.566
16995TIP3    H172400   0.448   2.400  14.659
16995TIP3    H272401   0.367   2.393  14.532
16996TIP3   OH272402   0.055   2.769   4.107
16996TIP3    H172403   0.122   2.708   4.139
16996TIP3    H272404  -0.011   2.770   4.176
16997TIP3   OH272405   1.813   1.513  12.325
16997TIP3    H172406   1.760   1.519  12.405
16997TIP3    H272407   1.758   1.552  12.257
16998TIP3   OH272408   6.126   0.415   2.736
16998TIP3    H172409   6.132   0.354   2.663
16998TIP3    H272410   6.180   0.490   2.709
16999TIP3   OH272411   3.453   1.806   0.099
16999TIP3    H172412   3.503   1.824   0.019
16999TIP3    H272413   3.361   1.815   0.072
17000TIP3   OH272414   3.622   5.898  14.065
17000TIP3    H172415   3.552   5.915  14.002
17000TIP3    H272416   3.579   5.848  14.135
17001TIP3   OH272417   6.719   0.475  16.801
17001TIP3    H172418   6.657   0.540  16.768
17001TIP3    H272419   6.687   0.452  16.888
17002TIP3   OH272420   1.776   2.027   1.498
17002TIP3    H172421   1.728   1.945   1.494
17002TIP3    H272422   1.868   2.002   1.493
17003TIP3   OH272423   1.940   6.653  14.090
17003TIP3    H172424   1.975   6.615  14.010
17003TIP3    H272425   1.874   6.590  14.120
17004TIP3   OH272426   1.300   6.115  11.436
17004TIP3    H172427   1.349   6.033  11.439
17004TIP3    H272428   1.300   6.139  11.343
17005TIP3   OH272429   0.083   5.381  16.215
17005TIP3    H172430   0.111   5.388  16.124
17005TIP3    H272431   0.006   5.438  16.221
17006TIP3   OH272432   6.212   4.347  16.571
17006TIP3    H172433   6.205   4.408  16.645
17006TIP3    H272434   6.283   4.288  16.595
17007TIP3   OH272435   6.299   1.896   3.244
17007TIP3    H172436   6.245   1.818   3.258
17007TIP3    H272437   6.373   1.886   3.305
17008TIP3   OH272438   6.135   2.687  13.763
17008TIP3    H172439   6.077   2.615  13.786
17008TIP3    H272440   6.222   2.656  13.787
17009TIP3   OH272441   1.415   3.768  11.910
17009TIP3    H172442   1.472   3.693  11.927
17009TIP3    H272443   1.466   3.826  11.855
17010TIP3   OH272444   3.844   3.604   3.636
17010TIP3    H172445   3.854   3.578   3.544
17010TIP3    H272446   3.811   3.694   3.631
17011TIP3   OH272447   6.449   5.195   6.362
17011TIP3    H172448   6.521   5.230   6.416
17011TIP3    H272449   6.389   5.269   6.353
17012TIP3   OH272450   1.474   5.025   0.385
17012TIP3    H172451   1.395   5.080   0.387
17012TIP3    H272452   1.466   4.969   0.462
17013TIP3   OH272453   5.867   2.375   1.506
17013TIP3    H172454   5.907   2.365   1.419
17013TIP3    H272455   5.774   2.386   1.487
17014TIP3   OH272456   0.230   3.916   4.849
17014TIP3    H172457   0.244   4.010   4.836
17014TIP3    H272458   0.263   3.876   4.768
17015TIP3   OH272459   5.914   1.289   0.579
17015TIP3    H172460   5.902   1.194   0.587
17015TIP3    H272461   5.887   1.324   0.663
17016TIP3   OH272462   2.515   6.572  11.217
17016TIP3    H172463   2.507   6.655  11.170
17016TIP3    H272464   2.435   6.525  11.196
17017TIP3   OH272465   5.952   0.656   2.415
17017TIP3    H172466   5.955   0.642   2.509
17017TIP3    H272467   5.954   0.751   2.404
17018TIP3   OH272468   5.871   2.910   5.234
17018TIP3    H172469   5.911   2.838   5.283
17018TIP3    H272470   5.830   2.965   5.300
17019TIP3   OH272471   1.627   3.397   6.417
17019TIP3    H172472   1.640   3.313   6.374
17019TIP3    H272473   1.701   3.405   6.477
17020TIP3   OH272474   2.523   0.808   5.881
17020TIP3    H172475   2.483   0.722   5.868
17020TIP3    H272476   2.491   0.836   5.967
17021TIP3   OH272477   3.588   2.758   5.403
17021TIP3    H172478   3.540   2.749   5.486
17021TIP3    H272479   3.573   2.849   5.377
17022TIP3   OH272480   0.257   1.381   6.214
17022TIP3    H172481   0.218   1.336   6.139
17022TIP3    H272482   0.203   1.354   6.288
17023TIP3   OH272483   1.502   4.345   3.880
17023TIP3    H172484   1.575   4.378   3.932
17023TIP3    H272485   1.518   4.251   3.874
17024TIP3   OH272486   2.025   3.609  16.162
17024TIP3    H172487   2.095   3.669  16.134
17024TIP3    H272488   1.956   3.623  16.098
17025TIP3   OH272489   3.661   6.539  14.030
17025TIP3    H172490   3.750   6.565  14.007
17025TIP3    H272491   3.616   6.531  13.946
17026TIP3   OH272492   0.345   2.490  13.251
17026TIP3    H172493   0.317   2.450  13.334
17026TIP3    H272494   0.421   2.440  13.224
17027TIP3   OH272495   2.711   1.249   1.590
17027TIP3    H172496   2.701   1.319   1.653
17027TIP3    H272497   2.795   1.267   1.547
17028TIP3   OH272498   6.663   6.336  11.752
17028TIP3    H172499   6.680   6.409  11.693
17028TIP3    H272500   6.640   6.376  11.836
17029TIP3   OH272501   5.079   2.663   2.997
17029TIP3    H172502   4.994   2.671   2.955
17029TIP3    H272503   5.121   2.748   2.986
17030TIP3   OH272504   3.883   2.882  16.233
17030TIP3    H172505   3.808   2.933  16.263
17030TIP3    H272506   3.926   2.938  16.168
17031TIP3   OH272507   3.616   1.789  15.296
17031TIP3    H172508   3.691   1.819  15.245
17031TIP3    H272509   3.542   1.795  15.236
17032TIP3   OH272510   1.007   2.649   0.831
17032TIP3    H172511   1.069   2.612   0.768
17032TIP3    H272512   1.057   2.718   0.875
17033TIP3   OH272513   1.938   4.271   6.509
17033TIP3    H172514   1.890   4.353   6.498
17033TIP3    H272515   2.025   4.288   6.471
17034TIP3   OH272516   3.871   4.578   3.332
17034TIP3    H172517   3.959   4.573   3.369
17034TIP3    H272518   3.875   4.522   3.254
17035TIP3   OH272519   4.058   2.514   3.169
17035TIP3    H172520   3.973   2.519   3.213
17035TIP3    H272521   4.038   2.521   3.076
17036TIP3   OH272522   5.160   2.794   5.005
17036TIP3    H172523   5.197   2.813   4.918
17036TIP3    H272524   5.184   2.703   5.021
17037TIP3   OH272525   2.450   1.676   4.524
17037TIP3    H172526   2.432   1.588   4.491
17037TIP3    H272527   2.368   1.704   4.564
17038TIP3   OH272528   4.903   1.495  11.369
17038TIP3    H172529   4.965   1.562  11.341
17038TIP3    H272530   4.949   1.412  11.354
17039TIP3   OH272531   4.271   4.131   2.210
17039TIP3    H172532   4.290   4.129   2.303
17039TIP3    H272533   4.178   4.151   2.204
17040TIP3   OH272534   3.437   0.658  14.260
17040TIP3    H172535   3.393   0.579  14.229
17040TIP3    H272536   3.411   0.666  14.351
17041TIP3   OH272537   6.077   4.018  14.394
17041TIP3    H172538   6.141   3.979  14.454
17041TIP3    H272539   6.121   4.097  14.362
17042TIP3   OH272540   3.967   3.881  12.520
17042TIP3    H172541   4.018   3.852  12.595
17042TIP3    H272542   3.996   3.825  12.448
17043TIP3   OH272543   5.431   6.753  12.049
17043TIP3    H172544   5.430   6.667  12.091
17043TIP3    H272545   5.499   6.801  12.097
17044TIP3   OH272546   4.599   5.738   6.086
17044TIP3    H172547   4.655   5.815   6.077
17044TIP3    H272548   4.522   5.770   6.133
17045TIP3   OH272549   1.737   3.534  16.559
17045TIP3    H172550   1.760   3.508  16.470
17045TIP3    H272551   1.750   3.455  16.612
17046TIP3   OH272552   0.308   3.858  14.742
17046TIP3    H172553   0.220   3.852  14.780
17046TIP3    H272554   0.354   3.781  14.775
17047TIP3   OH272555   0.624   4.396   4.758
17047TIP3    H172556   0.709   4.430   4.727
17047TIP3    H272557   0.579   4.368   4.679
17048TIP3   OH272558   4.297   1.513  13.528
17048TIP3    H172559   4.230   1.510  13.460
17048TIP3    H272560   4.364   1.450  13.498
17049TIP3   OH272561   6.429   0.612   1.079
17049TIP3    H172562   6.488   0.686   1.093
17049TIP3    H272563   6.341   0.651   1.080
17050TIP3   OH272564   5.448   4.338   3.055
17050TIP3    H172565   5.423   4.360   2.965
17050TIP3    H272566   5.534   4.378   3.066
17051TIP3   OH272567   2.830   4.633  14.261
17051TIP3    H172568   2.813   4.646  14.354
17051TIP3    H272569   2.790   4.709  14.219
17052TIP3   OH272570   0.212   6.701  14.719
17052TIP3    H172571   0.259   6.686  14.800
17052TIP3    H272572   0.201   6.614  14.680
17053TIP3   OH272573   2.685   1.215  14.536
17053TIP3    H172574   2.736   1.239  14.459
17053TIP3    H272575   2.616   1.281  14.541
17054TIP3   OH272576   4.016   5.389  11.873
17054TIP3    H172577   3.960   5.427  11.941
17054TIP3    H272578   4.065   5.464  11.839
17055TIP3   OH272579   1.994   6.468  14.855
17055TIP3    H172580   1.907   6.499  14.831
17055TIP3    H272581   1.983   6.427  14.940
17056TIP3   OH272582   6.132   4.435  13.513
17056TIP3    H172583   6.116   4.461  13.604
17056TIP3    H272584   6.222   4.401  13.513
17057TIP3   OH272585   3.214   3.847   6.257
17057TIP3    H172586   3.252   3.788   6.322
17057TIP3    H272587   3.147   3.896   6.304
17058TIP3   OH272588   0.040   6.698   5.907
17058TIP3    H172589   0.072   6.627   5.963
17058TIP3    H272590  -0.051   6.676   5.889
17059TIP3   OH272591   5.747   3.556  14.165
17059TIP3    H172592   5.707   3.584  14.082
17059TIP3    H272593   5.801   3.630  14.192
17060TIP3   OH272594   5.021   1.340  11.740
17060TIP3    H172595   5.055   1.393  11.812
17060TIP3    H272596   4.995   1.403  11.673
17061TIP3   OH272597   4.868   0.393   2.211
17061TIP3    H172598   4.794   0.343   2.245
17061TIP3    H272599   4.830   0.476   2.183
17062TIP3   OH272600   5.413   1.089   2.239
17062TIP3    H172601   5.443   1.032   2.310
17062TIP3    H272602   5.443   1.177   2.264
17063TIP3   OH272603   1.593   2.747  15.853
17063TIP3    H172604   1.569   2.808  15.922
17063TIP3    H272605   1.662   2.792  15.804
17064TIP3   OH272606   3.304   3.675   6.476
17064TIP3    H172607   3.233   3.616   6.502
17064TIP3    H272608   3.378   3.648   6.530
17065TIP3   OH272609   6.742   4.844  16.263
17065TIP3    H172610   6.753   4.824  16.170
17065TIP3    H272611   6.731   4.939  16.266
17066TIP3   OH272612   2.953   2.380   1.552
17066TIP3    H172613   2.984   2.317   1.487
17066TIP3    H272614   2.986   2.346   1.635
17067TIP3   OH272615   3.879   1.496   3.203
17067TIP3    H172616   3.899   1.500   3.297
17067TIP3    H272617   3.961   1.467   3.163
17068TIP3   OH272618   3.298   2.064   4.975
17068TIP3    H172619   3.349   1.996   5.021
17068TIP3    H272620   3.336   2.146   5.006
17069TIP3   OH272621   5.622   4.250   0.379
17069TIP3    H172622   5.601   4.170   0.331
17069TIP3    H272623   5.700   4.284   0.336
17070TIP3   OH272624   3.501   4.488   5.132
17070TIP3    H172625   3.543   4.542   5.065
17070TIP3    H272626   3.561   4.491   5.206
17071TIP3   OH272627   6.663   5.736  10.467
17071TIP3    H172628   6.609   5.674  10.418
17071TIP3    H272629   6.603   5.805  10.493
17072TIP3   OH272630   5.432   2.718  16.516
17072TIP3    H172631   5.360   2.693  16.458
17072TIP3    H272632   5.398   2.703  16.604
17073TIP3   OH272633   5.829   2.932   1.260
17073TIP3    H172634   5.830   2.851   1.209
17073TIP3    H272635   5.751   2.978   1.229
17074TIP3   OH272636   0.034   1.869   0.291
17074TIP3    H172637   0.103   1.917   0.244
17074TIP3    H272638   0.066   1.865   0.381
17075TIP3   OH272639   3.373   3.093  11.368
17075TIP3    H172640   3.391   3.168  11.424
17075TIP3    H272641   3.448   3.035  11.380
17076TIP3   OH272642   0.862   1.681  12.620
17076TIP3    H172643   0.848   1.590  12.643
17076TIP3    H272644   0.890   1.679  12.528
17077TIP3   OH272645   0.424   0.259   6.290
17077TIP3    H172646   0.388   0.238   6.203
17077TIP3    H272647   0.493   0.194   6.304
17078TIP3   OH272648   0.820   3.911   3.087
17078TIP3    H172649   0.879   3.852   3.040
17078TIP3    H272650   0.734   3.870   3.079
17079TIP3   OH272651   3.201   6.400  11.104
17079TIP3    H172652   3.151   6.330  11.062
17079TIP3    H272653   3.287   6.361  11.122
17080TIP3   OH272654   5.037   1.319   2.534
17080TIP3    H172655   5.036   1.360   2.621
17080TIP3    H272656   4.992   1.235   2.547
17081TIP3   OH272657   1.200   6.554  16.351
17081TIP3    H172658   1.263   6.482  16.355
17081TIP3    H272659   1.133   6.532  16.416
17082TIP3   OH272660   2.962   6.705   1.669
17082TIP3    H172661   2.920   6.676   1.750
17082TIP3    H272662   2.901   6.768   1.630
17083TIP3   OH272663   3.551   4.350   3.168
17083TIP3    H172664   3.622   4.290   3.146
17083TIP3    H272665   3.503   4.306   3.238
17084TIP3   OH272666   3.609   6.192  15.727
17084TIP3    H172667   3.646   6.260  15.782
17084TIP3    H272668   3.683   6.134  15.707
17085TIP3   OH272669   3.362   5.783  15.960
17085TIP3    H172670   3.430   5.812  15.900
17085TIP3    H272671   3.311   5.720  15.909
17086TIP3   OH272672   2.620   2.875   4.094
17086TIP3    H172673   2.554   2.846   4.156
17086TIP3    H272674   2.633   2.800   4.036
17087TIP3   OH272675   3.233   2.404  16.682
17087TIP3    H172676   3.271   2.488  16.706
17087TIP3    H272677   3.258   2.391  16.591
17088TIP3   OH272678   4.129   4.856   4.203
17088TIP3    H172679   4.171   4.919   4.261
17088TIP3    H272680   4.090   4.791   4.261
17089TIP3   OH272681   2.276   5.818  11.297
17089TIP3    H172682   2.291   5.825  11.203
17089TIP3    H272683   2.290   5.907  11.330
17090TIP3   OH272684   2.076   3.011  14.389
17090TIP3    H172685   2.033   3.007  14.474
17090TIP3    H272686   2.170   3.013  14.410
17091TIP3   OH272687   4.622   6.435  16.804
17091TIP3    H172688   4.598   6.520  16.766
17091TIP3    H272689   4.568   6.371  16.757
17092TIP3   OH272690   2.752   4.735  15.053
17092TIP3    H172691   2.814   4.796  15.014
17092TIP3    H272692   2.739   4.768  15.142
17093TIP3   OH272693   1.045   0.801  13.228
17093TIP3    H172694   0.949   0.807  13.232
17093TIP3    H272695   1.063   0.707  13.231
17094TIP3   OH272696   5.920   4.854   6.047
17094TIP3    H172697   5.894   4.771   6.087
17094TIP3    H272698   5.848   4.913   6.066
17095TIP3   OH272699   3.979   1.935  12.053
17095TIP3    H172700   3.939   1.882  11.985
17095TIP3    H272701   4.020   1.871  12.112
17096TIP3   OH272702   2.578   0.413   0.259
17096TIP3    H172703   2.606   0.369   0.339
17096TIP3    H272704   2.642   0.387   0.193
17097TIP3   OH272705   0.545   0.163   5.834
17097TIP3    H172706   0.550   0.127   5.745
17097TIP3    H272707   0.490   0.101   5.882
17098TIP3   OH272708   5.755   5.164   2.517
17098TIP3    H172709   5.767   5.082   2.565
17098TIP3    H272710   5.660   5.173   2.508
17099TIP3   OH272711   1.531   4.132   3.259
17099TIP3    H172712   1.526   4.213   3.209
17099TIP3    H272713   1.610   4.139   3.311
17100TIP3   OH272714   4.365   5.555  16.438
17100TIP3    H172715   4.328   5.608  16.508
17100TIP3    H272716   4.444   5.517  16.475
17101TIP3   OH272717   5.126   1.704  12.186
17101TIP3    H172718   5.080   1.692  12.102
17101TIP3    H272719   5.107   1.624  12.235
17102TIP3   OH272720   6.360   1.546  12.215
17102TIP3    H172721   6.402   1.463  12.192
17102TIP3    H272722   6.409   1.611  12.165
17103TIP3   OH272723   4.521   2.900  15.919
17103TIP3    H172724   4.565   2.847  15.853
17103TIP3    H272725   4.432   2.911  15.886
17104TIP3   OH272726   0.255   6.039   1.121
17104TIP3    H172727   0.309   6.114   1.096
17104TIP3    H272728   0.300   6.002   1.197
17105TIP3   OH272729   4.729   1.440   0.853
17105TIP3    H172730   4.759   1.459   0.764
17105TIP3    H272731   4.793   1.377   0.886
17106TIP3   OH272732   1.299   5.205   5.159
17106TIP3    H172733   1.256   5.157   5.230
17106TIP3    H272734   1.227   5.229   5.100
17107TIP3   OH272735   2.509   4.217   5.948
17107TIP3    H172736   2.418   4.233   5.925
17107TIP3    H272737   2.546   4.174   5.871
17108TIP3   OH272738   5.565   3.114  12.510
17108TIP3    H172739   5.589   3.092  12.600
17108TIP3    H272740   5.500   3.184  12.519
17109TIP3   OH272741   4.156   1.607   2.158
17109TIP3    H172742   4.148   1.569   2.245
17109TIP3    H272743   4.071   1.593   2.117
17110TIP3   OH272744   2.671   3.841   5.048
17110TIP3    H172745   2.585   3.858   5.009
17110TIP3    H272746   2.732   3.882   4.987
17111TIP3   OH272747   0.291   2.253   1.300
17111TIP3    H172748   0.322   2.172   1.341
17111TIP3    H272749   0.201   2.233   1.274
17112TIP3   OH272750   4.531   4.139   4.758
17112TIP3    H172751   4.473   4.063   4.755
17112TIP3    H272752   4.536   4.162   4.851
17113TIP3   OH272753   6.750   3.246   2.507
17113TIP3    H172754   6.682   3.299   2.549
17113TIP3    H272755   6.702   3.176   2.463
17114TIP3   OH272756   2.370   0.689   1.000
17114TIP3    H172757   2.343   0.621   0.938
17114TIP3    H272758   2.458   0.663   1.027
17115TIP3   OH272759   5.516   5.688  15.409
17115TIP3    H172760   5.568   5.620  15.367
17115TIP3    H272761   5.504   5.754  15.340
17116TIP3   OH272762   4.974   3.381  13.554
17116TIP3    H172763   5.046   3.404  13.613
17116TIP3    H272764   5.002   3.413  13.468
17117TIP3   OH272765   6.203   2.493   6.126
17117TIP3    H172766   6.175   2.553   6.195
17117TIP3    H272767   6.217   2.410   6.172
17118TIP3   OH272768   4.325   5.504  16.085
17118TIP3    H172769   4.332   5.492  15.990
17118TIP3    H272770   4.247   5.558  16.096
17119TIP3   OH272771   3.968   5.772  10.397
17119TIP3    H172772   3.996   5.859  10.425
17119TIP3    H272773   4.044   5.716  10.415
17120TIP3   OH272774   0.570   0.159  13.545
17120TIP3    H172775   0.618   0.096  13.599
17120TIP3    H272776   0.638   0.213  13.505
17121TIP3   OH272777   1.221   1.093   4.778
17121TIP3    H172778   1.192   1.004   4.800
17121TIP3    H272779   1.287   1.080   4.710
17122TIP3   OH272780   2.701   0.698  12.212
17122TIP3    H172781   2.684   0.789  12.189
17122TIP3    H272782   2.615   0.656  12.214
17123TIP3   OH272783   6.156   5.440  15.088
17123TIP3    H172784   6.154   5.453  15.182
17123TIP3    H272785   6.072   5.475  15.058
17124TIP3   OH272786   5.670   3.158  16.570
17124TIP3    H172787   5.746   3.196  16.525
17124TIP3    H272788   5.637   3.230  16.624
17125TIP3   OH272789   5.634   6.338  16.902
17125TIP3    H172790   5.650   6.278  16.975
17125TIP3    H272791   5.721   6.364  16.873
17126TIP3   OH272792   5.850   3.815  14.238
17126TIP3    H172793   5.941   3.835  14.257
17126TIP3    H272794   5.818   3.889  14.187
17127TIP3   OH272795   5.202   4.886   1.228
17127TIP3    H172796   5.293   4.903   1.252
17127TIP3    H272797   5.151   4.922   1.301
17128TIP3   OH272798   0.843   3.567  12.350
17128TIP3    H172799   0.916   3.610  12.394
17128TIP3    H272800   0.843   3.605  12.261
17129TIP3   OH272801   4.817   6.772   1.129
17129TIP3    H172802   4.834   6.823   1.208
17129TIP3    H272803   4.758   6.703   1.157
17130TIP3   OH272804   4.147   4.160   1.322
17130TIP3    H172805   4.223   4.177   1.377
17130TIP3    H272806   4.073   4.196   1.371
17131TIP3   OH272807   4.284   4.813  15.209
17131TIP3    H172808   4.303   4.814  15.115
17131TIP3    H272809   4.208   4.755  15.217
17132TIP3   OH272810   4.424   1.707  11.503
17132TIP3    H172811   4.397   1.619  11.531
17132TIP3    H272812   4.445   1.753  11.584
17133TIP3   OH272813   0.213   6.093  15.548
17133TIP3    H172814   0.191   6.003  15.524
17133TIP3    H272815   0.285   6.117  15.489
17134TIP3   OH272816   5.033   6.752   6.126
17134TIP3    H172817   5.002   6.815   6.192
17134TIP3    H272818   4.955   6.727   6.078
17135TIP3   OH272819   6.118   0.935  16.680
17135TIP3    H172820   6.108   0.973  16.593
17135TIP3    H272821   6.139   1.009  16.737
17136TIP3   OH272822   5.321   0.115   4.521
17136TIP3    H172823   5.265   0.072   4.456
17136TIP3    H272824   5.295   0.206   4.520
17137TIP3   OH272825   0.487   2.206   2.933
17137TIP3    H172826   0.578   2.227   2.912
17137TIP3    H272827   0.490   2.117   2.966
17138TIP3   OH272828   5.275   3.738  17.217
17138TIP3    H172829   5.307   3.787  17.142
17138TIP3    H272830   5.242   3.804  17.277
17139TIP3   OH272831   4.136   4.864   1.200
17139TIP3    H172832   4.124   4.791   1.260
17139TIP3    H272833   4.168   4.936   1.254
17140TIP3   OH272834   4.722   6.678   3.384
17140TIP3    H172835   4.642   6.685   3.333
17140TIP3    H272836   4.698   6.707   3.472
17141TIP3   OH272837   2.368   3.920   2.861
17141TIP3    H172838   2.375   3.897   2.768
17141TIP3    H272839   2.338   3.839   2.903
17142TIP3   OH272840   5.290   4.126   5.654
17142TIP3    H172841   5.194   4.126   5.653
17142TIP3    H272842   5.315   4.123   5.562
17143TIP3   OH272843   3.107   1.807  12.410
17143TIP3    H172844   3.086   1.714  12.412
17143TIP3    H272845   3.023   1.852  12.405
17144TIP3   OH272846   4.567   5.569   4.165
17144TIP3    H172847   4.612   5.541   4.245
17144TIP3    H272848   4.582   5.664   4.161
17145TIP3   OH272849   0.912   4.068  17.237
17145TIP3    H172850   0.911   4.159  17.266
17145TIP3    H272851   0.997   4.034  17.266
17146TIP3   OH272852   5.306   0.239   3.719
17146TIP3    H172853   5.247   0.166   3.700
17146TIP3    H272854   5.252   0.317   3.702
17147TIP3   OH272855   4.564   5.911   4.859
17147TIP3    H172856   4.499   5.964   4.812
17147TIP3    H272857   4.531   5.909   4.949
17148TIP3   OH272858   4.198   0.695   5.492
17148TIP3    H172859   4.216   0.716   5.584
17148TIP3    H272860   4.212   0.778   5.446
17149TIP3   OH272861   4.299   0.486   2.873
17149TIP3    H172862   4.391   0.513   2.873
17149TIP3    H272863   4.293   0.421   2.803
17150TIP3   OH272864   3.748   4.331  17.209
17150TIP3    H172865   3.738   4.241  17.241
17150TIP3    H272866   3.822   4.327  17.149
17151TIP3   OH272867   6.561   5.903  16.719
17151TIP3    H172868   6.550   5.848  16.642
17151TIP3    H272869   6.473   5.935  16.739
17152TIP3   OH272870   3.107   6.096   3.657
17152TIP3    H172871   3.086   6.030   3.723
17152TIP3    H272872   3.168   6.053   3.598
17153TIP3   OH272873   3.233   1.757  16.307
17153TIP3    H172874   3.250   1.663  16.294
17153TIP3    H272875   3.313   1.799  16.277
17154TIP3   OH272876   1.732   6.018  12.972
17154TIP3    H172877   1.715   5.925  12.954
17154TIP3    H272878   1.717   6.062  12.888
17155TIP3   OH272879   0.123   2.394   0.421
17155TIP3    H172880   0.205   2.374   0.465
17155TIP3    H272881   0.091   2.309   0.391
17156TIP3   OH272882   0.300   1.917  14.462
17156TIP3    H172883   0.295   1.873  14.547
17156TIP3    H272884   0.255   2.000  14.476
17157TIP3   OH272885   4.693   1.605  11.756
17157TIP3    H172886   4.723   1.696  11.756
17157TIP3    H272887   4.690   1.580  11.664
17158TIP3   OH272888   5.884   1.797   1.724
17158TIP3    H172889   5.869   1.766   1.634
17158TIP3    H272890   5.978   1.791   1.736
17159TIP3   OH272891   6.680   6.219   5.753
17159TIP3    H172892   6.643   6.195   5.669
17159TIP3    H272893   6.666   6.143   5.808
17160TIP3   OH272894   2.528   1.780  12.578
17160TIP3    H172895   2.550   1.847  12.513
17160TIP3    H272896   2.446   1.742  12.546
17161TIP3   OH272897   4.628   0.565  10.321
17161TIP3    H172898   4.717   0.542  10.294
17161TIP3    H272899   4.640   0.625  10.394
17162TIP3   OH272900   6.403   3.681  10.902
17162TIP3    H172901   6.345   3.614  10.866
17162TIP3    H272902   6.451   3.636  10.973
17163TIP3   OH272903   2.091   5.223  14.584
17163TIP3    H172904   2.148   5.185  14.651
17163TIP3    H272905   2.037   5.150  14.554
17164TIP3   OH272906   3.894   6.588  11.278
17164TIP3    H172907   3.912   6.495  11.272
17164TIP3    H272908   3.866   6.613  11.190
17165TIP3   OH272909   0.987   3.615   0.941
17165TIP3    H172910   0.982   3.573   0.855
17165TIP3    H272911   0.987   3.542   1.003
17166TIP3   OH272912   1.505   0.492  11.537
17166TIP3    H172913   1.475   0.524  11.452
17166TIP3    H272914   1.534   0.570  11.584
17167TIP3   OH272915   4.384   3.135   4.654
17167TIP3    H172916   4.314   3.199   4.637
17167TIP3    H272917   4.441   3.142   4.577
17168TIP3   OH272918   3.332   3.251   2.681
17168TIP3    H172919   3.375   3.336   2.693
17168TIP3    H272920   3.301   3.227   2.769
17169TIP3   OH272921   1.181   0.626   6.248
17169TIP3    H172922   1.221   0.539   6.256
17169TIP3    H272923   1.247   0.686   6.282
17170TIP3   OH272924   4.958   6.332  17.098
17170TIP3    H172925   4.908   6.250  17.095
17170TIP3    H272926   5.048   6.306  17.078
17171TIP3   OH272927   6.149   5.497  17.200
17171TIP3    H172928   6.057   5.511  17.176
17171TIP3    H272929   6.183   5.584  17.218
17172TIP3   OH272930   4.076   0.212  12.591
17172TIP3    H172931   4.088   0.133  12.539
17172TIP3    H272932   4.023   0.270  12.537
17173TIP3   OH272933   5.942   4.352  16.408
17173TIP3    H172934   5.918   4.324  16.319
17173TIP3    H272935   6.037   4.336  16.413
17174TIP3   OH272936   2.594   4.738  13.443
17174TIP3    H172937   2.512   4.702  13.477
17174TIP3    H272938   2.629   4.668  13.387
17175TIP3   OH272939   4.865   3.756  12.986
17175TIP3    H172940   4.949   3.789  13.016
17175TIP3    H272941   4.820   3.730  13.066
17176TIP3   OH272942   3.707   5.942   6.090
17176TIP3    H172943   3.619   5.952   6.126
17176TIP3    H272944   3.696   5.954   5.996
17177TIP3   OH272945   6.292   4.189   1.565
17177TIP3    H172946   6.313   4.271   1.519
17177TIP3    H272947   6.296   4.211   1.658
17178TIP3   OH272948   3.237   3.374   6.336
17178TIP3    H172949   3.197   3.454   6.299
17178TIP3    H272950   3.162   3.316   6.352
17179TIP3   OH272951   0.989   5.328   6.144
17179TIP3    H172952   0.915   5.273   6.171
17179TIP3    H272953   1.044   5.334   6.222
17180TIP3   OH272954   0.667   3.450   0.831
17180TIP3    H172955   0.652   3.460   0.737
17180TIP3    H272956   0.628   3.529   0.870
17181TIP3   OH272957   5.467   3.289   4.512
17181TIP3    H172958   5.495   3.318   4.425
17181TIP3    H272959   5.384   3.242   4.496
17182TIP3   OH272960   2.694   4.762   3.013
17182TIP3    H172961   2.784   4.735   3.035
17182TIP3    H272962   2.705   4.838   2.957
17183TIP3   OH272963   4.409   1.757  16.084
17183TIP3    H172964   4.416   1.775  15.990
17183TIP3    H272965   4.315   1.747  16.099
17184TIP3   OH272966   1.239   3.489  14.178
17184TIP3    H172967   1.182   3.566  14.184
17184TIP3    H272968   1.241   3.453  14.266
17185TIP3   OH272969   2.279   5.743   5.383
17185TIP3    H172970   2.258   5.735   5.290
17185TIP3    H272971   2.217   5.809   5.415
17186TIP3   OH272972   2.058   1.194   1.875
17186TIP3    H172973   2.105   1.264   1.920
17186TIP3    H272974   1.966   1.209   1.898
17187TIP3   OH272975   2.037   6.530  13.807
17187TIP3    H172976   2.126   6.504  13.784
17187TIP3    H272977   2.025   6.614  13.763
17188TIP3   OH272978   4.827   5.092   5.031
17188TIP3    H172979   4.762   5.123   4.968
17188TIP3    H272980   4.856   5.007   4.995
17189TIP3   OH272981   2.041   2.986  13.082
17189TIP3    H172982   2.084   3.071  13.077
17189TIP3    H272983   2.074   2.946  13.163
17190TIP3   OH272984   4.225   0.143  15.664
17190TIP3    H172985   4.306   0.134  15.716
17190TIP3    H272986   4.192   0.230  15.686
17191TIP3   OH272987   5.988   6.114  15.271
17191TIP3    H172988   5.992   6.138  15.178
17191TIP3    H272989   5.965   6.021  15.270
17192TIP3   OH272990   5.333   5.527   2.020
17192TIP3    H172991   5.382   5.608   2.006
17192TIP3    H272992   5.247   5.544   1.981
17193TIP3   OH272993   0.022   2.422  16.204
17193TIP3    H172994   0.049   2.447  16.116
17193TIP3    H272995  -0.073   2.417  16.201
17194TIP3   OH272996   6.158   6.138  13.125
17194TIP3    H172997   6.141   6.156  13.217
17194TIP3    H272998   6.245   6.174  13.109
17195TIP3   OH272999   1.549   5.986  15.133
17195TIP3    H173000   1.596   6.032  15.063
17195TIP3    H273001   1.617   5.956  15.193
17196TIP3   OH273002   3.887   6.158   3.035
17196TIP3    H173003   3.892   6.219   3.109
17196TIP3    H273004   3.802   6.176   2.994
17197TIP3   OH273005   2.039   1.011  11.195
17197TIP3    H173006   1.978   1.081  11.171
17197TIP3    H273007   2.099   1.005  11.120
17198TIP3   OH273008   1.980   4.036  15.549
17198TIP3    H173009   1.925   3.986  15.489
17198TIP3    H273010   2.060   3.983  15.557
17199TIP3   OH273011   4.509   6.764   2.796
17199TIP3    H173012   4.565   6.691   2.773
17199TIP3    H273013   4.508   6.764   2.892
17200TIP3   OH273014   3.574   4.143   1.198
17200TIP3    H173015   3.484   4.169   1.181
17200TIP3    H273016   3.582   4.055   1.163
17201TIP3   OH273017   2.978   5.812   4.933
17201TIP3    H173018   2.933   5.767   5.005
17201TIP3    H273019   2.934   5.780   4.854
17202TIP3   OH273020   1.121   1.287  13.385
17202TIP3    H173021   1.102   1.235  13.463
17202TIP3    H273022   1.121   1.223  13.314
17203TIP3   OH273023   5.972   4.686  13.576
17203TIP3    H173024   5.988   4.666  13.484
17203TIP3    H273025   5.931   4.773  13.575
17204TIP3   OH273026   4.582   1.183  12.370
17204TIP3    H173027   4.538   1.098  12.379
17204TIP3    H273028   4.635   1.191  12.449
17205TIP3   OH273029   0.284   2.100   0.680
17205TIP3    H173030   0.244   2.186   0.667
17205TIP3    H273031   0.377   2.119   0.690
17206TIP3   OH273032   0.449   1.316   2.780
17206TIP3    H173033   0.526   1.298   2.835
17206TIP3    H273034   0.486   1.347   2.697
17207TIP3   OH273035   2.698   6.767  16.820
17207TIP3    H173036   2.738   6.732  16.741
17207TIP3    H273037   2.748   6.729  16.892
17208TIP3   OH273038   1.720   6.203   0.481
17208TIP3    H173039   1.781   6.155   0.538
17208TIP3    H273040   1.646   6.224   0.537
17209TIP3   OH273041   6.174   2.475   0.102
17209TIP3    H173042   6.083   2.486   0.131
17209TIP3    H273043   6.179   2.523   0.020
17210TIP3   OH273044   2.584   4.501   1.751
17210TIP3    H173045   2.564   4.577   1.806
17210TIP3    H273046   2.590   4.428   1.813
17211TIP3   OH273047   6.351   2.026   3.561
17211TIP3    H173048   6.309   2.101   3.604
17211TIP3    H273049   6.286   1.956   3.568
17212TIP3   OH273050   0.504   1.484   4.513
17212TIP3    H173051   0.441   1.520   4.576
17212TIP3    H273052   0.453   1.468   4.434
17213TIP3   OH273053   6.104   2.848  17.022
17213TIP3    H173054   6.118   2.891  17.106
17213TIP3    H273055   6.070   2.916  16.964
17214TIP3   OH273056   3.070   5.208  13.409
17214TIP3    H173057   3.158   5.171  13.415
17214TIP3    H273058   3.069   5.278  13.474
17215TIP3   OH273059   6.707   4.771   6.214
17215TIP3    H173060   6.651   4.694   6.220
17215TIP3    H273061   6.661   4.837   6.266
17216TIP3   OH273062   1.266   0.779  12.515
17216TIP3    H173063   1.331   0.710  12.531
17216TIP3    H273064   1.316   0.850  12.476
17217TIP3   OH273065   6.778   3.450   1.305
17217TIP3    H173066   6.850   3.431   1.244
17217TIP3    H273067   6.703   3.403   1.268
17218TIP3   OH273068   2.328   6.029  14.198
17218TIP3    H173069   2.419   6.055  14.204
17218TIP3    H273070   2.283   6.107  14.166
17219TIP3   OH273071   3.299   2.502   1.938
17219TIP3    H173072   3.227   2.439   1.930
17219TIP3    H273073   3.360   2.461   2.000
17220TIP3   OH273074   3.791   4.398   5.120
17220TIP3    H173075   3.791   4.492   5.105
17220TIP3    H273076   3.779   4.388   5.214
17221TIP3   OH273077   4.142   4.936   1.696
17221TIP3    H173078   4.160   4.997   1.768
17221TIP3    H273079   4.208   4.956   1.630
17222TIP3   OH273080   1.355   0.748   2.531
17222TIP3    H173081   1.375   0.738   2.624
17222TIP3    H273082   1.272   0.795   2.529
17223TIP3   OH273083   4.086   2.356  16.816
17223TIP3    H173084   4.169   2.324  16.783
17223TIP3    H273085   4.103   2.377  16.908
17224TIP3   OH273086   0.449   2.570   5.283
17224TIP3    H173087   0.542   2.573   5.306
17224TIP3    H273088   0.425   2.478   5.293
17225TIP3   OH273089   0.007   2.479   5.325
17225TIP3    H173090   0.003   2.384   5.337
17225TIP3    H273091   0.047   2.491   5.239
17226TIP3   OH273092   5.831   6.106  14.725
17226TIP3    H173093   5.920   6.073  14.733
17226TIP3    H273094   5.841   6.201  14.721
17227TIP3   OH273095   0.708   3.437  14.901
17227TIP3    H173096   0.779   3.500  14.888
17227TIP3    H273097   0.687   3.443  14.994
17228TIP3   OH273098   4.074   3.049  15.357
17228TIP3    H173099   4.020   3.128  15.358
17228TIP3    H273100   4.078   3.022  15.449
17229TIP3   OH273101   3.440   3.401   4.985
17229TIP3    H173102   3.386   3.323   4.969
17229TIP3    H273103   3.423   3.424   5.076
17230TIP3   OH273104   0.533   0.563   0.707
17230TIP3    H173105   0.523   0.491   0.645
17230TIP3    H273106   0.627   0.580   0.711
17231TIP3   OH273107   1.991   2.194  14.901
17231TIP3    H173108   2.065   2.249  14.875
17231TIP3    H273109   1.925   2.256  14.932
17232TIP3   OH273110   1.261   0.312  17.228
17232TIP3    H173111   1.235   0.295  17.138
17232TIP3    H273112   1.297   0.230  17.259
17233TIP3   OH273113   4.470   4.380   4.019
17233TIP3    H173114   4.507   4.356   3.934
17233TIP3    H273115   4.413   4.306   4.041
17234TIP3   OH273116   5.447   3.706   5.345
17234TIP3    H173117   5.390   3.631   5.361
17234TIP3    H273118   5.387   3.779   5.331
17235TIP3   OH273119   2.740   4.993  12.953
17235TIP3    H173120   2.816   4.935  12.953
17235TIP3    H273121   2.689   4.965  13.029
17236TIP3   OH273122   3.635   0.232  11.359
17236TIP3    H173123   3.631   0.155  11.302
17236TIP3    H273124   3.647   0.306  11.299
17237TIP3   OH273125   3.800   0.537   6.143
17237TIP3    H173126   3.786   0.445   6.169
17237TIP3    H273127   3.840   0.531   6.056
17238TIP3   OH273128   4.894   1.178  16.392
17238TIP3    H173129   4.855   1.142  16.312
17238TIP3    H273130   4.973   1.222  16.362
17239TIP3   OH273131   2.991   3.132  13.724
17239TIP3    H173132   3.020   3.222  13.711
17239TIP3    H273133   2.958   3.105  13.639
17240TIP3   OH273134   2.547   2.570  16.327
17240TIP3    H173135   2.626   2.517  16.322
17240TIP3    H273136   2.489   2.522  16.385
17241TIP3   OH273137   5.817   4.321   5.220
17241TIP3    H173138   5.734   4.367   5.212
17241TIP3    H273139   5.795   4.239   5.265
17242TIP3   OH273140   2.685   3.974   0.972
17242TIP3    H173141   2.659   3.944   1.059
17242TIP3    H273142   2.778   3.993   0.980
17243TIP3   OH273143   3.906   1.705   4.499
17243TIP3    H173144   3.867   1.651   4.430
17243TIP3    H273145   3.971   1.759   4.453
17244TIP3   OH273146   6.373   6.073  12.813
17244TIP3    H173147   6.416   6.145  12.861
17244TIP3    H273148   6.331   6.021  12.881
17245TIP3   OH273149   4.730   3.588   4.155
17245TIP3    H173150   4.766   3.619   4.072
17245TIP3    H273151   4.704   3.667   4.201
17246TIP3   OH273152   3.614   2.218   2.529
17246TIP3    H173153   3.684   2.236   2.466
17246TIP3    H273154   3.658   2.175   2.602
17247TIP3   OH273155   3.154   1.215  11.345
17247TIP3    H173156   3.138   1.122  11.331
17247TIP3    H273157   3.229   1.235  11.290
17248TIP3   OH273158   3.787   5.527   2.555
17248TIP3    H173159   3.806   5.577   2.476
17248TIP3    H273160   3.821   5.581   2.626
17249TIP3   OH273161   0.143   4.804   2.544
17249TIP3    H173162   0.068   4.758   2.505
17249TIP3    H273163   0.105   4.885   2.579
17250TIP3   OH273164   2.635   0.098   5.133
17250TIP3    H173165   2.599   0.167   5.078
17250TIP3    H273166   2.560   0.060   5.178
17251TIP3   OH273167   5.683   3.960  14.723
17251TIP3    H173168   5.720   3.968  14.635
17251TIP3    H273169   5.680   4.049  14.756
17252TIP3   OH273170   5.438   1.238  13.196
17252TIP3    H173171   5.447   1.332  13.180
17252TIP3    H273172   5.364   1.211  13.141
17253TIP3   OH273173   0.926   4.203  11.499
17253TIP3    H173174   1.005   4.223  11.448
17253TIP3    H273175   0.905   4.285  11.543
17254TIP3   OH273176   1.291   1.906   1.082
17254TIP3    H173177   1.299   1.996   1.115
17254TIP3    H273178   1.382   1.875   1.076
17255TIP3   OH273179   2.705   4.886  11.961
17255TIP3    H173180   2.733   4.960  11.907
17255TIP3    H273181   2.786   4.848  11.994
17256TIP3   OH273182   3.036   5.238   5.578
17256TIP3    H173183   3.055   5.265   5.668
17256TIP3    H273184   3.112   5.187   5.551
17257TIP3   OH273185   1.207   6.047   4.174
17257TIP3    H173186   1.151   5.970   4.165
17257TIP3    H273187   1.153   6.111   4.220
17258TIP3   OH273188   2.480   5.863  13.599
17258TIP3    H173189   2.389   5.834  13.594
17258TIP3    H273190   2.485   5.913  13.681
17259TIP3   OH273191   1.563   0.986  10.843
17259TIP3    H173192   1.537   1.076  10.859
17259TIP3    H273193   1.654   0.991  10.816
17260TIP3   OH273194   4.013   3.356   1.789
17260TIP3    H173195   4.004   3.383   1.698
17260TIP3    H273196   4.100   3.387   1.815
17261TIP3   OH273197   5.267   1.490   3.068
17261TIP3    H173198   5.201   1.457   3.007
17261TIP3    H273199   5.314   1.412   3.096
17262TIP3   OH273200   0.729   0.938  16.535
17262TIP3    H173201   0.754   0.976  16.451
17262TIP3    H273202   0.795   0.970  16.596
17263TIP3   OH273203   6.506   4.214  12.389
17263TIP3    H173204   6.542   4.208  12.477
17263TIP3    H273205   6.573   4.260  12.339
17264TIP3   OH273206   2.196   3.573   5.523
17264TIP3    H173207   2.254   3.570   5.598
17264TIP3    H273208   2.121   3.519   5.548
17265TIP3   OH273209   1.152   0.883  15.877
17265TIP3    H173210   1.148   0.974  15.907
17265TIP3    H273211   1.067   0.868  15.834
17266TIP3   OH273212   0.792   3.009   2.301
17266TIP3    H173213   0.830   3.086   2.343
17266TIP3    H273214   0.784   2.944   2.371
17267TIP3   OH273215   4.752   0.002  11.759
17267TIP3    H173216   4.765  -0.012  11.852
17267TIP3    H273217   4.657   0.009  11.749
17268TIP3   OH273218   5.337   1.186   5.292
17268TIP3    H173219   5.314   1.236   5.214
17268TIP3    H273220   5.377   1.106   5.259
17269TIP3   OH273221   4.022   1.649  15.528
17269TIP3    H173222   4.113   1.640  15.556
17269TIP3    H273223   4.027   1.662  15.434
17270TIP3   OH273224   6.630   0.220  16.287
17270TIP3    H173225   6.613   0.243  16.196
17270TIP3    H273226   6.564   0.269  16.337
17271TIP3   OH273227   1.376   6.243  16.764
17271TIP3    H173228   1.325   6.178  16.716
17271TIP3    H273229   1.448   6.193  16.802
17272TIP3   OH273230   6.417   1.777   1.900
17272TIP3    H173231   6.509   1.799   1.884
17272TIP3    H273232   6.396   1.820   1.983
17273TIP3   OH273233   6.535   4.810   2.070
17273TIP3    H173234   6.534   4.900   2.037
17273TIP3    H273235   6.545   4.756   1.992
17274TIP3   OH273236   1.686   1.646  12.072
17274TIP3    H173237   1.619   1.701  12.112
17274TIP3    H273238   1.637   1.571  12.036
17275TIP3   OH273239   2.862   3.598  11.150
17275TIP3    H173240   2.783   3.600  11.095
17275TIP3    H273241   2.934   3.590  11.087
17276TIP3   OH273242   0.864   0.599  12.485
17276TIP3    H173243   0.849   0.541  12.411
17276TIP3    H273244   0.793   0.664  12.479
17277TIP3   OH273245   1.200   0.558  12.282
17277TIP3    H173246   1.231   0.641  12.248
17277TIP3    H273247   1.138   0.526  12.216
17278TIP3   OH273248   6.285   4.010   6.043
17278TIP3    H173249   6.244   4.061   6.113
17278TIP3    H273250   6.357   3.963   6.086
17279TIP3   OH273251   1.523   0.850  12.699
17279TIP3    H173252   1.581   0.787  12.654
17279TIP3    H273253   1.443   0.800  12.715
17280TIP3   OH273254   0.571   5.719  11.395
17280TIP3    H173255   0.525   5.730  11.312
17280TIP3    H273256   0.538   5.636  11.430
17281TIP3   OH273257   2.706   5.824  16.862
17281TIP3    H173258   2.774   5.757  16.855
17281TIP3    H273259   2.749   5.905  16.838
17282TIP3   OH273260   2.156   6.665   3.624
17282TIP3    H173261   2.115   6.636   3.705
17282TIP3    H273262   2.240   6.702   3.652
17283TIP3   OH273263   0.474   1.130  16.799
17283TIP3    H173264   0.491   1.042  16.764
17283TIP3    H273265   0.540   1.141  16.867
17284TIP3   OH273266   0.385   4.684  15.601
17284TIP3    H173267   0.416   4.616  15.542
17284TIP3    H273268   0.437   4.672  15.680
17285TIP3   OH273269   3.403   0.663  10.421
17285TIP3    H173270   3.451   0.738  10.455
17285TIP3    H273271   3.324   0.700  10.383
17286TIP3   OH273272   0.905   1.791  15.361
17286TIP3    H173273   0.899   1.860  15.426
17286TIP3    H273274   0.966   1.825  15.296
17287TIP3   OH273275   3.881   4.813   0.034
17287TIP3    H173276   3.793   4.847   0.053
17287TIP3    H273277   3.865   4.729  -0.009
17288TIP3   OH273278   4.005   3.537  15.173
17288TIP3    H173279   3.922   3.492  15.154
17288TIP3    H273280   3.982   3.630  15.173
17289TIP3   OH273281   4.000   6.114   1.884
17289TIP3    H173282   3.939   6.061   1.834
17289TIP3    H273283   4.059   6.051   1.925
17290TIP3   OH273284   4.830   3.939  14.591
17290TIP3    H173285   4.760   3.875  14.579
17290TIP3    H273286   4.905   3.887  14.621
17291TIP3   OH273287   4.418   5.098   4.219
17291TIP3    H173288   4.416   5.105   4.315
17291TIP3    H273289   4.330   5.122   4.192
17292TIP3   OH273290   1.917   6.153   6.149
17292TIP3    H173291   1.848   6.151   6.215
17292TIP3    H273292   1.995   6.184   6.196
17293TIP3   OH273293   3.308   5.956  11.672
17293TIP3    H173294   3.257   5.939  11.593
17293TIP3    H273295   3.323   5.870  11.710
17294TIP3   OH273296   0.578   5.464  12.385
17294TIP3    H173297   0.616   5.541  12.428
17294TIP3    H273298   0.495   5.450  12.430
17295TIP3   OH273299   3.327   0.625  15.824
17295TIP3    H173300   3.292   0.700  15.775
17295TIP3    H273301   3.253   0.566  15.833
17296TIP3   OH273302   0.159   5.711  11.955
17296TIP3    H173303   0.149   5.619  11.932
17296TIP3    H273304   0.090   5.727  12.021
17297TIP3   OH273305   3.313   3.867  11.870
17297TIP3    H173306   3.339   3.943  11.923
17297TIP3    H273307   3.395   3.825  11.846
17298TIP3   OH273308   5.548   0.358   3.624
17298TIP3    H173309   5.558   0.265   3.605
17298TIP3    H273310   5.483   0.361   3.694
17299TIP3   OH273311   1.550   2.617   0.700
17299TIP3    H173312   1.540   2.712   0.689
17299TIP3    H273313   1.493   2.595   0.773
17300TIP3   OH273314   3.076   0.328   3.037
17300TIP3    H173315   3.152   0.281   3.073
17300TIP3    H273316   3.088   0.418   3.065
17301TIP3   OH273317   4.859   0.768  12.964
17301TIP3    H173318   4.817   0.766  13.049
17301TIP3    H273319   4.832   0.852  12.926
17302TIP3   OH273320   1.538   1.044  13.131
17302TIP3    H173321   1.573   0.966  13.087
17302TIP3    H273322   1.616   1.092  13.158
17303TIP3   OH273323   2.218   4.571   3.947
17303TIP3    H173324   2.166   4.620   3.884
17303TIP3    H273325   2.156   4.511   3.988
17304TIP3   OH273326   4.067   0.983  15.393
17304TIP3    H173327   4.080   1.052  15.458
17304TIP3    H273328   4.015   1.024  15.324
17305TIP3   OH273329   6.737   5.675  11.470
17305TIP3    H173330   6.704   5.659  11.559
17305TIP3    H273331   6.772   5.590  11.442
17306TIP3   OH273332   6.184   3.951  16.742
17306TIP3    H173333   6.258   3.891  16.738
17306TIP3    H273334   6.224   4.036  16.762
17307TIP3   OH273335   5.361   5.830   0.962
17307TIP3    H173336   5.373   5.760   1.025
17307TIP3    H273337   5.438   5.826   0.906
17308TIP3   OH273338   5.462   4.552   4.368
17308TIP3    H173339   5.424   4.466   4.346
17308TIP3    H273340   5.465   4.598   4.284
17309TIP3   OH273341   0.929   2.551  16.190
17309TIP3    H173342   0.901   2.610  16.120
17309TIP3    H273343   0.858   2.554  16.254
17310TIP3   OH273344   5.245   1.735  14.423
17310TIP3    H173345   5.198   1.653  14.433
17310TIP3    H273346   5.183   1.794  14.381
17311TIP3   OH273347   3.319   2.923  16.865
17311TIP3    H173348   3.316   2.992  16.931
17311TIP3    H273349   3.228   2.911  16.839
17312TIP3   OH273350   1.840   4.503  17.014
17312TIP3    H173351   1.857   4.486  17.107
17312TIP3    H273352   1.765   4.448  16.993
17313TIP3   OH273353   5.466   3.978   4.718
17313TIP3    H173354   5.558   3.956   4.706
17313TIP3    H273355   5.442   4.025   4.638
17314TIP3   OH273356   5.639   0.715   2.698
17314TIP3    H173357   5.672   0.787   2.752
17314TIP3    H273358   5.574   0.671   2.753
17315TIP3   OH273359   4.822   5.202   0.265
17315TIP3    H173360   4.806   5.123   0.317
17315TIP3    H273361   4.791   5.274   0.319
17316TIP3   OH273362   0.386   4.793   3.360
17316TIP3    H173363   0.300   4.812   3.397
17316TIP3    H273364   0.369   4.773   3.268
17317TIP3   OH273365   4.096   1.138  15.617
17317TIP3    H173366   4.050   1.210  15.574
17317TIP3    H273367   4.167   1.181  15.665
17318TIP3   OH273368   2.312   1.685  14.421
17318TIP3    H173369   2.272   1.748  14.481
17318TIP3    H273370   2.324   1.733  14.340
17319TIP3   OH273371   5.789   5.201   3.185
17319TIP3    H173372   5.769   5.289   3.153
17319TIP3    H273373   5.759   5.143   3.115
17320TIP3   OH273374   4.935   4.709  15.190
17320TIP3    H173375   5.001   4.739  15.127
17320TIP3    H273376   4.986   4.680  15.266
17321TIP3   OH273377   5.767   4.300  15.344
17321TIP3    H173378   5.850   4.274  15.383
17321TIP3    H273379   5.717   4.338  15.417
17322TIP3   OH273380   5.017   4.674   4.891
17322TIP3    H173381   4.997   4.616   4.817
17322TIP3    H273382   5.048   4.616   4.960
17323TIP3   OH273383   6.382   5.799   4.021
17323TIP3    H173384   6.369   5.865   4.089
17323TIP3    H273385   6.306   5.808   3.964
17324TIP3   OH273386   4.548   3.501   5.048
17324TIP3    H173387   4.553   3.553   4.968
17324TIP3    H273388   4.540   3.410   5.018
17325TIP3   OH273389   3.285   4.573  16.597
17325TIP3    H173390   3.302   4.479  16.599
17325TIP3    H273391   3.192   4.582  16.614
17326TIP3   OH273392   1.165   0.737  15.228
17326TIP3    H173393   1.126   0.666  15.279
17326TIP3    H273394   1.138   0.721  15.138
17327TIP3   OH273395   3.175   6.231  15.841
17327TIP3    H173396   3.239   6.275  15.786
17327TIP3    H273397   3.120   6.183  15.780
17328TIP3   OH273398   0.718   0.892   4.401
17328TIP3    H173399   0.674   0.948   4.337
17328TIP3    H273400   0.671   0.809   4.398
17329TIP3   OH273401   0.010   6.467  14.462
17329TIP3    H173402   0.074   6.462  14.533
17329TIP3    H273403  -0.068   6.425  14.497
17330TIP3   OH273404   1.512   1.187   3.952
17330TIP3    H173405   1.567   1.151   3.883
17330TIP3    H273406   1.474   1.111   3.996
17331TIP3   OH273407   2.478   4.836  15.222
17331TIP3    H173408   2.530   4.916  15.213
17331TIP3    H273409   2.392   4.859  15.188
17332TIP3   OH273410   3.125   1.241   4.289
17332TIP3    H173411   3.074   1.191   4.354
17332TIP3    H273412   3.112   1.332   4.314
17333TIP3   OH273413   4.080   4.073   6.751
17333TIP3    H173414   4.093   4.163   6.781
17333TIP3    H273415   4.169   4.039   6.738
17334TIP3   OH273416   0.263   2.203   5.849
17334TIP3    H173417   0.297   2.257   5.921
17334TIP3    H273418   0.208   2.138   5.893
17335TIP3   OH273419   6.377   0.143   0.201
17335TIP3    H173420   6.301   0.117   0.149
17335TIP3    H273421   6.340   0.179   0.282
17336TIP3   OH273422   1.613   3.523  16.858
17336TIP3    H173423   1.564   3.571  16.792
17336TIP3    H273424   1.644   3.590  16.919
17337TIP3   OH273425   2.706   1.228   3.973
17337TIP3    H173426   2.710   1.250   4.066
17337TIP3    H273427   2.798   1.221   3.946
17338TIP3   OH273428   0.425   3.383   6.496
17338TIP3    H173429   0.463   3.333   6.568
17338TIP3    H273430   0.396   3.316   6.434
17339TIP3   OH273431   0.628   0.198  13.109
17339TIP3    H173432   0.713   0.194  13.152
17339TIP3    H273433   0.644   0.240  13.025
17340TIP3   OH273434   2.635   3.936   1.258
17340TIP3    H173435   2.729   3.918   1.264
17340TIP3    H273436   2.620   4.003   1.325
17341TIP3   OH273437   5.483   1.089  12.912
17341TIP3    H173438   5.557   1.150  12.910
17341TIP3    H273439   5.446   1.093  12.824
17342TIP3   OH273440   0.199   3.043   4.623
17342TIP3    H173441   0.269   2.979   4.633
17342TIP3    H273442   0.243   3.124   4.600
17343TIP3   OH273443   1.641   2.589  13.701
17343TIP3    H173444   1.668   2.634  13.621
17343TIP3    H273445   1.608   2.659  13.758
17344TIP3   OH273446   1.113   6.357  15.489
17344TIP3    H173447   1.201   6.374  15.521
17344TIP3    H273448   1.113   6.264  15.466
17345TIP3   OH273449   6.254   3.682  13.219
17345TIP3    H173450   6.349   3.673  13.214
17345TIP3    H273451   6.238   3.775  13.206
17346TIP3   OH273452   0.764   2.593  16.397
17346TIP3    H173453   0.800   2.554  16.476
17346TIP3    H273454   0.672   2.609  16.417
17347TIP3   OH273455   6.676   5.672  14.449
17347TIP3    H173456   6.755   5.726  14.451
17347TIP3    H273457   6.691   5.609  14.379
17348TIP3   OH273458   4.128   0.871   0.092
17348TIP3    H173459   4.074   0.950   0.100
17348TIP3    H273460   4.066   0.803   0.066
17349TIP3   OH273461   4.871   4.274   5.444
17349TIP3    H173462   4.892   4.357   5.401
17349TIP3    H273463   4.780   4.285   5.472
17350TIP3   OH273464   5.644   0.328  10.552
17350TIP3    H173465   5.612   0.238  10.554
17350TIP3    H273466   5.568   0.381  10.529
17351TIP3   OH273467   0.758   1.712   4.155
17351TIP3    H173468   0.809   1.644   4.110
17351TIP3    H273469   0.721   1.668   4.231
17352TIP3   OH273470   6.397   5.672  15.245
17352TIP3    H173471   6.468   5.677  15.310
17352TIP3    H273472   6.338   5.743  15.270
17353TIP3   OH273473   0.543   3.561  11.176
17353TIP3    H173474   0.609   3.625  11.150
17353TIP3    H273475   0.467   3.613  11.203
17354TIP3   OH273476   3.403   2.741  15.196
17354TIP3    H173477   3.321   2.770  15.156
17354TIP3    H273478   3.430   2.815  15.251
17355TIP3   OH273479   3.480   1.982  17.097
17355TIP3    H173480   3.533   2.061  17.099
17355TIP3    H273481   3.392   2.012  17.075
17356TIP3   OH273482   1.916   5.281  10.831
17356TIP3    H173483   1.975   5.351  10.858
17356TIP3    H273484   1.964   5.234  10.763
17357TIP3   OH273485   5.767   2.755   3.405
17357TIP3    H173486   5.770   2.659   3.401
17357TIP3    H273487   5.851   2.779   3.446
17358TIP3   OH273488   6.435   0.700   3.665
17358TIP3    H173489   6.450   0.782   3.712
17358TIP3    H273490   6.519   0.654   3.668
17359TIP3   OH273491   6.651   4.768   2.782
17359TIP3    H173492   6.583   4.788   2.719
17359TIP3    H273493   6.725   4.824   2.758
17360TIP3   OH273494   3.409   5.173   3.645
17360TIP3    H173495   3.494   5.178   3.689
17360TIP3    H273496   3.428   5.132   3.561
17361TIP3   OH273497   0.766   6.244   1.768
17361TIP3    H173498   0.685   6.196   1.749
17361TIP3    H273499   0.827   6.216   1.701
17362TIP3   OH273500   5.972   3.784  11.944
17362TIP3    H173501   5.932   3.860  11.986
17362TIP3    H273502   5.907   3.756  11.879
17363TIP3   OH273503   2.425   6.523   5.391
17363TIP3    H173504   2.354   6.466   5.422
17363TIP3    H273505   2.504   6.470   5.400
17364TIP3   OH273506   0.055   3.839  14.317
17364TIP3    H173507   0.074   3.817  14.408
17364TIP3    H273508  -0.039   3.821  14.307
17365TIP3   OH273509   5.940   6.718  15.784
17365TIP3    H173510   5.852   6.712  15.821
17365TIP3    H273511   5.959   6.629  15.755
17366TIP3   OH273512   2.532   5.194   2.723
17366TIP3    H173513   2.463   5.250   2.688
17366TIP3    H273514   2.612   5.244   2.711
17367TIP3   OH273515   5.006   4.408  16.394
17367TIP3    H173516   4.932   4.429  16.451
17367TIP3    H273517   4.968   4.359  16.321
17368TIP3   OH273518   1.374   4.309  13.232
17368TIP3    H173519   1.373   4.405  13.234
17368TIP3    H273520   1.330   4.283  13.313
17369TIP3   OH273521   2.923   3.126   3.323
17369TIP3    H173522   2.843   3.157   3.366
17369TIP3    H273523   2.994   3.156   3.380
17370TIP3   OH273524   0.315   3.403   3.756
17370TIP3    H173525   0.222   3.400   3.781
17370TIP3    H273526   0.338   3.496   3.764
17371TIP3   OH273527   3.033   1.535  16.233
17371TIP3    H173528   2.957   1.574  16.275
17371TIP3    H273529   3.054   1.458  16.287
17372TIP3   OH273530   5.232   2.616  13.576
17372TIP3    H173531   5.165   2.550  13.557
17372TIP3    H273532   5.218   2.684  13.510
17373TIP3   OH273533   6.525   3.225   5.151
17373TIP3    H173534   6.479   3.145   5.129
17373TIP3    H273535   6.480   3.293   5.102
17374TIP3   OH273536   5.676   2.786  15.517
17374TIP3    H173537   5.622   2.860  15.491
17374TIP3    H273538   5.673   2.726  15.442
17375TIP3   OH273539   5.813   2.149   3.796
17375TIP3    H173540   5.752   2.076   3.783
17375TIP3    H273541   5.792   2.181   3.884
17376TIP3   OH273542   5.959   2.559   3.345
17376TIP3    H173543   5.997   2.474   3.368
17376TIP3    H273544   5.959   2.608   3.427
17377TIP3   OH273545   2.390   3.507  14.698
17377TIP3    H173546   2.481   3.536  14.704
17377TIP3    H273547   2.391   3.437  14.633
17378TIP3   OH273548   1.928   4.091  12.484
17378TIP3    H173549   1.837   4.120  12.487
17378TIP3    H273550   1.976   4.156  12.535
17379TIP3   OH273551   0.894   6.076   1.291
17379TIP3    H173552   0.974   6.026   1.272
17379TIP3    H273553   0.905   6.158   1.242
17380TIP3   OH273554   6.123   3.726   2.952
17380TIP3    H173555   6.150   3.717   2.861
17380TIP3    H273556   6.108   3.819   2.964
17381TIP3   OH273557   5.581   6.529   4.743
17381TIP3    H173558   5.556   6.620   4.763
17381TIP3    H273559   5.623   6.534   4.657
17382TIP3   OH273560   0.840   4.316   4.131
17382TIP3    H173561   0.841   4.363   4.215
17382TIP3    H273562   0.748   4.319   4.104
17383TIP3   OH273563   5.168   6.460   0.029
17383TIP3    H173564   5.130   6.431   0.112
17383TIP3    H273565   5.108   6.427  -0.038
17384TIP3   OH273566   1.308   3.598   2.617
17384TIP3    H173567   1.332   3.507   2.598
17384TIP3    H273568   1.220   3.592   2.653
17385TIP3   OH273569   3.320   2.472  14.985
17385TIP3    H173570   3.355   2.384  14.969
17385TIP3    H273571   3.259   2.487  14.913
17386TIP3   OH273572   1.002   4.710  15.133
17386TIP3    H173573   1.073   4.763  15.169
17386TIP3    H273574   0.964   4.765  15.064
17387TIP3   OH273575   5.794   1.634   5.936
17387TIP3    H173576   5.733   1.643   5.863
17387TIP3    H273577   5.868   1.585   5.900
17388TIP3   OH273578   1.976   3.622   0.963
17388TIP3    H173579   1.920   3.551   0.995
17388TIP3    H273580   2.013   3.661   1.043
17389TIP3   OH273581   3.124   1.394  16.995
17389TIP3    H173582   3.052   1.442  17.037
17389TIP3    H273583   3.202   1.421  17.044
17390TIP3   OH273584   2.765   3.777   4.377
17390TIP3    H173585   2.792   3.749   4.464
17390TIP3    H273586   2.769   3.873   4.380
17391TIP3   OH273587   0.394   4.227   6.216
17391TIP3    H173588   0.336   4.169   6.265
17391TIP3    H273589   0.443   4.168   6.157
17392TIP3   OH273590   6.245   5.409   3.787
17392TIP3    H173591   6.322   5.417   3.844
17392TIP3    H273592   6.177   5.461   3.830
17393TIP3   OH273593   5.816   6.354  11.976
17393TIP3    H173594   5.826   6.359  12.071
17393TIP3    H273595   5.905   6.335  11.944
17394TIP3   OH273596   2.421   5.204  15.015
17394TIP3    H173597   2.467   5.280  14.981
17394TIP3    H273598   2.375   5.236  15.093
17395TIP3   OH273599   5.746   1.203  13.616
17395TIP3    H173600   5.678   1.170  13.676
17395TIP3    H273601   5.816   1.138  13.621
17396TIP3   OH273602   3.242   3.016  13.550
17396TIP3    H173603   3.218   3.022  13.458
17396TIP3    H273604   3.260   2.923  13.564
17397TIP3   OH273605   0.899   4.581  10.647
17397TIP3    H173606   0.847   4.504  10.624
17397TIP3    H273607   0.990   4.551  10.644
17398TIP3   OH273608   0.104   1.518  12.679
17398TIP3    H173609   0.157   1.508  12.601
17398TIP3    H273610   0.157   1.481  12.750
17399TIP3   OH273611   0.438   3.681   0.272
17399TIP3    H173612   0.401   3.680   0.184
17399TIP3    H273613   0.461   3.772   0.288
17400TIP3   OH273614   2.595   6.075  11.774
17400TIP3    H173615   2.600   5.992  11.727
17400TIP3    H273616   2.554   6.135  11.712
17401TIP3   OH273617   6.221   3.434   2.418
17401TIP3    H173618   6.262   3.397   2.340
17401TIP3    H273619   6.127   3.423   2.404
17402TIP3   OH273620   0.172   5.772  12.928
17402TIP3    H173621   0.168   5.799  13.019
17402TIP3    H273622   0.247   5.820  12.892
17403TIP3   OH273623   3.688   1.573   5.601
17403TIP3    H173624   3.606   1.528   5.578
17403TIP3    H273625   3.668   1.617   5.684
17404TIP3   OH273626   3.243   5.834  11.083
17404TIP3    H173627   3.212   5.745  11.097
17404TIP3    H273628   3.253   5.841  10.987
17405TIP3   OH273629   4.300   4.547   6.371
17405TIP3    H173630   4.353   4.614   6.414
17405TIP3    H273631   4.242   4.514   6.439
17406TIP3   OH273632   0.150   1.647  12.347
17406TIP3    H173633   0.069   1.667  12.392
17406TIP3    H273634   0.200   1.728  12.348
17407TIP3   OH273635   0.473   0.911   1.944
17407TIP3    H173636   0.502   0.867   2.024
17407TIP3    H273637   0.554   0.937   1.900
17408TIP3   OH273638   1.224   3.458   3.878
17408TIP3    H173639   1.149   3.452   3.937
17408TIP3    H273640   1.299   3.470   3.936
17409TIP3   OH273641   6.134   1.785  12.189
17409TIP3    H173642   6.146   1.876  12.215
17409TIP3    H273643   6.131   1.737  12.272
17410TIP3   OH273644   5.501   6.171  16.586
17410TIP3    H173645   5.432   6.230  16.615
17410TIP3    H273646   5.546   6.219  16.517
17411TIP3   OH273647   5.957   2.998   1.578
17411TIP3    H173648   5.892   3.003   1.649
17411TIP3    H273649   6.013   2.925   1.602
17412TIP3   OH273650   5.155   6.423  13.425
17412TIP3    H173651   5.136   6.474  13.503
17412TIP3    H273652   5.074   6.378  13.405
17413TIP3   OH273653   3.003   3.458  12.696
17413TIP3    H173654   2.938   3.506  12.645
17413TIP3    H273655   2.985   3.483  12.787
17414TIP3   OH273656   5.594   5.681  15.048
17414TIP3    H173657   5.543   5.762  15.044
17414TIP3    H273658   5.528   5.613  15.061
17415TIP3   OH273659   1.202   1.352   4.742
17415TIP3    H173660   1.223   1.261   4.764
17415TIP3    H273661   1.271   1.379   4.681
17416TIP3   OH273662   0.112   1.370   4.147
17416TIP3    H173663   0.068   1.285   4.141
17416TIP3    H273664   0.199   1.350   4.181
17417TIP3   OH273665   3.428   5.672   1.703
17417TIP3    H173666   3.518   5.665   1.736
17417TIP3    H273667   3.394   5.583   1.707
17418TIP3   OH273668   6.715   3.656   5.030
17418TIP3    H173669   6.636   3.638   5.081
17418TIP3    H273670   6.693   3.734   4.979
17419TIP3   OH273671   5.841   4.427  11.118
17419TIP3    H173672   5.787   4.395  11.189
17419TIP3    H273673   5.885   4.505  11.153
17420TIP3   OH273674   2.037   5.308   1.678
17420TIP3    H173675   2.007   5.346   1.595
17420TIP3    H273676   2.032   5.380   1.740
17421TIP3   OH273677   3.405   3.260  14.310
17421TIP3    H173678   3.332   3.297  14.359
17421TIP3    H273679   3.438   3.190  14.365
17422TIP3   OH273680   4.923   4.529  10.826
17422TIP3    H173681   4.987   4.599  10.814
17422TIP3    H273682   4.970   4.449  10.803
17423TIP3   OH273683   6.064   5.646  11.188
17423TIP3    H173684   6.098   5.733  11.165
17423TIP3    H273685   5.969   5.656  11.184
17424TIP3   OH273686   0.714   5.617   1.222
17424TIP3    H173687   0.784   5.679   1.200
17424TIP3    H273688   0.736   5.538   1.172
17425TIP3   OH273689   3.624   0.987   5.827
17425TIP3    H173690   3.541   0.942   5.843
17425TIP3    H273691   3.686   0.917   5.804
17426TIP3   OH273692   3.996   2.459  16.321
17426TIP3    H173693   4.035   2.445  16.235
17426TIP3    H273694   4.067   2.499  16.373
17427TIP3   OH273695   5.357   2.477   2.385
17427TIP3    H173696   5.371   2.396   2.434
17427TIP3    H273697   5.436   2.530   2.403
17428TIP3   OH273698   6.016   2.716  11.318
17428TIP3    H173699   6.044   2.714  11.410
17428TIP3    H273700   5.923   2.694  11.321
17429TIP3   OH273701   5.356   6.258  15.883
17429TIP3    H173702   5.420   6.315  15.926
17429TIP3    H273703   5.394   6.241  15.797
17430TIP3   OH273704   4.593   4.585   0.566
17430TIP3    H173705   4.645   4.653   0.524
17430TIP3    H273706   4.656   4.532   0.614
17431TIP3   OH273707   2.609   1.972   4.728
17431TIP3    H173708   2.677   1.969   4.795
17431TIP3    H273709   2.611   1.884   4.689
17432TIP3   OH273710   4.899   0.367   1.207
17432TIP3    H173711   4.907   0.351   1.302
17432TIP3    H273712   4.988   0.355   1.174
17433TIP3   OH273713   4.819   2.522   3.790
17433TIP3    H173714   4.796   2.605   3.748
17433TIP3    H273715   4.841   2.463   3.718
17434TIP3   OH273716   4.576   1.717  14.654
17434TIP3    H173717   4.578   1.670  14.571
17434TIP3    H273718   4.606   1.652  14.718
17435TIP3   OH273719   4.785   4.184  12.925
17435TIP3    H173720   4.825   4.209  12.842
17435TIP3    H273721   4.711   4.245  12.936
17436TIP3   OH273722   4.658   3.259  14.561
17436TIP3    H173723   4.661   3.226  14.471
17436TIP3    H273724   4.740   3.229  14.601
17437TIP3   OH273725   1.478   5.845   4.888
17437TIP3    H173726   1.545   5.834   4.955
17437TIP3    H273727   1.473   5.940   4.874
17438TIP3   OH273728   2.516   1.970   4.360
17438TIP3    H173729   2.580   1.936   4.297
17438TIP3    H273730   2.511   1.902   4.427
17439TIP3   OH273731   3.444   1.617   0.925
17439TIP3    H173732   3.529   1.642   0.962
17439TIP3    H273733   3.389   1.695   0.937
17440TIP3   OH273734   0.599   0.264   0.660
17440TIP3    H173735   0.561   0.234   0.742
17440TIP3    H273736   0.613   0.183   0.610
17441TIP3   OH273737   3.793   4.916   2.725
17441TIP3    H173738   3.818   4.916   2.633
17441TIP3    H273739   3.782   4.824   2.748
17442TIP3   OH273740   2.196   5.553   0.415
17442TIP3    H173741   2.226   5.506   0.337
17442TIP3    H273742   2.154   5.632   0.380
17443TIP3   OH273743   2.736   4.607  16.138
17443TIP3    H173744   2.723   4.525  16.091
17443TIP3    H273745   2.706   4.590  16.227
17444TIP3   OH273746   2.027   0.910  13.961
17444TIP3    H173747   2.011   1.003  13.947
17444TIP3    H273748   2.006   0.896  14.054
17445TIP3   OH273749   5.849   3.732  13.169
17445TIP3    H173750   5.884   3.746  13.257
17445TIP3    H273751   5.913   3.675  13.127
17446TIP3   OH273752   4.168   5.103   2.371
17446TIP3    H173753   4.234   5.035   2.381
17446TIP3    H273754   4.101   5.081   2.436
17447TIP3   OH273755   1.624   0.205   1.174
17447TIP3    H173756   1.538   0.229   1.140
17447TIP3    H273757   1.658   0.141   1.111
17448TIP3   OH273758   3.152   0.129   5.915
17448TIP3    H173759   3.237   0.119   5.873
17448TIP3    H273760   3.173   0.151   6.006
17449TIP3   OH273761   5.420   0.420   2.293
17449TIP3    H173762   5.357   0.473   2.341
17449TIP3    H273763   5.502   0.428   2.342
17450TIP3   OH273764   2.108   6.775   3.336
17450TIP3    H173765   2.075   6.688   3.362
17450TIP3    H273766   2.200   6.760   3.316
17451TIP3   OH273767   3.490   1.775   3.516
17451TIP3    H173768   3.472   1.720   3.440
17451TIP3    H273769   3.482   1.717   3.591
17452TIP3   OH273770   5.404   0.844   5.772
17452TIP3    H173771   5.420   0.751   5.786
17452TIP3    H273772   5.381   0.877   5.859
17453TIP3   OH273773   0.060   4.056   1.935
17453TIP3    H173774   0.135   4.019   1.889
17453TIP3    H273775   0.072   4.151   1.928
17454TIP3   OH273776   0.137   4.114  15.686
17454TIP3    H173777   0.200   4.164  15.633
17454TIP3    H273778   0.093   4.181  15.739
17455TIP3   OH273779   0.917   3.597  13.647
17455TIP3    H173780   0.997   3.604  13.699
17455TIP3    H273781   0.848   3.626  13.705
17456TIP3   OH273782   6.137   0.420   1.746
17456TIP3    H173783   6.129   0.359   1.818
17456TIP3    H273784   6.067   0.484   1.759
17457TIP3   OH273785   5.396   1.981  13.717
17457TIP3    H173786   5.463   1.996  13.649
17457TIP3    H273787   5.328   1.931  13.672
17458TIP3   OH273788   2.888   5.632  14.162
17458TIP3    H173789   2.942   5.593  14.231
17458TIP3    H273790   2.819   5.568  14.147
17459TIP3   OH273791   2.181   3.660  14.793
17459TIP3    H173792   2.247   3.596  14.765
17459TIP3    H273793   2.129   3.676  14.715
17460TIP3   OH273794   3.345   1.355   1.026
17460TIP3    H173795   3.306   1.390   1.107
17460TIP3    H273796   3.377   1.432   0.980
17461TIP3   OH273797   3.139   0.524  12.280
17461TIP3    H173798   3.203   0.593  12.294
17461TIP3    H273799   3.183   0.444  12.307
17462TIP3   OH273800   2.351   2.791  12.043
17462TIP3    H173801   2.273   2.821  11.997
17462TIP3    H273802   2.370   2.705  12.005
17463TIP3   OH273803   1.600   4.331  15.871
17463TIP3    H173804   1.509   4.318  15.899
17463TIP3    H273805   1.616   4.424  15.888
17464TIP3   OH273806   1.276   4.646   2.985
17464TIP3    H173807   1.223   4.611   2.913
17464TIP3    H273808   1.222   4.633   3.063
17465TIP3   OH273809   1.675   2.971  16.575
17465TIP3    H173810   1.697   2.943  16.664
17465TIP3    H273811   1.685   2.892  16.522
17466TIP3   OH273812   6.358   4.125   3.947
17466TIP3    H173813   6.286   4.185   3.929
17466TIP3    H273814   6.330   4.076   4.024
17467TIP3   OH273815   2.216   0.452  12.688
17467TIP3    H173816   2.266   0.394  12.745
17467TIP3    H273817   2.179   0.518  12.746
17468TIP3   OH273818   0.149   0.450   2.570
17468TIP3    H173819   0.240   0.471   2.551
17468TIP3    H273820   0.099   0.491   2.499
17469TIP3   OH273821   6.312   3.748  10.473
17469TIP3    H173822   6.385   3.803  10.501
17469TIP3    H273823   6.234   3.802  10.489
17470TIP3   OH273824   6.567   6.720  11.709
17470TIP3    H173825   6.633   6.683  11.649
17470TIP3    H273826   6.599   6.697  11.796
17471TIP3   OH273827   4.971   2.180  14.589
17471TIP3    H173828   4.921   2.157  14.511
17471TIP3    H273829   4.913   2.237  14.639
17472TIP3   OH273830   6.640   6.752   1.399
17472TIP3    H173831   6.594   6.823   1.354
17472TIP3    H273832   6.722   6.792   1.429
17473TIP3   OH273833   0.180   2.919  11.537
17473TIP3    H173834   0.210   2.838  11.495
17473TIP3    H273835   0.257   2.952  11.582
17474TIP3   OH273836   5.115   2.399   1.921
17474TIP3    H173837   5.185   2.413   1.857
17474TIP3    H273838   5.142   2.320   1.969
17475TIP3   OH273839   4.288   0.286   0.101
17475TIP3    H173840   4.259   0.323   0.018
17475TIP3    H273841   4.321   0.361   0.151
17476TIP3   OH273842   3.272   4.791   0.685
17476TIP3    H173843   3.204   4.824   0.744
17476TIP3    H273844   3.333   4.745   0.742
17477TIP3   OH273845   0.055   1.535  11.378
17477TIP3    H173846   0.022   1.624  11.391
17477TIP3    H273847   0.105   1.539  11.296
17478TIP3   OH273848   1.950   1.413   3.424
17478TIP3    H173849   1.993   1.336   3.386
17478TIP3    H273850   1.999   1.487   3.389
17479TIP3   OH273851   1.160   5.257  10.919
17479TIP3    H173852   1.121   5.325  10.974
17479TIP3    H273853   1.152   5.291  10.830
17480TIP3   OH273854   2.573   4.887   2.507
17480TIP3    H173855   2.617   4.839   2.577
17480TIP3    H273856   2.490   4.915   2.546
17481TIP3   OH273857   6.165   3.325  11.984
17481TIP3    H173858   6.105   3.387  12.025
17481TIP3    H273859   6.108   3.255  11.951
17482TIP3   OH273860   0.204   1.776  13.921
17482TIP3    H173861   0.237   1.686  13.925
17482TIP3    H273862   0.111   1.768  13.937
17483TIP3   OH273863   0.942   0.805  14.344
17483TIP3    H173864   0.874   0.825  14.280
17483TIP3    H273865   0.934   0.711  14.359
17484TIP3   OH273866   4.247   1.315   3.390
17484TIP3    H173867   4.301   1.237   3.402
17484TIP3    H273868   4.202   1.327   3.474
17485TIP3   OH273869   1.447   2.826  13.553
17485TIP3    H173870   1.414   2.736  13.546
17485TIP3    H273871   1.369   2.881  13.553
17486TIP3   OH273872   4.556   1.402   5.601
17486TIP3    H173873   4.577   1.490   5.571
17486TIP3    H273874   4.600   1.344   5.538
17487TIP3   OH273875   0.856   2.016   3.003
17487TIP3    H173876   0.815   2.085   2.951
17487TIP3    H273877   0.786   1.982   3.059
17488TIP3   OH273878   0.906   4.715   2.725
17488TIP3    H173879   0.916   4.726   2.820
17488TIP3    H273880   0.891   4.804   2.692
17489TIP3   OH273881   4.975   4.131   0.143
17489TIP3    H173882   5.011   4.194   0.205
17489TIP3    H273883   4.908   4.083   0.193
17490TIP3   OH273884   6.700   0.428   6.036
17490TIP3    H173885   6.661   0.344   6.011
17490TIP3    H273886   6.794   0.415   6.023
17491TIP3   OH273887   2.524   3.326  16.766
17491TIP3    H173888   2.503   3.397  16.827
17491TIP3    H273889   2.620   3.328  16.759
17492TIP3   OH273890   3.646   5.663   2.069
17492TIP3    H173891   3.651   5.571   2.041
17492TIP3    H273892   3.702   5.710   2.007
17493TIP3   OH273893   3.848   5.778  11.846
17493TIP3    H173894   3.752   5.775  11.841
17493TIP3    H273895   3.867   5.774  11.940
17494TIP3   OH273896   0.078   5.095  13.462
17494TIP3    H173897   0.044   5.020  13.510
17494TIP3    H273898   0.035   5.090  13.377
17495TIP3   OH273899   5.483   1.349   2.284
17495TIP3    H173900   5.421   1.412   2.319
17495TIP3    H273901   5.558   1.402   2.256
17496TIP3   OH273902   2.247   2.328  14.770
17496TIP3    H173903   2.297   2.247  14.759
17496TIP3    H273904   2.289   2.372  14.844
17497TIP3   OH273905   1.982   0.488  16.144
17497TIP3    H173906   1.948   0.516  16.058
17497TIP3    H273907   2.056   0.547  16.161
17498TIP3   OH273908   2.324   1.686   5.594
17498TIP3    H173909   2.300   1.743   5.521
17498TIP3    H273910   2.293   1.733   5.672
17499TIP3   OH273911   4.244   6.594  16.291
17499TIP3    H173912   4.191   6.625  16.365
17499TIP3    H273913   4.320   6.652  16.289
17500TIP3   OH273914   6.064   2.453  15.295
17500TIP3    H173915   6.151   2.437  15.332
17500TIP3    H273916   6.004   2.421  15.363
17501TIP3   OH273917   0.280   1.321  12.122
17501TIP3    H173918   0.302   1.302  12.213
17501TIP3    H273919   0.359   1.360  12.086
17502TIP3   OH273920   0.914   3.141   2.724
17502TIP3    H173921   0.836   3.171   2.771
17502TIP3    H273922   0.987   3.185   2.768
17503TIP3   OH273923   4.951   1.082   2.659
17503TIP3    H173924   5.003   1.010   2.624
17503TIP3    H273925   4.994   1.106   2.740
17504TIP3   OH273926   0.529   0.884  16.003
17504TIP3    H173927   0.465   0.914  15.938
17504TIP3    H273928   0.613   0.916  15.971
17505TIP3   OH273929   5.907   2.240  13.955
17505TIP3    H173930   5.950   2.159  13.983
17505TIP3    H273931   5.827   2.211  13.912
17506TIP3   OH273932   0.811   6.103   0.310
17506TIP3    H173933   0.819   6.046   0.233
17506TIP3    H273934   0.859   6.058   0.379
17507TIP3   OH273935   3.179   4.795   3.223
17507TIP3    H173936   3.144   4.763   3.306
17507TIP3    H273937   3.232   4.871   3.246
17508TIP3   OH273938   0.414   0.766  11.527
17508TIP3    H173939   0.347   0.822  11.566
17508TIP3    H273940   0.427   0.696  11.591
17509TIP3   OH273941   3.566   5.112   2.553
17509TIP3    H173942   3.529   5.183   2.502
17509TIP3    H273943   3.607   5.156   2.628
17510TIP3   OH273944   0.406   5.706   3.483
17510TIP3    H173945   0.442   5.741   3.402
17510TIP3    H273946   0.372   5.620   3.460
17511TIP3   OH273947   4.999   5.961  11.757
17511TIP3    H173948   5.018   6.035  11.698
17511TIP3    H273949   5.057   5.891  11.726
17512TIP3   OH273950   6.406   4.680   4.848
17512TIP3    H173951   6.475   4.631   4.804
17512TIP3    H273952   6.345   4.613   4.880
17513TIP3   OH273953   3.725   0.126  14.401
17513TIP3    H173954   3.695   0.046  14.358
17513TIP3    H273955   3.646   0.166  14.436
17514TIP3   OH273956   3.069   1.519   2.284
17514TIP3    H173957   2.992   1.530   2.340
17514TIP3    H273958   3.143   1.545   2.339
17515TIP3   OH273959   0.111   4.333   1.888
17515TIP3    H173960   0.176   4.399   1.863
17515TIP3    H273961   0.031   4.360   1.842
17516TIP3   OH273962   6.006   3.649  10.926
17516TIP3    H173963   5.988   3.634  11.019
17516TIP3    H273964   6.080   3.592  10.906
17517TIP3   OH273965   2.617   5.411  14.879
17517TIP3    H173966   2.683   5.358  14.922
17517TIP3    H273967   2.638   5.405  14.786
17518TIP3   OH273968   6.362   3.834  17.017
17518TIP3    H173969   6.299   3.904  16.998
17518TIP3    H273970   6.308   3.755  17.023
17519TIP3   OH273971   3.402   0.731  15.086
17519TIP3    H173972   3.333   0.699  15.144
17519TIP3    H273973   3.429   0.654  15.037
17520TIP3   OH273974   5.360   5.632  13.134
17520TIP3    H173975   5.284   5.666  13.087
17520TIP3    H273976   5.431   5.635  13.068
17521TIP3   OH273977   1.137   3.863  13.009
17521TIP3    H173978   1.049   3.859  13.045
17521TIP3    H273979   1.185   3.794  13.055
17522TIP3   OH273980   4.724   1.879   3.030
17522TIP3    H173981   4.733   1.876   3.125
17522TIP3    H273982   4.654   1.817   3.011
17523TIP3   OH273983   5.567   1.714  13.617
17523TIP3    H173984   5.538   1.737  13.705
17523TIP3    H273985   5.616   1.633  13.628
17524TIP3   OH273986   6.313   6.413   0.182
17524TIP3    H173987   6.245   6.467   0.143
17524TIP3    H273988   6.269   6.364   0.252
17525TIP3   OH273989   1.272   4.896   3.323
17525TIP3    H173990   1.226   4.885   3.406
17525TIP3    H273991   1.282   4.807   3.289
17526TIP3   OH273992   0.229   3.722  15.547
17526TIP3    H173993   0.270   3.694  15.465
17526TIP3    H273994   0.159   3.658  15.561
17527TIP3   OH273995   3.392   0.446   2.144
17527TIP3    H173996   3.429   0.466   2.058
17527TIP3    H273997   3.318   0.506   2.152
17528TIP3   OH273998   1.347   3.234   6.288
17528TIP3    H173999   1.440   3.221   6.306
17528TIP3    H274000   1.305   3.233   6.374
17529TIP3   OH274001   6.000   4.105   3.454
17529TIP3    H174002   6.051   4.024   3.450
17529TIP3    H274003   5.936   4.096   3.384
17530TIP3   OH274004   0.966   1.122   3.569
17530TIP3    H174005   0.928   1.034   3.571
17530TIP3    H274006   1.013   1.130   3.652
17531TIP3   OH274007   0.090   4.069   3.247
17531TIP3    H174008   0.063   4.159   3.230
17531TIP3    H274009   0.090   4.062   3.343
17532TIP3   OH274010   4.485   2.802  14.719
17532TIP3    H174011   4.462   2.892  14.699
17532TIP3    H274012   4.565   2.809  14.772
17533TIP3   OH274013   6.570   0.028  10.909
17533TIP3    H174014   6.487  -0.012  10.886
17533TIP3    H274015   6.580   0.010  11.003
17534TIP3   OH274016   1.287   4.401  14.139
17534TIP3    H174017   1.381   4.381  14.133
17534TIP3    H274018   1.282   4.496  14.132
17535TIP3   OH274019   5.249   3.688   0.937
17535TIP3    H174020   5.170   3.741   0.947
17535TIP3    H274021   5.302   3.708   1.015
17536TIP3   OH274022   2.099   3.607   4.039
17536TIP3    H174023   2.022   3.561   4.072
17536TIP3    H274024   2.063   3.685   3.996
17537TIP3   OH274025   5.352   4.915  16.958
17537TIP3    H174026   5.309   4.831  16.939
17537TIP3    H274027   5.356   4.959  16.873
17538TIP3   OH274028   2.688   0.731   4.531
17538TIP3    H174029   2.657   0.785   4.603
17538TIP3    H274030   2.774   0.700   4.559
17539TIP3   OH274031   1.900   3.228  16.179
17539TIP3    H174032   1.825   3.232  16.120
17539TIP3    H274033   1.877   3.160  16.243
17540TIP3   OH274034   5.119   0.838  10.450
17540TIP3    H174035   5.195   0.807  10.498
17540TIP3    H274036   5.142   0.826  10.358
17541TIP3   OH274037   5.566   2.482   4.759
17541TIP3    H174038   5.475   2.490   4.730
17541TIP3    H274039   5.607   2.565   4.735
17542TIP3   OH274040   6.672   5.271  13.268
17542TIP3    H174041   6.670   5.231  13.181
17542TIP3    H274042   6.761   5.306  13.277
17543TIP3   OH274043   1.152   0.953  13.852
17543TIP3    H174044   1.130   0.987  13.939
17543TIP3    H274045   1.237   0.991  13.832
17544TIP3   OH274046   3.154   0.686  10.594
17544TIP3    H174047   3.079   0.627  10.603
17544TIP3    H274048   3.229   0.628  10.588
17545TIP3   OH274049   3.499   3.630   4.845
17545TIP3    H174050   3.431   3.690   4.874
17545TIP3    H274051   3.472   3.545   4.880
17546TIP3   OH274052   4.269   0.198   5.016
17546TIP3    H174053   4.363   0.198   5.035
17546TIP3    H274054   4.264   0.179   4.923
17547TIP3   OH274055   3.142   6.666  16.056
17547TIP3    H174056   3.052   6.635  16.056
17547TIP3    H274057   3.168   6.664  15.963
17548TIP3   OH274058   4.832   3.977   0.317
17548TIP3    H174059   4.783   3.967   0.235
17548TIP3    H274060   4.832   3.889   0.355
17549TIP3   OH274061   0.132   1.603  15.925
17549TIP3    H174062   0.102   1.689  15.954
17549TIP3    H274063   0.207   1.583  15.981
17550TIP3   OH274064   5.405   4.247   4.172
17550TIP3    H174065   5.463   4.216   4.241
17550TIP3    H274066   5.398   4.174   4.111
17551TIP3   OH274067   2.983   3.628   4.939
17551TIP3    H174068   2.991   3.654   5.031
17551TIP3    H274069   3.003   3.708   4.891
17552TIP3   OH274070   4.406   3.302  11.938
17552TIP3    H174071   4.349   3.379  11.925
17552TIP3    H274072   4.464   3.327  12.009
17553TIP3   OH274073   4.645   2.393  12.609
17553TIP3    H174074   4.566   2.343  12.628
17553TIP3    H274075   4.613   2.481  12.590
17554TIP3   OH274076   1.191   3.872  12.044
17554TIP3    H174077   1.260   3.830  11.993
17554TIP3    H274078   1.235   3.906  12.122
17555TIP3   OH274079   6.133   0.760   0.280
17555TIP3    H174080   6.100   0.670   0.279
17555TIP3    H274081   6.228   0.751   0.275
17556TIP3   OH274082   2.298   4.605   1.660
17556TIP3    H174083   2.377   4.577   1.707
17556TIP3    H274084   2.331   4.639   1.577
17557TIP3   OH274085   5.275   5.788   3.950
17557TIP3    H174086   5.270   5.808   4.043
17557TIP3    H274087   5.367   5.766   3.936
17558TIP3   OH274088   1.345   5.023  12.569
17558TIP3    H174089   1.261   5.026  12.615
17558TIP3    H274090   1.398   5.091  12.611
17559TIP3   OH274091   0.045   3.122   4.838
17559TIP3    H174092   0.095   3.071   4.775
17559TIP3    H274093  -0.008   3.057   4.885
17560TIP3   OH274094   4.766   3.665   5.171
17560TIP3    H174095   4.716   3.741   5.203
17560TIP3    H274096   4.699   3.606   5.136
17561TIP3   OH274097   2.768   1.156   2.286
17561TIP3    H174098   2.724   1.176   2.368
17561TIP3    H274099   2.721   1.080   2.251
17562TIP3   OH274100   1.738   4.118  15.310
17562TIP3    H174101   1.694   4.148  15.230
17562TIP3    H274102   1.815   4.174  15.317
17563TIP3   OH274103   0.804   5.309  12.353
17563TIP3    H174104   0.743   5.379  12.377
17563TIP3    H274105   0.866   5.351  12.294
17564TIP3   OH274106   5.778   6.757   3.887
17564TIP3    H174107   5.856   6.775   3.834
17564TIP3    H274108   5.754   6.667   3.865
17565TIP3   OH274109   5.096   1.134  17.047
17565TIP3    H174110   5.072   1.055  16.997
17565TIP3    H274111   5.013   1.168  17.080
17566TIP3   OH274112   5.047   4.613  17.150
17566TIP3    H174113   4.960   4.573  17.145
17566TIP3    H274114   5.039   4.683  17.214
17567TIP3   OH274115   6.101   2.423  13.857
17567TIP3    H174116   6.034   2.419  13.926
17567TIP3    H274117   6.170   2.364  13.887
17568TIP3   OH274118   5.108   2.413   3.127
17568TIP3    H174119   5.116   2.490   3.071
17568TIP3    H274120   5.078   2.447   3.211
17569TIP3   OH274121   4.697   1.234   6.385
17569TIP3    H174122   4.734   1.315   6.351
17569TIP3    H274123   4.761   1.204   6.450
17570TIP3   OH274124   5.587   5.217   1.411
17570TIP3    H174125   5.539   5.191   1.332
17570TIP3    H274126   5.647   5.144   1.428
17571TIP3   OH274127   6.329   1.393   5.193
17571TIP3    H174128   6.290   1.475   5.224
17571TIP3    H274129   6.379   1.418   5.115
17572TIP3   OH274130   2.860   4.415  13.624
17572TIP3    H174131   2.806   4.466  13.685
17572TIP3    H274132   2.873   4.473  13.549
17573TIP3   OH274133   3.058   4.348   1.973
17573TIP3    H174134   3.035   4.290   2.046
17573TIP3    H274135   3.096   4.425   2.016
17574TIP3   OH274136   4.884   6.471   3.228
17574TIP3    H174137   4.802   6.469   3.179
17574TIP3    H274138   4.879   6.552   3.279
17575TIP3   OH274139   1.742   0.650   2.903
17575TIP3    H174140   1.803   0.679   2.836
17575TIP3    H274141   1.668   0.710   2.896
17576TIP3   OH274142   3.321   5.447  13.242
17576TIP3    H174143   3.333   5.518  13.180
17576TIP3    H274144   3.226   5.434  13.246
17577TIP3   OH274145   2.394   2.474   3.670
17577TIP3    H174146   2.426   2.386   3.650
17577TIP3    H274147   2.464   2.514   3.722
17578TIP3   OH274148   1.690   5.169  10.963
17578TIP3    H174149   1.709   5.087  10.916
17578TIP3    H274150   1.740   5.235  10.916
17579TIP3   OH274151   1.275   2.653  11.415
17579TIP3    H174152   1.222   2.730  11.435
17579TIP3    H274153   1.324   2.677  11.336
17580TIP3   OH274154   4.331   0.396   1.379
17580TIP3    H174155   4.354   0.309   1.410
17580TIP3    H274156   4.407   0.424   1.327
17581TIP3   OH274157   1.902   3.605  12.972
17581TIP3    H174158   1.911   3.678  13.033
17581TIP3    H274159   1.885   3.646  12.887
17582TIP3   OH274160   0.636   3.365   3.807
17582TIP3    H174161   0.646   3.431   3.876
17582TIP3    H274162   0.570   3.403   3.748
17583TIP3   OH274163   5.159   0.977  11.008
17583TIP3    H174164   5.205   0.944  10.931
17583TIP3    H274165   5.206   0.938  11.082
17584TIP3   OH274166   6.424   2.156  14.610
17584TIP3    H174167   6.436   2.177  14.517
17584TIP3    H274168   6.331   2.175  14.626
17585TIP3   OH274169   0.887   2.274   6.473
17585TIP3    H174170   0.973   2.313   6.460
17585TIP3    H274171   0.905   2.181   6.491
17586TIP3   OH274172   5.937   0.001   1.850
17586TIP3    H174173   5.982   0.086   1.843
17586TIP3    H274174   5.981  -0.043   1.924
17587TIP3   OH274175   0.631   0.690  14.075
17587TIP3    H174176   0.552   0.702  14.127
17587TIP3    H274177   0.663   0.603  14.102
17588TIP3   OH274178   0.120   5.784  16.676
17588TIP3    H174179   0.084   5.752  16.759
17588TIP3    H274180   0.064   5.744  16.609
17589TIP3   OH274181   2.213   0.740   0.371
17589TIP3    H174182   2.247   0.670   0.316
17589TIP3    H274183   2.208   0.816   0.313
17590TIP3   OH274184   0.692   1.395  10.553
17590TIP3    H174185   0.788   1.390  10.559
17590TIP3    H274186   0.661   1.357  10.636
17591TIP3   OH274187   6.433   0.354   3.020
17591TIP3    H174188   6.517   0.315   2.999
17591TIP3    H274189   6.383   0.350   2.938
17592TIP3   OH274190   5.833   1.340   0.129
17592TIP3    H174191   5.845   1.245   0.124
17592TIP3    H274192   5.919   1.374   0.153
17593TIP3   OH274193   2.064   4.167   1.272
17593TIP3    H174194   2.001   4.100   1.244
17593TIP3    H274195   2.117   4.123   1.339
17594TIP3   OH274196   5.168   4.050  14.999
17594TIP3    H174197   5.206   3.968  14.965
17594TIP3    H274198   5.238   4.089  15.051
17595TIP3   OH274199   4.559   2.611   3.986
17595TIP3    H174200   4.525   2.574   3.905
17595TIP3    H274201   4.529   2.702   3.986
17596TIP3   OH274202   0.074   3.544  16.522
17596TIP3    H174203   0.073   3.570  16.614
17596TIP3    H274204   0.166   3.540  16.499
17597TIP3   OH274205   2.678   2.365  14.650
17597TIP3    H174206   2.742   2.435  14.636
17597TIP3    H274207   2.658   2.369  14.743
17598TIP3   OH274208   1.036   4.915   0.855
17598TIP3    H174209   1.053   4.853   0.926
17598TIP3    H274210   0.944   4.939   0.865
17599TIP3   OH274211   1.523   2.400   1.064
17599TIP3    H174212   1.551   2.341   1.134
17599TIP3    H274213   1.599   2.404   1.005
17600TIP3   OH274214   5.602   4.300   1.175
17600TIP3    H174215   5.651   4.370   1.132
17600TIP3    H274216   5.622   4.222   1.124
17601TIP3   OH274217   2.108   5.196  11.631
17601TIP3    H174218   2.109   5.245  11.549
17601TIP3    H274219   2.037   5.235  11.681
17602TIP3   OH274220   6.747   3.738  12.695
17602TIP3    H174221   6.737   3.723  12.601
17602TIP3    H274222   6.814   3.805  12.702
17603TIP3   OH274223   6.426   0.594  13.850
17603TIP3    H174224   6.361   0.547  13.902
17603TIP3    H274225   6.439   0.540  13.772
17604TIP3   OH274226   3.013   0.606  11.588
17604TIP3    H174227   3.079   0.561  11.535
17604TIP3    H274228   2.964   0.536  11.630
17605TIP3   OH274229   0.145   2.641  12.667
17605TIP3    H174230   0.092   2.719  12.651
17605TIP3    H274231   0.100   2.595  12.738
17606TIP3   OH274232   4.718   0.165  15.276
17606TIP3    H174233   4.626   0.147  15.295
17606TIP3    H274234   4.764   0.084  15.299
17607TIP3   OH274235   1.119   3.648  12.416
17607TIP3    H174236   1.138   3.738  12.392
17607TIP3    H274237   1.172   3.631  12.494
17608TIP3   OH274238   1.852   6.469  13.374
17608TIP3    H174239   1.776   6.517  13.407
17608TIP3    H274240   1.905   6.535  13.328
17609TIP3   OH274241   1.828   6.573   1.677
17609TIP3    H174242   1.793   6.595   1.592
17609TIP3    H274243   1.751   6.558   1.732
17610TIP3   OH274244   2.401   0.106  16.450
17610TIP3    H174245   2.425   0.150  16.532
17610TIP3    H274246   2.385   0.015  16.476
17611TIP3   OH274247   1.284   3.045   0.837
17611TIP3    H174248   1.282   3.135   0.804
17611TIP3    H274249   1.377   3.021   0.836
17612TIP3   OH274250   6.151   4.386   3.968
17612TIP3    H174251   6.079   4.434   4.008
17612TIP3    H274252   6.193   4.341   4.041
17613TIP3   OH274253   2.488   0.095   4.369
17613TIP3    H174254   2.563   0.154   4.365
17613TIP3    H274255   2.474   0.069   4.278
17614TIP3   OH274256   5.565   6.075   0.915
17614TIP3    H174257   5.525   6.124   0.987
17614TIP3    H274258   5.493   6.053   0.857
17615TIP3   OH274259   0.173   1.594   4.418
17615TIP3    H174260   0.180   1.654   4.344
17615TIP3    H274261   0.177   1.650   4.495
17616TIP3   OH274262   1.415   0.260  16.774
17616TIP3    H174263   1.397   0.169  16.749
17616TIP3    H274264   1.506   0.259  16.804
17617TIP3   OH274265   6.732   4.234  11.080
17617TIP3    H174266   6.653   4.191  11.045
17617TIP3    H274267   6.797   4.223  11.011
17618TIP3   OH274268   2.770   6.347   3.570
17618TIP3    H174269   2.702   6.395   3.617
17618TIP3    H274270   2.722   6.296   3.505
17619TIP3   OH274271   4.374   3.996   3.377
17619TIP3    H174272   4.320   3.917   3.373
17619TIP3    H274273   4.447   3.972   3.434
17620TIP3   OH274274   0.152   0.450  12.988
17620TIP3    H174275   0.088   0.510  13.028
17620TIP3    H274276   0.224   0.506  12.961
17621TIP3   OH274277   3.404   4.792  11.067
17621TIP3    H174278   3.395   4.697  11.067
17621TIP3    H274279   3.423   4.814  10.975
17622TIP3   OH274280   1.618   4.096   5.896
17622TIP3    H174281   1.608   4.189   5.877
17622TIP3    H274282   1.602   4.089   5.990
17623TIP3   OH274283   0.826   2.867  12.856
17623TIP3    H174284   0.763   2.898  12.921
17623TIP3    H274285   0.833   2.940  12.794
17624TIP3   OH274286   5.437   1.600  14.630
17624TIP3    H174287   5.372   1.623  14.563
17624TIP3    H274288   5.385   1.566  14.703
17625TIP3   OH274289   0.412   2.297   5.282
17625TIP3    H174290   0.352   2.259   5.346
17625TIP3    H274291   0.486   2.236   5.281
17626TIP3   OH274292   1.869   5.462  14.815
17626TIP3    H174293   1.952   5.470  14.769
17626TIP3    H274294   1.809   5.518  14.767
17627TIP3   OH274295   3.803   5.339  16.628
17627TIP3    H174296   3.735   5.319  16.564
17627TIP3    H274297   3.777   5.290  16.706
17628TIP3   OH274298   3.201   2.516  16.152
17628TIP3    H174299   3.181   2.530  16.059
17628TIP3    H274300   3.296   2.510  16.156
17629TIP3   OH274301   0.156   0.137  11.455
17629TIP3    H174302   0.170   0.085  11.534
17629TIP3    H274303   0.134   0.072  11.388
17630TIP3   OH274304   6.142   4.308   2.866
17630TIP3    H174305   6.213   4.250   2.837
17630TIP3    H274306   6.071   4.248   2.890
17631TIP3   OH274307   1.916   2.270   3.856
17631TIP3    H174308   1.955   2.222   3.930
17631TIP3    H274309   1.986   2.328   3.826
17632TIP3   OH274310   4.547   1.220  13.162
17632TIP3    H174311   4.594   1.299  13.188
17632TIP3    H274312   4.578   1.152  13.221
17633TIP3   OH274313   1.602   3.961   1.483
17633TIP3    H174314   1.646   3.923   1.559
17633TIP3    H274315   1.509   3.945   1.498
17634TIP3   OH274316   3.695   6.327   1.702
17634TIP3    H174317   3.624   6.377   1.743
17634TIP3    H274318   3.674   6.329   1.608
17635TIP3   OH274319   3.542   2.069   2.867
17635TIP3    H174320   3.473   2.005   2.850
17635TIP3    H274321   3.515   2.113   2.947
17636TIP3   OH274322   2.995   6.738  15.087
17636TIP3    H174323   2.954   6.693  15.013
17636TIP3    H274324   2.923   6.751  15.150
17637TIP3   OH274325   1.355   4.700  11.830
17637TIP3    H174326   1.288   4.648  11.787
17637TIP3    H274327   1.408   4.736  11.758
17638TIP3   OH274328   0.855   0.480  11.899
17638TIP3    H174329   0.854   0.391  11.864
17638TIP3    H274330   0.926   0.480  11.963
17639TIP3   OH274331   2.734   0.297  16.843
17639TIP3    H174332   2.801   0.241  16.883
17639TIP3    H274333   2.768   0.386  16.852
17640TIP3   OH274334   0.763   4.746   6.386
17640TIP3    H174335   0.806   4.831   6.387
17640TIP3    H274336   0.821   4.690   6.334
17641TIP3   OH274337   5.832   1.504  14.311
17641TIP3    H174338   5.740   1.497  14.338
17641TIP3    H274339   5.881   1.461  14.382
17642TIP3   OH274340   5.426   6.638   3.255
17642TIP3    H174341   5.352   6.582   3.231
17642TIP3    H274342   5.444   6.689   3.176
17643TIP3   OH274343   2.228   5.677  11.617
17643TIP3    H174344   2.294   5.608  11.612
17643TIP3    H274345   2.277   5.758  11.608
17644TIP3   OH274346   4.915   4.937  12.020
17644TIP3    H174347   4.884   4.863  12.072
17644TIP3    H274348   4.910   4.906  11.929
17645TIP3   OH274349   4.156   6.337  14.042
17645TIP3    H174350   4.071   6.375  14.023
17645TIP3    H274351   4.160   6.258  13.988
17646TIP3   OH274352   0.424   3.570   4.500
17646TIP3    H174353   0.489   3.615   4.445
17646TIP3    H274354   0.345   3.568   4.446
17647TIP3   OH274355   5.110   0.419  12.275
17647TIP3    H174356   5.160   0.460  12.346
17647TIP3    H274357   5.143   0.329  12.272
17648TIP3   OH274358   2.697   0.073  11.576
17648TIP3    H174359   2.628   0.129  11.541
17648TIP3    H274360   2.778   0.106  11.536
17649TIP3   OH274361   0.082   4.984  16.055
17649TIP3    H174362   0.066   5.047  16.125
17649TIP3    H274363  -0.004   4.970  16.016
17650TIP3   OH274364   0.687   3.042   1.908
17650TIP3    H174365   0.656   2.952   1.896
17650TIP3    H274366   0.670   3.061   2.001
17651TIP3   OH274367   1.286   5.802   2.118
17651TIP3    H174368   1.298   5.839   2.030
17651TIP3    H274369   1.309   5.710   2.109
17652TIP3   OH274370   0.642   1.722   3.060
17652TIP3    H174371   0.693   1.646   3.033
17652TIP3    H274372   0.552   1.689   3.065
17653TIP3   OH274373   3.665   2.061   1.914
17653TIP3    H174374   3.664   2.025   1.825
17653TIP3    H274375   3.720   2.001   1.964
17654TIP3   OH274376   5.720   2.159  11.815
17654TIP3    H174377   5.672   2.137  11.735
17654TIP3    H274378   5.787   2.090  11.822
17655TIP3   OH274379   3.418   5.909  12.793
17655TIP3    H174380   3.358   5.840  12.821
17655TIP3    H274381   3.499   5.863  12.772
17656TIP3   OH274382   4.200   4.839  14.161
17656TIP3    H174383   4.105   4.846  14.170
17656TIP3    H274384   4.227   4.777  14.230
17657TIP3   OH274385   1.343   4.329   1.630
17657TIP3    H174386   1.363   4.267   1.700
17657TIP3    H274387   1.306   4.405   1.676
17658TIP3   OH274388   2.757   0.808  16.283
17658TIP3    H174389   2.759   0.712  16.282
17658TIP3    H274390   2.753   0.830  16.376
17659TIP3   OH274391   5.720   6.173  13.719
17659TIP3    H174392   5.707   6.202  13.809
17659TIP3    H274393   5.689   6.245  13.665
17660TIP3   OH274394   1.018   6.188   4.339
17660TIP3    H174395   1.064   6.243   4.402
17660TIP3    H274396   1.042   6.098   4.362
17661TIP3   OH274397   1.868   1.975   4.173
17661TIP3    H174398   1.793   1.969   4.113
17661TIP3    H274399   1.875   1.888   4.211
17662TIP3   OH274400   6.455   2.306   0.334
17662TIP3    H174401   6.526   2.300   0.398
17662TIP3    H274402   6.382   2.259   0.375
17663TIP3   OH274403   1.232   5.632   4.308
17663TIP3    H174404   1.170   5.588   4.250
17663TIP3    H274405   1.177   5.672   4.375
17664TIP3   OH274406   0.439   3.627   5.615
17664TIP3    H174407   0.457   3.537   5.588
17664TIP3    H274408   0.345   3.638   5.603
17665TIP3   OH274409   5.186   5.670   3.723
17665TIP3    H174410   5.262   5.661   3.666
17665TIP3    H274411   5.217   5.722   3.797
17666TIP3   OH274412   3.833   6.432  16.187
17666TIP3    H174413   3.876   6.372  16.248
17666TIP3    H274414   3.842   6.518  16.228
17667TIP3   OH274415   6.341   4.982  13.461
17667TIP3    H174416   6.369   5.064  13.419
17667TIP3    H274417   6.279   5.009  13.528
17668TIP3   OH274418   5.822   2.789   3.123
17668TIP3    H174419   5.731   2.811   3.105
17668TIP3    H274420   5.824   2.769   3.217
17669TIP3   OH274421   2.528   6.619  14.533
17669TIP3    H174422   2.437   6.642  14.514
17669TIP3    H274423   2.524   6.571  14.616
17670TIP3   OH274424   2.524   3.830   2.214
17670TIP3    H174425   2.564   3.845   2.300
17670TIP3    H274426   2.448   3.887   2.213
17671TIP3   OH274427   0.176   3.453  15.436
17671TIP3    H174428   0.240   3.405  15.489
17671TIP3    H274429   0.224   3.480  15.358
17672TIP3   OH274430   5.593   4.620   6.388
17672TIP3    H174431   5.608   4.604   6.481
17672TIP3    H274432   5.676   4.657   6.357
17673TIP3   OH274433   4.040   1.108  12.431
17673TIP3    H174434   3.994   1.058  12.499
17673TIP3    H274435   4.058   1.044  12.363
17674TIP3   OH274436   3.294   1.370   5.301
17674TIP3    H174437   3.222   1.432   5.289
17674TIP3    H274438   3.362   1.399   5.240
17675TIP3   OH274439   0.017   0.071   4.785
17675TIP3    H174440  -0.019   0.127   4.854
17675TIP3    H274441   0.112   0.082   4.791
17676TIP3   OH274442   5.931   4.962  10.623
17676TIP3    H174443   5.862   4.995  10.681
17676TIP3    H274444   6.000   4.932  10.682
17677TIP3   OH274445   2.197   1.018  10.961
17677TIP3    H174446   2.257   1.062  10.902
17677TIP3    H274447   2.214   0.924  10.947
17678TIP3   OH274448   0.561   4.506   0.237
17678TIP3    H174449   0.530   4.553   0.159
17678TIP3    H274450   0.614   4.570   0.284
17679TIP3   OH274451   1.305   1.108  13.243
17679TIP3    H174452   1.237   1.056  13.200
17679TIP3    H274453   1.383   1.092  13.191
17680TIP3   OH274454   5.664   5.427  16.141
17680TIP3    H174455   5.750   5.395  16.171
17680TIP3    H274456   5.601   5.369  16.184
17681TIP3   OH274457   0.242   5.526   6.477
17681TIP3    H174458   0.241   5.456   6.412
17681TIP3    H274459   0.321   5.576   6.457
17682TIP3   OH274460   4.306   4.452  11.638
17682TIP3    H174461   4.365   4.508  11.587
17682TIP3    H274462   4.220   4.465  11.597
17683TIP3   OH274463   6.358   1.883   2.150
17683TIP3    H174464   6.266   1.859   2.145
17683TIP3    H274465   6.362   1.949   2.220
17684TIP3   OH274466   4.937   3.596   0.245
17684TIP3    H174467   4.917   3.655   0.317
17684TIP3    H274468   5.029   3.573   0.258
17685TIP3   OH274469   0.488   6.748  16.502
17685TIP3    H174470   0.456   6.682  16.564
17685TIP3    H274471   0.542   6.806  16.555
17686TIP3   OH274472   4.454   4.413   0.724
17686TIP3    H174473   4.530   4.417   0.783
17686TIP3    H274474   4.481   4.462   0.647
17687TIP3   OH274475   6.667   4.854  15.439
17687TIP3    H174476   6.692   4.808  15.520
17687TIP3    H274477   6.749   4.887  15.404
17688TIP3   OH274478   2.051   0.179  12.810
17688TIP3    H174479   2.115   0.188  12.740
17688TIP3    H274480   2.029   0.086  12.811
17689TIP3   OH274481   5.705   3.201   2.289
17689TIP3    H174482   5.628   3.146   2.271
17689TIP3    H274483   5.776   3.159   2.240
17690TIP3   OH274484   5.366   4.722  12.009
17690TIP3    H174485   5.281   4.682  11.989
17690TIP3    H274486   5.345   4.813  12.030
17691TIP3   OH274487   2.684   2.264  16.684
17691TIP3    H174488   2.662   2.181  16.724
17691TIP3    H274489   2.741   2.241  16.611
17692TIP3   OH274490   4.840   5.277  16.210
17692TIP3    H174491   4.869   5.336  16.280
17692TIP3    H274492   4.802   5.334  16.144
17693TIP3   OH274493   5.081   3.082   0.068
17693TIP3    H174494   5.134   3.006   0.043
17693TIP3    H274495   5.144   3.146   0.102
17694TIP3   OH274496   0.844   6.232   4.633
17694TIP3    H174497   0.937   6.217   4.615
17694TIP3    H274498   0.827   6.320   4.600
17695TIP3   OH274499   5.562   5.976  11.711
17695TIP3    H174500   5.579   6.010  11.623
17695TIP3    H274501   5.492   5.912  11.699
17696TIP3   OH274502   5.019   5.887   4.881
17696TIP3    H174503   4.934   5.843   4.882
17696TIP3    H274504   5.056   5.870   4.968
17697TIP3   OH274505   4.385   6.623   5.663
17697TIP3    H174506   4.356   6.691   5.723
17697TIP3    H274507   4.315   6.558   5.665
17698TIP3   OH274508   2.292   4.331  12.489
17698TIP3    H174509   2.212   4.335  12.542
17698TIP3    H274510   2.261   4.313  12.400
17699TIP3   OH274511   4.556   2.352  14.365
17699TIP3    H174512   4.514   2.360  14.279
17699TIP3    H274513   4.625   2.287  14.352
17700TIP3   OH274514   2.382   5.503   4.110
17700TIP3    H174515   2.464   5.455   4.103
17700TIP3    H274516   2.408   5.595   4.114
17701TIP3   OH274517   5.799   1.210   6.224
17701TIP3    H174518   5.708   1.180   6.226
17701TIP3    H274519   5.793   1.305   6.220
17702TIP3   OH274520   3.381   6.203   3.808
17702TIP3    H174521   3.366   6.109   3.799
17702TIP3    H274522   3.360   6.222   3.900
17703TIP3   OH274523   1.901   4.013  15.838
17703TIP3    H174524   1.930   4.051  15.755
17703TIP3    H274525   1.918   4.080  15.903
17704TIP3   OH274526   3.306   0.567  16.191
17704TIP3    H174527   3.303   0.502  16.262
17704TIP3    H274528   3.373   0.534  16.131
17705TIP3   OH274529   3.126   5.029   1.076
17705TIP3    H174530   3.090   5.117   1.088
17705TIP3    H274531   3.218   5.038   1.101
17706TIP3   OH274532   2.308   2.226   0.611
17706TIP3    H174533   2.340   2.142   0.645
17706TIP3    H274534   2.213   2.219   0.616
17707TIP3   OH274535   4.234   2.733   6.214
17707TIP3    H174536   4.268   2.717   6.302
17707TIP3    H274537   4.198   2.649   6.186
17708TIP3   OH274538   3.452   1.119   3.495
17708TIP3    H174539   3.506   1.067   3.437
17708TIP3    H274540   3.399   1.055   3.543
17709TIP3   OH274541   0.700   1.519   1.833
17709TIP3    H174542   0.746   1.585   1.885
17709TIP3    H274543   0.768   1.456   1.808
17710TIP3   OH274544   0.796   2.452  16.621
17710TIP3    H174545   0.730   2.385  16.609
17710TIP3    H274546   0.870   2.407  16.661
17711TIP3   OH274547   3.210   5.186  11.103
17711TIP3    H174548   3.137   5.190  11.041
17711TIP3    H274549   3.190   5.253  11.169
17712TIP3   OH274550   1.231   0.682  14.290
17712TIP3    H174551   1.200   0.708  14.204
17712TIP3    H274552   1.153   0.647  14.334
17713TIP3   OH274553   5.068   2.747   2.617
17713TIP3    H174554   5.028   2.694   2.548
17713TIP3    H274555   5.004   2.816   2.635
17714TIP3   OH274556   1.300   5.758  12.431
17714TIP3    H174557   1.258   5.808  12.361
17714TIP3    H274558   1.250   5.676  12.434
17715TIP3   OH274559   5.157   2.847  12.289
17715TIP3    H174560   5.200   2.933  12.292
17715TIP3    H274561   5.073   2.860  12.333
17716TIP3   OH274562   1.044   1.000  16.998
17716TIP3    H174563   0.995   0.919  17.015
17716TIP3    H274564   1.095   1.014  17.077
17717TIP3   OH274565   6.328   0.740  14.241
17717TIP3    H174566   6.370   0.824  14.260
17717TIP3    H274567   6.344   0.687  14.320
17718TIP3   OH274568   4.626   1.569   2.267
17718TIP3    H174569   4.587   1.507   2.205
17718TIP3    H274570   4.686   1.516   2.319
17719TIP3   OH274571   6.321   1.006  16.343
17719TIP3    H174572   6.235   1.046  16.327
17719TIP3    H274573   6.364   1.007  16.258
17720TIP3   OH274574   1.334   3.601  15.902
17720TIP3    H174575   1.352   3.553  15.983
17720TIP3    H274576   1.368   3.544  15.832
17721TIP3   OH274577   0.814   5.607   3.160
17721TIP3    H174578   0.862   5.677   3.204
17721TIP3    H274579   0.876   5.569   3.099
17722TIP3   OH274580   6.156   0.451   3.203
17722TIP3    H174581   6.088   0.385   3.213
17722TIP3    H274582   6.182   0.472   3.293
17723TIP3   OH274583   0.337   2.271  15.208
17723TIP3    H174584   0.365   2.189  15.167
17723TIP3    H274585   0.244   2.278  15.187
17724TIP3   OH274586   4.483   1.735   5.782
17724TIP3    H174587   4.570   1.697   5.772
17724TIP3    H274588   4.424   1.669   5.747
17725TIP3   OH274589   4.472   6.633  11.630
17725TIP3    H174590   4.405   6.648  11.563
17725TIP3    H274591   4.422   6.618  11.711
17726TIP3   OH274592   2.721   1.920   4.200
17726TIP3    H174593   2.768   1.880   4.126
17726TIP3    H274594   2.766   1.888   4.278
17727TIP3   OH274595   6.635   1.077   5.195
17727TIP3    H174596   6.637   1.034   5.109
17727TIP3    H274597   6.723   1.114   5.205
17728TIP3   OH274598   2.116   4.825  17.014
17728TIP3    H174599   2.167   4.756  16.972
17728TIP3    H274600   2.085   4.879  16.941
17729TIP3   OH274601   1.918   5.380   3.934
17729TIP3    H174602   1.839   5.326   3.930
17729TIP3    H274603   1.970   5.341   4.004
17730TIP3   OH274604   3.076   2.399  10.831
17730TIP3    H174605   3.172   2.395  10.826
17730TIP3    H274606   3.058   2.483  10.873
17731TIP3   OH274607   1.120   3.741  14.244
17731TIP3    H174608   1.154   3.791  14.319
17731TIP3    H274609   1.139   3.796  14.168
17732TIP3   OH274610   0.212   3.400  15.935
17732TIP3    H174611   0.132   3.395  15.883
17732TIP3    H274612   0.230   3.493  15.944
17733TIP3   OH274613   6.610   6.069   5.545
17733TIP3    H174614   6.593   5.975   5.548
17733TIP3    H274615   6.699   6.076   5.509
17734TIP3   OH274616   3.220   3.156   0.093
17734TIP3    H174617   3.257   3.071   0.070
17734TIP3    H274618   3.288   3.219   0.071
17735TIP3   OH274619   5.858   6.689  10.997
17735TIP3    H174620   5.950   6.704  10.976
17735TIP3    H274621   5.848   6.723  11.085
17736TIP3   OH274622   0.618   5.498   3.481
17736TIP3    H174623   0.551   5.433   3.462
17736TIP3    H274624   0.692   5.473   3.427
17737TIP3   OH274625   1.939   4.246   0.414
17737TIP3    H174626   1.986   4.218   0.335
17737TIP3    H274627   2.003   4.297   0.463
17738TIP3   OH274628   1.827   6.562  14.531
17738TIP3    H174629   1.830   6.581  14.625
17738TIP3    H274630   1.747   6.603  14.500
17739TIP3   OH274631   1.155   6.024   3.239
17739TIP3    H174632   1.233   5.969   3.233
17739TIP3    H274633   1.113   6.018   3.153
17740TIP3   OH274634   4.621   5.347   4.513
17740TIP3    H174635   4.645   5.425   4.462
17740TIP3    H274636   4.526   5.355   4.524
17741TIP3   OH274637   3.059   2.667   4.616
17741TIP3    H174638   3.132   2.716   4.654
17741TIP3    H274639   3.041   2.598   4.680
17742TIP3   OH274640   4.987   2.921   0.519
17742TIP3    H174641   4.970   2.866   0.443
17742TIP3    H274642   4.906   2.920   0.568
17743TIP3   OH274643   5.061   2.272   4.863
17743TIP3    H174644   5.102   2.209   4.923
17743TIP3    H274645   5.095   2.249   4.777
17744TIP3   OH274646   5.255   5.635   2.265
17744TIP3    H174647   5.278   5.574   2.195
17744TIP3    H274648   5.333   5.638   2.321
17745TIP3   OH274649   2.974   4.384   4.052
17745TIP3    H174650   2.980   4.441   4.129
17745TIP3    H274651   3.052   4.329   4.057
17746TIP3   OH274652   4.223   1.204   0.720
17746TIP3    H174653   4.266   1.246   0.794
17746TIP3    H274654   4.282   1.132   0.697
17747TIP3   OH274655   5.714   6.609  11.924
17747TIP3    H174656   5.697   6.626  12.017
17747TIP3    H274657   5.738   6.516  11.921
17748TIP3   OH274658   4.723   2.545   4.703
17748TIP3    H174659   4.658   2.615   4.704
17748TIP3    H274660   4.685   2.476   4.756
17749TIP3   OH274661   6.549   6.736   3.206
17749TIP3    H174662   6.504   6.820   3.216
17749TIP3    H274663   6.553   6.722   3.111
17750TIP3   OH274664   3.504   4.292  12.421
17750TIP3    H174665   3.497   4.326  12.510
17750TIP3    H274666   3.594   4.258  12.417
17751TIP3   OH274667   0.299   0.339   2.853
17751TIP3    H174668   0.372   0.317   2.795
17751TIP3    H274669   0.280   0.258   2.900
17752TIP3   OH274670   5.364   3.623  12.541
17752TIP3    H174671   5.365   3.558  12.611
17752TIP3    H274672   5.364   3.572  12.460
17753TIP3   OH274673   0.466   0.510   6.365
17753TIP3    H174674   0.441   0.418   6.360
17753TIP3    H274675   0.457   0.543   6.276
17754TIP3   OH274676   4.721   6.441  15.090
17754TIP3    H174677   4.713   6.527  15.048
17754TIP3    H274678   4.708   6.459  15.183
17755TIP3   OH274679   6.126   2.738  15.923
17755TIP3    H174680   6.098   2.669  15.983
17755TIP3    H274681   6.047   2.762  15.875
17756TIP3   OH274682   4.504   2.140  12.996
17756TIP3    H174683   4.432   2.104  13.049
17756TIP3    H274684   4.561   2.065  12.981
17757TIP3   OH274685   3.418   4.795  11.413
17757TIP3    H174686   3.448   4.828  11.498
17757TIP3    H274687   3.439   4.702  11.415
17758TIP3   OH274688   4.630   3.450   2.282
17758TIP3    H174689   4.714   3.483   2.312
17758TIP3    H274690   4.651   3.368   2.236
17759TIP3   OH274691   0.748   6.450  15.215
17759TIP3    H174692   0.815   6.517  15.224
17759TIP3    H274693   0.695   6.457  15.294
17760TIP3   OH274694   1.044   3.367   4.105
17760TIP3    H174695   1.037   3.313   4.184
17760TIP3    H274696   1.016   3.454   4.134
17761TIP3   OH274697   0.554   3.059  13.286
17761TIP3    H174698   0.460   3.044  13.281
17761TIP3    H274699   0.569   3.086  13.377
17762TIP3   OH274700   3.857   2.529  15.834
17762TIP3    H174701   3.826   2.539  15.924
17762TIP3    H274702   3.811   2.452  15.801
17763TIP3   OH274703   0.004   0.642   4.397
17763TIP3    H174704  -0.030   0.565   4.352
17763TIP3    H274705  -0.029   0.716   4.346
17764TIP3   OH274706   5.764   4.053  14.125
17764TIP3    H174707   5.669   4.038  14.126
17764TIP3    H274708   5.780   4.096  14.041
17765TIP3   OH274709   3.423   2.481  12.602
17765TIP3    H174710   3.338   2.525  12.607
17765TIP3    H274711   3.403   2.390  12.626
17766TIP3   OH274712   5.713   4.697  11.996
17766TIP3    H174713   5.724   4.791  11.989
17766TIP3    H274714   5.630   4.685  12.042
17767TIP3   OH274715   3.100   4.012   3.007
17767TIP3    H174716   3.065   4.079   3.066
17767TIP3    H274717   3.158   4.060   2.947
17768TIP3   OH274718   1.437   6.290  16.003
17768TIP3    H174719   1.438   6.235  15.925
17768TIP3    H274720   1.485   6.369  15.977
17769TIP3   OH274721   0.867   5.563  14.746
17769TIP3    H174722   0.935   5.593  14.685
17769TIP3    H274723   0.886   5.470  14.760
17770TIP3   OH274724   2.461   2.573   1.832
17770TIP3    H174725   2.384   2.624   1.857
17770TIP3    H274726   2.531   2.608   1.888
17771TIP3   OH274727   2.142   1.562  12.983
17771TIP3    H174728   2.105   1.475  12.996
17771TIP3    H274729   2.216   1.548  12.924
17772TIP3   OH274730   3.133   1.101   0.671
17772TIP3    H174731   3.048   1.067   0.697
17772TIP3    H274732   3.183   1.105   0.753
17773TIP3   OH274733   5.097   5.719  11.701
17773TIP3    H174734   5.018   5.670  11.680
17773TIP3    H274735   5.160   5.653  11.729
17774TIP3   OH274736   0.202   5.839   0.928
17774TIP3    H174737   0.170   5.923   0.896
17774TIP3    H274738   0.246   5.859   1.010
17775TIP3   OH274739   3.716   5.841   1.883
17775TIP3    H174740   3.768   5.806   1.811
17775TIP3    H274741   3.669   5.914   1.845
17776TIP3   OH274742   1.435   1.490   5.161
17776TIP3    H174743   1.453   1.519   5.251
17776TIP3    H274744   1.502   1.533   5.108
17777TIP3   OH274745   5.295   5.475  11.354
17777TIP3    H174746   5.328   5.387  11.370
17777TIP3    H274747   5.202   5.462  11.333
17778TIP3   OH274748   0.844   3.547   3.937
17778TIP3    H174749   0.783   3.618   3.923
17778TIP3    H274750   0.929   3.590   3.947
17779TIP3   OH274751   5.725   1.317   5.922
17779TIP3    H174752   5.709   1.354   6.009
17779TIP3    H274753   5.651   1.347   5.869
17780TIP3   OH274754   1.217   0.090  15.586
17780TIP3    H174755   1.138   0.106  15.638
17780TIP3    H274756   1.184   0.068  15.499
17781TIP3   OH274757   1.728   0.403  15.756
17781TIP3    H174758   1.691   0.393  15.843
17781TIP3    H274759   1.758   0.315  15.733
17782TIP3   OH274760   2.169   3.854  11.164
17782TIP3    H174761   2.107   3.804  11.216
17782TIP3    H274762   2.121   3.877  11.085
17783TIP3   OH274763   6.005   4.078  12.534
17783TIP3    H174764   6.047   4.134  12.470
17783TIP3    H274765   5.989   4.135  12.609
17784TIP3   OH274766   1.021   2.827  12.225
17784TIP3    H174767   0.952   2.886  12.195
17784TIP3    H274768   1.056   2.788  12.145
17785TIP3   OH274769   6.517   3.950  17.196
17785TIP3    H174770   6.509   3.885  17.266
17785TIP3    H274771   6.458   3.918  17.128
17786TIP3   OH274772   5.505   2.945   4.757
17786TIP3    H174773   5.504   3.015   4.691
17786TIP3    H274774   5.542   2.986   4.835
17787TIP3   OH274775   6.210   3.356  11.267
17787TIP3    H174776   6.161   3.339  11.186
17787TIP3    H274777   6.230   3.449  11.264
17788TIP3   OH274778   5.207   2.246   0.115
17788TIP3    H174779   5.181   2.154   0.108
17788TIP3    H274780   5.167   2.288   0.039
17789TIP3   OH274781   5.506   3.651   4.454
17789TIP3    H174782   5.513   3.562   4.421
17789TIP3    H274783   5.454   3.644   4.534
17790TIP3   OH274784   3.952   0.328  16.692
17790TIP3    H174785   4.027   0.378  16.661
17790TIP3    H274786   3.875   0.379  16.665
17791TIP3   OH274787   2.177   5.284   2.864
17791TIP3    H174788   2.094   5.280   2.816
17791TIP3    H274789   2.206   5.193   2.869
17792TIP3   OH274790   6.051   3.219  15.108
17792TIP3    H174791   6.060   3.229  15.203
17792TIP3    H274792   6.140   3.210  15.076
17793TIP3   OH274793   0.998   5.634  13.524
17793TIP3    H174794   1.078   5.632  13.576
17793TIP3    H274795   1.017   5.696  13.453
17794TIP3   OH274796   2.075   2.350  12.540
17794TIP3    H174797   1.984   2.344  12.568
17794TIP3    H274798   2.076   2.305  12.455
17795TIP3   OH274799   5.632   0.269   3.349
17795TIP3    H174800   5.567   0.339   3.348
17795TIP3    H274801   5.623   0.229   3.436
17796TIP3   OH274802   4.775   1.032  13.688
17796TIP3    H174803   4.791   1.123  13.661
17796TIP3    H274804   4.802   1.028  13.779
17797TIP3   OH274805   3.691   0.585   5.484
17797TIP3    H174806   3.643   0.667   5.472
17797TIP3    H274807   3.631   0.518   5.452
17798TIP3   OH274808   2.923   6.032   2.657
17798TIP3    H174809   2.974   5.951   2.657
17798TIP3    H274810   2.986   6.100   2.632
17799TIP3   OH274811   2.997   1.274   2.501
17799TIP3    H174812   3.030   1.343   2.557
17799TIP3    H274813   2.924   1.314   2.453
17800TIP3   OH274814   3.763   5.372   5.654
17800TIP3    H174815   3.716   5.395   5.735
17800TIP3    H274816   3.745   5.278   5.642
17801TIP3   OH274817   1.173   1.905  13.480
17801TIP3    H174818   1.129   1.829  13.518
17801TIP3    H274819   1.186   1.882  13.388
17802TIP3   OH274820   0.862   5.730  16.338
17802TIP3    H174821   0.792   5.676  16.374
17802TIP3    H274822   0.942   5.697  16.380
17803TIP3   OH274823   2.092   0.316   2.987
17803TIP3    H174824   2.121   0.236   3.030
17803TIP3    H274825   2.143   0.385   3.030
17804TIP3   OH274826   6.712   1.832  14.201
17804TIP3    H174827   6.702   1.926  14.186
17804TIP3    H274828   6.805   1.821  14.220
17805TIP3   OH274829   3.242   6.073  11.223
17805TIP3    H174830   3.279   6.157  11.195
17805TIP3    H274831   3.266   6.012  11.153
17806TIP3   OH274832   4.857   0.249  11.754
17806TIP3    H174833   4.836   0.160  11.784
17806TIP3    H274834   4.936   0.272  11.801
17807TIP3   OH274835   5.380   6.020   0.116
17807TIP3    H174836   5.453   5.966   0.143
17807TIP3    H274837   5.344   6.055   0.198
17808TIP3   OH274838   0.368   0.531   3.041
17808TIP3    H174839   0.348   0.462   2.979
17808TIP3    H274840   0.297   0.594   3.032
17809TIP3   OH274841   6.779   4.682   5.594
17809TIP3    H174842   6.829   4.622   5.649
17809TIP3    H274843   6.703   4.707   5.647
17810TIP3   OH274844   0.727   5.017  10.744
17810TIP3    H174845   0.698   5.097  10.701
17810TIP3    H274846   0.808   4.994  10.698
17811TIP3   OH274847   6.109   4.288   2.045
17811TIP3    H174848   6.090   4.202   2.083
17811TIP3    H274849   6.093   4.349   2.117
17812TIP3   OH274850   2.140   1.668  15.436
17812TIP3    H174851   2.206   1.601  15.416
17812TIP3    H274852   2.192   1.745  15.460
17813TIP3   OH274853   2.600   2.884   6.602
17813TIP3    H174854   2.574   2.855   6.690
17813TIP3    H274855   2.662   2.818   6.572
17814TIP3   OH274856   0.425   6.376  11.101
17814TIP3    H174857   0.467   6.369  11.187
17814TIP3    H274858   0.495   6.404  11.043
17815TIP3   OH274859   2.735   3.605   5.286
17815TIP3    H174860   2.686   3.639   5.362
17815TIP3    H274861   2.672   3.607   5.214
17816TIP3   OH274862   1.021   4.588  12.820
17816TIP3    H174863   1.000   4.515  12.763
17816TIP3    H274864   1.070   4.649  12.765
17817TIP3   OH274865   5.749   2.596  12.868
17817TIP3    H174866   5.728   2.690  12.869
17817TIP3    H274867   5.809   2.584  12.941
17818TIP3   OH274868   0.396   5.496   1.490
17818TIP3    H174869   0.447   5.476   1.568
17818TIP3    H274870   0.336   5.565   1.517
17819TIP3   OH274871   4.002   5.907   3.121
17819TIP3    H174872   3.951   5.979   3.083
17819TIP3    H274873   3.946   5.873   3.191
17820TIP3   OH274874   4.306   3.414  12.980
17820TIP3    H174875   4.218   3.376  12.976
17820TIP3    H274876   4.296   3.488  13.040
17821TIP3   OH274877   4.229   4.426   3.826
17821TIP3    H174878   4.189   4.353   3.778
17821TIP3    H274879   4.270   4.384   3.902
17822TIP3   OH274880   3.532   0.344   0.058
17822TIP3    H174881   3.529   0.438   0.075
17822TIP3    H274882   3.569   0.337  -0.030
17823TIP3   OH274883   2.762   2.945  16.695
17823TIP3    H174884   2.750   2.966  16.602
17823TIP3    H274885   2.856   2.948  16.708
17824TIP3   OH274886   3.288   3.348   2.940
17824TIP3    H174887   3.290   3.281   3.009
17824TIP3    H274888   3.299   3.431   2.986
17825TIP3   OH274889   4.581   2.162  12.144
17825TIP3    H174890   4.570   2.249  12.105
17825TIP3    H274891   4.500   2.117  12.125
17826TIP3   OH274892   3.957   5.833   5.004
17826TIP3    H174893   4.023   5.902   5.010
17826TIP3    H274894   3.888   5.861   5.063
17827TIP3   OH274895   2.409   6.538  11.656
17827TIP3    H174896   2.401   6.586  11.738
17827TIP3    H274897   2.485   6.577  11.613
17828TIP3   OH274898   5.451   2.711  12.981
17828TIP3    H174899   5.432   2.803  12.962
17828TIP3    H274900   5.375   2.681  13.032
17829TIP3   OH274901   0.357   3.220   0.931
17829TIP3    H174902   0.295   3.203   0.860
17829TIP3    H274903   0.374   3.314   0.925
17830TIP3   OH274904   2.433   5.959   0.369
17830TIP3    H174905   2.506   6.009   0.332
17830TIP3    H274906   2.419   5.888   0.306
17831TIP3   OH274907   1.341   2.842   6.371
17831TIP3    H174908   1.293   2.760   6.363
17831TIP3    H274909   1.279   2.902   6.413
17832TIP3   OH274910   6.628   3.202  13.126
17832TIP3    H174911   6.632   3.204  13.222
17832TIP3    H274912   6.705   3.251  13.098
17833TIP3   OH274913   2.557   0.281   3.899
17833TIP3    H174914   2.519   0.297   3.813
17833TIP3    H274915   2.498   0.326   3.960
17834TIP3   OH274916   4.565   5.021   0.845
17834TIP3    H174917   4.478   4.992   0.816
17834TIP3    H274918   4.609   4.940   0.871
17835TIP3   OH274919   6.487   2.403  16.186
17835TIP3    H174920   6.397   2.436  16.190
17835TIP3    H274921   6.524   2.426  16.272
17836TIP3   OH274922   3.899   3.075   3.651
17836TIP3    H174923   3.984   3.054   3.692
17836TIP3    H274924   3.865   2.990   3.623
17837TIP3   OH274925   4.677   3.601  15.682
17837TIP3    H174926   4.601   3.646  15.646
17837TIP3    H274927   4.673   3.513  15.646
17838TIP3   OH274928   6.760   1.442  16.581
17838TIP3    H174929   6.777   1.391  16.660
17838TIP3    H274930   6.678   1.488  16.599
17839TIP3   OH274931   5.377   6.029   0.661
17839TIP3    H174932   5.408   5.998   0.576
17839TIP3    H274933   5.291   6.066   0.642
17840TIP3   OH274934   3.908   3.814   4.470
17840TIP3    H174935   3.847   3.869   4.519
17840TIP3    H274936   3.857   3.784   4.394
17841TIP3   OH274937   3.555   3.281   4.573
17841TIP3    H174938   3.555   3.376   4.563
17841TIP3    H274939   3.498   3.249   4.503
17842TIP3   OH274940   4.918   4.305   4.515
17842TIP3    H174941   4.833   4.307   4.559
17842TIP3    H274942   4.916   4.380   4.455
17843TIP3   OH274943   2.495   2.701   6.091
17843TIP3    H174944   2.536   2.782   6.062
17843TIP3    H274945   2.546   2.674   6.167
17844TIP3   OH274946   5.670   4.991  11.248
17844TIP3    H174947   5.732   4.953  11.186
17844TIP3    H274948   5.584   4.969  11.212
17845TIP3   OH274949   3.416   1.721   4.950
17845TIP3    H174950   3.356   1.707   5.024
17845TIP3    H274951   3.497   1.753   4.990
17846TIP3   OH274952   1.394   0.546  17.031
17846TIP3    H174953   1.360   0.468  16.989
17846TIP3    H274954   1.451   0.513  17.100
17847TIP3   OH274955   6.427   5.004   3.563
17847TIP3    H174956   6.444   4.911   3.547
17847TIP3    H274957   6.334   5.015   3.543
17848TIP3   OH274958   0.707   2.526   5.848
17848TIP3    H174959   0.644   2.455   5.853
17848TIP3    H274960   0.776   2.501   5.909
17849TIP3   OH274961   5.964   4.219   1.073
17849TIP3    H174962   5.978   4.156   1.002
17849TIP3    H274963   5.916   4.291   1.032
17850TIP3   OH274964   4.536   5.835  14.156
17850TIP3    H174965   4.524   5.853  14.249
17850TIP3    H274966   4.586   5.910  14.123
17851TIP3   OH274967   4.722   2.243   0.197
17851TIP3    H174968   4.679   2.297   0.263
17851TIP3    H274969   4.808   2.225   0.234
17852TIP3   OH274970   1.077   6.399  16.638
17852TIP3    H174971   1.007   6.368  16.580
17852TIP3    H274972   1.043   6.384  16.727
17853TIP3   OH274973   2.830   3.409   4.020
17853TIP3    H174974   2.818   3.459   4.100
17853TIP3    H274975   2.853   3.321   4.050
17854TIP3   OH274976   1.826   3.965   1.230
17854TIP3    H174977   1.823   3.904   1.304
17854TIP3    H274978   1.742   3.952   1.185
17855TIP3   OH274979   3.495   4.665  14.811
17855TIP3    H174980   3.459   4.586  14.851
17855TIP3    H274981   3.579   4.637  14.775
17856TIP3   OH274982   1.726   4.787  15.324
17856TIP3    H174983   1.678   4.775  15.405
17856TIP3    H274984   1.798   4.723  15.329
17857TIP3   OH274985   2.410   0.756   2.990
17857TIP3    H174986   2.401   0.663   3.011
17857TIP3    H274987   2.329   0.779   2.946
17858TIP3   OH274988   6.207   4.741   3.052
17858TIP3    H174989   6.285   4.779   3.012
17858TIP3    H274990   6.215   4.647   3.038
17859TIP3   OH274991   3.695   0.432   2.015
17859TIP3    H174992   3.721   0.486   2.090
17859TIP3    H274993   3.660   0.495   1.952
17860TIP3   OH274994   2.719   1.392   2.145
17860TIP3    H174995   2.690   1.309   2.107
17860TIP3    H274996   2.752   1.369   2.232
17861TIP3   OH274997   1.659   2.019  13.744
17861TIP3    H174998   1.752   1.998  13.747
17861TIP3    H274999   1.651   2.082  13.673
17862TIP3   OH275000   5.857   1.512  15.485
17862TIP3    H175001   5.904   1.448  15.538
17862TIP3    H275002   5.765   1.496  15.504
17863TIP3   OH275003   1.665   2.909   0.333
17863TIP3    H175004   1.679   2.817   0.312
17863TIP3    H275005   1.686   2.956   0.253
17864TIP3   OH275006   2.782   4.702   5.451
17864TIP3    H175007   2.726   4.777   5.431
17864TIP3    H275008   2.789   4.703   5.547
17865TIP3   OH275009   6.092   1.028  15.421
17865TIP3    H175010   6.163   1.091  15.422
17865TIP3    H275011   6.099   0.986  15.335
17866TIP3   OH275012   6.264   5.466   1.270
17866TIP3    H175013   6.188   5.434   1.221
17866TIP3    H275014   6.232   5.481   1.358
17867TIP3   OH275015   5.382   4.555   5.869
17867TIP3    H175016   5.466   4.596   5.886
17867TIP3    H275017   5.346   4.602   5.794
17868TIP3   OH275018   2.486   3.630   0.007
17868TIP3    H175019   2.432   3.580  -0.054
17868TIP3    H275020   2.424   3.676   0.063
17869TIP3   OH275021   2.490   5.223   1.636
17869TIP3    H175022   2.463   5.293   1.577
17869TIP3    H275023   2.408   5.191   1.675
17870TIP3   OH275024   3.314   6.770   5.238
17870TIP3    H175025   3.337   6.682   5.269
17870TIP3    H275026   3.383   6.826   5.273
17871TIP3   OH275027   6.768   3.744  12.425
17871TIP3    H175028   6.786   3.678  12.358
17871TIP3    H275029   6.804   3.825  12.390
17872TIP3   OH275030   2.263   5.727  13.415
17872TIP3    H175031   2.245   5.808  13.369
17872TIP3    H275032   2.177   5.689  13.431
17873TIP3   OH275033   4.618   3.111   1.555
17873TIP3    H175034   4.642   3.175   1.622
17873TIP3    H275035   4.571   3.043   1.603
17874TIP3   OH275036   5.682   0.777   5.196
17874TIP3    H175037   5.730   0.827   5.129
17874TIP3    H275038   5.736   0.700   5.212
17875TIP3   OH275039   5.502   2.773   5.231
17875TIP3    H175040   5.480   2.680   5.238
17875TIP3    H275041   5.545   2.793   5.314
17876TIP3   OH275042   2.528   6.761  13.577
17876TIP3    H175043   2.560   6.677  13.611
17876TIP3    H275044   2.579   6.827  13.623
17877TIP3   OH275045   0.314   5.170  11.736
17877TIP3    H175046   0.375   5.243  11.749
17877TIP3    H275047   0.293   5.140  11.825
17878TIP3   OH275048   1.940   6.428   0.698
17878TIP3    H175049   1.939   6.342   0.656
17878TIP3    H275050   1.946   6.490   0.625
17879TIP3   OH275051   1.382   1.291  16.041
17879TIP3    H175052   1.350   1.369  15.996
17879TIP3    H275053   1.319   1.223  16.018
17880TIP3   OH275054   2.406   0.653   4.181
17880TIP3    H175055   2.460   0.733   4.181
17880TIP3    H275056   2.377   0.645   4.272
17881TIP3   OH275057   1.219   2.321   2.338
17881TIP3    H175058   1.156   2.251   2.355
17881TIP3    H275059   1.173   2.380   2.277
17882TIP3   OH275060   5.113   5.565  15.489
17882TIP3    H175061   5.095   5.510  15.565
17882TIP3    H275062   5.175   5.631  15.521
17883TIP3   OH275063   0.394   2.965   3.911
17883TIP3    H175064   0.428   2.902   3.847
17883TIP3    H275065   0.362   3.038   3.858
17884TIP3   OH275066   2.129   1.082   6.421
17884TIP3    H175067   2.134   1.056   6.513
17884TIP3    H275068   2.204   1.039   6.380
17885TIP3   OH275069   2.265   5.477   0.173
17885TIP3    H175070   2.195   5.475   0.108
17885TIP3    H275071   2.345   5.458   0.122
17886TIP3   OH275072   5.641   0.614  17.084
17886TIP3    H175073   5.685   0.586  17.004
17886TIP3    H275074   5.552   0.635  17.057
17887TIP3   OH275075   0.404   4.025   3.431
17887TIP3    H175076   0.487   3.979   3.442
17887TIP3    H275077   0.392   4.032   3.336
17888TIP3   OH275078   4.981   6.131   4.985
17888TIP3    H175079   5.061   6.161   4.941
17888TIP3    H275080   4.982   6.036   4.974
17889TIP3   OH275081   4.835   1.961   4.128
17889TIP3    H175082   4.851   2.054   4.145
17889TIP3    H275083   4.866   1.917   4.207
17890TIP3   OH275084   5.887   6.725  10.643
17890TIP3    H175085   5.901   6.639  10.604
17890TIP3    H275086   5.858   6.707  10.732
17891TIP3   OH275087   0.042   4.828  11.961
17891TIP3    H175088   0.046   4.763  11.891
17891TIP3    H275089  -0.016   4.896  11.927
17892TIP3   OH275090   3.781   3.408  15.054
17892TIP3    H175091   3.702   3.462  15.049
17892TIP3    H275092   3.801   3.387  14.962
17893TIP3   OH275093   3.321   4.750  15.665
17893TIP3    H175094   3.264   4.826  15.674
17893TIP3    H275095   3.325   4.712  15.753
17894TIP3   OH275096   1.124   5.211  11.859
17894TIP3    H175097   1.148   5.285  11.804
17894TIP3    H275098   1.193   5.207  11.926
17895TIP3   OH275099   0.371   2.672  14.703
17895TIP3    H175100   0.391   2.722  14.623
17895TIP3    H275101   0.284   2.636  14.687
17896TIP3   OH275102   1.319   1.996  12.019
17896TIP3    H175103   1.351   2.022  11.932
17896TIP3    H275104   1.249   2.058  12.038
17897TIP3   OH275105   3.870   4.992  12.251
17897TIP3    H175106   3.850   4.917  12.195
17897TIP3    H275107   3.958   4.973  12.286
17898TIP3   OH275108   3.479   2.629   5.172
17898TIP3    H175109   3.512   2.674   5.249
17898TIP3    H275110   3.536   2.553   5.162
17899TIP3   OH275111   1.851   2.150  17.125
17899TIP3    H175112   1.931   2.202  17.115
17899TIP3    H275113   1.843   2.137  17.219
17900TIP3   OH275114   3.658   5.662  14.829
17900TIP3    H175115   3.737   5.612  14.807
17900TIP3    H275116   3.586   5.605  14.803
17901TIP3   OH275117   3.572   3.602  12.333
17901TIP3    H175118   3.569   3.506  12.331
17901TIP3    H275119   3.660   3.623  12.300
17902TIP3   OH275120   1.401   6.376  13.536
17902TIP3    H175121   1.413   6.364  13.630
17902TIP3    H275122   1.307   6.389  13.525
17903TIP3   OH275123   3.517   2.256   0.358
17903TIP3    H175124   3.588   2.254   0.422
17903TIP3    H275125   3.506   2.164   0.332
17904TIP3   OH275126   0.787   0.699  16.296
17904TIP3    H175127   0.847   0.727  16.227
17904TIP3    H275128   0.734   0.777  16.315
17905TIP3   OH275129   0.705   1.620   4.992
17905TIP3    H175130   0.738   1.707   4.973
17905TIP3    H275131   0.750   1.593   5.073
17906TIP3   OH275132   5.813   1.998   2.488
17906TIP3    H175133   5.781   2.065   2.428
17906TIP3    H275134   5.764   2.013   2.569
17907TIP3   OH275135   6.529   5.622  13.314
17907TIP3    H175136   6.556   5.550  13.257
17907TIP3    H275137   6.610   5.663  13.342
17908TIP3   OH275138   1.438   5.280   3.877
17908TIP3    H175139   1.423   5.351   3.939
17908TIP3    H275140   1.351   5.254   3.848
17909TIP3   OH275141   5.405   5.008   0.422
17909TIP3    H175142   5.326   4.957   0.440
17909TIP3    H275143   5.400   5.027   0.328
17910TIP3   OH275144   6.218   2.316   5.408
17910TIP3    H175145   6.212   2.251   5.478
17910TIP3    H275146   6.295   2.368   5.431
17911TIP3   OH275147   6.252   1.204  15.860
17911TIP3    H175148   6.266   1.136  15.795
17911TIP3    H275149   6.322   1.267  15.843
17912TIP3   OH275150   5.798   6.345   3.241
17912TIP3    H175151   5.886   6.321   3.212
17912TIP3    H275152   5.790   6.304   3.327
17913TIP3   OH275153   3.681   0.326  11.097
17913TIP3    H175154   3.658   0.262  11.030
17913TIP3    H275155   3.709   0.403  11.049
17914TIP3   OH275156   2.911   3.673  12.262
17914TIP3    H175157   2.934   3.581  12.277
17914TIP3    H275158   2.868   3.673  12.176
17915TIP3   OH275159   2.829   2.668  11.240
17915TIP3    H175160   2.916   2.698  11.217
17915TIP3    H275161   2.835   2.646  11.333
17916TIP3   OH275162   6.608   3.940   4.487
17916TIP3    H175163   6.533   3.881   4.482
17916TIP3    H275164   6.573   4.025   4.460
17917TIP3   OH275165   3.835   5.419   1.380
17917TIP3    H175166   3.806   5.392   1.294
17917TIP3    H275167   3.789   5.361   1.441
17918TIP3   OH275168   4.844   0.741  16.747
17918TIP3    H175169   4.901   0.680  16.794
17918TIP3    H275170   4.806   0.688  16.677
17919TIP3   OH275171   2.311   0.964  16.778
17919TIP3    H175172   2.309   1.015  16.697
17919TIP3    H275173   2.219   0.960  16.806
17920TIP3   OH275174   3.437   3.423   2.408
17920TIP3    H175175   3.424   3.358   2.339
17920TIP3    H275176   3.464   3.502   2.363
17921TIP3   OH275177   0.340   1.844  12.253
17921TIP3    H175178   0.379   1.925  12.287
17921TIP3    H275179   0.345   1.854  12.158
17922TIP3   OH275180   1.003   4.006   3.896
17922TIP3    H175181   1.026   4.098   3.881
17922TIP3    H275182   0.910   4.009   3.921
17923TIP3   OH275183   4.707   1.729   4.788
17923TIP3    H175184   4.785   1.692   4.745
17923TIP3    H275185   4.688   1.669   4.860
17924TIP3   OH275186   2.402   1.890   0.559
17924TIP3    H175187   2.366   1.862   0.474
17924TIP3    H275188   2.381   1.818   0.618
17925TIP3   OH275189   6.437   2.169  15.575
17925TIP3    H175190   6.483   2.104  15.627
17925TIP3    H275191   6.490   2.248  15.583
17926TIP3   OH275192   6.169   6.298  14.819
17926TIP3    H175193   6.228   6.247  14.763
17926TIP3    H275194   6.172   6.386  14.783
17927TIP3   OH275195   5.138   0.919  15.340
17927TIP3    H175196   5.091   0.877  15.412
17927TIP3    H275197   5.219   0.869  15.333
17928TIP3   OH275198   3.539   0.280   6.006
17928TIP3    H175199   3.528   0.371   5.980
17928TIP3    H275200   3.606   0.282   6.075
17929TIP3   OH275201   4.337   5.925   0.125
17929TIP3    H175202   4.428   5.947   0.143
17929TIP3    H275203   4.328   5.835   0.155
17930TIP3   OH275204   3.789   4.666  14.698
17930TIP3    H175205   3.838   4.699  14.623
17930TIP3    H275206   3.790   4.571  14.689
17931TIP3   OH275207   3.417   4.703   2.982
17931TIP3    H175208   3.362   4.772   3.020
17931TIP3    H275209   3.361   4.661   2.918
17932TIP3   OH275210   5.569   0.866  14.447
17932TIP3    H175211   5.498   0.834  14.391
17932TIP3    H275212   5.644   0.873  14.388
17933TIP3   OH275213   6.367   0.485  11.873
17933TIP3    H175214   6.399   0.396  11.888
17933TIP3    H275215   6.313   0.477  11.795
17934TIP3   OH275216   1.516   1.793   4.699
17934TIP3    H175217   1.430   1.751   4.694
17934TIP3    H275218   1.543   1.802   4.607
17935TIP3   OH275219   5.993   3.871   2.543
17935TIP3    H175220   5.923   3.867   2.478
17935TIP3    H275221   6.071   3.842   2.497
17936TIP3   OH275222   1.184   0.346   4.767
17936TIP3    H175223   1.242   0.390   4.705
17936TIP3    H275224   1.242   0.305   4.830
17937TIP3   OH275225   3.426   1.374   2.978
17937TIP3    H175226   3.491   1.386   3.047
17937TIP3    H275227   3.350   1.337   3.022
17938TIP3   OH275228   4.001   3.099   1.869
17938TIP3    H175229   3.994   3.192   1.847
17938TIP3    H275230   3.914   3.076   1.902
17939TIP3   OH275231   0.162   5.371   1.357
17939TIP3    H175232   0.133   5.449   1.404
17939TIP3    H275233   0.235   5.337   1.409
17940TIP3   OH275234   2.499   0.666  14.201
17940TIP3    H175235   2.518   0.588  14.149
17940TIP3    H275236   2.474   0.732  14.136
17941TIP3   OH275237   1.710   3.842  13.475
17941TIP3    H175238   1.692   3.748  13.474
17941TIP3    H275239   1.644   3.878  13.534
17942TIP3   OH275240   3.750   1.880   4.865
17942TIP3    H175241   3.796   1.880   4.949
17942TIP3    H275242   3.790   1.951   4.815
17943TIP3   OH275243   2.011   2.096  14.113
17943TIP3    H175244   1.959   2.176  14.105
17943TIP3    H275245   2.087   2.110  14.057
17944TIP3   OH275246   1.754   1.546  12.882
17944TIP3    H175247   1.833   1.596  12.861
17944TIP3    H275248   1.697   1.610  12.926
17945TIP3   OH275249   4.680   3.787  10.835
17945TIP3    H175250   4.590   3.811  10.858
17945TIP3    H275251   4.683   3.692  10.845
17946TIP3   OH275252   3.432   0.046   1.327
17946TIP3    H175253   3.414  -0.027   1.386
17946TIP3    H275254   3.509   0.089   1.364
17947TIP3   OH275255   5.973   6.571   2.780
17947TIP3    H175256   5.947   6.615   2.860
17947TIP3    H275257   5.954   6.478   2.796
17948TIP3   OH275258   0.916   6.352   0.321
17948TIP3    H175259   0.894   6.265   0.355
17948TIP3    H275260   0.948   6.336   0.232
17949TIP3   OH275261   6.149   2.312  14.497
17949TIP3    H175262   6.193   2.390  14.463
17949TIP3    H275263   6.180   2.305  14.587
17950TIP3   OH275264   3.551   2.782  11.230
17950TIP3    H175265   3.478   2.724  11.208
17950TIP3    H275266   3.582   2.815  11.146
17951TIP3   OH275267   1.979   1.294  12.049
17951TIP3    H175268   1.968   1.359  11.980
17951TIP3    H275269   1.986   1.346  12.129
17952TIP3   OH275270   6.316   4.839  15.149
17952TIP3    H175271   6.276   4.784  15.216
17952TIP3    H275272   6.387   4.786  15.113
17953TIP3   OH275273   6.099   0.824  17.202
17953TIP3    H175274   6.183   0.856  17.233
17953TIP3    H275275   6.046   0.814  17.281
17954TIP3   OH275276   2.869   6.359   4.239
17954TIP3    H175277   2.788   6.336   4.194
17954TIP3    H275278   2.878   6.453   4.227
17955TIP3   OH275279   1.913   4.661  10.784
17955TIP3    H175280   1.979   4.609  10.828
17955TIP3    H275281   1.839   4.601  10.771
17956TIP3   OH275282   3.961   0.767  17.090
17956TIP3    H175283   3.950   0.679  17.055
17956TIP3    H275284   3.986   0.820  17.015
17957TIP3   OH275285   6.697   1.025  13.899
17957TIP3    H175286   6.780   1.068  13.920
17957TIP3    H275287   6.708   0.935  13.930
17958TIP3   OH275288   4.010   1.466   0.241
17958TIP3    H175289   4.084   1.405   0.245
17958TIP3    H275290   3.938   1.419   0.284
17959TIP3   OH275291   6.425   3.655  13.471
17959TIP3    H175292   6.481   3.702  13.410
17959TIP3    H275293   6.440   3.562  13.451
17960TIP3   OH275294   3.912   4.277   1.421
17960TIP3    H175295   3.817   4.290   1.411
17960TIP3    H275296   3.933   4.315   1.506
17961TIP3   OH275297   3.474   1.879   1.401
17961TIP3    H175298   3.526   1.809   1.440
17961TIP3    H275299   3.412   1.835   1.344
17962TIP3   OH275300   0.271   4.323   5.587
17962TIP3    H175301   0.284   4.350   5.496
17962TIP3    H275302   0.357   4.333   5.627
17963TIP3   OH275303   1.984   6.090  13.093
17963TIP3    H175304   1.894   6.113  13.070
17963TIP3    H275305   2.026   6.174  13.110
17964TIP3   OH275306   3.487   0.318  16.718
17964TIP3    H175307   3.409   0.351  16.763
17964TIP3    H275308   3.527   0.395  16.678
17965TIP3   OH275309   5.347   2.109  13.057
17965TIP3    H175310   5.262   2.129  13.018
17965TIP3    H275311   5.365   2.019  13.030
17966TIP3   OH275312   5.768   0.277   4.723
17966TIP3    H175313   5.755   0.191   4.763
17966TIP3    H275314   5.683   0.298   4.683
17967TIP3   OH275315   6.215   1.799  15.029
17967TIP3    H175316   6.141   1.852  15.059
17967TIP3    H275317   6.233   1.740  15.102
17968TIP3   OH275318   1.952   0.633   5.902
17968TIP3    H175319   1.967   0.554   5.954
17968TIP3    H275320   1.905   0.693   5.961
17969TIP3   OH275321   6.765   1.816  11.914
17969TIP3    H175322   6.774   1.909  11.934
17969TIP3    H275323   6.854   1.785  11.901
17970TIP3   OH275324   0.572   3.401  12.797
17970TIP3    H175325   0.583   3.434  12.708
17970TIP3    H275326   0.549   3.309  12.787
17971TIP3   OH275327   4.180   4.177  14.604
17971TIP3    H175328   4.121   4.249  14.584
17971TIP3    H275329   4.266   4.207  14.574
17972TIP3   OH275330   3.472   2.542   0.872
17972TIP3    H175331   3.412   2.567   0.942
17972TIP3    H275332   3.559   2.562   0.906
17973TIP3   OH275333   6.134   4.282   1.270
17973TIP3    H175334   6.109   4.211   1.329
17973TIP3    H275335   6.079   4.270   1.193
17974TIP3   OH275336   1.469   2.950   2.575
17974TIP3    H175337   1.439   3.000   2.499
17974TIP3    H275338   1.397   2.890   2.595
17975TIP3   OH275339   3.858   0.331   1.085
17975TIP3    H175340   3.899   0.264   1.139
17975TIP3    H275341   3.811   0.387   1.147
17976TIP3   OH275342   1.280   0.223   3.131
17976TIP3    H175343   1.224   0.174   3.071
17976TIP3    H275344   1.324   0.156   3.183
17977TIP3   OH275345   0.891   4.654   5.232
17977TIP3    H175346   0.982   4.640   5.205
17977TIP3    H275347   0.844   4.576   5.201
17978TIP3   OH275348   6.738   3.727  15.713
17978TIP3    H175349   6.723   3.737  15.619
17978TIP3    H275350   6.658   3.762  15.753
17979TIP3   OH275351   6.554   4.171  16.137
17979TIP3    H175352   6.636   4.220  16.128
17979TIP3    H275353   6.573   4.105  16.203
17980TIP3   OH275354   0.324   5.089  15.854
17980TIP3    H175355   0.307   5.004  15.814
17980TIP3    H275356   0.247   5.105  15.909
17981TIP3   OH275357   2.530   4.240  11.521
17981TIP3    H175358   2.619   4.213  11.545
17981TIP3    H275359   2.527   4.227  11.426
17982TIP3   OH275360   4.683   1.836  14.369
17982TIP3    H175361   4.706   1.929  14.361
17982TIP3    H275362   4.741   1.802  14.437
17983TIP3   OH275363   2.594   5.601  13.610
17983TIP3    H175364   2.565   5.690  13.634
17983TIP3    H275365   2.652   5.614  13.535
17984TIP3   OH275366   2.385   2.884  14.596
17984TIP3    H175367   2.305   2.848  14.634
17984TIP3    H275368   2.451   2.816  14.612
17985TIP3   OH275369   5.509   6.718  16.394
17985TIP3    H175370   5.572   6.655  16.428
17985TIP3    H275371   5.554   6.803  16.399
17986TIP3   OH275372   6.381   3.331  16.657
17986TIP3    H175373   6.432   3.312  16.736
17986TIP3    H275374   6.326   3.254  16.645
17987TIP3   OH275375   1.972   6.669   3.100
17987TIP3    H175376   2.057   6.628   3.116
17987TIP3    H275377   1.914   6.629   3.164
17988TIP3   OH275378   0.920   3.680   2.985
17988TIP3    H175379   0.983   3.616   2.952
17988TIP3    H275380   0.903   3.738   2.910
17989TIP3   OH275381   0.175   5.201  15.179
17989TIP3    H175382   0.082   5.211  15.200
17989TIP3    H275383   0.221   5.245  15.250
17990TIP3   OH275384   5.599   0.249  11.583
17990TIP3    H175385   5.508   0.278  11.579
17990TIP3    H275386   5.594   0.154  11.578
17991TIP3   OH275387   2.171   1.790  15.171
17991TIP3    H175388   2.166   1.732  15.247
17991TIP3    H275389   2.203   1.735  15.100
17992TIP3   OH275390   2.521   0.901   1.950
17992TIP3    H175391   2.552   0.810   1.953
17992TIP3    H275392   2.431   0.894   1.919
17993TIP3   OH275393   5.663   0.024   2.129
17993TIP3    H175394   5.723  -0.038   2.171
17993TIP3    H275395   5.653  -0.009   2.040
17994TIP3   OH275396   3.120   4.405   6.114
17994TIP3    H175397   3.151   4.332   6.169
17994TIP3    H275398   3.102   4.475   6.176
17995TIP3   OH275399   2.875   5.047   4.618
17995TIP3    H175400   2.908   5.032   4.706
17995TIP3    H275401   2.781   5.062   4.630
17996TIP3   OH275402   6.292   6.402   2.526
17996TIP3    H175403   6.364   6.352   2.565
17996TIP3    H275404   6.314   6.407   2.433
17997TIP3   OH275405   5.921   6.239  14.280
17997TIP3    H175406   5.875   6.290  14.214
17997TIP3    H275407   5.971   6.304  14.330
17998TIP3   OH275408   6.384   6.433   4.263
17998TIP3    H175409   6.326   6.483   4.320
17998TIP3    H275410   6.405   6.493   4.192
17999TIP3   OH275411   1.691   4.466   4.016
17999TIP3    H175412   1.668   4.455   4.108
17999TIP3    H275413   1.698   4.560   4.003
18000TIP3   OH275414   1.854   2.192  10.618
18000TIP3    H175415   1.837   2.138  10.541
18000TIP3    H275416   1.949   2.186  10.630
18001TIP3   OH275417   5.245   1.033   5.671
18001TIP3    H175418   5.317   1.096   5.661
18001TIP3    H275419   5.288   0.950   5.693
18002TIP3   OH275420   0.729   3.781   3.792
18002TIP3    H175421   0.658   3.824   3.745
18002TIP3    H275422   0.758   3.847   3.856
18003TIP3   OH275423   2.254   1.293   3.343
18003TIP3    H175424   2.286   1.382   3.359
18003TIP3    H275425   2.321   1.253   3.288
18004TIP3   OH275426   5.639   2.832   0.251
18004TIP3    H175427   5.612   2.907   0.303
18004TIP3    H275428   5.707   2.790   0.303
18005TIP3   OH275429   5.196   6.537  13.846
18005TIP3    H175430   5.139   6.510  13.917
18005TIP3    H275431   5.274   6.572  13.889
18006TIP3   OH275432   0.589   2.311  13.285
18006TIP3    H175433   0.601   2.329  13.192
18006TIP3    H275434   0.654   2.366  13.329
18007TIP3   OH275435   1.052   2.511  11.451
18007TIP3    H175436   1.039   2.439  11.389
18007TIP3    H275437   1.086   2.583  11.398
18008TIP3   OH275438   0.533   5.758   0.449
18008TIP3    H175439   0.485   5.677   0.468
18008TIP3    H275440   0.533   5.765   0.354
18009TIP3   OH275441   4.415   6.092   2.736
18009TIP3    H175442   4.322   6.086   2.761
18009TIP3    H275443   4.419   6.050   2.651
18010TIP3   OH275444   5.225   2.723   2.270
18010TIP3    H175445   5.134   2.718   2.238
18010TIP3    H275446   5.256   2.633   2.268
18011TIP3   OH275447   5.309   5.505  11.831
18011TIP3    H175448   5.229   5.453  11.841
18011TIP3    H275449   5.347   5.477  11.748
18012TIP3   OH275450   1.856   3.552   3.411
18012TIP3    H175451   1.841   3.601   3.492
18012TIP3    H275452   1.921   3.486   3.434
18013TIP3   OH275453   0.508   4.840   5.521
18013TIP3    H175454   0.461   4.798   5.593
18013TIP3    H275455   0.529   4.769   5.460
18014TIP3   OH275456   0.687   6.581  12.216
18014TIP3    H175457   0.781   6.565  12.214
18014TIP3    H275458   0.661   6.559  12.305
18015TIP3   OH275459   3.295   3.944   6.568
18015TIP3    H175460   3.207   3.964   6.536
18015TIP3    H275461   3.314   3.857   6.534
18016TIP3   OH275462   5.158   6.519   3.178
18016TIP3    H175463   5.067   6.505   3.204
18016TIP3    H275464   5.152   6.576   3.101
18017TIP3   OH275465   5.896   4.448   5.829
18017TIP3    H175466   5.988   4.456   5.854
18017TIP3    H275467   5.880   4.354   5.830
18018TIP3   OH275468   3.675   3.279  11.425
18018TIP3    H175469   3.630   3.196  11.412
18018TIP3    H275470   3.657   3.330  11.346
18019TIP3   OH275471   5.408   6.724   5.040
18019TIP3    H175472   5.393   6.738   5.133
18019TIP3    H275473   5.502   6.710   5.032
18020TIP3   OH275474   5.670   3.165   0.705
18020TIP3    H175475   5.576   3.176   0.718
18020TIP3    H275476   5.702   3.254   0.687
18021TIP3   OH275477   0.421   5.871  11.980
18021TIP3    H175478   0.341   5.825  12.004
18021TIP3    H275479   0.452   5.827  11.901
18022TIP3   OH275480   5.784   3.093  11.172
18022TIP3    H175481   5.798   3.007  11.131
18022TIP3    H275482   5.722   3.076  11.243
18023TIP3   OH275483   5.050   6.151   0.343
18023TIP3    H175484   5.010   6.079   0.293
18023TIP3    H275485   5.142   6.148   0.319
18024TIP3   OH275486   3.451   5.937   4.604
18024TIP3    H175487   3.358   5.941   4.582
18024TIP3    H275488   3.496   5.959   4.522
18025TIP3   OH275489   0.995   1.564   4.336
18025TIP3    H175490   1.025   1.546   4.247
18025TIP3    H275491   0.905   1.532   4.339
18026TIP3   OH275492   2.481   4.184   5.355
18026TIP3    H175493   2.540   4.259   5.351
18026TIP3    H275494   2.537   4.108   5.337
18027TIP3   OH275495   0.033   4.693   0.729
18027TIP3    H175496  -0.036   4.719   0.790
18027TIP3    H275497   0.112   4.737   0.762
18028TIP3   OH275498   4.577   1.658   4.332
18028TIP3    H175499   4.547   1.744   4.300
18028TIP3    H275500   4.498   1.605   4.336
18029TIP3   OH275501   1.277   6.503  16.875
18029TIP3    H175502   1.241   6.524  16.788
18029TIP3    H275503   1.324   6.421  16.862
18030TIP3   OH275504   3.500   2.248   3.079
18030TIP3    H175505   3.537   2.245   3.167
18030TIP3    H275506   3.445   2.326   3.078
18031TIP3   OH275507   4.401   1.905  12.818
18031TIP3    H175508   4.465   1.931  12.884
18031TIP3    H275509   4.433   1.942  12.736
18032TIP3   OH275510   2.339   2.545  15.522
18032TIP3    H175511   2.422   2.509  15.552
18032TIP3    H275512   2.359   2.582  15.436
18033TIP3   OH275513   1.486   3.578   0.637
18033TIP3    H175514   1.529   3.505   0.592
18033TIP3    H275515   1.552   3.611   0.698
18034TIP3   OH275516   3.543   5.555   2.327
18034TIP3    H175517   3.616   5.611   2.354
18034TIP3    H275518   3.517   5.589   2.241
18035TIP3   OH275519   1.884   2.218   5.471
18035TIP3    H175520   1.926   2.255   5.393
18035TIP3    H275521   1.862   2.294   5.524
18036TIP3   OH275522   6.332   4.632   5.971
18036TIP3    H175523   6.306   4.615   5.880
18036TIP3    H275524   6.272   4.579   6.023
18037TIP3   OH275525   5.123   0.582   2.199
18037TIP3    H175526   5.169   0.589   2.283
18037TIP3    H275527   5.101   0.672   2.176
18038TIP3   OH275528   4.732   4.034  14.008
18038TIP3    H175529   4.777   4.100  13.955
18038TIP3    H275530   4.678   4.085  14.069
18039TIP3   OH275531   5.866   1.962   5.799
18039TIP3    H175532   5.784   1.942   5.754
18039TIP3    H275533   5.929   1.980   5.729
18040TIP3   OH275534   4.024   3.855  16.384
18040TIP3    H175535   3.967   3.861  16.307
18040TIP3    H275536   3.964   3.839  16.457
18041TIP3   OH275537   1.338   1.719  11.337
18041TIP3    H175538   1.387   1.698  11.417
18041TIP3    H275539   1.367   1.653  11.273
18042TIP3   OH275540   0.246   4.325  11.429
18042TIP3    H175541   0.165   4.342  11.382
18042TIP3    H275542   0.312   4.316  11.360
18043TIP3   OH275543   1.170   2.877  12.712
18043TIP3    H175544   1.205   2.788  12.703
18043TIP3    H275545   1.153   2.905  12.622
18044TIP3   OH275546   0.424   6.746  12.269
18044TIP3    H175547   0.460   6.727  12.356
18044TIP3    H275548   0.399   6.661  12.235
18045TIP3   OH275549   1.105   4.958  17.097
18045TIP3    H175550   1.075   4.932  17.183
18045TIP3    H275551   1.200   4.967  17.106
18046TIP3   OH275552   6.368   5.708   0.876
18046TIP3    H175553   6.415   5.653   0.813
18046TIP3    H275554   6.295   5.745   0.826
18047TIP3   OH275555   0.395   3.194  17.197
18047TIP3    H175556   0.303   3.209  17.176
18047TIP3    H275557   0.434   3.165  17.114
18048TIP3   OH275558   3.816   0.266  16.229
18048TIP3    H175559   3.833   0.184  16.183
18048TIP3    H275560   3.721   0.273  16.231
18049TIP3   OH275561   3.657   3.032   6.569
18049TIP3    H175562   3.610   2.950   6.579
18049TIP3    H275563   3.633   3.064   6.482
18050TIP3   OH275564   1.488   4.812   1.225
18050TIP3    H175565   1.566   4.854   1.263
18050TIP3    H275566   1.415   4.860   1.263
18051TIP3   OH275567   0.891   4.223   0.652
18051TIP3    H175568   0.910   4.192   0.740
18051TIP3    H275569   0.972   4.264   0.622
18052TIP3   OH275570   6.090   2.804   4.489
18052TIP3    H175571   6.028   2.876   4.478
18052TIP3    H275572   6.073   2.770   4.577
18053TIP3   OH275573   4.437   3.488  16.252
18053TIP3    H175574   4.434   3.546  16.176
18053TIP3    H275575   4.503   3.423  16.229
18054TIP3   OH275576   0.490   0.795   0.381
18054TIP3    H175577   0.560   0.859   0.391
18054TIP3    H275578   0.417   0.844   0.342
18055TIP3   OH275579   5.956   1.024   5.844
18055TIP3    H175580   5.879   0.985   5.885
18055TIP3    H275581   5.982   1.095   5.904
18056TIP3   OH275582   3.592   3.437  11.711
18056TIP3    H175583   3.634   3.392  11.638
18056TIP3    H275584   3.628   3.395  11.789
18057TIP3   OH275585   1.550   0.758  11.420
18057TIP3    H175586   1.565   0.814  11.343
18057TIP3    H275587   1.635   0.716  11.436
18058TIP3   OH275588   3.971   5.756  15.624
18058TIP3    H175589   4.031   5.810  15.572
18058TIP3    H275590   4.020   5.676  15.642
18059TIP3   OH275591   0.297   0.854  15.405
18059TIP3    H175592   0.317   0.761  15.398
18059TIP3    H275593   0.243   0.873  15.328
18060TIP3   OH275594   1.712   0.487  15.373
18060TIP3    H175595   1.625   0.479  15.333
18060TIP3    H275596   1.695   0.493  15.467
18061TIP3   OH275597   0.380   4.492   6.639
18061TIP3    H175598   0.339   4.407   6.621
18061TIP3    H275599   0.461   4.470   6.685
18062TIP3   OH275600   2.323   1.537   2.585
18062TIP3    H175601   2.313   1.467   2.520
18062TIP3    H275602   2.242   1.587   2.578
18063TIP3   OH275603   5.127   3.051   4.664
18063TIP3    H175604   5.147   3.115   4.733
18063TIP3    H275605   5.043   3.014   4.689
18064TIP3   OH275606   2.681   5.855   3.629
18064TIP3    H175607   2.588   5.839   3.611
18064TIP3    H275608   2.723   5.850   3.544
18065TIP3   OH275609   0.362   4.782  10.449
18065TIP3    H175610   0.317   4.860  10.483
18065TIP3    H275611   0.309   4.755  10.374
18066TIP3   OH275612   0.855   5.318   5.111
18066TIP3    H175613   0.905   5.330   5.191
18066TIP3    H275614   0.807   5.400   5.100
18067TIP3   OH275615   5.288   3.708  15.640
18067TIP3    H175616   5.340   3.788  15.631
18067TIP3    H275617   5.352   3.637  15.643
18068TIP3   OH275618   1.051   3.371  13.247
18068TIP3    H175619   1.100   3.318  13.185
18068TIP3    H275620   0.982   3.412  13.195
18069TIP3   OH275621   1.243   1.853  13.200
18069TIP3    H175622   1.188   1.813  13.132
18069TIP3    H275623   1.301   1.781  13.228
18070TIP3   OH275624   3.114   1.162  14.057
18070TIP3    H175625   3.147   1.075  14.080
18070TIP3    H275626   3.019   1.152  14.057
18071TIP3   OH275627   4.169   4.844   5.688
18071TIP3    H175628   4.175   4.934   5.654
18071TIP3    H275629   4.255   4.828   5.727
18072TIP3   OH275630   3.099   3.590  13.200
18072TIP3    H175631   3.182   3.568  13.241
18072TIP3    H275632   3.106   3.556  13.111
18073TIP3   OH275633   1.621   2.308   0.663
18073TIP3    H175634   1.535   2.293   0.702
18073TIP3    H275635   1.605   2.367   0.590
18074TIP3   OH275636   5.033   1.291   2.985
18074TIP3    H175637   5.059   1.206   2.949
18074TIP3    H275638   5.046   1.282   3.080
18075TIP3   OH275639   5.672   3.523   3.543
18075TIP3    H175640   5.593   3.468   3.550
18075TIP3    H275641   5.638   3.612   3.539
18076TIP3   OH275642   4.515   5.242  13.041
18076TIP3    H175643   4.542   5.329  13.012
18076TIP3    H275644   4.595   5.201  13.074
18077TIP3   OH275645   5.160   6.267  14.253
18077TIP3    H175646   5.174   6.295  14.344
18077TIP3    H275647   5.235   6.303  14.205
18078TIP3   OH275648   5.966   1.712   3.401
18078TIP3    H175649   5.923   1.651   3.341
18078TIP3    H275650   5.902   1.781   3.416
18079TIP3   OH275651   5.084   6.435  14.820
18079TIP3    H175652   5.099   6.353  14.774
18079TIP3    H275653   5.040   6.410  14.901
18080TIP3   OH275654   1.711   3.557   0.800
18080TIP3    H175655   1.794   3.572   0.755
18080TIP3    H275656   1.736   3.505   0.877
18081TIP3   OH275657   0.075   0.462   0.040
18081TIP3    H175658   0.129   0.510  -0.023
18081TIP3    H275659   0.119   0.474   0.124
18082TIP3   OH275660   2.485   1.074   0.198
18082TIP3    H175661   2.453   1.103   0.284
18082TIP3    H275662   2.427   1.003   0.174
18083TIP3   OH275663   4.342   1.696  13.309
18083TIP3    H175664   4.300   1.734  13.386
18083TIP3    H275665   4.315   1.604  13.309
18084TIP3   OH275666   2.982   1.177   4.054
18084TIP3    H175667   3.007   1.084   4.060
18084TIP3    H275668   3.025   1.218   4.129
18085TIP3   OH275669   4.974   4.049   1.679
18085TIP3    H175670   5.000   4.017   1.765
18085TIP3    H275671   4.911   4.119   1.697
18086TIP3   OH275672   0.381   0.870  12.747
18086TIP3    H175673   0.325   0.885  12.823
18086TIP3    H275674   0.384   0.954  12.701
18087TIP3   OH275675   5.989   6.497   4.818
18087TIP3    H175676   6.064   6.448   4.783
18087TIP3    H275677   5.989   6.476   4.911
18088TIP3   OH275678   2.182   0.065   3.072
18088TIP3    H175679   2.133  -0.013   3.098
18088TIP3    H275680   2.261   0.062   3.126
18089TIP3   OH275681   0.690   4.712   0.375
18089TIP3    H175682   0.718   4.784   0.318
18089TIP3    H275683   0.755   4.710   0.445
18090TIP3   OH275684   5.440   5.784   5.181
18090TIP3    H175685   5.452   5.697   5.221
18090TIP3    H275686   5.432   5.766   5.087
18091TIP3   OH275687   0.564   1.707  13.259
18091TIP3    H175688   0.524   1.706  13.346
18091TIP3    H275689   0.658   1.694  13.276
18092TIP3   OH275690   0.325   0.914  13.920
18092TIP3    H175691   0.325   0.818  13.928
18092TIP3    H275692   0.384   0.943  13.990
18093TIP3   OH275693   3.128   6.756  12.318
18093TIP3    H175694   3.165   6.681  12.272
18093TIP3    H275695   3.122   6.727  12.409
18094TIP3   OH275696   1.187   5.112   4.229
18094TIP3    H175697   1.105   5.146   4.264
18094TIP3    H275698   1.243   5.189   4.222
18095TIP3   OH275699   2.568   5.651   2.471
18095TIP3    H175700   2.635   5.714   2.501
18095TIP3    H275701   2.617   5.570   2.456
18096TIP3   OH275702   0.518   0.368   3.846
18096TIP3    H175703   0.442   0.424   3.833
18096TIP3    H275704   0.506   0.331   3.934
18097TIP3   OH275705   1.640   5.004  16.178
18097TIP3    H175706   1.621   4.913  16.201
18097TIP3    H275707   1.686   4.999  16.095
18098TIP3   OH275708   0.409   0.179   3.171
18098TIP3    H175709   0.343   0.158   3.105
18098TIP3    H275710   0.364   0.238   3.232
18099TIP3   OH275711   3.171   4.965  16.810
18099TIP3    H175712   3.177   5.019  16.889
18099TIP3    H275713   3.109   4.895  16.833
18100TIP3   OH275714   2.681   4.422  12.947
18100TIP3    H175715   2.604   4.440  13.000
18100TIP3    H275716   2.654   4.443  12.857
18101TIP3   OH275717   0.900   5.082  11.420
18101TIP3    H175718   0.864   5.169  11.403
18101TIP3    H275719   0.892   5.036  11.336
18102TIP3   OH275720   6.263   4.065   1.138
18102TIP3    H175721   6.225   4.008   1.205
18102TIP3    H275722   6.239   4.154   1.166
18103TIP3   OH275723   6.153   4.657   0.302
18103TIP3    H175724   6.138   4.731   0.243
18103TIP3    H275725   6.070   4.610   0.305
18104TIP3   OH275726   6.083   1.820   4.203
18104TIP3    H175727   6.146   1.830   4.274
18104TIP3    H275728   6.013   1.767   4.240
18105TIP3   OH275729   1.226   0.053   4.680
18105TIP3    H175730   1.293   0.009   4.733
18105TIP3    H275731   1.215   0.139   4.722
18106TIP3   OH275732   3.363   6.301   4.089
18106TIP3    H175733   3.362   6.389   4.125
18106TIP3    H275734   3.270   6.279   4.077
18107TIP3   OH275735   5.803   3.021   6.509
18107TIP3    H175736   5.763   2.972   6.437
18107TIP3    H275737   5.890   2.984   6.518
18108TIP3   OH275738   3.462   0.978  14.042
18108TIP3    H175739   3.434   1.064  14.011
18108TIP3    H275740   3.394   0.953  14.105
18109TIP3   OH275741   5.234   2.854  11.902
18109TIP3    H175742   5.143   2.837  11.879
18109TIP3    H275743   5.284   2.824  11.825
18110TIP3   OH275744   6.744   1.879  14.698
18110TIP3    H175745   6.750   1.788  14.729
18110TIP3    H275746   6.771   1.875  14.607
18111TIP3   OH275747   3.612   1.350   1.963
18111TIP3    H175748   3.653   1.348   1.876
18111TIP3    H275749   3.528   1.395   1.949
18112TIP3   OH275750   0.703   0.464   3.391
18112TIP3    H175751   0.768   0.535   3.390
18112TIP3    H275752   0.635   0.495   3.451
18113TIP3   OH275753   1.440   5.254   3.212
18113TIP3    H175754   1.470   5.172   3.252
18113TIP3    H275755   1.515   5.284   3.161
18114TIP3   OH275756   5.096   3.360  17.032
18114TIP3    H175757   5.067   3.423  17.098
18114TIP3    H275758   5.050   3.279  17.054
18115TIP3   OH275759   0.385   3.702  17.024
18115TIP3    H175760   0.452   3.767  17.005
18115TIP3    H275761   0.304   3.740  16.991
18116TIP3   OH275762   0.443   4.403  14.953
18116TIP3    H175763   0.362   4.389  14.903
18116TIP3    H275764   0.507   4.345  14.911
18117TIP3   OH275765   6.589   0.803  11.033
18117TIP3    H175766   6.595   0.897  11.014
18117TIP3    H275767   6.573   0.762  10.948
18118TIP3   OH275768   2.435   0.816  12.880
18118TIP3    H175769   2.352   0.820  12.929
18118TIP3    H275770   2.408   0.809  12.789
18119TIP3   OH275771   1.542   1.453   2.506
18119TIP3    H175772   1.528   1.425   2.416
18119TIP3    H275773   1.455   1.462   2.543
18120TIP3   OH275774   1.604   5.547   5.179
18120TIP3    H175775   1.558   5.556   5.096
18120TIP3    H275776   1.653   5.465   5.170
18121TIP3   OH275777   1.946   3.011  12.797
18121TIP3    H175778   2.022   2.956  12.778
18121TIP3    H275779   1.955   3.032  12.890
18122TIP3   OH275780   3.309   3.137  12.420
18122TIP3    H175781   3.378   3.201  12.435
18122TIP3    H275782   3.268   3.164  12.338
18123TIP3   OH275783   2.768   5.256   1.604
18123TIP3    H175784   2.697   5.299   1.652
18123TIP3    H275785   2.725   5.220   1.526
18124TIP3   OH275786   0.231   2.859   2.569
18124TIP3    H175787   0.244   2.780   2.621
18124TIP3    H275788   0.187   2.920   2.628
18125TIP3   OH275789   5.321   0.881  13.355
18125TIP3    H175790   5.376   0.812  13.390
18125TIP3    H275791   5.359   0.962  13.387
18126TIP3   OH275792   2.099   5.492   5.667
18126TIP3    H175793   2.006   5.475   5.684
18126TIP3    H275794   2.109   5.474   5.573
18127TIP3   OH275795   5.750   4.733  14.740
18127TIP3    H175796   5.702   4.666  14.690
18127TIP3    H275797   5.841   4.721  14.714
18128TIP3   OH275798   3.689   3.953  12.575
18128TIP3    H175799   3.679   3.875  12.629
18128TIP3    H275800   3.780   3.951  12.546
18129TIP3   OH275801   5.658   5.308  15.577
18129TIP3    H175802   5.583   5.265  15.536
18129TIP3    H275803   5.718   5.326  15.506
18130TIP3   OH275804   4.527   1.267  15.966
18130TIP3    H175805   4.452   1.247  15.910
18130TIP3    H275806   4.598   1.211  15.934
18131TIP3   OH275807   5.765   2.007  15.590
18131TIP3    H175808   5.773   1.948  15.516
18131TIP3    H275809   5.842   2.064  15.584
18132TIP3   OH275810   5.986   4.329  14.732
18132TIP3    H175811   6.035   4.284  14.801
18132TIP3    H275812   6.022   4.418  14.731
18133TIP3   OH275813   0.158   1.274  16.464
18133TIP3    H175814   0.126   1.348  16.514
18133TIP3    H275815   0.247   1.300  16.437
18134TIP3   OH275816   0.079   1.656  10.870
18134TIP3    H175817  -0.011   1.624  10.871
18134TIP3    H275818   0.127   1.589  10.822
18135TIP3   OH275819   0.846   5.112   0.532
18135TIP3    H175820   0.904   5.040   0.553
18135TIP3    H275821   0.761   5.071   0.518
18136TIP3   OH275822   6.058   0.933   4.094
18136TIP3    H175823   5.987   0.946   4.031
18136TIP3    H275824   6.026   0.864   4.151
18137TIP3   OH275825   6.117   4.813   4.804
18137TIP3    H175826   6.185   4.838   4.867
18137TIP3    H275827   6.153   4.834   4.718
18138TIP3   OH275828   1.212   5.864   0.459
18138TIP3    H175829   1.185   5.773   0.470
18138TIP3    H275830   1.221   5.875   0.364
18139TIP3   OH275831   2.532   0.363  12.197
18139TIP3    H175832   2.589   0.286  12.191
18139TIP3    H275833   2.444   0.329  12.177
18140TIP3   OH275834   3.943   1.856  13.925
18140TIP3    H175835   3.902   1.791  13.982
18140TIP3    H275836   3.974   1.924  13.985
18141TIP3   OH275837   1.632   3.454   2.732
18141TIP3    H175838   1.690   3.454   2.809
18141TIP3    H275839   1.550   3.490   2.764
18142TIP3   OH275840   6.474   0.526  17.116
18142TIP3    H175841   6.403   0.501  17.175
18142TIP3    H275842   6.499   0.614  17.144
18143TIP3   OH275843   6.364   2.569  11.541
18143TIP3    H175844   6.330   2.657  11.556
18143TIP3    H275845   6.445   2.565  11.592
18144TIP3   OH275846   6.741   3.104  11.176
18144TIP3    H175847   6.761   3.141  11.090
18144TIP3    H275848   6.821   3.059  11.202
18145TIP3   OH275849   2.570   6.033  12.506
18145TIP3    H175850   2.492   6.048  12.560
18145TIP3    H275851   2.545   5.963  12.447
18146TIP3   OH275852   4.431   4.214  15.418
18146TIP3    H175853   4.463   4.126  15.436
18146TIP3    H275854   4.491   4.249  15.353
18147TIP3   OH275855   4.585   2.435   3.322
18147TIP3    H175856   4.615   2.493   3.252
18147TIP3    H275857   4.581   2.491   3.400
18148TIP3   OH275858   5.966   0.155  15.963
18148TIP3    H175859   5.954   0.091  15.893
18148TIP3    H275860   5.959   0.240  15.919
18149TIP3   OH275861   3.043   4.124  10.557
18149TIP3    H175862   2.964   4.073  10.576
18149TIP3    H275863   3.097   4.067  10.503
18150TIP3   OH275864   0.223   3.287  13.734
18150TIP3    H175865   0.234   3.228  13.660
18150TIP3    H275866   0.311   3.315  13.756
18151TIP3   OH275867   1.191   1.827   0.545
18151TIP3    H175868   1.140   1.750   0.518
18151TIP3    H275869   1.279   1.792   0.561
18152TIP3   OH275870   1.726   4.501  16.547
18152TIP3    H175871   1.749   4.465  16.462
18152TIP3    H275872   1.793   4.566  16.566
18153TIP3   OH275873   0.332   5.814   4.617
18153TIP3    H175874   0.371   5.749   4.676
18153TIP3    H275875   0.279   5.762   4.557
18154TIP3   OH275876   4.554   5.129   5.221
18154TIP3    H175877   4.503   5.200   5.259
18154TIP3    H275878   4.520   5.049   5.262
18155TIP3   OH275879   0.509   1.844   4.471
18155TIP3    H175880   0.590   1.819   4.515
18155TIP3    H275881   0.496   1.936   4.494
18156TIP3   OH275882   6.390   4.947   0.358
18156TIP3    H175883   6.463   4.955   0.296
18156TIP3    H275884   6.357   5.036   0.369
18157TIP3   OH275885   2.472   6.079  16.244
18157TIP3    H175886   2.553   6.086  16.294
18157TIP3    H275887   2.490   6.126  16.163
18158TIP3   OH275888   2.412   5.875   3.604
18158TIP3    H175889   2.435   5.927   3.526
18158TIP3    H275890   2.320   5.854   3.592
18159TIP3   OH275891   1.038   2.224   0.090
18159TIP3    H175892   1.075   2.165   0.155
18159TIP3    H275893   0.946   2.232   0.116
18160TIP3   OH275894   6.137   3.179   5.208
18160TIP3    H175895   6.184   3.220   5.136
18160TIP3    H275896   6.078   3.116   5.166
18161TIP3   OH275897   6.725   0.535  16.064
18161TIP3    H175898   6.785   0.477  16.016
18161TIP3    H275899   6.754   0.623  16.041
18162TIP3   OH275900   2.966   0.118  14.776
18162TIP3    H175901   2.988   0.204  14.740
18162TIP3    H275902   2.890   0.133  14.831
18163TIP3   OH275903   2.505   5.293  14.265
18163TIP3    H175904   2.435   5.355  14.284
18163TIP3    H275905   2.462   5.224  14.214
18164TIP3   OH275906   1.944   0.879   5.334
18164TIP3    H175907   2.013   0.813   5.344
18164TIP3    H275908   1.888   0.867   5.411
18165TIP3   OH275909   4.145   6.422   4.903
18165TIP3    H175910   4.082   6.354   4.880
18165TIP3    H275911   4.211   6.377   4.955
18166TIP3   OH275912   0.534   5.724   3.241
18166TIP3    H175913   0.567   5.813   3.236
18166TIP3    H275914   0.610   5.669   3.221
18167TIP3   OH275915   6.547   5.458  14.967
18167TIP3    H175916   6.546   5.519  14.893
18167TIP3    H275917   6.548   5.371  14.928
18168TIP3   OH275918   0.516   1.334  17.066
18168TIP3    H175919   0.575   1.372  17.131
18168TIP3    H275920   0.429   1.348  17.103
18169TIP3   OH275921   4.005   1.355   4.356
18169TIP3    H175922   3.919   1.394   4.371
18169TIP3    H275923   4.057   1.380   4.433
18170TIP3   OH275924   4.553   3.086  13.789
18170TIP3    H175925   4.489   3.016  13.801
18170TIP3    H275926   4.562   3.125  13.876
18171TIP3   OH275927   1.989   1.420  14.830
18171TIP3    H175928   1.970   1.463  14.914
18171TIP3    H275929   1.916   1.445  14.773
18172TIP3   OH275930   4.230   3.369   0.002
18172TIP3    H175931   4.292   3.306   0.040
18172TIP3    H275932   4.230   3.442   0.063
18173TIP3   OH275933   2.398   4.984   2.054
18173TIP3    H175934   2.317   4.979   2.105
18173TIP3    H275935   2.438   4.898   2.064
18174TIP3   OH275936   6.149   0.661   4.728
18174TIP3    H175937   6.180   0.580   4.688
18174TIP3    H275938   6.103   0.632   4.807
18175TIP3   OH275939   5.476   0.076   0.167
18175TIP3    H175940   5.403   0.036   0.120
18175TIP3    H275941   5.509   0.006   0.224
18176TIP3   OH275942   6.260   0.123   1.334
18176TIP3    H175943   6.231   0.213   1.352
18176TIP3    H275944   6.354   0.125   1.353
18177TIP3   OH275945   0.655   0.548  15.415
18177TIP3    H175946   0.621   0.549  15.326
18177TIP3    H275947   0.721   0.479  15.415
18178TIP3   OH275948   2.782   1.438   2.435
18178TIP3    H175949   2.715   1.378   2.468
18178TIP3    H275950   2.737   1.522   2.424
18179TIP3   OH275951   2.808   6.262   5.691
18179TIP3    H175952   2.784   6.252   5.783
18179TIP3    H275953   2.768   6.345   5.665
18180TIP3   OH275954   2.353   2.084  14.767
18180TIP3    H175955   2.409   2.074  14.690
18180TIP3    H275956   2.318   1.997  14.783
18181TIP3   OH275957   0.572   1.173   5.367
18181TIP3    H175958   0.664   1.153   5.380
18181TIP3    H275959   0.534   1.173   5.455
18182TIP3   OH275960   5.047   1.371   1.609
18182TIP3    H175961   4.972   1.355   1.665
18182TIP3    H275962   5.114   1.309   1.640
18183TIP3   OH275963   4.176   1.105  13.760
18183TIP3    H175964   4.110   1.107  13.829
18183TIP3    H275965   4.206   1.196  13.753
18184TIP3   OH275966   4.516   1.139   0.388
18184TIP3    H175967   4.492   1.232   0.379
18184TIP3    H275968   4.584   1.139   0.456
18185TIP3   OH275969   5.923   3.645   1.922
18185TIP3    H175970   5.962   3.675   1.839
18185TIP3    H275971   5.910   3.551   1.910
18186TIP3   OH275972   4.283   4.936   4.649
18186TIP3    H175973   4.373   4.932   4.617
18186TIP3    H275974   4.265   4.848   4.682
18187TIP3   OH275975   4.644   1.821  13.381
18187TIP3    H175976   4.684   1.881  13.444
18187TIP3    H275977   4.553   1.851  13.374
18188TIP3   OH275978   5.600   5.262   1.893
18188TIP3    H175979   5.618   5.305   1.809
18188TIP3    H275980   5.652   5.310   1.957
18189TIP3   OH275981   6.158   3.846   3.498
18189TIP3    H175982   6.117   3.771   3.456
18189TIP3    H275983   6.169   3.820   3.589
18190TIP3   OH275984   1.386   4.023  12.601
18190TIP3    H175985   1.321   4.075  12.648
18190TIP3    H275986   1.422   3.964  12.668
18191TIP3   OH275987   2.819   5.025   1.143
18191TIP3    H175988   2.881   5.097   1.135
18191TIP3    H275989   2.873   4.949   1.164
18192TIP3   OH275990   6.619   3.906   3.907
18192TIP3    H175991   6.590   3.821   3.940
18192TIP3    H275992   6.689   3.933   3.966
18193TIP3   OH275993   6.755   5.200   0.719
18193TIP3    H175994   6.800   5.216   0.636
18193TIP3    H275995   6.781   5.273   0.775
18194TIP3   OH275996   2.893   0.441  12.069
18194TIP3    H175997   2.829   0.428  12.140
18194TIP3    H275998   2.909   0.353  12.035
18195TIP3   OH275999   6.363   5.539   5.533
18195TIP3    H176000   6.431   5.493   5.483
18195TIP3    H276001   6.341   5.614   5.478
18196TIP3   OH276002   4.648   2.519  16.987
18196TIP3    H176003   4.574   2.510  17.048
18196TIP3    H276004   4.650   2.435  16.940
18197TIP3   OH276005   2.576   6.719   1.379
18197TIP3    H176006   2.599   6.756   1.294
18197TIP3    H276007   2.481   6.709   1.375
18198TIP3   OH276008   2.903   6.638  16.979
18198TIP3    H176009   2.994   6.616  16.962
18198TIP3    H276010   2.871   6.569  17.037
18199TIP3   OH276011   5.359   1.472  16.878
18199TIP3    H176012   5.343   1.415  16.953
18199TIP3    H276013   5.452   1.495  16.884
18200TIP3   OH276014   0.917   5.389  12.727
18200TIP3    H176015   0.967   5.347  12.657
18200TIP3    H276016   0.978   5.451  12.767
18201TIP3   OH276017   1.871   2.311  14.007
18201TIP3    H176018   1.842   2.297  13.916
18201TIP3    H276019   1.901   2.402  14.008
18202TIP3   OH276020   0.188   1.323   1.091
18202TIP3    H176021   0.170   1.255   1.157
18202TIP3    H276022   0.127   1.304   1.021
18203TIP3   OH276023   3.753   4.107   5.675
18203TIP3    H176024   3.725   4.111   5.767
18203TIP3    H276025   3.695   4.168   5.630
18204TIP3   OH276026   5.025   2.334   6.004
18204TIP3    H176027   5.035   2.413   6.057
18204TIP3    H276028   4.958   2.283   6.049
18205TIP3   OH276029   6.259   2.895   3.743
18205TIP3    H176030   6.189   2.932   3.689
18205TIP3    H276031   6.305   2.971   3.778
18206TIP3   OH276032   5.815   2.660   0.403
18206TIP3    H176033   5.754   2.602   0.447
18206TIP3    H276034   5.855   2.711   0.473
18207TIP3   OH276035   2.072   2.130  11.469
18207TIP3    H176036   2.167   2.120  11.474
18207TIP3    H276037   2.053   2.211  11.516
18208TIP3   OH276038   6.397   2.190   4.674
18208TIP3    H176039   6.371   2.282   4.674
18208TIP3    H276040   6.403   2.166   4.582
18209TIP3   OH276041   0.913   6.275  12.215
18209TIP3    H176042   0.919   6.352  12.272
18209TIP3    H276043   0.866   6.210  12.267
18210TIP3   OH276044   3.395   1.773  16.859
18210TIP3    H176045   3.350   1.793  16.777
18210TIP3    H276046   3.453   1.700  16.838
18211TIP3   OH276047   6.361   5.943  16.299
18211TIP3    H176048   6.281   5.993  16.284
18211TIP3    H276049   6.418   6.003  16.346
18212TIP3   OH276050   4.125   2.723  14.509
18212TIP3    H176051   4.098   2.814  14.508
18212TIP3    H276052   4.163   2.708  14.422
18213TIP3   OH276053   6.462   2.949  13.227
18213TIP3    H176054   6.537   2.988  13.184
18213TIP3    H276055   6.499   2.886  13.289
18214TIP3   OH276056   1.081   1.131  15.680
18214TIP3    H176057   1.117   1.065  15.621
18214TIP3    H276058   0.991   1.103  15.696
18215TIP3   OH276059   0.124   2.601   5.544
18215TIP3    H176060   0.117   2.530   5.609
18215TIP3    H276061   0.080   2.566   5.467
18216TIP3   OH276062   6.191   3.524   3.481
18216TIP3    H176063   6.132   3.466   3.528
18216TIP3    H276064   6.152   3.533   3.394
18217TIP3   OH276065   4.465   2.836  16.835
18217TIP3    H176066   4.552   2.855  16.869
18217TIP3    H276067   4.467   2.742  16.815
18218TIP3   OH276068   3.255   1.123   0.916
18218TIP3    H176069   3.210   1.085   0.992
18218TIP3    H276070   3.302   1.199   0.951
18219TIP3   OH276071   3.863   2.822   5.015
18219TIP3    H176072   3.838   2.735   5.046
18219TIP3    H276073   3.833   2.882   5.084
18220TIP3   OH276074   5.349   1.531  13.223
18220TIP3    H176075   5.259   1.562  13.236
18220TIP3    H276076   5.375   1.496  13.308
18221TIP3   OH276077   0.092   1.971  16.774
18221TIP3    H176078   0.084   1.905  16.843
18221TIP3    H276079   0.050   2.049  16.810
18222TIP3   OH276080   5.150   4.181   1.514
18222TIP3    H176081   5.237   4.159   1.547
18222TIP3    H276082   5.089   4.148   1.580
18223TIP3   OH276083   6.468   5.022  14.823
18223TIP3    H176084   6.465   5.062  14.910
18223TIP3    H276085   6.421   4.939  14.833
18224TIP3   OH276086   2.797   2.489   5.379
18224TIP3    H176087   2.802   2.432   5.302
18224TIP3    H276088   2.885   2.524   5.389
18225TIP3   OH276089   4.011   1.484  10.862
18225TIP3    H176090   4.012   1.512  10.770
18225TIP3    H276091   4.029   1.390  10.858
18226TIP3   OH276092   0.274   1.586   1.082
18226TIP3    H176093   0.249   1.499   1.116
18226TIP3    H276094   0.320   1.567   1.000
18227TIP3   OH276095   0.456   1.172   1.488
18227TIP3    H176096   0.433   1.249   1.436
18227TIP3    H276097   0.372   1.139   1.520
18228TIP3   OH276098   0.138   1.160   1.315
18228TIP3    H176099   0.149   1.128   1.404
18228TIP3    H276100   0.105   1.084   1.266
18229TIP3   OH276101   2.717   6.294  12.208
18229TIP3    H176102   2.653   6.257  12.268
18229TIP3    H276103   2.672   6.298  12.124
18230TIP3   OH276104   0.275   1.806   1.230
18230TIP3    H176105   0.289   1.716   1.200
18230TIP3    H276106   0.283   1.802   1.325
18231TIP3   OH276107   4.326   4.070   5.551
18231TIP3    H176108   4.232   4.085   5.567
18231TIP3    H276109   4.368   4.096   5.633
18232TIP3   OH276110   3.931   3.492  12.435
18232TIP3    H176111   4.021   3.524  12.445
18232TIP3    H276112   3.929   3.409  12.483
18233TIP3   OH276113   4.979   4.765  16.550
18233TIP3    H176114   5.055   4.735  16.601
18233TIP3    H276115   4.919   4.691  16.551
18234TIP3   OH276116   4.664   6.080   2.843
18234TIP3    H176117   4.729   6.049   2.780
18234TIP3    H276118   4.581   6.043   2.813
18235TIP3   OH276119   3.970   4.147  11.741
18235TIP3    H176120   4.003   4.209  11.676
18235TIP3    H276121   4.047   4.124  11.793
18236TIP3   OH276122   2.111   3.662   1.190
18236TIP3    H176123   2.174   3.593   1.208
18236TIP3    H276124   2.163   3.742   1.183
18237TIP3   OH276125   6.625   3.217   6.355
18237TIP3    H176126   6.671   3.232   6.438
18237TIP3    H276127   6.551   3.277   6.356
18238TIP3   OH276128   5.429   5.208  10.351
18238TIP3    H176129   5.437   5.140  10.284
18238TIP3    H276130   5.352   5.182  10.402
18239TIP3   OH276131   3.407   5.293  10.843
18239TIP3    H176132   3.494   5.271  10.810
18239TIP3    H276133   3.373   5.211  10.878
18240TIP3   OH276134   2.305   5.651   5.081
18240TIP3    H176135   2.223   5.700   5.080
18240TIP3    H276136   2.278   5.559   5.079
18241TIP3   OH276137   6.693   3.119   1.562
18241TIP3    H176138   6.623   3.054   1.554
18241TIP3    H276139   6.774   3.070   1.547
18242TIP3   OH276140   5.150   5.263   0.949
18242TIP3    H176141   5.238   5.300   0.942
18242TIP3    H276142   5.136   5.250   1.043
18243TIP3   OH276143   4.708   1.446   0.561
18243TIP3    H176144   4.794   1.449   0.519
18243TIP3    H276145   4.713   1.371   0.619
18244TIP3   OH276146   0.089   3.754   2.916
18244TIP3    H176147   0.022   3.782   2.979
18244TIP3    H276148   0.104   3.832   2.862
18245TIP3   OH276149   1.644   0.596   4.078
18245TIP3    H176150   1.686   0.632   4.156
18245TIP3    H276151   1.551   0.613   4.090
18246TIP3   OH276152   0.168   4.212  10.904
18246TIP3    H176153   0.185   4.226  10.810
18246TIP3    H276154   0.155   4.118  10.912
18247TIP3   OH276155   4.594   1.526  14.445
18247TIP3    H176156   4.575   1.553  14.355
18247TIP3    H276157   4.668   1.465  14.436
18248TIP3   OH276158   3.595   6.512   5.754
18248TIP3    H176159   3.558   6.592   5.792
18248TIP3    H276160   3.605   6.453   5.828
18249TIP3   OH276161   0.129   2.965  15.913
18249TIP3    H176162   0.186   3.039  15.893
18249TIP3    H276163   0.044   3.005  15.932
18250TIP3   OH276164   2.588   1.663  14.862
18250TIP3    H176165   2.498   1.631  14.873
18250TIP3    H276166   2.603   1.661  14.768
18251TIP3   OH276167   0.931   2.751  16.946
18251TIP3    H176168   0.892   2.818  17.002
18251TIP3    H276169   1.014   2.729  16.989
18252TIP3   OH276170   1.683   1.481   4.341
18252TIP3    H176171   1.727   1.409   4.386
18252TIP3    H276172   1.621   1.438   4.281
18253TIP3   OH276173   4.014   4.376   3.177
18253TIP3    H176174   4.005   4.283   3.155
18253TIP3    H276175   4.103   4.399   3.150
18254TIP3   OH276176   1.815   1.697   1.244
18254TIP3    H176177   1.890   1.754   1.230
18254TIP3    H276178   1.805   1.649   1.162
18255TIP3   OH276179   6.348   2.259  15.114
18255TIP3    H176180   6.336   2.292  15.203
18255TIP3    H276181   6.293   2.181  15.111
18256TIP3   OH276182   1.969   6.648  11.482
18256TIP3    H176183   2.041   6.684  11.430
18256TIP3    H276184   1.975   6.693  11.566
18257TIP3   OH276185   5.341   2.146   4.085
18257TIP3    H176186   5.349   2.105   4.171
18257TIP3    H276187   5.252   2.124   4.056
18258TIP3   OH276188   2.940   6.135   0.011
18258TIP3    H176189   2.868   6.164  -0.046
18258TIP3    H276190   3.015   6.189  -0.015
18259TIP3   OH276191   4.732   6.732  14.493
18259TIP3    H176192   4.763   6.658  14.545
18259TIP3    H276193   4.686   6.787  14.556
18260TIP3   OH276194   2.439   6.736   3.577
18260TIP3    H176195   2.523   6.717   3.536
18260TIP3    H276196   2.393   6.791   3.514
18261TIP3   OH276197   3.891   0.489   5.895
18261TIP3    H176198   3.827   0.423   5.870
18261TIP3    H276199   3.976   0.449   5.875
18262TIP3   OH276200   5.937   0.604   1.737
18262TIP3    H176201   5.844   0.623   1.724
18262TIP3    H276202   5.941   0.564   1.824
18263TIP3   OH276203   3.587   0.634   1.569
18263TIP3    H176204   3.536   0.654   1.491
18263TIP3    H276205   3.609   0.719   1.607
18264TIP3   OH276206   2.065   4.081   6.219
18264TIP3    H176207   2.124   4.115   6.286
18264TIP3    H276208   2.106   4.000   6.189
18265TIP3   OH276209   5.445   5.943  15.726
18265TIP3    H176210   5.440   6.031  15.689
18265TIP3    H276211   5.501   5.953  15.803
18266TIP3   OH276212   6.414   4.009   0.915
18266TIP3    H176213   6.500   4.041   0.944
18266TIP3    H276214   6.363   4.000   0.995
18267TIP3   OH276215   0.203   2.145  16.138
18267TIP3    H176216   0.233   2.235  16.123
18267TIP3    H276217   0.279   2.091  16.117
18268TIP3   OH276218   6.320   2.806  10.626
18268TIP3    H176219   6.253   2.874  10.626
18268TIP3    H276220   6.399   2.850  10.657
18269TIP3   OH276221   2.046   0.101   0.934
18269TIP3    H176222   1.989   0.174   0.957
18269TIP3    H276223   2.006   0.026   0.978
18270TIP3   OH276224   0.492   0.365  17.060
18270TIP3    H176225   0.547   0.419  17.116
18270TIP3    H276226   0.530   0.373  16.973
18271TIP3   OH276227   6.696   0.386  12.527
18271TIP3    H176228   6.790   0.400  12.539
18271TIP3    H276229   6.671   0.448  12.458
18272TIP3   OH276230   6.723   2.028   4.151
18272TIP3    H176231   6.810   2.057   4.124
18272TIP3    H276232   6.664   2.060   4.083
18273TIP3   OH276233   4.141   2.648  12.167
18273TIP3    H176234   4.076   2.577  12.158
18273TIP3    H276235   4.141   2.690  12.081
18274TIP3   OH276236   0.773   0.913   3.579
18274TIP3    H176237   0.777   0.854   3.504
18274TIP3    H276238   0.680   0.915   3.603
18275TIP3   OH276239   1.590   6.722  11.630
18275TIP3    H176240   1.572   6.753  11.541
18275TIP3    H276241   1.575   6.628  11.626
18276TIP3   OH276242   6.615   1.262  16.828
18276TIP3    H176243   6.543   1.303  16.781
18276TIP3    H276244   6.665   1.336  16.864
18277TIP3   OH276245   5.315   5.580  13.406
18277TIP3    H176246   5.300   5.673  13.423
18277TIP3    H276247   5.325   5.574  13.311
18278TIP3   OH276248   1.912   3.020   1.884
18278TIP3    H176249   1.905   3.080   1.810
18278TIP3    H276250   1.844   3.050   1.945
18279TIP3   OH276251   2.489   5.040  15.565
18279TIP3    H176252   2.399   5.020  15.541
18279TIP3    H276253   2.498   5.134  15.549
18280TIP3   OH276254   5.530   0.791   1.135
18280TIP3    H176255   5.577   0.847   1.197
18280TIP3    H276256   5.549   0.828   1.049
18281TIP3   OH276257   3.313   0.265   0.736
18281TIP3    H176258   3.370   0.277   0.812
18281TIP3    H276259   3.256   0.192   0.760
18282TIP3   OH276260   4.563   5.718   4.683
18282TIP3    H176261   4.631   5.740   4.619
18282TIP3    H276262   4.575   5.784   4.752
18283TIP3   OH276263   6.055   0.303   0.231
18283TIP3    H176264   6.019   0.391   0.216
18283TIP3    H276265   5.981   0.252   0.263
18284TIP3   OH276266   0.282   5.349  12.456
18284TIP3    H176267   0.230   5.270  12.471
18284TIP3    H276268   0.247   5.387  12.375
18285TIP3   OH276269   0.422   1.301   1.251
18285TIP3    H176270   0.340   1.298   1.201
18285TIP3    H276271   0.481   1.243   1.204
18286TIP3   OH276272   4.570   5.995  13.455
18286TIP3    H176273   4.641   6.055  13.433
18286TIP3    H276274   4.519   5.987  13.375
18287TIP3   OH276275   5.313   4.440  14.075
18287TIP3    H176276   5.293   4.426  13.982
18287TIP3    H276277   5.257   4.513  14.100
18288TIP3   OH276278   2.259   0.193   4.455
18288TIP3    H176279   2.349   0.168   4.436
18288TIP3    H276280   2.223   0.221   4.371
18289TIP3   OH276281   3.731   4.826  16.371
18289TIP3    H176282   3.637   4.836  16.360
18289TIP3    H276283   3.744   4.732  16.382
18290TIP3   OH276284   3.037   4.296  11.921
18290TIP3    H176285   3.121   4.328  11.956
18290TIP3    H276286   3.020   4.216  11.970
18291TIP3   OH276287   3.891   4.275  15.635
18291TIP3    H176288   3.855   4.363  15.648
18291TIP3    H276289   3.959   4.286  15.569
18292TIP3   OH276290   6.267   1.795  12.946
18292TIP3    H176291   6.188   1.825  12.900
18292TIP3    H276292   6.257   1.700  12.952
18293TIP3   OH276293   2.866   4.168  12.701
18293TIP3    H176294   2.888   4.086  12.745
18293TIP3    H276295   2.951   4.207  12.679
18294TIP3   OH276296   6.640   0.170  13.794
18294TIP3    H176297   6.662   0.231  13.864
18294TIP3    H276298   6.565   0.121  13.828
18295TIP3   OH276299   3.458   4.864  16.308
18295TIP3    H176300   3.395   4.806  16.351
18295TIP3    H276301   3.437   4.951  16.341
18296TIP3   OH276302   3.527   1.452  14.826
18296TIP3    H176303   3.570   1.469  14.742
18296TIP3    H276304   3.433   1.458  14.806
18297TIP3   OH276305   1.357   6.783  16.880
18297TIP3    H176306   1.414   6.786  16.956
18297TIP3    H276307   1.286   6.724  16.905
18298TIP3   OH276308   6.473   2.856  13.736
18298TIP3    H176309   6.398   2.911  13.759
18298TIP3    H276310   6.436   2.768  13.730
18299TIP3   OH276311   2.822   2.681   1.574
18299TIP3    H176312   2.793   2.611   1.516
18299TIP3    H276313   2.803   2.761   1.525
18300TIP3   OH276314   6.454   3.181  16.889
18300TIP3    H176315   6.506   3.146  16.961
18300TIP3    H276316   6.366   3.190  16.926
18301TIP3   OH276317   1.942   5.083   0.188
18301TIP3    H176318   1.927   4.993   0.157
18301TIP3    H276319   1.938   5.137   0.109
18302TIP3   OH276320   1.713   1.238  13.858
18302TIP3    H176321   1.714   1.160  13.804
18302TIP3    H276322   1.743   1.208  13.944
18303TIP3   OH276323   3.171   1.103   2.697
18303TIP3    H176324   3.133   1.186   2.667
18303TIP3    H276325   3.098   1.058   2.740
18304TIP3   OH276326   5.118   0.721   3.412
18304TIP3    H176327   5.032   0.681   3.400
18304TIP3    H276328   5.126   0.783   3.339
18305TIP3   OH276329   4.541   5.213  15.504
18305TIP3    H176330   4.628   5.193  15.538
18305TIP3    H276331   4.489   5.135  15.522
18306TIP3   OH276332   4.241   2.714  13.607
18306TIP3    H176333   4.169   2.675  13.658
18306TIP3    H276334   4.198   2.775  13.548
18307TIP3   OH276335   2.980   6.056   3.284
18307TIP3    H176336   2.980   6.126   3.350
18307TIP3    H276337   3.041   6.087   3.217
18308TIP3   OH276338   2.779   4.804   2.112
18308TIP3    H176339   2.683   4.802   2.105
18308TIP3    H276340   2.806   4.720   2.075
18309TIP3   OH276341   6.321   6.634   2.170
18309TIP3    H176342   6.302   6.550   2.128
18309TIP3    H276343   6.280   6.699   2.113
18310TIP3   OH276344   1.830   3.247   1.717
18310TIP3    H176345   1.747   3.255   1.669
18310TIP3    H276346   1.896   3.280   1.656
18311TIP3   OH276347   4.632   3.208   4.822
18311TIP3    H176348   4.536   3.203   4.823
18311TIP3    H276349   4.654   3.236   4.733
18312TIP3   OH276350   3.987   0.246  14.099
18312TIP3    H176351   4.030   0.269  14.016
18312TIP3    H276352   4.051   0.272  14.166
18313TIP3   OH276353   4.325   3.483   6.230
18313TIP3    H176354   4.272   3.485   6.151
18313TIP3    H276355   4.322   3.392   6.259
18314TIP3   OH276356   4.328   5.832   6.265
18314TIP3    H176357   4.311   5.904   6.204
18314TIP3    H276358   4.284   5.858   6.346
18315TIP3   OH276359   0.333   1.347  13.822
18315TIP3    H176360   0.243   1.371  13.797
18315TIP3    H276361   0.386   1.372  13.747
18316TIP3   OH276362   0.601   0.416   2.421
18316TIP3    H176363   0.635   0.458   2.342
18316TIP3    H276364   0.664   0.438   2.489
18317TIP3   OH276365   1.971   0.882  15.685
18317TIP3    H176366   1.911   0.808  15.677
18317TIP3    H276367   2.019   0.865  15.766
18318TIP3   OH276368   4.002   6.681  14.290
18318TIP3    H176369   3.982   6.588  14.301
18318TIP3    H276370   3.982   6.699  14.198
18319TIP3   OH276371   6.067   5.421  13.944
18319TIP3    H176372   5.988   5.462  13.908
18319TIP3    H276373   6.118   5.494  13.979
18320TIP3   OH276374   6.752   0.228  16.607
18320TIP3    H176375   6.768   0.319  16.629
18320TIP3    H276376   6.714   0.230  16.519
18321TIP3   OH276377   6.091   3.605   5.556
18321TIP3    H176378   6.101   3.699   5.575
18321TIP3    H276379   6.000   3.587   5.577
18322TIP3   OH276380   0.404   6.465   5.736
18322TIP3    H176381   0.312   6.489   5.744
18322TIP3    H276382   0.408   6.405   5.662
18323TIP3   OH276383   0.282   5.731   3.160
18323TIP3    H176384   0.306   5.754   3.071
18323TIP3    H276385   0.365   5.721   3.206
18324TIP3   OH276386   6.713   6.317   0.813
18324TIP3    H176387   6.729   6.321   0.907
18324TIP3    H276388   6.760   6.238   0.784
18325TIP3   OH276389   5.825   0.224  14.040
18325TIP3    H176390   5.898   0.278  14.070
18325TIP3    H276391   5.858   0.134  14.045
18326TIP3   OH276392   4.060   6.644   2.604
18326TIP3    H176393   4.129   6.676   2.662
18326TIP3    H276394   4.065   6.701   2.528
18327TIP3   OH276395   5.026   0.274  14.853
18327TIP3    H176396   5.119   0.276  14.827
18327TIP3    H276397   4.985   0.217  14.789
18328TIP3   OH276398   3.375   2.481   4.824
18328TIP3    H176399   3.407   2.413   4.883
18328TIP3    H276400   3.396   2.563   4.868
18329TIP3   OH276401   1.769   6.391  12.114
18329TIP3    H176402   1.737   6.301  12.117
18329TIP3    H276403   1.740   6.425  12.029
18330TIP3   OH276404   6.737   0.235   4.462
18330TIP3    H176405   6.728   0.273   4.375
18330TIP3    H276406   6.652   0.248   4.504
18331TIP3   OH276407   1.969   5.038   5.570
18331TIP3    H176408   1.942   4.946   5.570
18331TIP3    H276409   1.921   5.077   5.496
18332TIP3   OH276410   3.865   5.656  14.186
18332TIP3    H176411   3.929   5.609  14.239
18332TIP3    H276412   3.869   5.747  14.216
18333TIP3   OH276413   2.429   5.260   4.811
18333TIP3    H176414   2.520   5.232   4.818
18333TIP3    H276415   2.407   5.293   4.898
18334TIP3   OH276416   3.922   6.742  14.048
18334TIP3    H176417   3.949   6.758  13.957
18334TIP3    H276418   3.918   6.830  14.087
18335TIP3   OH276419   6.117   2.726   5.564
18335TIP3    H176420   6.203   2.733   5.523
18335TIP3    H276421   6.080   2.815   5.558
18336TIP3   OH276422   3.048   4.861  16.494
18336TIP3    H176423   3.091   4.946  16.504
18336TIP3    H276424   3.096   4.818  16.423
18337TIP3   OH276425   5.063   0.757  11.285
18337TIP3    H176426   5.051   0.699  11.209
18337TIP3    H276427   4.975   0.791  11.303
18338TIP3   OH276428   4.515   3.665   3.680
18338TIP3    H176429   4.435   3.613   3.672
18338TIP3    H276430   4.507   3.710   3.764
18339TIP3   OH276431   3.010   4.877   2.659
18339TIP3    H176432   3.075   4.936   2.622
18339TIP3    H276433   2.956   4.851   2.585
18340TIP3   OH276434   0.253   3.788  16.525
18340TIP3    H176435   0.175   3.789  16.469
18340TIP3    H276436   0.326   3.801  16.464
18341TIP3   OH276437   6.059   5.603   5.379
18341TIP3    H176438   6.140   5.637   5.342
18341TIP3    H276439   6.030   5.670   5.441
18342TIP3   OH276440   3.789   4.753  12.062
18342TIP3    H176441   3.784   4.675  12.118
18342TIP3    H276442   3.698   4.777  12.046
18343TIP3   OH276443   0.172   1.870  13.222
18343TIP3    H176444   0.095   1.913  13.259
18343TIP3    H276445   0.140   1.784  13.195
18344TIP3   OH276446   3.375   4.706  13.538
18344TIP3    H176447   3.347   4.622  13.500
18344TIP3    H276448   3.293   4.753  13.556
18345TIP3   OH276449   4.569   3.728   2.206
18345TIP3    H176450   4.589   3.634   2.195
18345TIP3    H276451   4.601   3.768   2.125
18346TIP3   OH276452   6.028   3.160  14.675
18346TIP3    H176453   6.049   3.102  14.748
18346TIP3    H276454   6.012   3.101  14.601
18347TIP3   OH276455   4.802   5.797   4.576
18347TIP3    H176456   4.869   5.769   4.637
18347TIP3    H276457   4.849   5.854   4.514
18348TIP3   OH276458   6.685   3.838  16.049
18348TIP3    H176459   6.614   3.832  15.985
18348TIP3    H276460   6.758   3.875  15.999
18349TIP3   OH276461   2.819   5.118  12.687
18349TIP3    H176462   2.767   5.158  12.756
18349TIP3    H276463   2.898   5.172  12.682
18350TIP3   OH276464   0.171   0.197   5.730
18350TIP3    H176465   0.160   0.292   5.721
18350TIP3    H276466   0.134   0.160   5.650
18351TIP3   OH276467   4.817   5.204   4.656
18351TIP3    H176468   4.764   5.269   4.609
18351TIP3    H276469   4.757   5.131   4.671
18352TIP3   OH276470   6.595   0.257   1.071
18352TIP3    H176471   6.577   0.279   0.980
18352TIP3    H276472   6.657   0.184   1.067
18353TIP3   OH276473   2.392   4.206  15.901
18353TIP3    H176474   2.331   4.269  15.940
18353TIP3    H276475   2.395   4.134  15.964
18354TIP3   OH276476   3.870   0.733  16.139
18354TIP3    H176477   3.883   0.644  16.108
18354TIP3    H276478   3.954   0.758  16.178
18355TIP3   OH276479   0.236   5.677   0.035
18355TIP3    H176480   0.186   5.604   0.072
18355TIP3    H276481   0.231   5.664  -0.060
18356TIP3   OH276482   6.013   2.858  11.644
18356TIP3    H176483   5.964   2.778  11.666
18356TIP3    H276484   5.958   2.902  11.580
18357TIP3   OH276485   4.248   3.212  12.445
18357TIP3    H176486   4.310   3.271  12.401
18357TIP3    H276487   4.267   3.126  12.410
18358TIP3   OH276488   6.500   2.847  11.181
18358TIP3    H176489   6.478   2.935  11.212
18358TIP3    H276490   6.426   2.793  11.208
18359TIP3   OH276491   3.880   1.029   4.463
18359TIP3    H176492   3.825   1.053   4.388
18359TIP3    H276493   3.865   1.099   4.526
18360TIP3   OH276494   1.188   4.867   2.182
18360TIP3    H176495   1.162   4.850   2.273
18360TIP3    H276496   1.135   4.942   2.156
18361TIP3   OH276497   6.156   4.480   0.843
18361TIP3    H176498   6.069   4.514   0.822
18361TIP3    H276499   6.170   4.409   0.781
18362TIP3   OH276500   1.892   2.980   3.135
18362TIP3    H176501   1.888   2.904   3.078
18362TIP3    H276502   1.985   3.004   3.137
18363TIP3   OH276503   3.258   5.696   3.738
18363TIP3    H176504   3.177   5.710   3.786
18363TIP3    H276505   3.259   5.602   3.719
18364TIP3   OH276506   0.879   2.553  14.341
18364TIP3    H176507   0.922   2.502  14.273
18364TIP3    H276508   0.893   2.503  14.422
18365TIP3   OH276509   4.946   1.658   2.112
18365TIP3    H176510   5.005   1.723   2.150
18365TIP3    H276511   4.927   1.599   2.185
18366TIP3   OH276512   1.305   1.519  16.857
18366TIP3    H176513   1.232   1.458  16.848
18366TIP3    H276514   1.287   1.567  16.938
18367TIP3   OH276515   4.184   4.577  13.077
18367TIP3    H176516   4.150   4.608  13.161
18367TIP3    H276517   4.279   4.580  13.087
18368TIP3   OH276518   5.623   1.340   3.620
18368TIP3    H176519   5.702   1.292   3.595
18368TIP3    H276520   5.648   1.432   3.615
18369TIP3   OH276521   6.342   6.009  14.734
18369TIP3    H176522   6.400   6.064  14.787
18369TIP3    H276523   6.400   5.967  14.670
18370TIP3   OH276524   6.321   5.736  14.454
18370TIP3    H176525   6.277   5.774  14.378
18370TIP3    H276526   6.361   5.811  14.498
18371TIP3   OH276527   1.461   6.131  11.744
18371TIP3    H176528   1.390   6.182  11.704
18371TIP3    H276529   1.537   6.151  11.690
18372TIP3   OH276530   1.190   2.684  10.648
18372TIP3    H176531   1.129   2.727  10.708
18372TIP3    H276532   1.205   2.749  10.579
18373TIP3   OH276533   2.719   4.878  13.673
18373TIP3    H176534   2.670   4.838  13.602
18373TIP3    H276535   2.757   4.957  13.635
18374TIP3   OH276536   4.726   4.557   5.453
18374TIP3    H176537   4.678   4.482   5.489
18374TIP3    H276538   4.688   4.633   5.498
18375TIP3   OH276539   2.393   2.788  16.775
18375TIP3    H176540   2.332   2.843  16.823
18375TIP3    H276541   2.397   2.707  16.825
18376TIP3   OH276542   1.764   1.356   2.192
18376TIP3    H176543   1.764   1.452   2.187
18376TIP3    H276544   1.674   1.333   2.213
18377TIP3   OH276545   1.228   5.717   1.731
18377TIP3    H176546   1.187   5.729   1.646
18377TIP3    H276547   1.258   5.805   1.756
18378TIP3   OH276548   1.286   5.162   6.084
18378TIP3    H176549   1.294   5.130   6.174
18378TIP3    H276550   1.316   5.252   6.088
18379TIP3   OH276551   1.708   1.199  12.320
18379TIP3    H176552   1.634   1.237  12.271
18379TIP3    H276553   1.668   1.133  12.376
18380TIP3   OH276554   3.116   1.521   4.258
18380TIP3    H176555   3.074   1.556   4.179
18380TIP3    H276556   3.185   1.583   4.278
18381TIP3   OH276557   3.547   0.088   0.576
18381TIP3    H176558   3.525   0.019   0.637
18381TIP3    H276559   3.509   0.059   0.493
18382TIP3   OH276560   2.538   3.211   4.244
18382TIP3    H176561   2.468   3.198   4.180
18382TIP3    H276562   2.575   3.124   4.257
18383TIP3   OH276563   4.460   4.982  12.624
18383TIP3    H176564   4.436   4.996  12.716
18383TIP3    H276565   4.556   4.988  12.623
18384TIP3   OH276566   4.341   0.283   2.362
18384TIP3    H176567   4.276   0.282   2.292
18384TIP3    H276568   4.318   0.359   2.415
18385TIP3   OH276569   2.081   4.642  13.189
18385TIP3    H176570   2.128   4.561  13.206
18385TIP3    H276571   2.031   4.625  13.110
18386TIP3   OH276572   3.176   4.631  14.810
18386TIP3    H176573   3.114   4.563  14.782
18386TIP3    H276574   3.235   4.586  14.871
18387TIP3   OH276575   4.693   1.552   6.571
18387TIP3    H176576   4.745   1.479   6.537
18387TIP3    H276577   4.756   1.622   6.583
18388TIP3   OH276578   1.745   2.062   5.264
18388TIP3    H176579   1.749   2.132   5.199
18388TIP3    H276580   1.790   2.098   5.341
18389TIP3   OH276581   1.338   6.453  16.588
18389TIP3    H176582   1.376   6.380  16.636
18389TIP3    H276583   1.243   6.437  16.590
18390TIP3   OH276584   1.435   1.212  15.375
18390TIP3    H176585   1.444   1.273  15.302
18390TIP3    H276586   1.463   1.128  15.340
18391TIP3   OH276587   0.194   4.353  14.830
18391TIP3    H176588   0.170   4.264  14.856
18391TIP3    H276589   0.218   4.345  14.737
18392TIP3   OH276590   0.610   5.411  10.807
18392TIP3    H176591   0.600   5.359  10.727
18392TIP3    H276592   0.583   5.499  10.782
18393TIP3   OH276593   3.295   5.832  15.261
18393TIP3    H176594   3.232   5.827  15.189
18393TIP3    H276595   3.357   5.761  15.243
18394TIP3   OH276596   5.319   6.247  16.230
18394TIP3    H176597   5.344   6.338  16.247
18394TIP3    H276598   5.227   6.243  16.257
18395TIP3   OH276599   6.420   2.710   3.018
18395TIP3    H176600   6.344   2.656   2.995
18395TIP3    H276601   6.495   2.655   2.997
18396TIP3   OH276602   2.761   6.139  12.674
18396TIP3    H176603   2.842   6.111  12.630
18396TIP3    H276604   2.691   6.105  12.617
18397TIP3   OH276605   1.671   4.644  14.653
18397TIP3    H176606   1.691   4.560  14.613
18397TIP3    H276607   1.724   4.645  14.733
18398TIP3   OH276608   5.648   4.945   3.492
18398TIP3    H176609   5.720   4.934   3.429
18398TIP3    H276610   5.670   4.886   3.564
18399TIP3   OH276611   5.718   5.267   5.401
18399TIP3    H176612   5.672   5.290   5.482
18399TIP3    H276613   5.709   5.345   5.346
18400TIP3   OH276614   2.761   1.484  15.409
18400TIP3    H176615   2.724   1.563  15.449
18400TIP3    H276616   2.690   1.420  15.414
18401TIP3   OH276617   0.665   6.319  11.845
18401TIP3    H176618   0.749   6.365  11.845
18401TIP3    H276619   0.670   6.261  11.921
18402TIP3   OH276620   0.201   2.050  13.954
18402TIP3    H176621   0.108   2.072  13.944
18402TIP3    H276622   0.201   1.955  13.968
18403TIP3   OH276623   5.215   4.481  10.672
18403TIP3    H176624   5.191   4.390  10.690
18403TIP3    H276625   5.310   4.483  10.681
18404TIP3   OH276626   3.193   2.941   5.505
18404TIP3    H176627   3.261   3.009   5.507
18404TIP3    H276628   3.197   2.901   5.592
18405TIP3   OH276629   0.214   2.034   3.408
18405TIP3    H176630   0.178   1.993   3.329
18405TIP3    H276631   0.138   2.071   3.453
18406TIP3   OH276632   6.546   1.221  13.671
18406TIP3    H176633   6.612   1.188  13.732
18406TIP3    H276634   6.502   1.291  13.719
18407TIP3   OH276635   1.336   0.554   2.962
18407TIP3    H176636   1.352   0.534   2.870
18407TIP3    H276637   1.375   0.480   3.009
18408TIP3   OH276638   4.366   5.833  15.930
18408TIP3    H176639   4.297   5.788  15.979
18408TIP3    H276640   4.444   5.779  15.941
18409TIP3   OH276641   0.303   4.176  16.463
18409TIP3    H176642   0.252   4.146  16.538
18409TIP3    H276643   0.249   4.157  16.387
18410TIP3   OH276644   0.255   2.482  12.293
18410TIP3    H176645   0.344   2.503  12.322
18410TIP3    H276646   0.216   2.434  12.365
18411TIP3   OH276647   1.752   3.111  14.630
18411TIP3    H176648   1.658   3.129  14.636
18411TIP3    H276649   1.794   3.196  14.642
18412TIP3   OH276650   2.929   5.587  11.751
18412TIP3    H176651   2.852   5.568  11.697
18412TIP3    H276652   2.934   5.683  11.750
18413TIP3   OH276653   3.572   2.840  12.445
18413TIP3    H176654   3.565   2.750  12.414
18413TIP3    H276655   3.493   2.855  12.496
18414TIP3   OH276656   2.077   6.462   4.481
18414TIP3    H176657   2.104   6.535   4.537
18414TIP3    H276658   2.032   6.503   4.407
18415TIP3   OH276659   0.475   2.417  11.747
18415TIP3    H176660   0.452   2.443  11.658
18415TIP3    H276661   0.541   2.349  11.736
18416TIP3   OH276662   0.917   0.955  14.884
18416TIP3    H176663   0.859   0.956  14.808
18416TIP3    H276664   0.883   1.023  14.941
18417TIP3   OH276665   6.088   6.551   1.185
18417TIP3    H176666   6.103   6.561   1.279
18417TIP3    H276667   6.170   6.517   1.151
18418TIP3   OH276668   3.910   3.128   6.523
18418TIP3    H176669   3.916   3.088   6.436
18418TIP3    H276670   3.818   3.118   6.547
18419TIP3   OH276671   5.986   1.945  10.917
18419TIP3    H176672   5.966   2.004  10.845
18419TIP3    H276673   6.056   1.888  10.884
18420TIP3   OH276674   5.434   6.225  14.947
18420TIP3    H176675   5.387   6.198  15.026
18420TIP3    H276676   5.514   6.172  14.948
18421TIP3   OH276677   1.935   2.017   3.731
18421TIP3    H176678   1.905   2.090   3.785
18421TIP3    H276679   1.899   2.035   3.644
18422TIP3   OH276680   2.246   2.140   1.819
18422TIP3    H176681   2.289   2.065   1.861
18422TIP3    H276682   2.304   2.214   1.837
18423TIP3   OH276683   3.689   3.202   2.132
18423TIP3    H176684   3.622   3.262   2.165
18423TIP3    H276685   3.731   3.249   2.060
18424TIP3   OH276686   3.710   2.500  11.899
18424TIP3    H176687   3.800   2.483  11.870
18424TIP3    H276688   3.656   2.456  11.834
18425TIP3   OH276689   1.252   0.410   1.261
18425TIP3    H176690   1.277   0.374   1.346
18425TIP3    H276691   1.296   0.354   1.197
18426TIP3   OH276692   2.763   2.914  11.629
18426TIP3    H176693   2.688   2.936  11.684
18426TIP3    H276694   2.761   2.979  11.559
18427TIP3   OH276695   0.226   6.763  15.441
18427TIP3    H176696   0.191   6.802  15.521
18427TIP3    H276697   0.164   6.694  15.418
18428TIP3   OH276698   5.608   4.960  17.096
18428TIP3    H176699   5.669   4.919  17.034
18428TIP3    H276700   5.522   4.950  17.055
18429TIP3   OH276701   5.817   5.865  12.063
18429TIP3    H176702   5.801   5.960  12.066
18429TIP3    H276703   5.814   5.838  12.155
18430TIP3   OH276704   6.085   4.094   2.217
18430TIP3    H176705   6.132   4.122   2.296
18430TIP3    H276706   6.050   4.008   2.240
18431TIP3   OH276707   5.664   1.019  12.691
18431TIP3    H176708   5.616   0.955  12.742
18431TIP3    H276709   5.610   1.098  12.693
18432TIP3   OH276710   2.640   3.045   1.460
18432TIP3    H176711   2.675   2.969   1.413
18432TIP3    H276712   2.624   3.110   1.392
18433TIP3   OH276713   0.611   3.790  14.723
18433TIP3    H176714   0.556   3.746  14.787
18433TIP3    H276715   0.584   3.753  14.639
18434TIP3   OH276716   4.403   3.575  17.103
18434TIP3    H176717   4.340   3.616  17.045
18434TIP3    H276718   4.369   3.486  17.118
18435TIP3   OH276719   3.948   2.288   0.219
18435TIP3    H176720   3.973   2.380   0.218
18435TIP3    H276721   3.875   2.283   0.157
18436TIP3   OH276722   5.624   5.234  14.240
18436TIP3    H176723   5.588   5.279  14.316
18436TIP3    H276724   5.556   5.243  14.172
18437TIP3   OH276725   4.856   6.063  10.913
18437TIP3    H176726   4.888   6.149  10.883
18437TIP3    H276727   4.881   6.003  10.843
18438TIP3   OH276728   2.097   2.295   5.894
18438TIP3    H176729   2.100   2.220   5.954
18438TIP3    H276730   2.060   2.366   5.945
18439TIP3   OH276731   5.736   2.177   3.312
18439TIP3    H176732   5.752   2.118   3.386
18439TIP3    H276733   5.801   2.152   3.247
18440TIP3   OH276734   2.980   5.248  12.103
18440TIP3    H176735   2.884   5.257  12.102
18440TIP3    H276736   3.011   5.326  12.056
18441TIP3   OH276737   2.391   2.497  11.105
18441TIP3    H176738   2.424   2.445  11.031
18441TIP3    H276739   2.370   2.433  11.173
18442TIP3   OH276740   0.423   6.721  11.331
18442TIP3    H176741   0.459   6.713  11.243
18442TIP3    H276742   0.401   6.813  11.340
18443TIP3   OH276743   6.767   2.061   4.702
18443TIP3    H176744   6.764   1.983   4.757
18443TIP3    H276745   6.753   2.029   4.613
18444TIP3   OH276746   1.821   2.569  16.056
18444TIP3    H176747   1.828   2.663  16.068
18444TIP3    H276748   1.866   2.552  15.973
18445TIP3   OH276749   4.697   6.114   2.292
18445TIP3    H176750   4.641   6.192   2.288
18445TIP3    H276751   4.756   6.129   2.366
18446TIP3   OH276752   1.917   4.132   4.476
18446TIP3    H176753   1.845   4.084   4.435
18446TIP3    H276754   1.877   4.176   4.551
18447TIP3   OH276755   4.714   0.239   2.809
18447TIP3    H176756   4.695   0.150   2.839
18447TIP3    H276757   4.746   0.228   2.719
18448TIP3   OH276758   4.097   0.186   1.531
18448TIP3    H176759   4.045   0.267   1.523
18448TIP3    H276760   4.051   0.135   1.598
18449TIP3   OH276761   6.100   1.152   1.928
18449TIP3    H176762   6.187   1.117   1.908
18449TIP3    H276763   6.108   1.246   1.912
18450TIP3   OH276764   2.666   4.717  14.754
18450TIP3    H176765   2.626   4.633  14.731
18450TIP3    H276766   2.692   4.707  14.846
18451TIP3   OH276767   1.488   6.201  13.071
18451TIP3    H176768   1.514   6.287  13.039
18451TIP3    H276769   1.495   6.144  12.994
18452TIP3   OH276770   2.475   3.851  12.730
18452TIP3    H176771   2.419   3.928  12.721
18452TIP3    H276772   2.525   3.866  12.810
18453TIP3   OH276773   3.930   2.703   1.606
18453TIP3    H176774   3.950   2.739   1.692
18453TIP3    H276775   3.955   2.771   1.544
18454TIP3   OH276776   2.511   4.801   1.796
18454TIP3    H176777   2.461   4.836   1.722
18454TIP3    H276778   2.573   4.870   1.818
18455TIP3   OH276779   3.053   4.251  14.720
18455TIP3    H176780   3.140   4.241  14.757
18455TIP3    H276781   3.020   4.333  14.758
18456TIP3   OH276782   6.041   5.054  11.671
18456TIP3    H176783   6.092   5.025  11.595
18456TIP3    H276784   6.097   5.037  11.746
18457TIP3   OH276785   0.473   1.199  15.526
18457TIP3    H176786   0.391   1.178  15.481
18457TIP3    H276787   0.506   1.276  15.480
18458TIP3   OH276788   1.632   5.874   3.090
18458TIP3    H176789   1.616   5.964   3.062
18458TIP3    H276790   1.575   5.862   3.166
18459TIP3   OH276791   4.888   0.168  13.907
18459TIP3    H176792   4.961   0.179  13.846
18459TIP3    H276793   4.818   0.221  13.871
18460TIP3   OH276794   0.195   5.565  15.324
18460TIP3    H176795   0.149   5.562  15.408
18460TIP3    H276796   0.129   5.541  15.259
18461TIP3   OH276797   4.828   0.876  14.461
18461TIP3    H176798   4.744   0.919  14.443
18461TIP3    H276799   4.879   0.943  14.508
18462TIP3   OH276800   5.299   3.664  14.302
18462TIP3    H176801   5.339   3.739  14.257
18462TIP3    H276802   5.311   3.682  14.395
18463TIP3   OH276803   5.655   1.608   3.669
18463TIP3    H176804   5.577   1.594   3.723
18463TIP3    H276805   5.625   1.661   3.596
18464TIP3   OH276806   2.317   2.270   2.882
18464TIP3    H176807   2.411   2.277   2.900
18464TIP3    H276808   2.299   2.176   2.883
18465TIP3   OH276809   5.272   0.390   2.867
18465TIP3    H176810   5.358   0.379   2.826
18465TIP3    H276811   5.262   0.313   2.923
18466TIP3   OH276812   2.515   6.500   3.310
18466TIP3    H176813   2.434   6.508   3.361
18466TIP3    H276814   2.507   6.416   3.266
18467TIP3   OH276815   4.091   4.409  13.616
18467TIP3    H176816   4.141   4.471  13.563
18467TIP3    H276817   4.154   4.376  13.680
18468TIP3   OH276818   2.979   3.935  13.923
18468TIP3    H176819   2.966   4.006  13.986
18468TIP3    H276820   3.069   3.907  13.936
18469TIP3   OH276821   5.009   0.425  10.535
18469TIP3    H176822   5.008   0.516  10.564
18469TIP3    H276823   4.927   0.413  10.488
18470TIP3   OH276824   3.920   5.051   0.929
18470TIP3    H176825   3.853   5.103   0.886
18470TIP3    H276826   3.876   4.971   0.957
18471TIP3   OH276827   0.151   6.179  13.941
18471TIP3    H176828   0.085   6.247  13.928
18471TIP3    H276829   0.232   6.227  13.961
18472TIP3   OH276830   0.360   3.486   2.957
18472TIP3    H176831   0.420   3.560   2.950
18472TIP3    H276832   0.299   3.511   3.026
18473TIP3   OH276833   6.440   1.164   4.056
18473TIP3    H176834   6.441   1.243   4.109
18473TIP3    H276835   6.347   1.151   4.034
18474TIP3   OH276836   6.749   3.404   2.262
18474TIP3    H176837   6.668   3.377   2.220
18474TIP3    H276838   6.771   3.331   2.321
18475TIP3   OH276839   0.450   3.266  16.285
18475TIP3    H176840   0.512   3.309  16.345
18475TIP3    H276841   0.364   3.300  16.313
18476TIP3   OH276842   0.141   2.317  12.940
18476TIP3    H176843   0.208   2.381  12.917
18476TIP3    H276844   0.079   2.319  12.868
18477TIP3   OH276845   6.163   5.020  13.656
18477TIP3    H176846   6.097   5.036  13.723
18477TIP3    H276847   6.227   4.962  13.699
18478TIP3   OH276848   4.988   6.172  14.032
18478TIP3    H176849   5.029   6.112  13.970
18478TIP3    H276850   5.054   6.188  14.099
18479TIP3   OH276851   1.505   0.741   4.588
18479TIP3    H176852   1.478   0.670   4.646
18479TIP3    H276853   1.423   0.778   4.556
18480TIP3   OH276854   1.846   3.576   0.005
18480TIP3    H176855   1.886   3.549  -0.078
18480TIP3    H276856   1.758   3.539   0.002
18481TIP3   OH276857   1.370   5.436   0.842
18481TIP3    H176858   1.444   5.437   0.902
18481TIP3    H276859   1.397   5.376   0.772
18482TIP3   OH276860   4.878   3.139  16.700
18482TIP3    H176861   4.813   3.200  16.735
18482TIP3    H276862   4.962   3.178  16.723
18483TIP3   OH276863   5.301   2.234  13.325
18483TIP3    H176864   5.295   2.260  13.233
18483TIP3    H276865   5.376   2.284  13.359
18484TIP3   OH276866   4.471   0.365  11.941
18484TIP3    H176867   4.410   0.365  12.015
18484TIP3    H276868   4.547   0.413  11.974
18485TIP3   OH276869   2.400   0.777  13.821
18485TIP3    H176870   2.481   0.783  13.771
18485TIP3    H276871   2.424   0.813  13.907
18486TIP3   OH276872   4.929   6.663   1.603
18486TIP3    H176873   4.868   6.630   1.668
18486TIP3    H276874   5.008   6.684   1.653
18487TIP3   OH276875   0.357   3.799   3.595
18487TIP3    H176876   0.360   3.849   3.514
18487TIP3    H276877   0.296   3.727   3.577
18488TIP3   OH276878   1.808   0.093   2.628
18488TIP3    H176879   1.726   0.044   2.637
18488TIP3    H276880   1.833   0.115   2.718
18489TIP3   OH276881   2.930   3.972  13.114
18489TIP3    H176882   2.884   4.014  13.041
18489TIP3    H276883   3.023   3.988  13.096
18490TIP3   OH276884   6.714   4.811   2.331
18490TIP3    H176885   6.730   4.774   2.244
18490TIP3    H276886   6.633   4.862   2.321
18491TIP3   OH276887   1.292   2.345   1.659
18491TIP3    H176888   1.209   2.392   1.648
18491TIP3    H276889   1.300   2.290   1.582
18492TIP3   OH276890   4.968   4.825   2.754
18492TIP3    H176891   5.041   4.801   2.811
18492TIP3    H276892   4.973   4.920   2.748
18493TIP3   OH276893   2.353   4.939   1.277
18493TIP3    H176894   2.415   4.933   1.204
18493TIP3    H276895   2.296   5.012   1.253
18494TIP3   OH276896   6.625   0.726   6.622
18494TIP3    H176897   6.627   0.747   6.715
18494TIP3    H276898   6.698   0.665   6.609
18495TIP3   OH276899   4.773   0.663  14.272
18495TIP3    H176900   4.778   0.732  14.338
18495TIP3    H276901   4.860   0.622  14.273
18496TIP3   OH276902   6.316   6.037  16.821
18496TIP3    H176903   6.236   6.049  16.872
18496TIP3    H276904   6.331   6.122  16.779
18497TIP3   OH276905   3.387   6.525   5.358
18497TIP3    H176906   3.476   6.489   5.356
18497TIP3    H276907   3.358   6.512   5.448
18498TIP3   OH276908   0.577   3.164   2.546
18498TIP3    H176909   0.610   3.153   2.635
18498TIP3    H276910   0.582   3.077   2.507
18499TIP3   OH276911   2.542   5.590  16.177
18499TIP3    H176912   2.463   5.634  16.209
18499TIP3    H276913   2.596   5.661  16.143
18500TIP3   OH276914   6.409   2.945  12.565
18500TIP3    H176915   6.319   2.956  12.535
18500TIP3    H276916   6.401   2.886  12.641
18501TIP3   OH276917   5.372   4.140   4.537
18501TIP3    H176918   5.413   4.195   4.604
18501TIP3    H276919   5.432   4.143   4.462
18502TIP3   OH276920   4.865   4.719  13.371
18502TIP3    H176921   4.788   4.673  13.403
18502TIP3    H276922   4.856   4.808  13.404
18503TIP3   OH276923   4.033   0.228   5.597
18503TIP3    H176924   4.054   0.307   5.646
18503TIP3    H276925   4.110   0.172   5.609
18504TIP3   OH276926   1.383   1.097   4.543
18504TIP3    H176927   1.478   1.082   4.544
18504TIP3    H276928   1.373   1.184   4.505
18505TIP3   OH276929   2.947   0.821   3.238
18505TIP3    H176930   3.007   0.802   3.310
18505TIP3    H276931   2.892   0.892   3.271
18506TIP3   OH276932   3.705   6.539  12.096
18506TIP3    H176933   3.637   6.475  12.117
18506TIP3    H276934   3.664   6.596  12.031
18507TIP3   OH276935   1.726   0.077   0.911
18507TIP3    H176936   1.781   0.024   0.969
18507TIP3    H276937   1.675   0.012   0.861
18508TIP3   OH276938   1.784   0.341  16.704
18508TIP3    H176939   1.821   0.262  16.664
18508TIP3    H276940   1.723   0.308  16.770
18509TIP3   OH276941   3.367   1.477  15.178
18509TIP3    H176942   3.447   1.502  15.133
18509TIP3    H276943   3.353   1.545  15.244
18510TIP3   OH276944   5.408   5.654   5.595
18510TIP3    H176945   5.334   5.697   5.637
18510TIP3    H276946   5.427   5.579   5.652
18511TIP3   OH276947   4.361   1.540  17.039
18511TIP3    H176948   4.353   1.595  17.117
18511TIP3    H276949   4.429   1.582  16.987
18512TIP3   OH276950   6.579   2.074  15.789
18512TIP3    H176951   6.597   2.154  15.839
18512TIP3    H276952   6.665   2.046  15.757
18513TIP3   OH276953   6.591   5.340   5.475
18513TIP3    H176954   6.681   5.371   5.461
18513TIP3    H276955   6.573   5.283   5.400
18514TIP3   OH276956   3.534   6.210   4.635
18514TIP3    H176957   3.471   6.139   4.648
18514TIP3    H276958   3.503   6.256   4.557
18515TIP3   OH276959   5.767   1.990  14.512
18515TIP3    H176960   5.679   1.952  14.513
18515TIP3    H276961   5.821   1.923  14.471
18516TIP3   OH276962   6.295   2.674   3.286
18516TIP3    H176963   6.338   2.695   3.203
18516TIP3    H276964   6.277   2.580   3.280
18517TIP3   OH276965   1.037   2.691   2.787
18517TIP3    H176966   1.096   2.728   2.721
18517TIP3    H276967   1.082   2.705   2.870
18518TIP3   OH276968   5.743   5.315  12.179
18518TIP3    H176969   5.716   5.379  12.244
18518TIP3    H276970   5.720   5.354  12.095
18519TIP3   OH276971   6.720   4.347  13.605
18519TIP3    H176972   6.642   4.306  13.567
18519TIP3    H276973   6.689   4.383  13.688
18520TIP3   OH276974   5.487   1.348   5.750
18520TIP3    H176975   5.412   1.300   5.784
18520TIP3    H276976   5.507   1.305   5.667
18521TIP3   OH276977   5.950   1.550   2.045
18521TIP3    H176978   6.014   1.526   1.978
18521TIP3    H276979   5.885   1.603   1.999
18522TIP3   OH276980   2.539   1.881  12.852
18522TIP3    H176981   2.577   1.949  12.797
18522TIP3    H276982   2.457   1.857  12.807
18523TIP3   OH276983   2.585   4.301   4.699
18523TIP3    H176984   2.526   4.348   4.757
18523TIP3    H276985   2.672   4.314   4.737
18524TIP3   OH276986   3.098   2.702  11.221
18524TIP3    H176987   3.103   2.707  11.317
18524TIP3    H276988   3.188   2.684  11.193
18525TIP3   OH276989   6.664   1.744   4.688
18525TIP3    H176990   6.700   1.809   4.626
18525TIP3    H276991   6.647   1.667   4.634
18526TIP3   OH276992   0.353   3.183  15.867
18526TIP3    H176993   0.371   3.174  15.773
18526TIP3    H276994   0.323   3.273  15.877
18527TIP3   OH276995   5.663   5.421  13.543
18527TIP3    H176996   5.641   5.494  13.486
18527TIP3    H276997   5.613   5.347  13.508
18528TIP3   OH276998   4.437   0.106  12.439
18528TIP3    H176999   4.437   0.152  12.355
18528TIP3    H277000   4.513   0.141  12.486
18529TIP3   OH277001   6.316   3.934   0.653
18529TIP3    H177002   6.332   3.950   0.746
18529TIP3    H277003   6.227   3.966   0.638
18530TIP3   OH277004   4.950   6.396   0.266
18530TIP3    H177005   4.910   6.449   0.335
18530TIP3    H277006   4.978   6.316   0.310
18531TIP3   OH277007   0.801   0.202  12.012
18531TIP3    H177008   0.819   0.110  11.992
18531TIP3    H277009   0.738   0.199  12.084
18532TIP3   OH277010   1.005   6.336  12.677
18532TIP3    H177011   1.025   6.423  12.713
18532TIP3    H277012   0.954   6.293  12.746
18533TIP3   OH277013   3.150   5.836   2.060
18533TIP3    H177014   3.137   5.844   1.966
18533TIP3    H277015   3.145   5.925   2.094
18534TIP3   OH277016   3.186   5.580  15.903
18534TIP3    H177017   3.161   5.531  15.826
18534TIP3    H277018   3.153   5.529  15.977
18535TIP3   OH277019   3.271   4.923  15.408
18535TIP3    H177020   3.292   4.850  15.466
18535TIP3    H277021   3.347   4.930  15.351
18536TIP3   OH277022   6.201   0.217  16.087
18536TIP3    H177023   6.260   0.241  16.016
18536TIP3    H277024   6.129   0.171  16.044
18537TIP3   OH277025   1.165   6.443  13.870
18537TIP3    H177026   1.245   6.485  13.902
18537TIP3    H277027   1.113   6.514  13.835
18538TIP3   OH277028   0.685   2.092   4.438
18538TIP3    H177029   0.691   2.058   4.349
18538TIP3    H277030   0.660   2.017   4.491
18539TIP3   OH277031   6.729   2.339   2.268
18539TIP3    H177032   6.815   2.307   2.295
18539TIP3    H277033   6.708   2.291   2.188
18540TIP3   OH277034   4.092   0.239   0.890
18540TIP3    H177035   4.031   0.241   0.963
18540TIP3    H277036   4.060   0.306   0.830
18541TIP3   OH277037   1.522   0.974   5.941
18541TIP3    H177038   1.546   1.061   5.910
18541TIP3    H277039   1.554   0.971   6.032
18542TIP3   OH277040   4.966   6.555  15.937
18542TIP3    H177041   5.052   6.548  15.894
18542TIP3    H277042   4.986   6.551  16.030
18543TIP3   OH277043   3.221   6.200  16.999
18543TIP3    H177044   3.169   6.278  17.015
18543TIP3    H277045   3.248   6.207  16.908
18544TIP3   OH277046   2.472   6.386   1.237
18544TIP3    H177047   2.431   6.395   1.323
18544TIP3    H277048   2.423   6.446   1.181
18545TIP3   OH277049   1.991   1.171   5.998
18545TIP3    H177050   2.075   1.202   6.032
18545TIP3    H277051   1.965   1.102   6.058
18546TIP3   OH277052   1.382   0.863   4.296
18546TIP3    H177053   1.336   0.878   4.379
18546TIP3    H277054   1.397   0.951   4.261
18547TIP3   OH277055   3.515   4.450  12.806
18547TIP3    H177056   3.608   4.447  12.785
18547TIP3    H277057   3.502   4.378  12.868
18548TIP3   OH277058   5.636   4.946  12.760
18548TIP3    H177059   5.710   4.935  12.700
18548TIP3    H277060   5.586   4.864  12.751
18549TIP3   OH277061   3.325   5.020   0.530
18549TIP3    H177062   3.308   4.928   0.550
18549TIP3    H277063   3.281   5.068   0.600
18550TIP3   OH277064   5.557   1.773   5.502
18550TIP3    H177065   5.651   1.787   5.485
18550TIP3    H277066   5.546   1.678   5.498
18551TIP3   OH277067   0.996   6.270   0.068
18551TIP3    H177068   1.028   6.347   0.023
18551TIP3    H277069   1.043   6.197   0.028
18552TIP3   OH277070   5.477   1.725  12.099
18552TIP3    H177071   5.447   1.812  12.074
18552TIP3    H277072   5.555   1.741  12.152
18553TIP3   OH277073   4.984   6.382  12.760
18553TIP3    H177074   4.910   6.401  12.817
18553TIP3    H277075   4.977   6.446  12.689
18554TIP3   OH277076   6.388   4.383   4.188
18554TIP3    H177077   6.439   4.363   4.110
18554TIP3    H277078   6.327   4.310   4.197
18555TIP3   OH277079   0.301   6.719  14.974
18555TIP3    H177080   0.294   6.633  15.016
18555TIP3    H277081   0.234   6.772  15.017
18556TIP3   OH277082   0.855   6.463   5.553
18556TIP3    H177083   0.813   6.387   5.594
18556TIP3    H277084   0.837   6.536   5.614
18557TIP3   OH277085   1.484   0.642   3.724
18557TIP3    H177086   1.575   0.634   3.752
18557TIP3    H277087   1.437   0.577   3.776
18558TIP3   OH277088   6.337   6.384  11.773
18558TIP3    H177089   6.315   6.427  11.690
18558TIP3    H277090   6.325   6.452  11.839
18559TIP3   OH277091   0.844   3.098   1.199
18559TIP3    H177092   0.903   3.121   1.127
18559TIP3    H277093   0.766   3.062   1.157
18560TIP3   OH277094   2.459   6.629  14.206
18560TIP3    H177095   2.395   6.567  14.239
18560TIP3    H277096   2.428   6.714  14.237
18561TIP3   OH277097   4.028   3.222   3.236
18561TIP3    H177098   3.934   3.201   3.240
18561TIP3    H277099   4.053   3.235   3.327
18562TIP3   OH277100   5.121   5.721   6.235
18562TIP3    H177101   5.095   5.683   6.319
18562TIP3    H277102   5.152   5.809   6.257
18563TIP3   OH277103   2.940   1.194  13.544
18563TIP3    H177104   2.878   1.265  13.528
18563TIP3    H277105   2.889   1.127  13.589
18564TIP3   OH277106   3.941   2.521   5.123
18564TIP3    H177107   4.008   2.588   5.115
18564TIP3    H277108   3.986   2.439   5.102
18565TIP3   OH277109   4.496   2.481   1.368
18565TIP3    H177110   4.499   2.385   1.371
18565TIP3    H277111   4.420   2.501   1.313
18566TIP3   OH277112   4.982   6.008  12.678
18566TIP3    H177113   4.994   5.929  12.626
18566TIP3    H277114   4.894   6.000  12.715
18567TIP3   OH277115   0.673   4.099   5.572
18567TIP3    H177116   0.592   4.105   5.623
18567TIP3    H277117   0.660   4.023   5.515
18568TIP3   OH277118   3.010   1.322   1.548
18568TIP3    H177119   3.100   1.347   1.526
18568TIP3    H277120   2.990   1.373   1.627
18569TIP3   OH277121   0.721   3.320   4.107
18569TIP3    H177122   0.752   3.406   4.079
18569TIP3    H277123   0.751   3.260   4.038
18570TIP3   OH277124   2.838   2.997  12.010
18570TIP3    H177125   2.907   2.956  12.062
18570TIP3    H277126   2.756   2.967  12.049
18571TIP3   OH277127   2.467   5.004  11.969
18571TIP3    H177128   2.559   4.981  11.952
18571TIP3    H277129   2.424   4.993  11.884
18572TIP3   OH277130   6.253   5.239  17.027
18572TIP3    H177131   6.190   5.301  17.064
18572TIP3    H277132   6.323   5.295  16.993
18573TIP3   OH277133   3.786   0.731   3.326
18573TIP3    H177134   3.848   0.674   3.281
18573TIP3    H277135   3.736   0.673   3.382
18574TIP3   OH277136   4.994   5.695   3.230
18574TIP3    H177137   5.050   5.766   3.262
18574TIP3    H277138   4.931   5.680   3.300
18575TIP3   OH277139   6.058   0.840  14.207
18575TIP3    H177140   6.073   0.933  14.189
18575TIP3    H277141   6.145   0.800  14.199
18576TIP3   OH277142   1.605   4.405   3.148
18576TIP3    H177143   1.559   4.436   3.069
18576TIP3    H277144   1.689   4.372   3.115
18577TIP3   OH277145   3.480   1.399   5.565
18577TIP3    H177146   3.386   1.390   5.551
18577TIP3    H277147   3.513   1.310   5.572
18578TIP3   OH277148   4.324   6.316   1.789
18578TIP3    H177149   4.262   6.389   1.781
18578TIP3    H277150   4.276   6.240   1.757
18579TIP3   OH277151   1.204   6.351  16.082
18579TIP3    H177152   1.292   6.361  16.044
18579TIP3    H277153   1.179   6.261  16.061
18580TIP3   OH277154   6.377   4.422   1.043
18580TIP3    H177155   6.425   4.484   0.990
18580TIP3    H277156   6.285   4.437   1.021
18581TIP3   OH277157   2.962   2.188   1.359
18581TIP3    H177158   2.984   2.098   1.384
18581TIP3    H277159   3.045   2.224   1.326
18582TIP3   OH277160   4.368   0.674  12.152
18582TIP3    H177161   4.414   0.729  12.089
18582TIP3    H277162   4.356   0.730  12.229
18583TIP3   OH277163   4.461   5.821  12.891
18583TIP3    H177164   4.463   5.915  12.907
18583TIP3    H277165   4.384   5.791  12.940
18584TIP3   OH277166   1.699   2.129  11.116
18584TIP3    H177167   1.734   2.160  11.033
18584TIP3    H277168   1.696   2.207  11.172
18585TIP3   OH277169   0.199   3.966  12.368
18585TIP3    H177170   0.182   4.053  12.333
18585TIP3    H277171   0.255   3.981  12.444
18586TIP3   OH277172   1.933   0.101   1.346
18586TIP3    H177173   2.000   0.086   1.413
18586TIP3    H277174   1.897   0.014   1.328
18587TIP3   OH277175   1.004   0.018   2.397
18587TIP3    H177176   1.094   0.010   2.427
18587TIP3    H277177   0.963  -0.066   2.419
18588TIP3   OH277178   6.185   0.346   4.215
18588TIP3    H177179   6.125   0.303   4.277
18588TIP3    H277180   6.197   0.282   4.145
18589TIP3   OH277181   4.550   4.297  12.368
18589TIP3    H177182   4.479   4.248  12.410
18589TIP3    H277183   4.571   4.366  12.431
18590TIP3   OH277184   4.904   2.381  11.543
18590TIP3    H177185   4.838   2.311  11.549
18590TIP3    H277186   4.965   2.350  11.476
18591TIP3   OH277187   0.055   2.407   1.115
18591TIP3    H177188   0.073   2.412   1.208
18591TIP3    H277189   0.140   2.388   1.075
18592TIP3   OH277190   3.052   5.568  11.423
18592TIP3    H177191   3.041   5.518  11.504
18592TIP3    H277192   3.116   5.518  11.373
18593TIP3   OH277193   2.291   5.850   4.637
18593TIP3    H177194   2.230   5.792   4.591
18593TIP3    H277195   2.342   5.792   4.693
18594TIP3   OH277196   2.261   3.727  16.004
18594TIP3    H177197   2.300   3.650  16.046
18594TIP3    H277198   2.239   3.697  15.915
18595TIP3   OH277199   1.612   0.369   5.122
18595TIP3    H177200   1.682   0.430   5.096
18595TIP3    H277201   1.647   0.282   5.103
18596TIP3   OH277202   2.057   4.960   2.561
18596TIP3    H177203   2.010   4.952   2.478
18596TIP3    H277204   2.002   4.912   2.624
18597TIP3   OH277205   1.485   0.271   5.715
18597TIP3    H177206   1.431   0.320   5.653
18597TIP3    H277207   1.426   0.251   5.788
18598TIP3   OH277208   4.906   4.495   2.148
18598TIP3    H177209   4.920   4.569   2.089
18598TIP3    H277210   4.845   4.438   2.102
18599TIP3   OH277211   5.214   6.090  11.281
18599TIP3    H177212   5.218   6.012  11.336
18599TIP3    H277213   5.121   6.104  11.264
18600TIP3   OH277214   1.605   5.114   4.161
18600TIP3    H177215   1.606   5.084   4.070
18600TIP3    H277216   1.553   5.048   4.207
18601TIP3   OH277217   2.660   5.517   1.928
18601TIP3    H177218   2.753   5.495   1.919
18601TIP3    H277219   2.625   5.451   1.988
18602TIP3   OH277220   4.605   5.846   4.219
18602TIP3    H177221   4.611   5.938   4.196
18602TIP3    H277222   4.544   5.843   4.293
18603TIP3   OH277223   0.490   3.155  13.934
18603TIP3    H177224   0.517   3.185  14.021
18603TIP3    H277225   0.491   3.233  13.880
18604TIP3   OH277226   0.623   3.018   4.050
18604TIP3    H177227   0.576   3.079   4.106
18604TIP3    H277228   0.555   2.972   4.001
18605TIP3   OH277229   5.916   0.882  13.513
18605TIP3    H177230   6.006   0.897  13.485
18605TIP3    H277231   5.914   0.913  13.603
18606TIP3   OH277232   6.383   3.802  16.654
18606TIP3    H177233   6.462   3.774  16.700
18606TIP3    H277234   6.325   3.726  16.658
18607TIP3   OH277235   4.371   3.141  15.168
18607TIP3    H177236   4.315   3.218  15.170
18607TIP3    H277237   4.453   3.170  15.208
18608TIP3   OH277238   0.767   6.382   3.411
18608TIP3    H177239   0.814   6.456   3.373
18608TIP3    H277240   0.832   6.313   3.417
18609TIP3   OH277241   2.469   6.607  17.191
18609TIP3    H177242   2.496   6.697  17.212
18609TIP3    H277243   2.403   6.586  17.256
18610TIP3   OH277244   2.077   3.408   3.140
18610TIP3    H177245   2.142   3.385   3.074
18610TIP3    H277246   2.063   3.502   3.129
18611TIP3   OH277247   1.318   1.200  14.763
18611TIP3    H177248   1.298   1.111  14.792
18611TIP3    H277249   1.257   1.256  14.811
18612TIP3   OH277250   5.427   1.497   0.429
18612TIP3    H177251   5.504   1.527   0.477
18612TIP3    H277252   5.457   1.419   0.382
18613TIP3   OH277253   6.751   4.302  15.786
18613TIP3    H177254   6.702   4.291  15.867
18613TIP3    H277255   6.802   4.382  15.799
18614TIP3   OH277256   1.983   5.427  16.457
18614TIP3    H177257   1.998   5.489  16.386
18614TIP3    H277258   1.967   5.344  16.412
18615TIP3   OH277259   4.868   1.487  14.676
18615TIP3    H177260   4.832   1.490  14.765
18615TIP3    H277261   4.869   1.394  14.653
18616TIP3   OH277262   6.026   6.135   4.854
18616TIP3    H177263   6.078   6.190   4.796
18616TIP3    H277264   5.947   6.116   4.804
18617TIP3   OH277265   5.686   0.191   1.184
18617TIP3    H177266   5.746   0.244   1.132
18617TIP3    H277267   5.694   0.103   1.147
18618TIP3   OH277268   0.177   5.198   0.521
18618TIP3    H177269   0.248   5.204   0.458
18618TIP3    H277270   0.163   5.104   0.534
18619TIP3   OH277271   5.911   2.989   4.638
18619TIP3    H177272   5.925   2.917   4.700
18619TIP3    H277273   5.817   3.006   4.643
18620TIP3   OH277274   2.443   3.011  13.948
18620TIP3    H177275   2.449   2.979  14.038
18620TIP3    H277276   2.498   3.089  13.947
18621TIP3   OH277277   4.663   1.706  12.761
18621TIP3    H177278   4.603   1.646  12.805
18621TIP3    H277279   4.644   1.696  12.668
18622TIP3   OH277280   6.102   4.696  11.816
18622TIP3    H177281   6.061   4.638  11.752
18622TIP3    H277282   6.194   4.670  11.816
18623TIP3   OH277283   2.499   5.228   3.690
18623TIP3    H177284   2.484   5.135   3.704
18623TIP3    H277285   2.531   5.261   3.774
18624TIP3   OH277286   3.569   2.561  13.829
18624TIP3    H177287   3.629   2.551  13.755
18624TIP3    H277288   3.531   2.648  13.818
18625TIP3   OH277289   4.631   6.412  13.082
18625TIP3    H177290   4.554   6.460  13.113
18625TIP3    H277291   4.620   6.324  13.119
18626TIP3   OH277292   4.737   1.982  13.566
18626TIP3    H177293   4.686   2.060  13.588
18626TIP3    H277294   4.790   1.965  13.644
18627TIP3   OH277295   1.383   4.059  13.093
18627TIP3    H177296   1.394   4.140  13.142
18627TIP3    H277297   1.338   4.085  13.013
18628TIP3   OH277298   4.365   2.776   4.278
18628TIP3    H177299   4.433   2.713   4.301
18628TIP3    H277300   4.305   2.774   4.352
18629TIP3   OH277301   0.736   5.314   1.910
18629TIP3    H177302   0.737   5.363   1.992
18629TIP3    H277303   0.674   5.360   1.855
18630TIP3   OH277304   6.064   1.514   0.152
18630TIP3    H177305   6.083   1.488   0.242
18630TIP3    H277306   6.044   1.607   0.158
18631TIP3   OH277307   4.687   4.692  16.293
18631TIP3    H177308   4.667   4.602  16.320
18631TIP3    H277309   4.782   4.693  16.281
18632TIP3   OH277310   3.606   6.489   1.391
18632TIP3    H177311   3.515   6.473   1.415
18632TIP3    H277312   3.601   6.536   1.307
18633TIP3   OH277313   2.529   4.376  17.208
18633TIP3    H177314   2.622   4.400  17.202
18633TIP3    H277315   2.529   4.296  17.261
18634TIP3   OH277316   2.403   6.089   4.718
18634TIP3    H177317   2.340   6.149   4.679
18634TIP3    H277318   2.357   6.005   4.723
18635TIP3   OH277319   4.100   4.614  16.351
18635TIP3    H177320   4.105   4.681  16.282
18635TIP3    H277321   4.029   4.556  16.323
18636TIP3   OH277322   5.443   1.944  11.052
18636TIP3    H177323   5.458   1.851  11.066
18636TIP3    H277324   5.393   1.948  10.971
18637TIP3   OH277325   4.053   5.969  14.821
18637TIP3    H177326   4.047   5.916  14.900
18637TIP3    H277327   4.066   6.059  14.854
18638TIP3   OH277328   6.689   4.848   1.691
18638TIP3    H177329   6.670   4.777   1.752
18638TIP3    H277330   6.719   4.803   1.611
18639TIP3   OH277331   6.605   4.890  11.156
18639TIP3    H177332   6.696   4.905  11.130
18639TIP3    H277333   6.574   4.975  11.188
18640TIP3   OH277334   1.612   1.217  11.490
18640TIP3    H177335   1.560   1.276  11.435
18640TIP3    H277336   1.661   1.163  11.427
18641TIP3   OH277337   4.469   0.956  16.134
18641TIP3    H177338   4.448   0.863  16.132
18641TIP3    H277339   4.542   0.965  16.072
18642TIP3   OH277340   4.917   4.448  16.794
18642TIP3    H177341   4.932   4.406  16.709
18642TIP3    H277342   4.970   4.527  16.792
18643TIP3   OH277343   2.761   1.101   0.264
18643TIP3    H177344   2.742   1.011   0.291
18643TIP3    H277345   2.679   1.132   0.226
18644TIP3   OH277346   0.830   3.509  16.620
18644TIP3    H177347   0.919   3.512  16.655
18644TIP3    H277348   0.803   3.600  16.613
18645TIP3   OH277349   1.505   3.161  14.542
18645TIP3    H177350   1.451   3.208  14.478
18645TIP3    H277351   1.443   3.107  14.591
18646TIP3   OH277352   4.571   2.266   0.608
18646TIP3    H177353   4.512   2.213   0.554
18646TIP3    H277354   4.659   2.236   0.583
18647TIP3   OH277355   2.155   0.370   2.721
18647TIP3    H177356   2.123   0.350   2.809
18647TIP3    H277357   2.078   0.402   2.674
18648TIP3   OH277358   5.556   6.491  13.646
18648TIP3    H177359   5.593   6.528  13.726
18648TIP3    H277360   5.478   6.544  13.629
18649TIP3   OH277361   4.840   4.053  14.844
18649TIP3    H177362   4.849   4.025  14.753
18649TIP3    H277363   4.929   4.069  14.874
18650TIP3   OH277364   4.356   2.532  16.313
18650TIP3    H177365   4.372   2.593  16.241
18650TIP3    H277366   4.379   2.582  16.392
18651TIP3   OH277367   5.127   5.125  13.694
18651TIP3    H177368   5.221   5.136  13.680
18651TIP3    H277369   5.118   5.115  13.788
18652TIP3   OH277370   2.979   4.771  16.886
18652TIP3    H177371   2.960   4.687  16.928
18652TIP3    H277372   2.932   4.768  16.803
18653TIP3   OH277373   5.175   2.679  14.398
18653TIP3    H177374   5.242   2.747  14.396
18653TIP3    H277375   5.216   2.603  14.357
18654TIP3   OH277376   0.760   0.960  15.921
18654TIP3    H177377   0.759   0.996  15.833
18654TIP3    H277378   0.799   0.874  15.912
18655TIP3   OH277379   6.667   2.720   6.157
18655TIP3    H177380   6.636   2.666   6.230
18655TIP3    H277381   6.589   2.737   6.105
18656TIP3   OH277382   2.762   0.229  15.674
18656TIP3    H177383   2.766   0.295  15.604
18656TIP3    H277384   2.854   0.213  15.696
18657TIP3   OH277385   1.202   3.987   0.030
18657TIP3    H177386   1.203   4.038  -0.051
18657TIP3    H277387   1.257   3.911   0.012
18658TIP3   OH277388   6.321   2.513  14.438
18658TIP3    H177389   6.393   2.543  14.493
18658TIP3    H277390   6.268   2.592  14.424
18659TIP3   OH277391   4.654   6.188   0.711
18659TIP3    H177392   4.660   6.177   0.806
18659TIP3    H277393   4.743   6.212   0.684
18660TIP3   OH277394   1.317   0.449   4.540
18660TIP3    H177395   1.293   0.412   4.455
18660TIP3    H277396   1.249   0.514   4.558
18661TIP3   OH277397   3.895   4.678   2.482
18661TIP3    H177398   3.985   4.672   2.448
18661TIP3    H277399   3.860   4.590   2.471
18662TIP3   OH277400   0.332   3.965   3.170
18662TIP3    H177401   0.321   3.872   3.192
18662TIP3    H277402   0.248   4.005   3.193
18663TIP3   OH277403   3.366   1.507  16.318
18663TIP3    H177404   3.458   1.503  16.344
18663TIP3    H277405   3.342   1.416  16.301
18664TIP3   OH277406   4.995   2.022   0.710
18664TIP3    H177407   5.050   1.973   0.648
18664TIP3    H277408   5.020   1.990   0.796
18665TIP3   OH277409   2.713   4.337   5.436
18665TIP3    H177410   2.779   4.402   5.412
18665TIP3    H277411   2.763   4.255   5.447
18666TIP3   OH277412   3.882   5.055   2.953
18666TIP3    H177413   3.977   5.044   2.945
18666TIP3    H277414   3.845   4.988   2.895
18667TIP3   OH277415   5.894   4.662  12.920
18667TIP3    H177416   5.982   4.654  12.958
18667TIP3    H277417   5.882   4.756  12.908
18668TIP3   OH277418   2.836   1.169   4.968
18668TIP3    H177419   2.802   1.236   5.028
18668TIP3    H277420   2.899   1.119   5.021
18669TIP3   OH277421   0.650   0.763   6.111
18669TIP3    H177422   0.665   0.822   6.186
18669TIP3    H277423   0.726   0.777   6.055
18670TIP3   OH277424   5.749   5.584   0.761
18670TIP3    H177425   5.829   5.559   0.714
18670TIP3    H277426   5.709   5.500   0.786
18671TIP3   OH277427   2.525   1.272   3.276
18671TIP3    H177428   2.565   1.307   3.356
18671TIP3    H277429   2.576   1.311   3.205
18672TIP3   OH277430   2.650   6.455  12.517
18672TIP3    H177431   2.709   6.389  12.554
18672TIP3    H277432   2.578   6.404  12.480
18673TIP3   OH277433   5.646   2.988   1.499
18673TIP3    H177434   5.660   2.955   1.588
18673TIP3    H277435   5.717   2.949   1.447
18674TIP3   OH277436   4.062   4.753   6.515
18674TIP3    H177437   4.129   4.812   6.481
18674TIP3    H277438   4.040   4.697   6.440
18675TIP3   OH277439   4.552   0.339  14.406
18675TIP3    H177440   4.552   0.395  14.484
18675TIP3    H277441   4.645   0.323  14.388
18676TIP3   OH277442   2.081   2.685  14.912
18676TIP3    H177443   2.147   2.709  14.977
18676TIP3    H277444   2.000   2.726  14.944
18677TIP3   OH277445   2.420   6.158   5.549
18677TIP3    H177446   2.512   6.183   5.540
18677TIP3    H277447   2.387   6.153   5.459
18678TIP3   OH277448   0.539   3.937   2.981
18678TIP3    H177449   0.473   3.943   3.051
18678TIP3    H277450   0.581   4.023   2.981
18679TIP3   OH277451   0.523   4.751  15.006
18679TIP3    H177452   0.510   4.692  15.080
18679TIP3    H277453   0.472   4.712  14.935
18680TIP3   OH277454   1.356   5.352   4.160
18680TIP3    H177455   1.329   5.431   4.113
18680TIP3    H277456   1.447   5.369   4.185
18681TIP3   OH277457   1.789   5.446   1.161
18681TIP3    H177458   1.707   5.398   1.153
18681TIP3    H277459   1.785   5.487   1.247
18682TIP3   OH277460   4.809   3.759  16.205
18682TIP3    H177461   4.879   3.738  16.143
18682TIP3    H277462   4.732   3.774  16.151
18683TIP3   OH277463   2.173   0.966   5.809
18683TIP3    H177464   2.206   1.011   5.887
18683TIP3    H277465   2.140   1.037   5.753
18684TIP3   OH277466   6.733   3.007   6.101
18684TIP3    H177467   6.716   2.919   6.134
18684TIP3    H277468   6.795   3.044   6.163
18685TIP3   OH277469   0.369   0.606   1.522
18685TIP3    H177470   0.310   0.637   1.590
18685TIP3    H277471   0.313   0.594   1.445
18686TIP3   OH277472   0.250   6.044  13.183
18686TIP3    H177473   0.238   6.112  13.117
18686TIP3    H277474   0.344   6.041  13.200
18687TIP3   OH277475   4.306   3.887   6.438
18687TIP3    H177476   4.373   3.918   6.377
18687TIP3    H277477   4.324   3.793   6.448
18688TIP3   OH277478   4.637   3.066  14.938
18688TIP3    H177479   4.725   3.079  14.974
18688TIP3    H277480   4.603   3.155  14.926
18689TIP3   OH277481   4.312   2.492   4.057
18689TIP3    H177482   4.383   2.550   4.029
18689TIP3    H277483   4.338   2.464   4.145
18690TIP3   OH277484   5.550   6.644   1.575
18690TIP3    H177485   5.618   6.581   1.552
18690TIP3    H277486   5.468   6.596   1.567
18691TIP3   OH277487   2.347   1.263   6.613
18691TIP3    H177488   2.263   1.264   6.567
18691TIP3    H277489   2.359   1.172   6.640
18692TIP3   OH277490   3.438   1.505   3.892
18692TIP3    H177491   3.532   1.502   3.873
18692TIP3    H277492   3.413   1.595   3.870
18693TIP3   OH277493   4.443   2.445   0.747
18693TIP3    H177494   4.508   2.499   0.794
18693TIP3    H277495   4.496   2.387   0.692
18694TIP3   OH277496   3.779   3.219   4.377
18694TIP3    H177497   3.801   3.188   4.289
18694TIP3    H277498   3.687   3.246   4.371
18695TIP3   OH277499   5.909   3.782  13.457
18695TIP3    H177500   5.897   3.836  13.535
18695TIP3    H277501   5.993   3.810  13.421
18696TIP3   OH277502   4.932   0.251  13.501
18696TIP3    H177503   4.985   0.249  13.581
18696TIP3    H277504   4.988   0.294  13.436
18697TIP3   OH277505   6.264   6.782   0.999
18697TIP3    H177506   6.295   6.760   1.087
18697TIP3    H277507   6.339   6.764   0.942
18698TIP3   OH277508   4.542   0.360  16.370
18698TIP3    H177509   4.540   0.365  16.274
18698TIP3    H277510   4.460   0.402  16.398
18699TIP3   OH277511   4.974   0.783   1.345
18699TIP3    H177512   5.062   0.771   1.380
18699TIP3    H277513   4.981   0.759   1.253
18700TIP3   OH277514   2.008   4.437  16.138
18700TIP3    H177515   2.059   4.449  16.218
18700TIP3    H277516   2.014   4.521  16.092
18701TIP3   OH277517   3.438   4.385   4.669
18701TIP3    H177518   3.369   4.334   4.710
18701TIP3    H277519   3.512   4.380   4.730
18702TIP3   OH277520   6.253   4.594   3.765
18702TIP3    H177521   6.195   4.600   3.689
18702TIP3    H277522   6.208   4.534   3.825
18703TIP3   OH277523   0.701   1.365   0.008
18703TIP3    H177524   0.709   1.298   0.075
18703TIP3    H277525   0.761   1.434   0.035
18704TIP3   OH277526   2.038   5.539   1.847
18704TIP3    H177527   2.012   5.626   1.815
18704TIP3    H277528   2.034   5.547   1.943
18705TIP3   OH277529   3.771   3.089  15.460
18705TIP3    H177530   3.816   3.024  15.405
18705TIP3    H277531   3.745   3.041  15.538
18706TIP3   OH277532   2.487   0.302  14.577
18706TIP3    H177533   2.515   0.315  14.486
18706TIP3    H277534   2.544   0.361  14.628
18707TIP3   OH277535   0.572   2.912   5.374
18707TIP3    H177536   0.478   2.896   5.367
18707TIP3    H277537   0.587   2.929   5.467
18708TIP3   OH277538   0.989   0.687  14.974
18708TIP3    H177539   0.996   0.782  14.964
18708TIP3    H277540   0.898   0.671  14.995
18709TIP3   OH277541   1.816   4.806   5.858
18709TIP3    H177542   1.760   4.767   5.925
18709TIP3    H277543   1.884   4.852   5.907
18710TIP3   OH277544   0.483   4.762   3.982
18710TIP3    H177545   0.454   4.769   4.073
18710TIP3    H277546   0.482   4.852   3.949
18711TIP3   OH277547   3.908   1.154  15.255
18711TIP3    H177548   3.938   1.226  15.200
18711TIP3    H277549   3.816   1.141  15.231
18712TIP3   OH277550   5.004   4.401  11.138
18712TIP3    H177551   5.076   4.463  11.127
18712TIP3    H277552   5.044   4.315  11.120
18713TIP3   OH277553   3.557   0.374   3.144
18713TIP3    H177554   3.538   0.467   3.155
18713TIP3    H277555   3.564   0.362   3.050
18714TIP3   OH277556   2.988   5.284   1.069
18714TIP3    H177557   3.037   5.337   1.131
18714TIP3    H277558   2.992   5.332   0.987
18715TIP3   OH277559   0.330   1.009  11.651
18715TIP3    H177560   0.387   0.995  11.727
18715TIP3    H277561   0.361   1.091  11.612
18716TIP3   OH277562   0.457   2.920  13.781
18716TIP3    H177563   0.493   2.988  13.839
18716TIP3    H277564   0.476   2.838  13.826
18717TIP3   OH277565   1.700   1.928  15.514
18717TIP3    H177566   1.717   1.846  15.561
18717TIP3    H277567   1.628   1.908  15.455
18718TIP3   OH277568   3.394   6.730  11.847
18718TIP3    H177569   3.470   6.735  11.790
18718TIP3    H277570   3.364   6.821  11.855
18719TIP3   OH277571   3.312   6.617  14.399
18719TIP3    H177572   3.303   6.616  14.494
18719TIP3    H277573   3.236   6.665  14.368
18720TIP3   OH277574   2.381   4.398   5.596
18720TIP3    H177575   2.405   4.469   5.657
18720TIP3    H277576   2.399   4.318   5.645
18721TIP3   OH277577   4.773   5.052  15.323
18721TIP3    H177578   4.792   5.064  15.416
18721TIP3    H277579   4.720   5.129  15.299
18722TIP3   OH277580   2.847   6.295  15.702
18722TIP3    H177581   2.896   6.213  15.696
18722TIP3    H277582   2.843   6.328  15.612
18723TIP3   OH277583   1.398   2.512  10.591
18723TIP3    H177584   1.437   2.578  10.533
18723TIP3    H277585   1.316   2.551  10.620
18724TIP3   OH277586   4.449   1.487   0.851
18724TIP3    H177587   4.544   1.491   0.836
18724TIP3    H277588   4.437   1.408   0.904
18725TIP3   OH277589   1.474   3.322  14.121
18725TIP3    H177590   1.467   3.227  14.131
18725TIP3    H277591   1.492   3.354  14.210
18726TIP3   OH277592   5.054   5.144   4.434
18726TIP3    H177593   5.008   5.061   4.426
18726TIP3    H277594   5.068   5.155   4.528
18727TIP3   OH277595   2.383   0.944  16.462
18727TIP3    H177596   2.441   0.881  16.419
18727TIP3    H277597   2.295   0.914  16.439
18728TIP3   OH277598   3.889   4.913  11.520
18728TIP3    H177599   3.826   4.957  11.463
18728TIP3    H277600   3.839   4.893  11.600
18729TIP3   OH277601   0.491   6.053  15.149
18729TIP3    H177602   0.570   6.009  15.119
18729TIP3    H277603   0.440   5.984  15.193
18730TIP3   OH277604   1.798   2.750  11.071
18730TIP3    H177605   1.717   2.704  11.049
18730TIP3    H277606   1.815   2.725  11.162
18731TIP3   OH277607   1.823   5.664   2.573
18731TIP3    H177608   1.771   5.586   2.552
18731TIP3    H277609   1.874   5.680   2.494
18732TIP3   OH277610   3.087   6.154  11.947
18732TIP3    H177611   3.093   6.060  11.962
18732TIP3    H277612   3.164   6.175  11.895
18733TIP3   OH277613   4.716   3.431   3.603
18733TIP3    H177614   4.648   3.463   3.662
18733TIP3    H277615   4.742   3.508   3.552
18734TIP3   OH277616   2.713   5.295   4.905
18734TIP3    H177617   2.730   5.284   4.999
18734TIP3    H277618   2.788   5.252   4.863
18735TIP3   OH277619   2.733   4.370  12.593
18735TIP3    H177620   2.791   4.314  12.645
18735TIP3    H277621   2.791   4.410  12.528
18736TIP3   OH277622   4.508   5.106  12.208
18736TIP3    H177623   4.427   5.087  12.255
18736TIP3    H277624   4.573   5.120  12.276
18737TIP3   OH277625   3.068   5.434  15.690
18737TIP3    H177626   3.052   5.521  15.653
18737TIP3    H277627   2.984   5.388  15.681
18738TIP3   OH277628   2.130   0.607   3.626
18738TIP3    H177629   2.053   0.654   3.595
18738TIP3    H277630   2.202   0.668   3.615
18739TIP3   OH277631   4.049   0.705  16.828
18739TIP3    H177632   4.137   0.740  16.838
18739TIP3    H277633   4.002   0.774  16.779
18740TIP3   OH277634   1.090   2.595   3.626
18740TIP3    H177635   1.052   2.512   3.597
18740TIP3    H277636   1.144   2.572   3.701
18741TIP3   OH277637   0.758   6.428  13.675
18741TIP3    H177638   0.785   6.513  13.640
18741TIP3    H277639   0.674   6.445  13.718
18742TIP3   OH277640   5.553   2.828  16.281
18742TIP3    H177641   5.460   2.804  16.284
18742TIP3    H277642   5.597   2.757  16.329
18743TIP3   OH277643   2.232   3.269   2.977
18743TIP3    H177644   2.309   3.223   3.012
18743TIP3    H277645   2.268   3.328   2.911
18744TIP3   OH277646   5.696   6.710   5.046
18744TIP3    H177647   5.724   6.620   5.062
18744TIP3    H277648   5.736   6.761   5.117
18745TIP3   OH277649   2.145   3.805  12.802
18745TIP3    H177650   2.160   3.786  12.709
18745TIP3    H277651   2.050   3.794  12.813
18746TIP3   OH277652   1.556   0.973  15.332
18746TIP3    H177653   1.529   0.896  15.383
18746TIP3    H277654   1.652   0.966  15.330
18747TIP3   OH277655   4.132   5.659  14.784
18747TIP3    H177656   4.057   5.600  14.775
18747TIP3    H277657   4.119   5.701  14.869
18748TIP3   OH277658   2.667   2.717   2.004
18748TIP3    H177659   2.756   2.686   1.992
18748TIP3    H277660   2.676   2.811   2.018
18749TIP3   OH277661   1.139   3.641  10.373
18749TIP3    H177662   1.158   3.558  10.327
18749TIP3    H277663   1.062   3.622  10.426
18750TIP3   OH277664   3.187   4.530  11.250
18750TIP3    H177665   3.258   4.558  11.306
18750TIP3    H277666   3.227   4.517  11.164
18751TIP3   OH277667   1.220   5.073  11.218
18751TIP3    H177668   1.264   5.070  11.133
18751TIP3    H277669   1.140   5.122  11.201
18752TIP3   OH277670   0.839   2.950  13.566
18752TIP3    H177671   0.924   2.939  13.609
18752TIP3    H277672   0.856   3.009  13.493
18753TIP3   OH277673   0.864   5.001  11.167
18753TIP3    H177674   0.817   5.059  11.107
18753TIP3    H277675   0.941   4.973  11.117
18754TIP3   OH277676   3.090   0.880  11.645
18754TIP3    H177677   3.083   0.815  11.576
18754TIP3    H277678   3.173   0.860  11.688
18755TIP3   OH277679   5.086   4.084   2.385
18755TIP3    H177680   5.109   4.144   2.455
18755TIP3    H277681   5.127   4.001   2.410
18756TIP3   OH277682   2.658   5.328  12.019
18756TIP3    H177683   2.649   5.419  12.046
18756TIP3    H277684   2.579   5.286  12.052
18757TIP3   OH277685   1.922   2.820   2.763
18757TIP3    H177686   2.010   2.856   2.769
18757TIP3    H277687   1.930   2.746   2.702
18758TIP3   OH277688   5.617   3.015   2.584
18758TIP3    H177689   5.600   2.947   2.650
18758TIP3    H277690   5.678   2.974   2.523
18759TIP3   OH277691   4.023   2.932  15.628
18759TIP3    H177692   3.950   2.990  15.647
18759TIP3    H277693   3.984   2.845  15.621
18760TIP3   OH277694   3.347   6.003  14.928
18760TIP3    H177695   3.275   5.953  14.965
18760TIP3    H277696   3.352   6.082  14.982
18761TIP3   OH277697   3.421   3.834   6.100
18761TIP3    H177698   3.335   3.862   6.131
18761TIP3    H277699   3.482   3.899   6.135
18762TIP3   OH277700   1.814   5.701   5.756
18762TIP3    H177701   1.894   5.744   5.786
18762TIP3    H277702   1.843   5.614   5.728
18763TIP3   OH277703   2.806   5.773   6.038
18763TIP3    H177704   2.862   5.812   6.105
18763TIP3    H277705   2.725   5.824   6.042
18764TIP3   OH277706   6.776   4.333   2.354
18764TIP3    H177707   6.753   4.248   2.390
18764TIP3    H277708   6.868   4.323   2.326
18765TIP3   OH277709   1.425   4.572  12.301
18765TIP3    H177710   1.448   4.593  12.391
18765TIP3    H277711   1.443   4.478  12.292
18766TIP3   OH277712   5.936   0.306  15.070
18766TIP3    H177713   5.886   0.349  15.140
18766TIP3    H277714   5.873   0.294  14.999
18767TIP3   OH277715   5.560   6.543  10.826
18767TIP3    H177716   5.521   6.589  10.752
18767TIP3    H277717   5.590   6.460  10.790
18768TIP3   OH277718   2.608   4.488  15.439
18768TIP3    H177719   2.573   4.420  15.381
18768TIP3    H277720   2.588   4.455  15.527
18769TIP3   OH277721   0.464   5.013  13.220
18769TIP3    H177722   0.375   4.980  13.220
18769TIP3    H277723   0.502   4.982  13.138
18770TIP3   OH277724   5.525   2.398  13.328
18770TIP3    H177725   5.462   2.440  13.270
18770TIP3    H277726   5.595   2.369  13.271
18771TIP3   OH277727   1.311   0.190   5.962
18771TIP3    H177728   1.396   0.208   6.002
18771TIP3    H277729   1.314   0.098   5.939
18772TIP3   OH277730   6.524   3.589  13.176
18772TIP3    H177731   6.586   3.656  13.204
18772TIP3    H277732   6.550   3.510  13.224
18773TIP3   OH277733   4.357   3.160   0.132
18773TIP3    H177734   4.434   3.114   0.099
18773TIP3    H277735   4.387   3.201   0.213
18774TIP3   OH277736   0.690   1.649  14.224
18774TIP3    H177737   0.739   1.567  14.234
18774TIP3    H277738   0.757   1.717  14.218
18775TIP3   OH277739   6.145   3.597  13.467
18775TIP3    H177740   6.122   3.504  13.462
18775TIP3    H277741   6.184   3.617  13.382
18776TIP3   OH277742   1.547   4.674   1.006
18776TIP3    H177743   1.569   4.764   0.982
18776TIP3    H277744   1.519   4.680   1.098
18777TIP3   OH277745   0.453   1.498   0.859
18777TIP3    H177746   0.514   1.424   0.857
18777TIP3    H277747   0.509   1.575   0.863
18778TIP3   OH277748   1.703   3.346  13.273
18778TIP3    H177749   1.619   3.389  13.291
18778TIP3    H277750   1.769   3.406  13.307
18779TIP3   OH277751   1.635   3.607  11.825
18779TIP3    H177752   1.616   3.640  11.737
18779TIP3    H277753   1.660   3.515  11.812
18780TIP3   OH277754   1.857   6.332  15.359
18780TIP3    H177755   1.842   6.401  15.424
18780TIP3    H277756   1.945   6.300  15.378
18781TIP3   OH277757   0.883   1.195  11.367
18781TIP3    H177758   0.799   1.152  11.380
18781TIP3    H277759   0.905   1.232  11.452
18782TIP3   OH277760   3.915   5.233  14.743
18782TIP3    H177761   3.928   5.185  14.661
18782TIP3    H277762   3.863   5.173  14.797
18783TIP3   OH277763   3.337   6.650  17.192
18783TIP3    H177764   3.387   6.582  17.236
18783TIP3    H277765   3.297   6.700  17.263
18784TIP3   OH277766   1.665   6.183  14.956
18784TIP3    H177767   1.588   6.207  14.905
18784TIP3    H277768   1.733   6.168  14.890
18785TIP3   OH277769   0.934   4.181  15.298
18785TIP3    H177770   0.857   4.125  15.287
18785TIP3    H277771   0.899   4.270  15.300
18786TIP3   OH277772   3.313   5.734   6.296
18786TIP3    H177773   3.300   5.683   6.216
18786TIP3    H277774   3.382   5.797   6.272
18787TIP3   OH277775   5.166   2.638  15.443
18787TIP3    H177776   5.236   2.579  15.470
18787TIP3    H277777   5.140   2.607  15.357
18788TIP3   OH277778   2.306   5.500   0.981
18788TIP3    H177779   2.213   5.479   0.969
18788TIP3    H277780   2.307   5.592   1.007
18789TIP3   OH277781   6.493   0.493  13.585
18789TIP3    H177782   6.466   0.570  13.535
18789TIP3    H277783   6.456   0.419  13.537
18790TIP3   OH277784   3.701   0.292  13.881
18790TIP3    H177785   3.681   0.369  13.933
18790TIP3    H277786   3.662   0.219  13.930
18791TIP3   OH277787   1.363   5.881  11.670
18791TIP3    H177788   1.404   5.951  11.719
18791TIP3    H277789   1.404   5.884  11.584
18792TIP3   OH277790   6.586   4.248  10.728
18792TIP3    H177791   6.613   4.233  10.637
18792TIP3    H277792   6.603   4.342  10.742
18793TIP3   OH277793   1.347   5.913  14.619
18793TIP3    H177794   1.338   5.868  14.703
18793TIP3    H277795   1.265   5.962  14.609
18794TIP3   OH277796   5.095   0.738   3.721
18794TIP3    H177797   5.188   0.716   3.723
18794TIP3    H277798   5.063   0.698   3.640
18795TIP3   OH277799   1.832   4.908  10.893
18795TIP3    H177800   1.861   4.823  10.859
18795TIP3    H277801   1.773   4.886  10.965
18796TIP3   OH277802   3.937   5.329   3.018
18796TIP3    H177803   3.892   5.244   3.017
18796TIP3    H277804   3.998   5.325   2.945
18797TIP3   OH277805   5.017   5.403  11.299
18797TIP3    H177806   4.938   5.411  11.352
18797TIP3    H277807   5.020   5.311  11.274
18798TIP3   OH277808   0.435   5.976   4.896
18798TIP3    H177809   0.501   6.032   4.854
18798TIP3    H277810   0.376   5.950   4.825
18799TIP3   OH277811   0.995   4.242   3.617
18799TIP3    H177812   1.084   4.209   3.602
18799TIP3    H277813   0.999   4.333   3.586
18800TIP3   OH277814   1.273   6.362  12.631
18800TIP3    H177815   1.307   6.333  12.546
18800TIP3    H277816   1.180   6.376  12.617
18801TIP3   OH277817   4.806   1.523  11.102
18801TIP3    H177818   4.792   1.503  11.194
18801TIP3    H277819   4.728   1.489  11.058
18802TIP3   OH277820   0.626   2.354  12.824
18802TIP3    H177821   0.595   2.303  12.898
18802TIP3    H277822   0.590   2.310  12.747
18803TIP3   OH277823   3.716   1.629   2.220
18803TIP3    H177824   3.669   1.563   2.270
18803TIP3    H277825   3.785   1.660   2.279
18804TIP3   OH277826   5.992   1.609   4.712
18804TIP3    H177827   5.956   1.697   4.723
18804TIP3    H277828   6.027   1.587   4.799
18805TIP3   OH277829   0.904   2.474   3.971
18805TIP3    H177830   0.814   2.443   3.987
18805TIP3    H277831   0.950   2.397   3.937
18806TIP3   OH277832   6.236   2.815  13.056
18806TIP3    H177833   6.184   2.738  13.082
18806TIP3    H277834   6.296   2.829  13.129
18807TIP3   OH277835   1.593   5.780  14.796
18807TIP3    H177836   1.547   5.721  14.736
18807TIP3    H277837   1.524   5.835  14.832
18808TIP3   OH277838   1.333   4.964   0.947
18808TIP3    H177839   1.426   4.979   0.929
18808TIP3    H277840   1.289   4.979   0.864
18809TIP3   OH277841   2.089   3.978   5.420
18809TIP3    H177842   2.081   4.072   5.406
18809TIP3    H277843   2.067   3.966   5.513
18810TIP3   OH277844   2.876   5.449   6.085
18810TIP3    H177845   2.895   5.543   6.079
18810TIP3    H277846   2.916   5.421   6.167
18811TIP3   OH277847   6.603   0.886   4.997
18811TIP3    H177848   6.600   0.793   4.978
18811TIP3    H277849   6.526   0.901   5.052
18812TIP3   OH277850   2.367   1.681   1.575
18812TIP3    H177851   2.361   1.679   1.670
18812TIP3    H277852   2.321   1.761   1.550
18813TIP3   OH277853   3.504   1.464   3.521
18813TIP3    H177854   3.541   1.441   3.607
18813TIP3    H277855   3.578   1.499   3.471
18814TIP3   OH277856   3.607   0.875   6.299
18814TIP3    H177857   3.561   0.953   6.271
18814TIP3    H277858   3.654   0.845   6.220
18815TIP3   OH277859   4.947   6.260  16.023
18815TIP3    H177860   4.965   6.341  15.976
18815TIP3    H277861   4.863   6.230  15.988
18816TIP3   OH277862   0.220   1.392   2.940
18816TIP3    H177863   0.255   1.377   3.027
18816TIP3    H277864   0.291   1.367   2.881
18817TIP3   OH277865   5.748   1.922  15.315
18817TIP3    H177866   5.674   1.960  15.267
18817TIP3    H277867   5.820   1.925  15.253
18818TIP3   OH277868   5.889   1.083   0.106
18818TIP3    H177869   5.858   1.037   0.028
18818TIP3    H277870   5.985   1.074   0.102
18819TIP3   OH277871   6.455   1.241   1.774
18819TIP3    H177872   6.407   1.161   1.798
18819TIP3    H277873   6.523   1.211   1.714
18820TIP3   OH277874   3.259   5.135  13.118
18820TIP3    H177875   3.239   5.135  13.212
18820TIP3    H277876   3.181   5.098  13.077
18821TIP3   OH277877   5.626   1.181  12.027
18821TIP3    H177878   5.544   1.229  12.042
18821TIP3    H277879   5.658   1.215  11.943
18822TIP3   OH277880   6.334   2.095   0.409
18822TIP3    H177881   6.296   2.008   0.403
18822TIP3    H277882   6.379   2.096   0.493
18823TIP3   OH277883   1.420   1.423   2.833
18823TIP3    H177884   1.470   1.503   2.846
18823TIP3    H277885   1.482   1.352   2.853
18824TIP3   OH277886   1.861   0.200  15.967
18824TIP3    H177887   1.788   0.244  16.011
18824TIP3    H277888   1.883   0.126  16.023
18825TIP3   OH277889   0.123   2.495  14.801
18825TIP3    H177890   0.164   2.410  14.785
18825TIP3    H277891   0.107   2.497  14.896
18826TIP3   OH277892   3.362   2.999   1.664
18826TIP3    H177893   3.298   3.034   1.727
18826TIP3    H277894   3.310   2.952   1.600
18827TIP3   OH277895   0.428   0.323  13.857
18827TIP3    H177896   0.495   0.386  13.831
18827TIP3    H277897   0.402   0.350  13.946
18828TIP3   OH277898   2.135   5.027  16.771
18828TIP3    H177899   2.041   5.024  16.753
18828TIP3    H277900   2.174   5.061  16.690
18829TIP3   OH277901   5.412   4.340  13.407
18829TIP3    H177902   5.430   4.340  13.313
18829TIP3    H277903   5.472   4.405  13.444
18830TIP3   OH277904   6.562   3.895   3.629
18830TIP3    H177905   6.531   3.806   3.648
18830TIP3    H277906   6.655   3.894   3.652
18831TIP3   OH277907   6.175   5.935  15.501
18831TIP3    H177908   6.178   5.843  15.475
18831TIP3    H277909   6.099   5.941  15.558
18832TIP3   OH277910   5.595   5.960  16.714
18832TIP3    H177911   5.554   6.036  16.673
18832TIP3    H277912   5.605   5.897  16.643
18833TIP3   OH277913   5.044   5.648   4.602
18833TIP3    H177914   5.006   5.580   4.658
18833TIP3    H277915   5.136   5.623   4.592
18834TIP3   OH277916   2.589   0.568  11.285
18834TIP3    H177917   2.564   0.511  11.213
18834TIP3    H277918   2.566   0.519  11.364
18835TIP3   OH277919   1.218   3.534  14.661
18835TIP3    H177920   1.287   3.556  14.599
18835TIP3    H277921   1.217   3.607  14.723
18836TIP3   OH277922   4.457   1.666   0.264
18836TIP3    H177923   4.395   1.684   0.194
18836TIP3    H277924   4.541   1.699   0.232
18837TIP3   OH277925   0.829   3.140   0.053
18837TIP3    H177926   0.739   3.119   0.079
18837TIP3    H277927   0.858   3.064   0.003
18838TIP3   OH277928   2.496   5.971   5.754
18838TIP3    H177929   2.464   6.036   5.692
18838TIP3    H277930   2.573   5.933   5.711
18839TIP3   OH277931   5.475   6.345  11.406
18839TIP3    H177932   5.414   6.408  11.445
18839TIP3    H277933   5.549   6.399  11.378
18840TIP3   OH277934   1.424   3.025   3.324
18840TIP3    H177935   1.384   3.090   3.266
18840TIP3    H277936   1.465   2.962   3.264
18841TIP3   OH277937   3.435   4.098   2.635
18841TIP3    H177938   3.400   4.104   2.724
18841TIP3    H277939   3.501   4.168   2.631
18842TIP3   OH277940   1.639   6.168  13.325
18842TIP3    H177941   1.668   6.197  13.412
18842TIP3    H277942   1.552   6.130  13.341
18843TIP3   OH277943   5.014   6.700  12.265
18843TIP3    H177944   5.010   6.783  12.217
18843TIP3    H277945   5.076   6.646  12.216
18844TIP3   OH277946   4.576   6.072  11.076
18844TIP3    H177947   4.657   6.058  11.028
18844TIP3    H277948   4.584   6.160  11.113
18845TIP3   OH277949   2.708   5.596   2.900
18845TIP3    H177950   2.742   5.508   2.919
18845TIP3    H277951   2.625   5.580   2.855
18846TIP3   OH277952   1.814   4.597  13.351
18846TIP3    H177953   1.907   4.618  13.362
18846TIP3    H277954   1.786   4.569  13.438
18847TIP3   OH277955   1.860   4.223  11.934
18847TIP3    H177956   1.870   4.296  11.872
18847TIP3    H277957   1.882   4.260  12.019
18848TIP3   OH277958   4.355   5.095  16.263
18848TIP3    H177959   4.301   5.151  16.319
18848TIP3    H277960   4.426   5.152  16.234
18849TIP3   OH277961   2.283   0.539  13.881
18849TIP3    H177962   2.333   0.615  13.851
18849TIP3    H277963   2.192   0.568  13.880
18850TIP3   OH277964   0.670   1.839   5.678
18850TIP3    H177965   0.606   1.782   5.637
18850TIP3    H277966   0.734   1.779   5.718
18851TIP3   OH277967   0.261   6.526   0.005
18851TIP3    H177968   0.278   6.608   0.052
18851TIP3    H277969   0.175   6.538  -0.034
18852TIP3   OH277970   1.426   4.216  11.249
18852TIP3    H177971   1.428   4.301  11.205
18852TIP3    H277972   1.476   4.231  11.330
18853TIP3   OH277973   3.315   4.102  15.084
18853TIP3    H177974   3.278   4.140  15.164
18853TIP3    H277975   3.276   4.014  15.080
18854TIP3   OH277976   3.716   4.040  17.133
18854TIP3    H177977   3.757   3.992  17.204
18854TIP3    H277978   3.785   4.049  17.067
18855TIP3   OH277979   6.626   3.719   2.053
18855TIP3    H177980   6.590   3.767   2.127
18855TIP3    H277981   6.717   3.701   2.078
18856TIP3   OH277982   3.385   6.292  15.016
18856TIP3    H177983   3.409   6.306  15.108
18856TIP3    H277984   3.419   6.368  14.970
18857TIP3   OH277985   2.606   2.456   5.559
18857TIP3    H177986   2.611   2.534   5.615
18857TIP3    H277987   2.673   2.470   5.492
18858TIP3   OH277988   0.504   0.884   0.007
18858TIP3    H177989   0.599   0.896   0.012
18858TIP3    H277990   0.473   0.906   0.095
18859TIP3   OH277991   3.859   0.359  11.495
18859TIP3    H177992   3.786   0.315  11.452
18859TIP3    H277993   3.819   0.430  11.544
18860TIP3   OH277994   3.152   5.447  15.200
18860TIP3    H177995   3.098   5.403  15.265
18860TIP3    H277996   3.091   5.475  15.132
18861TIP3   OH277997   4.565   5.223  10.273
18861TIP3    H177998   4.480   5.218  10.229
18861TIP3    H277999   4.552   5.174  10.354
18862TIP3   OH278000   1.351   3.693   0.199
18862TIP3    H178001   1.433   3.713   0.154
18862TIP3    H278002   1.360   3.602   0.227
18863TIP3   OH278003   4.774   3.742   5.986
18863TIP3    H178004   4.869   3.735   5.982
18863TIP3    H278005   4.744   3.704   5.903
18864TIP3   OH278006   2.941   0.250  11.238
18864TIP3    H178007   2.866   0.206  11.199
18864TIP3    H278008   2.914   0.269  11.328
18865TIP3   OH278009   5.270   6.435   2.389
18865TIP3    H178010   5.342   6.372   2.390
18865TIP3    H278011   5.285   6.487   2.310
18866TIP3   OH278012   6.611   3.081   0.127
18866TIP3    H178013   6.689   3.062   0.076
18866TIP3    H278014   6.543   3.097   0.062
18867TIP3   OH278015   6.123   0.181  11.549
18867TIP3    H178016   6.133   0.106  11.608
18867TIP3    H278017   6.036   0.217  11.569
18868TIP3   OH278018   1.080   3.599  16.192
18868TIP3    H178019   1.083   3.694  16.195
18868TIP3    H278020   1.001   3.576  16.240
18869TIP3   OH278021   5.155   0.497  15.568
18869TIP3    H178022   5.133   0.476  15.477
18869TIP3    H278023   5.231   0.442  15.587
18870TIP3   OH278024   5.674   3.110   4.930
18870TIP3    H178025   5.661   3.195   4.887
18870TIP3    H278026   5.714   3.132   5.014
18871TIP3   OH278027   0.431   3.369   2.493
18871TIP3    H178028   0.490   3.295   2.507
18871TIP3    H278029   0.345   3.336   2.518
18872TIP3   OH278030   0.331   3.606  15.286
18872TIP3    H178031   0.273   3.597  15.210
18872TIP3    H278032   0.419   3.599  15.250
18873TIP3   OH278033   4.707   6.545  11.673
18873TIP3    H178034   4.722   6.631  11.711
18873TIP3    H278035   4.632   6.556  11.615
18874TIP3   OH278036   6.678   3.363  13.349
18874TIP3    H178037   6.696   3.337  13.440
18874TIP3    H278038   6.764   3.365  13.308
18875TIP3   OH278039   1.260   0.297  14.446
18875TIP3    H178040   1.269   0.323  14.354
18875TIP3    H278041   1.167   0.276  14.456
18876TIP3   OH278042   3.590   5.810  16.654
18876TIP3    H178043   3.601   5.836  16.746
18876TIP3    H278044   3.607   5.890  16.605
18877TIP3   OH278045   5.552   3.186  13.305
18877TIP3    H178046   5.614   3.251  13.338
18877TIP3    H278047   5.506   3.155  13.383
18878TIP3   OH278048   6.394   5.556   6.446
18878TIP3    H178049   6.332   5.485   6.433
18878TIP3    H278050   6.438   5.535   6.529
18879TIP3   OH278051   2.101   3.659  13.657
18879TIP3    H178052   2.064   3.587  13.708
18879TIP3    H278053   2.026   3.711  13.630
18880TIP3   OH278054   3.241   3.302   4.665
18880TIP3    H178055   3.285   3.274   4.745
18880TIP3    H278056   3.157   3.338   4.695
18881TIP3   OH278057   0.960   3.579   4.269
18881TIP3    H178058   0.928   3.639   4.202
18881TIP3    H278059   1.000   3.635   4.335
18882TIP3   OH278060   1.286   3.491   4.323
18882TIP3    H178061   1.284   3.466   4.416
18882TIP3    H278062   1.198   3.469   4.291
18883TIP3   OH278063   5.130   1.043   2.852
18883TIP3    H178064   5.165   0.986   2.783
18883TIP3    H278065   5.207   1.090   2.886
18884TIP3   OH278066   1.144   4.986   1.813
18884TIP3    H178067   1.120   5.075   1.835
18884TIP3    H278068   1.125   4.978   1.719
18885TIP3   OH278069   3.265   2.617   5.399
18885TIP3    H178070   3.184   2.566   5.393
18885TIP3    H278071   3.250   2.693   5.342
18886TIP3   OH278072   2.443   3.746   4.899
18886TIP3    H178073   2.411   3.713   4.983
18886TIP3    H278074   2.386   3.821   4.880
18887TIP3   OH278075   6.617   4.485  14.709
18887TIP3    H178076   6.651   4.456  14.794
18887TIP3    H278077   6.670   4.562  14.687
18888TIP3   OH278078   1.458   2.140   6.168
18888TIP3    H178079   1.365   2.150   6.188
18888TIP3    H278080   1.495   2.097   6.245
18889TIP3   OH278081   5.484   4.483  15.806
18889TIP3    H178082   5.521   4.405  15.847
18889TIP3    H278083   5.394   4.459  15.786
18890TIP3   OH278084   0.889   1.715   1.633
18890TIP3    H178085   0.819   1.729   1.568
18890TIP3    H278086   0.877   1.624   1.660
18891TIP3   OH278087   5.532   5.600   1.775
18891TIP3    H178088   5.558   5.514   1.742
18891TIP3    H278089   5.520   5.587   1.869
18892TIP3   OH278090   0.555   5.765   1.408
18892TIP3    H178091   0.499   5.697   1.446
18892TIP3    H278092   0.606   5.718   1.341
18893TIP3   OH278093   4.301   1.735   0.050
18893TIP3    H178094   4.327   1.818   0.010
18893TIP3    H278095   4.205   1.737   0.047
18894TIP3   OH278096   3.335   2.738  13.557
18894TIP3    H178097   3.254   2.687  13.564
18894TIP3    H278098   3.362   2.727  13.466
18895TIP3   OH278099   1.670   3.363  15.303
18895TIP3    H178100   1.726   3.324  15.235
18895TIP3    H278101   1.607   3.295  15.324
18896TIP3   OH278102   0.930   5.051   5.960
18896TIP3    H178103   0.912   5.117   6.027
18896TIP3    H278104   0.878   4.975   5.987
18897TIP3   OH278105   4.668   0.177  17.162
18897TIP3    H178106   4.652   0.266  17.194
18897TIP3    H278107   4.756   0.181  17.124
18898TIP3   OH278108   2.882   5.908   2.265
18898TIP3    H178109   2.881   5.824   2.312
18898TIP3    H278110   2.851   5.971   2.330
18899TIP3   OH278111   3.955   1.805  11.570
18899TIP3    H178112   3.908   1.884  11.595
18899TIP3    H278113   3.980   1.820  11.479
18900TIP3   OH278114   4.225   0.863   2.758
18900TIP3    H178115   4.199   0.810   2.834
18900TIP3    H278116   4.217   0.953   2.788
18901TIP3   OH278117   1.228   6.464   1.159
18901TIP3    H178118   1.235   6.556   1.130
18901TIP3    H278119   1.143   6.459   1.203
18902TIP3   OH278120   5.081   3.731  11.145
18902TIP3    H178121   5.110   3.764  11.230
18902TIP3    H278122   5.124   3.646  11.136
18903TIP3   OH278123   2.229   1.641   0.599
18903TIP3    H178124   2.177   1.593   0.664
18903TIP3    H278125   2.210   1.598   0.516
18904TIP3   OH278126   2.810   3.100  15.142
18904TIP3    H178127   2.787   3.160  15.212
18904TIP3    H278128   2.797   3.150  15.062
18905TIP3   OH278129   1.691   3.966  14.866
18905TIP3    H178130   1.609   4.013  14.886
18905TIP3    H278131   1.757   4.008  14.922
18906TIP3   OH278132   6.507   5.093   0.754
18906TIP3    H178133   6.503   5.041   0.673
18906TIP3    H278134   6.598   5.123   0.759
18907TIP3   OH278135   6.593   4.028   2.650
18907TIP3    H178136   6.579   3.935   2.633
18907TIP3    H278137   6.568   4.071   2.569
18908TIP3   OH278138   5.000   4.953  16.975
18908TIP3    H178139   4.932   5.020  16.968
18908TIP3    H278140   5.000   4.911  16.889
18909TIP3   OH278141   6.097   5.922   5.017
18909TIP3    H178142   6.056   5.997   4.976
18909TIP3    H278143   6.087   5.937   5.111
18910TIP3   OH278144   0.840   6.132  12.006
18910TIP3    H178145   0.798   6.046  11.994
18910TIP3    H278146   0.888   6.124  12.088
18911TIP3   OH278147   6.425   3.425  14.381
18911TIP3    H178148   6.396   3.349  14.433
18911TIP3    H278149   6.503   3.394  14.336
18912TIP3   OH278150   5.869   6.428   4.134
18912TIP3    H178151   5.860   6.395   4.224
18912TIP3    H278152   5.957   6.466   4.131
18913TIP3   OH278153   2.221   1.951  16.185
18913TIP3    H178154   2.247   2.021  16.246
18913TIP3    H278155   2.125   1.950  16.190
18914TIP3   OH278156   3.490   3.697  14.736
18914TIP3    H178157   3.401   3.691  14.702
18914TIP3    H278158   3.484   3.757  14.811
18915TIP3   OH278159   1.683   6.470   3.515
18915TIP3    H178160   1.714   6.486   3.604
18915TIP3    H278161   1.589   6.453   3.525
18916TIP3   OH278162   5.552   4.479  16.216
18916TIP3    H178163   5.638   4.457  16.180
18916TIP3    H278164   5.547   4.574  16.211
18917TIP3   OH278165   1.678   4.643   4.938
18917TIP3    H178166   1.666   4.738   4.946
18917TIP3    H278167   1.605   4.605   4.988
18918TIP3   OH278168   4.209   2.016   0.517
18918TIP3    H178169   4.133   1.973   0.477
18918TIP3    H278170   4.280   1.952   0.507
18919TIP3   OH278171   4.375   3.956  13.306
18919TIP3    H178172   4.422   3.919  13.380
18919TIP3    H278173   4.298   3.900  13.297
18920TIP3   OH278174   6.110   0.647   3.020
18920TIP3    H178175   6.108   0.583   3.091
18920TIP3    H278176   6.038   0.620   2.962
18921TIP3   OH278177   5.974   3.752  16.786
18921TIP3    H178178   6.042   3.810  16.753
18921TIP3    H278179   6.016   3.702  16.855
18922TIP3   OH278180   2.536   2.950  15.899
18922TIP3    H178181   2.532   2.858  15.874
18922TIP3    H278182   2.464   2.991  15.851
18923TIP3   OH278183   4.537   6.444   4.736
18923TIP3    H178184   4.516   6.351   4.741
18923TIP3    H278185   4.525   6.476   4.826
18924TIP3   OH278186   4.138   4.788   3.097
18924TIP3    H178187   4.173   4.740   3.172
18924TIP3    H278188   4.067   4.841   3.133
18925TIP3   OH278189   4.072   6.442  13.416
18925TIP3    H178190   4.116   6.514  13.371
18925TIP3    H278191   4.023   6.484  13.487
18926TIP3   OH278192   0.168   5.804  12.597
18926TIP3    H178193   0.208   5.763  12.674
18926TIP3    H278194   0.130   5.885  12.629
18927TIP3   OH278195   4.389   4.359  11.881
18927TIP3    H178196   4.337   4.404  11.947
18927TIP3    H278197   4.351   4.386  11.798
18928TIP3   OH278198   1.589   0.124   5.506
18928TIP3    H178199   1.535   0.164   5.574
18928TIP3    H278200   1.542   0.143   5.424
18929TIP3   OH278201   1.636   6.561   4.814
18929TIP3    H178202   1.661   6.595   4.900
18929TIP3    H278203   1.712   6.578   4.759
18930TIP3   OH278204   1.101   3.562   4.916
18930TIP3    H178205   1.176   3.600   4.961
18930TIP3    H278206   1.068   3.632   4.860
18931TIP3   OH278207   6.225   2.930  14.262
18931TIP3    H178208   6.280   2.854  14.278
18931TIP3    H278209   6.282   2.993  14.218
18932TIP3   OH278210   1.315   0.111  10.646
18932TIP3    H178211   1.302   0.110  10.551
18932TIP3    H278212   1.407   0.137  10.657
18933TIP3   OH278213   1.801   5.448  15.518
18933TIP3    H178214   1.774   5.400  15.440
18933TIP3    H278215   1.896   5.447  15.516
18934TIP3   OH278216   6.405   0.621   3.158
18934TIP3    H178217   6.424   0.530   3.135
18934TIP3    H278218   6.310   0.623   3.169
18935TIP3   OH278219   0.987   6.581  14.768
18935TIP3    H178220   0.907   6.537  14.794
18935TIP3    H278221   0.958   6.665  14.731
18936TIP3   OH278222   1.095   1.814  14.881
18936TIP3    H178223   1.088   1.766  14.799
18936TIP3    H278224   1.180   1.858  14.876
18937TIP3   OH278225   6.581   0.128  15.063
18937TIP3    H178226   6.492   0.096  15.049
18937TIP3    H278227   6.575   0.223  15.048
18938TIP3   OH278228   0.517   3.182  16.929
18938TIP3    H178229   0.475   3.264  16.907
18938TIP3    H278230   0.595   3.179  16.874
18939TIP3   OH278231   2.095   6.620  13.301
18939TIP3    H178232   2.062   6.693  13.354
18939TIP3    H278233   2.190   6.632  13.300
18940TIP3   OH278234   2.884   0.020   0.896
18940TIP3    H178235   2.835   0.092   0.857
18940TIP3    H278236   2.872  -0.053   0.834
18941TIP3   OH278237   4.176   3.283   4.098
18941TIP3    H178238   4.158   3.376   4.110
18941TIP3    H278239   4.231   3.279   4.019
18942TIP3   OH278240   1.921   6.037  15.110
18942TIP3    H178241   1.867   6.029  15.188
18942TIP3    H278242   1.873   5.989  15.043
18943TIP3   OH278243   5.064   1.754  10.660
18943TIP3    H178244   5.026   1.801  10.735
18943TIP3    H278245   4.999   1.763  10.591
18944TIP3   OH278246   1.677   5.248   1.870
18944TIP3    H178247   1.676   5.164   1.824
18944TIP3    H278248   1.590   5.284   1.857
18945TIP3   OH278249   6.409   4.552  13.161
18945TIP3    H178250   6.439   4.617  13.098
18945TIP3    H278251   6.314   4.568  13.167
18946TIP3   OH278252   2.882   4.073  17.082
18946TIP3    H178253   2.893   3.995  17.137
18946TIP3    H278254   2.888   4.146  17.143
18947TIP3   OH278255   6.248   2.730  16.644
18947TIP3    H178256   6.298   2.785  16.703
18947TIP3    H278257   6.159   2.733  16.679
18948TIP3   OH278258   4.280   3.897  17.175
18948TIP3    H178259   4.267   3.981  17.219
18948TIP3    H278260   4.237   3.908  17.090
18949TIP3   OH278261   5.537   4.589  11.725
18949TIP3    H178262   5.554   4.497  11.706
18949TIP3    H278263   5.474   4.587  11.797
18950TIP3   OH278264   3.298   1.723   3.789
18950TIP3    H178265   3.333   1.808   3.815
18950TIP3    H278266   3.229   1.705   3.852
18951TIP3   OH278267   4.026   0.946   2.967
18951TIP3    H178268   4.052   0.857   2.941
18951TIP3    H278269   3.980   0.933   3.050
18952TIP3   OH278270   4.788   2.044   1.067
18952TIP3    H178271   4.839   2.126   1.066
18952TIP3    H278272   4.844   1.982   1.113
18953TIP3   OH278273   6.109   4.057   0.856
18953TIP3    H178274   6.174   4.058   0.926
18953TIP3    H278275   6.056   3.979   0.873
18954TIP3   OH278276   4.423   2.160  13.945
18954TIP3    H178277   4.375   2.096  13.997
18954TIP3    H278278   4.515   2.148  13.971
18955TIP3   OH278279   0.384   6.566   1.544
18955TIP3    H178280   0.431   6.593   1.465
18955TIP3    H278281   0.394   6.471   1.546
18956TIP3   OH278282   0.477   2.603   4.733
18956TIP3    H178283   0.382   2.597   4.725
18956TIP3    H278284   0.491   2.648   4.817
18957TIP3   OH278285   6.188   5.895   6.068
18957TIP3    H178286   6.214   5.841   6.143
18957TIP3    H278287   6.093   5.883   6.063
18958TIP3   OH278288   4.825   3.298  12.346
18958TIP3    H178289   4.743   3.291  12.395
18958TIP3    H278290   4.852   3.389  12.360
18959TIP3   OH278291   0.735   4.160  16.975
18959TIP3    H178292   0.754   4.252  16.993
18959TIP3    H278293   0.743   4.117  17.060
18960TIP3   OH278294   5.709   2.479   3.561
18960TIP3    H178295   5.712   2.526   3.645
18960TIP3    H278296   5.749   2.394   3.580
18961TIP3   OH278297   2.720   6.272   2.110
18961TIP3    H178298   2.793   6.241   2.055
18961TIP3    H278299   2.752   6.353   2.149
18962TIP3   OH278300   2.771   0.846   0.078
18962TIP3    H178301   2.781   0.912   0.010
18962TIP3    H278302   2.751   0.896   0.158
18963TIP3   OH278303   4.838   2.377  17.210
18963TIP3    H178304   4.780   2.433  17.158
18963TIP3    H278305   4.780   2.335  17.273
18964TIP3   OH278306   3.811   3.801   1.263
18964TIP3    H178307   3.871   3.800   1.338
18964TIP3    H278308   3.826   3.887   1.222
18965TIP3   OH278309   0.329   5.371   6.694
18965TIP3    H178310   0.303   5.437   6.630
18965TIP3    H278311   0.291   5.289   6.662
18966TIP3   OH278312   3.016   2.896  13.285
18966TIP3    H178313   2.930   2.927  13.314
18966TIP3    H278314   3.071   2.975  13.286
18967TIP3   OH278315   2.179   1.051   2.301
18967TIP3    H178316   2.096   1.094   2.278
18967TIP3    H278317   2.159   1.003   2.381
18968TIP3   OH278318   2.322   1.376  11.773
18968TIP3    H178319   2.384   1.317  11.730
18968TIP3    H278320   2.263   1.317  11.821
18969TIP3   OH278321   0.315   6.436  11.888
18969TIP3    H178322   0.258   6.445  11.812
18969TIP3    H278323   0.255   6.433  11.963
18970TIP3   OH278324   2.408   2.594  15.233
18970TIP3    H178325   2.398   2.688  15.217
18970TIP3    H278326   2.498   2.585  15.266
18971TIP3   OH278327   5.796   1.535   4.545
18971TIP3    H178328   5.840   1.571   4.622
18971TIP3    H278329   5.706   1.567   4.552
18972TIP3   OH278330   0.478   1.045   3.146
18972TIP3    H178331   0.574   1.042   3.147
18972TIP3    H278332   0.452   0.966   3.099
18973TIP3   OH278333   0.055   6.332   2.627
18973TIP3    H178334  -0.006   6.405   2.643
18973TIP3    H278335   0.119   6.367   2.565
18974TIP3   OH278336   4.592   6.006  16.517
18974TIP3    H178337   4.628   6.055  16.590
18974TIP3    H278338   4.617   5.915  16.534
18975TIP3   OH278339   5.041   1.108   3.895
18975TIP3    H178340   5.044   1.203   3.903
18975TIP3    H278341   4.950   1.086   3.912
18976TIP3   OH278342   4.424   6.540  14.617
18976TIP3    H178343   4.471   6.462  14.645
18976TIP3    H278344   4.492   6.604  14.597
18977TIP3   OH278345   0.858   3.398   4.655
18977TIP3    H178346   0.845   3.411   4.561
18977TIP3    H278347   0.794   3.457   4.696
18978TIP3   OH278348   5.185   4.350  15.343
18978TIP3    H178349   5.195   4.367  15.250
18978TIP3    H278350   5.196   4.255  15.352
18979TIP3   OH278351   1.448   1.933   2.856
18979TIP3    H178352   1.420   2.009   2.805
18979TIP3    H278353   1.379   1.921   2.921
18980TIP3   OH278354   5.886   3.964   3.186
18980TIP3    H178355   5.922   3.878   3.205
18980TIP3    H278356   5.844   3.955   3.101
18981TIP3   OH278357   5.672   6.077   3.006
18981TIP3    H178358   5.716   6.048   3.086
18981TIP3    H278359   5.637   6.164   3.028
18982TIP3   OH278360   5.099   3.296   2.018
18982TIP3    H178361   5.154   3.358   2.067
18982TIP3    H278362   5.105   3.326   1.927
18983TIP3   OH278363   5.958   5.222  12.342
18983TIP3    H178364   5.977   5.312  12.368
18983TIP3    H278365   5.913   5.230  12.258
18984TIP3   OH278366   5.396   0.973  11.670
18984TIP3    H178367   5.486   0.943  11.655
18984TIP3    H278368   5.348   0.945  11.591
18985TIP3   OH278369   3.223   1.129  16.982
18985TIP3    H178370   3.210   1.132  17.077
18985TIP3    H278371   3.182   1.208  16.949
18986TIP3   OH278372   4.810   0.250  14.610
18986TIP3    H178373   4.809   0.302  14.530
18986TIP3    H278374   4.795   0.314  14.680
18987TIP3   OH278375   3.470   1.044   1.947
18987TIP3    H178376   3.517   0.997   1.878
18987TIP3    H278377   3.457   1.132   1.911
18988TIP3   OH278378   3.875   2.750  12.065
18988TIP3    H178379   3.885   2.834  12.109
18988TIP3    H278380   3.788   2.720  12.090
18989TIP3   OH278381   2.979   4.412  16.498
18989TIP3    H178382   3.064   4.368  16.497
18989TIP3    H278383   2.954   4.416  16.590
18990TIP3   OH278384   6.575   5.885  13.541
18990TIP3    H178385   6.600   5.960  13.487
18990TIP3    H278386   6.577   5.810  13.482
18991TIP3   OH278387   6.531   2.144   4.913
18991TIP3    H178388   6.516   2.162   4.820
18991TIP3    H278389   6.504   2.053   4.924
18992TIP3   OH278390   2.929   2.106  11.920
18992TIP3    H178391   2.867   2.033  11.925
18992TIP3    H278392   2.925   2.135  11.829
18993TIP3   OH278393   1.234   4.092   5.943
18993TIP3    H178394   1.293   4.033   5.990
18993TIP3    H278395   1.149   4.049   5.948
18994TIP3   OH278396   4.686   0.092   5.519
18994TIP3    H178397   4.651   0.034   5.451
18994TIP3    H278398   4.693   0.037   5.597
18995TIP3   OH278399   0.522   6.232   2.968
18995TIP3    H178400   0.446   6.235   2.910
18995TIP3    H278401   0.490   6.188   3.047
18996TIP3   OH278402   5.042   3.293  11.522
18996TIP3    H178403   5.063   3.213  11.473
18996TIP3    H278404   5.108   3.357  11.494
18997TIP3   OH278405   6.499   1.193  13.988
18997TIP3    H178406   6.535   1.279  13.965
18997TIP3    H278407   6.565   1.131  13.959
18998TIP3   OH278408   3.793   3.257  13.331
18998TIP3    H178409   3.735   3.253  13.407
18998TIP3    H278410   3.837   3.172  13.329
18999TIP3   OH278411   0.625   0.299   2.120
18999TIP3    H178412   0.655   0.389   2.109
18999TIP3    H278413   0.700   0.254   2.160
19000TIP3   OH278414   5.598   2.116  12.538
19000TIP3    H178415   5.556   2.088  12.620
19000TIP3    H278416   5.529   2.110  12.472
19001TIP3   OH278417   1.354   4.080   2.351
19001TIP3    H178418   1.303   4.147   2.306
19001TIP3    H278419   1.392   4.028   2.280
19002TIP3   OH278420   6.219   3.005   5.521
19002TIP3    H178421   6.168   3.059   5.582
19002TIP3    H278422   6.173   3.014   5.437
19003TIP3   OH278423   6.177   1.506   4.528
19003TIP3    H178424   6.202   1.438   4.591
19003TIP3    H278425   6.097   1.544   4.565
19004TIP3   OH278426   3.335   1.796   4.708
19004TIP3    H178427   3.416   1.772   4.662
19004TIP3    H278428   3.353   1.778   4.800
19005TIP3   OH278429   1.491   3.617  16.625
19005TIP3    H178430   1.580   3.599  16.595
19005TIP3    H278431   1.448   3.656  16.550
19006TIP3   OH278432   2.282   6.500   1.083
19006TIP3    H178433   2.255   6.558   1.154
19006TIP3    H278434   2.200   6.461   1.051
19007TIP3   OH278435   3.699   1.031   2.744
19007TIP3    H178436   3.691   0.994   2.656
19007TIP3    H278437   3.610   1.054   2.769
19008TIP3   OH278438   1.946   3.685   1.840
19008TIP3    H178439   1.978   3.759   1.891
19008TIP3    H278440   2.025   3.642   1.807
19009TIP3   OH278441   3.650   1.077  13.829
19009TIP3    H178442   3.712   1.145  13.853
19009TIP3    H278443   3.596   1.065  13.907
19010TIP3   OH278444   6.669   1.112  14.894
19010TIP3    H178445   6.649   1.182  14.831
19010TIP3    H278446   6.764   1.106  14.893
19011TIP3   OH278447   0.917   3.276  15.164
19011TIP3    H178448   0.832   3.273  15.208
19011TIP3    H278449   0.896   3.275  15.070
19012TIP3   OH278450   3.249   2.779   2.283
19012TIP3    H178451   3.295   2.757   2.364
19012TIP3    H278452   3.319   2.791   2.219
19013TIP3   OH278453   5.929   6.067  12.971
19013TIP3    H178454   5.902   6.157  12.957
19013TIP3    H278455   6.002   6.073  13.032
19014TIP3   OH278456   2.496   1.197  12.186
19014TIP3    H178457   2.513   1.268  12.248
19014TIP3    H278458   2.580   1.182  12.143
19015TIP3   OH278459   5.262   3.275   3.043
19015TIP3    H178460   5.357   3.268   3.042
19015TIP3    H278461   5.234   3.232   2.962
19016TIP3   OH278462   2.915   4.572   0.119
19016TIP3    H178463   3.006   4.558   0.144
19016TIP3    H278464   2.865   4.515   0.178
19017TIP3   OH278465   4.772   0.464  14.808
19017TIP3    H178466   4.817   0.531  14.755
19017TIP3    H278467   4.679   0.486  14.800
19018TIP3   OH278468   0.568   2.437   0.331
19018TIP3    H178469   0.660   2.464   0.327
19018TIP3    H278470   0.520   2.518   0.347
19019TIP3   OH278471   5.218   6.659  11.188
19019TIP3    H178472   5.174   6.588  11.236
19019TIP3    H278473   5.157   6.682  11.118
19020TIP3   OH278474   4.229   3.829  13.635
19020TIP3    H178475   4.141   3.827  13.670
19020TIP3    H278476   4.275   3.895  13.687
19021TIP3   OH278477   5.838   4.128  13.076
19021TIP3    H178478   5.789   4.176  13.144
19021TIP3    H278479   5.786   4.140  12.997
19022TIP3   OH278480   6.552   4.877   3.253
19022TIP3    H178481   6.556   4.968   3.282
19022TIP3    H278482   6.603   4.875   3.172
19023TIP3   OH278483   0.569   4.936   4.282
19023TIP3    H178484   0.634   4.936   4.352
19023TIP3    H278485   0.622   4.929   4.202
19024TIP3   OH278486   0.937   1.375   4.796
19024TIP3    H178487   0.890   1.413   4.870
19024TIP3    H278488   1.030   1.387   4.818
19025TIP3   OH278489   4.361   6.687   5.148
19025TIP3    H178490   4.301   6.708   5.076
19025TIP3    H278491   4.306   6.644   5.214
19026TIP3   OH278492   0.974   2.307  15.492
19026TIP3    H178493   1.002   2.340  15.577
19026TIP3    H278494   1.031   2.232  15.475
19027TIP3   OH278495   4.383   2.733  16.492
19027TIP3    H178496   4.464   2.783  16.504
19027TIP3    H278497   4.323   2.796  16.452
19028TIP3   OH278498   2.595   6.319   4.752
19028TIP3    H178499   2.535   6.269   4.696
19028TIP3    H278500   2.542   6.393   4.783
19029TIP3   OH278501   2.915   4.667  12.680
19029TIP3    H178502   2.976   4.606  12.639
19029TIP3    H278503   2.837   4.664  12.625
19030TIP3   OH278504   3.571   5.905  15.792
19030TIP3    H178505   3.586   5.999  15.780
19030TIP3    H278506   3.651   5.864  15.759
19031TIP3   OH278507   4.007   5.150   1.467
19031TIP3    H178508   4.097   5.159   1.500
19031TIP3    H278509   3.955   5.204   1.526
19032TIP3   OH278510   0.686   3.207  12.060
19032TIP3    H178511   0.667   3.135  12.000
19032TIP3    H278512   0.704   3.282  12.003
19033TIP3   OH278513   5.726   1.652   1.895
19033TIP3    H178514   5.716   1.729   1.951
19033TIP3    H278515   5.790   1.678   1.829
19034TIP3   OH278516   2.909   4.093  16.644
19034TIP3    H178517   2.942   4.183  16.643
19034TIP3    H278518   2.910   4.066  16.552
19035TIP3   OH278519   2.671   1.644  16.923
19035TIP3    H178520   2.636   1.609  17.005
19035TIP3    H278521   2.707   1.568  16.878
19036TIP3   OH278522   3.654   3.092  15.156
19036TIP3    H178523   3.735   3.067  15.112
19036TIP3    H278524   3.660   3.052  15.243
19037TIP3   OH278525   6.531   1.878   5.461
19037TIP3    H178526   6.470   1.934   5.413
19037TIP3    H278527   6.596   1.939   5.497
19038TIP3   OH278528   0.937   5.718   0.585
19038TIP3    H178529   0.849   5.699   0.618
19038TIP3    H278530   0.977   5.773   0.652
19039TIP3   OH278531   0.729   4.539  17.213
19039TIP3    H178532   0.749   4.619  17.166
19039TIP3    H278533   0.634   4.543  17.228
19040TIP3   OH278534   3.101   0.910   4.477
19040TIP3    H178535   3.086   0.838   4.537
19040TIP3    H278536   3.176   0.883   4.425
19041TIP3   OH278537   2.887   2.763   6.107
19041TIP3    H178538   2.834   2.833   6.146
19041TIP3    H278539   2.919   2.801   6.025
19042TIP3   OH278540   3.209   6.526   3.616
19042TIP3    H178541   3.204   6.588   3.689
19042TIP3    H278542   3.133   6.469   3.628
19043TIP3   OH278543   6.642   2.206  16.677
19043TIP3    H178544   6.659   2.143  16.747
19043TIP3    H278545   6.572   2.261  16.710
19044TIP3   OH278546   5.184   6.180  14.713
19044TIP3    H178547   5.216   6.200  14.625
19044TIP3    H278548   5.244   6.113  14.745
19045TIP3   OH278549   6.198   5.179  15.779
19045TIP3    H178550   6.203   5.210  15.869
19045TIP3    H278551   6.169   5.088  15.785
19046TIP3   OH278552   0.275   0.565   4.365
19046TIP3    H178553   0.185   0.595   4.382
19046TIP3    H278554   0.281   0.481   4.410
19047TIP3   OH278555   3.123   0.885  15.852
19047TIP3    H178556   3.130   0.841  15.937
19047TIP3    H278557   3.194   0.948  15.851
19048TIP3   OH278558   5.016   0.654  15.050
19048TIP3    H178559   4.945   0.717  15.040
19048TIP3    H278560   4.973   0.575  15.084
19049TIP3   OH278561   4.359   1.253   5.290
19049TIP3    H178562   4.341   1.347   5.285
19049TIP3    H278563   4.376   1.237   5.383
19050TIP3   OH278564   2.010   3.999   0.988
19050TIP3    H178565   1.949   4.035   1.053
19050TIP3    H278566   1.955   3.944   0.932
19051TIP3   OH278567   4.387   1.765  12.322
19051TIP3    H178568   4.472   1.768  12.277
19051TIP3    H278569   4.408   1.737  12.411
19052TIP3   OH278570   2.424   1.151  11.673
19052TIP3    H178571   2.413   1.138  11.579
19052TIP3    H278572   2.359   1.093  11.713
19053TIP3   OH278573   6.408   4.946   5.904
19053TIP3    H178574   6.421   4.975   5.995
19053TIP3    H278575   6.488   4.897   5.883
19054TIP3   OH278576   4.894   2.583  13.640
19054TIP3    H178577   4.893   2.652  13.574
19054TIP3    H278578   4.943   2.512  13.599
19055TIP3   OH278579   1.354   4.464  12.734
19055TIP3    H178580   1.431   4.406  12.733
19055TIP3    H278581   1.290   4.419  12.788
19056TIP3   OH278582   5.813   5.744   4.450
19056TIP3    H178583   5.892   5.754   4.503
19056TIP3    H278584   5.821   5.657   4.412
19057TIP3   OH278585   4.153   5.618  11.814
19057TIP3    H178586   4.084   5.684  11.819
19057TIP3    H278587   4.212   5.639  11.886
19058TIP3   OH278588   0.089   3.504  13.836
19058TIP3    H178589   0.149   3.432  13.814
19058TIP3    H278590   0.147   3.574  13.866
19059TIP3   OH278591   2.382   5.932  16.577
19059TIP3    H178592   2.404   5.839  16.571
19059TIP3    H278593   2.395   5.965  16.488
19060TIP3   OH278594   1.235   1.930   3.016
19060TIP3    H178595   1.187   2.011   3.029
19060TIP3    H278596   1.168   1.862   3.014
19061TIP3   OH278597   2.185   5.404   6.777
19061TIP3    H178598   2.140   5.488   6.772
19061TIP3    H278599   2.152   5.354   6.702
19062TIP3   OH278600   0.596   2.226   1.151
19062TIP3    H178601   0.543   2.148   1.168
19062TIP3    H278602   0.612   2.264   1.237
19063TIP3   OH278603   0.210   4.367  13.131
19063TIP3    H178604   0.209   4.280  13.170
19063TIP3    H278605   0.209   4.427  13.206
19064TIP3   OH278606   4.503   0.077  14.243
19064TIP3    H178607   4.447   0.035  14.307
19064TIP3    H278608   4.513   0.166  14.275
19065TIP3   OH278609   3.438   0.138  14.109
19065TIP3    H178610   3.524   0.179  14.111
19065TIP3    H278611   3.454   0.050  14.075
19066TIP3   OH278612   1.448   4.063  15.029
19066TIP3    H178613   1.425   4.002  15.099
19066TIP3    H278614   1.476   4.142  15.074
19067TIP3   OH278615   5.184   0.850  12.470
19067TIP3    H178616   5.111   0.905  12.497
19067TIP3    H278617   5.179   0.772  12.525
19068TIP3   OH278618   4.685   6.252  11.903
19068TIP3    H178619   4.674   6.184  11.969
19068TIP3    H278620   4.599   6.295  11.898
19069TIP3   OH278621   6.594   5.085   4.650
19069TIP3    H178622   6.683   5.119   4.661
19069TIP3    H278623   6.579   5.033   4.729
19070TIP3   OH278624   0.343   1.639   2.982
19070TIP3    H178625   0.292   1.645   3.062
19070TIP3    H278626   0.312   1.558   2.940
19071TIP3   OH278627   1.271   1.080  14.397
19071TIP3    H178628   1.308   0.996  14.426
19071TIP3    H278629   1.337   1.117  14.340
19072TIP3   OH278630   5.168   0.010  17.003
19072TIP3    H178631   5.218   0.020  17.084
19072TIP3    H278632   5.227  -0.037  16.944
19073TIP3   OH278633   5.051   5.241  11.861
19073TIP3    H178634   5.053   5.307  11.792
19073TIP3    H278635   5.058   5.157  11.814
19074TIP3   OH278636   4.113   4.595   0.045
19074TIP3    H178637   4.081   4.678   0.008
19074TIP3    H278638   4.190   4.573  -0.008
19075TIP3   OH278639   2.456   2.908   1.007
19075TIP3    H178640   2.482   2.891   1.097
19075TIP3    H278641   2.405   2.831   0.981
19076TIP3   OH278642   6.485   3.712   5.932
19076TIP3    H178643   6.482   3.689   6.025
19076TIP3    H278644   6.410   3.667   5.894
19077TIP3   OH278645   4.458   0.855   2.949
19077TIP3    H178646   4.529   0.829   2.890
19077TIP3    H278647   4.462   0.791   3.020
19078TIP3   OH278648   6.775   2.504  16.614
19078TIP3    H178649   6.844   2.460  16.664
19078TIP3    H278650   6.822   2.554  16.547
19079TIP3   OH278651   1.404   3.475  12.350
19079TIP3    H178652   1.413   3.386  12.382
19079TIP3    H278653   1.327   3.473  12.294
19080TIP3   OH278654   2.062   3.644  11.321
19080TIP3    H178655   2.115   3.564  11.325
19080TIP3    H278656   2.076   3.686  11.405
19081TIP3   OH278657   4.207   1.192   1.669
19081TIP3    H178658   4.138   1.245   1.706
19081TIP3    H278659   4.254   1.156   1.745
19082TIP3   OH278660   3.950   1.645   5.527
19082TIP3    H178661   3.992   1.560   5.542
19082TIP3    H278662   3.857   1.627   5.535
19083TIP3   OH278663   4.577   1.995   2.399
19083TIP3    H178664   4.621   1.966   2.320
19083TIP3    H278665   4.582   1.921   2.459
19084TIP3   OH278666   2.091   5.868  13.905
19084TIP3    H178667   2.120   5.843  13.818
19084TIP3    H278668   2.113   5.793  13.960
19085TIP3   OH278669   0.824   0.337   0.260
19085TIP3    H178670   0.891   0.354   0.194
19085TIP3    H278671   0.772   0.417   0.263
19086TIP3   OH278672   4.909   2.246   4.169
19086TIP3    H178673   4.996   2.283   4.158
19086TIP3    H278674   4.851   2.308   4.124
19087TIP3   OH278675   3.309   0.971   2.170
19087TIP3    H178676   3.376   1.001   2.108
19087TIP3    H278677   3.227   1.008   2.136
19088TIP3   OH278678   4.665   5.015  16.200
19088TIP3    H178679   4.761   5.004  16.202
19088TIP3    H278680   4.648   5.078  16.270
19089TIP3   OH278681   4.576   3.351   0.937
19089TIP3    H178682   4.618   3.404   1.004
19089TIP3    H278683   4.511   3.299   0.983
19090TIP3   OH278684   1.135   1.183  10.942
19090TIP3    H178685   1.053   1.231  10.934
19090TIP3    H278686   1.119   1.118  11.011
19091TIP3   OH278687   0.579   4.570   5.414
19091TIP3    H178688   0.567   4.507   5.484
19091TIP3    H278689   0.671   4.595   5.418
19092TIP3   OH278690   4.084   2.423   2.859
19092TIP3    H178691   4.165   2.438   2.811
19092TIP3    H278692   4.088   2.331   2.886
19093TIP3   OH278693   6.169   1.180  14.311
19093TIP3    H178694   6.260   1.202  14.288
19093TIP3    H278695   6.131   1.149  14.229
19094TIP3   OH278696   1.914   1.678   4.266
19094TIP3    H178697   1.956   1.682   4.180
19094TIP3    H278698   1.883   1.588   4.274
19095TIP3   OH278699   5.521   0.870  16.669
19095TIP3    H178700   5.517   0.964  16.653
19095TIP3    H278701   5.531   0.862  16.764
19096TIP3   OH278702   1.493   1.240   4.857
19096TIP3    H178703   1.462   1.299   4.787
19096TIP3    H278704   1.503   1.155   4.813
19097TIP3   OH278705   0.083   4.940   5.518
19097TIP3    H178706   0.161   4.935   5.573
19097TIP3    H278707   0.039   4.856   5.532
19098TIP3   OH278708   5.077   1.879   5.663
19098TIP3    H178709   5.041   1.855   5.748
19098TIP3    H278710   5.136   1.952   5.681
19099TIP3   OH278711   4.820   4.590   1.630
19099TIP3    H178712   4.769   4.662   1.593
19099TIP3    H278713   4.853   4.542   1.555
19100TIP3   OH278714   6.563   4.308  12.006
19100TIP3    H178715   6.533   4.343  11.922
19100TIP3    H278716   6.489   4.257  12.039
19101TIP3   OH278717   1.956   3.279   1.236
19101TIP3    H178718   2.024   3.268   1.169
19101TIP3    H278719   1.878   3.238   1.199
19102TIP3   OH278720   1.414   6.721  16.385
19102TIP3    H178721   1.334   6.674  16.360
19102TIP3    H278722   1.384   6.787  16.447
19103TIP3   OH278723   0.830   3.114  14.794
19103TIP3    H178724   0.849   3.202  14.827
19103TIP3    H278725   0.736   3.105  14.805
19104TIP3   OH278726   5.404   4.174  15.095
19104TIP3    H178727   5.456   4.247  15.061
19104TIP3    H278728   5.429   4.168  15.187
19105TIP3   OH278729   3.495   3.585  13.535
19105TIP3    H178730   3.583   3.549  13.519
19105TIP3    H278731   3.436   3.528  13.486
19106TIP3   OH278732   1.250   6.249   1.884
19106TIP3    H178733   1.176   6.232   1.942
19106TIP3    H278734   1.290   6.163   1.870
19107TIP3   OH278735   1.830   2.106   3.504
19107TIP3    H178736   1.744   2.068   3.519
19107TIP3    H278737   1.818   2.199   3.519
19108TIP3   OH278738   4.632   3.845  11.306
19108TIP3    H178739   4.685   3.815  11.232
19108TIP3    H278740   4.544   3.856  11.270
19109TIP3   OH278741   4.621   0.259  11.592
19109TIP3    H178742   4.623   0.352  11.571
19109TIP3    H278743   4.700   0.243  11.643
19110TIP3   OH278744   2.165   6.682   5.527
19110TIP3    H178745   2.088   6.626   5.514
19110TIP3    H278746   2.189   6.710   5.438
19111TIP3   OH278747   4.531   4.920  10.681
19111TIP3    H178748   4.590   4.882  10.615
19111TIP3    H278749   4.465   4.852  10.696
19112TIP3   OH278750   2.828   3.688  16.910
19112TIP3    H178751   2.874   3.610  16.877
19112TIP3    H278752   2.882   3.762  16.880
19113TIP3   OH278753   1.110   5.279   3.557
19113TIP3    H178754   1.134   5.249   3.645
19113TIP3    H278755   1.162   5.358   3.544
19114TIP3   OH278756   5.179   4.227  14.186
19114TIP3    H178757   5.229   4.300  14.151
19114TIP3    H278758   5.101   4.266  14.225
19115TIP3   OH278759   1.122   5.400   1.374
19115TIP3    H178760   1.213   5.427   1.381
19115TIP3    H278761   1.072   5.481   1.383
19116TIP3   OH278762   1.085   3.464   3.651
19116TIP3    H178763   1.116   3.382   3.613
19116TIP3    H278764   1.132   3.471   3.734
19117TIP3   OH278765   3.818   3.684  14.783
19117TIP3    H178766   3.745   3.668  14.724
19117TIP3    H278767   3.807   3.775  14.810
19118TIP3   OH278768   3.794   6.138   4.678
19118TIP3    H178769   3.706   6.173   4.692
19118TIP3    H278770   3.780   6.044   4.663
19119TIP3   OH278771   6.592   6.561  13.128
19119TIP3    H178772   6.636   6.492  13.178
19119TIP3    H278773   6.650   6.577  13.053
19120TIP3   OH278774   2.951   2.698   0.871
19120TIP3    H178775   2.941   2.716   0.777
19120TIP3    H278776   3.014   2.625   0.874
19121TIP3   OH278777   6.465   4.680  14.974
19121TIP3    H178778   6.503   4.597  15.002
19121TIP3    H278779   6.400   4.656  14.907
19122TIP3   OH278780   5.080   4.736  10.759
19122TIP3    H178781   5.134   4.667  10.722
19122TIP3    H278782   5.125   4.817  10.736
19123TIP3   OH278783   4.729   3.490  13.674
19123TIP3    H178784   4.796   3.531  13.729
19123TIP3    H278785   4.777   3.455  13.599
19124TIP3   OH278786   3.829   6.189   5.242
19124TIP3    H178787   3.896   6.150   5.185
19124TIP3    H278788   3.796   6.264   5.192
19125TIP3   OH278789   2.117   1.991  16.477
19125TIP3    H178790   2.057   1.921  16.501
19125TIP3    H278791   2.163   2.013  16.558
19126TIP3   OH278792   3.878   5.790   3.359
19126TIP3    H178793   3.811   5.723   3.345
19126TIP3    H278794   3.961   5.744   3.348
19127TIP3   OH278795   3.779   3.321   1.884
19127TIP3    H178796   3.869   3.353   1.881
19127TIP3    H278797   3.737   3.360   1.808
19128TIP3   OH278798   0.835   1.258   1.837
19128TIP3    H178799   0.871   1.184   1.886
19128TIP3    H278800   0.756   1.223   1.796
19129TIP3   OH278801   4.278   6.013  14.565
19129TIP3    H178802   4.217   5.953  14.607
19129TIP3    H278803   4.222   6.073  14.515
19130TIP3   OH278804   0.687   2.800   5.859
19130TIP3    H178805   0.592   2.790   5.854
19130TIP3    H278806   0.720   2.710   5.864
19131TIP3   OH278807   5.318   4.201   3.576
19131TIP3    H178808   5.341   4.164   3.661
19131TIP3    H278809   5.276   4.128   3.530
19132TIP3   OH278810   6.691   4.420  12.298
19132TIP3    H178811   6.666   4.486  12.233
19132TIP3    H278812   6.655   4.453  12.381
19133TIP3   OH278813   0.136   0.855  12.101
19133TIP3    H178814   0.122   0.791  12.031
19133TIP3    H278815   0.176   0.930  12.057
19134TIP3   OH278816   0.499   6.122  14.691
19134TIP3    H178817   0.589   6.145  14.669
19134TIP3    H278818   0.474   6.182  14.762
19135TIP3   OH278819   0.234   4.095  15.180
19135TIP3    H178820   0.158   4.042  15.203
19135TIP3    H278821   0.292   4.034  15.133
19136TIP3   OH278822   4.260   0.065   2.780
19136TIP3    H178823   4.269   0.155   2.747
19136TIP3    H278824   4.348   0.028   2.769
19137TIP3   OH278825   6.612   3.035  14.335
19137TIP3    H178826   6.553   2.960  14.332
19137TIP3    H278827   6.667   3.020  14.412
19138TIP3   OH278828   5.893   3.385   3.411
19138TIP3    H178829   5.814   3.426   3.448
19138TIP3    H278830   5.915   3.315   3.473
19139TIP3   OH278831   4.018   5.775   0.794
19139TIP3    H178832   4.113   5.768   0.786
19139TIP3    H278833   3.998   5.863   0.762
19140TIP3   OH278834   5.590   6.130  13.202
19140TIP3    H178835   5.660   6.161  13.259
19140TIP3    H278836   5.630   6.061  13.150
19141TIP3   OH278837   2.906   3.072  16.994
19141TIP3    H178838   2.923   2.991  16.945
19141TIP3    H278839   2.828   3.109  16.953
19142TIP3   OH278840   2.159   0.897   3.442
19142TIP3    H178841   2.207   0.856   3.514
19142TIP3    H278842   2.220   0.897   3.368
19143TIP3   OH278843   4.249   1.502  15.916
19143TIP3    H178844   4.305   1.579  15.903
19143TIP3    H278845   4.174   1.516  15.858
19144TIP3   OH278846   6.292   3.031   5.985
19144TIP3    H178847   6.278   2.980   5.905
19144TIP3    H278848   6.303   2.966   6.054
19145TIP3   OH278849   2.096   5.767   5.772
19145TIP3    H178850   2.130   5.781   5.860
19145TIP3    H278851   2.133   5.682   5.745
19146TIP3   OH278852   2.507   2.135   3.233
19146TIP3    H178853   2.476   2.216   3.194
19146TIP3    H278854   2.509   2.152   3.327
19147TIP3   OH278855   3.883   5.059  15.659
19147TIP3    H178856   3.974   5.079  15.637
19147TIP3    H278857   3.837   5.143  15.650
19148TIP3   OH278858   5.424   2.799  11.240
19148TIP3    H178859   5.388   2.858  11.173
19148TIP3    H278860   5.503   2.763  11.200
19149TIP3   OH278861   3.972   0.327   5.089
19149TIP3    H178862   3.881   0.357   5.087
19149TIP3    H278863   4.023   0.408   5.086
19150TIP3   OH278864   3.553   4.896  15.296
19150TIP3    H178865   3.636   4.926  15.331
19150TIP3    H278866   3.572   4.873  15.206
19151TIP3   OH278867   3.126   0.521   1.553
19151TIP3    H178868   3.200   0.578   1.534
19151TIP3    H278869   3.122   0.461   1.479
19152TIP3   OH278870   4.078   4.819  15.887
19152TIP3    H178871   4.142   4.831  15.816
19152TIP3    H278872   3.993   4.832  15.845
19153TIP3   OH278873   0.248   2.839  15.692
19153TIP3    H178874   0.208   2.872  15.612
19153TIP3    H278875   0.193   2.873  15.762
19154TIP3   OH278876   0.555   4.123   4.880
19154TIP3    H178877   0.619   4.179   4.835
19154TIP3    H278878   0.471   4.164   4.860
19155TIP3   OH278879   0.482   3.145   2.084
19155TIP3    H178880   0.424   3.082   2.126
19155TIP3    H278881   0.438   3.167   2.002
19156TIP3   OH278882   2.073   0.335  14.271
19156TIP3    H178883   2.048   0.334  14.364
19156TIP3    H278884   2.085   0.243  14.248
19157TIP3   OH278885   0.064   2.854   2.342
19157TIP3    H178886   0.102   2.851   2.430
19157TIP3    H278887   0.013   2.774   2.335
19158TIP3   OH278888   0.396   5.920   2.229
19158TIP3    H178889   0.410   5.921   2.324
19158TIP3    H278890   0.300   5.922   2.219
19159TIP3   OH278891   0.572   4.576  14.658
19159TIP3    H178892   0.591   4.486  14.683
19159TIP3    H278893   0.502   4.603  14.717
19160TIP3   OH278894   1.118   5.399   2.090
19160TIP3    H178895   1.052   5.418   2.156
19160TIP3    H278896   1.085   5.443   2.011
19161TIP3   OH278897   5.229   0.832   5.377
19161TIP3    H178898   5.229   0.885   5.297
19161TIP3    H278899   5.301   0.770   5.364
19162TIP3   OH278900   6.124   6.498   3.649
19162TIP3    H178901   6.063   6.525   3.580
19162TIP3    H278902   6.187   6.570   3.656
19163TIP3   OH278903   5.360   6.146   4.598
19163TIP3    H178904   5.334   6.072   4.652
19163TIP3    H278905   5.279   6.177   4.558
19164TIP3   OH278906   2.392   4.321  13.652
19164TIP3    H178907   2.315   4.370  13.622
19164TIP3    H278908   2.382   4.317  13.747
19165TIP3   OH278909   2.448   2.076  11.879
19165TIP3    H178910   2.407   2.158  11.850
19165TIP3    H278911   2.378   2.026  11.920
19166TIP3   OH278912   5.507   6.462   1.922
19166TIP3    H178913   5.489   6.439   2.013
19166TIP3    H278914   5.435   6.423   1.873
19167TIP3   OH278915   1.226   5.903  13.126
19167TIP3    H178916   1.313   5.867  13.109
19167TIP3    H278917   1.173   5.873  13.051
19168TIP3   OH278918   4.420   4.264   4.986
19168TIP3    H178919   4.343   4.257   5.042
19168TIP3    H278920   4.396   4.330   4.920
19169TIP3   OH278921   5.623   2.317   5.611
19169TIP3    H178922   5.595   2.313   5.519
19169TIP3    H278923   5.542   2.331   5.660
19170TIP3   OH278924   3.958   0.846  14.957
19170TIP3    H178925   4.041   0.892  14.956
19170TIP3    H278926   3.893   0.913  14.936
19171TIP3   OH278927   6.551   4.238  14.567
19171TIP3    H178928   6.557   4.178  14.641
19171TIP3    H278929   6.595   4.318  14.597
19172TIP3   OH278930   3.438   0.260  15.438
19172TIP3    H178931   3.522   0.239  15.398
19172TIP3    H278932   3.453   0.250  15.532
19173TIP3   OH278933   0.992   6.073  11.458
19173TIP3    H178934   1.076   6.099  11.496
19173TIP3    H278935   0.946   6.030  11.531
19174TIP3   OH278936   1.553   3.597  11.538
19174TIP3    H178937   1.626   3.578  11.479
19174TIP3    H278938   1.503   3.665  11.493
19175TIP3   OH278939   5.080   2.636  13.086
19175TIP3    H178940   5.074   2.699  13.158
19175TIP3    H278941   4.989   2.607  13.073
19176TIP3   OH278942   4.665   3.860  11.888
19176TIP3    H178943   4.606   3.784  11.892
19176TIP3    H278944   4.606   3.935  11.884
19177TIP3   OH278945   1.778   4.235   3.377
19177TIP3    H178946   1.858   4.223   3.327
19177TIP3    H278947   1.755   4.327   3.366
19178TIP3   OH278948   4.872   2.505  15.364
19178TIP3    H178949   4.890   2.411  15.371
19178TIP3    H278950   4.940   2.539  15.306
19179TIP3   OH278951   3.628   3.370   5.891
19179TIP3    H178952   3.710   3.405   5.928
19179TIP3    H278953   3.562   3.391   5.957
19180TIP3   OH278954   0.209   4.429   0.852
19180TIP3    H178955   0.115   4.429   0.838
19180TIP3    H278956   0.246   4.390   0.772
19181TIP3   OH278957   2.933   5.300   6.571
19181TIP3    H178958   2.980   5.375   6.609
19181TIP3    H278959   2.884   5.263   6.644
19182TIP3   OH278960   0.201   3.215  16.850
19182TIP3    H178961   0.146   3.221  16.772
19182TIP3    H278962   0.248   3.133  16.840
19183TIP3   OH278963   5.615   0.124   1.594
19183TIP3    H178964   5.621   0.029   1.592
19183TIP3    H278965   5.532   0.144   1.550
19184TIP3   OH278966   3.049   5.405   6.299
19184TIP3    H178967   3.068   5.335   6.361
19184TIP3    H278968   2.987   5.462   6.346
19185TIP3   OH278969   0.163   4.496  13.844
19185TIP3    H178970   0.068   4.489  13.853
19185TIP3    H278971   0.187   4.422  13.788
19186TIP3   OH278972   4.260   4.454   4.775
19186TIP3    H178973   4.256   4.447   4.679
19186TIP3    H278974   4.302   4.539   4.790
19187TIP3   OH278975   2.836   0.446   0.163
19187TIP3    H178976   2.820   0.493   0.082
19187TIP3    H278977   2.920   0.481   0.194
19188TIP3   OH278978   0.957   4.775  16.564
19188TIP3    H178979   0.984   4.751  16.476
19188TIP3    H278980   0.947   4.870  16.561
19189TIP3   OH278981   3.601   6.708   2.516
19189TIP3    H178982   3.558   6.726   2.433
19189TIP3    H278983   3.614   6.794   2.556
19190TIP3   OH278984   1.198   4.245  15.210
19190TIP3    H178985   1.114   4.211  15.242
19190TIP3    H278986   1.202   4.217  15.119
19191TIP3   OH278987   3.138   1.875  10.888
19191TIP3    H178988   3.144   1.860  10.983
19191TIP3    H278989   3.228   1.887  10.860
19192TIP3   OH278990   4.846   6.337   2.010
19192TIP3    H178991   4.750   6.340   2.017
19192TIP3    H278992   4.876   6.312   2.097
19193TIP3   OH278993   2.627   3.938  14.212
19193TIP3    H178994   2.646   3.996  14.138
19193TIP3    H278995   2.708   3.935  14.262
19194TIP3   OH278996   4.369   6.106   3.754
19194TIP3    H178997   4.459   6.117   3.785
19194TIP3    H278998   4.369   6.142   3.666
19195TIP3   OH278999   4.353   0.638  14.549
19195TIP3    H179000   4.403   0.559  14.571
19195TIP3    H279001   4.267   0.605  14.521
19196TIP3   OH279002   4.050   4.089   0.614
19196TIP3    H179003   4.014   4.135   0.690
19196TIP3    H279004   4.123   4.144   0.586
19197TIP3   OH279005   2.368   6.107   0.583
19197TIP3    H179006   2.317   6.060   0.650
19197TIP3    H279007   2.379   6.042   0.513
19198TIP3   OH279008   5.084   6.083   5.483
19198TIP3    H179009   5.095   6.165   5.530
19198TIP3    H279010   5.080   6.108   5.391
19199TIP3   OH279011   0.597   3.583  11.822
19199TIP3    H179012   0.590   3.666  11.774
19199TIP3    H279013   0.605   3.609  11.914
19200TIP3   OH279014   5.535   1.180  15.619
19200TIP3    H179015   5.542   1.166  15.714
19200TIP3    H279016   5.473   1.253  15.610
19201TIP3   OH279017   4.885   5.606  15.304
19201TIP3    H179018   4.861   5.678  15.362
19201TIP3    H279019   4.980   5.596  15.318
19202TIP3   OH279020   6.154   1.093   0.101
19202TIP3    H179021   6.194   1.147   0.169
19202TIP3    H279022   6.157   1.147   0.022
19203TIP3   OH279023   5.801   2.633  15.038
19203TIP3    H179024   5.737   2.650  14.969
19203TIP3    H279025   5.840   2.548  15.015
19204TIP3   OH279026   3.830   0.748   1.295
19204TIP3    H179027   3.905   0.758   1.354
19204TIP3    H279028   3.800   0.838   1.279
19205TIP3   OH279029   6.083   2.836  12.284
19205TIP3    H179030   6.053   2.883  12.207
19205TIP3    H279031   6.043   2.750  12.277
19206TIP3   OH279032   0.681   6.191  16.145
19206TIP3    H179033   0.765   6.206  16.102
19206TIP3    H279034   0.684   6.099  16.171
19207TIP3   OH279035   0.615   2.165  15.956
19207TIP3    H179036   0.692   2.219  15.967
19207TIP3    H279037   0.584   2.182  15.867
19208TIP3   OH279038   2.103   2.557  13.736
19208TIP3    H179039   2.023   2.608  13.741
19208TIP3    H279040   2.115   2.521  13.823
19209TIP3   OH279041   4.735   5.204  14.158
19209TIP3    H179042   4.650   5.165  14.180
19209TIP3    H279043   4.736   5.286  14.206
19210TIP3   OH279044   3.918   0.438  13.528
19210TIP3    H179045   3.848   0.462  13.588
19210TIP3    H279046   3.885   0.363  13.480
19211TIP3   OH279047   4.904   0.951  15.882
19211TIP3    H179048   4.995   0.982  15.885
19211TIP3    H279049   4.911   0.860  15.854
19212TIP3   OH279050   6.180   3.986   3.103
19212TIP3    H179051   6.263   3.955   3.068
19212TIP3    H279052   6.195   3.996   3.197
19213TIP3   OH279053   1.244   0.054  16.602
19213TIP3    H179054   1.159   0.057  16.646
19213TIP3    H279055   1.304   0.021  16.668
19214TIP3   OH279056   6.143   1.905   0.574
19214TIP3    H179057   6.169   1.855   0.496
19214TIP3    H279058   6.099   1.982   0.539
19215TIP3   OH279059   0.016   4.750   1.466
19215TIP3    H179060  -0.029   4.765   1.383
19215TIP3    H279061   0.092   4.808   1.463
19216TIP3   OH279062   1.571   6.687   3.328
19216TIP3    H179063   1.597   6.779   3.334
19216TIP3    H279064   1.602   6.648   3.409
19217TIP3   OH279065   2.677   0.539  17.147
19217TIP3    H179066   2.651   0.459  17.101
19217TIP3    H279067   2.744   0.578  17.092
19218TIP3   OH279068   1.952   4.766   4.159
19218TIP3    H179069   1.992   4.695   4.209
19218TIP3    H279070   2.014   4.838   4.164
19219TIP3   OH279071   5.005   6.183   2.495
19219TIP3    H179072   5.062   6.131   2.551
19219TIP3    H279073   4.967   6.249   2.553
19220TIP3   OH279074   3.573   3.664   3.255
19220TIP3    H179075   3.582   3.630   3.167
19220TIP3    H279076   3.492   3.624   3.288
19221TIP3   OH279077   1.563   5.188  15.032
19221TIP3    H179078   1.626   5.145  15.089
19221TIP3    H279079   1.593   5.279  15.027
19222TIP3   OH279080   0.051   3.550   2.714
19222TIP3    H179081   0.086   3.618   2.773
19222TIP3    H279082  -0.036   3.582   2.691
19223TIP3   OH279083   0.220   1.187  12.950
19223TIP3    H179084   0.163   1.137  12.892
19223TIP3    H279085   0.266   1.248  12.892
19224TIP3   OH279086   4.228   5.104   5.685
19224TIP3    H179087   4.218   5.191   5.647
19224TIP3    H279088   4.322   5.087   5.680
19225TIP3   OH279089   5.189   0.718  16.419
19225TIP3    H179090   5.153   0.804  16.439
19225TIP3    H279091   5.195   0.673  16.504
19226TIP3   OH279092   1.043   4.351   5.343
19226TIP3    H179093   1.007   4.412   5.407
19226TIP3    H279094   0.977   4.282   5.336
19227TIP3   OH279095   5.998   5.580   3.491
19227TIP3    H179096   5.966   5.493   3.516
19227TIP3    H279097   6.076   5.594   3.545
19228TIP3   OH279098   0.413   2.866   2.824
19228TIP3    H179099   0.423   2.908   2.909
19228TIP3    H279100   0.484   2.901   2.771
19229TIP3   OH279101   5.759   0.341  17.186
19229TIP3    H179102   5.671   0.348  17.221
19229TIP3    H279103   5.799   0.268  17.233
19230TIP3   OH279104   1.324   4.173   0.563
19230TIP3    H179105   1.279   4.255   0.542
19230TIP3    H279106   1.342   4.133   0.478
19231TIP3   OH279107   0.834   4.259   4.997
19231TIP3    H179108   0.896   4.194   5.031
19231TIP3    H279109   0.748   4.218   5.005
19232TIP3   OH279110   5.877   6.193   3.994
19232TIP3    H179111   5.883   6.276   4.042
19232TIP3    H279112   5.862   6.127   4.062
19233TIP3   OH279113   2.992   3.445  16.958
19233TIP3    H179114   2.950   3.443  17.043
19233TIP3    H279115   3.075   3.400  16.971
19234TIP3   OH279116   6.750   2.636   0.886
19234TIP3    H179117   6.764   2.591   0.970
19234TIP3    H279118   6.793   2.721   0.897
19235TIP3   OH279119   2.910   5.390  14.526
19235TIP3    H179120   2.889   5.335  14.451
19235TIP3    H279121   2.984   5.443  14.498
19236TIP3   OH279122   2.902   2.898   4.141
19236TIP3    H179123   2.809   2.882   4.123
19236TIP3    H279124   2.912   2.881   4.235
19237TIP3   OH279125   4.994   0.109   1.403
19237TIP3    H179126   4.981   0.017   1.428
19237TIP3    H279127   5.037   0.105   1.318
19238TIP3   OH279128   4.665   0.493  16.729
19238TIP3    H179129   4.600   0.423  16.723
19238TIP3    H279130   4.645   0.538  16.811
19239TIP3   OH279131   2.600   1.505  17.137
19239TIP3    H179132   2.558   1.420  17.125
19239TIP3    H279133   2.576   1.532  17.225
19240TIP3   OH279134   2.097   1.149   1.403
19240TIP3    H179135   2.149   1.071   1.391
19240TIP3    H279136   2.006   1.118   1.404
19241TIP3   OH279137   5.659   3.084   3.196
19241TIP3    H179138   5.634   3.046   3.280
19241TIP3    H279139   5.637   3.016   3.131
19242TIP3   OH279140   5.155   1.178  15.423
19242TIP3    H179141   5.138   1.090  15.391
19242TIP3    H279142   5.141   1.173  15.518
19243TIP3   OH279143   0.790   5.823   4.318
19243TIP3    H179144   0.719   5.785   4.369
19243TIP3    H279145   0.776   5.917   4.324
19244TIP3   OH279146   3.748   4.620  17.140
19244TIP3    H179147   3.657   4.637  17.114
19244TIP3    H279148   3.753   4.525  17.151
19245TIP3   OH279149   3.645   3.751  15.521
19245TIP3    H179150   3.713   3.685  15.534
19245TIP3    H279151   3.688   3.834  15.545
19246TIP3   OH279152   2.420   4.851  14.852
19246TIP3    H179153   2.357   4.855  14.780
19246TIP3    H279154   2.492   4.799  14.818
19247TIP3   OH279155   2.856   3.976   4.884
19247TIP3    H179156   2.864   4.006   4.793
19247TIP3    H279157   2.946   3.963   4.913
19248TIP3   OH279158   2.857   3.281  11.834
19248TIP3    H179159   2.950   3.258  11.832
19248TIP3    H279160   2.815   3.203  11.870
19249TIP3   OH279161   3.987   3.132   5.506
19249TIP3    H179162   4.048   3.064   5.535
19249TIP3    H279163   4.034   3.214   5.520
19250TIP3   OH279164   2.490   4.224  13.094
19250TIP3    H179165   2.556   4.187  13.153
19250TIP3    H279166   2.412   4.169  13.108
19251TIP3   OH279167   2.619   0.639   1.975
19251TIP3    H179168   2.657   0.641   2.063
19251TIP3    H279169   2.631   0.549   1.947
19252TIP3   OH279170   1.618   4.300  15.098
19252TIP3    H179171   1.602   4.321  15.189
19252TIP3    H279172   1.708   4.329  15.081
19253TIP3   OH279173   3.962   1.365  12.406
19253TIP3    H179174   3.979   1.271  12.410
19253TIP3    H279175   3.981   1.397  12.494
19254TIP3   OH279176   6.378   3.443   3.186
19254TIP3    H179177   6.444   3.508   3.205
19254TIP3    H279178   6.413   3.394   3.112
19255TIP3   OH279179   0.365   4.493   2.943
19255TIP3    H179180   0.382   4.504   2.850
19255TIP3    H279181   0.393   4.403   2.962
19256TIP3   OH279182   1.355   2.201  10.576
19256TIP3    H179183   1.403   2.147  10.513
19256TIP3    H279184   1.384   2.291  10.557
19257TIP3   OH279185   5.259   0.950  14.035
19257TIP3    H179186   5.197   0.999  14.089
19257TIP3    H279187   5.206   0.915  13.964
19258TIP3   OH279188   3.699   6.473  15.320
19258TIP3    H179189   3.613   6.435  15.299
19258TIP3    H279190   3.753   6.398  15.343
19259TIP3   OH279191   4.830   5.112   3.491
19259TIP3    H179192   4.812   5.076   3.579
19259TIP3    H279193   4.925   5.109   3.483
19260TIP3   OH279194   3.840   6.668  16.766
19260TIP3    H179195   3.776   6.597  16.768
19260TIP3    H279196   3.840   6.699  16.676
19261TIP3   OH279197   4.291   4.309   1.516
19261TIP3    H179198   4.372   4.356   1.497
19261TIP3    H279199   4.294   4.294   1.611
19262TIP3   OH279200   2.853   1.967  12.367
19262TIP3    H179201   2.850   1.923  12.282
19262TIP3    H279202   2.830   2.058  12.347
19263TIP3   OH279203   6.267   0.279  11.331
19263TIP3    H179204   6.203   0.243  11.393
19263TIP3    H279205   6.321   0.203  11.307
19264TIP3   OH279206   3.073   3.730  11.880
19264TIP3    H179207   3.006   3.790  11.848
19264TIP3    H279208   3.146   3.787  11.905
19265TIP3   OH279209   0.188   4.593   4.268
19265TIP3    H179210   0.208   4.560   4.180
19265TIP3    H279211   0.098   4.567   4.284
19266TIP3   OH279212   4.435   6.048  11.412
19266TIP3    H179213   4.382   5.991  11.468
19266TIP3    H279214   4.397   6.039  11.325
19267TIP3   OH279215   6.616   5.966  15.373
19267TIP3    H179216   6.642   5.890  15.424
19267TIP3    H279217   6.537   5.939  15.326
19268TIP3   OH279218   6.322   4.392   5.285
19268TIP3    H179219   6.252   4.396   5.350
19268TIP3    H279220   6.306   4.310   5.238
19269TIP3   OH279221   0.779   6.243   4.164
19269TIP3    H179222   0.777   6.253   4.068
19269TIP3    H279223   0.868   6.267   4.189
19270TIP3   OH279224   2.001   4.454   4.049
19270TIP3    H179225   2.027   4.364   4.064
19270TIP3    H279226   1.906   4.449   4.034
19271TIP3   OH279227   3.488   4.248  15.895
19271TIP3    H179228   3.509   4.267  15.986
19271TIP3    H279229   3.515   4.157  15.882
19272TIP3   OH279230   2.630   3.356  17.053
19272TIP3    H179231   2.707   3.408  17.078
19272TIP3    H279232   2.565   3.422  17.026
19273TIP3   OH279233   5.374   5.775   4.349
19273TIP3    H179234   5.382   5.682   4.367
19273TIP3    H279235   5.299   5.782   4.290
19274TIP3   OH279236   2.386   3.147   1.318
19274TIP3    H179237   2.384   3.239   1.289
19274TIP3    H279238   2.308   3.108   1.280
19275TIP3   OH279239   4.478   4.531  13.684
19275TIP3    H179240   4.448   4.445  13.656
19275TIP3    H279241   4.496   4.521  13.778
19276TIP3   OH279242   4.001   6.220   0.959
19276TIP3    H179243   3.937   6.234   0.889
19276TIP3    H279244   3.956   6.248   1.039
19277TIP3   OH279245   2.139   1.352  14.436
19277TIP3    H179246   2.190   1.430  14.415
19277TIP3    H279247   2.193   1.305  14.499
19278TIP3   OH279248   1.282   0.043   5.056
19278TIP3    H179249   1.189   0.036   5.033
19278TIP3    H279250   1.317   0.106   4.993
19279TIP3   OH279251   6.159   1.827   3.577
19279TIP3    H179252   6.096   1.786   3.517
19279TIP3    H279253   6.105   1.871   3.642
19280TIP3   OH279254   1.973   1.406   5.738
19280TIP3    H179255   1.959   1.457   5.658
19280TIP3    H279256   1.894   1.352   5.746
19281TIP3   OH279257   1.114   4.548   1.727
19281TIP3    H179258   1.155   4.577   1.646
19281TIP3    H279259   1.139   4.614   1.792
19282TIP3   OH279260   2.663   3.624   3.618
19282TIP3    H179261   2.682   3.557   3.685
19282TIP3    H279262   2.568   3.619   3.607
19283TIP3   OH279263   5.406   1.894  12.873
19283TIP3    H179264   5.478   1.831  12.879
19283TIP3    H279265   5.350   1.860  12.803
19284TIP3   OH279266   5.031   3.034   1.750
19284TIP3    H179267   5.039   2.946   1.714
19284TIP3    H279268   5.106   3.082   1.715
19285TIP3   OH279269   4.469   0.838  13.676
19285TIP3    H179270   4.531   0.911  13.668
19285TIP3    H279271   4.384   0.881  13.685
19286TIP3   OH279272   5.368   5.518  12.710
19286TIP3    H179273   5.298   5.540  12.772
19286TIP3    H279274   5.340   5.435  12.672
19287TIP3   OH279275   4.815   6.285   5.371
19287TIP3    H179276   4.799   6.334   5.290
19287TIP3    H279277   4.872   6.342   5.423
19288TIP3   OH279278   3.099   5.256  14.067
19288TIP3    H179279   3.127   5.232  14.156
19288TIP3    H279280   3.040   5.185  14.041
19289TIP3   OH279281   5.972   3.512  16.551
19289TIP3    H179282   6.011   3.509  16.639
19289TIP3    H279283   5.970   3.606  16.530
19290TIP3   OH279284   4.744   3.667   3.453
19290TIP3    H179285   4.691   3.724   3.508
19290TIP3    H279286   4.702   3.668   3.367
19291TIP3   OH279287   4.166   6.603  15.002
19291TIP3    H179288   4.212   6.617  15.085
19291TIP3    H279289   4.201   6.671  14.944
19292TIP3   OH279290   5.598   0.550  15.521
19292TIP3    H179291   5.578   0.554  15.615
19292TIP3    H279292   5.624   0.639  15.498
19293TIP3   OH279293   3.892   5.162  16.431
19293TIP3    H179294   3.889   5.256  16.451
19293TIP3    H279295   3.843   5.154  16.349
19294TIP3   OH279296   3.364   3.137   5.639
19294TIP3    H179297   3.329   3.224   5.623
19294TIP3    H279298   3.440   3.151   5.695
19295TIP3   OH279299   1.564   3.491   0.274
19295TIP3    H179300   1.591   3.582   0.259
19295TIP3    H279301   1.576   3.477   0.368
19296TIP3   OH279302   0.550   2.676  12.729
19296TIP3    H179303   0.604   2.611  12.775
19296TIP3    H279304   0.537   2.745  12.793
19297TIP3   OH279305   5.076   3.029   2.374
19297TIP3    H179306   5.034   3.090   2.313
19297TIP3    H279307   5.158   3.006   2.332
19298TIP3   OH279308   0.341   6.435  16.964
19298TIP3    H179309   0.326   6.422  17.057
19298TIP3    H279310   0.274   6.498  16.937
19299TIP3   OH279311   0.919   5.707   2.268
19299TIP3    H179312   0.906   5.800   2.283
19299TIP3    H279313   1.004   5.687   2.306
19300TIP3   OH279314   5.993   5.887  16.501
19300TIP3    H179315   6.082   5.872  16.531
19300TIP3    H279316   5.983   5.982  16.502
19301TIP3   OH279317   2.050   2.512   6.044
19301TIP3    H179318   2.056   2.591   6.096
19301TIP3    H279319   1.984   2.459   6.088
19302TIP3   OH279320   6.347   4.402  12.675
19302TIP3    H179321   6.433   4.432  12.703
19302TIP3    H279322   6.350   4.307  12.684
19303TIP3   OH279323   5.222   1.623  15.186
19303TIP3    H179324   5.297   1.683  15.185
19303TIP3    H279325   5.171   1.647  15.109
19304TIP3   OH279326   4.128   2.114  11.107
19304TIP3    H179327   4.082   2.058  11.044
19304TIP3    H279328   4.219   2.114  11.077
19305TIP3   OH279329   2.191   0.819  11.381
19305TIP3    H179330   2.127   0.882  11.348
19305TIP3    H279331   2.255   0.810  11.311
19306TIP3   OH279332   1.884   4.482   3.636
19306TIP3    H179333   1.818   4.430   3.682
19306TIP3    H279334   1.854   4.484   3.545
19307TIP3   OH279335   0.851   4.059   1.443
19307TIP3    H179336   0.883   3.969   1.445
19307TIP3    H279337   0.848   4.085   1.535
19308TIP3   OH279338   1.519   3.895  12.255
19308TIP3    H179339   1.425   3.908  12.266
19308TIP3    H279340   1.528   3.804  12.228
19309TIP3   OH279341   3.542   0.612   4.669
19309TIP3    H179342   3.570   0.548   4.603
19309TIP3    H279343   3.461   0.576   4.704
19310TIP3   OH279344   6.736   5.922  14.931
19310TIP3    H179345   6.761   5.830  14.940
19310TIP3    H279346   6.746   5.958  15.020
19311TIP3   OH279347   0.632   4.264   6.486
19311TIP3    H179348   0.668   4.178   6.465
19311TIP3    H279349   0.546   4.245   6.524
19312TIP3   OH279350   2.603   1.453  13.246
19312TIP3    H179351   2.669   1.493  13.190
19312TIP3    H279352   2.531   1.432  13.187
19313TIP3   OH279353   4.860   2.174   6.136
19313TIP3    H179354   4.896   2.086   6.140
19313TIP3    H279355   4.803   2.181   6.213
19314TIP3   OH279356   0.291   1.808  14.725
19314TIP3    H179357   0.238   1.731  14.748
19314TIP3    H279358   0.243   1.882  14.761
19315TIP3   OH279359   2.843   0.246   5.859
19315TIP3    H179360   2.903   0.206   5.796
19315TIP3    H279361   2.827   0.176   5.923
19316TIP3   OH279362   6.414   6.320   1.739
19316TIP3    H179363   6.507   6.341   1.727
19316TIP3    H279364   6.381   6.311   1.649
19317TIP3   OH279365   0.211   1.082  13.228
19317TIP3    H179366   0.179   1.104  13.141
19317TIP3    H279367   0.180   0.992  13.243
19318TIP3   OH279368   0.379   5.508  11.443
19318TIP3    H179369   0.409   5.420  11.423
19318TIP3    H279370   0.338   5.501  11.529
19319TIP3   OH279371   0.915   4.916   5.273
19319TIP3    H179372   0.837   4.943   5.322
19319TIP3    H279373   0.899   4.823   5.254
19320TIP3   OH279374   0.421   1.551   6.602
19320TIP3    H179375   0.495   1.608   6.623
19320TIP3    H279376   0.457   1.486   6.542
19321TIP3   OH279377   0.057   5.578   5.635
19321TIP3    H179378   0.121   5.534   5.579
19321TIP3    H279379  -0.006   5.616   5.573
19322TIP3   OH279380   5.494   2.029  15.732
19322TIP3    H179381   5.509   2.111  15.778
19322TIP3    H279382   5.581   1.998  15.707
19323TIP3   OH279383   2.712   5.453   3.566
19323TIP3    H179384   2.719   5.548   3.554
19323TIP3    H279385   2.803   5.423   3.573
19324TIP3   OH279386   4.786   5.041  13.895
19324TIP3    H179387   4.728   5.098  13.945
19324TIP3    H279388   4.873   5.055  13.933
19325TIP3   OH279389   2.675   5.799  16.043
19325TIP3    H179390   2.760   5.812  16.086
19325TIP3    H279391   2.662   5.879  15.992
19326TIP3   OH279392   6.497   5.171   5.292
19326TIP3    H179393   6.475   5.079   5.302
19326TIP3    H279394   6.450   5.198   5.213
19327TIP3   OH279395   2.807   0.461   1.650
19327TIP3    H179396   2.844   0.395   1.592
19327TIP3    H279397   2.766   0.410   1.721
19328TIP3   OH279398   3.083   0.238  13.513
19328TIP3    H179399   3.160   0.292  13.528
19328TIP3    H279400   3.069   0.192  13.596
19329TIP3   OH279401   5.310   1.460  16.605
19329TIP3    H179402   5.281   1.372  16.630
19329TIP3    H279403   5.297   1.513  16.684
19330TIP3   OH279404   4.284   6.687   1.517
19330TIP3    H179405   4.236   6.770   1.525
19330TIP3    H279406   4.285   6.652   1.606
19331TIP3   OH279407   5.844   4.279   0.253
19331TIP3    H179408   5.855   4.282   0.158
19331TIP3    H279409   5.898   4.206   0.281
19332TIP3   OH279410   1.231   2.379  11.642
19332TIP3    H179411   1.300   2.445  11.646
19332TIP3    H279412   1.193   2.390  11.555
19333TIP3   OH279413   1.352   5.128   1.560
19333TIP3    H179414   1.389   5.204   1.516
19333TIP3    H279415   1.318   5.074   1.490
19334TIP3   OH279416   2.792   3.470  15.627
19334TIP3    H179417   2.752   3.506  15.548
19334TIP3    H279418   2.719   3.428  15.674
19335TIP3   OH279419   4.105   4.701  13.308
19335TIP3    H179420   4.130   4.792  13.291
19335TIP3    H279421   4.045   4.707  13.382
19336TIP3   OH279422   1.028   5.100  12.812
19336TIP3    H179423   0.958   5.096  12.878
19336TIP3    H279424   0.999   5.041  12.742
19337TIP3   OH279425   2.422   4.025   0.568
19337TIP3    H179426   2.396   3.946   0.519
19337TIP3    H279427   2.505   4.051   0.530
19338TIP3   OH279428   1.423   3.238   5.532
19338TIP3    H179429   1.421   3.164   5.593
19338TIP3    H279430   1.363   3.213   5.462
19339TIP3   OH279431   2.337   0.916   1.657
19339TIP3    H179432   2.251   0.949   1.684
19339TIP3    H279433   2.382   0.992   1.619
19340TIP3   OH279434   4.146   0.083   6.317
19340TIP3    H179435   4.073   0.093   6.256
19340TIP3    H279436   4.129   0.148   6.386
19341TIP3   OH279437   4.519   5.659   3.434
19341TIP3    H179438   4.595   5.602   3.442
19341TIP3    H279439   4.450   5.603   3.399
19342TIP3   OH279440   4.829   2.823   1.364
19342TIP3    H179441   4.780   2.770   1.301
19342TIP3    H279442   4.907   2.852   1.316
19343TIP3   OH279443   3.171   2.327   2.745
19343TIP3    H179444   3.249   2.368   2.709
19343TIP3    H279445   3.125   2.292   2.669
19344TIP3   OH279446   4.715   6.400  15.558
19344TIP3    H179447   4.802   6.363  15.567
19344TIP3    H279448   4.691   6.430  15.645
19345TIP3   OH279449   6.241   1.613  15.258
19345TIP3    H179450   6.328   1.590  15.290
19345TIP3    H279451   6.186   1.539  15.284
19346TIP3   OH279452   0.401   0.432  12.408
19346TIP3    H179453   0.379   0.427  12.315
19346TIP3    H279454   0.477   0.490  12.411
19347TIP3   OH279455   0.094   1.133  15.641
19347TIP3    H179456   0.162   1.187  15.680
19347TIP3    H279457   0.071   1.177  15.559
19348TIP3   OH279458   5.149   1.827  15.000
19348TIP3    H179459   5.068   1.869  14.970
19348TIP3    H279460   5.155   1.747  14.948
19349TIP3   OH279461   3.636   6.674   4.098
19349TIP3    H179462   3.546   6.642   4.102
19349TIP3    H279463   3.666   6.651   4.010
19350TIP3   OH279464   2.330   3.112   2.698
19350TIP3    H179465   2.339   3.205   2.718
19350TIP3    H279466   2.307   3.071   2.781
19351TIP3   OH279467   2.139   2.463  15.679
19351TIP3    H179468   2.154   2.491  15.769
19351TIP3    H279469   2.213   2.500  15.630
19352TIP3   OH279470   1.362   5.206  14.451
19352TIP3    H179471   1.449   5.166  14.456
19352TIP3    H279472   1.311   5.145  14.397
19353TIP3   OH279473   3.766   2.859  13.124
19353TIP3    H179474   3.689   2.811  13.093
19353TIP3    H279475   3.828   2.853  13.052
19354TIP3   OH279476   1.743   1.438   1.739
19354TIP3    H179477   1.787   1.513   1.777
19354TIP3    H279478   1.781   1.362   1.784
19355TIP3   OH279479   3.743   4.186  11.447
19355TIP3    H179480   3.733   4.229  11.362
19355TIP3    H279481   3.786   4.103  11.427
19356TIP3   OH279482   0.952   6.254  11.777
19356TIP3    H179483   1.015   6.186  11.751
19356TIP3    H279484   0.894   6.211  11.840
19357TIP3   OH279485   1.529   4.190  11.953
19357TIP3    H179486   1.455   4.224  11.901
19357TIP3    H279487   1.605   4.240  11.922
19358TIP3   OH279488   0.351   1.520   3.827
19358TIP3    H179489   0.440   1.495   3.850
19358TIP3    H279490   0.349   1.616   3.836
19359TIP3   OH279491   0.768   5.532  16.801
19359TIP3    H179492   0.725   5.614  16.778
19359TIP3    H279493   0.861   5.550  16.788
19360TIP3   OH279494   6.220   1.036   2.647
19360TIP3    H179495   6.203   1.012   2.556
19360TIP3    H279496   6.310   1.067   2.648
19361TIP3   OH279497   3.458   1.797  13.606
19361TIP3    H179498   3.408   1.756  13.536
19361TIP3    H279499   3.511   1.863  13.562
19362TIP3   OH279500   0.541   2.883   3.693
19362TIP3    H179501   0.630   2.900   3.723
19362TIP3    H279502   0.514   2.964   3.651
19363TIP3   OH279503   1.055   2.116   4.191
19363TIP3    H179504   1.005   2.080   4.116
19363TIP3    H279505   1.018   2.203   4.204
19364TIP3   OH279506   0.505   0.209   4.194
19364TIP3    H179507   0.461   0.125   4.205
19364TIP3    H279508   0.441   0.264   4.148
19365TIP3   OH279509   5.609   3.483   1.802
19365TIP3    H179510   5.606   3.559   1.860
19365TIP3    H279511   5.543   3.502   1.736
19366TIP3   OH279512   4.639   5.398  12.660
19366TIP3    H179513   4.670   5.316  12.699
19366TIP3    H279514   4.575   5.432  12.722
19367TIP3   OH279515   3.541   6.354   5.500
19367TIP3    H179516   3.620   6.392   5.461
19367TIP3    H279517   3.519   6.413   5.572
19368TIP3   OH279518   2.771   0.536  16.369
19368TIP3    H179519   2.714   0.462  16.390
19368TIP3    H279520   2.858   0.506  16.395
19369TIP3   OH279521   5.409   0.995  11.186
19369TIP3    H179522   5.475   0.927  11.180
19369TIP3    H279523   5.437   1.061  11.122
19370TIP3   OH279524   1.500   3.754   2.471
19370TIP3    H179525   1.582   3.723   2.508
19370TIP3    H279526   1.432   3.709   2.522
19371TIP3   OH279527   5.027   6.665  15.081
19371TIP3    H179528   5.104   6.663  15.024
19371TIP3    H279529   4.953   6.659  15.021
19372TIP3   OH279530   3.790   5.966  15.620
19372TIP3    H179531   3.789   6.000  15.531
19372TIP3    H279532   3.855   5.896  15.619
19373TIP3   OH279533   6.605   0.476  10.656
19373TIP3    H179534   6.615   0.439  10.569
19373TIP3    H279535   6.601   0.400  10.714
19374TIP3   OH279536   1.098   1.588  13.396
19374TIP3    H179537   1.110   1.502  13.438
19374TIP3    H279538   1.105   1.651  13.467
19375TIP3   OH279539   4.121   2.522   5.380
19375TIP3    H179540   4.212   2.530   5.410
19375TIP3    H279541   4.118   2.437   5.336
19376TIP3   OH279542   3.422   4.594  12.165
19376TIP3    H179543   3.389   4.672  12.209
19376TIP3    H279544   3.347   4.560  12.116
19377TIP3   OH279545   2.372   6.358   0.639
19377TIP3    H179546   2.428   6.362   0.716
19377TIP3    H279547   2.371   6.266   0.614
19378TIP3   OH279548   4.301   0.053  14.858
19378TIP3    H179549   4.314   0.095  14.773
19378TIP3    H279550   4.377   0.080  14.909
19379TIP3   OH279551   6.662   2.752   1.832
19379TIP3    H179552   6.600   2.733   1.762
19379TIP3    H279553   6.747   2.754   1.788
19380TIP3   OH279554   2.889   5.264  11.405
19380TIP3    H179555   2.848   5.180  11.382
19380TIP3    H279556   2.853   5.326  11.341
19381TIP3   OH279557   4.534   0.227  14.870
19381TIP3    H179558   4.516   0.313  14.909
19381TIP3    H279559   4.620   0.203  14.905
19382TIP3   OH279560   5.007   1.821   2.947
19382TIP3    H179561   4.971   1.814   3.035
19382TIP3    H279562   4.977   1.907   2.916
19383TIP3   OH279563   5.363   3.414   2.690
19383TIP3    H179564   5.438   3.428   2.633
19383TIP3    H279565   5.368   3.486   2.754
19384TIP3   OH279566   5.588   2.191   1.218
19384TIP3    H179567   5.646   2.135   1.269
19384TIP3    H279568   5.644   2.229   1.151
19385TIP3   OH279569   5.138   1.655   3.868
19385TIP3    H179570   5.192   1.589   3.824
19385TIP3    H279571   5.055   1.654   3.819
19386TIP3   OH279572   4.015   0.821   1.469
19386TIP3    H179573   4.107   0.826   1.494
19386TIP3    H279574   3.971   0.886   1.524
19387TIP3   OH279575   5.814   5.640  14.908
19387TIP3    H179576   5.730   5.651  14.952
19387TIP3    H279577   5.879   5.647  14.978
19388TIP3   OH279578   5.977   4.451  13.774
19388TIP3    H179579   5.992   4.546  13.777
19388TIP3    H279580   5.882   4.442  13.774
19389TIP3   OH279581   4.687   5.177  12.792
19389TIP3    H179582   4.699   5.177  12.887
19389TIP3    H279583   4.735   5.099  12.762
19390TIP3   OH279584   4.144   2.153  17.040
19390TIP3    H179585   4.107   2.239  17.056
19390TIP3    H279586   4.132   2.138  16.946
19391TIP3   OH279587   1.024   6.560   4.692
19391TIP3    H179588   1.111   6.530   4.667
19391TIP3    H279589   1.024   6.556   4.788
19392TIP3   OH279590   5.172   2.514  15.816
19392TIP3    H179591   5.215   2.550  15.739
19392TIP3    H279592   5.078   2.524  15.798
19393TIP3   OH279593   5.634   4.051  10.526
19393TIP3    H179594   5.594   3.966  10.543
19393TIP3    H279595   5.583   4.112  10.579
19394TIP3   OH279596   5.691   0.755   4.110
19394TIP3    H179597   5.655   0.842   4.127
19394TIP3    H279598   5.625   0.695   4.145
19395TIP3   OH279599   2.421   0.391   2.197
19395TIP3    H179600   2.346   0.386   2.256
19395TIP3    H279601   2.445   0.484   2.196
19396TIP3   OH279602   3.394   2.129   6.011
19396TIP3    H179603   3.446   2.178   5.947
19396TIP3    H279604   3.448   2.054   6.035
19397TIP3   OH279605   0.130   4.943  15.341
19397TIP3    H179606   0.180   4.919  15.263
19397TIP3    H279607   0.162   5.031  15.364
19398TIP3   OH279608   6.086   3.604   2.138
19398TIP3    H179609   6.022   3.630   2.072
19398TIP3    H279610   6.160   3.568   2.087
19399TIP3   OH279611   6.368   1.577  11.888
19399TIP3    H179612   6.447   1.537  11.923
19399TIP3    H279613   6.296   1.522  11.919
19400TIP3   OH279614   4.333   4.247   1.796
19400TIP3    H179615   4.428   4.235   1.787
19400TIP3    H279616   4.300   4.161   1.821
19401TIP3   OH279617   4.106   0.614  12.675
19401TIP3    H179618   4.182   0.556  12.684
19401TIP3    H279619   4.114   0.650  12.587
19402TIP3   OH279620   0.966   6.568   1.996
19402TIP3    H179621   0.886   6.518   2.015
19402TIP3    H279622   0.994   6.537   1.910
19403TIP3   OH279623   6.724   0.764  14.006
19403TIP3    H179624   6.763   0.780  14.091
19403TIP3    H279625   6.709   0.669  14.004
19404TIP3   OH279626   0.139   0.040   1.211
19404TIP3    H179627   0.093   0.121   1.235
19404TIP3    H279628   0.231   0.067   1.205
19405TIP3   OH279629   3.469   0.479  11.187
19405TIP3    H179630   3.474   0.455  11.280
19405TIP3    H279631   3.525   0.414  11.143
19406TIP3   OH279632   2.512   5.652  16.864
19406TIP3    H179633   2.573   5.719  16.833
19406TIP3    H279634   2.521   5.654  16.960
19407TIP3   OH279635   2.393   3.451   2.025
19407TIP3    H179636   2.356   3.434   2.112
19407TIP3    H279637   2.456   3.381   2.011
19408TIP3   OH279638   1.550   1.541   5.670
19408TIP3    H179639   1.483   1.475   5.685
19408TIP3    H279640   1.609   1.533   5.744
19409TIP3   OH279641   0.041   3.348   3.811
19409TIP3    H179642   0.024   3.285   3.741
19409TIP3    H279643  -0.045   3.382   3.834
19410TIP3   OH279644   2.513   2.752   2.523
19410TIP3    H179645   2.505   2.818   2.454
19410TIP3    H279646   2.595   2.707   2.504
19411TIP3   OH279647   4.898   0.593  15.565
19411TIP3    H179648   4.866   0.507  15.536
19411TIP3    H279649   4.990   0.579  15.586
19412TIP3   OH279650   2.915   0.938   1.249
19412TIP3    H179651   2.918   0.843   1.251
19412TIP3    H279652   2.848   0.959   1.184
19413TIP3   OH279653   2.458   2.425   5.158
19413TIP3    H179654   2.481   2.359   5.224
19413TIP3    H279655   2.531   2.423   5.097
19414TIP3   OH279656   1.128   2.195   3.042
19414TIP3    H179657   1.069   2.228   2.974
19414TIP3    H279658   1.194   2.263   3.052
19415TIP3   OH279659   4.281   5.799   3.491
19415TIP3    H179660   4.369   5.783   3.457
19415TIP3    H279661   4.228   5.730   3.451
19416TIP3   OH279662   3.261   2.387  14.130
19416TIP3    H179663   3.287   2.301  14.164
19416TIP3    H279664   3.343   2.431  14.108
19417TIP3   OH279665   5.049   3.566  17.206
19417TIP3    H179666   5.014   3.576  17.294
19417TIP3    H279667   5.125   3.624  17.203
19418TIP3   OH279668   6.244   6.522   2.796
19418TIP3    H179669   6.230   6.485   2.709
19418TIP3    H279670   6.158   6.554   2.823
19419TIP3   OH279671   6.653   5.562  16.192
19419TIP3    H179672   6.594   5.529  16.260
19419TIP3    H279673   6.615   5.645  16.165
19420TIP3   OH279674   5.681   2.915  13.213
19420TIP3    H179675   5.624   2.850  13.172
19420TIP3    H279676   5.623   2.966  13.269
19421TIP3   OH279677   3.605   3.750   3.806
19421TIP3    H179678   3.590   3.843   3.790
19421TIP3    H279679   3.679   3.749   3.867
19422TIP3   OH279680   5.987   5.071  16.067
19422TIP3    H179681   5.943   5.132  16.009
19422TIP3    H279682   6.080   5.087  16.052
19423TIP3   OH279683   0.674   5.034  12.058
19423TIP3    H179684   0.659   5.128  12.051
19423TIP3    H279685   0.696   5.020  12.150
19424TIP3   OH279686   3.820   3.963  14.785
19424TIP3    H179687   3.839   4.049  14.822
19424TIP3    H279688   3.764   3.982  14.709
19425TIP3   OH279689   5.197   4.392  13.790
19425TIP3    H179690   5.112   4.350  13.773
19425TIP3    H279691   5.192   4.475  13.743
19426TIP3   OH279692   1.215   6.059  13.662
19426TIP3    H179693   1.204   5.986  13.722
19426TIP3    H279694   1.134   6.110  13.671
19427TIP3   OH279695   3.244   4.966  13.794
19427TIP3    H179696   3.219   4.922  13.875
19427TIP3    H279697   3.312   4.910  13.756
19428TIP3   OH279698   0.686   1.794   2.735
19428TIP3    H179699   0.758   1.738   2.765
19428TIP3    H279700   0.726   1.856   2.674
19429TIP3   OH279701   0.733   5.609   1.598
19429TIP3    H179702   0.670   5.673   1.630
19429TIP3    H279703   0.692   5.524   1.613
19430TIP3   OH279704   0.251   4.118  13.233
19430TIP3    H179705   0.345   4.101  13.243
19430TIP3    H279706   0.210   4.068  13.304
19431TIP3   OH279707   1.685   5.026  13.957
19431TIP3    H179708   1.643   5.035  13.872
19431TIP3    H279709   1.771   5.068  13.946
19432TIP3   OH279710   1.235   6.504  11.697
19432TIP3    H179711   1.236   6.459  11.781
19432TIP3    H279712   1.304   6.462  11.646
19433TIP3   OH279713   2.194   3.869  13.377
19433TIP3    H179714   2.232   3.911  13.453
19433TIP3    H279715   2.104   3.849  13.402
19434TIP3   OH279716   2.701   1.825   0.735
19434TIP3    H179717   2.622   1.774   0.718
19434TIP3    H279718   2.672   1.898   0.790
19435TIP3   OH279719   6.371   5.657  12.457
19435TIP3    H179720   6.331   5.670  12.371
19435TIP3    H279721   6.313   5.702  12.518
19436TIP3   OH279722   0.398   5.601  14.106
19436TIP3    H179723   0.343   5.623  14.031
19436TIP3    H279724   0.336   5.586  14.177
19437TIP3   OH279725   5.563   0.262  13.990
19437TIP3    H179726   5.656   0.241  13.997
19437TIP3    H279727   5.554   0.305  13.905
19438TIP3   OH279728   5.301   0.917   6.019
19438TIP3    H179729   5.217   0.872   6.013
19438TIP3    H279730   5.328   0.904   6.110
19439TIP3   OH279731   3.884   5.091   4.479
19439TIP3    H179732   3.854   5.181   4.466
19439TIP3    H279733   3.963   5.083   4.426
19440TIP3   OH279734   3.609   4.408  14.879
19440TIP3    H179735   3.571   4.355  14.948
19440TIP3    H279736   3.682   4.453  14.922
19441TIP3   OH279737   0.596   3.876   5.378
19441TIP3    H179738   0.519   3.820   5.365
19441TIP3    H279739   0.658   3.846   5.312
19442TIP3   OH279740   0.857   5.801   0.312
19442TIP3    H179741   0.921   5.823   0.380
19442TIP3    H279742   0.774   5.794   0.360
19443TIP3   OH279743   0.481   6.202   4.053
19443TIP3    H179744   0.564   6.220   4.096
19443TIP3    H279745   0.501   6.201   3.959
19444TIP3   OH279746   3.465   5.398  14.884
19444TIP3    H179747   3.429   5.401  14.796
19444TIP3    H279748   3.449   5.308  14.913
19445TIP3   OH279749   4.289   3.017  14.239
19445TIP3    H179750   4.384   3.001  14.240
19445TIP3    H279751   4.276   3.089  14.300
19446TIP3   OH279752   3.096   2.817   5.233
19446TIP3    H179753   3.040   2.816   5.311
19446TIP3    H279754   3.129   2.906   5.228
19447TIP3   OH279755   2.606   6.014   5.353
19447TIP3    H179756   2.609   5.940   5.414
19447TIP3    H279757   2.654   5.983   5.276
19448TIP3   OH279758   3.499   5.604  14.073
19448TIP3    H179759   3.446   5.679  14.101
19448TIP3    H279760   3.436   5.532  14.067
19449TIP3   OH279761   1.149   5.569   3.423
19449TIP3    H179762   1.237   5.558   3.458
19449TIP3    H279763   1.137   5.664   3.417
19450TIP3   OH279764   4.615   5.851  15.770
19450TIP3    H179765   4.611   5.939  15.809
19450TIP3    H279766   4.524   5.828  15.754
19451TIP3   OH279767   5.630   4.047   1.050
19451TIP3    H179768   5.630   4.033   1.145
19451TIP3    H279769   5.718   4.022   1.022
19452TIP3   OH279770   4.178   1.380   0.518
19452TIP3    H179771   4.090   1.350   0.496
19452TIP3    H279772   4.211   1.314   0.580
19453TIP3   OH279773   2.944   5.367   4.272
19453TIP3    H179774   2.915   5.280   4.243
19453TIP3    H279775   2.937   5.363   4.368
19454TIP3   OH279776   1.457   6.143   4.964
19454TIP3    H179777   1.364   6.153   4.945
19454TIP3    H279778   1.501   6.188   4.892
19455TIP3   OH279779   5.581   6.755  17.113
19455TIP3    H179780   5.657   6.697  17.122
19455TIP3    H279781   5.506   6.695  17.105
19456TIP3   OH279782   4.087   2.408   2.255
19456TIP3    H179783   4.101   2.474   2.324
19456TIP3    H279784   4.019   2.351   2.291
19457TIP3   OH279785   4.175   3.435  11.685
19457TIP3    H179786   4.117   3.426  11.610
19457TIP3    H279787   4.201   3.527  11.685
19458TIP3   OH279788   0.268   4.803   2.105
19458TIP3    H179789   0.184   4.759   2.117
19458TIP3    H279790   0.250   4.871   2.039
19459TIP3   OH279791   4.681   0.208   0.715
19459TIP3    H179792   4.730   0.158   0.781
19459TIP3    H279793   4.688   0.156   0.635
19460TIP3   OH279794   2.732   6.622   4.178
19460TIP3    H179795   2.647   6.586   4.151
19460TIP3    H279796   2.731   6.615   4.274
19461TIP3   OH279797   2.132   2.234  16.340
19461TIP3    H179798   2.218   2.273  16.347
19461TIP3    H279799   2.139   2.152  16.389
19462TIP3   OH279800   6.561   3.262   2.140
19462TIP3    H179801   6.472   3.240   2.113
19462TIP3    H279802   6.591   3.183   2.186
19463TIP3   OH279803   6.585   0.473   4.847
19463TIP3    H179804   6.512   0.412   4.846
19463TIP3    H279805   6.662   0.420   4.825
19464TIP3   OH279806   1.698   3.023   5.451
19464TIP3    H179807   1.612   3.012   5.490
19464TIP3    H279808   1.717   2.938   5.411
19465TIP3   OH279809   6.536   0.872   1.482
19465TIP3    H179810   6.590   0.836   1.552
19465TIP3    H279811   6.479   0.935   1.525
19466TIP3   OH279812   5.766   3.507  15.130
19466TIP3    H179813   5.834   3.439  15.130
19466TIP3    H279814   5.806   3.581  15.174
19467TIP3   OH279815   3.328   6.065  14.631
19467TIP3    H179816   3.370   6.105  14.708
19467TIP3    H279817   3.235   6.063  14.653
19468TIP3   OH279818   4.347   2.486   4.543
19468TIP3    H179819   4.289   2.551   4.503
19468TIP3    H279820   4.294   2.446   4.612
19469TIP3   OH279821   4.467   6.745  16.328
19469TIP3    H179822   4.560   6.769  16.335
19469TIP3    H279823   4.445   6.759  16.236
19470TIP3   OH279824   0.429   0.946  13.037
19470TIP3    H179825   0.336   0.952  13.014
19470TIP3    H279826   0.437   0.861  13.081
19471TIP3   OH279827   3.669   1.207  14.937
19471TIP3    H179828   3.600   1.265  14.905
19471TIP3    H279829   3.675   1.226  15.030
19472TIP3   OH279830   3.436   6.534   3.146
19472TIP3    H179831   3.503   6.595   3.176
19472TIP3    H279832   3.469   6.447   3.171
19473TIP3   OH279833   0.006   0.095  14.543
19473TIP3    H179834  -0.076   0.069  14.585
19473TIP3    H279835   0.018   0.033  14.472
19474TIP3   OH279836   1.164   1.531  11.498
19474TIP3    H179837   1.134   1.622  11.501
19474TIP3    H279838   1.203   1.521  11.412
19475TIP3   OH279839   1.103   2.795  14.966
19475TIP3    H179840   1.136   2.714  15.005
19475TIP3    H279841   1.115   2.861  15.034
19476TIP3   OH279842   3.211   4.267   0.436
19476TIP3    H179843   3.227   4.361   0.427
19476TIP3    H279844   3.223   4.250   0.529
19477TIP3   OH279845   2.848   6.296   0.837
19477TIP3    H179846   2.808   6.209   0.837
19477TIP3    H279847   2.803   6.343   0.907
19478TIP3   OH279848   2.697   2.299   1.627
19478TIP3    H179849   2.774   2.349   1.601
19478TIP3    H279850   2.654   2.276   1.544
19479TIP3   OH279851   1.647   2.684  10.560
19479TIP3    H179852   1.685   2.772  10.556
19479TIP3    H279853   1.718   2.626  10.534
19480TIP3   OH279854   4.507   4.924   1.265
19480TIP3    H179855   4.518   4.846   1.210
19480TIP3    H279856   4.511   4.997   1.203
19481TIP3   OH279857   0.139   2.931  15.434
19481TIP3    H179858   0.192   3.006  15.408
19481TIP3    H279859   0.052   2.967  15.451
19482TIP3   OH279860   6.388   2.289   0.701
19482TIP3    H179861   6.321   2.351   0.671
19482TIP3    H279862   6.468   2.341   0.705
19483TIP3   OH279863   5.282   3.558   2.437
19483TIP3    H179864   5.339   3.617   2.485
19483TIP3    H279865   5.201   3.556   2.487
19484TIP3   OH279866   0.253   0.423  15.337
19484TIP3    H179867   0.316   0.361  15.301
19484TIP3    H279868   0.232   0.481  15.263
19485TIP3   OH279869   3.658   4.781  11.274
19485TIP3    H179870   3.574   4.821  11.295
19485TIP3    H279871   3.646   4.744  11.187
19486TIP3   OH279872   3.811   0.664   0.738
19486TIP3    H179873   3.804   0.757   0.759
19486TIP3    H279874   3.722   0.630   0.749
19487TIP3   OH279875   2.034   3.618  10.904
19487TIP3    H179876   2.127   3.603  10.885
19487TIP3    H279877   1.988   3.591  10.825
19488TIP3   OH279878   0.021   5.654   4.736
19488TIP3    H179879   0.047   5.598   4.662
19488TIP3    H279880   0.027   5.596   4.812
19489TIP3   OH279881   4.598   4.627   2.821
19489TIP3    H179882   4.522   4.576   2.792
19489TIP3    H279883   4.652   4.637   2.743
19490TIP3   OH279884   5.952   1.761  13.308
19490TIP3    H179885   5.937   1.667  13.294
19490TIP3    H279886   6.026   1.783  13.252
19491TIP3   OH279887   4.553   3.031  13.209
19491TIP3    H179888   4.617   2.960  13.208
19491TIP3    H279889   4.587   3.095  13.147
19492TIP3   OH279890   5.186   1.401   3.674
19492TIP3    H179891   5.142   1.343   3.613
19492TIP3    H279892   5.171   1.362   3.760
19493TIP3   OH279893   2.202   5.780   1.029
19493TIP3    H179894   2.141   5.848   1.058
19493TIP3    H279895   2.270   5.779   1.095
19494TIP3   OH279896   2.897   1.505  10.678
19494TIP3    H179897   2.947   1.511  10.597
19494TIP3    H279898   2.863   1.416  10.679
19495TIP3   OH279899   3.064   4.261  15.650
19495TIP3    H179900   3.021   4.345  15.634
19495TIP3    H279901   3.151   4.285  15.683
19496TIP3   OH279902   3.317   1.659  15.442
19496TIP3    H179903   3.387   1.722  15.457
19496TIP3    H279904   3.251   1.679  15.509
19497TIP3   OH279905   4.435   3.779   4.943
19497TIP3    H179906   4.469   3.762   5.031
19497TIP3    H279907   4.510   3.817   4.896
19498TIP3   OH279908   6.695   1.171   4.659
19498TIP3    H179909   6.784   1.159   4.691
19498TIP3    H279910   6.651   1.223   4.727
19499TIP3   OH279911   5.430   3.599  12.262
19499TIP3    H179912   5.354   3.626  12.210
19499TIP3    H279913   5.465   3.681  12.297
19500TIP3   OH279914   4.045   6.019  10.524
19500TIP3    H179915   4.140   6.005  10.522
19500TIP3    H279916   4.034   6.097  10.578
19501TIP3   OH279917   5.108   4.259   2.621
19501TIP3    H179918   5.132   4.174   2.660
19501TIP3    H279919   5.040   4.293   2.679
19502TIP3   OH279920   2.510   5.237  11.759
19502TIP3    H179921   2.458   5.244  11.840
19502TIP3    H279922   2.593   5.199  11.788
19503TIP3   OH279923   6.724   1.981   2.970
19503TIP3    H179924   6.688   1.970   2.882
19503TIP3    H279925   6.688   2.065   2.999
19504TIP3   OH279926   4.045   3.754  12.802
19504TIP3    H179927   3.967   3.809  12.810
19504TIP3    H279928   4.110   3.796  12.858
19505TIP3   OH279929   6.103   4.499   6.060
19505TIP3    H179930   6.020   4.544   6.043
19505TIP3    H279931   6.109   4.493   6.155
19506TIP3   OH279932   0.234   4.597  17.111
19506TIP3    H179933   0.226   4.692  17.124
19506TIP3    H279934   0.175   4.559  17.176
19507TIP3   OH279935   6.307   1.874   4.367
19507TIP3    H179936   6.291   1.796   4.420
19507TIP3    H279937   6.382   1.851   4.313
19508TIP3   OH279938   6.426   1.015   5.353
19508TIP3    H179939   6.499   1.044   5.298
19508TIP3    H279940   6.348   1.034   5.302
19509TIP3   OH279941   0.765   3.309   4.385
19509TIP3    H179942   0.745   3.325   4.293
19509TIP3    H279943   0.682   3.283   4.424
19510TIP3   OH279944   4.741   4.786  14.513
19510TIP3    H179945   4.677   4.801  14.444
19510TIP3    H279946   4.717   4.849  14.581
19511TIP3   OH279947   5.658   5.198  14.935
19511TIP3    H179948   5.754   5.200  14.927
19511TIP3    H279949   5.639   5.109  14.966
19512TIP3   OH279950   5.257   1.441   4.449
19512TIP3    H179951   5.331   1.389   4.418
19512TIP3    H279952   5.280   1.531   4.427
19513TIP3   OH279953   0.741   1.464   4.354
19513TIP3    H179954   0.680   1.428   4.289
19513TIP3    H279955   0.694   1.458   4.437
19514TIP3   OH279956   1.321   2.232   3.594
19514TIP3    H179957   1.308   2.206   3.503
19514TIP3    H279958   1.382   2.305   3.590
19515TIP3   OH279959   2.941   0.474  15.288
19515TIP3    H179960   2.877   0.465  15.218
19515TIP3    H279961   2.989   0.391  15.287
19516TIP3   OH279962   1.293   6.417   2.098
19516TIP3    H179963   1.307   6.402   2.005
19516TIP3    H279964   1.308   6.331   2.138
19517TIP3   OH279965   4.271   0.837   1.522
19517TIP3    H179966   4.257   0.866   1.612
19517TIP3    H279967   4.362   0.807   1.520
19518TIP3   OH279968   0.711   4.887  12.989
19518TIP3    H179969   0.698   4.940  12.911
19518TIP3    H279970   0.666   4.805  12.970
19519TIP3   OH279971   2.194   4.093  16.910
19519TIP3    H179972   2.248   4.024  16.949
19519TIP3    H279973   2.251   4.135  16.846
19520TIP3   OH279974   5.418   1.999  17.000
19520TIP3    H179975   5.486   1.933  16.989
19520TIP3    H279976   5.465   2.080  17.021
19521TIP3   OH279977   4.903   3.769   0.507
19521TIP3    H179978   4.970   3.730   0.563
19521TIP3    H279979   4.827   3.780   0.564
19522TIP3   OH279980   5.709   4.207  16.999
19522TIP3    H179981   5.780   4.143  16.995
19522TIP3    H279982   5.692   4.230  16.908
19523TIP3   OH279983   3.289   1.778  11.455
19523TIP3    H179984   3.276   1.689  11.423
19523TIP3    H279985   3.331   1.825  11.383
19524TIP3   OH279986   4.466   5.371   5.806
19524TIP3    H179987   4.544   5.408   5.849
19524TIP3    H279988   4.393   5.417   5.847
19525TIP3   OH279989   1.516   5.014   3.345
19525TIP3    H179990   1.446   4.950   3.333
19525TIP3    H279991   1.561   4.985   3.425
19526TIP3   OH279992   0.700   2.569   4.981
19526TIP3    H179993   0.745   2.555   5.065
19526TIP3    H279994   0.650   2.650   4.995
19527TIP3   OH279995   1.278   5.224  16.664
19527TIP3    H179996   1.190   5.262  16.667
19527TIP3    H279997   1.287   5.181  16.749
19528TIP3   OH279998   6.668   6.713  16.042
19528TIP3    H179999   6.688   6.790  15.987
19528TIP3    H280000   6.589   6.739  16.090
19529TIP3   OH280001   5.202   2.540   5.052
19529TIP3    H180002   5.117   2.496   5.043
19529TIP3    H280003   5.263   2.469   5.071
19530TIP3   OH280004   2.392   4.772   2.789
19530TIP3    H180005   2.423   4.791   2.878
19530TIP3    H280006   2.363   4.681   2.792
19531TIP3   OH280007   3.958   5.152  12.629
19531TIP3    H180008   4.016   5.085  12.667
19531TIP3    H280009   4.016   5.207  12.577
19532TIP3   OH280010   0.580   5.628   4.613
19532TIP3    H180011   0.593   5.709   4.564
19532TIP3    H280012   0.556   5.564   4.546
19533TIP3   OH280013   6.135   0.350  17.013
19533TIP3    H180014   6.158   0.260  17.034
19533TIP3    H280015   6.135   0.353  16.917
19534TIP3   OH280016   1.411   3.683  14.484
19534TIP3    H180017   1.347   3.748  14.454
19534TIP3    H280018   1.496   3.722  14.462
19535TIP3   OH280019   5.647   6.518   1.146
19535TIP3    H180020   5.698   6.518   1.227
19535TIP3    H280021   5.578   6.582   1.162
19536TIP3   OH280022   2.737   1.956   3.335
19536TIP3    H180023   2.699   2.036   3.299
19536TIP3    H280024   2.701   1.950   3.424
19537TIP3   OH280025   2.259   4.952   4.870
19537TIP3    H180026   2.327   4.965   4.936
19537TIP3    H280027   2.245   5.039   4.833
19538TIP3   OH280028   3.751   2.318   2.959
19538TIP3    H180029   3.663   2.356   2.951
19538TIP3    H280030   3.756   2.287   3.049
19539TIP3   OH280031   0.366   4.970  16.160
19539TIP3    H180032   0.448   4.957  16.113
19539TIP3    H280033   0.299   4.967  16.092
19540TIP3   OH280034   2.443   2.445   1.393
19540TIP3    H180035   2.362   2.436   1.444
19540TIP3    H280036   2.481   2.528   1.424
19541TIP3   OH280037   2.429   5.741  11.870
19541TIP3    H180038   2.478   5.718  11.790
19541TIP3    H280039   2.363   5.805  11.840
19542TIP3   OH280040   6.439   0.330   3.647
19542TIP3    H180041   6.455   0.238   3.668
19542TIP3    H280042   6.398   0.366   3.725
19543TIP3   OH280043   5.161   2.020   5.350
19543TIP3    H180044   5.237   1.970   5.318
19543TIP3    H280045   5.186   2.048   5.438
19544TIP3   OH280046   4.146   0.183  15.973
19544TIP3    H180047   4.073   0.194  15.913
19544TIP3    H280048   4.170   0.272  16.000
19545TIP3   OH280049   2.083   3.491   4.526
19545TIP3    H180050   2.151   3.424   4.532
19545TIP3    H280051   2.025   3.460   4.456
19546TIP3   OH280052   4.728   6.227  16.612
19546TIP3    H180053   4.784   6.194  16.542
19546TIP3    H280054   4.704   6.316  16.584
19547TIP3   OH280055   1.996   1.510  16.991
19547TIP3    H180056   1.901   1.521  16.988
19547TIP3    H280057   2.008   1.426  17.035
19548TIP3   OH280058   2.880   4.695   4.389
19548TIP3    H180059   2.835   4.772   4.354
19548TIP3    H280060   2.811   4.642   4.428
19549TIP3   OH280061   0.015   5.309  16.636
19549TIP3    H180062  -0.059   5.257  16.604
19549TIP3    H280063   0.092   5.259  16.611
19550TIP3   OH280064   2.212   0.248  13.994
19550TIP3    H180065   2.126   0.217  13.965
19550TIP3    H280066   2.227   0.328  13.943
19551TIP3   OH280067   2.844   3.138   0.885
19551TIP3    H180068   2.852   3.151   0.980
19551TIP3    H280069   2.774   3.073   0.876
19552TIP3   OH280070   4.788   2.244  16.912
19552TIP3    H180071   4.858   2.309  16.918
19552TIP3    H280072   4.832   2.163  16.886
19553TIP3   OH280073   0.733   5.923   2.390
19553TIP3    H180074   0.794   5.991   2.418
19553TIP3    H280075   0.738   5.856   2.459
19554TIP3   OH280076   2.417   1.816  16.858
19554TIP3    H180077   2.464   1.736  16.882
19554TIP3    H280078   2.478   1.887  16.879
19555TIP3   OH280079   5.306   6.251  14.488
19555TIP3    H180080   5.375   6.186  14.502
19555TIP3    H280081   5.352   6.326  14.448
19556TIP3   OH280082   5.700   5.819   4.932
19556TIP3    H180083   5.716   5.902   4.978
19556TIP3    H280084   5.764   5.818   4.861
19557TIP3   OH280085   4.296   2.785   3.664
19557TIP3    H180086   4.354   2.710   3.666
19557TIP3    H280087   4.344   2.855   3.707
19558TIP3   OH280088   1.149   4.262  11.343
19558TIP3    H180089   1.161   4.353  11.370
19558TIP3    H280090   1.236   4.232  11.318
19559TIP3   OH280091   4.903   0.559  10.308
19559TIP3    H180092   4.890   0.643  10.351
19559TIP3    H280093   4.984   0.569  10.257
19560TIP3   OH280094   3.780   5.723  13.375
19560TIP3    H180095   3.869   5.701  13.346
19560TIP3    H280096   3.724   5.660  13.330
19561TIP3   OH280097   2.337   5.738   0.609
19561TIP3    H180098   2.277   5.717   0.537
19561TIP3    H280099   2.410   5.677   0.599
19562TIP3   OH280100   3.887   1.099   3.765
19562TIP3    H180101   3.891   1.017   3.814
19562TIP3    H280102   3.964   1.148   3.794
19563TIP3   OH280103   4.993   4.088  15.999
19563TIP3    H180104   4.921   4.093  15.936
19563TIP3    H280105   4.965   4.144  16.071
19564TIP3   OH280106   3.357   2.314   4.593
19564TIP3    H180107   3.370   2.243   4.656
19564TIP3    H280108   3.393   2.392   4.637
19565TIP3   OH280109   0.523   6.782  11.056
19565TIP3    H180110   0.504   6.875  11.063
19565TIP3    H280111   0.612   6.778  11.021
19566TIP3   OH280112   0.352   1.904  16.686
19566TIP3    H180113   0.371   1.950  16.768
19566TIP3    H280114   0.258   1.915  16.673
19567TIP3   OH280115   1.868   5.773  14.141
19567TIP3    H180116   1.820   5.708  14.090
19567TIP3    H280117   1.898   5.724  14.218
19568TIP3   OH280118   0.800   3.902  13.679
19568TIP3    H180119   0.855   3.868  13.750
19568TIP3    H280120   0.719   3.929  13.723
19569TIP3   OH280121   2.713   2.912   6.261
19569TIP3    H180122   2.706   2.869   6.346
19569TIP3    H280123   2.631   2.960   6.251
19570TIP3   OH280124   3.144   5.726   0.708
19570TIP3    H180125   3.099   5.795   0.659
19570TIP3    H280126   3.229   5.718   0.666
19571TIP3   OH280127   0.636   2.882   2.554
19571TIP3    H180128   0.587   2.801   2.541
19571TIP3    H280129   0.668   2.876   2.644
19572TIP3   OH280130   6.596   3.300  14.217
19572TIP3    H180131   6.614   3.300  14.123
19572TIP3    H280132   6.625   3.214  14.247
19573TIP3   OH280133   5.096   1.545   1.199
19573TIP3    H180134   5.010   1.520   1.166
19573TIP3    H280135   5.083   1.561   1.292
19574TIP3   OH280136   3.073   2.126  10.773
19574TIP3    H180137   3.047   2.205  10.821
19574TIP3    H280138   3.157   2.147  10.734
19575TIP3   OH280139   4.286   3.221  14.408
19575TIP3    H180140   4.209   3.273  14.428
19575TIP3    H280141   4.358   3.284  14.409
19576TIP3   OH280142   2.533   6.588  15.521
19576TIP3    H180143   2.463   6.546  15.571
19576TIP3    H280144   2.577   6.644  15.584
19577TIP3   OH280145   6.365   1.037  13.637
19577TIP3    H180146   6.413   1.120  13.640
19577TIP3    H280147   6.433   0.970  13.641
19578TIP3   OH280148   4.168   5.083   2.935
19578TIP3    H180149   4.212   5.164   2.959
19578TIP3    H280150   4.217   5.015   2.981
19579TIP3   OH280151   5.211   3.481  11.325
19579TIP3    H180152   5.242   3.507  11.238
19579TIP3    H280153   5.231   3.556  11.381
19580TIP3   OH280154   3.708   2.567  10.870
19580TIP3    H180155   3.698   2.531  10.782
19580TIP3    H280156   3.687   2.495  10.928
19581TIP3   OH280157   5.185   0.553  11.441
19581TIP3    H180158   5.095   0.526  11.458
19581TIP3    H280159   5.179   0.617  11.371
19582TIP3   OH280160   5.124   1.230   5.454
19582TIP3    H180161   5.092   1.300   5.396
19582TIP3    H280162   5.211   1.209   5.420
19583TIP3   OH280163   4.552   1.560   5.131
19583TIP3    H180164   4.632   1.516   5.103
19583TIP3    H280165   4.504   1.575   5.049
19584TIP3   OH280166   3.426   3.402   0.473
19584TIP3    H180167   3.453   3.380   0.563
19584TIP3    H280168   3.470   3.484   0.454
19585TIP3   OH280169   3.424   3.351   6.057
19585TIP3    H180170   3.416   3.257   6.044
19585TIP3    H280171   3.365   3.371   6.129
19586TIP3   OH280172   4.884   1.058  13.983
19586TIP3    H180173   4.904   0.970  13.952
19586TIP3    H280174   4.964   1.108  13.967
19587TIP3   OH280175   0.550   4.456  16.772
19587TIP3    H180176   0.589   4.410  16.697
19587TIP3    H280177   0.606   4.533  16.784
19588TIP3   OH280178   6.287   1.219  13.455
19588TIP3    H180179   6.357   1.153  13.449
19588TIP3    H280180   6.227   1.198  13.384
19589TIP3   OH280181   0.760   4.585  15.592
19589TIP3    H180182   0.737   4.623  15.677
19589TIP3    H280183   0.748   4.491  15.604
19590TIP3   OH280184   5.208   5.112  17.175
19590TIP3    H180185   5.121   5.135  17.208
19590TIP3    H280186   5.191   5.058  17.098
19591TIP3   OH280187   3.699   4.168   5.271
19591TIP3    H180188   3.619   4.162   5.323
19591TIP3    H280189   3.760   4.108   5.314
19592TIP3   OH280190   3.394   1.875  14.784
19592TIP3    H180191   3.337   1.805  14.752
19592TIP3    H280192   3.334   1.937  14.825
19593TIP3   OH280193   1.571   4.702   0.356
19593TIP3    H180194   1.501   4.763   0.334
19593TIP3    H280195   1.538   4.653   0.431
19594TIP3   OH280196   1.979   1.364   4.738
19594TIP3    H180197   1.909   1.429   4.745
19594TIP3    H280198   1.978   1.317   4.821
19595TIP3   OH280199   0.408   3.473  13.003
19595TIP3    H180200   0.451   3.451  12.921
19595TIP3    H280201   0.462   3.430  13.070
19596TIP3   OH280202   3.779   6.285   3.689
19596TIP3    H180203   3.862   6.270   3.734
19596TIP3    H280204   3.761   6.202   3.644
19597TIP3   OH280205   4.994   5.487  12.542
19597TIP3    H180206   5.002   5.439  12.460
19597TIP3    H280207   5.059   5.447  12.600
19598TIP3   OH280208   0.251   5.368   3.591
19598TIP3    H180209   0.205   5.447   3.619
19598TIP3    H280210   0.292   5.335   3.672
19599TIP3   OH280211   6.354   3.188  15.489
19599TIP3    H180212   6.414   3.253  15.451
19599TIP3    H280213   6.270   3.208  15.449
19600TIP3   OH280214   2.850   1.524  11.113
19600TIP3    H180215   2.756   1.526  11.098
19600TIP3    H280216   2.887   1.491  11.031
19601TIP3   OH280217   3.393   0.731   3.355
19601TIP3    H180218   3.452   0.706   3.284
19601TIP3    H280219   3.430   0.690   3.433
19602TIP3   OH280220   5.962   4.751   4.052
19602TIP3    H180221   5.957   4.825   4.112
19602TIP3    H280222   6.055   4.743   4.031
19603TIP3   OH280223   2.695   1.169  11.739
19603TIP3    H180224   2.740   1.085  11.730
19603TIP3    H280225   2.603   1.149  11.727
19604TIP3   OH280226   1.645   3.125  13.083
19604TIP3    H180227   1.644   3.148  12.991
19604TIP3    H280228   1.682   3.202  13.127
19605TIP3   OH280229   5.904   1.921  15.084
19605TIP3    H180230   5.887   1.953  14.995
19605TIP3    H280231   5.952   1.993  15.126
19606TIP3   OH280232   2.574   0.484   4.815
19606TIP3    H180233   2.600   0.573   4.837
19606TIP3    H280234   2.582   0.435   4.896
19607TIP3   OH280235   2.854   2.161   2.936
19607TIP3    H180236   2.774   2.117   2.908
19607TIP3    H280237   2.831   2.254   2.934
19608TIP3   OH280238   6.434   2.738  15.867
19608TIP3    H180239   6.359   2.798  15.865
19608TIP3    H280240   6.479   2.755  15.784
19609TIP3   OH280241   5.373   1.160  15.893
19609TIP3    H180242   5.396   1.153  15.986
19609TIP3    H280243   5.395   1.074  15.857
19610TIP3   OH280244   0.803   3.024  12.638
19610TIP3    H180245   0.812   2.965  12.562
19610TIP3    H280246   0.809   3.112  12.600
19611TIP3   OH280247   3.262   3.456  12.652
19611TIP3    H180248   3.167   3.447  12.658
19611TIP3    H280249   3.275   3.531  12.594
19612TIP3   OH280250   0.953   4.487   5.558
19612TIP3    H180251   0.885   4.554   5.570
19612TIP3    H280252   0.921   4.412   5.607
19613TIP3   OH280253   3.799   2.954   5.507
19613TIP3    H180254   3.823   3.039   5.543
19613TIP3    H280255   3.777   2.901   5.583
19614TIP3   OH280256   3.186   6.287   1.889
19614TIP3    H180257   3.160   6.292   1.797
19614TIP3    H280258   3.147   6.364   1.930
19615TIP3   OH280259   1.120   3.605  15.666
19615TIP3    H180260   1.215   3.620  15.664
19615TIP3    H280261   1.086   3.677  15.720
19616TIP3   OH280262   6.099   5.580   3.966
19616TIP3    H180263   6.075   5.534   4.046
19616TIP3    H280264   6.061   5.667   3.975
19617TIP3   OH280265   0.726   2.864  11.295
19617TIP3    H180266   0.768   2.922  11.359
19617TIP3    H280267   0.770   2.780  11.306
19618TIP3   OH280268   2.885   3.411   5.677
19618TIP3    H180269   2.913   3.368   5.596
19618TIP3    H280270   2.806   3.459   5.652
19619TIP3   OH280271   0.386   2.514   1.324
19619TIP3    H180272   0.305   2.562   1.339
19619TIP3    H280273   0.372   2.429   1.366
19620TIP3   OH280274   2.437   6.655   6.002
19620TIP3    H180275   2.515   6.688   5.957
19620TIP3    H280276   2.472   6.602   6.074
19621TIP3   OH280277   6.045   5.556   4.269
19621TIP3    H180278   6.114   5.521   4.325
19621TIP3    H280279   5.963   5.536   4.314
19622TIP3   OH280280   1.112   4.639  16.946
19622TIP3    H180281   1.118   4.723  16.900
19622TIP3    H280282   1.200   4.602  16.941
19623TIP3   OH280283   5.426   3.686  16.727
19623TIP3    H180284   5.408   3.774  16.761
19623TIP3    H280285   5.476   3.643  16.796
19624TIP3   OH280286   4.480   3.822   5.493
19624TIP3    H180287   4.526   3.866   5.564
19624TIP3    H280288   4.433   3.892   5.448
19625TIP3   OH280289   3.845   6.359   1.125
19625TIP3    H180290   3.893   6.365   1.207
19625TIP3    H280291   3.768   6.415   1.138
19626TIP3   OH280292   5.305   4.384   1.403
19626TIP3    H180293   5.260   4.423   1.329
19626TIP3    H280294   5.245   4.316   1.435
19627TIP3   OH280295   5.121   5.284  15.676
19627TIP3    H180296   5.142   5.251  15.588
19627TIP3    H280297   5.182   5.238  15.734
19628TIP3   OH280298   0.136   0.249  15.505
19628TIP3    H180299   0.159   0.325  15.451
19628TIP3    H280300   0.172   0.269  15.591
19629TIP3   OH280301   4.494   1.915   2.750
19629TIP3    H180302   4.508   1.855   2.823
19629TIP3    H280303   4.483   1.858   2.674
19630TIP3   OH280304   1.693   6.462  15.595
19630TIP3    H180305   1.670   6.521  15.668
19630TIP3    H280306   1.684   6.516  15.517
19631TIP3   OH280307   4.063   0.670   4.150
19631TIP3    H180308   4.060   0.576   4.168
19631TIP3    H280309   4.032   0.710   4.232
19632TIP3   OH280310   2.269   5.697  17.013
19632TIP3    H180311   2.337   5.736  17.068
19632TIP3    H280312   2.315   5.669  16.934
19633TIP3   OH280313   3.172   2.017   4.540
19633TIP3    H180314   3.206   2.056   4.459
19633TIP3    H280315   3.202   1.926   4.537
19634TIP3   OH280316   2.382   4.662  14.235
19634TIP3    H180317   2.396   4.753  14.209
19634TIP3    H280318   2.312   4.667  14.300
19635TIP3   OH280319   4.381   6.593   3.384
19635TIP3    H180320   4.341   6.545   3.312
19635TIP3    H280321   4.458   6.542   3.408
19636TIP3   OH280322   1.368   1.194  12.274
19636TIP3    H180323   1.401   1.280  12.298
19636TIP3    H280324   1.343   1.202  12.182
19637TIP3   OH280325   4.647   6.762   1.437
19637TIP3    H180326   4.605   6.720   1.512
19637TIP3    H280327   4.626   6.705   1.363
19638TIP3   OH280328   5.376   2.414  15.546
19638TIP3    H180329   5.415   2.331  15.519
19638TIP3    H280330   5.430   2.444  15.618
19639TIP3   OH280331   1.007   1.995   0.655
19639TIP3    H180332   1.041   1.988   0.744
19639TIP3    H280333   1.059   1.932   0.605
19640TIP3   OH280334   2.170   4.592   2.881
19640TIP3    H180335   2.105   4.601   2.951
19640TIP3    H280336   2.248   4.558   2.925
19641TIP3   OH280337   4.927   2.612   2.438
19641TIP3    H180338   4.835   2.588   2.449
19641TIP3    H280339   4.947   2.590   2.347
19642TIP3   OH280340   0.610   4.156  16.401
19642TIP3    H180341   0.516   4.147  16.420
19642TIP3    H280342   0.621   4.110  16.318
19643TIP3   OH280343   1.170   3.190  12.131
19643TIP3    H180344   1.117   3.215  12.207
19643TIP3    H280345   1.132   3.238  12.058
19644TIP3   OH280346   5.622   1.581   5.714
19644TIP3    H180347   5.639   1.575   5.620
19644TIP3    H280348   5.580   1.497   5.736
19645TIP3   OH280349   0.478   2.970  15.152
19645TIP3    H180350   0.556   3.025  15.164
19645TIP3    H280351   0.500   2.912  15.079
19646TIP3   OH280352   5.121   1.622  13.361
19646TIP3    H180353   5.095   1.705  13.322
19646TIP3    H280354   5.053   1.603  13.426
19647TIP3   OH280355   3.221   3.502  14.410
19647TIP3    H180356   3.138   3.516  14.363
19647TIP3    H280357   3.288   3.529  14.347
19648TIP3   OH280358   0.603   2.391  12.430
19648TIP3    H180359   0.583   2.324  12.495
19648TIP3    H280360   0.606   2.345  12.347
19649TIP3   OH280361   5.675   4.946   0.829
19649TIP3    H180362   5.594   4.985   0.796
19649TIP3    H280363   5.710   4.896   0.755
19650TIP3   OH280364   5.667   6.597  13.915
19650TIP3    H180365   5.753   6.620  13.950
19650TIP3    H280366   5.655   6.505  13.939
19651TIP3   OH280367   1.834   6.536   3.297
19651TIP3    H180368   1.785   6.520   3.378
19651TIP3    H280369   1.837   6.450   3.254
19652TIP3   OH280370   0.369   2.803   0.119
19652TIP3    H180371   0.304   2.740   0.148
19652TIP3    H280372   0.437   2.801   0.187
19653TIP3   OH280373   0.819   1.075  16.334
19653TIP3    H180374   0.882   1.017  16.291
19653TIP3    H280375   0.752   1.092  16.268
19654TIP3   OH280376   0.704   2.509   3.608
19654TIP3    H180377   0.736   2.576   3.548
19654TIP3    H280378   0.690   2.432   3.553
19655TIP3   OH280379   2.351   3.734   3.872
19655TIP3    H180380   2.415   3.663   3.879
19655TIP3    H280381   2.336   3.744   3.778
19656TIP3   OH280382   1.138   1.210   0.571
19656TIP3    H180383   1.129   1.302   0.595
19656TIP3    H280384   1.232   1.192   0.581
19657TIP3   OH280385   6.218   1.202  12.359
19657TIP3    H180386   6.288   1.143  12.331
19657TIP3    H280387   6.156   1.145  12.405
19658TIP3   OH280388   2.232   4.953   5.598
19658TIP3    H180389   2.216   4.943   5.692
19658TIP3    H280390   2.167   5.017   5.569
19659TIP3   OH280391   1.358   3.397   3.458
19659TIP3    H180392   1.298   3.327   3.432
19659TIP3    H280393   1.443   3.354   3.468
19660TIP3   OH280394   6.639   4.834   0.866
19660TIP3    H180395   6.640   4.914   0.919
19660TIP3    H280396   6.588   4.857   0.788
19661TIP3   OH280397   3.409   5.241   1.500
19661TIP3    H180398   3.345   5.189   1.451
19661TIP3    H280399   3.390   5.222   1.592
19662TIP3   OH280400   4.223   1.057   6.243
19662TIP3    H180401   4.139   1.015   6.221
19662TIP3    H280402   4.211   1.149   6.220
19663TIP3   OH280403   1.555   5.661  12.297
19663TIP3    H180404   1.463   5.678  12.312
19663TIP3    H280405   1.601   5.719  12.358
19664TIP3   OH280406   1.347   3.045  13.172
19664TIP3    H180407   1.283   3.036  13.102
19664TIP3    H280408   1.428   3.069  13.128
19665TIP3   OH280409   6.411   0.997  15.709
19665TIP3    H180410   6.396   0.914  15.664
19665TIP3    H280411   6.475   0.976  15.777
19666TIP3   OH280412   5.189   5.886   0.353
19666TIP3    H180413   5.240   5.812   0.319
19666TIP3    H280414   5.144   5.921   0.276
19667TIP3   OH280415   6.452   2.794  16.458
19667TIP3    H180416   6.430   2.771  16.368
19667TIP3    H280417   6.370   2.789  16.506
19668TIP3   OH280418   5.061   0.241  11.936
19668TIP3    H180419   5.146   0.199  11.953
19668TIP3    H280420   5.084   0.329  11.906
19669TIP3   OH280421   5.233   4.922  11.375
19669TIP3    H180422   5.282   4.981  11.318
19669TIP3    H280423   5.301   4.871  11.421
19670TIP3   OH280424   3.433   3.051   5.375
19670TIP3    H180425   3.503   3.088   5.322
19670TIP3    H280426   3.457   3.073   5.465
19671TIP3   OH280427   0.796   5.122   1.555
19671TIP3    H180428   0.835   5.070   1.625
19671TIP3    H280429   0.717   5.159   1.593
19672TIP3   OH280430   0.976   5.902  15.794
19672TIP3    H180431   0.928   5.920  15.875
19672TIP3    H280432   0.914   5.921  15.724
19673TIP3   OH280433   3.677   1.969   1.645
19673TIP3    H180434   3.644   2.055   1.621
19673TIP3    H280435   3.680   1.920   1.563
19674TIP3   OH280436   0.529   2.937  12.610
19674TIP3    H180437   0.559   2.847  12.621
19674TIP3    H280438   0.603   2.983  12.571
19675TIP3   OH280439   3.423   2.961   4.085
19675TIP3    H180440   3.356   2.916   4.137
19675TIP3    H280441   3.456   2.894   4.025
19676TIP3   OH280442   4.738   0.483   2.929
19676TIP3    H180443   4.744   0.391   2.904
19676TIP3    H280444   4.656   0.514   2.891
19677TIP3   OH280445   3.859   3.004  13.359
19677TIP3    H180446   3.845   2.928  13.415
19677TIP3    H280447   3.820   2.981  13.275
19678TIP3   OH280448   1.659   4.578  14.054
19678TIP3    H180449   1.699   4.628  13.982
19678TIP3    H280450   1.588   4.530  14.012
19679TIP3   OH280451   5.564   5.024  14.499
19679TIP3    H180452   5.583   4.948  14.445
19679TIP3    H280453   5.605   5.097  14.453
19680TIP3   OH280454   6.098   4.919   3.776
19680TIP3    H180455   6.159   4.879   3.838
19680TIP3    H280456   6.108   5.013   3.790
19681TIP3   OH280457   0.670   1.612  12.131
19681TIP3    H180458   0.610   1.538  12.128
19681TIP3    H280459   0.698   1.618  12.222
19682TIP3   OH280460   0.809   6.224   3.888
19682TIP3    H180461   0.754   6.271   3.825
19682TIP3    H280462   0.881   6.189   3.835
19683TIP3   OH280463   6.568   3.741  14.270
19683TIP3    H180464   6.508   3.677  14.308
19683TIP3    H280465   6.519   3.779  14.197
19684TIP3   OH280466   3.059   6.064   2.999
19684TIP3    H180467   3.081   6.026   2.914
19684TIP3    H280468   3.134   6.121   3.020
19685TIP3   OH280469   6.570   1.699  11.745
19685TIP3    H180470   6.510   1.676  11.816
19685TIP3    H280471   6.638   1.751  11.787
19686TIP3   OH280472   3.179   5.180   0.154
19686TIP3    H180473   3.236   5.118   0.108
19686TIP3    H280474   3.158   5.246   0.088
19687TIP3   OH280475   0.564   6.579   1.341
19687TIP3    H180476   0.629   6.511   1.361
19687TIP3    H280477   0.553   6.574   1.246
19688TIP3   OH280478   5.739   3.753  12.273
19688TIP3    H180479   5.779   3.840  12.280
19688TIP3    H280480   5.707   3.734  12.361
19689TIP3   OH280481   0.046   0.215   1.886
19689TIP3    H180482   0.087   0.159   1.820
19689TIP3    H280483   0.046   0.302   1.846
19690TIP3   OH280484   1.710   2.790  12.040
19690TIP3    H180485   1.633   2.804  12.094
19690TIP3    H280486   1.721   2.695  12.038
19691TIP3   OH280487   2.626   5.603   4.894
19691TIP3    H180488   2.617   5.508   4.895
19691TIP3    H280489   2.586   5.632   4.976
19692TIP3   OH280490   3.201   1.111   5.042
19692TIP3    H180491   3.213   1.202   5.069
19692TIP3    H280492   3.287   1.085   5.008
19693TIP3   OH280493   3.319   0.503   1.060
19693TIP3    H180494   3.247   0.480   1.002
19693TIP3    H280495   3.305   0.595   1.081
19694TIP3   OH280496   2.461   6.343   0.886
19694TIP3    H180497   2.389   6.353   0.949
19694TIP3    H280498   2.510   6.267   0.918
19695TIP3   OH280499   3.673   2.817  14.363
19695TIP3    H180500   3.658   2.811  14.457
19695TIP3    H280501   3.594   2.782  14.323
19696TIP3   OH280502   1.198   3.701   1.721
19696TIP3    H180503   1.119   3.659   1.754
19696TIP3    H280504   1.269   3.641   1.744
19697TIP3   OH280505   0.089   3.590   2.080
19697TIP3    H180506   0.155   3.553   2.021
19697TIP3    H280507   0.082   3.526   2.151
19698TIP3   OH280508   5.682   4.266  14.515
19698TIP3    H180509   5.730   4.184  14.511
19698TIP3    H280510   5.667   4.281  14.609
19699TIP3   OH280511   5.846   6.632  12.810
19699TIP3    H180512   5.773   6.660  12.754
19699TIP3    H280513   5.831   6.677  12.893
19700TIP3   OH280514   3.879   4.514  12.644
19700TIP3    H180515   3.949   4.528  12.708
19700TIP3    H280516   3.866   4.600  12.603
19701TIP3   OH280517   3.239   2.139   1.620
19701TIP3    H180518   3.304   2.078   1.584
19701TIP3    H280519   3.223   2.202   1.550
19702TIP3   OH280520   5.196   4.047   6.218
19702TIP3    H180521   5.263   3.991   6.259
19702TIP3    H280522   5.215   4.135   6.251
19703TIP3   OH280523   0.291   6.369   4.309
19703TIP3    H180524   0.343   6.312   4.366
19703TIP3    H280525   0.271   6.314   4.233
19704TIP3   OH280526   6.433   6.325   5.369
19704TIP3    H180527   6.458   6.238   5.401
19704TIP3    H280528   6.508   6.352   5.316
19705TIP3   OH280529   6.643   1.885   5.801
19705TIP3    H180530   6.676   1.802   5.768
19705TIP3    H280531   6.579   1.861   5.868
19706TIP3   OH280532   3.284   2.767   0.968
19706TIP3    H180533   3.216   2.723   1.019
19706TIP3    H280534   3.343   2.804   1.034
19707TIP3   OH280535   1.243   0.945  15.567
19707TIP3    H180536   1.301   1.004  15.616
19707TIP3    H280537   1.292   0.862  15.562
19708TIP3   OH280538   4.766   4.144  11.207
19708TIP3    H180539   4.813   4.131  11.125
19708TIP3    H280540   4.722   4.061  11.223
19709TIP3   OH280541   3.865   6.269  14.678
19709TIP3    H180542   3.955   6.239  14.665
19709TIP3    H280543   3.873   6.362  14.697
19710TIP3   OH280544   2.795   0.938  15.860
19710TIP3    H180545   2.769   1.029  15.848
19710TIP3    H280546   2.891   0.940  15.858
19711TIP3   OH280547   3.659   3.309   2.531
19711TIP3    H180548   3.658   3.334   2.623
19711TIP3    H280549   3.582   3.350   2.493
19712TIP3   OH280550   3.971   5.190   0.143
19712TIP3    H180551   3.888   5.236   0.143
19712TIP3    H280552   4.030   5.247   0.093
19713TIP3   OH280553   2.571   0.671   0.096
19713TIP3    H180554   2.608   0.607   0.035
19713TIP3    H280555   2.631   0.745   0.091
19714TIP3   OH280556   6.395   4.709   2.299
19714TIP3    H180557   6.408   4.614   2.298
19714TIP3    H280558   6.460   4.742   2.237
19715TIP3   OH280559   0.605   1.386   4.792
19715TIP3    H180560   0.590   1.433   4.873
19715TIP3    H280561   0.633   1.453   4.729
19716TIP3   OH280562   4.285   3.481  15.439
19716TIP3    H180563   4.282   3.438  15.353
19716TIP3    H280564   4.369   3.455  15.476
19717TIP3   OH280565   1.698   0.636   1.536
19717TIP3    H180566   1.615   0.680   1.515
19717TIP3    H280567   1.765   0.691   1.495
19718TIP3   OH280568   3.981   5.698  12.433
19718TIP3    H180569   4.004   5.716  12.525
19718TIP3    H280570   3.889   5.672  12.436
19719TIP3   OH280571   6.263   3.315  11.547
19719TIP3    H180572   6.206   3.385  11.579
19719TIP3    H280573   6.240   3.306  11.454
19720TIP3   OH280574   3.365   3.785  12.322
19720TIP3    H180575   3.440   3.728  12.336
19720TIP3    H280576   3.365   3.844  12.398
19721TIP3   OH280577   0.608   4.609  16.456
19721TIP3    H180578   0.626   4.701  16.474
19721TIP3    H280579   0.513   4.604  16.451
19722TIP3   OH280580   3.814   5.667   6.151
19722TIP3    H180581   3.909   5.665   6.137
19722TIP3    H280582   3.787   5.754   6.121
19723TIP3   OH280583   4.920   2.516   6.789
19723TIP3    H180584   4.839   2.556   6.820
19723TIP3    H280585   4.952   2.575   6.721
19724TIP3   OH280586   5.801   5.234   0.580
19724TIP3    H180587   5.824   5.280   0.499
19724TIP3    H280588   5.885   5.206   0.617
19725TIP3   OH280589   4.613   5.878  14.968
19725TIP3    H180590   4.591   5.847  15.056
19725TIP3    H280591   4.553   5.831  14.910
19726TIP3   OH280592   2.879   0.965   3.698
19726TIP3    H180593   2.871   0.901   3.769
19726TIP3    H280594   2.838   0.923   3.623
19727TIP3   OH280595   2.803   1.609   2.001
19727TIP3    H180596   2.793   1.539   2.066
19727TIP3    H280597   2.897   1.619   1.991
19728TIP3   OH280598   4.330   2.347   3.025
19728TIP3    H180599   4.384   2.268   3.014
19728TIP3    H280600   4.240   2.313   3.033
19729TIP3   OH280601   0.211   6.638  14.061
19729TIP3    H180602   0.252   6.723  14.046
19729TIP3    H280603   0.121   6.648  14.032
19730TIP3   OH280604   3.594   1.520  12.885
19730TIP3    H180605   3.645   1.441  12.869
19730TIP3    H280606   3.509   1.487  12.916
19731TIP3   OH280607   2.030   1.101   0.997
19731TIP3    H180608   2.111   1.056   1.022
19731TIP3    H280609   1.969   1.030   0.977
19732TIP3   OH280610   0.159   2.400   1.647
19732TIP3    H180611   0.206   2.317   1.649
19732TIP3    H280612   0.210   2.458   1.704
19733TIP3   OH280613   1.076   4.852  13.850
19733TIP3    H180614   1.066   4.901  13.932
19733TIP3    H280615   1.071   4.918  13.781
19734TIP3   OH280616   3.623   2.519  16.999
19734TIP3    H180617   3.640   2.586  16.933
19734TIP3    H280618   3.612   2.438  16.949
19735TIP3   OH280619   4.383   1.959  13.145
19735TIP3    H180620   4.382   1.969  13.240
19735TIP3    H280621   4.405   1.867  13.131
19736TIP3   OH280622   3.244   5.883  13.067
19736TIP3    H180623   3.151   5.902  13.074
19736TIP3    H280624   3.279   5.954  13.013
19737TIP3   OH280625   6.356   0.810   3.998
19737TIP3    H180626   6.353   0.899   4.032
19737TIP3    H280627   6.287   0.806   3.932
19738TIP3   OH280628   1.757   0.361   1.587
19738TIP3    H180629   1.745   0.341   1.679
19738TIP3    H280630   1.727   0.452   1.578
19739TIP3   OH280631   4.436   0.226  17.001
19739TIP3    H180632   4.483   0.193  17.078
19739TIP3    H280633   4.344   0.205  17.017
19740TIP3   OH280634   1.395   1.081  16.289
19740TIP3    H180635   1.467   1.101  16.349
19740TIP3    H280636   1.357   1.166  16.267
19741TIP3   OH280637   4.456   6.404   1.505
19741TIP3    H180638   4.487   6.341   1.570
19741TIP3    H280639   4.490   6.488   1.535
19742TIP3   OH280640   4.398   5.093  10.455
19742TIP3    H180641   4.335   5.047  10.400
19742TIP3    H280642   4.425   5.029  10.521
19743TIP3   OH280643   4.377   4.004  15.803
19743TIP3    H180644   4.284   4.014  15.781
19743TIP3    H280645   4.398   4.083  15.853
19744TIP3   OH280646   5.009   1.914  15.838
19744TIP3    H180647   5.099   1.882  15.829
19744TIP3    H280648   5.018   2.005  15.865
19745TIP3   OH280649   2.917   4.001   3.379
19745TIP3    H180650   2.887   4.011   3.469
19745TIP3    H280651   2.840   4.018   3.325
19746TIP3   OH280652   6.624   0.382  15.204
19746TIP3    H180653   6.623   0.436  15.283
19746TIP3    H280654   6.700   0.413  15.154
19747TIP3   OH280655   5.039   6.024   4.332
19747TIP3    H180656   4.974   5.974   4.282
19747TIP3    H280657   5.113   6.032   4.273
19748TIP3   OH280658   0.920   1.880   2.592
19748TIP3    H180659   0.993   1.829   2.627
19748TIP3    H280660   0.950   1.971   2.595
19749TIP3   OH280661   4.753   2.157  11.405
19749TIP3    H180662   4.755   2.106  11.324
19749TIP3    H280663   4.663   2.188  11.412
19750TIP3   OH280664   5.312   3.838  12.704
19750TIP3    H180665   5.396   3.884  12.706
19750TIP3    H280666   5.320   3.778  12.629
19751TIP3   OH280667   0.471   4.206   2.485
19751TIP3    H180668   0.405   4.147   2.523
19751TIP3    H280669   0.426   4.290   2.476
19752TIP3   OH280670   0.368   1.800   3.885
19752TIP3    H180671   0.331   1.853   3.956
19752TIP3    H280672   0.438   1.854   3.849
19753TIP3   OH280673   5.301   2.764   3.435
19753TIP3    H180674   5.351   2.695   3.480
19753TIP3    H280675   5.352   2.782   3.355
19754TIP3   OH280676   0.174   5.784  13.203
19754TIP3    H180677   0.190   5.877  13.187
19754TIP3    H280678   0.199   5.771  13.294
19755TIP3   OH280679   1.433   4.579   5.371
19755TIP3    H180680   1.436   4.492   5.412
19755TIP3    H280681   1.429   4.561   5.277
19756TIP3   OH280682   4.877   3.020  12.037
19756TIP3    H180683   4.937   3.059  11.974
19756TIP3    H280684   4.790   3.043  12.005
19757TIP3   OH280685   5.410   5.948   4.944
19757TIP3    H180686   5.369   5.877   4.894
19757TIP3    H280687   5.491   5.910   4.978
19758TIP3   OH280688   6.768   6.104  11.634
19758TIP3    H180689   6.695   6.047  11.610
19758TIP3    H280690   6.729   6.191  11.641
19759TIP3   OH280691   2.662   2.548  12.682
19759TIP3    H180692   2.586   2.580  12.633
19759TIP3    H280693   2.626   2.488  12.747
19760TIP3   OH280694   5.137   3.374  12.490
19760TIP3    H180695   5.090   3.429  12.428
19760TIP3    H280696   5.073   3.307  12.516
19761TIP3   OH280697   2.523   2.881  13.684
19761TIP3    H180698   2.504   2.913  13.772
19761TIP3    H280699   2.480   2.796  13.680
19762TIP3   OH280700   5.237   4.095  15.352
19762TIP3    H180701   5.194   4.027  15.403
19762TIP3    H280702   5.271   4.049  15.275
19763TIP3   OH280703   6.624   5.225  12.724
19763TIP3    H180704   6.648   5.317  12.718
19763TIP3    H280705   6.544   5.225  12.777
19764TIP3   OH280706   2.785   2.247   5.933
19764TIP3    H180707   2.705   2.272   5.886
19764TIP3    H280708   2.820   2.329   5.966
19765TIP3   OH280709   3.645   3.299  14.629
19765TIP3    H180710   3.677   3.219  14.672
19765TIP3    H280711   3.692   3.370  14.673
19766TIP3   OH280712   2.830   0.927   4.152
19766TIP3    H180713   2.792   0.889   4.231
19766TIP3    H280714   2.799   1.018   4.151
19767TIP3   OH280715   0.917   2.344   2.523
19767TIP3    H180716   0.861   2.317   2.449
19767TIP3    H280717   0.894   2.435   2.538
19768TIP3   OH280718   5.202   3.103  13.337
19768TIP3    H180719   5.236   3.192  13.348
19768TIP3    H280720   5.134   3.111  13.271
19769TIP3   OH280721   4.648   2.857  16.515
19769TIP3    H180722   4.690   2.933  16.475
19769TIP3    H280723   4.688   2.781  16.472
19770TIP3   OH280724   1.836   6.378  15.861
19770TIP3    H180725   1.769   6.384  15.794
19770TIP3    H280726   1.918   6.392  15.814
19771TIP3   OH280727   6.548   3.025   3.883
19771TIP3    H180728   6.491   3.011   3.959
19771TIP3    H280729   6.629   2.980   3.906
19772TIP3   OH280730   5.718   4.122   6.458
19772TIP3    H180731   5.644   4.064   6.477
19772TIP3    H280732   5.693   4.206   6.496
19773TIP3   OH280733   4.430   6.582   2.007
19773TIP3    H180734   4.502   6.572   2.069
19773TIP3    H280735   4.433   6.674   1.981
19774TIP3   OH280736   0.155   1.131  13.979
19774TIP3    H180737   0.225   1.066  13.972
19774TIP3    H280738   0.193   1.210  13.939
19775TIP3   OH280739   5.290   5.682   2.997
19775TIP3    H180740   5.272   5.759   3.050
19775TIP3    H280741   5.256   5.609   3.049
19776TIP3   OH280742   3.293   2.817  16.063
19776TIP3    H180743   3.245   2.900  16.059
19776TIP3    H280744   3.303   2.799  16.156
19777TIP3   OH280745   3.281   0.163   4.749
19777TIP3    H180746   3.313   0.116   4.826
19777TIP3    H280747   3.284   0.098   4.679
19778TIP3   OH280748   5.419   3.294  11.142
19778TIP3    H180749   5.416   3.384  11.109
19778TIP3    H280750   5.407   3.239  11.065
19779TIP3   OH280751   1.172   2.761   2.449
19779TIP3    H180752   1.192   2.823   2.380
19779TIP3    H280753   1.095   2.797   2.494
19780TIP3   OH280754   3.544   4.593   2.641
19780TIP3    H180755   3.581   4.586   2.553
19780TIP3    H280756   3.619   4.612   2.697
19781TIP3   OH280757   5.818   2.476   4.897
19781TIP3    H180758   5.727   2.459   4.875
19781TIP3    H280759   5.817   2.561   4.940
19782TIP3   OH280760   1.173   4.226  14.669
19782TIP3    H180761   1.262   4.257  14.648
19782TIP3    H280762   1.116   4.276  14.612
19783TIP3   OH280763   2.363   5.213   2.292
19783TIP3    H180764   2.342   5.125   2.258
19783TIP3    H280765   2.315   5.218   2.375
19784TIP3   OH280766   6.767   2.314   3.425
19784TIP3    H180767   6.740   2.399   3.390
19784TIP3    H280768   6.696   2.254   3.400
19785TIP3   OH280769   6.490   0.677   5.596
19785TIP3    H180770   6.469   0.677   5.689
19785TIP3    H280771   6.452   0.596   5.563
19786TIP3   OH280772   4.456   4.939  13.241
19786TIP3    H180773   4.404   5.017  13.258
19786TIP3    H280774   4.425   4.875  13.305
19787TIP3   OH280775   0.923   1.982   2.054
19787TIP3    H180776   0.998   1.931   2.023
19787TIP3    H280777   0.853   1.961   1.993
19788TIP3   OH280778   5.913   3.520  12.013
19788TIP3    H180779   5.927   3.518  12.108
19788TIP3    H280780   5.939   3.609  11.987
19789TIP3   OH280781   4.454   1.849  11.767
19789TIP3    H180782   4.413   1.769  11.799
19789TIP3    H280783   4.545   1.843  11.797
19790TIP3   OH280784   4.519   3.467   5.927
19790TIP3    H180785   4.574   3.501   5.856
19790TIP3    H280786   4.436   3.513   5.918
19791TIP3   OH280787   2.641   3.557   5.618
19791TIP3    H180788   2.686   3.637   5.644
19791TIP3    H280789   2.568   3.549   5.679
19792TIP3   OH280790   3.466   5.689   0.052
19792TIP3    H180791   3.437   5.708  -0.037
19792TIP3    H280792   3.545   5.741   0.064
19793TIP3   OH280793   3.117   2.412  12.462
19793TIP3    H180794   3.081   2.490  12.503
19793TIP3    H280795   3.140   2.440  12.373
19794TIP3   OH280796   3.820   0.285  12.436
19794TIP3    H180797   3.787   0.218  12.496
19794TIP3    H280798   3.825   0.364  12.489
19795TIP3   OH280799   4.909   6.392   1.158
19795TIP3    H180800   4.966   6.315   1.149
19795TIP3    H280801   4.847   6.368   1.226
19796TIP3   OH280802   4.817   3.773   0.961
19796TIP3    H180803   4.812   3.682   0.931
19796TIP3    H280804   4.904   3.781   1.000
19797TIP3   OH280805   6.670   4.504  13.859
19797TIP3    H180806   6.589   4.552  13.842
19797TIP3    H280807   6.659   4.467  13.946
19798TIP3   OH280808   4.852   4.766   4.547
19798TIP3    H180809   4.802   4.723   4.617
19798TIP3    H280810   4.812   4.734   4.466
19799TIP3   OH280811   6.049   1.681  16.483
19799TIP3    H180812   6.145   1.680  16.482
19799TIP3    H280813   6.025   1.623  16.556
19800TIP3   OH280814   2.231   5.442  16.786
19800TIP3    H180815   2.236   5.445  16.690
19800TIP3    H280816   2.320   5.419  16.813
19801TIP3   OH280817   4.309   5.211   6.635
19801TIP3    H180818   4.234   5.155   6.654
19801TIP3    H280819   4.385   5.153   6.644
19802TIP3   OH280820   0.451   0.729  15.113
19802TIP3    H180821   0.543   0.751  15.128
19802TIP3    H280822   0.453   0.656  15.051
19803TIP3   OH280823   5.666   6.414   5.011
19803TIP3    H180824   5.600   6.425   5.080
19803TIP3    H280825   5.628   6.456   4.934
19804TIP3   OH280826   0.218   1.774  15.445
19804TIP3    H180827   0.219   1.829  15.524
19804TIP3    H280828   0.131   1.789  15.407
19805TIP3   OH280829   3.440   0.228  15.766
19805TIP3    H180830   3.525   0.219  15.809
19805TIP3    H280831   3.411   0.316  15.790
19806TIP3   OH280832   6.235   4.299   5.936
19806TIP3    H180833   6.238   4.225   5.996
19806TIP3    H280834   6.181   4.364   5.980
19807TIP3   OH280835   1.877   0.043   3.719
19807TIP3    H180836   1.949  -0.014   3.744
19807TIP3    H280837   1.889   0.122   3.773
19808TIP3   OH280838   4.927   6.036  10.602
19808TIP3    H180839   4.953   5.976  10.532
19808TIP3    H280840   5.009   6.062  10.643
19809TIP3   OH280841   5.508   0.705  11.037
19809TIP3    H180842   5.530   0.751  10.956
19809TIP3    H280843   5.438   0.644  11.012
19810TIP3   OH280844   6.712   0.853   4.223
19810TIP3    H180845   6.712   0.931   4.166
19810TIP3    H280846   6.659   0.878   4.298
19811TIP3   OH280847   3.151   4.641  17.133
19811TIP3    H180848   3.097   4.720  17.134
19811TIP3    H280849   3.176   4.631  17.041
19812TIP3   OH280850   3.321   3.870   3.331
19812TIP3    H180851   3.239   3.858   3.378
19812TIP3    H280852   3.389   3.850   3.395
19813TIP3   OH280853   3.042   6.298   1.645
19813TIP3    H180854   3.030   6.213   1.602
19813TIP3    H280855   3.064   6.357   1.574
19814TIP3   OH280856   3.243   0.226  10.532
19814TIP3    H180857   3.288   0.259  10.454
19814TIP3    H280858   3.213   0.305  10.577
19815TIP3   OH280859   6.414   5.766   4.450
19815TIP3    H180860   6.445   5.731   4.366
19815TIP3    H280861   6.491   5.806   4.489
19816TIP3   OH280862   4.734   2.656   1.548
19816TIP3    H180863   4.765   2.733   1.499
19816TIP3    H280864   4.661   2.690   1.600
19817TIP3   OH280865   4.337   6.083  16.467
19817TIP3    H180866   4.431   6.087  16.488
19817TIP3    H280867   4.324   6.152  16.402
19818TIP3   OH280868   3.320   5.988  17.169
19818TIP3    H180869   3.295   6.064  17.115
19818TIP3    H280870   3.408   5.966  17.139
19819TIP3   OH280871   5.531   1.633   6.278
19819TIP3    H180872   5.446   1.596   6.301
19819TIP3    H280873   5.538   1.713   6.329
19820TIP3   OH280874   6.207   4.309   1.790
19820TIP3    H180875   6.155   4.282   1.866
19820TIP3    H280876   6.154   4.377   1.748
19821TIP3   OH280877   4.532   0.874   0.361
19821TIP3    H180878   4.540   0.968   0.347
19821TIP3    H280879   4.622   0.841   0.355
19822TIP3   OH280880   4.188   2.573   2.461
19822TIP3    H180881   4.156   2.658   2.488
19822TIP3    H280882   4.224   2.534   2.541
19823TIP3   OH280883   5.665   2.438   3.294
19823TIP3    H180884   5.684   2.459   3.385
19823TIP3    H280885   5.684   2.344   3.286
19824TIP3   OH280886   5.887   3.891   1.983
19824TIP3    H180887   5.922   3.927   1.901
19824TIP3    H280888   5.886   3.796   1.968
19825TIP3   OH280889   4.365   3.859  12.589
19825TIP3    H180890   4.412   3.822  12.664
19825TIP3    H280891   4.326   3.940  12.622
19826TIP3   OH280892   5.755   5.836   4.051
19826TIP3    H180893   5.845   5.813   4.074
19826TIP3    H280894   5.714   5.861   4.134
19827TIP3   OH280895   0.221   1.846   5.557
19827TIP3    H180896   0.142   1.796   5.579
19827TIP3    H280897   0.262   1.795   5.487
19828TIP3   OH280898   3.171   0.881   5.677
19828TIP3    H180899   3.120   0.885   5.597
19828TIP3    H280900   3.217   0.965   5.681
19829TIP3   OH280901   5.641   6.441   2.938
19829TIP3    H180902   5.714   6.501   2.954
19829TIP3    H280903   5.570   6.497   2.906
19830TIP3   OH280904   6.129   6.732   5.631
19830TIP3    H180905   6.052   6.724   5.687
19830TIP3    H280906   6.146   6.643   5.600
19831TIP3   OH280907   4.586   1.034  14.383
19831TIP3    H180908   4.502   1.003  14.347
19831TIP3    H280909   4.633   1.068  14.306
19832TIP3   OH280910   0.871   0.200   2.224
19832TIP3    H180911   0.927   0.135   2.265
19832TIP3    H280912   0.859   0.267   2.291
19833TIP3   OH280913   0.889   0.173  16.173
19833TIP3    H180914   0.797   0.169  16.149
19833TIP3    H280915   0.898   0.256  16.220
19834TIP3   OH280916   3.266   1.347  11.736
19834TIP3    H180917   3.328   1.420  11.733
19834TIP3    H280918   3.190   1.381  11.783
19835TIP3   OH280919   5.562   4.234  15.946
19835TIP3    H180920   5.638   4.207  15.895
19835TIP3    H280921   5.505   4.158  15.947
19836TIP3   OH280922   2.133   5.605  15.622
19836TIP3    H180923   2.169   5.688  15.654
19836TIP3    H280924   2.097   5.626  15.536
19837TIP3   OH280925   4.055   2.978  16.560
19837TIP3    H180926   4.132   2.977  16.617
19837TIP3    H280927   3.981   2.965  16.619
19838TIP3   OH280928   5.697   3.631  11.310
19838TIP3    H180929   5.676   3.571  11.382
19838TIP3    H280930   5.683   3.579  11.231
19839TIP3   OH280931   1.957   3.541   2.755
19839TIP3    H180932   2.007   3.468   2.719
19839TIP3    H280933   1.968   3.612   2.692
19840TIP3   OH280934   1.837   2.596   1.634
19840TIP3    H180935   1.873   2.680   1.664
19840TIP3    H280936   1.913   2.548   1.602
19841TIP3   OH280937   2.802   1.252  12.603
19841TIP3    H180938   2.825   1.341  12.630
19841TIP3    H280939   2.833   1.246  12.512
19842TIP3   OH280940   3.337   5.882   4.234
19842TIP3    H180941   3.403   5.941   4.196
19842TIP3    H280942   3.388   5.807   4.264
19843TIP3   OH280943   2.371   4.422   1.338
19843TIP3    H180944   2.406   4.505   1.373
19843TIP3    H280945   2.381   4.430   1.243
19844TIP3   OH280946   5.562   3.989  16.266
19844TIP3    H180947   5.613   4.018  16.190
19844TIP3    H280948   5.498   3.928  16.230
19845TIP3   OH280949   1.590   5.771  13.438
19845TIP3    H180950   1.645   5.842  13.405
19845TIP3    H280951   1.595   5.703  13.371
19846TIP3   OH280952   3.661   3.434   6.277
19846TIP3    H180953   3.738   3.470   6.320
19846TIP3    H280954   3.640   3.497   6.208
19847TIP3   OH280955   4.496   3.733  12.804
19847TIP3    H180956   4.563   3.674  12.839
19847TIP3    H280957   4.518   3.819  12.840
19848TIP3   OH280958   5.207   5.927  12.915
19848TIP3    H180959   5.160   6.011  12.912
19848TIP3    H280960   5.281   5.939  12.856
19849TIP3   OH280961   1.082   3.562  12.901
19849TIP3    H180962   0.987   3.569  12.904
19849TIP3    H280963   1.113   3.625  12.966
19850TIP3   OH280964   2.367   5.998  12.727
19850TIP3    H180965   2.279   5.973  12.757
19850TIP3    H280966   2.423   5.925  12.754
19851TIP3   OH280967   6.222   2.581   2.545
19851TIP3    H180968   6.195   2.665   2.583
19851TIP3    H280969   6.307   2.600   2.504
19852TIP3   OH280970   1.387   3.668   5.349
19852TIP3    H180971   1.325   3.598   5.371
19852TIP3    H280972   1.430   3.688   5.432
19853TIP3   OH280973   3.957   3.460   1.542
19853TIP3    H180974   3.885   3.517   1.516
19853TIP3    H280975   4.035   3.516   1.537
19854TIP3   OH280976   1.249   0.706   1.246
19854TIP3    H180977   1.278   0.718   1.337
19854TIP3    H280978   1.296   0.628   1.216
19855TIP3   OH280979   6.083   1.561  14.023
19855TIP3    H180980   6.041   1.645  14.004
19855TIP3    H280981   6.059   1.505  13.950
19856TIP3   OH280982   5.759   5.988   6.347
19856TIP3    H180983   5.738   6.049   6.276
19856TIP3    H280984   5.817   5.924   6.308
19857TIP3   OH280985   5.169   5.002  14.368
19857TIP3    H180986   5.092   5.053  14.346
19857TIP3    H280987   5.182   4.943  14.294
19858TIP3   OH280988   6.467   0.576   4.068
19858TIP3    H180989   6.453   0.573   4.162
19858TIP3    H280990   6.428   0.658   4.039
19859TIP3   OH280991   6.206   0.221   6.131
19859TIP3    H180992   6.214   0.156   6.202
19859TIP3    H280993   6.292   0.221   6.090
19860TIP3   OH280994   0.461   4.676   1.574
19860TIP3    H180995   0.489   4.707   1.660
19860TIP3    H280996   0.507   4.734   1.512
19861TIP3   OH280997   0.502   3.617   3.738
19861TIP3    H180998   0.571   3.672   3.775
19861TIP3    H280999   0.465   3.669   3.667
19862TIP3   OH281000   4.789   2.657  16.393
19862TIP3    H181001   4.880   2.629  16.398
19862TIP3    H281002   4.770   2.662  16.299
19863TIP3   OH281003   3.463   1.351   4.555
19863TIP3    H181004   3.530   1.367   4.621
19863TIP3    H281005   3.486   1.265   4.518
19864TIP3   OH281006   2.317   6.545   2.800
19864TIP3    H181007   2.356   6.572   2.717
19864TIP3    H281008   2.231   6.587   2.801
19865TIP3   OH281009   5.326   5.051  14.646
19865TIP3    H181010   5.282   5.129  14.613
19865TIP3    H281011   5.381   5.022  14.574
19866TIP3   OH281012   3.291   3.840   3.070
19866TIP3    H181013   3.333   3.873   3.150
19866TIP3    H281014   3.210   3.890   3.062
19867TIP3   OH281015   4.813   3.312  11.993
19867TIP3    H181016   4.842   3.266  11.914
19867TIP3    H281017   4.893   3.338  12.038
19868TIP3   OH281018   4.079   2.132  15.270
19868TIP3    H181019   4.170   2.104  15.281
19868TIP3    H281020   4.076   2.170  15.182
19869TIP3   OH281021   5.977   0.044  13.276
19869TIP3    H181022   5.999  -0.004  13.357
19869TIP3    H281023   6.010  -0.013  13.206
19870TIP3   OH281024   5.500   6.087  14.566
19870TIP3    H181025   5.465   6.001  14.589
19870TIP3    H281026   5.587   6.089  14.606
19871TIP3   OH281027   6.387   1.693   0.671
19871TIP3    H181028   6.475   1.658   0.653
19871TIP3    H281029   6.386   1.778   0.626
19872TIP3   OH281030   0.053   5.658   2.931
19872TIP3    H181031   0.062   5.751   2.952
19872TIP3    H281032  -0.041   5.644   2.923
19873TIP3   OH281033   5.400   5.220  11.401
19873TIP3    H181034   5.444   5.158  11.460
19873TIP3    H281035   5.399   5.176  11.316
19874TIP3   OH281036   0.665   3.938   2.597
19874TIP3    H181037   0.581   3.913   2.637
19874TIP3    H281038   0.664   4.034   2.597
19875TIP3   OH281039   6.052   4.469  11.684
19875TIP3    H181040   5.960   4.456  11.710
19875TIP3    H281041   6.102   4.419  11.749
19876TIP3   OH281042   1.628   4.267  11.449
19876TIP3    H181043   1.683   4.199  11.488
19876TIP3    H281044   1.677   4.348  11.462
19877TIP3   OH281045   3.144   3.529   4.514
19877TIP3    H181046   3.204   3.477   4.568
19877TIP3    H281047   3.193   3.607   4.491
19878TIP3   OH281048   6.115   4.870  10.808
19878TIP3    H181049   6.193   4.837  10.763
19878TIP3    H281050   6.119   4.831  10.895
19879TIP3   OH281051   4.725   4.439  15.379
19879TIP3    H181052   4.803   4.466  15.428
19879TIP3    H281053   4.747   4.353  15.344
19880TIP3   OH281054   2.764   5.865   1.858
19880TIP3    H181055   2.733   5.886   1.770
19880TIP3    H281056   2.717   5.925   1.915
19881TIP3   OH281057   4.283   5.376  13.622
19881TIP3    H181058   4.336   5.445  13.581
19881TIP3    H281059   4.305   5.381  13.715
19882TIP3   OH281060   1.259   0.862   4.550
19882TIP3    H181061   1.169   0.892   4.542
19882TIP3    H281062   1.307   0.938   4.581
19883TIP3   OH281063   3.589   1.272   0.830
19883TIP3    H181064   3.648   1.345   0.812
19883TIP3    H281065   3.501   1.310   0.826
19884TIP3   OH281066   1.098   1.807  15.163
19884TIP3    H181067   1.087   1.789  15.070
19884TIP3    H281068   1.186   1.776  15.184
19885TIP3   OH281069   6.354   3.559  15.554
19885TIP3    H181070   6.377   3.623  15.621
19885TIP3    H281071   6.287   3.601  15.501
19886TIP3   OH281072   5.772   3.401   0.614
19886TIP3    H181073   5.851   3.410   0.667
19886TIP3    H281074   5.757   3.488   0.578
19887TIP3   OH281075   2.258   3.720  11.964
19887TIP3    H181076   2.192   3.749  12.026
19887TIP3    H281077   2.212   3.662  11.904
19888TIP3   OH281078   6.038   6.255  11.630
19888TIP3    H181079   5.963   6.270  11.572
19888TIP3    H281080   6.048   6.159  11.632
19889TIP3   OH281081   1.569   3.889   3.436
19889TIP3    H181082   1.623   3.904   3.358
19889TIP3    H281083   1.479   3.891   3.402
19890TIP3   OH281084   5.311   3.855  15.219
19890TIP3    H181085   5.381   3.803  15.179
19890TIP3    H281086   5.254   3.790  15.260
19891TIP3   OH281087   3.127   3.459  10.683
19891TIP3    H181088   3.167   3.536  10.725
19891TIP3    H281089   3.174   3.450  10.600
19892TIP3   OH281090   0.531   0.902  12.150
19892TIP3    H181091   0.612   0.916  12.198
19892TIP3    H281092   0.464   0.947  12.201
19893TIP3   OH281093   1.250   6.711   4.040
19893TIP3    H181094   1.175   6.737   3.987
19893TIP3    H281095   1.242   6.616   4.048
19894TIP3   OH281096   3.516   0.245   4.245
19894TIP3    H181097   3.591   0.186   4.252
19894TIP3    H281098   3.496   0.248   4.151
19895TIP3   OH281099   4.540   6.672   0.162
19895TIP3    H181100   4.485   6.693   0.237
19895TIP3    H281101   4.502   6.591   0.126
19896TIP3   OH281102   0.403   6.652   0.324
19896TIP3    H181103   0.458   6.574   0.328
19896TIP3    H281104   0.422   6.692   0.239
19897TIP3   OH281105   5.449   1.162  16.161
19897TIP3    H181106   5.503   1.091  16.193
19897TIP3    H281107   5.454   1.230  16.229
19898TIP3   OH281108   2.351   5.480  12.655
19898TIP3    H181109   2.408   5.411  12.688
19898TIP3    H281110   2.316   5.522  12.734
19899TIP3   OH281111   1.545   6.560  14.201
19899TIP3    H181112   1.626   6.519  14.231
19899TIP3    H281113   1.506   6.597  14.280
19900TIP3   OH281114   2.226   1.890   5.746
19900TIP3    H181115   2.298   1.952   5.750
19900TIP3    H281116   2.149   1.942   5.723
19901TIP3   OH281117   1.659   4.096   4.873
19901TIP3    H181118   1.743   4.070   4.909
19901TIP3    H281119   1.656   4.058   4.785
19902TIP3   OH281120   3.814   1.936   5.648
19902TIP3    H181121   3.823   2.030   5.662
19902TIP3    H281122   3.794   1.901   5.735
19903TIP3   OH281123   3.988   2.851   6.747
19903TIP3    H181124   3.895   2.842   6.727
19903TIP3    H281125   3.992   2.926   6.808
19904TIP3   OH281126   6.304   5.983   5.810
19904TIP3    H181127   6.295   6.078   5.803
19904TIP3    H281128   6.257   5.960   5.890
19905TIP3   OH281129   5.270   3.818   2.241
19905TIP3    H181130   5.234   3.882   2.180
19905TIP3    H281131   5.194   3.781   2.285
19906TIP3   OH281132   1.097   6.422  15.799
19906TIP3    H181133   1.174   6.478  15.808
19906TIP3    H281134   1.034   6.475  15.750
19907TIP3   OH281135   3.251   3.796  11.606
19907TIP3    H181136   3.279   3.868  11.662
19907TIP3    H281137   3.332   3.752  11.581
19908TIP3   OH281138   5.378   1.136   2.818
19908TIP3    H181139   5.433   1.144   2.896
19908TIP3    H281140   5.434   1.092   2.753
19909TIP3   OH281141   4.185   2.113   0.792
19909TIP3    H181142   4.090   2.110   0.796
19909TIP3    H281143   4.205   2.113   0.698
19910TIP3   OH281144   4.122   5.011  12.994
19910TIP3    H181145   4.137   4.986  13.085
19910TIP3    H281146   4.126   5.107  12.995
19911TIP3   OH281147   5.893   6.698  16.327
19911TIP3    H181148   5.883   6.793  16.332
19911TIP3    H281149   5.844   6.673  16.248
19912TIP3   OH281150   1.654   3.829   5.155
19912TIP3    H181151   1.635   3.870   5.239
19912TIP3    H281152   1.746   3.803   5.161
19913TIP3   OH281153   4.644   1.556  14.902
19913TIP3    H181154   4.588   1.541  14.978
19913TIP3    H281155   4.719   1.605  14.936
19914TIP3   OH281156   6.397   3.389  13.038
19914TIP3    H181157   6.431   3.470  13.076
19914TIP3    H281158   6.475   3.338  13.015
19915TIP3   OH281159   0.296   0.632   1.266
19915TIP3    H181160   0.230   0.671   1.208
19915TIP3    H281161   0.302   0.541   1.238
19916TIP3   OH281162   5.567   4.408   0.063
19916TIP3    H181163   5.600   4.497   0.073
19916TIP3    H281164   5.512   4.410  -0.015
19917TIP3   OH281165   0.448   5.520  15.568
19917TIP3    H181166   0.405   5.475  15.640
19917TIP3    H281167   0.483   5.600  15.607
19918TIP3   OH281168   5.059   0.081  15.503
19918TIP3    H181169   5.099   0.139  15.438
19918TIP3    H281170   5.021   0.140  15.568
19919TIP3   OH281171   2.754   6.216   5.948
19919TIP3    H181172   2.753   6.283   6.017
19919TIP3    H281173   2.668   6.175   5.954
19920TIP3   OH281174   3.611   1.378   3.157
19920TIP3    H181175   3.638   1.344   3.243
19920TIP3    H281176   3.693   1.392   3.110
19921TIP3   OH281177   0.098   0.193   2.531
19921TIP3    H181178   0.156   0.172   2.458
19921TIP3    H281179   0.116   0.285   2.549
19922TIP3   OH281180   2.242   1.819  13.743
19922TIP3    H181181   2.303   1.858  13.807
19922TIP3    H281182   2.211   1.739  13.786
19923TIP3   OH281183   0.830   6.523   4.483
19923TIP3    H181184   0.895   6.544   4.551
19923TIP3    H281185   0.873   6.545   4.401
19924TIP3   OH281186   0.878   0.304   3.589
19924TIP3    H181187   0.857   0.364   3.517
19924TIP3    H281188   0.920   0.360   3.654
19925TIP3   OH281189   2.968   1.104  15.082
19925TIP3    H181190   3.034   1.164  15.047
19925TIP3    H281191   2.884   1.144  15.059
19926TIP3   OH281192   1.265   2.177  13.618
19926TIP3    H181193   1.360   2.186  13.622
19926TIP3    H281194   1.250   2.087  13.590
19927TIP3   OH281195   0.674   0.173   3.725
19927TIP3    H181196   0.741   0.240   3.715
19927TIP3    H281197   0.597   0.220   3.757
19928TIP3   OH281198   6.023   2.737   4.750
19928TIP3    H181199   6.092   2.742   4.817
19928TIP3    H281200   5.982   2.652   4.764
19929TIP3   OH281201   6.390   5.556  10.625
19929TIP3    H181202   6.358   5.472  10.593
19929TIP3    H281203   6.372   5.555  10.719
19930TIP3   OH281204   0.598   1.601  15.262
19930TIP3    H181205   0.666   1.545  15.226
19930TIP3    H281206   0.614   1.601  15.357
19931TIP3   OH281207   1.934   5.249   1.380
19931TIP3    H181208   1.955   5.318   1.317
19931TIP3    H281209   1.958   5.168   1.336
19932TIP3   OH281210   3.649   5.224   3.791
19932TIP3    H181211   3.735   5.197   3.824
19932TIP3    H281212   3.642   5.316   3.814
19933TIP3   OH281213   2.477   5.045   0.096
19933TIP3    H181214   2.484   4.960   0.054
19933TIP3    H281215   2.397   5.083   0.060
19934TIP3   OH281216   6.346   3.304  12.449
19934TIP3    H181217   6.368   3.221  12.408
19934TIP3    H281218   6.380   3.371  12.391
19935TIP3   OH281219   1.453   0.657   2.044
19935TIP3    H181220   1.357   0.657   2.042
19935TIP3    H281221   1.476   0.731   2.100
19936TIP3   OH281222   1.976   0.791   0.192
19936TIP3    H181223   1.993   0.876   0.234
19936TIP3    H281224   1.920   0.812   0.118
19937TIP3   OH281225   0.452   4.137  12.883
19937TIP3    H181226   0.433   4.228  12.905
19937TIP3    H281227   0.389   4.086  12.935
19938TIP3   OH281228   1.890   2.035  16.867
19938TIP3    H181229   1.871   2.085  16.947
19938TIP3    H281230   1.967   1.983  16.889
19939TIP3   OH281231   4.181   4.059  11.885
19939TIP3    H181232   4.165   3.967  11.903
19939TIP3    H281233   4.258   4.081  11.938
19940TIP3   OH281234   5.082   4.604   5.340
19940TIP3    H181235   5.003   4.649   5.370
19940TIP3    H281236   5.152   4.668   5.351
19941TIP3   OH281237   0.435   5.902  10.415
19941TIP3    H181238   0.359   5.950  10.448
19941TIP3    H281239   0.403   5.812  10.404
19942TIP3   OH281240   0.050   2.469  14.271
19942TIP3    H181241   0.105   2.533  14.225
19942TIP3    H281242   0.031   2.402  14.206
19943TIP3   OH281243   2.825   0.279   5.232
19943TIP3    H181244   2.769   0.202   5.223
19943TIP3    H281245   2.891   0.269   5.163
19944TIP3   OH281246   4.417   2.489  17.210
19944TIP3    H181247   4.391   2.421  17.148
19944TIP3    H281248   4.341   2.547  17.216
19945TIP3   OH281249   0.961   1.943  12.125
19945TIP3    H181250   1.024   1.944  12.197
19945TIP3    H281251   0.880   1.912  12.165
19946TIP3   OH281252   3.633   2.779  16.902
19946TIP3    H181253   3.729   2.776  16.899
19946TIP3    H281254   3.613   2.872  16.912
19947TIP3   OH281255   1.794   3.422   1.004
19947TIP3    H181256   1.813   3.328   1.005
19947TIP3    H281257   1.729   3.434   1.073
19948TIP3   OH281258   0.376   6.486   1.792
19948TIP3    H181259   0.351   6.531   1.711
19948TIP3    H281260   0.419   6.553   1.844
19949TIP3   OH281261   6.733   5.963   3.365
19949TIP3    H181262   6.670   5.989   3.432
19949TIP3    H281263   6.818   5.987   3.402
19950TIP3   OH281264   2.397   5.746   5.878
19950TIP3    H181265   2.434   5.784   5.958
19950TIP3    H281266   2.411   5.813   5.811
19951TIP3   OH281267   6.584   3.748   5.433
19951TIP3    H181268   6.548   3.724   5.348
19951TIP3    H281269   6.591   3.666   5.481
19952TIP3   OH281270   6.022   4.580   4.735
19952TIP3    H181271   5.928   4.588   4.749
19952TIP3    H281272   6.057   4.667   4.755
19953TIP3   OH281273   0.744   4.671  16.761
19953TIP3    H181274   0.809   4.708  16.701
19953TIP3    H281275   0.682   4.742  16.775
19954TIP3   OH281276   6.701   6.346  13.982
19954TIP3    H181277   6.652   6.333  14.064
19954TIP3    H281278   6.647   6.303  13.916
19955TIP3   OH281279   4.426   2.156  13.681
19955TIP3    H181280   4.417   2.153  13.776
19955TIP3    H281281   4.498   2.217  13.665
19956TIP3   OH281282   2.425   4.649   5.834
19956TIP3    H181283   2.486   4.626   5.904
19956TIP3    H281284   2.468   4.722   5.788
19957TIP3   OH281285   5.291   2.777   5.745
19957TIP3    H181286   5.350   2.707   5.716
19957TIP3    H281287   5.229   2.787   5.672
19958TIP3   OH281288   1.424   3.172  11.314
19958TIP3    H181289   1.440   3.259  11.277
19958TIP3    H281290   1.330   3.169  11.331
19959TIP3   OH281291   4.734   1.328   5.906
19959TIP3    H181292   4.732   1.418   5.873
19959TIP3    H281293   4.795   1.330   5.979
19960TIP3   OH281294   2.243   1.994  12.044
19960TIP3    H181295   2.209   2.076  12.007
19960TIP3    H281296   2.253   2.013  12.138
19961TIP3   OH281297   5.322   1.887   3.727
19961TIP3    H181298   5.286   1.810   3.683
19961TIP3    H281299   5.245   1.931   3.765
19962TIP3   OH281300   0.061   2.001   3.645
19962TIP3    H181301   0.063   2.076   3.704
19962TIP3    H281302  -0.032   1.981   3.634
19963TIP3   OH281303   0.896   0.886   2.207
19963TIP3    H181304   0.916   0.821   2.275
19963TIP3    H281305   0.924   0.969   2.244
19964TIP3   OH281306   4.419   6.688   2.533
19964TIP3    H181307   4.470   6.719   2.608
19964TIP3    H281308   4.404   6.595   2.551
19965TIP3   OH281309   4.967   4.930   0.729
19965TIP3    H181310   5.028   4.936   0.656
19965TIP3    H281311   4.928   5.017   0.735
19966TIP3   OH281312   4.256   1.346   0.196
19966TIP3    H181313   4.268   1.355   0.290
19966TIP3    H281314   4.339   1.308   0.165
19967TIP3   OH281315   4.006   5.253   0.678
19967TIP3    H181316   3.970   5.207   0.753
19967TIP3    H281317   3.971   5.206   0.602
19968TIP3   OH281318   4.208   2.199   4.574
19968TIP3    H181319   4.187   2.232   4.487
19968TIP3    H281320   4.128   2.212   4.625
19969TIP3   OH281321   2.943   1.937  13.027
19969TIP3    H181322   2.962   1.870  12.960
19969TIP3    H281323   2.960   2.020  12.982
19970TIP3   OH281324   3.390   0.798   0.796
19970TIP3    H181325   3.362   0.766   0.882
19970TIP3    H281326   3.440   0.725   0.759
19971TIP3   OH281327   2.037   6.415   0.970
19971TIP3    H181328   2.022   6.435   0.877
19971TIP3    H281329   2.062   6.323   0.971
19972LIG      S81330   3.490   3.162  16.786
19972LIG     N181331   3.284   3.449  16.392
19972LIG     N281332   3.480   3.417  16.620
19972LIG     N381333   3.310   3.538  15.961
19972LIG     C181334   3.283   3.572  16.471
19972LIG     C281335   3.428   3.621  16.486
19972LIG     C381336   3.532   3.511  16.518
19972LIG     C481337   3.387   3.312  16.578
19972LIG     C581338   3.305   3.324  16.460
19972LIG     C681339   3.242   3.460  16.250
19972LIG     C781340   3.350   3.395  16.161
19972LIG     C881341   3.509   3.434  16.761
19972LIG     C981342   3.389   3.187  16.645
19972LIG    C1081343   3.239   3.210  16.411
19972LIG    C1181344   3.317   3.400  16.010
19972LIG    C1281345   3.518   3.323  16.848
19972LIG    C1381346   3.320   3.076  16.595
19972LIG    C1481347   3.246   3.087  16.477
19972LIG    C1581348   3.543   3.561  16.813
19972LIG    C1681349   3.557   3.338  16.982
19972LIG    C1781350   3.585   3.576  16.946
19972LIG    C1881351   3.592   3.465  17.030
19972LIG    C1981352   3.273   3.543  15.820
19972LIG    C2081353   3.427   3.618  15.992
19972LIG     H181354   3.239   3.552  16.572
19972LIG     H281355   3.221   3.650  16.423
19972LIG     H381356   3.429   3.699  16.565
19972LIG     H481357   3.459   3.670  16.391
19972LIG     H581358   3.554   3.454  16.426
19972LIG     H681359   3.627   3.558  16.551
19972LIG     H781360   3.231   3.567  16.221
19972LIG     H881361   3.144   3.411  16.234
19972LIG     H981362   3.360   3.288  16.187
19972LIG    H1081363   3.448   3.442  16.182
19972LIG    H1181364   3.179   3.215  16.321
19972LIG    H1281365   3.395   3.345  15.952
19972LIG    H1381366   3.219   3.350  15.992
19972LIG    H1481367   3.325   2.981  16.645
19972LIG    H1581368   3.195   3.001  16.436
19972LIG    H1681369   3.541   3.649  16.750
19972LIG    H1781370   3.563   3.252  17.047
19972LIG    H1881371   3.615   3.673  16.983
19972LIG    H1981372   3.625   3.476  17.132
19972LIG    H2081373   3.186   3.477  15.798
19972LIG    H2181374   3.358   3.511  15.756
19972LIG    H2281375   3.245   3.647  15.790
19972LIG    H2381376   3.521   3.560  15.977
19972LIG    H2481377   3.425   3.654  16.097
19972LIG    H2581378   3.433   3.709  15.927
   6.78697   6.78697  17.23950
